   JOB DONE.
=------------------------------------------------------------------------------=

     Program PWSCF v.5.0.1 starts on 13Nov2012 at 12:42: 0 

     This program is part of the open-source Quantum ESPRESSO suite
     for quantum simulation of materials; please cite
         "P. Giannozzi et al., J. Phys.:Condens. Matter 21 395502 (2009);
          URL http://www.quantum-espresso.org", 
     in publications or presentations arising from this work. More details at
     http://www.quantum-espresso.org/quote.php

     Parallel version (MPI), running on     2 processors
     R & G space division:  proc/pool =    2

     Current dimensions of program PWSCF are:
     Max number of different atomic species (ntypx) = 10
     Max number of k-points (npk) =  40000
     Max angular momentum in pseudopotentials (lmaxx) =  3
     Reading input from NiO_U0_a10.in
               file Ni.pbe-nd-rrkjus.UPF: wavefunction(s)  4S renormalized
               file Ni.pbe-nd-rrkjus.UPF: wavefunction(s)  4S renormalized
               file O.pbe-rrkjus.UPF: wavefunction(s)  2S renormalized
               file O.pbe-rrkjus.UPF: wavefunction(s)  2S renormalized

     Subspace diagonalization in iterative solution of the eigenvalue problem:
     a serial algorithm will be used


     Parallelization info
     --------------------
     sticks:   dense  smooth     PW     G-vecs:    dense   smooth      PW
     Min        1293     519    150                43273    11032    1738
     Max        1294     520    151                43274    11043    1741
     Sum        2587    1039    301                86547    22075    3479


     Title: 
     GGA + U, U = 1D-40, alpha = 0.100                                          


     bravais-lattice index     =            2
     lattice parameter (alat)  =      15.8000  a.u.
     unit-cell volume          =     986.0780 (a.u.)^3
     number of atoms/cell      =           16
     number of atomic types    =            4
     number of electrons       =       128.00
     number of Kohn-Sham states=           77
     kinetic-energy cutoff     =      30.0000  Ry
     charge density cutoff     =     300.0000  Ry
     convergence threshold     =      1.0E-08
     mixing beta               =       0.3000
     number of iterations used =            8  plain     mixing
     Exchange-correlation      =  SLA  PW   PBE  PBE ( 1 4 3 4 0)
     EXX-fraction              =        0.00

     celldm(1)=  15.800000  celldm(2)=   0.000000  celldm(3)=   0.000000
     celldm(4)=   0.000000  celldm(5)=   0.000000  celldm(6)=   0.000000

     crystal axes: (cart. coord. in units of alat)
               a(1) = (  -0.500000   0.000000   0.500000 )  
               a(2) = (   0.000000   0.500000   0.500000 )  
               a(3) = (  -0.500000   0.500000   0.000000 )  

     reciprocal axes: (cart. coord. in units 2 pi/alat)
               b(1) = ( -1.000000 -1.000000  1.000000 )  
               b(2) = (  1.000000  1.000000  1.000000 )  
               b(3) = ( -1.000000  1.000000 -1.000000 )  


     PseudoPot. # 1 for Ni read from file:
     /home/mcurnan/dft-course/Project1/example_NiO/Ni.pbe-nd-rrkjus.UPF
     MD5 check sum: 8081f0a005c9a5470caab1a58e82ecb2
     Pseudo is Ultrasoft + core correction, Zval = 10.0
     Generated by new atomic code, or converted to UPF format
     Using radial grid of 1203 points,  6 beta functions with: 
                l(1) =   0
                l(2) =   0
                l(3) =   1
                l(4) =   1
                l(5) =   2
                l(6) =   2
     Q(r) pseudized with 0 coefficients 


     PseudoPot. # 2 for Ni read from file:
     /home/mcurnan/dft-course/Project1/example_NiO/Ni.pbe-nd-rrkjus.UPF
     MD5 check sum: 8081f0a005c9a5470caab1a58e82ecb2
     Pseudo is Ultrasoft + core correction, Zval = 10.0
     Generated by new atomic code, or converted to UPF format
     Using radial grid of 1203 points,  6 beta functions with: 
                l(1) =   0
                l(2) =   0
                l(3) =   1
                l(4) =   1
                l(5) =   2
                l(6) =   2
     Q(r) pseudized with 0 coefficients 


     PseudoPot. # 3 for O  read from file:
     /home/mcurnan/dft-course/Project1/example_NiO/O.pbe-rrkjus.UPF
     MD5 check sum: 390ba29e75625707450f3bd3f0eb6be9
     Pseudo is Ultrasoft, Zval =  6.0
     Generated by new atomic code, or converted to UPF format
     Using radial grid of 1269 points,  4 beta functions with: 
                l(1) =   0
                l(2) =   0
                l(3) =   1
                l(4) =   1
     Q(r) pseudized with 0 coefficients 


     PseudoPot. # 4 for O  read from file:
     /home/mcurnan/dft-course/Project1/example_NiO/O.pbe-rrkjus.UPF
     MD5 check sum: 390ba29e75625707450f3bd3f0eb6be9
     Pseudo is Ultrasoft, Zval =  6.0
     Generated by new atomic code, or converted to UPF format
     Using radial grid of 1269 points,  4 beta functions with: 
                l(1) =   0
                l(2) =   0
                l(3) =   1
                l(4) =   1
     Q(r) pseudized with 0 coefficients 


     atomic species   valence    mass     pseudopotential
        Ni1           10.00     1.00000     Ni( 1.00)
        Ni2           10.00     1.00000     Ni( 1.00)
        O1             6.00     1.00000     O ( 1.00)
        O2             6.00     1.00000     O ( 1.00)

     Starting magnetic structure 
     atomic species   magnetization
        Ni1          0.500
        Ni2         -0.500
        O1           0.000
        O2           0.000
 -----
     simplified LDA+U calculation, Hubbard_lmax = 2
     atomic species  L   Hubbard U  Hubbard alpha
        Ni1          2    0.000000    0.000000
        Ni2          2    0.000000    0.000000
        O1           1    0.000000    0.100000
        O2           1    0.000000    0.000000
 -----

      6 Sym. Ops. (no inversion) found


                                    s                        frac. trans.

      isym =  1     identity                                     

 cryst.   s( 1) = (     1          0          0      )
                  (     0          1          0      )
                  (     0          0          1      )

 cart.    s( 1) = (  1.0000000  0.0000000  0.0000000 )
                  (  0.0000000  1.0000000  0.0000000 )
                  (  0.0000000  0.0000000  1.0000000 )


      isym =  2     120 deg rotation - cart. axis [-1,1,1]       

 cryst.   s( 2) = (     0          1          0      )
                  (     0          0          1      )
                  (     1          0          0      )

 cart.    s( 2) = (  0.0000000 -1.0000000  0.0000000 )
                  (  0.0000000  0.0000000  1.0000000 )
                  ( -1.0000000  0.0000000  0.0000000 )


      isym =  3     120 deg rotation - cart. axis [1,-1,-1]      

 cryst.   s( 3) = (     0          0          1      )
                  (     1          0          0      )
                  (     0          1          0      )

 cart.    s( 3) = (  0.0000000  0.0000000 -1.0000000 )
                  ( -1.0000000  0.0000000  0.0000000 )
                  (  0.0000000  1.0000000  0.0000000 )


      isym =  4     inv. 180 deg rotation - cart. axis [1,1,0]   

 cryst.   s( 4) = (     0          1          0      )
                  (     1          0          0      )
                  (     0          0          1      )

 cart.    s( 4) = (  0.0000000 -1.0000000  0.0000000 )
                  ( -1.0000000  0.0000000  0.0000000 )
                  (  0.0000000  0.0000000  1.0000000 )


      isym =  5     inv. 180 deg rotation - cart. axis [1,0,1]   

 cryst.   s( 5) = (     1          0          0      )
                  (     0          0          1      )
                  (     0          1          0      )

 cart.    s( 5) = (  0.0000000  0.0000000 -1.0000000 )
                  (  0.0000000  1.0000000  0.0000000 )
                  ( -1.0000000  0.0000000  0.0000000 )


      isym =  6     inv. 180 deg rotation - cart. axis [0,1,-1]  

 cryst.   s( 6) = (     0          0          1      )
                  (     0          1          0      )
                  (     1          0          0      )

 cart.    s( 6) = (  1.0000000  0.0000000  0.0000000 )
                  (  0.0000000  0.0000000  1.0000000 )
                  (  0.0000000  1.0000000  0.0000000 )


     point group C_3v (3m)  
     there are  3 classes
     the character table:

       E     2C3   3s_v 
A_1    1.00  1.00  1.00
A_2    1.00  1.00 -1.00
E      2.00 -1.00  0.00

     the symmetry operations in each class:
     E        1
     2C3      2    3
     3s_v     4    5    6

   Cartesian axes

     site n.     atom                  positions (alat units)
         1           Ni1 tau(   1) = (   0.0000000  -0.2500000   0.0000000  )
         2           Ni1 tau(   2) = (  -0.2500000   0.0000000   0.5000000  )
         3           Ni1 tau(   3) = (  -0.5000000   0.0000000   0.2500000  )
         4           Ni1 tau(   4) = (  -0.2500000   0.2500000   0.2500000  )
         5           Ni2 tau(   5) = (  -0.2500000  -0.2500000   0.2500000  )
         6           Ni2 tau(   6) = (   0.0000000   0.0000000   0.2500000  )
         7           Ni2 tau(   7) = (  -0.2500000   0.0000000   0.0000000  )
         8           Ni2 tau(   8) = (  -0.5000000   0.2500000   0.5000000  )
         9           O1  tau(   9) = (   0.0000000   0.0000000   0.0000000  )
        10           O2  tau(  10) = (  -0.2500000   0.0000000   0.2500000  )
        11           O2  tau(  11) = (   0.0000000   0.2500000   0.2500000  )
        12           O2  tau(  12) = (  -0.2500000   0.2500000   0.0000000  )
        13           O2  tau(  13) = (  -0.2500000   0.2500000   0.5000000  )
        14           O2  tau(  14) = (  -0.5000000   0.2500000   0.2500000  )
        15           O2  tau(  15) = (  -0.2500000   0.5000000   0.2500000  )
        16           O2  tau(  16) = (  -0.5000000   0.5000000   0.5000000  )

   Crystallographic axes

     site n.     atom                  positions (cryst. coord.)
         1           Ni1 tau(   1) = (  0.2500000 -0.2500000 -0.2500000  )
         2           Ni1 tau(   2) = (  0.7500000  0.2500000 -0.2500000  )
         3           Ni1 tau(   3) = (  0.7500000 -0.2500000  0.2500000  )
         4           Ni1 tau(   4) = (  0.2500000  0.2500000  0.2500000  )
         5           Ni2 tau(   5) = (  0.7500000 -0.2500000 -0.2500000  )
         6           Ni2 tau(   6) = (  0.2500000  0.2500000 -0.2500000  )
         7           Ni2 tau(   7) = (  0.2500000 -0.2500000  0.2500000  )
         8           Ni2 tau(   8) = (  0.7500000  0.2500000  0.2500000  )
         9           O1  tau(   9) = (  0.0000000  0.0000000  0.0000000  )
        10           O2  tau(  10) = (  0.5000000  0.0000000  0.0000000  )
        11           O2  tau(  11) = (  0.0000000  0.5000000  0.0000000  )
        12           O2  tau(  12) = (  0.0000000  0.0000000  0.5000000  )
        13           O2  tau(  13) = (  0.5000000  0.5000000  0.0000000  )
        14           O2  tau(  14) = (  0.5000000  0.0000000  0.5000000  )
        15           O2  tau(  15) = (  0.0000000  0.5000000  0.5000000  )
        16           O2  tau(  16) = (  0.5000000  0.5000000  0.5000000  )

     number of k points=    26  gaussian smearing, width (Ry)=  0.0100
                       cart. coord. in units 2pi/alat
        k(    1) = (   0.0000000   0.0000000   0.0000000), wk =   0.0156250
        k(    2) = (  -0.2500000   0.2500000  -0.2500000), wk =   0.0937500
        k(    3) = (   0.5000000  -0.5000000   0.5000000), wk =   0.0468750
        k(    4) = (   0.0000000   0.5000000   0.0000000), wk =   0.0937500
        k(    5) = (   0.7500000  -0.2500000   0.7500000), wk =   0.1875000
        k(    6) = (   0.5000000   0.0000000   0.5000000), wk =   0.0937500
        k(    7) = (   0.0000000  -1.0000000   0.0000000), wk =   0.0468750
        k(    8) = (  -0.5000000  -1.0000000   0.0000000), wk =   0.0937500
        k(    9) = (  -0.2500000   0.2500000   0.2500000), wk =   0.0312500
        k(   10) = (   0.5000000  -0.5000000  -0.5000000), wk =   0.0156250
        k(   11) = (   0.2500000   0.7500000   0.7500000), wk =   0.0937500
        k(   12) = (   0.7500000  -0.2500000  -0.7500000), wk =   0.0937500
        k(   13) = (   0.0000000   0.5000000   0.5000000), wk =   0.0937500
        k(   14) = (   0.0000000   0.0000000   0.0000000), wk =   0.0156250
        k(   15) = (  -0.2500000   0.2500000  -0.2500000), wk =   0.0937500
        k(   16) = (   0.5000000  -0.5000000   0.5000000), wk =   0.0468750
        k(   17) = (   0.0000000   0.5000000   0.0000000), wk =   0.0937500
        k(   18) = (   0.7500000  -0.2500000   0.7500000), wk =   0.1875000
        k(   19) = (   0.5000000   0.0000000   0.5000000), wk =   0.0937500
        k(   20) = (   0.0000000  -1.0000000   0.0000000), wk =   0.0468750
        k(   21) = (  -0.5000000  -1.0000000   0.0000000), wk =   0.0937500
        k(   22) = (  -0.2500000   0.2500000   0.2500000), wk =   0.0312500
        k(   23) = (   0.5000000  -0.5000000  -0.5000000), wk =   0.0156250
        k(   24) = (   0.2500000   0.7500000   0.7500000), wk =   0.0937500
        k(   25) = (   0.7500000  -0.2500000  -0.7500000), wk =   0.0937500
        k(   26) = (   0.0000000   0.5000000   0.5000000), wk =   0.0937500

                       cryst. coord.
        k(    1) = (   0.0000000   0.0000000   0.0000000), wk =   0.0156250
        k(    2) = (   0.0000000   0.0000000   0.2500000), wk =   0.0937500
        k(    3) = (   0.0000000   0.0000000  -0.5000000), wk =   0.0468750
        k(    4) = (   0.0000000   0.2500000   0.2500000), wk =   0.0937500
        k(    5) = (   0.0000000   0.2500000  -0.5000000), wk =   0.1875000
        k(    6) = (   0.0000000   0.2500000  -0.2500000), wk =   0.0937500
        k(    7) = (   0.0000000  -0.5000000  -0.5000000), wk =   0.0468750
        k(    8) = (   0.2500000  -0.5000000  -0.2500000), wk =   0.0937500
        k(    9) = (   0.2500000   0.2500000   0.2500000), wk =   0.0312500
        k(   10) = (  -0.5000000  -0.5000000  -0.5000000), wk =   0.0156250
        k(   11) = (   0.2500000   0.7500000   0.2500000), wk =   0.0937500
        k(   12) = (  -0.7500000  -0.5000000  -0.5000000), wk =   0.0937500
        k(   13) = (   0.2500000   0.5000000   0.2500000), wk =   0.0937500
        k(   14) = (   0.0000000   0.0000000   0.0000000), wk =   0.0156250
        k(   15) = (   0.0000000   0.0000000   0.2500000), wk =   0.0937500
        k(   16) = (   0.0000000   0.0000000  -0.5000000), wk =   0.0468750
        k(   17) = (   0.0000000   0.2500000   0.2500000), wk =   0.0937500
        k(   18) = (   0.0000000   0.2500000  -0.5000000), wk =   0.1875000
        k(   19) = (   0.0000000   0.2500000  -0.2500000), wk =   0.0937500
        k(   20) = (   0.0000000  -0.5000000  -0.5000000), wk =   0.0468750
        k(   21) = (   0.2500000  -0.5000000  -0.2500000), wk =   0.0937500
        k(   22) = (   0.2500000   0.2500000   0.2500000), wk =   0.0312500
        k(   23) = (  -0.5000000  -0.5000000  -0.5000000), wk =   0.0156250
        k(   24) = (   0.2500000   0.7500000   0.2500000), wk =   0.0937500
        k(   25) = (  -0.7500000  -0.5000000  -0.5000000), wk =   0.0937500
        k(   26) = (   0.2500000   0.5000000   0.2500000), wk =   0.0937500

     Dense  grid:    86547 G-vectors     FFT dimensions: (  64,  64,  64)

     Smooth grid:    22075 G-vectors     FFT dimensions: (  40,  40,  40)

     Largest allocated arrays     est. size (Mb)     dimensions
        Kohn-Sham Wavefunctions         1.64 Mb     (   1395,   77)
        Atomic wavefunctions            1.70 Mb     (   1395,   80)
        NL pseudopotentials             4.43 Mb     (   1395,  208)
        Each V/rho on FFT grid          4.00 Mb     ( 131072,   2)
        Each G-vector array             0.33 Mb     (  43274)
        G-vector shells                 0.00 Mb     (    635)
     Largest temporary arrays     est. size (Mb)     dimensions
        Auxiliary wavefunctions         6.56 Mb     (   1395,  308)
        Each subspace H/S matrix        1.45 Mb     ( 308, 308)
        Each <psi_i|beta_j> matrix      0.24 Mb     (    208,   77)
        Arrays for rho mixing          16.00 Mb     ( 131072,   8)

     Check: negative/imaginary core charge=   -0.000047    0.000000

     The initial density is read from file :
     /home/mcurnan/dft-course/Project1/example_NiO/0/O/alpha/NiO_U0.save/charge-density.dat

 --- in v_hubbard ---
Hubbard energy    0.0413
 -------
     Number of +U iterations with fixed ns =  0
     Starting occupations:
 --- enter write_ns ---
 LDA+U parameters:
U( 1)     =  0.00000000
alpha( 1) =  0.00000000
U( 2)     =  0.00000000
alpha( 2) =  0.00000000
U( 3)     =  0.00000000
alpha( 3) =  0.10000000
U( 4)     =  0.00000000
alpha( 4) =  0.00000000
atom    1   Tr[ns(na)] (up, down, total) =   4.95241  3.75362  8.70602
   spin  1
    eigenvalues: 
  0.980  0.980  0.997  0.997  0.997
    eigenvectors:
  0.750  0.250  0.000  0.000  0.000
  0.000  0.000  0.000  0.666  0.334
  0.000  0.000  0.500  0.167  0.333
  0.250  0.750  0.000  0.000  0.000
  0.000  0.000  0.500  0.167  0.333
    occupations:
  0.980  0.000  0.000  0.000  0.000
  0.000  0.997  0.000  0.000  0.000
  0.000  0.000  0.997  0.000  0.000
  0.000  0.000  0.000  0.980  0.000
  0.000  0.000  0.000  0.000  0.997
   spin  2
    eigenvalues: 
  0.384  0.384  0.995  0.995  0.995
    eigenvectors:
  0.250  0.750  0.000  0.000  0.000
  0.000  0.000  0.000  0.667  0.333
  0.000  0.000  0.500  0.167  0.333
  0.750  0.250  0.000  0.000  0.000
  0.000  0.000  0.500  0.167  0.333
    occupations:
  0.384 -0.001  0.001  0.000 -0.001
 -0.001  0.995  0.000 -0.001  0.000
  0.001  0.000  0.995 -0.001  0.000
  0.000 -0.001 -0.001  0.384  0.000
 -0.001  0.000  0.000  0.000  0.995
atomic mag. moment =     1.198791
atom    2   Tr[ns(na)] (up, down, total) =   4.95241  3.75362  8.70602
   spin  1
    eigenvalues: 
  0.980  0.980  0.997  0.997  0.997
    eigenvectors:
  0.750  0.250  0.000  0.000  0.000
  0.000  0.000  0.500  0.167  0.333
  0.000  0.000  0.000  0.666  0.334
  0.250  0.750  0.000  0.000  0.000
  0.000  0.000  0.500  0.167  0.333
    occupations:
  0.980  0.000  0.000  0.000  0.000
  0.000  0.997  0.000  0.000  0.000
  0.000  0.000  0.997  0.000  0.000
  0.000  0.000  0.000  0.980  0.000
  0.000  0.000  0.000  0.000  0.997
   spin  2
    eigenvalues: 
  0.384  0.384  0.995  0.995  0.995
    eigenvectors:
  0.250  0.750  0.000  0.000  0.000
  0.000  0.000  0.500  0.167  0.333
  0.000  0.000  0.000  0.667  0.333
  0.750  0.250  0.000  0.000  0.000
  0.000  0.000  0.500  0.167  0.333
    occupations:
  0.384 -0.001  0.001  0.000 -0.001
 -0.001  0.995  0.000 -0.001  0.000
  0.001  0.000  0.995 -0.001  0.000
  0.000 -0.001 -0.001  0.384  0.000
 -0.001  0.000  0.000  0.000  0.995
atomic mag. moment =     1.198791
atom    3   Tr[ns(na)] (up, down, total) =   4.95241  3.75362  8.70602
   spin  1
    eigenvalues: 
  0.980  0.980  0.997  0.997  0.997
    eigenvectors:
  0.000  1.000  0.000  0.000  0.000
  0.000  0.000  0.500  0.167  0.333
  0.000  0.000  0.500  0.167  0.333
  1.000  0.000  0.000  0.000  0.000
  0.000  0.000  0.000  0.666  0.334
    occupations:
  0.980  0.000  0.000  0.000  0.000
  0.000  0.997  0.000  0.000  0.000
  0.000  0.000  0.997  0.000  0.000
  0.000  0.000  0.000  0.980  0.000
  0.000  0.000  0.000  0.000  0.997
   spin  2
    eigenvalues: 
  0.384  0.384  0.995  0.995  0.995
    eigenvectors:
  1.000  0.000  0.000  0.000  0.000
  0.000  0.000  0.500  0.167  0.333
  0.000  0.000  0.500  0.167  0.333
  0.000  1.000  0.000  0.000  0.000
  0.000  0.000  0.000  0.667  0.333
    occupations:
  0.384 -0.001  0.001  0.000 -0.001
 -0.001  0.995  0.000 -0.001  0.000
  0.001  0.000  0.995 -0.001  0.000
  0.000 -0.001 -0.001  0.384  0.000
 -0.001  0.000  0.000  0.000  0.995
atomic mag. moment =     1.198791
atom    4   Tr[ns(na)] (up, down, total) =   4.95241  3.75362  8.70602
   spin  1
    eigenvalues: 
  0.980  0.980  0.997  0.997  0.997
    eigenvectors:
  0.014  0.986  0.000  0.000  0.000
  0.000  0.000  0.067  0.600  0.333
  0.000  0.000  0.640  0.027  0.333
  0.986  0.014  0.000  0.000  0.000
  0.000  0.000  0.293  0.374  0.333
    occupations:
  0.980  0.000  0.000  0.000  0.000
  0.000  0.997  0.000  0.000  0.000
  0.000  0.000  0.997  0.000  0.000
  0.000  0.000  0.000  0.980  0.000
  0.000  0.000  0.000  0.000  0.997
   spin  2
    eigenvalues: 
  0.384  0.384  0.995  0.995  0.995
    eigenvectors:
  0.001  0.999  0.000  0.000  0.000
  0.000  0.000  0.044  0.622  0.333
  0.000  0.000  0.622  0.045  0.333
  0.999  0.001  0.000  0.000  0.000
  0.000  0.000  0.334  0.333  0.333
    occupations:
  0.384 -0.001  0.001  0.000 -0.001
 -0.001  0.995  0.000 -0.001  0.000
  0.001  0.000  0.995 -0.001  0.000
  0.000 -0.001 -0.001  0.384  0.000
 -0.001  0.000  0.000  0.000  0.995
atomic mag. moment =     1.198791
atom    5   Tr[ns(na)] (up, down, total) =   3.75362  4.95241  8.70602
   spin  1
    eigenvalues: 
  0.384  0.384  0.995  0.995  0.995
    eigenvectors:
  0.010  0.990  0.000  0.000  0.000
  0.000  0.000  0.062  0.605  0.333
  0.000  0.000  0.637  0.030  0.333
  0.990  0.010  0.000  0.000  0.000
  0.000  0.000  0.302  0.365  0.333
    occupations:
  0.384 -0.001  0.001  0.000 -0.001
 -0.001  0.995  0.000 -0.001  0.000
  0.001  0.000  0.995 -0.001  0.000
  0.000 -0.001 -0.001  0.384  0.000
 -0.001  0.000  0.000  0.000  0.995
   spin  2
    eigenvalues: 
  0.980  0.980  0.997  0.997  0.997
    eigenvectors:
  0.067  0.933  0.000  0.000  0.000
  0.000  0.000  0.069  0.598  0.333
  0.000  0.000  0.641  0.026  0.333
  0.933  0.067  0.000  0.000  0.000
  0.000  0.000  0.290  0.376  0.333
    occupations:
  0.980  0.000  0.000  0.000  0.000
  0.000  0.997  0.000  0.000  0.000
  0.000  0.000  0.997  0.000  0.000
  0.000  0.000  0.000  0.980  0.000
  0.000  0.000  0.000  0.000  0.997
atomic mag. moment =    -1.198792
atom    6   Tr[ns(na)] (up, down, total) =   3.75362  4.95241  8.70603
   spin  1
    eigenvalues: 
  0.384  0.384  0.995  0.995  0.995
    eigenvectors:
  0.000  1.000  0.000  0.000  0.000
  0.000  0.000  0.500  0.167  0.333
  0.000  0.000  0.500  0.167  0.333
  1.000  0.000  0.000  0.000  0.000
  0.000  0.000  0.000  0.667  0.333
    occupations:
  0.384 -0.001  0.001  0.000 -0.001
 -0.001  0.995  0.000 -0.001  0.000
  0.001  0.000  0.995 -0.001  0.000
  0.000 -0.001 -0.001  0.384  0.000
 -0.001  0.000  0.000  0.000  0.995
   spin  2
    eigenvalues: 
  0.980  0.980  0.997  0.997  0.997
    eigenvectors:
  1.000  0.000  0.000  0.000  0.000
  0.000  0.000  0.500  0.167  0.333
  0.000  0.000  0.500  0.167  0.333
  0.000  1.000  0.000  0.000  0.000
  0.000  0.000  0.000  0.667  0.333
    occupations:
  0.980  0.000  0.000  0.000  0.000
  0.000  0.997  0.000  0.000  0.000
  0.000  0.000  0.997  0.000  0.000
  0.000  0.000  0.000  0.980  0.000
  0.000  0.000  0.000  0.000  0.997
atomic mag. moment =    -1.198788
atom    7   Tr[ns(na)] (up, down, total) =   3.75362  4.95241  8.70603
   spin  1
    eigenvalues: 
  0.384  0.384  0.995  0.995  0.995
    eigenvectors:
  0.750  0.250  0.000  0.000  0.000
  0.000  0.000  0.500  0.167  0.333
  0.000  0.000  0.000  0.667  0.333
  0.250  0.750  0.000  0.000  0.000
  0.000  0.000  0.500  0.167  0.333
    occupations:
  0.384 -0.001  0.001  0.000 -0.001
 -0.001  0.995  0.000 -0.001  0.000
  0.001  0.000  0.995 -0.001  0.000
  0.000 -0.001 -0.001  0.384  0.000
 -0.001  0.000  0.000  0.000  0.995
   spin  2
    eigenvalues: 
  0.980  0.980  0.997  0.997  0.997
    eigenvectors:
  0.250  0.750  0.000  0.000  0.000
  0.000  0.000  0.500  0.167  0.333
  0.000  0.000  0.000  0.667  0.333
  0.750  0.250  0.000  0.000  0.000
  0.000  0.000  0.500  0.167  0.333
    occupations:
  0.980  0.000  0.000  0.000  0.000
  0.000  0.997  0.000  0.000  0.000
  0.000  0.000  0.997  0.000  0.000
  0.000  0.000  0.000  0.980  0.000
  0.000  0.000  0.000  0.000  0.997
atomic mag. moment =    -1.198788
atom    8   Tr[ns(na)] (up, down, total) =   3.75362  4.95241  8.70603
   spin  1
    eigenvalues: 
  0.384  0.384  0.995  0.995  0.995
    eigenvectors:
  0.750  0.250  0.000  0.000  0.000
  0.000  0.000  0.000  0.667  0.333
  0.000  0.000  0.500  0.167  0.333
  0.250  0.750  0.000  0.000  0.000
  0.000  0.000  0.500  0.167  0.333
    occupations:
  0.384 -0.001  0.001  0.000 -0.001
 -0.001  0.995  0.000 -0.001  0.000
  0.001  0.000  0.995 -0.001  0.000
  0.000 -0.001 -0.001  0.384  0.000
 -0.001  0.000  0.000  0.000  0.995
   spin  2
    eigenvalues: 
  0.980  0.980  0.997  0.997  0.997
    eigenvectors:
  0.250  0.750  0.000  0.000  0.000
  0.000  0.000  0.000  0.667  0.333
  0.000  0.000  0.500  0.167  0.333
  0.750  0.250  0.000  0.000  0.000
  0.000  0.000  0.500  0.167  0.333
    occupations:
  0.980  0.000  0.000  0.000  0.000
  0.000  0.997  0.000  0.000  0.000
  0.000  0.000  0.997  0.000  0.000
  0.000  0.000  0.000  0.980  0.000
  0.000  0.000  0.000  0.000  0.997
atomic mag. moment =    -1.198788
atom    9   Tr[ns(na)] (up, down, total) =   2.81114  2.81114  5.62228
   spin  1
    eigenvalues: 
  0.937  0.937  0.938
    eigenvectors:
  0.085  0.581  0.333
  0.265  0.402  0.333
  0.650  0.017  0.333
    occupations:
  0.937  0.000  0.000
  0.000  0.937  0.000
  0.000  0.000  0.937
   spin  2
    eigenvalues: 
  0.937  0.937  0.938
    eigenvectors:
  0.084  0.583  0.333
  0.267  0.400  0.333
  0.649  0.017  0.333
    occupations:
  0.937  0.000  0.000
  0.000  0.937  0.000
  0.000  0.000  0.937
atomic mag. moment =    -0.000001
atom   10   Tr[ns(na)] (up, down, total) =   2.81114  2.81114  5.62228
   spin  1
    eigenvalues: 
  0.937  0.937  0.938
    eigenvectors:
  0.500  0.167  0.333
  0.500  0.167  0.333
  0.000  0.667  0.333
    occupations:
  0.937  0.000  0.000
  0.000  0.937  0.000
  0.000  0.000  0.937
   spin  2
    eigenvalues: 
  0.937  0.937  0.938
    eigenvectors:
  0.500  0.167  0.333
  0.500  0.167  0.333
  0.000  0.667  0.333
    occupations:
  0.937  0.000  0.000
  0.000  0.937  0.000
  0.000  0.000  0.937
atomic mag. moment =     0.000000
atom   11   Tr[ns(na)] (up, down, total) =   2.81114  2.81114  5.62228
   spin  1
    eigenvalues: 
  0.937  0.937  0.938
    eigenvectors:
  0.500  0.167  0.333
  0.000  0.667  0.333
  0.500  0.167  0.333
    occupations:
  0.937  0.000  0.000
  0.000  0.937  0.000
  0.000  0.000  0.937
   spin  2
    eigenvalues: 
  0.937  0.937  0.938
    eigenvectors:
  0.500  0.167  0.333
  0.000  0.667  0.333
  0.500  0.167  0.333
    occupations:
  0.937  0.000  0.000
  0.000  0.937  0.000
  0.000  0.000  0.937
atomic mag. moment =     0.000000
atom   12   Tr[ns(na)] (up, down, total) =   2.81114  2.81114  5.62228
   spin  1
    eigenvalues: 
  0.937  0.937  0.938
    eigenvectors:
  0.000  0.667  0.333
  0.500  0.167  0.333
  0.500  0.167  0.333
    occupations:
  0.937  0.000  0.000
  0.000  0.937  0.000
  0.000  0.000  0.937
   spin  2
    eigenvalues: 
  0.937  0.937  0.938
    eigenvectors:
  0.000  0.667  0.333
  0.500  0.167  0.333
  0.500  0.167  0.333
    occupations:
  0.937  0.000  0.000
  0.000  0.937  0.000
  0.000  0.000  0.937
atomic mag. moment =     0.000000
atom   13   Tr[ns(na)] (up, down, total) =   2.81114  2.81114  5.62228
   spin  1
    eigenvalues: 
  0.937  0.937  0.938
    eigenvectors:
  0.000  0.667  0.333
  0.500  0.167  0.333
  0.500  0.167  0.333
    occupations:
  0.937  0.000  0.000
  0.000  0.937  0.000
  0.000  0.000  0.937
   spin  2
    eigenvalues: 
  0.937  0.937  0.938
    eigenvectors:
  0.000  0.667  0.333
  0.500  0.167  0.333
  0.500  0.167  0.333
    occupations:
  0.937  0.000  0.000
  0.000  0.937  0.000
  0.000  0.000  0.937
atomic mag. moment =     0.000000
atom   14   Tr[ns(na)] (up, down, total) =   2.81114  2.81114  5.62228
   spin  1
    eigenvalues: 
  0.937  0.937  0.938
    eigenvectors:
  0.500  0.167  0.333
  0.000  0.667  0.333
  0.500  0.167  0.333
    occupations:
  0.937  0.000  0.000
  0.000  0.937  0.000
  0.000  0.000  0.937
   spin  2
    eigenvalues: 
  0.937  0.937  0.938
    eigenvectors:
  0.500  0.167  0.333
  0.000  0.667  0.333
  0.500  0.167  0.333
    occupations:
  0.937  0.000  0.000
  0.000  0.937  0.000
  0.000  0.000  0.937
atomic mag. moment =     0.000000
atom   15   Tr[ns(na)] (up, down, total) =   2.81114  2.81114  5.62228
   spin  1
    eigenvalues: 
  0.937  0.937  0.938
    eigenvectors:
  0.500  0.167  0.333
  0.500  0.167  0.333
  0.000  0.667  0.333
    occupations:
  0.937  0.000  0.000
  0.000  0.937  0.000
  0.000  0.000  0.937
   spin  2
    eigenvalues: 
  0.937  0.937  0.938
    eigenvectors:
  0.500  0.167  0.333
  0.500  0.167  0.333
  0.000  0.667  0.333
    occupations:
  0.937  0.000  0.000
  0.000  0.937  0.000
  0.000  0.000  0.937
atomic mag. moment =     0.000000
atom   16   Tr[ns(na)] (up, down, total) =   2.81114  2.81114  5.62228
   spin  1
    eigenvalues: 
  0.937  0.937  0.938
    eigenvectors:
  0.072  0.595  0.333
  0.286  0.381  0.333
  0.643  0.024  0.333
    occupations:
  0.937  0.000  0.000
  0.000  0.937  0.000
  0.000  0.000  0.937
   spin  2
    eigenvalues: 
  0.937  0.937  0.938
    eigenvectors:
  0.027  0.640  0.333
  0.374  0.293  0.333
  0.600  0.067  0.333
    occupations:
  0.937  0.000  0.000
  0.000  0.937  0.000
  0.000  0.000  0.937
atomic mag. moment =    -0.000001
N of occupied +U levels = 114.6264667
 --- exit write_ns ---
 LDA+U Projector read from file 
     Starting wfc from file

     total cpu time spent up to now is       13.1 secs

     per-process dynamical memory:   103.4 Mb

     Self-consistent Calculation

     iteration #  1     ecut=    30.00 Ry     beta=0.30
     Davidson diagonalization with overlap
     c_bands:  1 eigenvalues not converged
     c_bands:  1 eigenvalues not converged
     c_bands:  1 eigenvalues not converged
     c_bands:  1 eigenvalues not converged
     c_bands:  1 eigenvalues not converged
     ethr =  1.00E-10,  avg # of iterations = 13.5
 --- enter write_ns ---
 LDA+U parameters:
U( 1)     =  0.00000000
alpha( 1) =  0.00000000
U( 2)     =  0.00000000
alpha( 2) =  0.00000000
U( 3)     =  0.00000000
alpha( 3) =  0.10000000
U( 4)     =  0.00000000
alpha( 4) =  0.00000000
atom    1   Tr[ns(na)] (up, down, total) =   4.95241  3.75520  8.70761
   spin  1
    eigenvalues: 
  0.980  0.980  0.997  0.997  0.997
    eigenvectors:
  0.250  0.750  0.000  0.000  0.000
  0.000  0.000  0.000  0.658  0.342
  0.000  0.000  0.500  0.171  0.329
  0.750  0.250  0.000  0.000  0.000
  0.000  0.000  0.500  0.171  0.329
    occupations:
  0.980  0.000  0.000  0.000  0.000
  0.000  0.997  0.000  0.000  0.000
  0.000  0.000  0.997  0.000  0.000
  0.000  0.000  0.000  0.980  0.000
  0.000  0.000  0.000  0.000  0.997
   spin  2
    eigenvalues: 
  0.384  0.385  0.995  0.995  0.995
    eigenvectors:
  0.750  0.250  0.000  0.000  0.000
  0.000  0.000  0.000  0.654  0.346
  0.000  0.000  0.500  0.173  0.327
  0.250  0.750  0.000  0.000  0.000
  0.000  0.000  0.500  0.173  0.327
    occupations:
  0.384 -0.001  0.001  0.001 -0.001
 -0.001  0.995  0.000 -0.001  0.000
  0.001  0.000  0.995 -0.001  0.000
  0.001 -0.001 -0.001  0.385  0.000
 -0.001  0.000  0.000  0.000  0.995
atomic mag. moment =     1.197206
atom    2   Tr[ns(na)] (up, down, total) =   4.95241  3.75520  8.70761
   spin  1
    eigenvalues: 
  0.980  0.980  0.997  0.997  0.997
    eigenvectors:
  0.250  0.750  0.000  0.000  0.000
  0.000  0.000  0.500  0.171  0.329
  0.000  0.000  0.000  0.658  0.342
  0.750  0.250  0.000  0.000  0.000
  0.000  0.000  0.500  0.171  0.329
    occupations:
  0.980  0.000  0.000  0.000  0.000
  0.000  0.997  0.000  0.000  0.000
  0.000  0.000  0.997  0.000  0.000
  0.000  0.000  0.000  0.980  0.000
  0.000  0.000  0.000  0.000  0.997
   spin  2
    eigenvalues: 
  0.384  0.385  0.995  0.995  0.995
    eigenvectors:
  0.750  0.250  0.000  0.000  0.000
  0.000  0.000  0.500  0.173  0.327
  0.000  0.000  0.000  0.654  0.346
  0.250  0.750  0.000  0.000  0.000
  0.000  0.000  0.500  0.173  0.327
    occupations:
  0.384 -0.001  0.001 -0.001 -0.001
 -0.001  0.995  0.000 -0.001  0.000
  0.001  0.000  0.995 -0.001  0.000
 -0.001 -0.001 -0.001  0.385  0.000
 -0.001  0.000  0.000  0.000  0.995
atomic mag. moment =     1.197206
atom    3   Tr[ns(na)] (up, down, total) =   4.95241  3.75520  8.70761
   spin  1
    eigenvalues: 
  0.980  0.980  0.997  0.997  0.997
    eigenvectors:
  1.000  0.000  0.000  0.000  0.000
  0.000  0.000  0.500  0.171  0.329
  0.000  0.000  0.500  0.171  0.329
  0.000  1.000  0.000  0.000  0.000
  0.000  0.000  0.000  0.658  0.342
    occupations:
  0.980  0.000  0.000  0.000  0.000
  0.000  0.997  0.000  0.000  0.000
  0.000  0.000  0.997  0.000  0.000
  0.000  0.000  0.000  0.980  0.000
  0.000  0.000  0.000  0.000  0.997
   spin  2
    eigenvalues: 
  0.384  0.385  0.995  0.995  0.995
    eigenvectors:
  0.000  1.000  0.000  0.000  0.000
  0.000  0.000  0.500  0.173  0.327
  0.000  0.000  0.500  0.173  0.327
  1.000  0.000  0.000  0.000  0.000
  0.000  0.000  0.000  0.654  0.346
    occupations:
  0.385 -0.001  0.001  0.000 -0.001
 -0.001  0.995  0.000 -0.001  0.000
  0.001  0.000  0.995 -0.001  0.000
  0.000 -0.001 -0.001  0.384  0.000
 -0.001  0.000  0.000  0.000  0.995
atomic mag. moment =     1.197206
atom    4   Tr[ns(na)] (up, down, total) =   4.95241  3.75363  8.70604
   spin  1
    eigenvalues: 
  0.980  0.980  0.997  0.997  0.997
    eigenvectors:
  0.002  0.998  0.000  0.000  0.000
  0.000  0.000  0.056  0.611  0.333
  0.000  0.000  0.632  0.035  0.333
  0.998  0.002  0.000  0.000  0.000
  0.000  0.000  0.313  0.354  0.333
    occupations:
  0.980  0.000  0.000  0.000  0.000
  0.000  0.997  0.000  0.000  0.000
  0.000  0.000  0.997  0.000  0.000
  0.000  0.000  0.000  0.980  0.000
  0.000  0.000  0.000  0.000  0.997
   spin  2
    eigenvalues: 
  0.384  0.384  0.995  0.995  0.995
    eigenvectors:
  0.011  0.989  0.000  0.000  0.000
  0.000  0.000  0.050  0.617  0.333
  0.000  0.000  0.627  0.040  0.333
  0.989  0.011  0.000  0.000  0.000
  0.000  0.000  0.323  0.343  0.333
    occupations:
  0.384 -0.001  0.001  0.000 -0.001
 -0.001  0.995  0.000 -0.001  0.000
  0.001  0.000  0.995 -0.001  0.000
  0.000 -0.001 -0.001  0.384  0.000
 -0.001  0.000  0.000  0.000  0.995
atomic mag. moment =     1.198780
atom    5   Tr[ns(na)] (up, down, total) =   3.75365  4.95241  8.70606
   spin  1
    eigenvalues: 
  0.384  0.384  0.995  0.995  0.995
    eigenvectors:
  0.009  0.991  0.000  0.000  0.000
  0.000  0.000  0.046  0.621  0.333
  0.000  0.000  0.623  0.043  0.333
  0.991  0.009  0.000  0.000  0.000
  0.000  0.000  0.331  0.336  0.333
    occupations:
  0.384 -0.001  0.001  0.000 -0.001
 -0.001  0.995  0.000 -0.001  0.000
  0.001  0.000  0.995 -0.001  0.000
  0.000 -0.001 -0.001  0.384  0.000
 -0.001  0.000  0.000  0.000  0.995
   spin  2
    eigenvalues: 
  0.980  0.980  0.997  0.997  0.997
    eigenvectors:
  0.047  0.953  0.000  0.000  0.000
  0.000  0.000  0.045  0.622  0.333
  0.000  0.000  0.622  0.044  0.333
  0.953  0.047  0.000  0.000  0.000
  0.000  0.000  0.333  0.334  0.333
    occupations:
  0.980  0.000  0.000  0.000  0.000
  0.000  0.997  0.000  0.000  0.000
  0.000  0.000  0.997  0.000  0.000
  0.000  0.000  0.000  0.980  0.000
  0.000  0.000  0.000  0.000  0.997
atomic mag. moment =    -1.198769
atom    6   Tr[ns(na)] (up, down, total) =   3.75518  4.95240  8.70758
   spin  1
    eigenvalues: 
  0.384  0.385  0.995  0.995  0.995
    eigenvectors:
  0.000  1.000  0.000  0.000  0.000
  0.000  0.000  0.500  0.172  0.328
  0.000  0.000  0.500  0.172  0.328
  1.000  0.000  0.000  0.000  0.000
  0.000  0.000  0.000  0.655  0.345
    occupations:
  0.385 -0.001  0.001  0.000 -0.001
 -0.001  0.995  0.000 -0.001  0.000
  0.001  0.000  0.995 -0.001  0.000
  0.000 -0.001 -0.001  0.384  0.000
 -0.001  0.000  0.000  0.000  0.995
   spin  2
    eigenvalues: 
  0.980  0.980  0.997  0.997  0.997
    eigenvectors:
  1.000  0.000  0.000  0.000  0.000
  0.000  0.000  0.500  0.172  0.328
  0.000  0.000  0.500  0.172  0.328
  0.000  1.000  0.000  0.000  0.000
  0.000  0.000  0.000  0.657  0.343
    occupations:
  0.980  0.000  0.000  0.000  0.000
  0.000  0.997  0.000  0.000  0.000
  0.000  0.000  0.997  0.000  0.000
  0.000  0.000  0.000  0.980  0.000
  0.000  0.000  0.000  0.000  0.997
atomic mag. moment =    -1.197221
atom    7   Tr[ns(na)] (up, down, total) =   3.75518  4.95240  8.70758
   spin  1
    eigenvalues: 
  0.384  0.385  0.995  0.995  0.995
    eigenvectors:
  0.750  0.250  0.000  0.000  0.000
  0.000  0.000  0.500  0.172  0.328
  0.000  0.000  0.000  0.655  0.345
  0.250  0.750  0.000  0.000  0.000
  0.000  0.000  0.500  0.172  0.328
    occupations:
  0.384 -0.001  0.001 -0.001 -0.001
 -0.001  0.995  0.000 -0.001  0.000
  0.001  0.000  0.995 -0.001  0.000
 -0.001 -0.001 -0.001  0.385  0.000
 -0.001  0.000  0.000  0.000  0.995
   spin  2
    eigenvalues: 
  0.980  0.980  0.997  0.997  0.997
    eigenvectors:
  0.250  0.750  0.000  0.000  0.000
  0.000  0.000  0.500  0.172  0.328
  0.000  0.000  0.000  0.657  0.343
  0.750  0.250  0.000  0.000  0.000
  0.000  0.000  0.500  0.172  0.328
    occupations:
  0.980  0.000  0.000  0.000  0.000
  0.000  0.997  0.000  0.000  0.000
  0.000  0.000  0.997  0.000  0.000
  0.000  0.000  0.000  0.980  0.000
  0.000  0.000  0.000  0.000  0.997
atomic mag. moment =    -1.197221
atom    8   Tr[ns(na)] (up, down, total) =   3.75518  4.95240  8.70758
   spin  1
    eigenvalues: 
  0.384  0.385  0.995  0.995  0.995
    eigenvectors:
  0.750  0.250  0.000  0.000  0.000
  0.000  0.000  0.000  0.655  0.345
  0.000  0.000  0.500  0.172  0.328
  0.250  0.750  0.000  0.000  0.000
  0.000  0.000  0.500  0.172  0.328
    occupations:
  0.384 -0.001  0.001  0.001 -0.001
 -0.001  0.995  0.000 -0.001  0.000
  0.001  0.000  0.995 -0.001  0.000
  0.001 -0.001 -0.001  0.385  0.000
 -0.001  0.000  0.000  0.000  0.995
   spin  2
    eigenvalues: 
  0.980  0.980  0.997  0.997  0.997
    eigenvectors:
  0.250  0.750  0.000  0.000  0.000
  0.000  0.000  0.000  0.657  0.343
  0.000  0.000  0.500  0.172  0.328
  0.750  0.250  0.000  0.000  0.000
  0.000  0.000  0.500  0.172  0.328
    occupations:
  0.980  0.000  0.000  0.000  0.000
  0.000  0.997  0.000  0.000  0.000
  0.000  0.000  0.997  0.000  0.000
  0.000  0.000  0.000  0.980  0.000
  0.000  0.000  0.000  0.000  0.997
atomic mag. moment =    -1.197221
atom    9   Tr[ns(na)] (up, down, total) =   2.80658  2.80657  5.61315
   spin  1
    eigenvalues: 
  0.935  0.935  0.936
    eigenvectors:
  0.114  0.553  0.333
  0.226  0.441  0.333
  0.660  0.006  0.333
    occupations:
  0.936  0.000  0.000
  0.000  0.936  0.000
  0.000  0.000  0.936
   spin  2
    eigenvalues: 
  0.935  0.935  0.936
    eigenvectors:
  0.065  0.602  0.333
  0.296  0.370  0.333
  0.639  0.028  0.333
    occupations:
  0.936  0.000  0.000
  0.000  0.936  0.000
  0.000  0.000  0.936
atomic mag. moment =     0.000004
atom   10   Tr[ns(na)] (up, down, total) =   2.81116  2.81115  5.62231
   spin  1
    eigenvalues: 
  0.937  0.937  0.938
    eigenvectors:
  0.171  0.500  0.329
  0.171  0.500  0.329
  0.659  0.000  0.341
    occupations:
  0.937  0.000  0.000
  0.000  0.937  0.000
  0.000  0.000  0.937
   spin  2
    eigenvalues: 
  0.937  0.937  0.938
    eigenvectors:
  0.171  0.500  0.329
  0.171  0.500  0.329
  0.658  0.000  0.342
    occupations:
  0.937  0.000  0.000
  0.000  0.937  0.000
  0.000  0.000  0.937
atomic mag. moment =     0.000002
atom   11   Tr[ns(na)] (up, down, total) =   2.81116  2.81115  5.62231
   spin  1
    eigenvalues: 
  0.937  0.937  0.938
    eigenvectors:
  0.171  0.500  0.329
  0.659  0.000  0.341
  0.171  0.500  0.329
    occupations:
  0.937  0.000  0.000
  0.000  0.937  0.000
  0.000  0.000  0.937
   spin  2
    eigenvalues: 
  0.937  0.937  0.938
    eigenvectors:
  0.171  0.500  0.329
  0.658  0.000  0.342
  0.171  0.500  0.329
    occupations:
  0.937  0.000  0.000
  0.000  0.937  0.000
  0.000  0.000  0.937
atomic mag. moment =     0.000002
atom   12   Tr[ns(na)] (up, down, total) =   2.81116  2.81115  5.62231
   spin  1
    eigenvalues: 
  0.937  0.937  0.938
    eigenvectors:
  0.659  0.000  0.341
  0.171  0.500  0.329
  0.171  0.500  0.329
    occupations:
  0.937  0.000  0.000
  0.000  0.937  0.000
  0.000  0.000  0.937
   spin  2
    eigenvalues: 
  0.937  0.937  0.938
    eigenvectors:
  0.658  0.000  0.342
  0.171  0.500  0.329
  0.171  0.500  0.329
    occupations:
  0.937  0.000  0.000
  0.000  0.937  0.000
  0.000  0.000  0.937
atomic mag. moment =     0.000002
atom   13   Tr[ns(na)] (up, down, total) =   2.81114  2.81114  5.62228
   spin  1
    eigenvalues: 
  0.937  0.937  0.938
    eigenvectors:
  0.000  0.674  0.326
  0.500  0.163  0.337
  0.500  0.163  0.337
    occupations:
  0.937  0.000  0.000
  0.000  0.937  0.000
  0.000  0.000  0.937
   spin  2
    eigenvalues: 
  0.937  0.937  0.938
    eigenvectors:
  0.000  0.673  0.327
  0.500  0.164  0.336
  0.500  0.164  0.336
    occupations:
  0.937  0.000  0.000
  0.000  0.937  0.000
  0.000  0.000  0.937
atomic mag. moment =     0.000002
atom   14   Tr[ns(na)] (up, down, total) =   2.81114  2.81114  5.62228
   spin  1
    eigenvalues: 
  0.937  0.937  0.938
    eigenvectors:
  0.500  0.163  0.337
  0.000  0.674  0.326
  0.500  0.163  0.337
    occupations:
  0.937  0.000  0.000
  0.000  0.937  0.000
  0.000  0.000  0.937
   spin  2
    eigenvalues: 
  0.937  0.937  0.938
    eigenvectors:
  0.500  0.164  0.336
  0.000  0.673  0.327
  0.500  0.164  0.336
    occupations:
  0.937  0.000  0.000
  0.000  0.937  0.000
  0.000  0.000  0.937
atomic mag. moment =     0.000002
atom   15   Tr[ns(na)] (up, down, total) =   2.81114  2.81114  5.62228
   spin  1
    eigenvalues: 
  0.937  0.937  0.938
    eigenvectors:
  0.500  0.163  0.337
  0.500  0.163  0.337
  0.000  0.674  0.326
    occupations:
  0.937  0.000  0.000
  0.000  0.937  0.000
  0.000  0.000  0.937
   spin  2
    eigenvalues: 
  0.937  0.937  0.938
    eigenvectors:
  0.500  0.164  0.336
  0.500  0.164  0.336
  0.000  0.673  0.327
    occupations:
  0.937  0.000  0.000
  0.000  0.937  0.000
  0.000  0.000  0.937
atomic mag. moment =     0.000002
atom   16   Tr[ns(na)] (up, down, total) =   2.81153  2.81153  5.62306
   spin  1
    eigenvalues: 
  0.937  0.937  0.938
    eigenvectors:
  0.078  0.589  0.333
  0.275  0.391  0.333
  0.647  0.020  0.333
    occupations:
  0.937  0.000  0.000
  0.000  0.937  0.000
  0.000  0.000  0.937
   spin  2
    eigenvalues: 
  0.937  0.937  0.938
    eigenvectors:
  0.127  0.540  0.333
  0.210  0.457  0.333
  0.663  0.003  0.333
    occupations:
  0.937  0.000  0.000
  0.000  0.937  0.000
  0.000  0.000  0.937
atomic mag. moment =     0.000004
N of occupied +U levels = 114.6276666
 --- exit write_ns ---
 --- in v_hubbard ---
Hubbard energy    0.0413
 -------

     total cpu time spent up to now is      149.2 secs

     total energy              =    -941.97476081 Ry
     Harris-Foulkes estimate   =    -941.97481117 Ry
     estimated scf accuracy    <       0.00011102 Ry

     total magnetization       =     0.00 Bohr mag/cell
     absolute magnetization    =    12.28 Bohr mag/cell

     iteration #  2     ecut=    30.00 Ry     beta=0.30
     Davidson diagonalization with overlap
     ethr =  8.67E-08,  avg # of iterations =  2.0
 --- enter write_ns ---
 LDA+U parameters:
U( 1)     =  0.00000000
alpha( 1) =  0.00000000
U( 2)     =  0.00000000
alpha( 2) =  0.00000000
U( 3)     =  0.00000000
alpha( 3) =  0.10000000
U( 4)     =  0.00000000
alpha( 4) =  0.00000000
atom    1   Tr[ns(na)] (up, down, total) =   4.95242  3.75384  8.70626
   spin  1
    eigenvalues: 
  0.980  0.980  0.997  0.997  0.997
    eigenvectors:
  0.750  0.250  0.000  0.000  0.000
  0.000  0.000  0.730  0.000  0.270
  0.000  0.000  0.135  0.500  0.365
  0.250  0.750  0.000  0.000  0.000
  0.000  0.000  0.135  0.500  0.365
    occupations:
  0.980  0.000  0.000  0.000  0.000
  0.000  0.997  0.000  0.000  0.000
  0.000  0.000  0.997  0.000  0.000
  0.000  0.000  0.000  0.980  0.000
  0.000  0.000  0.000  0.000  0.997
   spin  2
    eigenvalues: 
  0.384  0.384  0.995  0.995  0.995
    eigenvectors:
  0.750  0.250  0.000  0.000  0.000
  0.000  0.000  0.686  0.000  0.314
  0.000  0.000  0.157  0.500  0.343
  0.250  0.750  0.000  0.000  0.000
  0.000  0.000  0.157  0.500  0.343
    occupations:
  0.384 -0.001  0.001  0.000 -0.001
 -0.001  0.995  0.000 -0.001  0.000
  0.001  0.000  0.995 -0.001  0.000
  0.000 -0.001 -0.001  0.384  0.000
 -0.001  0.000  0.000  0.000  0.995
atomic mag. moment =     1.198584
atom    2   Tr[ns(na)] (up, down, total) =   4.95242  3.75384  8.70626
   spin  1
    eigenvalues: 
  0.980  0.980  0.997  0.997  0.997
    eigenvectors:
  0.750  0.250  0.000  0.000  0.000
  0.000  0.000  0.135  0.500  0.365
  0.000  0.000  0.730  0.000  0.270
  0.250  0.750  0.000  0.000  0.000
  0.000  0.000  0.135  0.500  0.365
    occupations:
  0.980  0.000  0.000  0.000  0.000
  0.000  0.997  0.000  0.000  0.000
  0.000  0.000  0.997  0.000  0.000
  0.000  0.000  0.000  0.980  0.000
  0.000  0.000  0.000  0.000  0.997
   spin  2
    eigenvalues: 
  0.384  0.384  0.995  0.995  0.995
    eigenvectors:
  0.750  0.250  0.000  0.000  0.000
  0.000  0.000  0.157  0.500  0.343
  0.000  0.000  0.686  0.000  0.314
  0.250  0.750  0.000  0.000  0.000
  0.000  0.000  0.157  0.500  0.343
    occupations:
  0.384 -0.001  0.001  0.000 -0.001
 -0.001  0.995  0.000 -0.001  0.000
  0.001  0.000  0.995 -0.001  0.000
  0.000 -0.001 -0.001  0.384  0.000
 -0.001  0.000  0.000  0.000  0.995
atomic mag. moment =     1.198584
atom    3   Tr[ns(na)] (up, down, total) =   4.95242  3.75384  8.70626
   spin  1
    eigenvalues: 
  0.980  0.980  0.997  0.997  0.997
    eigenvectors:
  0.000  1.000  0.000  0.000  0.000
  0.000  0.000  0.135  0.500  0.365
  0.000  0.000  0.135  0.500  0.365
  1.000  0.000  0.000  0.000  0.000
  0.000  0.000  0.730  0.000  0.270
    occupations:
  0.980  0.000  0.000  0.000  0.000
  0.000  0.997  0.000  0.000  0.000
  0.000  0.000  0.997  0.000  0.000
  0.000  0.000  0.000  0.980  0.000
  0.000  0.000  0.000  0.000  0.997
   spin  2
    eigenvalues: 
  0.384  0.384  0.995  0.995  0.995
    eigenvectors:
  0.000  1.000  0.000  0.000  0.000
  0.000  0.000  0.157  0.500  0.343
  0.000  0.000  0.157  0.500  0.343
  1.000  0.000  0.000  0.000  0.000
  0.000  0.000  0.686  0.000  0.314
    occupations:
  0.384 -0.001  0.001  0.000 -0.001
 -0.001  0.995  0.000 -0.001  0.000
  0.001  0.000  0.995 -0.001  0.000
  0.000 -0.001 -0.001  0.384  0.000
 -0.001  0.000  0.000  0.000  0.995
atomic mag. moment =     1.198584
atom    4   Tr[ns(na)] (up, down, total) =   4.95242  3.75368  8.70609
   spin  1
    eigenvalues: 
  0.980  0.980  0.997  0.997  0.997
    eigenvectors:
  0.041  0.959  0.000  0.000  0.000
  0.000  0.000  0.047  0.619  0.333
  0.000  0.000  0.625  0.042  0.333
  0.959  0.041  0.000  0.000  0.000
  0.000  0.000  0.328  0.339  0.333
    occupations:
  0.980  0.000  0.000  0.000  0.000
  0.000  0.997  0.000  0.000  0.000
  0.000  0.000  0.997  0.000  0.000
  0.000  0.000  0.000  0.980  0.000
  0.000  0.000  0.000  0.000  0.997
   spin  2
    eigenvalues: 
  0.384  0.384  0.995  0.995  0.995
    eigenvectors:
  0.007  0.993  0.000  0.000  0.000
  0.000  0.000  0.038  0.628  0.333
  0.000  0.000  0.615  0.052  0.333
  0.993  0.007  0.000  0.000  0.000
  0.000  0.000  0.347  0.320  0.333
    occupations:
  0.384 -0.001  0.001  0.000 -0.001
 -0.001  0.995  0.000 -0.001  0.000
  0.001  0.000  0.995 -0.001  0.000
  0.000 -0.001 -0.001  0.384  0.000
 -0.001  0.000  0.000  0.000  0.995
atomic mag. moment =     1.198743
atom    5   Tr[ns(na)] (up, down, total) =   3.75366  4.95242  8.70607
   spin  1
    eigenvalues: 
  0.384  0.384  0.995  0.995  0.995
    eigenvectors:
  0.043  0.957  0.000  0.000  0.000
  0.000  0.000  0.060  0.606  0.333
  0.000  0.000  0.635  0.031  0.333
  0.957  0.043  0.000  0.000  0.000
  0.000  0.000  0.304  0.362  0.333
    occupations:
  0.384 -0.001  0.001  0.000 -0.001
 -0.001  0.995  0.000 -0.001  0.000
  0.001  0.000  0.995 -0.001  0.000
  0.000 -0.001 -0.001  0.384  0.000
 -0.001  0.000  0.000  0.000  0.995
   spin  2
    eigenvalues: 
  0.980  0.980  0.997  0.997  0.997
    eigenvectors:
  0.016  0.984  0.000  0.000  0.000
  0.000  0.000  0.050  0.616  0.333
  0.000  0.000  0.627  0.039  0.333
  0.984  0.016  0.000  0.000  0.000
  0.000  0.000  0.323  0.344  0.333
    occupations:
  0.980  0.000  0.000  0.000  0.000
  0.000  0.997  0.000  0.000  0.000
  0.000  0.000  0.997  0.000  0.000
  0.000  0.000  0.000  0.980  0.000
  0.000  0.000  0.000  0.000  0.997
atomic mag. moment =    -1.198759
atom    6   Tr[ns(na)] (up, down, total) =   3.75386  4.95243  8.70629
   spin  1
    eigenvalues: 
  0.384  0.384  0.995  0.995  0.995
    eigenvectors:
  0.000  1.000  0.000  0.000  0.000
  0.000  0.000  0.158  0.500  0.342
  0.000  0.000  0.158  0.500  0.342
  1.000  0.000  0.000  0.000  0.000
  0.000  0.000  0.685  0.000  0.315
    occupations:
  0.384 -0.001  0.001  0.000 -0.001
 -0.001  0.995  0.000 -0.001  0.000
  0.001  0.000  0.995 -0.001  0.000
  0.000 -0.001 -0.001  0.384  0.000
 -0.001  0.000  0.000  0.000  0.995
   spin  2
    eigenvalues: 
  0.980  0.980  0.997  0.997  0.997
    eigenvectors:
  0.000  1.000  0.000  0.000  0.000
  0.000  0.000  0.134  0.500  0.366
  0.000  0.000  0.134  0.500  0.366
  1.000  0.000  0.000  0.000  0.000
  0.000  0.000  0.732  0.000  0.268
    occupations:
  0.980  0.000  0.000  0.000  0.000
  0.000  0.997  0.000  0.000  0.000
  0.000  0.000  0.997  0.000  0.000
  0.000  0.000  0.000  0.980  0.000
  0.000  0.000  0.000  0.000  0.997
atomic mag. moment =    -1.198563
atom    7   Tr[ns(na)] (up, down, total) =   3.75386  4.95243  8.70629
   spin  1
    eigenvalues: 
  0.384  0.384  0.995  0.995  0.995
    eigenvectors:
  0.750  0.250  0.000  0.000  0.000
  0.000  0.000  0.158  0.500  0.342
  0.000  0.000  0.685  0.000  0.315
  0.250  0.750  0.000  0.000  0.000
  0.000  0.000  0.158  0.500  0.342
    occupations:
  0.384 -0.001  0.001  0.000 -0.001
 -0.001  0.995  0.000 -0.001  0.000
  0.001  0.000  0.995 -0.001  0.000
  0.000 -0.001 -0.001  0.384  0.000
 -0.001  0.000  0.000  0.000  0.995
   spin  2
    eigenvalues: 
  0.980  0.980  0.997  0.997  0.997
    eigenvectors:
  0.750  0.250  0.000  0.000  0.000
  0.000  0.000  0.134  0.500  0.366
  0.000  0.000  0.732  0.000  0.268
  0.250  0.750  0.000  0.000  0.000
  0.000  0.000  0.134  0.500  0.366
    occupations:
  0.980  0.000  0.000  0.000  0.000
  0.000  0.997  0.000  0.000  0.000
  0.000  0.000  0.997  0.000  0.000
  0.000  0.000  0.000  0.980  0.000
  0.000  0.000  0.000  0.000  0.997
atomic mag. moment =    -1.198563
atom    8   Tr[ns(na)] (up, down, total) =   3.75386  4.95243  8.70629
   spin  1
    eigenvalues: 
  0.384  0.384  0.995  0.995  0.995
    eigenvectors:
  0.750  0.250  0.000  0.000  0.000
  0.000  0.000  0.685  0.000  0.315
  0.000  0.000  0.158  0.500  0.342
  0.250  0.750  0.000  0.000  0.000
  0.000  0.000  0.158  0.500  0.342
    occupations:
  0.384 -0.001  0.001  0.000 -0.001
 -0.001  0.995  0.000 -0.001  0.000
  0.001  0.000  0.995 -0.001  0.000
  0.000 -0.001 -0.001  0.384  0.000
 -0.001  0.000  0.000  0.000  0.995
   spin  2
    eigenvalues: 
  0.980  0.980  0.997  0.997  0.997
    eigenvectors:
  0.750  0.250  0.000  0.000  0.000
  0.000  0.000  0.732  0.000  0.268
  0.000  0.000  0.134  0.500  0.366
  0.250  0.750  0.000  0.000  0.000
  0.000  0.000  0.134  0.500  0.366
    occupations:
  0.980  0.000  0.000  0.000  0.000
  0.000  0.997  0.000  0.000  0.000
  0.000  0.000  0.997  0.000  0.000
  0.000  0.000  0.000  0.980  0.000
  0.000  0.000  0.000  0.000  0.997
atomic mag. moment =    -1.198563
atom    9   Tr[ns(na)] (up, down, total) =   2.81062  2.81063  5.62125
   spin  1
    eigenvalues: 
  0.936  0.936  0.938
    eigenvectors:
  0.098  0.568  0.333
  0.246  0.421  0.333
  0.656  0.011  0.333
    occupations:
  0.937  0.000  0.000
  0.000  0.937  0.000
  0.000  0.000  0.937
   spin  2
    eigenvalues: 
  0.936  0.936  0.938
    eigenvectors:
  0.112  0.554  0.333
  0.228  0.439  0.333
  0.660  0.007  0.333
    occupations:
  0.937  0.000  0.000
  0.000  0.937  0.000
  0.000  0.000  0.937
atomic mag. moment =    -0.000005
atom   10   Tr[ns(na)] (up, down, total) =   2.81119  2.81119  5.62239
   spin  1
    eigenvalues: 
  0.937  0.937  0.938
    eigenvectors:
  0.162  0.500  0.338
  0.162  0.500  0.338
  0.675  0.000  0.325
    occupations:
  0.937  0.000  0.000
  0.000  0.937  0.000
  0.000  0.000  0.937
   spin  2
    eigenvalues: 
  0.937  0.937  0.938
    eigenvectors:
  0.162  0.500  0.338
  0.162  0.500  0.338
  0.676  0.000  0.324
    occupations:
  0.937  0.000  0.000
  0.000  0.937  0.000
  0.000  0.000  0.937
atomic mag. moment =    -0.000002
atom   11   Tr[ns(na)] (up, down, total) =   2.81119  2.81119  5.62239
   spin  1
    eigenvalues: 
  0.937  0.937  0.938
    eigenvectors:
  0.162  0.500  0.338
  0.675  0.000  0.325
  0.162  0.500  0.338
    occupations:
  0.937  0.000  0.000
  0.000  0.937  0.000
  0.000  0.000  0.937
   spin  2
    eigenvalues: 
  0.937  0.937  0.938
    eigenvectors:
  0.162  0.500  0.338
  0.676  0.000  0.324
  0.162  0.500  0.338
    occupations:
  0.937  0.000  0.000
  0.000  0.937  0.000
  0.000  0.000  0.937
atomic mag. moment =    -0.000002
atom   12   Tr[ns(na)] (up, down, total) =   2.81119  2.81119  5.62239
   spin  1
    eigenvalues: 
  0.937  0.937  0.938
    eigenvectors:
  0.675  0.000  0.325
  0.162  0.500  0.338
  0.162  0.500  0.338
    occupations:
  0.937  0.000  0.000
  0.000  0.937  0.000
  0.000  0.000  0.937
   spin  2
    eigenvalues: 
  0.937  0.937  0.938
    eigenvectors:
  0.676  0.000  0.324
  0.162  0.500  0.338
  0.162  0.500  0.338
    occupations:
  0.937  0.000  0.000
  0.000  0.937  0.000
  0.000  0.000  0.937
atomic mag. moment =    -0.000002
atom   13   Tr[ns(na)] (up, down, total) =   2.81122  2.81122  5.62244
   spin  1
    eigenvalues: 
  0.937  0.937  0.938
    eigenvectors:
  0.677  0.000  0.323
  0.161  0.500  0.339
  0.161  0.500  0.339
    occupations:
  0.937  0.000  0.000
  0.000  0.937  0.000
  0.000  0.000  0.937
   spin  2
    eigenvalues: 
  0.937  0.937  0.938
    eigenvectors:
  0.678  0.000  0.322
  0.161  0.500  0.339
  0.161  0.500  0.339
    occupations:
  0.937  0.000  0.000
  0.000  0.937  0.000
  0.000  0.000  0.937
atomic mag. moment =    -0.000002
atom   14   Tr[ns(na)] (up, down, total) =   2.81122  2.81122  5.62244
   spin  1
    eigenvalues: 
  0.937  0.937  0.938
    eigenvectors:
  0.161  0.500  0.339
  0.677  0.000  0.323
  0.161  0.500  0.339
    occupations:
  0.937  0.000  0.000
  0.000  0.937  0.000
  0.000  0.000  0.937
   spin  2
    eigenvalues: 
  0.937  0.937  0.938
    eigenvectors:
  0.161  0.500  0.339
  0.678  0.000  0.322
  0.161  0.500  0.339
    occupations:
  0.937  0.000  0.000
  0.000  0.937  0.000
  0.000  0.000  0.937
atomic mag. moment =    -0.000002
atom   15   Tr[ns(na)] (up, down, total) =   2.81122  2.81122  5.62244
   spin  1
    eigenvalues: 
  0.937  0.937  0.938
    eigenvectors:
  0.161  0.500  0.339
  0.161  0.500  0.339
  0.677  0.000  0.323
    occupations:
  0.937  0.000  0.000
  0.000  0.937  0.000
  0.000  0.000  0.937
   spin  2
    eigenvalues: 
  0.937  0.937  0.938
    eigenvectors:
  0.161  0.500  0.339
  0.161  0.500  0.339
  0.678  0.000  0.322
    occupations:
  0.937  0.000  0.000
  0.000  0.937  0.000
  0.000  0.000  0.937
atomic mag. moment =    -0.000002
atom   16   Tr[ns(na)] (up, down, total) =   2.81062  2.81062  5.62124
   spin  1
    eigenvalues: 
  0.936  0.936  0.938
    eigenvectors:
  0.073  0.594  0.333
  0.283  0.384  0.333
  0.644  0.023  0.333
    occupations:
  0.937  0.000  0.000
  0.000  0.937  0.000
  0.000  0.000  0.937
   spin  2
    eigenvalues: 
  0.936  0.936  0.938
    eigenvectors:
  0.075  0.592  0.333
  0.280  0.387  0.333
  0.645  0.022  0.333
    occupations:
  0.937  0.000  0.000
  0.000  0.937  0.000
  0.000  0.000  0.937
atomic mag. moment =    -0.000005
N of occupied +U levels = 114.6267784
 --- exit write_ns ---
 --- in v_hubbard ---
Hubbard energy    0.0413
 -------

     total cpu time spent up to now is      212.6 secs

     total energy              =    -941.97478678 Ry
     Harris-Foulkes estimate   =    -941.97479568 Ry
     estimated scf accuracy    <       0.00002701 Ry

     total magnetization       =     0.00 Bohr mag/cell
     absolute magnetization    =    12.29 Bohr mag/cell

     iteration #  3     ecut=    30.00 Ry     beta=0.30
     Davidson diagonalization with overlap
     ethr =  2.11E-08,  avg # of iterations =  2.0
 --- enter write_ns ---
 LDA+U parameters:
U( 1)     =  0.00000000
alpha( 1) =  0.00000000
U( 2)     =  0.00000000
alpha( 2) =  0.00000000
U( 3)     =  0.00000000
alpha( 3) =  0.10000000
U( 4)     =  0.00000000
alpha( 4) =  0.00000000
atom    1   Tr[ns(na)] (up, down, total) =   4.95242  3.75427  8.70668
   spin  1
    eigenvalues: 
  0.980  0.980  0.997  0.997  0.997
    eigenvectors:
  0.250  0.750  0.000  0.000  0.000
  0.000  0.000  0.704  0.000  0.296
  0.000  0.000  0.148  0.500  0.352
  0.750  0.250  0.000  0.000  0.000
  0.000  0.000  0.148  0.500  0.352
    occupations:
  0.980  0.000  0.000  0.000  0.000
  0.000  0.997  0.000  0.000  0.000
  0.000  0.000  0.997  0.000  0.000
  0.000  0.000  0.000  0.980  0.000
  0.000  0.000  0.000  0.000  0.997
   spin  2
    eigenvalues: 
  0.384  0.385  0.995  0.995  0.995
    eigenvectors:
  0.750  0.250  0.000  0.000  0.000
  0.000  0.000  0.671  0.000  0.329
  0.000  0.000  0.165  0.500  0.335
  0.250  0.750  0.000  0.000  0.000
  0.000  0.000  0.165  0.500  0.335
    occupations:
  0.384 -0.001  0.001  0.000 -0.001
 -0.001  0.995  0.000 -0.001  0.000
  0.001  0.000  0.995 -0.001  0.000
  0.000 -0.001 -0.001  0.384  0.000
 -0.001  0.000  0.000  0.000  0.995
atomic mag. moment =     1.198149
atom    2   Tr[ns(na)] (up, down, total) =   4.95242  3.75427  8.70668
   spin  1
    eigenvalues: 
  0.980  0.980  0.997  0.997  0.997
    eigenvectors:
  0.250  0.750  0.000  0.000  0.000
  0.000  0.000  0.148  0.500  0.352
  0.000  0.000  0.704  0.000  0.296
  0.750  0.250  0.000  0.000  0.000
  0.000  0.000  0.148  0.500  0.352
    occupations:
  0.980  0.000  0.000  0.000  0.000
  0.000  0.997  0.000  0.000  0.000
  0.000  0.000  0.997  0.000  0.000
  0.000  0.000  0.000  0.980  0.000
  0.000  0.000  0.000  0.000  0.997
   spin  2
    eigenvalues: 
  0.384  0.385  0.995  0.995  0.995
    eigenvectors:
  0.750  0.250  0.000  0.000  0.000
  0.000  0.000  0.165  0.500  0.335
  0.000  0.000  0.671  0.000  0.329
  0.250  0.750  0.000  0.000  0.000
  0.000  0.000  0.165  0.500  0.335
    occupations:
  0.384 -0.001  0.001  0.000 -0.001
 -0.001  0.995  0.000 -0.001  0.000
  0.001  0.000  0.995 -0.001  0.000
  0.000 -0.001 -0.001  0.384  0.000
 -0.001  0.000  0.000  0.000  0.995
atomic mag. moment =     1.198149
atom    3   Tr[ns(na)] (up, down, total) =   4.95242  3.75427  8.70668
   spin  1
    eigenvalues: 
  0.980  0.980  0.997  0.997  0.997
    eigenvectors:
  1.000  0.000  0.000  0.000  0.000
  0.000  0.000  0.148  0.500  0.352
  0.000  0.000  0.148  0.500  0.352
  0.000  1.000  0.000  0.000  0.000
  0.000  0.000  0.704  0.000  0.296
    occupations:
  0.980  0.000  0.000  0.000  0.000
  0.000  0.997  0.000  0.000  0.000
  0.000  0.000  0.997  0.000  0.000
  0.000  0.000  0.000  0.980  0.000
  0.000  0.000  0.000  0.000  0.997
   spin  2
    eigenvalues: 
  0.384  0.385  0.995  0.995  0.995
    eigenvectors:
  0.000  1.000  0.000  0.000  0.000
  0.000  0.000  0.165  0.500  0.335
  0.000  0.000  0.165  0.500  0.335
  1.000  0.000  0.000  0.000  0.000
  0.000  0.000  0.671  0.000  0.329
    occupations:
  0.385 -0.001  0.001  0.000 -0.001
 -0.001  0.995  0.000 -0.001  0.000
  0.001  0.000  0.995 -0.001  0.000
  0.000 -0.001 -0.001  0.384  0.000
 -0.001  0.000  0.000  0.000  0.995
atomic mag. moment =     1.198149
atom    4   Tr[ns(na)] (up, down, total) =   4.95241  3.75359  8.70600
   spin  1
    eigenvalues: 
  0.980  0.980  0.997  0.997  0.997
    eigenvectors:
  0.017  0.983  0.000  0.000  0.000
  0.000  0.000  0.036  0.631  0.333
  0.000  0.000  0.613  0.054  0.333
  0.983  0.017  0.000  0.000  0.000
  0.000  0.000  0.351  0.315  0.333
    occupations:
  0.980  0.000  0.000  0.000  0.000
  0.000  0.997  0.000  0.000  0.000
  0.000  0.000  0.997  0.000  0.000
  0.000  0.000  0.000  0.980  0.000
  0.000  0.000  0.000  0.000  0.997
   spin  2
    eigenvalues: 
  0.384  0.384  0.995  0.995  0.995
    eigenvectors:
  0.004  0.996  0.000  0.000  0.000
  0.000  0.000  0.048  0.619  0.333
  0.000  0.000  0.625  0.042  0.333
  0.996  0.004  0.000  0.000  0.000
  0.000  0.000  0.327  0.339  0.333
    occupations:
  0.384 -0.001  0.001  0.000 -0.001
 -0.001  0.995  0.000 -0.001  0.000
  0.001  0.000  0.995 -0.001  0.000
  0.000 -0.001 -0.001  0.384  0.000
 -0.001  0.000  0.000  0.000  0.995
atomic mag. moment =     1.198822
atom    5   Tr[ns(na)] (up, down, total) =   3.75360  4.95241  8.70601
   spin  1
    eigenvalues: 
  0.384  0.384  0.995  0.995  0.995
    eigenvectors:
  0.007  0.993  0.000  0.000  0.000
  0.000  0.000  0.054  0.612  0.333
  0.000  0.000  0.631  0.036  0.333
  0.993  0.007  0.000  0.000  0.000
  0.000  0.000  0.315  0.352  0.333
    occupations:
  0.384 -0.001  0.001  0.000 -0.001
 -0.001  0.995  0.000 -0.001  0.000
  0.001  0.000  0.995 -0.001  0.000
  0.000 -0.001 -0.001  0.384  0.000
 -0.001  0.000  0.000  0.000  0.995
   spin  2
    eigenvalues: 
  0.980  0.980  0.997  0.997  0.997
    eigenvectors:
  0.026  0.974  0.000  0.000  0.000
  0.000  0.000  0.046  0.620  0.333
  0.000  0.000  0.624  0.043  0.333
  0.974  0.026  0.000  0.000  0.000
  0.000  0.000  0.330  0.336  0.333
    occupations:
  0.980  0.000  0.000  0.000  0.000
  0.000  0.997  0.000  0.000  0.000
  0.000  0.000  0.997  0.000  0.000
  0.000  0.000  0.000  0.980  0.000
  0.000  0.000  0.000  0.000  0.997
atomic mag. moment =    -1.198812
atom    6   Tr[ns(na)] (up, down, total) =   3.75425  4.95241  8.70666
   spin  1
    eigenvalues: 
  0.384  0.385  0.995  0.995  0.995
    eigenvectors:
  0.000  1.000  0.000  0.000  0.000
  0.000  0.000  0.164  0.500  0.336
  0.000  0.000  0.164  0.500  0.336
  1.000  0.000  0.000  0.000  0.000
  0.000  0.000  0.671  0.000  0.329
    occupations:
  0.385 -0.001  0.001  0.000 -0.001
 -0.001  0.995  0.000 -0.001  0.000
  0.001  0.000  0.995 -0.001  0.000
  0.000 -0.001 -0.001  0.384  0.000
 -0.001  0.000  0.000  0.000  0.995
   spin  2
    eigenvalues: 
  0.980  0.980  0.997  0.997  0.997
    eigenvectors:
  1.000  0.000  0.000  0.000  0.000
  0.000  0.000  0.149  0.500  0.351
  0.000  0.000  0.149  0.500  0.351
  0.000  1.000  0.000  0.000  0.000
  0.000  0.000  0.703  0.000  0.297
    occupations:
  0.980  0.000  0.000  0.000  0.000
  0.000  0.997  0.000  0.000  0.000
  0.000  0.000  0.997  0.000  0.000
  0.000  0.000  0.000  0.980  0.000
  0.000  0.000  0.000  0.000  0.997
atomic mag. moment =    -1.198161
atom    7   Tr[ns(na)] (up, down, total) =   3.75425  4.95241  8.70666
   spin  1
    eigenvalues: 
  0.384  0.385  0.995  0.995  0.995
    eigenvectors:
  0.750  0.250  0.000  0.000  0.000
  0.000  0.000  0.164  0.500  0.336
  0.000  0.000  0.671  0.000  0.329
  0.250  0.750  0.000  0.000  0.000
  0.000  0.000  0.164  0.500  0.336
    occupations:
  0.384 -0.001  0.001  0.000 -0.001
 -0.001  0.995  0.000 -0.001  0.000
  0.001  0.000  0.995 -0.001  0.000
  0.000 -0.001 -0.001  0.384  0.000
 -0.001  0.000  0.000  0.000  0.995
   spin  2
    eigenvalues: 
  0.980  0.980  0.997  0.997  0.997
    eigenvectors:
  0.250  0.750  0.000  0.000  0.000
  0.000  0.000  0.149  0.500  0.351
  0.000  0.000  0.703  0.000  0.297
  0.750  0.250  0.000  0.000  0.000
  0.000  0.000  0.149  0.500  0.351
    occupations:
  0.980  0.000  0.000  0.000  0.000
  0.000  0.997  0.000  0.000  0.000
  0.000  0.000  0.997  0.000  0.000
  0.000  0.000  0.000  0.980  0.000
  0.000  0.000  0.000  0.000  0.997
atomic mag. moment =    -1.198161
atom    8   Tr[ns(na)] (up, down, total) =   3.75425  4.95241  8.70666
   spin  1
    eigenvalues: 
  0.384  0.385  0.995  0.995  0.995
    eigenvectors:
  0.750  0.250  0.000  0.000  0.000
  0.000  0.000  0.671  0.000  0.329
  0.000  0.000  0.164  0.500  0.336
  0.250  0.750  0.000  0.000  0.000
  0.000  0.000  0.164  0.500  0.336
    occupations:
  0.384 -0.001  0.001  0.000 -0.001
 -0.001  0.995  0.000 -0.001  0.000
  0.001  0.000  0.995 -0.001  0.000
  0.000 -0.001 -0.001  0.384  0.000
 -0.001  0.000  0.000  0.000  0.995
   spin  2
    eigenvalues: 
  0.980  0.980  0.997  0.997  0.997
    eigenvectors:
  0.250  0.750  0.000  0.000  0.000
  0.000  0.000  0.703  0.000  0.297
  0.000  0.000  0.149  0.500  0.351
  0.750  0.250  0.000  0.000  0.000
  0.000  0.000  0.149  0.500  0.351
    occupations:
  0.980  0.000  0.000  0.000  0.000
  0.000  0.997  0.000  0.000  0.000
  0.000  0.000  0.997  0.000  0.000
  0.000  0.000  0.000  0.980  0.000
  0.000  0.000  0.000  0.000  0.997
atomic mag. moment =    -1.198161
atom    9   Tr[ns(na)] (up, down, total) =   2.80935  2.80935  5.61869
   spin  1
    eigenvalues: 
  0.936  0.936  0.937
    eigenvectors:
  0.094  0.573  0.333
  0.252  0.415  0.333
  0.654  0.013  0.333
    occupations:
  0.936  0.000  0.000
  0.000  0.936  0.000
  0.000  0.000  0.936
   spin  2
    eigenvalues: 
  0.936  0.936  0.937
    eigenvectors:
  0.110  0.557  0.333
  0.231  0.436  0.333
  0.659  0.007  0.333
    occupations:
  0.936  0.000  0.000
  0.000  0.936  0.000
  0.000  0.000  0.936
atomic mag. moment =     0.000003
atom   10   Tr[ns(na)] (up, down, total) =   2.81117  2.81117  5.62234
   spin  1
    eigenvalues: 
  0.937  0.937  0.938
    eigenvectors:
  0.167  0.500  0.333
  0.167  0.500  0.333
  0.665  0.000  0.335
    occupations:
  0.937  0.000  0.000
  0.000  0.937  0.000
  0.000  0.000  0.937
   spin  2
    eigenvalues: 
  0.937  0.937  0.938
    eigenvectors:
  0.168  0.500  0.332
  0.168  0.500  0.332
  0.665  0.000  0.335
    occupations:
  0.937  0.000  0.000
  0.000  0.937  0.000
  0.000  0.000  0.937
atomic mag. moment =     0.000001
atom   11   Tr[ns(na)] (up, down, total) =   2.81117  2.81117  5.62234
   spin  1
    eigenvalues: 
  0.937  0.937  0.938
    eigenvectors:
  0.167  0.500  0.333
  0.665  0.000  0.335
  0.167  0.500  0.333
    occupations:
  0.937  0.000  0.000
  0.000  0.937  0.000
  0.000  0.000  0.937
   spin  2
    eigenvalues: 
  0.937  0.937  0.938
    eigenvectors:
  0.168  0.500  0.332
  0.665  0.000  0.335
  0.168  0.500  0.332
    occupations:
  0.937  0.000  0.000
  0.000  0.937  0.000
  0.000  0.000  0.937
atomic mag. moment =     0.000001
atom   12   Tr[ns(na)] (up, down, total) =   2.81117  2.81117  5.62234
   spin  1
    eigenvalues: 
  0.937  0.937  0.938
    eigenvectors:
  0.665  0.000  0.335
  0.167  0.500  0.333
  0.167  0.500  0.333
    occupations:
  0.937  0.000  0.000
  0.000  0.937  0.000
  0.000  0.000  0.937
   spin  2
    eigenvalues: 
  0.937  0.937  0.938
    eigenvectors:
  0.665  0.000  0.335
  0.168  0.500  0.332
  0.168  0.500  0.332
    occupations:
  0.937  0.000  0.000
  0.000  0.937  0.000
  0.000  0.000  0.937
atomic mag. moment =     0.000001
atom   13   Tr[ns(na)] (up, down, total) =   2.81116  2.81116  5.62232
   spin  1
    eigenvalues: 
  0.937  0.937  0.938
    eigenvectors:
  0.000  0.672  0.328
  0.500  0.164  0.336
  0.500  0.164  0.336
    occupations:
  0.937  0.000  0.000
  0.000  0.937  0.000
  0.000  0.000  0.937
   spin  2
    eigenvalues: 
  0.937  0.937  0.938
    eigenvectors:
  0.000  0.672  0.328
  0.500  0.164  0.336
  0.500  0.164  0.336
    occupations:
  0.937  0.000  0.000
  0.000  0.937  0.000
  0.000  0.000  0.937
atomic mag. moment =     0.000001
atom   14   Tr[ns(na)] (up, down, total) =   2.81116  2.81116  5.62232
   spin  1
    eigenvalues: 
  0.937  0.937  0.938
    eigenvectors:
  0.500  0.164  0.336
  0.000  0.672  0.328
  0.500  0.164  0.336
    occupations:
  0.937  0.000  0.000
  0.000  0.937  0.000
  0.000  0.000  0.937
   spin  2
    eigenvalues: 
  0.937  0.937  0.938
    eigenvectors:
  0.500  0.164  0.336
  0.000  0.672  0.328
  0.500  0.164  0.336
    occupations:
  0.937  0.000  0.000
  0.000  0.937  0.000
  0.000  0.000  0.937
atomic mag. moment =     0.000001
atom   15   Tr[ns(na)] (up, down, total) =   2.81116  2.81116  5.62232
   spin  1
    eigenvalues: 
  0.937  0.937  0.938
    eigenvectors:
  0.500  0.164  0.336
  0.500  0.164  0.336
  0.000  0.672  0.328
    occupations:
  0.937  0.000  0.000
  0.000  0.937  0.000
  0.000  0.000  0.937
   spin  2
    eigenvalues: 
  0.937  0.937  0.938
    eigenvectors:
  0.500  0.164  0.336
  0.500  0.164  0.336
  0.000  0.672  0.328
    occupations:
  0.937  0.000  0.000
  0.000  0.937  0.000
  0.000  0.000  0.937
atomic mag. moment =     0.000001
atom   16   Tr[ns(na)] (up, down, total) =   2.81122  2.81122  5.62244
   spin  1
    eigenvalues: 
  0.937  0.937  0.938
    eigenvectors:
  0.074  0.593  0.333
  0.282  0.384  0.333
  0.644  0.023  0.333
    occupations:
  0.937  0.000  0.000
  0.000  0.937  0.000
  0.000  0.000  0.937
   spin  2
    eigenvalues: 
  0.937  0.937  0.938
    eigenvectors:
  0.113  0.553  0.333
  0.227  0.440  0.333
  0.660  0.006  0.333
    occupations:
  0.937  0.000  0.000
  0.000  0.937  0.000
  0.000  0.000  0.937
atomic mag. moment =     0.000003
N of occupied +U levels = 114.6271536
 --- exit write_ns ---
 --- in v_hubbard ---
Hubbard energy    0.0413
 -------

     total cpu time spent up to now is      265.0 secs

     total energy              =    -941.97479081 Ry
     Harris-Foulkes estimate   =    -941.97479088 Ry
     estimated scf accuracy    <       0.00000039 Ry

     total magnetization       =     0.00 Bohr mag/cell
     absolute magnetization    =    12.28 Bohr mag/cell

     iteration #  4     ecut=    30.00 Ry     beta=0.30
     Davidson diagonalization with overlap
     ethr =  3.02E-10,  avg # of iterations =  2.0
 --- enter write_ns ---
 LDA+U parameters:
U( 1)     =  0.00000000
alpha( 1) =  0.00000000
U( 2)     =  0.00000000
alpha( 2) =  0.00000000
U( 3)     =  0.00000000
alpha( 3) =  0.10000000
U( 4)     =  0.00000000
alpha( 4) =  0.00000000
atom    1   Tr[ns(na)] (up, down, total) =   4.95241  3.75430  8.70671
   spin  1
    eigenvalues: 
  0.980  0.980  0.997  0.997  0.997
    eigenvectors:
  0.250  0.750  0.000  0.000  0.000
  0.000  0.000  0.700  0.000  0.300
  0.000  0.000  0.150  0.500  0.350
  0.750  0.250  0.000  0.000  0.000
  0.000  0.000  0.150  0.500  0.350
    occupations:
  0.980  0.000  0.000  0.000  0.000
  0.000  0.997  0.000  0.000  0.000
  0.000  0.000  0.997  0.000  0.000
  0.000  0.000  0.000  0.980  0.000
  0.000  0.000  0.000  0.000  0.997
   spin  2
    eigenvalues: 
  0.384  0.385  0.995  0.995  0.995
    eigenvectors:
  0.750  0.250  0.000  0.000  0.000
  0.000  0.000  0.670  0.000  0.330
  0.000  0.000  0.165  0.500  0.335
  0.250  0.750  0.000  0.000  0.000
  0.000  0.000  0.165  0.500  0.335
    occupations:
  0.384 -0.001  0.001  0.000 -0.001
 -0.001  0.995  0.000 -0.001  0.000
  0.001  0.000  0.995 -0.001  0.000
  0.000 -0.001 -0.001  0.384  0.000
 -0.001  0.000  0.000  0.000  0.995
atomic mag. moment =     1.198107
atom    2   Tr[ns(na)] (up, down, total) =   4.95241  3.75430  8.70671
   spin  1
    eigenvalues: 
  0.980  0.980  0.997  0.997  0.997
    eigenvectors:
  0.250  0.750  0.000  0.000  0.000
  0.000  0.000  0.150  0.500  0.350
  0.000  0.000  0.700  0.000  0.300
  0.750  0.250  0.000  0.000  0.000
  0.000  0.000  0.150  0.500  0.350
    occupations:
  0.980  0.000  0.000  0.000  0.000
  0.000  0.997  0.000  0.000  0.000
  0.000  0.000  0.997  0.000  0.000
  0.000  0.000  0.000  0.980  0.000
  0.000  0.000  0.000  0.000  0.997
   spin  2
    eigenvalues: 
  0.384  0.385  0.995  0.995  0.995
    eigenvectors:
  0.750  0.250  0.000  0.000  0.000
  0.000  0.000  0.165  0.500  0.335
  0.000  0.000  0.670  0.000  0.330
  0.250  0.750  0.000  0.000  0.000
  0.000  0.000  0.165  0.500  0.335
    occupations:
  0.384 -0.001  0.001  0.000 -0.001
 -0.001  0.995  0.000 -0.001  0.000
  0.001  0.000  0.995 -0.001  0.000
  0.000 -0.001 -0.001  0.384  0.000
 -0.001  0.000  0.000  0.000  0.995
atomic mag. moment =     1.198107
atom    3   Tr[ns(na)] (up, down, total) =   4.95241  3.75430  8.70671
   spin  1
    eigenvalues: 
  0.980  0.980  0.997  0.997  0.997
    eigenvectors:
  1.000  0.000  0.000  0.000  0.000
  0.000  0.000  0.150  0.500  0.350
  0.000  0.000  0.150  0.500  0.350
  0.000  1.000  0.000  0.000  0.000
  0.000  0.000  0.700  0.000  0.300
    occupations:
  0.980  0.000  0.000  0.000  0.000
  0.000  0.997  0.000  0.000  0.000
  0.000  0.000  0.997  0.000  0.000
  0.000  0.000  0.000  0.980  0.000
  0.000  0.000  0.000  0.000  0.997
   spin  2
    eigenvalues: 
  0.384  0.385  0.995  0.995  0.995
    eigenvectors:
  0.000  1.000  0.000  0.000  0.000
  0.000  0.000  0.165  0.500  0.335
  0.000  0.000  0.165  0.500  0.335
  1.000  0.000  0.000  0.000  0.000
  0.000  0.000  0.670  0.000  0.330
    occupations:
  0.385 -0.001  0.001  0.000 -0.001
 -0.001  0.995  0.000 -0.001  0.000
  0.001  0.000  0.995 -0.001  0.000
  0.000 -0.001 -0.001  0.384  0.000
 -0.001  0.000  0.000  0.000  0.995
atomic mag. moment =     1.198107
atom    4   Tr[ns(na)] (up, down, total) =   4.95241  3.75360  8.70601
   spin  1
    eigenvalues: 
  0.980  0.980  0.997  0.997  0.997
    eigenvectors:
  0.001  0.999  0.000  0.000  0.000
  0.000  0.000  0.067  0.600  0.333
  0.000  0.000  0.640  0.027  0.333
  0.999  0.001  0.000  0.000  0.000
  0.000  0.000  0.293  0.373  0.333
    occupations:
  0.980  0.000  0.000  0.000  0.000
  0.000  0.997  0.000  0.000  0.000
  0.000  0.000  0.997  0.000  0.000
  0.000  0.000  0.000  0.980  0.000
  0.000  0.000  0.000  0.000  0.997
   spin  2
    eigenvalues: 
  0.384  0.384  0.995  0.995  0.995
    eigenvectors:
  0.004  0.996  0.000  0.000  0.000
  0.000  0.000  0.063  0.604  0.333
  0.000  0.000  0.637  0.029  0.333
  0.996  0.004  0.000  0.000  0.000
  0.000  0.000  0.300  0.367  0.333
    occupations:
  0.384 -0.001  0.001  0.000 -0.001
 -0.001  0.995  0.000 -0.001  0.000
  0.001  0.000  0.995 -0.001  0.000
  0.000 -0.001 -0.001  0.384  0.000
 -0.001  0.000  0.000  0.000  0.995
atomic mag. moment =     1.198812
atom    5   Tr[ns(na)] (up, down, total) =   3.75359  4.95241  8.70600
   spin  1
    eigenvalues: 
  0.384  0.384  0.995  0.995  0.995
    eigenvectors:
  0.003  0.997  0.000  0.000  0.000
  0.000  0.000  0.065  0.601  0.333
  0.000  0.000  0.639  0.028  0.333
  0.997  0.003  0.000  0.000  0.000
  0.000  0.000  0.296  0.371  0.333
    occupations:
  0.384 -0.001  0.001  0.000 -0.001
 -0.001  0.995  0.000 -0.001  0.000
  0.001  0.000  0.995 -0.001  0.000
  0.000 -0.001 -0.001  0.384  0.000
 -0.001  0.000  0.000  0.000  0.995
   spin  2
    eigenvalues: 
  0.980  0.980  0.997  0.997  0.997
    eigenvectors:
  0.000  1.000  0.000  0.000  0.000
  0.000  0.000  0.059  0.608  0.333
  0.000  0.000  0.634  0.032  0.333
  1.000  0.000  0.000  0.000  0.000
  0.000  0.000  0.307  0.360  0.333
    occupations:
  0.980  0.000  0.000  0.000  0.000
  0.000  0.997  0.000  0.000  0.000
  0.000  0.000  0.997  0.000  0.000
  0.000  0.000  0.000  0.980  0.000
  0.000  0.000  0.000  0.000  0.997
atomic mag. moment =    -1.198823
atom    6   Tr[ns(na)] (up, down, total) =   3.75432  4.95241  8.70673
   spin  1
    eigenvalues: 
  0.384  0.385  0.995  0.995  0.995
    eigenvectors:
  0.000  1.000  0.000  0.000  0.000
  0.000  0.000  0.166  0.500  0.334
  0.000  0.000  0.166  0.500  0.334
  1.000  0.000  0.000  0.000  0.000
  0.000  0.000  0.669  0.000  0.331
    occupations:
  0.385 -0.001  0.001  0.000 -0.001
 -0.001  0.995  0.000 -0.001  0.000
  0.001  0.000  0.995 -0.001  0.000
  0.000 -0.001 -0.001  0.384  0.000
 -0.001  0.000  0.000  0.000  0.995
   spin  2
    eigenvalues: 
  0.980  0.980  0.997  0.997  0.997
    eigenvectors:
  1.000  0.000  0.000  0.000  0.000
  0.000  0.000  0.149  0.500  0.351
  0.000  0.000  0.149  0.500  0.351
  0.000  1.000  0.000  0.000  0.000
  0.000  0.000  0.701  0.000  0.299
    occupations:
  0.980  0.000  0.000  0.000  0.000
  0.000  0.997  0.000  0.000  0.000
  0.000  0.000  0.997  0.000  0.000
  0.000  0.000  0.000  0.980  0.000
  0.000  0.000  0.000  0.000  0.997
atomic mag. moment =    -1.198096
atom    7   Tr[ns(na)] (up, down, total) =   3.75432  4.95241  8.70673
   spin  1
    eigenvalues: 
  0.384  0.385  0.995  0.995  0.995
    eigenvectors:
  0.750  0.250  0.000  0.000  0.000
  0.000  0.000  0.166  0.500  0.334
  0.000  0.000  0.669  0.000  0.331
  0.250  0.750  0.000  0.000  0.000
  0.000  0.000  0.166  0.500  0.334
    occupations:
  0.384 -0.001  0.001  0.000 -0.001
 -0.001  0.995  0.000 -0.001  0.000
  0.001  0.000  0.995 -0.001  0.000
  0.000 -0.001 -0.001  0.384  0.000
 -0.001  0.000  0.000  0.000  0.995
   spin  2
    eigenvalues: 
  0.980  0.980  0.997  0.997  0.997
    eigenvectors:
  0.250  0.750  0.000  0.000  0.000
  0.000  0.000  0.149  0.500  0.351
  0.000  0.000  0.701  0.000  0.299
  0.750  0.250  0.000  0.000  0.000
  0.000  0.000  0.149  0.500  0.351
    occupations:
  0.980  0.000  0.000  0.000  0.000
  0.000  0.997  0.000  0.000  0.000
  0.000  0.000  0.997  0.000  0.000
  0.000  0.000  0.000  0.980  0.000
  0.000  0.000  0.000  0.000  0.997
atomic mag. moment =    -1.198096
atom    8   Tr[ns(na)] (up, down, total) =   3.75432  4.95241  8.70673
   spin  1
    eigenvalues: 
  0.384  0.385  0.995  0.995  0.995
    eigenvectors:
  0.750  0.250  0.000  0.000  0.000
  0.000  0.000  0.669  0.000  0.331
  0.000  0.000  0.166  0.500  0.334
  0.250  0.750  0.000  0.000  0.000
  0.000  0.000  0.166  0.500  0.334
    occupations:
  0.384 -0.001  0.001  0.000 -0.001
 -0.001  0.995  0.000 -0.001  0.000
  0.001  0.000  0.995 -0.001  0.000
  0.000 -0.001 -0.001  0.384  0.000
 -0.001  0.000  0.000  0.000  0.995
   spin  2
    eigenvalues: 
  0.980  0.980  0.997  0.997  0.997
    eigenvectors:
  0.250  0.750  0.000  0.000  0.000
  0.000  0.000  0.701  0.000  0.299
  0.000  0.000  0.149  0.500  0.351
  0.750  0.250  0.000  0.000  0.000
  0.000  0.000  0.149  0.500  0.351
    occupations:
  0.980  0.000  0.000  0.000  0.000
  0.000  0.997  0.000  0.000  0.000
  0.000  0.000  0.997  0.000  0.000
  0.000  0.000  0.000  0.980  0.000
  0.000  0.000  0.000  0.000  0.997
atomic mag. moment =    -1.198096
atom    9   Tr[ns(na)] (up, down, total) =   2.80935  2.80935  5.61870
   spin  1
    eigenvalues: 
  0.936  0.936  0.937
    eigenvectors:
  0.104  0.563  0.333
  0.239  0.428  0.333
  0.657  0.009  0.333
    occupations:
  0.936  0.000  0.000
  0.000  0.936  0.000
  0.000  0.000  0.936
   spin  2
    eigenvalues: 
  0.936  0.936  0.937
    eigenvectors:
  0.076  0.590  0.333
  0.278  0.389  0.333
  0.646  0.021  0.333
    occupations:
  0.936  0.000  0.000
  0.000  0.936  0.000
  0.000  0.000  0.936
atomic mag. moment =    -0.000003
atom   10   Tr[ns(na)] (up, down, total) =   2.81116  2.81116  5.62233
   spin  1
    eigenvalues: 
  0.937  0.937  0.938
    eigenvectors:
  0.168  0.500  0.332
  0.168  0.500  0.332
  0.664  0.000  0.336
    occupations:
  0.937  0.000  0.000
  0.000  0.937  0.000
  0.000  0.000  0.937
   spin  2
    eigenvalues: 
  0.937  0.937  0.938
    eigenvectors:
  0.167  0.500  0.333
  0.167  0.500  0.333
  0.665  0.000  0.335
    occupations:
  0.937  0.000  0.000
  0.000  0.937  0.000
  0.000  0.000  0.937
atomic mag. moment =    -0.000001
atom   11   Tr[ns(na)] (up, down, total) =   2.81116  2.81116  5.62233
   spin  1
    eigenvalues: 
  0.937  0.937  0.938
    eigenvectors:
  0.168  0.500  0.332
  0.664  0.000  0.336
  0.168  0.500  0.332
    occupations:
  0.937  0.000  0.000
  0.000  0.937  0.000
  0.000  0.000  0.937
   spin  2
    eigenvalues: 
[...]
    10.6603  10.6612  10.8717  10.8728  10.9654  10.9666  11.2452  11.2465
    11.2540  11.2553  11.2986  11.3000  11.3308  11.3317  11.4336  11.4359
    13.0389  13.0394  13.0453  13.0457  13.0534  13.0535  13.0639  13.0641
    16.4807  16.4829  19.6523  19.6523  19.7113

     occupation numbers 
     0.0469   0.0469   0.0469   0.0469   0.0469   0.0469   0.0469   0.0469
     0.0469   0.0469   0.0469   0.0469   0.0469   0.0469   0.0469   0.0469
     0.0469   0.0469   0.0469   0.0469   0.0469   0.0469   0.0469   0.0469
     0.0469   0.0469   0.0469   0.0469   0.0469   0.0469   0.0469   0.0469
     0.0469   0.0469   0.0469   0.0469   0.0469   0.0469   0.0469   0.0469
     0.0469   0.0469   0.0469   0.0469   0.0469   0.0469   0.0469   0.0469
     0.0469   0.0469   0.0469   0.0469   0.0469   0.0469   0.0469   0.0469
     0.0469   0.0469   0.0469   0.0469   0.0469   0.0469   0.0469   0.0469
     0.0000   0.0000   0.0000   0.0000   0.0000   0.0000   0.0000   0.0000
     0.0000   0.0000   0.0000   0.0000   0.0000

          k = 0.0000 0.5000 0.0000 (  2706 PWs)   bands (ev):

    -7.8523  -6.8119  -6.7665  -6.7506  -6.7502  -6.7500  -6.5718  -6.5641
     4.4919   4.5013   4.5070   4.5104   5.2422   5.5303   5.5303   6.5289
     6.5344   6.5563   6.5869   6.6008   6.6203   6.6317   6.6862   7.0677
     7.0680   7.1682   7.1812   7.4675   7.9770   7.9822   8.6551   8.6643
     8.9557   9.5345   9.6295   9.6295   9.8149   9.9803  10.0573  10.0576
    10.0975  10.1125  10.1870  10.2794  10.2794  10.3978  10.4120  10.5453
    10.5465  10.6145  10.6148  10.6598  10.9119  11.0090  11.0097  11.0506
    11.0566  11.1701  11.2424  11.2945  11.2952  11.3472  11.3481  11.3794
    12.8775  13.0386  13.0389  13.0420  13.5236  13.5669  13.6442  13.6447
    15.2128  18.5651  18.5673  18.5677  18.5685

     occupation numbers 
     0.0938   0.0938   0.0938   0.0938   0.0938   0.0938   0.0938   0.0938
     0.0938   0.0938   0.0938   0.0938   0.0938   0.0938   0.0938   0.0938
     0.0938   0.0938   0.0938   0.0938   0.0938   0.0938   0.0938   0.0938
     0.0938   0.0938   0.0938   0.0938   0.0938   0.0938   0.0938   0.0938
     0.0938   0.0938   0.0938   0.0938   0.0938   0.0938   0.0938   0.0938
     0.0938   0.0938   0.0938   0.0938   0.0938   0.0938   0.0938   0.0938
     0.0938   0.0938   0.0938   0.0938   0.0938   0.0938   0.0938   0.0938
     0.0938   0.0937   0.0937   0.0937   0.0937   0.0937   0.0937   0.0937
     0.0000   0.0000   0.0000   0.0000   0.0000   0.0000   0.0000   0.0000
     0.0000   0.0000   0.0000   0.0000   0.0000

          k = 0.7500-0.2500 0.7500 (  2734 PWs)   bands (ev):

    -7.5027  -7.1723  -6.9676  -6.7764  -6.7670  -6.5979  -6.5597  -6.5527
     4.9671   4.9760   4.9893   5.3145   5.4314   5.5068   5.5290   6.1796
     6.2155   6.2423   6.2733   6.5883   6.6019   6.7483   6.7553   6.8648
     6.8950   6.9286   6.9981   7.3617   7.3809   7.7244   7.7649   8.0191
     9.4566   9.6513   9.8227   9.8954   9.9561   9.9689  10.0374  10.1387
    10.1415  10.1693  10.2109  10.2882  10.3164  10.3231  10.4782  10.5121
    10.7332  10.7391  10.7426  10.7552  10.8783  10.9060  11.0398  11.0778
    11.1678  11.1952  11.2256  11.2570  11.3322  11.3357  11.3538  11.4102
    12.7380  12.7817  12.8339  12.9302  13.2351  13.2581  13.3638  13.4327
    16.6934  17.6011  18.6698  19.3616  19.3632

     occupation numbers 
     0.1875   0.1875   0.1875   0.1875   0.1875   0.1875   0.1875   0.1875
     0.1875   0.1875   0.1875   0.1875   0.1875   0.1875   0.1875   0.1875
     0.1875   0.1875   0.1875   0.1875   0.1875   0.1875   0.1875   0.1875
     0.1875   0.1875   0.1875   0.1875   0.1875   0.1875   0.1875   0.1875
     0.1875   0.1875   0.1875   0.1875   0.1875   0.1875   0.1875   0.1875
     0.1875   0.1875   0.1875   0.1875   0.1875   0.1875   0.1875   0.1875
     0.1875   0.1875   0.1875   0.1875   0.1875   0.1875   0.1875   0.1875
     0.1875   0.1875   0.1875   0.1875   0.1875   0.1875   0.1875   0.1875
     0.0000   0.0000   0.0000   0.0000   0.0000   0.0000   0.0000   0.0000
     0.0000   0.0000   0.0000   0.0000   0.0000

          k = 0.5000 0.0000 0.5000 (  2742 PWs)   bands (ev):

    -7.6405  -7.0221  -7.0127  -6.7261  -6.7165  -6.6079  -6.5994  -6.5466
     4.7780   4.7863   5.0733   5.0782   5.2672   5.2770   5.7090   5.9706
     6.2890   6.3104   6.5320   6.7238   6.7473   6.7530   6.9135   6.9225
     6.9376   7.1578   7.1715   7.1944   7.4504   7.4618   7.6354   8.1278
     9.6585   9.6596   9.7901   9.8498   9.9056   9.9065  10.0452  10.1123
    10.1347  10.2270  10.2299  10.2299  10.2308  10.3626  10.3632  10.5167
    10.7198  10.7514  10.7520  10.8288  10.9032  11.0957  11.0966  11.1144
    11.2090  11.2098  11.2320  11.2432  11.2797  11.3453  11.4055  11.4063
    13.0416  13.0461  13.0569  13.0572  13.1138  13.1510  13.1513  13.2831
    16.0067  18.0601  18.0607  19.3773  19.3781

     occupation numbers 
     0.0938   0.0938   0.0938   0.0938   0.0938   0.0938   0.0938   0.0938
     0.0938   0.0938   0.0938   0.0938   0.0938   0.0938   0.0938   0.0938
     0.0938   0.0938   0.0938   0.0938   0.0938   0.0938   0.0938   0.0938
     0.0938   0.0938   0.0938   0.0938   0.0938   0.0938   0.0938   0.0938
     0.0938   0.0938   0.0938   0.0938   0.0938   0.0938   0.0938   0.0938
     0.0938   0.0938   0.0938   0.0938   0.0938   0.0938   0.0938   0.0938
     0.0938   0.0938   0.0938   0.0938   0.0938   0.0938   0.0938   0.0938
     0.0937   0.0937   0.0937   0.0937   0.0937   0.0937   0.0937   0.0937
     0.0000   0.0000   0.0000   0.0000   0.0000   0.0000   0.0000   0.0000
     0.0000   0.0000   0.0000   0.0000   0.0000

          k = 0.0000-1.0000 0.0000 (  2762 PWs)   bands (ev):

    -7.3162  -7.3061  -6.8307  -6.8132  -6.8126  -6.8124  -6.5180  -6.5098
     5.0194   5.0260   5.0371   5.0446   5.7691   5.7841   6.0990   6.1048
     6.1161   6.1221   6.4035   6.4166   6.6507   6.6628   6.6829   6.6952
     6.7221   6.7253   6.7286   6.7559   8.1487   8.1599   8.1611   8.1722
     9.2497   9.2503   9.9509   9.9516  10.0315  10.0319  10.0466  10.0467
    10.0488  10.0513  10.1706  10.1708  10.3509  10.3512  10.4967  10.4978
    10.5189  10.5211  10.5835  10.5838  10.9122  10.9123  11.0050  11.0061
    11.1487  11.1491  11.2267  11.2278  11.3361  11.3370  11.3411  11.3417
    12.4610  12.4615  12.7195  12.7197  13.5173  13.5180  13.6172  13.6177
    17.6659  17.6662  19.2501  19.2507  19.2527

     occupation numbers 
     0.0469   0.0469   0.0469   0.0469   0.0469   0.0469   0.0469   0.0469
     0.0469   0.0469   0.0469   0.0469   0.0469   0.0469   0.0469   0.0469
     0.0469   0.0469   0.0469   0.0469   0.0469   0.0469   0.0469   0.0469
     0.0469   0.0469   0.0469   0.0469   0.0469   0.0469   0.0469   0.0469
     0.0469   0.0469   0.0469   0.0469   0.0469   0.0469   0.0469   0.0469
     0.0469   0.0469   0.0469   0.0469   0.0469   0.0469   0.0469   0.0469
     0.0469   0.0469   0.0469   0.0469   0.0469   0.0469   0.0469   0.0469
     0.0469   0.0469   0.0469   0.0469   0.0469   0.0469   0.0469   0.0469
     0.0000   0.0000   0.0000   0.0000   0.0000   0.0000   0.0000   0.0000
     0.0000   0.0000   0.0000   0.0000   0.0000

          k =-0.5000-1.0000 0.0000 (  2740 PWs)   bands (ev):

    -7.1666  -7.1473  -7.1470  -7.1465  -6.5926  -6.5762  -6.5735  -6.5709
     5.2833   5.2865   5.2975   5.3378   5.3881   5.5504   5.5512   5.6621
     6.2293   6.2596   6.2630   6.2952   6.6239   6.6276   6.6395   6.7673
     6.9058   7.2687   7.2776   7.4662   7.4832   7.5099   7.5125   7.5634
     9.7121   9.7392   9.7396   9.8074   9.9876  10.0378  10.0393  10.0703
    10.1189  10.2726  10.2889  10.2900  10.3455  10.3463  10.4001  10.4654
    10.6171  10.6640  10.6644  10.6912  10.9479  10.9487  10.9688  10.9904
    11.1743  11.1854  11.1866  11.2800  11.2953  11.2997  11.3658  11.3663
    12.7739  12.8887  12.8889  13.0025  13.1542  13.1981  13.1987  13.2432
    18.0164  18.0343  18.0363  18.0557  20.8583

     occupation numbers 
     0.0938   0.0938   0.0938   0.0938   0.0938   0.0938   0.0938   0.0938
     0.0938   0.0938   0.0938   0.0938   0.0938   0.0938   0.0938   0.0938
     0.0938   0.0938   0.0938   0.0938   0.0938   0.0938   0.0938   0.0938
     0.0938   0.0938   0.0938   0.0938   0.0938   0.0938   0.0938   0.0938
     0.0938   0.0938   0.0938   0.0938   0.0938   0.0938   0.0938   0.0938
     0.0938   0.0938   0.0938   0.0938   0.0938   0.0938   0.0938   0.0938
     0.0938   0.0938   0.0938   0.0938   0.0938   0.0938   0.0938   0.0938
     0.0937   0.0937   0.0937   0.0937   0.0937   0.0937   0.0937   0.0937
     0.0000   0.0000   0.0000   0.0000   0.0000   0.0000   0.0000   0.0000
     0.0000   0.0000   0.0000   0.0000   0.0000

          k =-0.2500 0.2500 0.2500 (  2743 PWs)   bands (ev):

    -7.9056  -6.9299  -6.6973  -6.6805  -6.6805  -6.6389  -6.6299  -6.6299
     4.3490   4.3615   4.3615   4.6201   5.3503   5.3549   5.3549   6.4796
     6.4796   6.4954   6.6221   6.6301   6.6301   6.7024   6.7024   7.2145
     7.2145   7.2294   7.7053   7.7160   7.7160   7.9790   8.4574   8.4574
     9.2633   9.2633   9.2639   9.6195   9.6195  10.0037  10.0669  10.0669
    10.0669  10.2774  10.2774  10.2782  10.6042  10.6045  10.6045  10.6244
    10.6244  10.7249  10.7261  10.7261  10.9159  10.9159  10.9414  10.9414
    10.9433  11.0342  11.2575  11.2575  11.2580  11.3948  11.3955  11.3955
    13.3345  13.3345  13.3507  13.3508  13.3508  13.3580  13.3580  13.3580
    14.7662  17.5946  18.6736  18.6757  18.6757

     occupation numbers 
     0.0313   0.0313   0.0313   0.0313   0.0313   0.0313   0.0313   0.0313
     0.0313   0.0313   0.0313   0.0313   0.0313   0.0313   0.0313   0.0313
     0.0313   0.0313   0.0313   0.0313   0.0313   0.0313   0.0313   0.0313
     0.0313   0.0313   0.0313   0.0313   0.0313   0.0313   0.0313   0.0313
     0.0313   0.0313   0.0313   0.0313   0.0313   0.0313   0.0313   0.0313
     0.0313   0.0313   0.0313   0.0313   0.0313   0.0313   0.0313   0.0313
     0.0313   0.0313   0.0313   0.0313   0.0313   0.0313   0.0313   0.0313
     0.0313   0.0313   0.0312   0.0312   0.0312   0.0312   0.0312   0.0312
     0.0000   0.0000   0.0000   0.0000   0.0000   0.0000   0.0000   0.0000
     0.0000   0.0000   0.0000   0.0000   0.0000

          k = 0.5000-0.5000-0.5000 (  2764 PWs)   bands (ev):

    -7.4550  -7.4411  -6.6896  -6.6688  -6.6688  -6.6539  -6.6485  -6.6485
     5.0108   5.0237   5.0237   5.1118   5.1289   5.1289   6.0844   6.1259
     6.2600   6.2600   6.2816   6.6902   6.6902   6.7145   6.7502   6.7586
     6.7586   6.9849   6.9849   7.4467   7.4570   7.4570   7.8695   7.8695
     9.4922   9.4924   9.4924   9.6755   9.6755  10.1182  10.1226  10.1226
    10.1229  10.4502  10.4502  10.4507  10.5087  10.5089  10.5089  10.7277
    10.7277  10.8441  10.8441  10.8474  10.8721  11.0577  11.0598  11.0598
    11.2458  11.2458  11.2463  11.3029  11.3029  11.4026  11.4033  11.4033
    13.0403  13.0403  13.0405  13.0569  13.0569  13.0714  13.0718  13.0718
    16.4088  16.5589  19.6305  19.6306  19.6306

     occupation numbers 
     0.0156   0.0156   0.0156   0.0156   0.0156   0.0156   0.0156   0.0156
     0.0156   0.0156   0.0156   0.0156   0.0156   0.0156   0.0156   0.0156
     0.0156   0.0156   0.0156   0.0156   0.0156   0.0156   0.0156   0.0156
     0.0156   0.0156   0.0156   0.0156   0.0156   0.0156   0.0156   0.0156
     0.0156   0.0156   0.0156   0.0156   0.0156   0.0156   0.0156   0.0156
     0.0156   0.0156   0.0156   0.0156   0.0156   0.0156   0.0156   0.0156
     0.0156   0.0156   0.0156   0.0156   0.0156   0.0156   0.0156   0.0156
     0.0156   0.0156   0.0156   0.0156   0.0156   0.0156   0.0156   0.0156
     0.0000   0.0000   0.0000   0.0000   0.0000   0.0000   0.0000   0.0000
     0.0000   0.0000   0.0000   0.0000   0.0000

          k = 0.2500 0.7500 0.7500 (  2734 PWs)   bands (ev):

    -7.5026  -7.1724  -6.9677  -6.7763  -6.7669  -6.5980  -6.5598  -6.5528
     4.9722   4.9807   4.9898   5.2521   5.5036   5.5124   5.5157   6.1280
     6.2286   6.2429   6.3520   6.5677   6.5798   6.6661   6.8210   6.8309
     6.8344   7.0438   7.0515   7.1614   7.5092   7.7500   7.7773   8.0043
     9.3820   9.5578   9.9447   9.9447  10.0218  10.0226  10.0437  10.0455
    10.0577  10.1786  10.2149  10.2151  10.4000  10.4445  10.4984  10.5001
    10.6604  10.6983  10.6993  10.7135  10.8972  10.9494  11.0960  11.0968
    11.2165  11.2174  11.2334  11.2701  11.2777  11.2793  11.3485  11.3492
    12.7401  12.7991  12.8815  12.8817  13.2547  13.3421  13.3424  13.3541
    16.6930  17.6021  18.6715  19.3598  19.3601

     occupation numbers 
     0.0938   0.0938   0.0938   0.0938   0.0938   0.0938   0.0938   0.0938
     0.0938   0.0938   0.0938   0.0938   0.0938   0.0938   0.0938   0.0938
     0.0938   0.0938   0.0938   0.0938   0.0938   0.0938   0.0938   0.0938
     0.0938   0.0938   0.0938   0.0938   0.0938   0.0938   0.0938   0.0938
     0.0938   0.0938   0.0938   0.0938   0.0938   0.0938   0.0938   0.0938
     0.0938   0.0938   0.0938   0.0938   0.0938   0.0938   0.0938   0.0938
     0.0938   0.0938   0.0938   0.0938   0.0938   0.0938   0.0938   0.0938
     0.0937   0.0937   0.0937   0.0937   0.0937   0.0937   0.0937   0.0937
     0.0000   0.0000   0.0000   0.0000   0.0000   0.0000   0.0000   0.0000
     0.0000   0.0000   0.0000   0.0000   0.0000

          k = 0.7500-0.2500-0.7500 (  2734 PWs)   bands (ev):

    -7.5028  -7.1724  -6.9677  -6.7765  -6.7671  -6.5977  -6.5596  -6.5525
     4.9687   4.9771   4.9890   5.2924   5.4457   5.5046   5.5107   6.2241
     6.2266   6.2413   6.2740   6.6570   6.6702   6.6749   6.6965   6.7110
     6.8336   7.0821   7.0902   7.2747   7.3858   7.7581   7.7666   8.0557
     9.3543   9.5446   9.7614   9.7615   9.7855  10.0610  10.0972  10.0973
    10.2880  10.2895  10.4217  10.4222  10.4431  10.5546  10.5550  10.5608
    10.5709  10.6509  10.6522  10.6528  10.8427  10.8813  10.8826  10.9605
    11.0723  11.2440  11.2752  11.3020  11.3022  11.3606  11.3611  11.4236
    12.6932  12.8390  12.8843  12.8845  13.2809  13.3355  13.3428  13.3431
    16.6928  17.6037  18.6693  19.3590  19.3592

     occupation numbers 
     0.0938   0.0938   0.0938   0.0938   0.0938   0.0938   0.0938   0.0938
     0.0938   0.0938   0.0938   0.0938   0.0938   0.0938   0.0938   0.0938
     0.0938   0.0938   0.0938   0.0938   0.0938   0.0938   0.0938   0.0938
     0.0938   0.0938   0.0938   0.0938   0.0938   0.0938   0.0938   0.0938
     0.0938   0.0938   0.0938   0.0938   0.0938   0.0938   0.0938   0.0938
     0.0938   0.0938   0.0938   0.0938   0.0938   0.0938   0.0938   0.0938
     0.0938   0.0938   0.0938   0.0938   0.0938   0.0938   0.0938   0.0938
     0.0938   0.0937   0.0937   0.0937   0.0937   0.0937   0.0937   0.0937
     0.0000   0.0000   0.0000   0.0000   0.0000   0.0000   0.0000   0.0000
     0.0000   0.0000   0.0000   0.0000   0.0000

          k = 0.0000 0.5000 0.5000 (  2742 PWs)   bands (ev):

    -7.6406  -7.0222  -7.0128  -6.7264  -6.7168  -6.6073  -6.5989  -6.5466
     4.7767   4.7834   5.0836   5.0909   5.2460   5.2562   5.7108   5.9734
     6.3147   6.3274   6.5907   6.6797   6.6840   6.7949   6.8623   6.9265
     7.0209   7.1602   7.1740   7.2065   7.2146   7.4919   7.8379   8.1256
     9.5578   9.6095   9.6377   9.6388   9.7752  10.0755  10.0758  10.1321
    10.2435  10.2447  10.3078  10.3866  10.4493  10.5591  10.5608  10.5620
    10.6334  10.6654  10.6667  10.7435  10.7661  10.8221  11.0500  11.0515
    11.1056  11.2712  11.2713  11.3403  11.3702  11.3706  11.3865  11.4082
    13.0447  13.0467  13.0542  13.0543  13.0638  13.2063  13.2065  13.2357
    16.0079  18.0596  18.0614  19.3727  19.3735

     occupation numbers 
     0.0938   0.0938   0.0938   0.0938   0.0938   0.0938   0.0938   0.0938
     0.0938   0.0938   0.0938   0.0938   0.0938   0.0938   0.0938   0.0938
     0.0938   0.0938   0.0938   0.0938   0.0938   0.0938   0.0938   0.0938
     0.0938   0.0938   0.0938   0.0938   0.0938   0.0938   0.0938   0.0938
     0.0938   0.0938   0.0938   0.0938   0.0938   0.0938   0.0938   0.0938
     0.0938   0.0938   0.0938   0.0938   0.0938   0.0938   0.0938   0.0938
     0.0938   0.0938   0.0938   0.0938   0.0938   0.0938   0.0938   0.0938
     0.0938   0.0937   0.0937   0.0937   0.0937   0.0937   0.0937   0.0937
     0.0000   0.0000   0.0000   0.0000   0.0000   0.0000   0.0000   0.0000
     0.0000   0.0000   0.0000   0.0000   0.0000

     the Fermi energy is    11.9575 ev

!    total energy              =    -941.97479088 Ry
     Harris-Foulkes estimate   =    -941.97479088 Ry
     estimated scf accuracy    <          2.8E-09 Ry

     The total energy is the sum of the following terms:

     one-electron contribution =     -56.32838385 Ry
     hartree contribution      =     175.70878038 Ry
     xc contribution           =    -297.53907850 Ry
     ewald contribution        =    -763.85740583 Ry
     Hubbard energy            =       0.04129692 Ry
     smearing contrib. (-TS)   =       0.00000000 Ry

     total magnetization       =     0.00 Bohr mag/cell
     absolute magnetization    =    12.28 Bohr mag/cell

     convergence has been achieved in   7 iterations

     init_run     :     12.34s CPU     12.50s WALL (       1 calls)
     electrons    :    455.08s CPU    456.01s WALL (       1 calls)

     Called by init_run:
     wfcinit      :      0.00s CPU      0.00s WALL (       1 calls)
     potinit      :      1.19s CPU      1.23s WALL (       1 calls)

     Called by electrons:
     c_bands      :    339.69s CPU    339.45s WALL (       7 calls)
     sum_band     :     76.78s CPU     77.25s WALL (       7 calls)
     v_of_rho     :      8.10s CPU      8.13s WALL (       8 calls)
     v_h          :      0.19s CPU      0.19s WALL (       8 calls)
     v_xc         :      7.91s CPU      7.94s WALL (       8 calls)
     newd         :     34.59s CPU     34.62s WALL (       8 calls)
     mix_rho      :      0.61s CPU      0.69s WALL (       7 calls)

     Called by c_bands:
     init_us_2    :      2.27s CPU      2.28s WALL (     364 calls)
     cegterg      :    331.09s CPU    330.52s WALL (     182 calls)

     Called by sum_band:
     sum_band:bec :      0.42s CPU      0.42s WALL (     182 calls)
     addusdens    :     26.89s CPU     26.90s WALL (       7 calls)

     Called by *egterg:
     h_psi        :    222.71s CPU    222.05s WALL (     793 calls)
     s_psi        :     19.70s CPU     19.71s WALL (     793 calls)
     g_psi        :      0.92s CPU      0.92s WALL (     611 calls)
     cdiaghg      :     32.52s CPU     32.55s WALL (     767 calls)
     cegterg:over :     20.88s CPU     20.93s WALL (     611 calls)
     cegterg:upda :     14.02s CPU     14.03s WALL (     611 calls)
     cegterg:last :      9.96s CPU      9.96s WALL (     208 calls)

     Called by h_psi:
     h_psi:vloc   :    160.30s CPU    160.60s WALL (     793 calls)
     h_psi:vnl    :     39.01s CPU     38.03s WALL (     793 calls)
     add_vuspsi   :     19.68s CPU     18.68s WALL (     793 calls)
     vhpsi        :     22.80s CPU     22.82s WALL (     793 calls)

     General routines
     calbec       :     36.18s CPU     36.24s WALL (    1950 calls)
     fft          :      4.66s CPU      4.80s WALL (     236 calls)
     ffts         :      0.09s CPU      0.17s WALL (      30 calls)
     fftw         :    143.48s CPU    143.41s WALL (   85806 calls)
     interpolate  :      0.76s CPU      0.89s WALL (      30 calls)
     davcio       :      0.01s CPU      0.76s WALL (     390 calls)

     Parallel routines
     fft_scatter  :     41.90s CPU     42.28s WALL (   86072 calls)
     Hubbard U routines
     new_ns       :      3.02s CPU      3.41s WALL (       7 calls)
     vhpsi        :     22.80s CPU     22.82s WALL (     793 calls)

     PWSCF        :  7m47.90s CPU     7m49.12s WALL


   This run was terminated on:  12:49:49  13Nov2012            

=------------------------------------------------------------------------------=
