   JOB DONE.
=------------------------------------------------------------------------------=

     Program PWSCF v.5.0.1 starts on 13Nov2012 at 12:13:33 

     This program is part of the open-source Quantum ESPRESSO suite
     for quantum simulation of materials; please cite
         "P. Giannozzi et al., J. Phys.:Condens. Matter 21 395502 (2009);
          URL http://www.quantum-espresso.org", 
     in publications or presentations arising from this work. More details at
     http://www.quantum-espresso.org/quote.php

     Parallel version (MPI), running on     2 processors
     R & G space division:  proc/pool =    2

     Current dimensions of program PWSCF are:
     Max number of different atomic species (ntypx) = 10
     Max number of k-points (npk) =  40000
     Max angular momentum in pseudopotentials (lmaxx) =  3
     Reading input from NiO_U0_a-15.in
               file Ni.pbe-nd-rrkjus.UPF: wavefunction(s)  4S renormalized
               file Ni.pbe-nd-rrkjus.UPF: wavefunction(s)  4S renormalized
               file O.pbe-rrkjus.UPF: wavefunction(s)  2S renormalized
               file O.pbe-rrkjus.UPF: wavefunction(s)  2S renormalized

     Subspace diagonalization in iterative solution of the eigenvalue problem:
     a serial algorithm will be used


     Parallelization info
     --------------------
     sticks:   dense  smooth     PW     G-vecs:    dense   smooth      PW
     Min        1293     519    150                43273    11032    1738
     Max        1294     520    151                43274    11043    1741
     Sum        2587    1039    301                86547    22075    3479


     Title: 
     GGA + U, U = 1D-40, alpha = -0.150                                         


     bravais-lattice index     =            2
     lattice parameter (alat)  =      15.8000  a.u.
     unit-cell volume          =     986.0780 (a.u.)^3
     number of atoms/cell      =           16
     number of atomic types    =            4
     number of electrons       =       128.00
     number of Kohn-Sham states=           77
     kinetic-energy cutoff     =      30.0000  Ry
     charge density cutoff     =     300.0000  Ry
     convergence threshold     =      1.0E-08
     mixing beta               =       0.3000
     number of iterations used =            8  plain     mixing
     Exchange-correlation      =  SLA  PW   PBE  PBE ( 1 4 3 4 0)
     EXX-fraction              =        0.00

     celldm(1)=  15.800000  celldm(2)=   0.000000  celldm(3)=   0.000000
     celldm(4)=   0.000000  celldm(5)=   0.000000  celldm(6)=   0.000000

     crystal axes: (cart. coord. in units of alat)
               a(1) = (  -0.500000   0.000000   0.500000 )  
               a(2) = (   0.000000   0.500000   0.500000 )  
               a(3) = (  -0.500000   0.500000   0.000000 )  

     reciprocal axes: (cart. coord. in units 2 pi/alat)
               b(1) = ( -1.000000 -1.000000  1.000000 )  
               b(2) = (  1.000000  1.000000  1.000000 )  
               b(3) = ( -1.000000  1.000000 -1.000000 )  


     PseudoPot. # 1 for Ni read from file:
     /home/mcurnan/dft-course/Project1/example_NiO/Ni.pbe-nd-rrkjus.UPF
     MD5 check sum: 8081f0a005c9a5470caab1a58e82ecb2
     Pseudo is Ultrasoft + core correction, Zval = 10.0
     Generated by new atomic code, or converted to UPF format
     Using radial grid of 1203 points,  6 beta functions with: 
                l(1) =   0
                l(2) =   0
                l(3) =   1
                l(4) =   1
                l(5) =   2
                l(6) =   2
     Q(r) pseudized with 0 coefficients 


     PseudoPot. # 2 for Ni read from file:
     /home/mcurnan/dft-course/Project1/example_NiO/Ni.pbe-nd-rrkjus.UPF
     MD5 check sum: 8081f0a005c9a5470caab1a58e82ecb2
     Pseudo is Ultrasoft + core correction, Zval = 10.0
     Generated by new atomic code, or converted to UPF format
     Using radial grid of 1203 points,  6 beta functions with: 
                l(1) =   0
                l(2) =   0
                l(3) =   1
                l(4) =   1
                l(5) =   2
                l(6) =   2
     Q(r) pseudized with 0 coefficients 


     PseudoPot. # 3 for O  read from file:
     /home/mcurnan/dft-course/Project1/example_NiO/O.pbe-rrkjus.UPF
     MD5 check sum: 390ba29e75625707450f3bd3f0eb6be9
     Pseudo is Ultrasoft, Zval =  6.0
     Generated by new atomic code, or converted to UPF format
     Using radial grid of 1269 points,  4 beta functions with: 
                l(1) =   0
                l(2) =   0
                l(3) =   1
                l(4) =   1
     Q(r) pseudized with 0 coefficients 


     PseudoPot. # 4 for O  read from file:
     /home/mcurnan/dft-course/Project1/example_NiO/O.pbe-rrkjus.UPF
     MD5 check sum: 390ba29e75625707450f3bd3f0eb6be9
     Pseudo is Ultrasoft, Zval =  6.0
     Generated by new atomic code, or converted to UPF format
     Using radial grid of 1269 points,  4 beta functions with: 
                l(1) =   0
                l(2) =   0
                l(3) =   1
                l(4) =   1
     Q(r) pseudized with 0 coefficients 


     atomic species   valence    mass     pseudopotential
        Ni1           10.00     1.00000     Ni( 1.00)
        Ni2           10.00     1.00000     Ni( 1.00)
        O1             6.00     1.00000     O ( 1.00)
        O2             6.00     1.00000     O ( 1.00)

     Starting magnetic structure 
     atomic species   magnetization
        Ni1          0.500
        Ni2         -0.500
        O1           0.000
        O2           0.000
 -----
     simplified LDA+U calculation, Hubbard_lmax = 2
     atomic species  L   Hubbard U  Hubbard alpha
        Ni1          2    0.000000    0.000000
        Ni2          2    0.000000    0.000000
        O1           1    0.000000   -0.150000
        O2           1    0.000000    0.000000
 -----

      6 Sym. Ops. (no inversion) found


                                    s                        frac. trans.

      isym =  1     identity                                     

 cryst.   s( 1) = (     1          0          0      )
                  (     0          1          0      )
                  (     0          0          1      )

 cart.    s( 1) = (  1.0000000  0.0000000  0.0000000 )
                  (  0.0000000  1.0000000  0.0000000 )
                  (  0.0000000  0.0000000  1.0000000 )


      isym =  2     120 deg rotation - cart. axis [-1,1,1]       

 cryst.   s( 2) = (     0          1          0      )
                  (     0          0          1      )
                  (     1          0          0      )

 cart.    s( 2) = (  0.0000000 -1.0000000  0.0000000 )
                  (  0.0000000  0.0000000  1.0000000 )
                  ( -1.0000000  0.0000000  0.0000000 )


      isym =  3     120 deg rotation - cart. axis [1,-1,-1]      

 cryst.   s( 3) = (     0          0          1      )
                  (     1          0          0      )
                  (     0          1          0      )

 cart.    s( 3) = (  0.0000000  0.0000000 -1.0000000 )
                  ( -1.0000000  0.0000000  0.0000000 )
                  (  0.0000000  1.0000000  0.0000000 )


      isym =  4     inv. 180 deg rotation - cart. axis [1,1,0]   

 cryst.   s( 4) = (     0          1          0      )
                  (     1          0          0      )
                  (     0          0          1      )

 cart.    s( 4) = (  0.0000000 -1.0000000  0.0000000 )
                  ( -1.0000000  0.0000000  0.0000000 )
                  (  0.0000000  0.0000000  1.0000000 )


      isym =  5     inv. 180 deg rotation - cart. axis [1,0,1]   

 cryst.   s( 5) = (     1          0          0      )
                  (     0          0          1      )
                  (     0          1          0      )

 cart.    s( 5) = (  0.0000000  0.0000000 -1.0000000 )
                  (  0.0000000  1.0000000  0.0000000 )
                  ( -1.0000000  0.0000000  0.0000000 )


      isym =  6     inv. 180 deg rotation - cart. axis [0,1,-1]  

 cryst.   s( 6) = (     0          0          1      )
                  (     0          1          0      )
                  (     1          0          0      )

 cart.    s( 6) = (  1.0000000  0.0000000  0.0000000 )
                  (  0.0000000  0.0000000  1.0000000 )
                  (  0.0000000  1.0000000  0.0000000 )


     point group C_3v (3m)  
     there are  3 classes
     the character table:

       E     2C3   3s_v 
A_1    1.00  1.00  1.00
A_2    1.00  1.00 -1.00
E      2.00 -1.00  0.00

     the symmetry operations in each class:
     E        1
     2C3      2    3
     3s_v     4    5    6

   Cartesian axes

     site n.     atom                  positions (alat units)
         1           Ni1 tau(   1) = (   0.0000000  -0.2500000   0.0000000  )
         2           Ni1 tau(   2) = (  -0.2500000   0.0000000   0.5000000  )
         3           Ni1 tau(   3) = (  -0.5000000   0.0000000   0.2500000  )
         4           Ni1 tau(   4) = (  -0.2500000   0.2500000   0.2500000  )
         5           Ni2 tau(   5) = (  -0.2500000  -0.2500000   0.2500000  )
         6           Ni2 tau(   6) = (   0.0000000   0.0000000   0.2500000  )
         7           Ni2 tau(   7) = (  -0.2500000   0.0000000   0.0000000  )
         8           Ni2 tau(   8) = (  -0.5000000   0.2500000   0.5000000  )
         9           O1  tau(   9) = (   0.0000000   0.0000000   0.0000000  )
        10           O2  tau(  10) = (  -0.2500000   0.0000000   0.2500000  )
        11           O2  tau(  11) = (   0.0000000   0.2500000   0.2500000  )
        12           O2  tau(  12) = (  -0.2500000   0.2500000   0.0000000  )
        13           O2  tau(  13) = (  -0.2500000   0.2500000   0.5000000  )
        14           O2  tau(  14) = (  -0.5000000   0.2500000   0.2500000  )
        15           O2  tau(  15) = (  -0.2500000   0.5000000   0.2500000  )
        16           O2  tau(  16) = (  -0.5000000   0.5000000   0.5000000  )

   Crystallographic axes

     site n.     atom                  positions (cryst. coord.)
         1           Ni1 tau(   1) = (  0.2500000 -0.2500000 -0.2500000  )
         2           Ni1 tau(   2) = (  0.7500000  0.2500000 -0.2500000  )
         3           Ni1 tau(   3) = (  0.7500000 -0.2500000  0.2500000  )
         4           Ni1 tau(   4) = (  0.2500000  0.2500000  0.2500000  )
         5           Ni2 tau(   5) = (  0.7500000 -0.2500000 -0.2500000  )
         6           Ni2 tau(   6) = (  0.2500000  0.2500000 -0.2500000  )
         7           Ni2 tau(   7) = (  0.2500000 -0.2500000  0.2500000  )
         8           Ni2 tau(   8) = (  0.7500000  0.2500000  0.2500000  )
         9           O1  tau(   9) = (  0.0000000  0.0000000  0.0000000  )
        10           O2  tau(  10) = (  0.5000000  0.0000000  0.0000000  )
        11           O2  tau(  11) = (  0.0000000  0.5000000  0.0000000  )
        12           O2  tau(  12) = (  0.0000000  0.0000000  0.5000000  )
        13           O2  tau(  13) = (  0.5000000  0.5000000  0.0000000  )
        14           O2  tau(  14) = (  0.5000000  0.0000000  0.5000000  )
        15           O2  tau(  15) = (  0.0000000  0.5000000  0.5000000  )
        16           O2  tau(  16) = (  0.5000000  0.5000000  0.5000000  )

     number of k points=    26  gaussian smearing, width (Ry)=  0.0100
                       cart. coord. in units 2pi/alat
        k(    1) = (   0.0000000   0.0000000   0.0000000), wk =   0.0156250
        k(    2) = (  -0.2500000   0.2500000  -0.2500000), wk =   0.0937500
        k(    3) = (   0.5000000  -0.5000000   0.5000000), wk =   0.0468750
        k(    4) = (   0.0000000   0.5000000   0.0000000), wk =   0.0937500
        k(    5) = (   0.7500000  -0.2500000   0.7500000), wk =   0.1875000
        k(    6) = (   0.5000000   0.0000000   0.5000000), wk =   0.0937500
        k(    7) = (   0.0000000  -1.0000000   0.0000000), wk =   0.0468750
        k(    8) = (  -0.5000000  -1.0000000   0.0000000), wk =   0.0937500
        k(    9) = (  -0.2500000   0.2500000   0.2500000), wk =   0.0312500
        k(   10) = (   0.5000000  -0.5000000  -0.5000000), wk =   0.0156250
        k(   11) = (   0.2500000   0.7500000   0.7500000), wk =   0.0937500
        k(   12) = (   0.7500000  -0.2500000  -0.7500000), wk =   0.0937500
        k(   13) = (   0.0000000   0.5000000   0.5000000), wk =   0.0937500
        k(   14) = (   0.0000000   0.0000000   0.0000000), wk =   0.0156250
        k(   15) = (  -0.2500000   0.2500000  -0.2500000), wk =   0.0937500
        k(   16) = (   0.5000000  -0.5000000   0.5000000), wk =   0.0468750
        k(   17) = (   0.0000000   0.5000000   0.0000000), wk =   0.0937500
        k(   18) = (   0.7500000  -0.2500000   0.7500000), wk =   0.1875000
        k(   19) = (   0.5000000   0.0000000   0.5000000), wk =   0.0937500
        k(   20) = (   0.0000000  -1.0000000   0.0000000), wk =   0.0468750
        k(   21) = (  -0.5000000  -1.0000000   0.0000000), wk =   0.0937500
        k(   22) = (  -0.2500000   0.2500000   0.2500000), wk =   0.0312500
        k(   23) = (   0.5000000  -0.5000000  -0.5000000), wk =   0.0156250
        k(   24) = (   0.2500000   0.7500000   0.7500000), wk =   0.0937500
        k(   25) = (   0.7500000  -0.2500000  -0.7500000), wk =   0.0937500
        k(   26) = (   0.0000000   0.5000000   0.5000000), wk =   0.0937500

                       cryst. coord.
        k(    1) = (   0.0000000   0.0000000   0.0000000), wk =   0.0156250
        k(    2) = (   0.0000000   0.0000000   0.2500000), wk =   0.0937500
        k(    3) = (   0.0000000   0.0000000  -0.5000000), wk =   0.0468750
        k(    4) = (   0.0000000   0.2500000   0.2500000), wk =   0.0937500
        k(    5) = (   0.0000000   0.2500000  -0.5000000), wk =   0.1875000
        k(    6) = (   0.0000000   0.2500000  -0.2500000), wk =   0.0937500
        k(    7) = (   0.0000000  -0.5000000  -0.5000000), wk =   0.0468750
        k(    8) = (   0.2500000  -0.5000000  -0.2500000), wk =   0.0937500
        k(    9) = (   0.2500000   0.2500000   0.2500000), wk =   0.0312500
        k(   10) = (  -0.5000000  -0.5000000  -0.5000000), wk =   0.0156250
        k(   11) = (   0.2500000   0.7500000   0.2500000), wk =   0.0937500
        k(   12) = (  -0.7500000  -0.5000000  -0.5000000), wk =   0.0937500
        k(   13) = (   0.2500000   0.5000000   0.2500000), wk =   0.0937500
        k(   14) = (   0.0000000   0.0000000   0.0000000), wk =   0.0156250
        k(   15) = (   0.0000000   0.0000000   0.2500000), wk =   0.0937500
        k(   16) = (   0.0000000   0.0000000  -0.5000000), wk =   0.0468750
        k(   17) = (   0.0000000   0.2500000   0.2500000), wk =   0.0937500
        k(   18) = (   0.0000000   0.2500000  -0.5000000), wk =   0.1875000
        k(   19) = (   0.0000000   0.2500000  -0.2500000), wk =   0.0937500
        k(   20) = (   0.0000000  -0.5000000  -0.5000000), wk =   0.0468750
        k(   21) = (   0.2500000  -0.5000000  -0.2500000), wk =   0.0937500
        k(   22) = (   0.2500000   0.2500000   0.2500000), wk =   0.0312500
        k(   23) = (  -0.5000000  -0.5000000  -0.5000000), wk =   0.0156250
        k(   24) = (   0.2500000   0.7500000   0.2500000), wk =   0.0937500
        k(   25) = (  -0.7500000  -0.5000000  -0.5000000), wk =   0.0937500
        k(   26) = (   0.2500000   0.5000000   0.2500000), wk =   0.0937500

     Dense  grid:    86547 G-vectors     FFT dimensions: (  64,  64,  64)

     Smooth grid:    22075 G-vectors     FFT dimensions: (  40,  40,  40)

     Largest allocated arrays     est. size (Mb)     dimensions
        Kohn-Sham Wavefunctions         1.64 Mb     (   1395,   77)
        Atomic wavefunctions            1.70 Mb     (   1395,   80)
        NL pseudopotentials             4.43 Mb     (   1395,  208)
        Each V/rho on FFT grid          4.00 Mb     ( 131072,   2)
        Each G-vector array             0.33 Mb     (  43274)
        G-vector shells                 0.00 Mb     (    635)
     Largest temporary arrays     est. size (Mb)     dimensions
        Auxiliary wavefunctions         6.56 Mb     (   1395,  308)
        Each subspace H/S matrix        1.45 Mb     ( 308, 308)
        Each <psi_i|beta_j> matrix      0.24 Mb     (    208,   77)
        Arrays for rho mixing          16.00 Mb     ( 131072,   8)

     Check: negative/imaginary core charge=   -0.000047    0.000000

     The initial density is read from file :
     /home/mcurnan/dft-course/Project1/example_NiO/0/O/alpha/NiO_U0.save/charge-density.dat

 --- in v_hubbard ---
Hubbard energy   -0.0620
 -------
     Number of +U iterations with fixed ns =  0
     Starting occupations:
 --- enter write_ns ---
 LDA+U parameters:
U( 1)     =  0.00000000
alpha( 1) =  0.00000000
U( 2)     =  0.00000000
alpha( 2) =  0.00000000
U( 3)     =  0.00000000
alpha( 3) = -0.15000000
U( 4)     =  0.00000000
alpha( 4) =  0.00000000
atom    1   Tr[ns(na)] (up, down, total) =   4.95241  3.75362  8.70602
   spin  1
    eigenvalues: 
  0.980  0.980  0.997  0.997  0.997
    eigenvectors:
  0.750  0.250  0.000  0.000  0.000
  0.000  0.000  0.000  0.666  0.334
  0.000  0.000  0.500  0.167  0.333
  0.250  0.750  0.000  0.000  0.000
  0.000  0.000  0.500  0.167  0.333
    occupations:
  0.980  0.000  0.000  0.000  0.000
  0.000  0.997  0.000  0.000  0.000
  0.000  0.000  0.997  0.000  0.000
  0.000  0.000  0.000  0.980  0.000
  0.000  0.000  0.000  0.000  0.997
   spin  2
    eigenvalues: 
  0.384  0.384  0.995  0.995  0.995
    eigenvectors:
  0.250  0.750  0.000  0.000  0.000
  0.000  0.000  0.000  0.667  0.333
  0.000  0.000  0.500  0.167  0.333
  0.750  0.250  0.000  0.000  0.000
  0.000  0.000  0.500  0.167  0.333
    occupations:
  0.384 -0.001  0.001  0.000 -0.001
 -0.001  0.995  0.000 -0.001  0.000
  0.001  0.000  0.995 -0.001  0.000
  0.000 -0.001 -0.001  0.384  0.000
 -0.001  0.000  0.000  0.000  0.995
atomic mag. moment =     1.198791
atom    2   Tr[ns(na)] (up, down, total) =   4.95241  3.75362  8.70602
   spin  1
    eigenvalues: 
  0.980  0.980  0.997  0.997  0.997
    eigenvectors:
  0.750  0.250  0.000  0.000  0.000
  0.000  0.000  0.500  0.167  0.333
  0.000  0.000  0.000  0.666  0.334
  0.250  0.750  0.000  0.000  0.000
  0.000  0.000  0.500  0.167  0.333
    occupations:
  0.980  0.000  0.000  0.000  0.000
  0.000  0.997  0.000  0.000  0.000
  0.000  0.000  0.997  0.000  0.000
  0.000  0.000  0.000  0.980  0.000
  0.000  0.000  0.000  0.000  0.997
   spin  2
    eigenvalues: 
  0.384  0.384  0.995  0.995  0.995
    eigenvectors:
  0.250  0.750  0.000  0.000  0.000
  0.000  0.000  0.500  0.167  0.333
  0.000  0.000  0.000  0.667  0.333
  0.750  0.250  0.000  0.000  0.000
  0.000  0.000  0.500  0.167  0.333
    occupations:
  0.384 -0.001  0.001  0.000 -0.001
 -0.001  0.995  0.000 -0.001  0.000
  0.001  0.000  0.995 -0.001  0.000
  0.000 -0.001 -0.001  0.384  0.000
 -0.001  0.000  0.000  0.000  0.995
atomic mag. moment =     1.198791
atom    3   Tr[ns(na)] (up, down, total) =   4.95241  3.75362  8.70602
   spin  1
    eigenvalues: 
  0.980  0.980  0.997  0.997  0.997
    eigenvectors:
  0.000  1.000  0.000  0.000  0.000
  0.000  0.000  0.500  0.167  0.333
  0.000  0.000  0.500  0.167  0.333
  1.000  0.000  0.000  0.000  0.000
  0.000  0.000  0.000  0.666  0.334
    occupations:
  0.980  0.000  0.000  0.000  0.000
  0.000  0.997  0.000  0.000  0.000
  0.000  0.000  0.997  0.000  0.000
  0.000  0.000  0.000  0.980  0.000
  0.000  0.000  0.000  0.000  0.997
   spin  2
    eigenvalues: 
  0.384  0.384  0.995  0.995  0.995
    eigenvectors:
  1.000  0.000  0.000  0.000  0.000
  0.000  0.000  0.500  0.167  0.333
  0.000  0.000  0.500  0.167  0.333
  0.000  1.000  0.000  0.000  0.000
  0.000  0.000  0.000  0.667  0.333
    occupations:
  0.384 -0.001  0.001  0.000 -0.001
 -0.001  0.995  0.000 -0.001  0.000
  0.001  0.000  0.995 -0.001  0.000
  0.000 -0.001 -0.001  0.384  0.000
 -0.001  0.000  0.000  0.000  0.995
atomic mag. moment =     1.198791
atom    4   Tr[ns(na)] (up, down, total) =   4.95241  3.75362  8.70602
   spin  1
    eigenvalues: 
  0.980  0.980  0.997  0.997  0.997
    eigenvectors:
  0.014  0.986  0.000  0.000  0.000
  0.000  0.000  0.067  0.600  0.333
  0.000  0.000  0.640  0.027  0.333
  0.986  0.014  0.000  0.000  0.000
  0.000  0.000  0.293  0.374  0.333
    occupations:
  0.980  0.000  0.000  0.000  0.000
  0.000  0.997  0.000  0.000  0.000
  0.000  0.000  0.997  0.000  0.000
  0.000  0.000  0.000  0.980  0.000
  0.000  0.000  0.000  0.000  0.997
   spin  2
    eigenvalues: 
  0.384  0.384  0.995  0.995  0.995
    eigenvectors:
  0.001  0.999  0.000  0.000  0.000
  0.000  0.000  0.044  0.622  0.333
  0.000  0.000  0.622  0.045  0.333
  0.999  0.001  0.000  0.000  0.000
  0.000  0.000  0.334  0.333  0.333
    occupations:
  0.384 -0.001  0.001  0.000 -0.001
 -0.001  0.995  0.000 -0.001  0.000
  0.001  0.000  0.995 -0.001  0.000
  0.000 -0.001 -0.001  0.384  0.000
 -0.001  0.000  0.000  0.000  0.995
atomic mag. moment =     1.198791
atom    5   Tr[ns(na)] (up, down, total) =   3.75362  4.95241  8.70602
   spin  1
    eigenvalues: 
  0.384  0.384  0.995  0.995  0.995
    eigenvectors:
  0.010  0.990  0.000  0.000  0.000
  0.000  0.000  0.062  0.605  0.333
  0.000  0.000  0.637  0.030  0.333
  0.990  0.010  0.000  0.000  0.000
  0.000  0.000  0.302  0.365  0.333
    occupations:
  0.384 -0.001  0.001  0.000 -0.001
 -0.001  0.995  0.000 -0.001  0.000
  0.001  0.000  0.995 -0.001  0.000
  0.000 -0.001 -0.001  0.384  0.000
 -0.001  0.000  0.000  0.000  0.995
   spin  2
    eigenvalues: 
  0.980  0.980  0.997  0.997  0.997
    eigenvectors:
  0.067  0.933  0.000  0.000  0.000
  0.000  0.000  0.069  0.598  0.333
  0.000  0.000  0.641  0.026  0.333
  0.933  0.067  0.000  0.000  0.000
  0.000  0.000  0.290  0.376  0.333
    occupations:
  0.980  0.000  0.000  0.000  0.000
  0.000  0.997  0.000  0.000  0.000
  0.000  0.000  0.997  0.000  0.000
  0.000  0.000  0.000  0.980  0.000
  0.000  0.000  0.000  0.000  0.997
atomic mag. moment =    -1.198792
atom    6   Tr[ns(na)] (up, down, total) =   3.75362  4.95241  8.70603
   spin  1
    eigenvalues: 
  0.384  0.384  0.995  0.995  0.995
    eigenvectors:
  0.000  1.000  0.000  0.000  0.000
  0.000  0.000  0.500  0.167  0.333
  0.000  0.000  0.500  0.167  0.333
  1.000  0.000  0.000  0.000  0.000
  0.000  0.000  0.000  0.667  0.333
    occupations:
  0.384 -0.001  0.001  0.000 -0.001
 -0.001  0.995  0.000 -0.001  0.000
  0.001  0.000  0.995 -0.001  0.000
  0.000 -0.001 -0.001  0.384  0.000
 -0.001  0.000  0.000  0.000  0.995
   spin  2
    eigenvalues: 
  0.980  0.980  0.997  0.997  0.997
    eigenvectors:
  1.000  0.000  0.000  0.000  0.000
  0.000  0.000  0.500  0.167  0.333
  0.000  0.000  0.500  0.167  0.333
  0.000  1.000  0.000  0.000  0.000
  0.000  0.000  0.000  0.667  0.333
    occupations:
  0.980  0.000  0.000  0.000  0.000
  0.000  0.997  0.000  0.000  0.000
  0.000  0.000  0.997  0.000  0.000
  0.000  0.000  0.000  0.980  0.000
  0.000  0.000  0.000  0.000  0.997
atomic mag. moment =    -1.198788
atom    7   Tr[ns(na)] (up, down, total) =   3.75362  4.95241  8.70603
   spin  1
    eigenvalues: 
  0.384  0.384  0.995  0.995  0.995
    eigenvectors:
  0.750  0.250  0.000  0.000  0.000
  0.000  0.000  0.500  0.167  0.333
  0.000  0.000  0.000  0.667  0.333
  0.250  0.750  0.000  0.000  0.000
  0.000  0.000  0.500  0.167  0.333
    occupations:
  0.384 -0.001  0.001  0.000 -0.001
 -0.001  0.995  0.000 -0.001  0.000
  0.001  0.000  0.995 -0.001  0.000
  0.000 -0.001 -0.001  0.384  0.000
 -0.001  0.000  0.000  0.000  0.995
   spin  2
    eigenvalues: 
  0.980  0.980  0.997  0.997  0.997
    eigenvectors:
  0.250  0.750  0.000  0.000  0.000
  0.000  0.000  0.500  0.167  0.333
  0.000  0.000  0.000  0.667  0.333
  0.750  0.250  0.000  0.000  0.000
  0.000  0.000  0.500  0.167  0.333
    occupations:
  0.980  0.000  0.000  0.000  0.000
  0.000  0.997  0.000  0.000  0.000
  0.000  0.000  0.997  0.000  0.000
  0.000  0.000  0.000  0.980  0.000
  0.000  0.000  0.000  0.000  0.997
atomic mag. moment =    -1.198788
atom    8   Tr[ns(na)] (up, down, total) =   3.75362  4.95241  8.70603
   spin  1
    eigenvalues: 
  0.384  0.384  0.995  0.995  0.995
    eigenvectors:
  0.750  0.250  0.000  0.000  0.000
  0.000  0.000  0.000  0.667  0.333
  0.000  0.000  0.500  0.167  0.333
  0.250  0.750  0.000  0.000  0.000
  0.000  0.000  0.500  0.167  0.333
    occupations:
  0.384 -0.001  0.001  0.000 -0.001
 -0.001  0.995  0.000 -0.001  0.000
  0.001  0.000  0.995 -0.001  0.000
  0.000 -0.001 -0.001  0.384  0.000
 -0.001  0.000  0.000  0.000  0.995
   spin  2
    eigenvalues: 
  0.980  0.980  0.997  0.997  0.997
    eigenvectors:
  0.250  0.750  0.000  0.000  0.000
  0.000  0.000  0.000  0.667  0.333
  0.000  0.000  0.500  0.167  0.333
  0.750  0.250  0.000  0.000  0.000
  0.000  0.000  0.500  0.167  0.333
    occupations:
  0.980  0.000  0.000  0.000  0.000
  0.000  0.997  0.000  0.000  0.000
  0.000  0.000  0.997  0.000  0.000
  0.000  0.000  0.000  0.980  0.000
  0.000  0.000  0.000  0.000  0.997
atomic mag. moment =    -1.198788
atom    9   Tr[ns(na)] (up, down, total) =   2.81114  2.81114  5.62228
   spin  1
    eigenvalues: 
  0.937  0.937  0.938
    eigenvectors:
  0.085  0.581  0.333
  0.265  0.402  0.333
  0.650  0.017  0.333
    occupations:
  0.937  0.000  0.000
  0.000  0.937  0.000
  0.000  0.000  0.937
   spin  2
    eigenvalues: 
  0.937  0.937  0.938
    eigenvectors:
  0.084  0.583  0.333
  0.267  0.400  0.333
  0.649  0.017  0.333
    occupations:
  0.937  0.000  0.000
  0.000  0.937  0.000
  0.000  0.000  0.937
atomic mag. moment =    -0.000001
atom   10   Tr[ns(na)] (up, down, total) =   2.81114  2.81114  5.62228
   spin  1
    eigenvalues: 
  0.937  0.937  0.938
    eigenvectors:
  0.500  0.167  0.333
  0.500  0.167  0.333
  0.000  0.667  0.333
    occupations:
  0.937  0.000  0.000
  0.000  0.937  0.000
  0.000  0.000  0.937
   spin  2
    eigenvalues: 
  0.937  0.937  0.938
    eigenvectors:
  0.500  0.167  0.333
  0.500  0.167  0.333
  0.000  0.667  0.333
    occupations:
  0.937  0.000  0.000
  0.000  0.937  0.000
  0.000  0.000  0.937
atomic mag. moment =     0.000000
atom   11   Tr[ns(na)] (up, down, total) =   2.81114  2.81114  5.62228
   spin  1
    eigenvalues: 
  0.937  0.937  0.938
    eigenvectors:
  0.500  0.167  0.333
  0.000  0.667  0.333
  0.500  0.167  0.333
    occupations:
  0.937  0.000  0.000
  0.000  0.937  0.000
  0.000  0.000  0.937
   spin  2
    eigenvalues: 
  0.937  0.937  0.938
    eigenvectors:
  0.500  0.167  0.333
  0.000  0.667  0.333
  0.500  0.167  0.333
    occupations:
  0.937  0.000  0.000
  0.000  0.937  0.000
  0.000  0.000  0.937
atomic mag. moment =     0.000000
atom   12   Tr[ns(na)] (up, down, total) =   2.81114  2.81114  5.62228
   spin  1
    eigenvalues: 
  0.937  0.937  0.938
    eigenvectors:
  0.000  0.667  0.333
  0.500  0.167  0.333
  0.500  0.167  0.333
    occupations:
  0.937  0.000  0.000
  0.000  0.937  0.000
  0.000  0.000  0.937
   spin  2
    eigenvalues: 
  0.937  0.937  0.938
    eigenvectors:
  0.000  0.667  0.333
  0.500  0.167  0.333
  0.500  0.167  0.333
    occupations:
  0.937  0.000  0.000
  0.000  0.937  0.000
  0.000  0.000  0.937
atomic mag. moment =     0.000000
atom   13   Tr[ns(na)] (up, down, total) =   2.81114  2.81114  5.62228
   spin  1
    eigenvalues: 
  0.937  0.937  0.938
    eigenvectors:
  0.000  0.667  0.333
  0.500  0.167  0.333
  0.500  0.167  0.333
    occupations:
  0.937  0.000  0.000
  0.000  0.937  0.000
  0.000  0.000  0.937
   spin  2
    eigenvalues: 
  0.937  0.937  0.938
    eigenvectors:
  0.000  0.667  0.333
  0.500  0.167  0.333
  0.500  0.167  0.333
    occupations:
  0.937  0.000  0.000
  0.000  0.937  0.000
  0.000  0.000  0.937
atomic mag. moment =     0.000000
atom   14   Tr[ns(na)] (up, down, total) =   2.81114  2.81114  5.62228
   spin  1
    eigenvalues: 
  0.937  0.937  0.938
    eigenvectors:
  0.500  0.167  0.333
  0.000  0.667  0.333
  0.500  0.167  0.333
    occupations:
  0.937  0.000  0.000
  0.000  0.937  0.000
  0.000  0.000  0.937
   spin  2
    eigenvalues: 
  0.937  0.937  0.938
    eigenvectors:
  0.500  0.167  0.333
  0.000  0.667  0.333
  0.500  0.167  0.333
    occupations:
  0.937  0.000  0.000
  0.000  0.937  0.000
  0.000  0.000  0.937
atomic mag. moment =     0.000000
atom   15   Tr[ns(na)] (up, down, total) =   2.81114  2.81114  5.62228
   spin  1
    eigenvalues: 
  0.937  0.937  0.938
    eigenvectors:
  0.500  0.167  0.333
  0.500  0.167  0.333
  0.000  0.667  0.333
    occupations:
  0.937  0.000  0.000
  0.000  0.937  0.000
  0.000  0.000  0.937
   spin  2
    eigenvalues: 
  0.937  0.937  0.938
    eigenvectors:
  0.500  0.167  0.333
  0.500  0.167  0.333
  0.000  0.667  0.333
    occupations:
  0.937  0.000  0.000
  0.000  0.937  0.000
  0.000  0.000  0.937
atomic mag. moment =     0.000000
atom   16   Tr[ns(na)] (up, down, total) =   2.81114  2.81114  5.62228
   spin  1
    eigenvalues: 
  0.937  0.937  0.938
    eigenvectors:
  0.072  0.595  0.333
  0.286  0.381  0.333
  0.643  0.024  0.333
    occupations:
  0.937  0.000  0.000
  0.000  0.937  0.000
  0.000  0.000  0.937
   spin  2
    eigenvalues: 
  0.937  0.937  0.938
    eigenvectors:
  0.027  0.640  0.333
  0.374  0.293  0.333
  0.600  0.067  0.333
    occupations:
  0.937  0.000  0.000
  0.000  0.937  0.000
  0.000  0.000  0.937
atomic mag. moment =    -0.000001
N of occupied +U levels = 114.6264667
 --- exit write_ns ---
 LDA+U Projector read from file 
     Starting wfc from file

     total cpu time spent up to now is       12.5 secs

     per-process dynamical memory:   103.4 Mb

     Self-consistent Calculation

     iteration #  1     ecut=    30.00 Ry     beta=0.30
     Davidson diagonalization with overlap
     c_bands:  1 eigenvalues not converged
     c_bands:  1 eigenvalues not converged
     c_bands:  1 eigenvalues not converged
     c_bands:  1 eigenvalues not converged
     c_bands:  1 eigenvalues not converged
     ethr =  1.00E-10,  avg # of iterations = 13.6
 --- enter write_ns ---
 LDA+U parameters:
U( 1)     =  0.00000000
alpha( 1) =  0.00000000
U( 2)     =  0.00000000
alpha( 2) =  0.00000000
U( 3)     =  0.00000000
alpha( 3) = -0.15000000
U( 4)     =  0.00000000
alpha( 4) =  0.00000000
atom    1   Tr[ns(na)] (up, down, total) =   4.95242  3.75136  8.70378
   spin  1
    eigenvalues: 
  0.980  0.980  0.997  0.997  0.997
    eigenvectors:
  0.750  0.250  0.000  0.000  0.000
  0.000  0.000  0.680  0.000  0.320
  0.000  0.000  0.160  0.500  0.340
  0.250  0.750  0.000  0.000  0.000
  0.000  0.000  0.160  0.500  0.340
    occupations:
  0.980  0.000  0.000  0.000  0.000
  0.000  0.997  0.000  0.000  0.000
  0.000  0.000  0.997  0.000  0.000
  0.000  0.000  0.000  0.980  0.000
  0.000  0.000  0.000  0.000  0.997
   spin  2
    eigenvalues: 
  0.382  0.384  0.995  0.995  0.995
    eigenvectors:
  0.250  0.750  0.000  0.000  0.000
  0.000  0.000  0.683  0.000  0.317
  0.000  0.000  0.159  0.500  0.341
  0.750  0.250  0.000  0.000  0.000
  0.000  0.000  0.159  0.500  0.341
    occupations:
  0.383 -0.001  0.001 -0.001 -0.001
 -0.001  0.995  0.000 -0.001  0.000
  0.001  0.000  0.995 -0.001  0.000
 -0.001 -0.001 -0.001  0.382  0.000
 -0.001  0.000  0.000  0.000  0.995
atomic mag. moment =     1.201065
atom    2   Tr[ns(na)] (up, down, total) =   4.95242  3.75136  8.70378
   spin  1
    eigenvalues: 
  0.980  0.980  0.997  0.997  0.997
    eigenvectors:
  0.750  0.250  0.000  0.000  0.000
  0.000  0.000  0.160  0.500  0.340
  0.000  0.000  0.680  0.000  0.320
  0.250  0.750  0.000  0.000  0.000
  0.000  0.000  0.160  0.500  0.340
    occupations:
  0.980  0.000  0.000  0.000  0.000
  0.000  0.997  0.000  0.000  0.000
  0.000  0.000  0.997  0.000  0.000
  0.000  0.000  0.000  0.980  0.000
  0.000  0.000  0.000  0.000  0.997
   spin  2
    eigenvalues: 
  0.382  0.384  0.995  0.995  0.995
    eigenvectors:
  0.250  0.750  0.000  0.000  0.000
  0.000  0.000  0.159  0.500  0.341
  0.000  0.000  0.683  0.000  0.317
  0.750  0.250  0.000  0.000  0.000
  0.000  0.000  0.159  0.500  0.341
    occupations:
  0.383 -0.001  0.001  0.001 -0.001
 -0.001  0.995  0.000 -0.001  0.000
  0.001  0.000  0.995 -0.001  0.000
  0.001 -0.001 -0.001  0.382  0.000
 -0.001  0.000  0.000  0.000  0.995
atomic mag. moment =     1.201065
atom    3   Tr[ns(na)] (up, down, total) =   4.95242  3.75136  8.70378
   spin  1
    eigenvalues: 
  0.980  0.980  0.997  0.997  0.997
    eigenvectors:
  0.000  1.000  0.000  0.000  0.000
  0.000  0.000  0.160  0.500  0.340
  0.000  0.000  0.160  0.500  0.340
  1.000  0.000  0.000  0.000  0.000
  0.000  0.000  0.680  0.000  0.320
    occupations:
  0.980  0.000  0.000  0.000  0.000
  0.000  0.997  0.000  0.000  0.000
  0.000  0.000  0.997  0.000  0.000
  0.000  0.000  0.000  0.980  0.000
  0.000  0.000  0.000  0.000  0.997
   spin  2
    eigenvalues: 
  0.382  0.384  0.995  0.995  0.995
    eigenvectors:
  1.000  0.000  0.000  0.000  0.000
  0.000  0.000  0.159  0.500  0.341
  0.000  0.000  0.159  0.500  0.341
  0.000  1.000  0.000  0.000  0.000
  0.000  0.000  0.683  0.000  0.317
    occupations:
  0.382  0.000  0.000  0.000 -0.001
  0.000  0.995  0.000 -0.001  0.000
  0.000  0.000  0.995 -0.001  0.000
  0.000 -0.001 -0.001  0.384  0.000
 -0.001  0.000  0.000  0.000  0.995
atomic mag. moment =     1.201065
atom    4   Tr[ns(na)] (up, down, total) =   4.95241  3.75357  8.70597
   spin  1
    eigenvalues: 
  0.980  0.980  0.997  0.997  0.997
    eigenvectors:
  0.025  0.975  0.000  0.000  0.000
  0.000  0.000  0.044  0.623  0.333
  0.000  0.000  0.621  0.045  0.333
  0.975  0.025  0.000  0.000  0.000
  0.000  0.000  0.335  0.332  0.333
    occupations:
  0.980  0.000  0.000  0.000  0.000
  0.000  0.997  0.000  0.000  0.000
  0.000  0.000  0.997  0.000  0.000
  0.000  0.000  0.000  0.980  0.000
  0.000  0.000  0.000  0.000  0.997
   spin  2
    eigenvalues: 
  0.384  0.384  0.995  0.995  0.995
    eigenvectors:
  0.002  0.998  0.000  0.000  0.000
  0.000  0.000  0.065  0.601  0.333
  0.000  0.000  0.639  0.028  0.333
  0.998  0.002  0.000  0.000  0.000
  0.000  0.000  0.296  0.371  0.333
    occupations:
  0.384 -0.001  0.001  0.000 -0.001
 -0.001  0.995  0.000 -0.001  0.000
  0.001  0.000  0.995 -0.001  0.000
  0.000 -0.001 -0.001  0.384  0.000
 -0.001  0.000  0.000  0.000  0.995
atomic mag. moment =     1.198836
atom    5   Tr[ns(na)] (up, down, total) =   3.75358  4.95241  8.70599
   spin  1
    eigenvalues: 
  0.384  0.384  0.995  0.995  0.995
    eigenvectors:
  0.052  0.948  0.000  0.000  0.000
  0.000  0.000  0.053  0.614  0.333
  0.000  0.000  0.630  0.037  0.333
  0.948  0.052  0.000  0.000  0.000
  0.000  0.000  0.318  0.349  0.333
    occupations:
  0.384 -0.001  0.001  0.000 -0.001
 -0.001  0.995  0.000 -0.001  0.000
  0.001  0.000  0.995 -0.001  0.000
  0.000 -0.001 -0.001  0.384  0.000
 -0.001  0.000  0.000  0.000  0.995
   spin  2
    eigenvalues: 
  0.980  0.980  0.997  0.997  0.997
    eigenvectors:
  0.033  0.967  0.000  0.000  0.000
  0.000  0.000  0.050  0.616  0.333
  0.000  0.000  0.627  0.039  0.333
  0.967  0.033  0.000  0.000  0.000
  0.000  0.000  0.322  0.344  0.333
    occupations:
  0.980  0.000  0.000  0.000  0.000
  0.000  0.997  0.000  0.000  0.000
  0.000  0.000  0.997  0.000  0.000
  0.000  0.000  0.000  0.980  0.000
  0.000  0.000  0.000  0.000  0.997
atomic mag. moment =    -1.198826
atom    6   Tr[ns(na)] (up, down, total) =   3.75134  4.95242  8.70375
   spin  1
    eigenvalues: 
  0.382  0.384  0.995  0.995  0.995
    eigenvectors:
  1.000  0.000  0.000  0.000  0.000
  0.000  0.000  0.158  0.500  0.342
  0.000  0.000  0.158  0.500  0.342
  0.000  1.000  0.000  0.000  0.000
  0.000  0.000  0.683  0.000  0.317
    occupations:
  0.382  0.000  0.000  0.000 -0.001
  0.000  0.995  0.000 -0.001  0.000
  0.000  0.000  0.995 -0.001  0.000
  0.000 -0.001 -0.001  0.384  0.000
 -0.001  0.000  0.000  0.000  0.995
   spin  2
    eigenvalues: 
  0.980  0.980  0.997  0.997  0.997
    eigenvectors:
  0.000  1.000  0.000  0.000  0.000
  0.000  0.000  0.161  0.500  0.339
  0.000  0.000  0.161  0.500  0.339
  1.000  0.000  0.000  0.000  0.000
  0.000  0.000  0.678  0.000  0.322
    occupations:
  0.980  0.000  0.000  0.000  0.000
  0.000  0.997  0.000  0.000  0.000
  0.000  0.000  0.997  0.000  0.000
  0.000  0.000  0.000  0.980  0.000
  0.000  0.000  0.000  0.000  0.997
atomic mag. moment =    -1.201081
atom    7   Tr[ns(na)] (up, down, total) =   3.75134  4.95242  8.70375
   spin  1
    eigenvalues: 
  0.382  0.384  0.995  0.995  0.995
    eigenvectors:
  0.250  0.750  0.000  0.000  0.000
  0.000  0.000  0.158  0.500  0.342
  0.000  0.000  0.683  0.000  0.317
  0.750  0.250  0.000  0.000  0.000
  0.000  0.000  0.158  0.500  0.342
    occupations:
  0.383 -0.001  0.001  0.001 -0.001
 -0.001  0.995  0.000 -0.001  0.000
  0.001  0.000  0.995 -0.001  0.000
  0.001 -0.001 -0.001  0.382  0.000
 -0.001  0.000  0.000  0.000  0.995
   spin  2
    eigenvalues: 
  0.980  0.980  0.997  0.997  0.997
    eigenvectors:
  0.750  0.250  0.000  0.000  0.000
  0.000  0.000  0.161  0.500  0.339
  0.000  0.000  0.678  0.000  0.322
  0.250  0.750  0.000  0.000  0.000
  0.000  0.000  0.161  0.500  0.339
    occupations:
  0.980  0.000  0.000  0.000  0.000
  0.000  0.997  0.000  0.000  0.000
  0.000  0.000  0.997  0.000  0.000
  0.000  0.000  0.000  0.980  0.000
  0.000  0.000  0.000  0.000  0.997
atomic mag. moment =    -1.201081
atom    8   Tr[ns(na)] (up, down, total) =   3.75134  4.95242  8.70375
   spin  1
    eigenvalues: 
  0.382  0.384  0.995  0.995  0.995
    eigenvectors:
  0.250  0.750  0.000  0.000  0.000
  0.000  0.000  0.683  0.000  0.317
  0.000  0.000  0.158  0.500  0.342
  0.750  0.250  0.000  0.000  0.000
  0.000  0.000  0.158  0.500  0.342
    occupations:
  0.383 -0.001  0.001 -0.001 -0.001
 -0.001  0.995  0.000 -0.001  0.000
  0.001  0.000  0.995 -0.001  0.000
 -0.001 -0.001 -0.001  0.382  0.000
 -0.001  0.000  0.000  0.000  0.995
   spin  2
    eigenvalues: 
  0.980  0.980  0.997  0.997  0.997
    eigenvectors:
  0.750  0.250  0.000  0.000  0.000
  0.000  0.000  0.678  0.000  0.322
  0.000  0.000  0.161  0.500  0.339
  0.250  0.750  0.000  0.000  0.000
  0.000  0.000  0.161  0.500  0.339
    occupations:
  0.980  0.000  0.000  0.000  0.000
  0.000  0.997  0.000  0.000  0.000
  0.000  0.000  0.997  0.000  0.000
  0.000  0.000  0.000  0.980  0.000
  0.000  0.000  0.000  0.000  0.997
atomic mag. moment =    -1.201081
atom    9   Tr[ns(na)] (up, down, total) =   2.81767  2.81767  5.63534
   spin  1
    eigenvalues: 
  0.939  0.939  0.940
    eigenvectors:
  0.084  0.583  0.333
  0.267  0.400  0.333
  0.650  0.017  0.333
    occupations:
  0.939  0.000  0.000
  0.000  0.939  0.000
  0.000  0.000  0.939
   spin  2
    eigenvalues: 
  0.939  0.939  0.940
    eigenvectors:
  0.092  0.575  0.333
  0.255  0.412  0.333
  0.653  0.014  0.333
    occupations:
  0.939  0.000  0.000
  0.000  0.939  0.000
  0.000  0.000  0.939
atomic mag. moment =     0.000004
atom   10   Tr[ns(na)] (up, down, total) =   2.81113  2.81113  5.62226
   spin  1
    eigenvalues: 
  0.937  0.937  0.938
    eigenvectors:
  0.500  0.160  0.340
  0.500  0.160  0.340
  0.000  0.679  0.321
    occupations:
  0.937  0.001  0.000
  0.001  0.937  0.000
  0.000  0.000  0.937
   spin  2
    eigenvalues: 
  0.937  0.937  0.938
    eigenvectors:
  0.500  0.161  0.339
  0.500  0.161  0.339
  0.000  0.679  0.321
    occupations:
  0.937  0.001  0.000
  0.001  0.937  0.000
  0.000  0.000  0.937
atomic mag. moment =     0.000002
atom   11   Tr[ns(na)] (up, down, total) =   2.81113  2.81113  5.62226
   spin  1
    eigenvalues: 
  0.937  0.937  0.938
    eigenvectors:
  0.500  0.160  0.340
  0.000  0.679  0.321
  0.500  0.160  0.340
    occupations:
  0.937  0.000 -0.001
  0.000  0.937  0.000
 -0.001  0.000  0.937
   spin  2
    eigenvalues: 
  0.937  0.937  0.938
    eigenvectors:
  0.500  0.161  0.339
  0.000  0.679  0.321
  0.500  0.161  0.339
    occupations:
  0.937  0.000 -0.001
  0.000  0.937  0.000
 -0.001  0.000  0.937
atomic mag. moment =     0.000002
atom   12   Tr[ns(na)] (up, down, total) =   2.81113  2.81113  5.62226
   spin  1
    eigenvalues: 
  0.937  0.937  0.938
    eigenvectors:
  0.000  0.679  0.321
  0.500  0.160  0.340
  0.500  0.160  0.340
    occupations:
  0.937  0.000  0.000
  0.000  0.937 -0.001
  0.000 -0.001  0.937
   spin  2
    eigenvalues: 
  0.937  0.937  0.938
    eigenvectors:
  0.000  0.679  0.321
  0.500  0.161  0.339
  0.500  0.161  0.339
    occupations:
  0.937  0.000  0.000
  0.000  0.937 -0.001
  0.000 -0.001  0.937
atomic mag. moment =     0.000002
atom   13   Tr[ns(na)] (up, down, total) =   2.81116  2.81115  5.62231
   spin  1
    eigenvalues: 
  0.937  0.937  0.938
    eigenvectors:
  0.658  0.000  0.342
  0.171  0.500  0.329
  0.171  0.500  0.329
    occupations:
  0.937  0.000  0.000
  0.000  0.937  0.000
  0.000  0.000  0.937
   spin  2
    eigenvalues: 
  0.937  0.937  0.938
    eigenvectors:
  0.657  0.000  0.343
  0.171  0.500  0.329
  0.171  0.500  0.329
    occupations:
  0.937  0.000  0.000
  0.000  0.937  0.000
  0.000  0.000  0.937
atomic mag. moment =     0.000002
atom   14   Tr[ns(na)] (up, down, total) =   2.81116  2.81115  5.62231
   spin  1
    eigenvalues: 
  0.937  0.937  0.938
    eigenvectors:
  0.171  0.500  0.329
  0.658  0.000  0.342
  0.171  0.500  0.329
    occupations:
  0.937  0.000  0.000
  0.000  0.937  0.000
  0.000  0.000  0.937
   spin  2
    eigenvalues: 
  0.937  0.937  0.938
    eigenvectors:
  0.171  0.500  0.329
  0.657  0.000  0.343
  0.171  0.500  0.329
    occupations:
  0.937  0.000  0.000
  0.000  0.937  0.000
  0.000  0.000  0.937
atomic mag. moment =     0.000002
atom   15   Tr[ns(na)] (up, down, total) =   2.81116  2.81115  5.62231
   spin  1
    eigenvalues: 
  0.937  0.937  0.938
    eigenvectors:
  0.171  0.500  0.329
  0.171  0.500  0.329
  0.658  0.000  0.342
    occupations:
  0.937  0.000  0.000
  0.000  0.937  0.000
  0.000  0.000  0.937
   spin  2
    eigenvalues: 
  0.937  0.937  0.938
    eigenvectors:
  0.171  0.500  0.329
  0.171  0.500  0.329
  0.657  0.000  0.343
    occupations:
  0.937  0.000  0.000
  0.000  0.937  0.000
  0.000  0.000  0.937
atomic mag. moment =     0.000002
atom   16   Tr[ns(na)] (up, down, total) =   2.81059  2.81059  5.62118
   spin  1
    eigenvalues: 
  0.936  0.936  0.938
    eigenvectors:
  0.070  0.596  0.333
  0.288  0.379  0.333
  0.642  0.025  0.333
    occupations:
  0.937  0.000  0.000
  0.000  0.937  0.000
  0.000  0.000  0.937
   spin  2
    eigenvalues: 
  0.936  0.936  0.938
    eigenvectors:
  0.077  0.590  0.333
  0.277  0.389  0.333
  0.646  0.021  0.333
    occupations:
  0.937  0.000  0.000
  0.000  0.937  0.000
  0.000  0.000  0.937
atomic mag. moment =     0.000004
N of occupied +U levels = 114.6247676
 --- exit write_ns ---
 --- in v_hubbard ---
Hubbard energy   -0.0620
 -------

     total cpu time spent up to now is      123.8 secs

     total energy              =    -942.07805285 Ry
     Harris-Foulkes estimate   =    -942.07815817 Ry
     estimated scf accuracy    <       0.00023234 Ry

     total magnetization       =     0.00 Bohr mag/cell
     absolute magnetization    =    12.30 Bohr mag/cell

     iteration #  2     ecut=    30.00 Ry     beta=0.30
     Davidson diagonalization with overlap
     ethr =  1.82E-07,  avg # of iterations =  2.0
 --- enter write_ns ---
 LDA+U parameters:
U( 1)     =  0.00000000
alpha( 1) =  0.00000000
U( 2)     =  0.00000000
alpha( 2) =  0.00000000
U( 3)     =  0.00000000
alpha( 3) = -0.15000000
U( 4)     =  0.00000000
alpha( 4) =  0.00000000
atom    1   Tr[ns(na)] (up, down, total) =   4.95239  3.75318  8.70556
   spin  1
    eigenvalues: 
  0.980  0.980  0.997  0.997  0.997
    eigenvectors:
  0.250  0.750  0.000  0.000  0.000
  0.000  0.000  0.000  0.552  0.448
  0.000  0.000  0.500  0.224  0.276
  0.750  0.250  0.000  0.000  0.000
  0.000  0.000  0.500  0.224  0.276
    occupations:
  0.980  0.000  0.000  0.000  0.000
  0.000  0.997  0.000  0.000  0.000
  0.000  0.000  0.997  0.000  0.000
  0.000  0.000  0.000  0.980  0.000
  0.000  0.000  0.000  0.000  0.997
   spin  2
    eigenvalues: 
  0.383  0.384  0.995  0.995  0.995
    eigenvectors:
  0.250  0.750  0.000  0.000  0.000
  0.000  0.000  0.000  0.639  0.361
  0.000  0.000  0.500  0.181  0.319
  0.750  0.250  0.000  0.000  0.000
  0.000  0.000  0.500  0.181  0.319
    occupations:
  0.384 -0.001  0.001  0.000 -0.001
 -0.001  0.995  0.000 -0.001  0.000
  0.001  0.000  0.995 -0.001  0.000
  0.000 -0.001 -0.001  0.383  0.000
 -0.001  0.000  0.000  0.000  0.995
atomic mag. moment =     1.199212
atom    2   Tr[ns(na)] (up, down, total) =   4.95239  3.75318  8.70556
   spin  1
    eigenvalues: 
  0.980  0.980  0.997  0.997  0.997
    eigenvectors:
  0.250  0.750  0.000  0.000  0.000
  0.000  0.000  0.500  0.224  0.276
  0.000  0.000  0.000  0.552  0.448
  0.750  0.250  0.000  0.000  0.000
  0.000  0.000  0.500  0.224  0.276
    occupations:
  0.980  0.000  0.000  0.000  0.000
  0.000  0.997  0.000  0.000  0.000
  0.000  0.000  0.997  0.000  0.000
  0.000  0.000  0.000  0.980  0.000
  0.000  0.000  0.000  0.000  0.997
   spin  2
    eigenvalues: 
  0.383  0.384  0.995  0.995  0.995
    eigenvectors:
  0.250  0.750  0.000  0.000  0.000
  0.000  0.000  0.500  0.181  0.319
  0.000  0.000  0.000  0.639  0.361
  0.750  0.250  0.000  0.000  0.000
  0.000  0.000  0.500  0.181  0.319
    occupations:
  0.384 -0.001  0.001  0.000 -0.001
 -0.001  0.995  0.000 -0.001  0.000
  0.001  0.000  0.995 -0.001  0.000
  0.000 -0.001 -0.001  0.383  0.000
 -0.001  0.000  0.000  0.000  0.995
atomic mag. moment =     1.199212
atom    3   Tr[ns(na)] (up, down, total) =   4.95239  3.75318  8.70556
   spin  1
    eigenvalues: 
  0.980  0.980  0.997  0.997  0.997
    eigenvectors:
  1.000  0.000  0.000  0.000  0.000
  0.000  0.000  0.500  0.224  0.276
  0.000  0.000  0.500  0.224  0.276
  0.000  1.000  0.000  0.000  0.000
  0.000  0.000  0.000  0.552  0.448
    occupations:
  0.980  0.000  0.000  0.000  0.000
  0.000  0.997  0.000  0.000  0.000
  0.000  0.000  0.997  0.000  0.000
  0.000  0.000  0.000  0.980  0.000
  0.000  0.000  0.000  0.000  0.997
   spin  2
    eigenvalues: 
  0.383  0.384  0.995  0.995  0.995
    eigenvectors:
  1.000  0.000  0.000  0.000  0.000
  0.000  0.000  0.500  0.181  0.319
  0.000  0.000  0.500  0.181  0.319
  0.000  1.000  0.000  0.000  0.000
  0.000  0.000  0.000  0.639  0.361
    occupations:
  0.383 -0.001  0.001  0.000 -0.001
 -0.001  0.995  0.000 -0.001  0.000
  0.001  0.000  0.995 -0.001  0.000
  0.000 -0.001 -0.001  0.384  0.000
 -0.001  0.000  0.000  0.000  0.995
atomic mag. moment =     1.199212
atom    4   Tr[ns(na)] (up, down, total) =   4.95240  3.75354  8.70594
   spin  1
    eigenvalues: 
  0.980  0.980  0.997  0.997  0.997
    eigenvectors:
  0.054  0.946  0.000  0.000  0.000
  0.000  0.000  0.052  0.615  0.333
  0.000  0.000  0.629  0.038  0.333
  0.946  0.054  0.000  0.000  0.000
  0.000  0.000  0.319  0.347  0.333
    occupations:
  0.980  0.000  0.000  0.000  0.000
  0.000  0.997  0.000  0.000  0.000
  0.000  0.000  0.997  0.000  0.000
  0.000  0.000  0.000  0.980  0.000
  0.000  0.000  0.000  0.000  0.997
   spin  2
    eigenvalues: 
  0.384  0.384  0.995  0.995  0.995
    eigenvectors:
  0.004  0.996  0.000  0.000  0.000
  0.000  0.000  0.050  0.616  0.333
  0.000  0.000  0.627  0.039  0.333
  0.996  0.004  0.000  0.000  0.000
  0.000  0.000  0.322  0.344  0.333
    occupations:
  0.384 -0.001  0.001  0.000 -0.001
 -0.001  0.995  0.000 -0.001  0.000
  0.001  0.000  0.995 -0.001  0.000
  0.000 -0.001 -0.001  0.384  0.000
 -0.001  0.000  0.000  0.000  0.995
atomic mag. moment =     1.198865
atom    5   Tr[ns(na)] (up, down, total) =   3.75352  4.95240  8.70592
   spin  1
    eigenvalues: 
  0.384  0.384  0.995  0.995  0.995
    eigenvectors:
  0.045  0.955  0.000  0.000  0.000
  0.000  0.000  0.041  0.626  0.333
  0.000  0.000  0.618  0.049  0.333
  0.955  0.045  0.000  0.000  0.000
  0.000  0.000  0.341  0.325  0.333
    occupations:
  0.384 -0.001  0.001  0.000 -0.001
 -0.001  0.995  0.000 -0.001  0.000
  0.001  0.000  0.995 -0.001  0.000
  0.000 -0.001 -0.001  0.384  0.000
 -0.001  0.000  0.000  0.000  0.995
   spin  2
    eigenvalues: 
  0.980  0.980  0.997  0.997  0.997
    eigenvectors:
  0.020  0.980  0.000  0.000  0.000
  0.000  0.000  0.058  0.609  0.333
  0.000  0.000  0.634  0.033  0.333
  0.980  0.020  0.000  0.000  0.000
  0.000  0.000  0.309  0.358  0.333
    occupations:
  0.980  0.000  0.000  0.000  0.000
  0.000  0.997  0.000  0.000  0.000
  0.000  0.000  0.997  0.000  0.000
  0.000  0.000  0.000  0.980  0.000
  0.000  0.000  0.000  0.000  0.997
atomic mag. moment =    -1.198881
atom    6   Tr[ns(na)] (up, down, total) =   3.75320  4.95239  8.70560
   spin  1
    eigenvalues: 
  0.383  0.384  0.995  0.995  0.995
    eigenvectors:
  1.000  0.000  0.000  0.000  0.000
  0.000  0.000  0.500  0.181  0.319
  0.000  0.000  0.500  0.181  0.319
  0.000  1.000  0.000  0.000  0.000
  0.000  0.000  0.000  0.638  0.362
    occupations:
  0.383 -0.001  0.001  0.000 -0.001
 -0.001  0.995  0.000 -0.001  0.000
  0.001  0.000  0.995 -0.001  0.000
  0.000 -0.001 -0.001  0.384  0.000
 -0.001  0.000  0.000  0.000  0.995
   spin  2
    eigenvalues: 
  0.980  0.980  0.997  0.997  0.997
    eigenvectors:
  1.000  0.000  0.000  0.000  0.000
  0.000  0.000  0.500  0.223  0.277
  0.000  0.000  0.500  0.223  0.277
  0.000  1.000  0.000  0.000  0.000
  0.000  0.000  0.000  0.555  0.445
    occupations:
  0.980  0.000  0.000  0.000  0.000
  0.000  0.997  0.000  0.000  0.000
  0.000  0.000  0.997  0.000  0.000
  0.000  0.000  0.000  0.980  0.000
  0.000  0.000  0.000  0.000  0.997
atomic mag. moment =    -1.199191
atom    7   Tr[ns(na)] (up, down, total) =   3.75320  4.95239  8.70560
   spin  1
    eigenvalues: 
  0.383  0.384  0.995  0.995  0.995
    eigenvectors:
  0.250  0.750  0.000  0.000  0.000
  0.000  0.000  0.500  0.181  0.319
  0.000  0.000  0.000  0.638  0.362
  0.750  0.250  0.000  0.000  0.000
  0.000  0.000  0.500  0.181  0.319
    occupations:
  0.384 -0.001  0.001  0.000 -0.001
 -0.001  0.995  0.000 -0.001  0.000
  0.001  0.000  0.995 -0.001  0.000
  0.000 -0.001 -0.001  0.383  0.000
 -0.001  0.000  0.000  0.000  0.995
   spin  2
    eigenvalues: 
  0.980  0.980  0.997  0.997  0.997
    eigenvectors:
  0.250  0.750  0.000  0.000  0.000
  0.000  0.000  0.500  0.223  0.277
  0.000  0.000  0.000  0.555  0.445
  0.750  0.250  0.000  0.000  0.000
  0.000  0.000  0.500  0.223  0.277
    occupations:
  0.980  0.000  0.000  0.000  0.000
  0.000  0.997  0.000  0.000  0.000
  0.000  0.000  0.997  0.000  0.000
  0.000  0.000  0.000  0.980  0.000
  0.000  0.000  0.000  0.000  0.997
atomic mag. moment =    -1.199191
atom    8   Tr[ns(na)] (up, down, total) =   3.75320  4.95239  8.70560
   spin  1
    eigenvalues: 
  0.383  0.384  0.995  0.995  0.995
    eigenvectors:
  0.250  0.750  0.000  0.000  0.000
  0.000  0.000  0.000  0.638  0.362
  0.000  0.000  0.500  0.181  0.319
  0.750  0.250  0.000  0.000  0.000
  0.000  0.000  0.500  0.181  0.319
    occupations:
  0.384 -0.001  0.001  0.000 -0.001
 -0.001  0.995  0.000 -0.001  0.000
  0.001  0.000  0.995 -0.001  0.000
  0.000 -0.001 -0.001  0.383  0.000
 -0.001  0.000  0.000  0.000  0.995
   spin  2
    eigenvalues: 
  0.980  0.980  0.997  0.997  0.997
    eigenvectors:
  0.250  0.750  0.000  0.000  0.000
  0.000  0.000  0.000  0.555  0.445
  0.000  0.000  0.500  0.223  0.277
  0.750  0.250  0.000  0.000  0.000
  0.000  0.000  0.500  0.223  0.277
    occupations:
  0.980  0.000  0.000  0.000  0.000
  0.000  0.997  0.000  0.000  0.000
  0.000  0.000  0.997  0.000  0.000
  0.000  0.000  0.000  0.980  0.000
  0.000  0.000  0.000  0.000  0.997
atomic mag. moment =    -1.199191
atom    9   Tr[ns(na)] (up, down, total) =   2.81211  2.81211  5.62422
   spin  1
    eigenvalues: 
  0.937  0.937  0.938
    eigenvectors:
  0.075  0.591  0.333
  0.279  0.387  0.333
  0.645  0.022  0.333
    occupations:
  0.937  0.000  0.000
  0.000  0.937  0.000
  0.000  0.000  0.937
   spin  2
    eigenvalues: 
  0.937  0.937  0.938
    eigenvectors:
  0.099  0.568  0.333
  0.245  0.422  0.333
  0.656  0.011  0.333
    occupations:
  0.937  0.000  0.000
  0.000  0.937  0.000
  0.000  0.000  0.937
atomic mag. moment =    -0.000005
atom   10   Tr[ns(na)] (up, down, total) =   2.81107  2.81108  5.62215
   spin  1
    eigenvalues: 
  0.937  0.937  0.938
    eigenvectors:
  0.500  0.173  0.327
  0.500  0.173  0.327
  0.000  0.653  0.347
    occupations:
  0.937  0.000  0.000
  0.000  0.937  0.000
  0.000  0.000  0.937
   spin  2
    eigenvalues: 
  0.937  0.937  0.938
    eigenvectors:
  0.500  0.173  0.327
  0.500  0.173  0.327
  0.000  0.654  0.346
    occupations:
  0.937  0.000  0.000
  0.000  0.937  0.000
  0.000  0.000  0.937
atomic mag. moment =    -0.000002
atom   11   Tr[ns(na)] (up, down, total) =   2.81107  2.81108  5.62215
   spin  1
    eigenvalues: 
  0.937  0.937  0.938
    eigenvectors:
  0.500  0.173  0.327
  0.000  0.653  0.347
  0.500  0.173  0.327
    occupations:
  0.937  0.000  0.000
  0.000  0.937  0.000
  0.000  0.000  0.937
   spin  2
    eigenvalues: 
  0.937  0.937  0.938
    eigenvectors:
  0.500  0.173  0.327
  0.000  0.654  0.346
  0.500  0.173  0.327
    occupations:
  0.937  0.000  0.000
  0.000  0.937  0.000
  0.000  0.000  0.937
atomic mag. moment =    -0.000002
atom   12   Tr[ns(na)] (up, down, total) =   2.81107  2.81108  5.62215
   spin  1
    eigenvalues: 
  0.937  0.937  0.938
    eigenvectors:
  0.000  0.653  0.347
  0.500  0.173  0.327
  0.500  0.173  0.327
    occupations:
  0.937  0.000  0.000
  0.000  0.937  0.000
  0.000  0.000  0.937
   spin  2
    eigenvalues: 
  0.937  0.937  0.938
    eigenvectors:
  0.000  0.654  0.346
  0.500  0.173  0.327
  0.500  0.173  0.327
    occupations:
  0.937  0.000  0.000
  0.000  0.937  0.000
  0.000  0.000  0.937
atomic mag. moment =    -0.000002
atom   13   Tr[ns(na)] (up, down, total) =   2.81103  2.81103  5.62207
   spin  1
    eigenvalues: 
  0.937  0.937  0.938
    eigenvectors:
  0.000  0.649  0.351
  0.500  0.175  0.325
  0.500  0.175  0.325
    occupations:
  0.937  0.000  0.000
  0.000  0.937  0.000
  0.000  0.000  0.937
   spin  2
    eigenvalues: 
  0.937  0.937  0.938
    eigenvectors:
  0.000  0.650  0.350
  0.500  0.175  0.325
  0.500  0.175  0.325
    occupations:
  0.937  0.000  0.000
  0.000  0.937  0.000
  0.000  0.000  0.937
atomic mag. moment =    -0.000002
atom   14   Tr[ns(na)] (up, down, total) =   2.81103  2.81103  5.62207
   spin  1
    eigenvalues: 
  0.937  0.937  0.938
    eigenvectors:
  0.500  0.175  0.325
  0.000  0.649  0.351
  0.500  0.175  0.325
    occupations:
  0.937  0.000  0.000
  0.000  0.937  0.000
  0.000  0.000  0.937
   spin  2
    eigenvalues: 
  0.937  0.937  0.938
    eigenvectors:
  0.500  0.175  0.325
  0.000  0.650  0.350
  0.500  0.175  0.325
    occupations:
  0.937  0.000  0.000
  0.000  0.937  0.000
  0.000  0.000  0.937
atomic mag. moment =    -0.000002
atom   15   Tr[ns(na)] (up, down, total) =   2.81103  2.81103  5.62207
   spin  1
    eigenvalues: 
  0.937  0.937  0.938
    eigenvectors:
  0.500  0.175  0.325
  0.500  0.175  0.325
  0.000  0.649  0.351
    occupations:
  0.937  0.000  0.000
  0.000  0.937  0.000
  0.000  0.000  0.937
   spin  2
    eigenvalues: 
  0.937  0.937  0.938
    eigenvectors:
  0.500  0.175  0.325
  0.500  0.175  0.325
  0.000  0.650  0.350
    occupations:
  0.937  0.000  0.000
  0.000  0.937  0.000
  0.000  0.000  0.937
atomic mag. moment =    -0.000002
atom   16   Tr[ns(na)] (up, down, total) =   2.81187  2.81187  5.62374
   spin  1
    eigenvalues: 
  0.937  0.937  0.938
    eigenvectors:
  0.131  0.536  0.333
  0.205  0.461  0.333
  0.664  0.003  0.333
    occupations:
  0.937  0.000  0.000
  0.000  0.937  0.000
  0.000  0.000  0.937
   spin  2
    eigenvalues: 
  0.937  0.937  0.938
    eigenvectors:
  0.046  0.621  0.333
  0.331  0.336  0.333
  0.623  0.043  0.333
    occupations:
  0.937  0.000  0.000
  0.000  0.937  0.000
  0.000  0.000  0.937
atomic mag. moment =    -0.000005
N of occupied +U levels = 114.6259402
 --- exit write_ns ---
 --- in v_hubbard ---
Hubbard energy   -0.0620
 -------

     total cpu time spent up to now is      171.1 secs

     total energy              =    -942.07810683 Ry
     Harris-Foulkes estimate   =    -942.07812329 Ry
     estimated scf accuracy    <       0.00004902 Ry

     total magnetization       =     0.00 Bohr mag/cell
     absolute magnetization    =    12.29 Bohr mag/cell

     iteration #  3     ecut=    30.00 Ry     beta=0.30
     Davidson diagonalization with overlap
     ethr =  3.83E-08,  avg # of iterations =  2.0
 --- enter write_ns ---
 LDA+U parameters:
U( 1)     =  0.00000000
alpha( 1) =  0.00000000
U( 2)     =  0.00000000
alpha( 2) =  0.00000000
U( 3)     =  0.00000000
alpha( 3) = -0.15000000
U( 4)     =  0.00000000
alpha( 4) =  0.00000000
atom    1   Tr[ns(na)] (up, down, total) =   4.95240  3.75266  8.70506
   spin  1
    eigenvalues: 
  0.980  0.980  0.997  0.997  0.997
    eigenvectors:
  0.750  0.250  0.000  0.000  0.000
  0.000  0.000  0.000  0.607  0.393
  0.000  0.000  0.500  0.196  0.304
  0.250  0.750  0.000  0.000  0.000
  0.000  0.000  0.500  0.196  0.304
    occupations:
  0.980  0.000  0.000  0.000  0.000
  0.000  0.997  0.000  0.000  0.000
  0.000  0.000  0.997  0.000  0.000
  0.000  0.000  0.000  0.980  0.000
  0.000  0.000  0.000  0.000  0.997
   spin  2
    eigenvalues: 
  0.383  0.384  0.995  0.995  0.995
    eigenvectors:
  0.250  0.750  0.000  0.000  0.000
  0.000  0.000  0.000  0.660  0.340
  0.000  0.000  0.500  0.170  0.330
  0.750  0.250  0.000  0.000  0.000
  0.000  0.000  0.500  0.170  0.330
    occupations:
  0.384 -0.001  0.001  0.000 -0.001
 -0.001  0.995  0.000 -0.001  0.000
  0.001  0.000  0.995 -0.001  0.000
  0.000 -0.001 -0.001  0.383  0.000
 -0.001  0.000  0.000  0.000  0.995
atomic mag. moment =     1.199748
atom    2   Tr[ns(na)] (up, down, total) =   4.95240  3.75266  8.70506
   spin  1
    eigenvalues: 
  0.980  0.980  0.997  0.997  0.997
    eigenvectors:
  0.750  0.250  0.000  0.000  0.000
  0.000  0.000  0.500  0.196  0.304
  0.000  0.000  0.000  0.607  0.393
  0.250  0.750  0.000  0.000  0.000
  0.000  0.000  0.500  0.196  0.304
    occupations:
  0.980  0.000  0.000  0.000  0.000
  0.000  0.997  0.000  0.000  0.000
  0.000  0.000  0.997  0.000  0.000
  0.000  0.000  0.000  0.980  0.000
  0.000  0.000  0.000  0.000  0.997
   spin  2
    eigenvalues: 
  0.383  0.384  0.995  0.995  0.995
    eigenvectors:
  0.250  0.750  0.000  0.000  0.000
  0.000  0.000  0.500  0.170  0.330
  0.000  0.000  0.000  0.660  0.340
  0.750  0.250  0.000  0.000  0.000
  0.000  0.000  0.500  0.170  0.330
    occupations:
  0.384 -0.001  0.001  0.000 -0.001
 -0.001  0.995  0.000 -0.001  0.000
  0.001  0.000  0.995 -0.001  0.000
  0.000 -0.001 -0.001  0.383  0.000
 -0.001  0.000  0.000  0.000  0.995
atomic mag. moment =     1.199748
atom    3   Tr[ns(na)] (up, down, total) =   4.95240  3.75266  8.70506
   spin  1
    eigenvalues: 
  0.980  0.980  0.997  0.997  0.997
    eigenvectors:
  0.000  1.000  0.000  0.000  0.000
  0.000  0.000  0.500  0.196  0.304
  0.000  0.000  0.500  0.196  0.304
  1.000  0.000  0.000  0.000  0.000
  0.000  0.000  0.000  0.607  0.393
    occupations:
  0.980  0.000  0.000  0.000  0.000
  0.000  0.997  0.000  0.000  0.000
  0.000  0.000  0.997  0.000  0.000
  0.000  0.000  0.000  0.980  0.000
  0.000  0.000  0.000  0.000  0.997
   spin  2
    eigenvalues: 
  0.383  0.384  0.995  0.995  0.995
    eigenvectors:
  1.000  0.000  0.000  0.000  0.000
  0.000  0.000  0.500  0.170  0.330
  0.000  0.000  0.500  0.170  0.330
  0.000  1.000  0.000  0.000  0.000
  0.000  0.000  0.000  0.660  0.340
    occupations:
  0.383 -0.001  0.001  0.000 -0.001
 -0.001  0.995  0.000 -0.001  0.000
  0.001  0.000  0.995 -0.001  0.000
  0.000 -0.001 -0.001  0.384  0.000
 -0.001  0.000  0.000  0.000  0.995
atomic mag. moment =     1.199748
atom    4   Tr[ns(na)] (up, down, total) =   4.95241  3.75363  8.70603
   spin  1
    eigenvalues: 
  0.980  0.980  0.997  0.997  0.997
    eigenvectors:
  0.029  0.971  0.000  0.000  0.000
  0.000  0.000  0.043  0.624  0.333
  0.000  0.000  0.620  0.047  0.333
  0.971  0.029  0.000  0.000  0.000
  0.000  0.000  0.337  0.329  0.333
    occupations:
  0.980  0.000  0.000  0.000  0.000
  0.000  0.997  0.000  0.000  0.000
  0.000  0.000  0.997  0.000  0.000
  0.000  0.000  0.000  0.980  0.000
  0.000  0.000  0.000  0.000  0.997
   spin  2
    eigenvalues: 
  0.384  0.384  0.995  0.995  0.995
    eigenvectors:
  0.029  0.971  0.000  0.000  0.000
  0.000  0.000  0.057  0.610  0.333
  0.000  0.000  0.633  0.034  0.333
  0.971  0.029  0.000  0.000  0.000
  0.000  0.000  0.310  0.356  0.333
    occupations:
  0.384 -0.001  0.001  0.000 -0.001
 -0.001  0.995  0.000 -0.001  0.000
  0.001  0.000  0.995 -0.001  0.000
  0.000 -0.001 -0.001  0.384  0.000
 -0.001  0.000  0.000  0.000  0.995
atomic mag. moment =     1.198783
atom    5   Tr[ns(na)] (up, down, total) =   3.75364  4.95241  8.70605
   spin  1
    eigenvalues: 
  0.384  0.384  0.995  0.995  0.995
    eigenvectors:
  0.007  0.993  0.000  0.000  0.000
  0.000  0.000  0.058  0.608  0.333
  0.000  0.000  0.634  0.033  0.333
  0.993  0.007  0.000  0.000  0.000
  0.000  0.000  0.308  0.359  0.333
    occupations:
  0.384 -0.001  0.001  0.000 -0.001
 -0.001  0.995  0.000 -0.001  0.000
  0.001  0.000  0.995 -0.001  0.000
  0.000 -0.001 -0.001  0.384  0.000
 -0.001  0.000  0.000  0.000  0.995
   spin  2
    eigenvalues: 
  0.980  0.980  0.997  0.997  0.997
    eigenvectors:
  0.007  0.993  0.000  0.000  0.000
  0.000  0.000  0.062  0.605  0.333
  0.000  0.000  0.637  0.030  0.333
  0.993  0.007  0.000  0.000  0.000
  0.000  0.000  0.302  0.365  0.333
    occupations:
  0.980  0.000  0.000  0.000  0.000
  0.000  0.997  0.000  0.000  0.000
  0.000  0.000  0.997  0.000  0.000
  0.000  0.000  0.000  0.980  0.000
  0.000  0.000  0.000  0.000  0.997
atomic mag. moment =    -1.198772
atom    6   Tr[ns(na)] (up, down, total) =   3.75264  4.95240  8.70504
   spin  1
    eigenvalues: 
  0.383  0.384  0.995  0.995  0.995
    eigenvectors:
  1.000  0.000  0.000  0.000  0.000
  0.000  0.000  0.500  0.170  0.330
  0.000  0.000  0.500  0.170  0.330
  0.000  1.000  0.000  0.000  0.000
  0.000  0.000  0.000  0.661  0.339
    occupations:
  0.383 -0.001  0.001  0.000 -0.001
 -0.001  0.995  0.000 -0.001  0.000
  0.001  0.000  0.995 -0.001  0.000
  0.000 -0.001 -0.001  0.384  0.000
 -0.001  0.000  0.000  0.000  0.995
   spin  2
    eigenvalues: 
  0.980  0.980  0.997  0.997  0.997
    eigenvectors:
  0.000  1.000  0.000  0.000  0.000
  0.000  0.000  0.500  0.197  0.303
  0.000  0.000  0.500  0.197  0.303
  1.000  0.000  0.000  0.000  0.000
  0.000  0.000  0.000  0.606  0.394
    occupations:
  0.980  0.000  0.000  0.000  0.000
  0.000  0.997  0.000  0.000  0.000
  0.000  0.000  0.997  0.000  0.000
  0.000  0.000  0.000  0.980  0.000
  0.000  0.000  0.000  0.000  0.997
atomic mag. moment =    -1.199760
atom    7   Tr[ns(na)] (up, down, total) =   3.75264  4.95240  8.70504
   spin  1
    eigenvalues: 
  0.383  0.384  0.995  0.995  0.995
    eigenvectors:
  0.250  0.750  0.000  0.000  0.000
  0.000  0.000  0.500  0.170  0.330
  0.000  0.000  0.000  0.661  0.339
  0.750  0.250  0.000  0.000  0.000
  0.000  0.000  0.500  0.170  0.330
    occupations:
  0.384 -0.001  0.001  0.000 -0.001
 -0.001  0.995  0.000 -0.001  0.000
  0.001  0.000  0.995 -0.001  0.000
  0.000 -0.001 -0.001  0.383  0.000
 -0.001  0.000  0.000  0.000  0.995
   spin  2
    eigenvalues: 
  0.980  0.980  0.997  0.997  0.997
    eigenvectors:
  0.750  0.250  0.000  0.000  0.000
  0.000  0.000  0.500  0.197  0.303
  0.000  0.000  0.000  0.606  0.394
  0.250  0.750  0.000  0.000  0.000
  0.000  0.000  0.500  0.197  0.303
    occupations:
  0.980  0.000  0.000  0.000  0.000
  0.000  0.997  0.000  0.000  0.000
  0.000  0.000  0.997  0.000  0.000
  0.000  0.000  0.000  0.980  0.000
  0.000  0.000  0.000  0.000  0.997
atomic mag. moment =    -1.199760
atom    8   Tr[ns(na)] (up, down, total) =   3.75264  4.95240  8.70504
   spin  1
    eigenvalues: 
  0.383  0.384  0.995  0.995  0.995
    eigenvectors:
  0.250  0.750  0.000  0.000  0.000
  0.000  0.000  0.000  0.661  0.339
  0.000  0.000  0.500  0.170  0.330
  0.750  0.250  0.000  0.000  0.000
  0.000  0.000  0.500  0.170  0.330
    occupations:
  0.384 -0.001  0.001  0.000 -0.001
 -0.001  0.995  0.000 -0.001  0.000
  0.001  0.000  0.995 -0.001  0.000
  0.000 -0.001 -0.001  0.383  0.000
 -0.001  0.000  0.000  0.000  0.995
   spin  2
    eigenvalues: 
  0.980  0.980  0.997  0.997  0.997
    eigenvectors:
  0.750  0.250  0.000  0.000  0.000
  0.000  0.000  0.000  0.606  0.394
  0.000  0.000  0.500  0.197  0.303
  0.250  0.750  0.000  0.000  0.000
  0.000  0.000  0.500  0.197  0.303
    occupations:
  0.980  0.000  0.000  0.000  0.000
  0.000  0.997  0.000  0.000  0.000
  0.000  0.000  0.997  0.000  0.000
  0.000  0.000  0.000  0.980  0.000
  0.000  0.000  0.000  0.000  0.997
atomic mag. moment =    -1.199760
atom    9   Tr[ns(na)] (up, down, total) =   2.81381  2.81380  5.62761
   spin  1
    eigenvalues: 
  0.937  0.937  0.939
    eigenvectors:
  0.103  0.564  0.333
  0.240  0.427  0.333
  0.657  0.009  0.333
    occupations:
  0.938  0.000  0.000
  0.000  0.938  0.000
  0.000  0.000  0.938
   spin  2
    eigenvalues: 
  0.937  0.937  0.939
    eigenvectors:
  0.076  0.590  0.333
  0.278  0.389  0.333
  0.646  0.021  0.333
    occupations:
  0.938  0.000  0.000
  0.000  0.938  0.000
  0.000  0.000  0.938
atomic mag. moment =     0.000003
atom   10   Tr[ns(na)] (up, down, total) =   2.81111  2.81111  5.62222
   spin  1
    eigenvalues: 
  0.937  0.937  0.938
    eigenvectors:
  0.500  0.165  0.335
  0.500  0.165  0.335
  0.000  0.670  0.330
    occupations:
  0.937  0.000  0.000
  0.000  0.937  0.000
  0.000  0.000  0.937
   spin  2
    eigenvalues: 
  0.937  0.937  0.938
    eigenvectors:
  0.500  0.165  0.335
  0.500  0.165  0.335
  0.000  0.669  0.331
    occupations:
  0.937  0.000  0.000
  0.000  0.937  0.000
  0.000  0.000  0.937
atomic mag. moment =     0.000001
atom   11   Tr[ns(na)] (up, down, total) =   2.81111  2.81111  5.62222
   spin  1
    eigenvalues: 
  0.937  0.937  0.938
    eigenvectors:
  0.500  0.165  0.335
  0.000  0.670  0.330
  0.500  0.165  0.335
    occupations:
  0.937  0.000  0.000
  0.000  0.937  0.000
  0.000  0.000  0.937
   spin  2
    eigenvalues: 
  0.937  0.937  0.938
    eigenvectors:
  0.500  0.165  0.335
  0.000  0.669  0.331
  0.500  0.165  0.335
    occupations:
  0.937  0.000  0.000
  0.000  0.937  0.000
  0.000  0.000  0.937
atomic mag. moment =     0.000001
atom   12   Tr[ns(na)] (up, down, total) =   2.81111  2.81111  5.62222
   spin  1
    eigenvalues: 
  0.937  0.937  0.938
    eigenvectors:
  0.000  0.670  0.330
  0.500  0.165  0.335
  0.500  0.165  0.335
    occupations:
  0.937  0.000  0.000
  0.000  0.937  0.000
  0.000  0.000  0.937
   spin  2
    eigenvalues: 
  0.937  0.937  0.938
    eigenvectors:
  0.000  0.669  0.331
  0.500  0.165  0.335
  0.500  0.165  0.335
    occupations:
  0.937  0.000  0.000
  0.000  0.937  0.000
  0.000  0.000  0.937
atomic mag. moment =     0.000001
atom   13   Tr[ns(na)] (up, down, total) =   2.81112  2.81112  5.62224
   spin  1
    eigenvalues: 
  0.937  0.937  0.938
    eigenvectors:
  0.659  0.000  0.341
  0.171  0.500  0.329
  0.171  0.500  0.329
    occupations:
  0.937  0.000  0.000
  0.000  0.937  0.000
  0.000  0.000  0.937
   spin  2
    eigenvalues: 
  0.937  0.937  0.938
    eigenvectors:
  0.658  0.000  0.342
  0.171  0.500  0.329
  0.171  0.500  0.329
    occupations:
  0.937  0.000  0.000
  0.000  0.937  0.000
  0.000  0.000  0.937
atomic mag. moment =     0.000001
atom   14   Tr[ns(na)] (up, down, total) =   2.81112  2.81112  5.62224
   spin  1
    eigenvalues: 
  0.937  0.937  0.938
    eigenvectors:
  0.171  0.500  0.329
  0.659  0.000  0.341
  0.171  0.500  0.329
    occupations:
  0.937  0.000  0.000
  0.000  0.937  0.000
  0.000  0.000  0.937
   spin  2
    eigenvalues: 
  0.937  0.937  0.938
    eigenvectors:
  0.171  0.500  0.329
  0.658  0.000  0.342
  0.171  0.500  0.329
    occupations:
  0.937  0.000  0.000
  0.000  0.937  0.000
  0.000  0.000  0.937
atomic mag. moment =     0.000001
atom   15   Tr[ns(na)] (up, down, total) =   2.81112  2.81112  5.62224
   spin  1
    eigenvalues: 
  0.937  0.937  0.938
    eigenvectors:
  0.171  0.500  0.329
  0.171  0.500  0.329
  0.659  0.000  0.341
    occupations:
  0.937  0.000  0.000
  0.000  0.937  0.000
  0.000  0.000  0.937
   spin  2
    eigenvalues: 
  0.937  0.937  0.938
    eigenvectors:
  0.171  0.500  0.329
  0.171  0.500  0.329
  0.658  0.000  0.342
    occupations:
  0.937  0.000  0.000
  0.000  0.937  0.000
  0.000  0.000  0.937
atomic mag. moment =     0.000001
atom   16   Tr[ns(na)] (up, down, total) =   2.81103  2.81103  5.62206
   spin  1
    eigenvalues: 
  0.937  0.937  0.938
    eigenvectors:
  0.092  0.574  0.333
  0.254  0.412  0.333
  0.653  0.013  0.333
    occupations:
  0.937  0.000  0.000
  0.000  0.937  0.000
  0.000  0.000  0.937
   spin  2
    eigenvalues: 
  0.937  0.937  0.938
    eigenvectors:
  0.096  0.570  0.333
  0.249  0.418  0.333
  0.655  0.012  0.333
    occupations:
  0.937  0.000  0.000
  0.000  0.937  0.000
  0.000  0.000  0.937
atomic mag. moment =     0.000003
N of occupied +U levels = 114.6254413
 --- exit write_ns ---
 --- in v_hubbard ---
Hubbard energy   -0.0620
 -------

     total cpu time spent up to now is      214.1 secs

     total energy              =    -942.07811435 Ry
     Harris-Foulkes estimate   =    -942.07811450 Ry
     estimated scf accuracy    <       0.00000088 Ry

     total magnetization       =     0.00 Bohr mag/cell
     absolute magnetization    =    12.29 Bohr mag/cell

     iteration #  4     ecut=    30.00 Ry     beta=0.30
     Davidson diagonalization with overlap
     ethr =  6.84E-10,  avg # of iterations =  2.0
 --- enter write_ns ---
 LDA+U parameters:
U( 1)     =  0.00000000
alpha( 1) =  0.00000000
U( 2)     =  0.00000000
alpha( 2) =  0.00000000
U( 3)     =  0.00000000
alpha( 3) = -0.15000000
U( 4)     =  0.00000000
alpha( 4) =  0.00000000
atom    1   Tr[ns(na)] (up, down, total) =   4.95241  3.75257  8.70498
   spin  1
    eigenvalues: 
  0.980  0.980  0.997  0.997  0.997
    eigenvectors:
  0.750  0.250  0.000  0.000  0.000
  0.000  0.000  0.000  0.611  0.389
  0.000  0.000  0.500  0.195  0.305
  0.250  0.750  0.000  0.000  0.000
  0.000  0.000  0.500  0.195  0.305
    occupations:
  0.980  0.000  0.000  0.000  0.000
  0.000  0.997  0.000  0.000  0.000
  0.000  0.000  0.997  0.000  0.000
  0.000  0.000  0.000  0.980  0.000
  0.000  0.000  0.000  0.000  0.997
   spin  2
    eigenvalues: 
  0.383  0.384  0.995  0.995  0.995
    eigenvectors:
  0.250  0.750  0.000  0.000  0.000
  0.000  0.000  0.000  0.663  0.337
  0.000  0.000  0.500  0.168  0.332
  0.750  0.250  0.000  0.000  0.000
  0.000  0.000  0.500  0.168  0.332
    occupations:
  0.384 -0.001  0.001  0.000 -0.001
 -0.001  0.995  0.000 -0.001  0.000
  0.001  0.000  0.995 -0.001  0.000
  0.000 -0.001 -0.001  0.383  0.000
 -0.001  0.000  0.000  0.000  0.995
atomic mag. moment =     1.199837
atom    2   Tr[ns(na)] (up, down, total) =   4.95241  3.75257  8.70498
   spin  1
    eigenvalues: 
  0.980  0.980  0.997  0.997  0.997
    eigenvectors:
  0.750  0.250  0.000  0.000  0.000
  0.000  0.000  0.500  0.195  0.305
  0.000  0.000  0.000  0.611  0.389
  0.250  0.750  0.000  0.000  0.000
  0.000  0.000  0.500  0.195  0.305
    occupations:
  0.980  0.000  0.000  0.000  0.000
  0.000  0.997  0.000  0.000  0.000
  0.000  0.000  0.997  0.000  0.000
  0.000  0.000  0.000  0.980  0.000
  0.000  0.000  0.000  0.000  0.997
   spin  2
    eigenvalues: 
  0.383  0.384  0.995  0.995  0.995
    eigenvectors:
  0.250  0.750  0.000  0.000  0.000
  0.000  0.000  0.500  0.168  0.332
  0.000  0.000  0.000  0.663  0.337
  0.750  0.250  0.000  0.000  0.000
  0.000  0.000  0.500  0.168  0.332
    occupations:
  0.384 -0.001  0.001  0.000 -0.001
 -0.001  0.995  0.000 -0.001  0.000
  0.001  0.000  0.995 -0.001  0.000
  0.000 -0.001 -0.001  0.383  0.000
 -0.001  0.000  0.000  0.000  0.995
atomic mag. moment =     1.199837
atom    3   Tr[ns(na)] (up, down, total) =   4.95241  3.75257  8.70498
   spin  1
    eigenvalues: 
  0.980  0.980  0.997  0.997  0.997
    eigenvectors:
  0.000  1.000  0.000  0.000  0.000
  0.000  0.000  0.500  0.195  0.305
  0.000  0.000  0.500  0.195  0.305
  1.000  0.000  0.000  0.000  0.000
  0.000  0.000  0.000  0.611  0.389
    occupations:
  0.980  0.000  0.000  0.000  0.000
  0.000  0.997  0.000  0.000  0.000
  0.000  0.000  0.997  0.000  0.000
  0.000  0.000  0.000  0.980  0.000
  0.000  0.000  0.000  0.000  0.997
   spin  2
    eigenvalues: 
  0.383  0.384  0.995  0.995  0.995
    eigenvectors:
  1.000  0.000  0.000  0.000  0.000
  0.000  0.000  0.500  0.168  0.332
  0.000  0.000  0.500  0.168  0.332
  0.000  1.000  0.000  0.000  0.000
  0.000  0.000  0.000  0.663  0.337
    occupations:
  0.383 -0.001  0.001  0.000 -0.001
 -0.001  0.995  0.000 -0.001  0.000
  0.001  0.000  0.995 -0.001  0.000
  0.000 -0.001 -0.001  0.384  0.000
 -0.001  0.000  0.000  0.000  0.995
atomic mag. moment =     1.199837
atom    4   Tr[ns(na)] (up, down, total) =   4.95241  3.75364  8.70605
   spin  1
    eigenvalues: 
  0.980  0.980  0.997  0.997  0.997
    eigenvectors:
  0.024  0.976  0.000  0.000  0.000
  0.000  0.000  0.048  0.619  0.333
  0.000  0.000  0.625  0.042  0.333
  0.976  0.024  0.000  0.000  0.000
  0.000  0.000  0.327  0.340  0.333
    occupations:
  0.980  0.000  0.000  0.000  0.000
  0.000  0.997  0.000  0.000  0.000
  0.000  0.000  0.997  0.000  0.000
  0.000  0.000  0.000  0.980  0.000
  0.000  0.000  0.000  0.000  0.997
   spin  2
    eigenvalues: 
  0.384  0.384  0.995  0.995  0.995
    eigenvectors:
  0.000  1.000  0.000  0.000  0.000
  0.000  0.000  0.057  0.610  0.333
  0.000  0.000  0.633  0.034  0.333
  1.000  0.000  0.000  0.000  0.000
  0.000  0.000  0.311  0.356  0.333
    occupations:
  0.384 -0.001  0.001  0.000 -0.001
 -0.001  0.995  0.000 -0.001  0.000
  0.001  0.000  0.995 -0.001  0.000
  0.000 -0.001 -0.001  0.384  0.000
 -0.001  0.000  0.000  0.000  0.995
atomic mag. moment =     1.198772
atom    5   Tr[ns(na)] (up, down, total) =   3.75362  4.95241  8.70603
   spin  1
    eigenvalues: 
  0.384  0.384  0.995  0.995  0.995
    eigenvectors:
  0.051  0.949  0.000  0.000  0.000
  0.000  0.000  0.040  0.627  0.333
  0.000  0.000  0.617  0.050  0.333
  0.949  0.051  0.000  0.000  0.000
  0.000  0.000  0.343  0.323  0.333
    occupations:
  0.384 -0.001  0.001  0.000 -0.001
 -0.001  0.995  0.000 -0.001  0.000
  0.001  0.000  0.995 -0.001  0.000
  0.000 -0.001 -0.001  0.384  0.000
 -0.001  0.000  0.000  0.000  0.995
   spin  2
    eigenvalues: 
  0.980  0.980  0.997  0.997  0.997
    eigenvectors:
  0.001  0.999  0.000  0.000  0.000
  0.000  0.000  0.045  0.622  0.333
  0.000  0.000  0.622  0.044  0.333
  0.999  0.001  0.000  0.000  0.000
  0.000  0.000  0.332  0.334  0.333
    occupations:
  0.980  0.000  0.000  0.000  0.000
  0.000  0.997  0.000  0.000  0.000
  0.000  0.000  0.997  0.000  0.000
  0.000  0.000  0.000  0.980  0.000
  0.000  0.000  0.000  0.000  0.997
atomic mag. moment =    -1.198784
atom    6   Tr[ns(na)] (up, down, total) =   3.75259  4.95241  8.70500
   spin  1
    eigenvalues: 
  0.383  0.384  0.995  0.995  0.995
    eigenvectors:
  1.000  0.000  0.000  0.000  0.000
  0.000  0.000  0.500  0.169  0.331
  0.000  0.000  0.500  0.169  0.331
  0.000  1.000  0.000  0.000  0.000
  0.000  0.000  0.000  0.662  0.338
    occupations:
  0.383 -0.001  0.001  0.000 -0.001
 -0.001  0.995  0.000 -0.001  0.000
  0.001  0.000  0.995 -0.001  0.000
  0.000 -0.001 -0.001  0.384  0.000
 -0.001  0.000  0.000  0.000  0.995
   spin  2
    eigenvalues: 
  0.980  0.980  0.997  0.997  0.997
    eigenvectors:
  0.000  1.000  0.000  0.000  0.000
  0.000  0.000  0.500  0.194  0.306
  0.000  0.000  0.500  0.194  0.306
  1.000  0.000  0.000  0.000  0.000
  0.000  0.000  0.000  0.612  0.388
    occupations:
  0.980  0.000  0.000  0.000  0.000
  0.000  0.997  0.000  0.000  0.000
  0.000  0.000  0.997  0.000  0.000
  0.000  0.000  0.000  0.980  0.000
  0.000  0.000  0.000  0.000  0.997
atomic mag. moment =    -1.199825
atom    7   Tr[ns(na)] (up, down, total) =   3.75259  4.95241  8.70500
   spin  1
    eigenvalues: 
  0.383  0.384  0.995  0.995  0.995
    eigenvectors:
  0.250  0.750  0.000  0.000  0.000
  0.000  0.000  0.500  0.169  0.331
  0.000  0.000  0.000  0.662  0.338
  0.750  0.250  0.000  0.000  0.000
  0.000  0.000  0.500  0.169  0.331
    occupations:
  0.384 -0.001  0.001  0.000 -0.001
 -0.001  0.995  0.000 -0.001  0.000
  0.001  0.000  0.995 -0.001  0.000
  0.000 -0.001 -0.001  0.383  0.000
 -0.001  0.000  0.000  0.000  0.995
   spin  2
    eigenvalues: 
  0.980  0.980  0.997  0.997  0.997
    eigenvectors:
  0.750  0.250  0.000  0.000  0.000
  0.000  0.000  0.500  0.194  0.306
  0.000  0.000  0.000  0.612  0.388
  0.250  0.750  0.000  0.000  0.000
  0.000  0.000  0.500  0.194  0.306
    occupations:
  0.980  0.000  0.000  0.000  0.000
  0.000  0.997  0.000  0.000  0.000
  0.000  0.000  0.997  0.000  0.000
  0.000  0.000  0.000  0.980  0.000
  0.000  0.000  0.000  0.000  0.997
atomic mag. moment =    -1.199825
atom    8   Tr[ns(na)] (up, down, total) =   3.75259  4.95241  8.70500
   spin  1
    eigenvalues: 
  0.383  0.384  0.995  0.995  0.995
    eigenvectors:
  0.250  0.750  0.000  0.000  0.000
  0.000  0.000  0.000  0.662  0.338
  0.000  0.000  0.500  0.169  0.331
  0.750  0.250  0.000  0.000  0.000
  0.000  0.000  0.500  0.169  0.331
    occupations:
  0.384 -0.001  0.001  0.000 -0.001
 -0.001  0.995  0.000 -0.001  0.000
  0.001  0.000  0.995 -0.001  0.000
  0.000 -0.001 -0.001  0.383  0.000
 -0.001  0.000  0.000  0.000  0.995
   spin  2
    eigenvalues: 
  0.980  0.980  0.997  0.997  0.997
    eigenvectors:
  0.750  0.250  0.000  0.000  0.000
  0.000  0.000  0.000  0.612  0.388
  0.000  0.000  0.500  0.194  0.306
  0.250  0.750  0.000  0.000  0.000
  0.000  0.000  0.500  0.194  0.306
    occupations:
  0.980  0.000  0.000  0.000  0.000
  0.000  0.997  0.000  0.000  0.000
  0.000  0.000  0.997  0.000  0.000
  0.000  0.000  0.000  0.980  0.000
  0.000  0.000  0.000  0.000  0.997
atomic mag. moment =    -1.199825
atom    9   Tr[ns(na)] (up, down, total) =   2.81378  2.81378  5.62757
   spin  1
    eigenvalues: 
  0.937  0.937  0.939
    eigenvectors:
  0.107  0.560  0.333
  0.235  0.431  0.333
  0.658  0.008  0.333
    occupations:
  0.938  0.000  0.000
  0.000  0.938  0.000
  0.000  0.000  0.938
   spin  2
    eigenvalues: 
  0.937  0.937  0.939
    eigenvectors:
  0.131  0.535  0.333
  0.205  0.462  0.333
  0.664  0.003  0.333
    occupations:
  0.938  0.000  0.000
  0.000  0.938  0.000
  0.000  0.000  0.938
atomic mag. moment =    -0.000003
atom   10   Tr[ns(na)] (up, down, total) =   2.81112  2.81112  5.62223
   spin  1
    eigenvalues: 
  0.937  0.937  0.938
    eigenvectors:
  0.500  0.165  0.335
  0.500  0.165  0.335
  0.000  0.669  0.331
    occupations:
  0.937  0.000  0.000
  0.000  0.937  0.000
  0.000  0.000  0.937
   spin  2
    eigenvalues: 
  0.937  0.937  0.938
    eigenvectors:
  0.500  0.165  0.335
  0.500  0.165  0.335
  0.000  0.670  0.330
    occupations:
  0.937  0.000  0.000
  0.000  0.937  0.000
  0.000  0.000  0.937
atomic mag. moment =    -0.000001
atom   11   Tr[ns(na)] (up, down, total) =   2.81112  2.81112  5.62223
   spin  1
    eigenvalues: 
  0.937  0.937  0.938
    eigenvectors:
  0.500  0.165  0.335
  0.000  0.669  0.331
  0.500  0.165  0.335
    occupations:
  0.937  0.000  0.000
  0.000  0.937  0.000
  0.000  0.000  0.937
   spin  2
    eigenvalues: 
[...]
    10.6545  10.6559  10.8639  10.8653  10.9572  10.9589  11.2382  11.2400
    11.2468  11.2489  11.2918  11.2936  11.3249  11.3264  11.4255  11.4288
    13.0341  13.0349  13.0408  13.0414  13.0493  13.0494  13.0594  13.0598
    16.4823  16.4855  19.6532  19.6532  19.7124

     occupation numbers 
     0.0469   0.0469   0.0469   0.0469   0.0469   0.0469   0.0469   0.0469
     0.0469   0.0469   0.0469   0.0469   0.0469   0.0469   0.0469   0.0469
     0.0469   0.0469   0.0469   0.0469   0.0469   0.0469   0.0469   0.0469
     0.0469   0.0469   0.0469   0.0469   0.0469   0.0469   0.0469   0.0469
     0.0469   0.0469   0.0469   0.0469   0.0469   0.0469   0.0469   0.0469
     0.0469   0.0469   0.0469   0.0469   0.0469   0.0469   0.0469   0.0469
     0.0469   0.0469   0.0469   0.0469   0.0469   0.0469   0.0469   0.0469
     0.0469   0.0469   0.0469   0.0469   0.0469   0.0469   0.0469   0.0469
     0.0000   0.0000   0.0000   0.0000   0.0000   0.0000   0.0000   0.0000
     0.0000   0.0000   0.0000   0.0000   0.0000

          k = 0.0000 0.5000 0.0000 (  2706 PWs)   bands (ev):

    -7.8463  -6.8050  -6.7539  -6.7539  -6.7533  -6.7274  -6.5670  -6.5509
     4.4617   4.4645   4.4744   4.4893   5.2134   5.5015   5.5015   6.5019
     6.5194   6.5387   6.5666   6.5848   6.5979   6.6165   6.6672   7.0472
     7.0476   7.1442   7.1630   7.4488   7.9564   7.9615   8.6389   8.6480
     8.9507   9.5288   9.6220   9.6221   9.8075   9.9733  10.0503  10.0508
    10.0895  10.1059  10.1790  10.2729  10.2729  10.3908  10.4040  10.5381
    10.5399  10.6073  10.6078  10.6527  10.9061  11.0025  11.0035  11.0443
    11.0506  11.1640  11.2367  11.2884  11.2894  11.3413  11.3426  11.3736
    12.8731  13.0341  13.0345  13.0378  13.5186  13.5619  13.6393  13.6401
    15.2144  18.5668  18.5681  18.5682  18.5715

     occupation numbers 
     0.0938   0.0938   0.0938   0.0938   0.0938   0.0938   0.0938   0.0938
     0.0938   0.0938   0.0938   0.0938   0.0938   0.0938   0.0938   0.0938
     0.0938   0.0938   0.0938   0.0938   0.0938   0.0938   0.0938   0.0938
     0.0938   0.0938   0.0938   0.0938   0.0938   0.0938   0.0938   0.0938
     0.0938   0.0938   0.0938   0.0938   0.0938   0.0938   0.0938   0.0938
     0.0938   0.0938   0.0938   0.0938   0.0938   0.0938   0.0938   0.0938
     0.0938   0.0938   0.0938   0.0938   0.0938   0.0938   0.0938   0.0938
     0.0938   0.0937   0.0937   0.0937   0.0937   0.0937   0.0937   0.0937
     0.0000   0.0000   0.0000   0.0000   0.0000   0.0000   0.0000   0.0000
     0.0000   0.0000   0.0000   0.0000   0.0000

          k = 0.7500-0.2500 0.7500 (  2734 PWs)   bands (ev):

    -7.4972  -7.1664  -6.9613  -6.7711  -6.7582  -6.5910  -6.5557  -6.5384
     4.9363   4.9443   4.9663   5.2868   5.4052   5.4795   5.5028   6.1516
     6.1949   6.2211   6.2518   6.5668   6.5850   6.7272   6.7366   6.8438
     6.8763   6.9088   6.9801   7.3430   7.3622   7.7075   7.7455   8.0019
     9.4504   9.6454   9.8161   9.8884   9.9496   9.9622  10.0304  10.1321
    10.1346  10.1621  10.2043  10.2816  10.3089  10.3156  10.4712  10.5049
    10.7252  10.7312  10.7356  10.7467  10.8714  10.9002  11.0339  11.0717
    11.1613  11.1890  11.2193  11.2512  11.3255  11.3296  11.3476  11.4040
    12.7339  12.7779  12.8295  12.9260  13.2304  13.2534  13.3592  13.4280
    16.6953  17.6032  18.6714  19.3635  19.3652

     occupation numbers 
     0.1875   0.1875   0.1875   0.1875   0.1875   0.1875   0.1875   0.1875
     0.1875   0.1875   0.1875   0.1875   0.1875   0.1875   0.1875   0.1875
     0.1875   0.1875   0.1875   0.1875   0.1875   0.1875   0.1875   0.1875
     0.1875   0.1875   0.1875   0.1875   0.1875   0.1875   0.1875   0.1875
     0.1875   0.1875   0.1875   0.1875   0.1875   0.1875   0.1875   0.1875
     0.1875   0.1875   0.1875   0.1875   0.1875   0.1875   0.1875   0.1875
     0.1875   0.1875   0.1875   0.1875   0.1875   0.1875   0.1875   0.1875
     0.1875   0.1875   0.1875   0.1875   0.1875   0.1875   0.1875   0.1875
     0.0000   0.0000   0.0000   0.0000   0.0000   0.0000   0.0000   0.0000
     0.0000   0.0000   0.0000   0.0000   0.0000

          k = 0.5000 0.0000 0.5000 (  2742 PWs)   bands (ev):

    -7.6349  -7.0172  -7.0051  -6.7202  -6.7085  -6.6023  -6.5897  -6.5361
     4.7467   4.7582   5.0448   5.0513   5.2369   5.2512   5.6818   5.9464
     6.2650   6.2919   6.5122   6.7036   6.7288   6.7351   6.8914   6.9075
     6.9168   7.1354   7.1544   7.1744   7.4287   7.4444   7.6188   8.1115
     9.6513   9.6530   9.7841   9.8433   9.8990   9.9004  10.0381  10.1056
    10.1267  10.2205  10.2225  10.2238  10.2239  10.3551  10.3559  10.5095
    10.7120  10.7441  10.7450  10.8208  10.8975  11.0889  11.0903  11.1086
    11.2025  11.2038  11.2262  11.2374  11.2718  11.3390  11.3988  11.3999
    13.0373  13.0416  13.0523  13.0528  13.1090  13.1465  13.1470  13.2786
    16.0086  18.0619  18.0628  19.3780  19.3791

     occupation numbers 
     0.0938   0.0938   0.0938   0.0938   0.0938   0.0938   0.0938   0.0938
     0.0938   0.0938   0.0938   0.0938   0.0938   0.0938   0.0938   0.0938
     0.0938   0.0938   0.0938   0.0938   0.0938   0.0938   0.0938   0.0938
     0.0938   0.0938   0.0938   0.0938   0.0938   0.0938   0.0938   0.0938
     0.0938   0.0938   0.0938   0.0938   0.0938   0.0938   0.0938   0.0938
     0.0938   0.0938   0.0938   0.0938   0.0938   0.0938   0.0938   0.0938
     0.0938   0.0938   0.0938   0.0938   0.0938   0.0938   0.0938   0.0938
     0.0937   0.0937   0.0937   0.0937   0.0937   0.0937   0.0937   0.0937
     0.0000   0.0000   0.0000   0.0000   0.0000   0.0000   0.0000   0.0000
     0.0000   0.0000   0.0000   0.0000   0.0000

          k = 0.0000-1.0000 0.0000 (  2762 PWs)   bands (ev):

    -7.3122  -7.2989  -6.8171  -6.8169  -6.8160  -6.7910  -6.5128  -6.4979
     4.9865   4.9927   5.0149   5.0227   5.7386   5.7642   6.0695   6.0754
     6.0959   6.1019   6.3764   6.3990   6.6301   6.6470   6.6619   6.6793
     6.6825   6.7192   6.7223   6.7254   8.1276   8.1386   8.1453   8.1564
     9.2443   9.2451   9.9435   9.9448  10.0242  10.0246  10.0400  10.0401
    10.0408  10.0443  10.1638  10.1641  10.3436  10.3441  10.4895  10.4912
    10.5111  10.5144  10.5755  10.5759  10.9067  10.9067  10.9987  11.0004
    11.1424  11.1431  11.2201  11.2218  11.3302  11.3317  11.3346  11.3355
    12.4575  12.4582  12.7153  12.7157  13.5121  13.5132  13.6123  13.6131
    17.6676  17.6681  19.2528  19.2532  19.2541

     occupation numbers 
     0.0469   0.0469   0.0469   0.0469   0.0469   0.0469   0.0469   0.0469
     0.0469   0.0469   0.0469   0.0469   0.0469   0.0469   0.0469   0.0469
     0.0469   0.0469   0.0469   0.0469   0.0469   0.0469   0.0469   0.0469
     0.0469   0.0469   0.0469   0.0469   0.0469   0.0469   0.0469   0.0469
     0.0469   0.0469   0.0469   0.0469   0.0469   0.0469   0.0469   0.0469
     0.0469   0.0469   0.0469   0.0469   0.0469   0.0469   0.0469   0.0469
     0.0469   0.0469   0.0469   0.0469   0.0469   0.0469   0.0469   0.0469
     0.0469   0.0469   0.0469   0.0469   0.0469   0.0469   0.0469   0.0469
     0.0000   0.0000   0.0000   0.0000   0.0000   0.0000   0.0000   0.0000
     0.0000   0.0000   0.0000   0.0000   0.0000

          k =-0.5000-1.0000 0.0000 (  2740 PWs)   bands (ev):

    -7.1533  -7.1525  -7.1522  -7.1256  -6.5804  -6.5779  -6.5749  -6.5476
     5.2464   5.2660   5.2714   5.3122   5.3626   5.5247   5.5261   5.6365
     6.2034   6.2327   6.2424   6.2736   6.6039   6.6086   6.6199   6.7473
     6.8884   7.2482   7.2611   7.4470   7.4652   7.4926   7.4939   7.5455
     9.7059   9.7327   9.7332   9.8005   9.9805  10.0302  10.0324  10.0638
    10.1119  10.2656  10.2817  10.2832  10.3383  10.3394  10.3928  10.4582
    10.6089  10.6565  10.6571  10.6837  10.9413  10.9426  10.9630  10.9846
    11.1675  11.1788  11.1806  11.2741  11.2894  11.2934  11.3598  11.3606
    12.7696  12.8843  12.8846  12.9980  13.1495  13.1935  13.1943  13.2388
    18.0183  18.0359  18.0389  18.0580  20.8595

     occupation numbers 
     0.0938   0.0938   0.0938   0.0938   0.0938   0.0938   0.0938   0.0938
     0.0938   0.0938   0.0938   0.0938   0.0938   0.0938   0.0938   0.0938
     0.0938   0.0938   0.0938   0.0938   0.0938   0.0938   0.0938   0.0938
     0.0938   0.0938   0.0938   0.0938   0.0938   0.0938   0.0938   0.0938
     0.0938   0.0938   0.0938   0.0938   0.0938   0.0938   0.0938   0.0938
     0.0938   0.0938   0.0938   0.0938   0.0938   0.0938   0.0938   0.0938
     0.0938   0.0938   0.0938   0.0938   0.0938   0.0938   0.0938   0.0938
     0.0937   0.0937   0.0937   0.0937   0.0937   0.0937   0.0937   0.0937
     0.0000   0.0000   0.0000   0.0000   0.0000   0.0000   0.0000   0.0000
     0.0000   0.0000   0.0000   0.0000   0.0000

          k =-0.2500 0.2500 0.2500 (  2743 PWs)   bands (ev):

    -7.8994  -6.9233  -6.6836  -6.6836  -6.6719  -6.6330  -6.6330  -6.6042
     4.3198   4.3198   4.3394   4.5905   5.3218   5.3218   5.3287   6.4488
     6.4730   6.4730   6.6037   6.6037   6.6179   6.6853   6.6853   7.1847
     7.2060   7.2060   7.6866   7.6866   7.7022   7.9609   8.4410   8.4410
     9.2563   9.2573   9.2573   9.6134   9.6134   9.9965  10.0599  10.0600
    10.0600  10.2704  10.2715  10.2715  10.5976  10.5976  10.5982  10.6162
    10.6162  10.7173  10.7173  10.7189  10.9091  10.9091  10.9336  10.9364
    10.9364  11.0285  11.2517  11.2525  11.2525  11.3893  11.3893  11.3903
    13.3295  13.3295  13.3459  13.3459  13.3459  13.3536  13.3537  13.3537
    14.7682  17.5964  18.6752  18.6752  18.6783

     occupation numbers 
     0.0313   0.0313   0.0313   0.0313   0.0313   0.0313   0.0313   0.0313
     0.0313   0.0313   0.0313   0.0313   0.0313   0.0313   0.0313   0.0313
     0.0313   0.0313   0.0313   0.0313   0.0313   0.0313   0.0313   0.0313
     0.0313   0.0313   0.0313   0.0313   0.0313   0.0313   0.0313   0.0313
     0.0313   0.0313   0.0313   0.0313   0.0313   0.0313   0.0313   0.0313
     0.0313   0.0313   0.0313   0.0313   0.0313   0.0313   0.0313   0.0313
     0.0313   0.0313   0.0313   0.0313   0.0313   0.0313   0.0313   0.0313
     0.0313   0.0313   0.0312   0.0312   0.0312   0.0312   0.0312   0.0312
     0.0000   0.0000   0.0000   0.0000   0.0000   0.0000   0.0000   0.0000
     0.0000   0.0000   0.0000   0.0000   0.0000

          k = 0.5000-0.5000-0.5000 (  2764 PWs)   bands (ev):

    -7.4512  -7.4337  -6.6721  -6.6721  -6.6664  -6.6518  -6.6518  -6.6173
     4.9798   4.9798   5.0076   5.0899   5.0899   5.1090   6.0545   6.1042
     6.2282   6.2564   6.2564   6.6564   6.6872   6.6872   6.7326   6.7326
     6.7460   6.9687   6.9687   7.4285   7.4285   7.4434   7.8518   7.8518
     9.4861   9.4861   9.4863   9.6693   9.6693  10.1113  10.1157  10.1161
    10.1161  10.4445  10.4452  10.4452  10.5018  10.5018  10.5022  10.7224
    10.7224  10.8338  10.8387  10.8387  10.8666  11.0490  11.0490  11.0522
    11.2400  11.2408  11.2408  11.2933  11.2933  11.3971  11.3971  11.3981
    13.0356  13.0359  13.0359  13.0521  13.0521  13.0675  13.0675  13.0680
    16.4109  16.5610  19.6315  19.6315  19.6316

     occupation numbers 
     0.0156   0.0156   0.0156   0.0156   0.0156   0.0156   0.0156   0.0156
     0.0156   0.0156   0.0156   0.0156   0.0156   0.0156   0.0156   0.0156
     0.0156   0.0156   0.0156   0.0156   0.0156   0.0156   0.0156   0.0156
     0.0156   0.0156   0.0156   0.0156   0.0156   0.0156   0.0156   0.0156
     0.0156   0.0156   0.0156   0.0156   0.0156   0.0156   0.0156   0.0156
     0.0156   0.0156   0.0156   0.0156   0.0156   0.0156   0.0156   0.0156
     0.0156   0.0156   0.0156   0.0156   0.0156   0.0156   0.0156   0.0156
     0.0156   0.0156   0.0156   0.0156   0.0156   0.0156   0.0156   0.0156
     0.0000   0.0000   0.0000   0.0000   0.0000   0.0000   0.0000   0.0000
     0.0000   0.0000   0.0000   0.0000   0.0000

          k = 0.2500 0.7500 0.7500 (  2734 PWs)   bands (ev):

    -7.4972  -7.1665  -6.9613  -6.7710  -6.7582  -6.5911  -6.5557  -6.5385
     4.9416   4.9470   4.9684   5.2251   5.4773   5.4804   5.4936   6.1038
     6.2016   6.2246   6.3297   6.5464   6.5615   6.6471   6.7994   6.8105
     6.8196   7.0216   7.0330   7.1437   7.4902   7.7329   7.7580   7.9871
     9.3759   9.5517   9.9381   9.9381  10.0147  10.0159  10.0374  10.0387
    10.0509  10.1720  10.2081  10.2083  10.3923  10.4368  10.4909  10.4933
    10.6531  10.6905  10.6918  10.7056  10.8902  10.9431  11.0896  11.0907
    11.2099  11.2114  11.2266  11.2641  11.2711  11.2733  11.3425  11.3436
    12.7362  12.7951  12.8771  12.8775  13.2498  13.3375  13.3380  13.3491
    16.6948  17.6043  18.6732  19.3617  19.3620

     occupation numbers 
     0.0938   0.0938   0.0938   0.0938   0.0938   0.0938   0.0938   0.0938
     0.0938   0.0938   0.0938   0.0938   0.0938   0.0938   0.0938   0.0938
     0.0938   0.0938   0.0938   0.0938   0.0938   0.0938   0.0938   0.0938
     0.0938   0.0938   0.0938   0.0938   0.0938   0.0938   0.0938   0.0938
     0.0938   0.0938   0.0938   0.0938   0.0938   0.0938   0.0938   0.0938
     0.0938   0.0938   0.0938   0.0938   0.0938   0.0938   0.0938   0.0938
     0.0938   0.0938   0.0938   0.0938   0.0938   0.0938   0.0938   0.0938
     0.0937   0.0937   0.0937   0.0937   0.0937   0.0937   0.0937   0.0937
     0.0000   0.0000   0.0000   0.0000   0.0000   0.0000   0.0000   0.0000
     0.0000   0.0000   0.0000   0.0000   0.0000

          k = 0.7500-0.2500-0.7500 (  2734 PWs)   bands (ev):

    -7.4973  -7.1666  -6.9613  -6.7712  -6.7584  -6.5908  -6.5555  -6.5383
     4.9409   4.9412   4.9672   5.2649   5.4195   5.4759   5.4859   6.1847
     6.2158   6.2225   6.2516   6.6372   6.6476   6.6589   6.6737   6.6932
     6.8165   7.0598   7.0721   7.2566   7.3669   7.7410   7.7472   8.0383
     9.3483   9.5386   9.7548   9.7549   9.7791  10.0542  10.0903  10.0903
    10.2804  10.2822  10.4149  10.4156  10.4361  10.5479  10.5487  10.5538
    10.5640  10.6436  10.6438  10.6461  10.8363  10.8736  10.8755  10.9547
    11.0647  11.2367  11.2690  11.2959  11.2961  11.3548  11.3556  11.4176
    12.6891  12.8352  12.8799  12.8803  13.2761  13.3305  13.3382  13.3387
    16.6947  17.6059  18.6709  19.3608  19.3611

     occupation numbers 
     0.0938   0.0938   0.0938   0.0938   0.0938   0.0938   0.0938   0.0938
     0.0938   0.0938   0.0938   0.0938   0.0938   0.0938   0.0938   0.0938
     0.0938   0.0938   0.0938   0.0938   0.0938   0.0938   0.0938   0.0938
     0.0938   0.0938   0.0938   0.0938   0.0938   0.0938   0.0938   0.0938
     0.0938   0.0938   0.0938   0.0938   0.0938   0.0938   0.0938   0.0938
     0.0938   0.0938   0.0938   0.0938   0.0938   0.0938   0.0938   0.0938
     0.0938   0.0938   0.0938   0.0938   0.0938   0.0938   0.0938   0.0938
     0.0938   0.0937   0.0937   0.0937   0.0937   0.0937   0.0937   0.0937
     0.0000   0.0000   0.0000   0.0000   0.0000   0.0000   0.0000   0.0000
     0.0000   0.0000   0.0000   0.0000   0.0000

          k = 0.0000 0.5000 0.5000 (  2742 PWs)   bands (ev):

    -7.6350  -7.0173  -7.0052  -6.7205  -6.7088  -6.6018  -6.5891  -6.5361
     4.7451   4.7557   5.0554   5.0636   5.2158   5.2306   5.6835   5.9493
     6.2897   6.3095   6.5712   6.6593   6.6649   6.7765   6.8436   6.9097
     7.0004   7.1376   7.1570   7.1860   7.1952   7.4723   7.8204   8.1094
     9.5515   9.6032   9.6305   9.6320   9.7692  10.0686  10.0689  10.1254
    10.2364  10.2382  10.2995  10.3805  10.4415  10.5527  10.5541  10.5554
    10.6266  10.6578  10.6597  10.7380  10.7585  10.8146  11.0426  11.0448
    11.0996  11.2653  11.2654  11.3346  11.3643  11.3650  11.3795  11.3998
    13.0400  13.0419  13.0501  13.0501  13.0592  13.2016  13.2019  13.2314
    16.0099  18.0615  18.0634  19.3734  19.3745

     occupation numbers 
     0.0938   0.0938   0.0938   0.0938   0.0938   0.0938   0.0938   0.0938
     0.0938   0.0938   0.0938   0.0938   0.0938   0.0938   0.0938   0.0938
     0.0938   0.0938   0.0938   0.0938   0.0938   0.0938   0.0938   0.0938
     0.0938   0.0938   0.0938   0.0938   0.0938   0.0938   0.0938   0.0938
     0.0938   0.0938   0.0938   0.0938   0.0938   0.0938   0.0938   0.0938
     0.0938   0.0938   0.0938   0.0938   0.0938   0.0938   0.0938   0.0938
     0.0938   0.0938   0.0938   0.0938   0.0938   0.0938   0.0938   0.0938
     0.0938   0.0937   0.0937   0.0937   0.0937   0.0937   0.0937   0.0937
     0.0000   0.0000   0.0000   0.0000   0.0000   0.0000   0.0000   0.0000
     0.0000   0.0000   0.0000   0.0000   0.0000

     the Fermi energy is    11.9524 ev

!    total energy              =    -942.07811447 Ry
     Harris-Foulkes estimate   =    -942.07811447 Ry
     estimated scf accuracy    <          7.1E-09 Ry

     The total energy is the sum of the following terms:

     one-electron contribution =     -56.32844748 Ry
     hartree contribution      =     175.71254403 Ry
     xc contribution           =    -297.54276290 Ry
     ewald contribution        =    -763.85740583 Ry
     Hubbard energy            =      -0.06204229 Ry
     smearing contrib. (-TS)   =       0.00000000 Ry

     total magnetization       =     0.00 Bohr mag/cell
     absolute magnetization    =    12.29 Bohr mag/cell

     convergence has been achieved in   7 iterations

     init_run     :     10.71s CPU     11.86s WALL (       1 calls)
     electrons    :    368.98s CPU    373.17s WALL (       1 calls)

     Called by init_run:
     wfcinit      :      0.00s CPU      0.00s WALL (       1 calls)
     potinit      :      1.01s CPU      1.97s WALL (       1 calls)

     Called by electrons:
     c_bands      :    276.55s CPU    277.87s WALL (       7 calls)
     sum_band     :     61.28s CPU     61.76s WALL (       7 calls)
     v_of_rho     :      7.48s CPU      7.51s WALL (       8 calls)
     v_h          :      0.15s CPU      0.16s WALL (       8 calls)
     v_xc         :      7.32s CPU      7.35s WALL (       8 calls)
     newd         :     26.53s CPU     26.56s WALL (       8 calls)
     mix_rho      :      0.45s CPU      0.45s WALL (       7 calls)

     Called by c_bands:
     init_us_2    :      1.97s CPU      1.99s WALL (     364 calls)
     cegterg      :    268.88s CPU    269.73s WALL (     182 calls)

     Called by sum_band:
     sum_band:bec :      0.41s CPU      0.41s WALL (     182 calls)
     addusdens    :     22.91s CPU     22.92s WALL (       7 calls)

     Called by *egterg:
     h_psi        :    172.13s CPU    172.79s WALL (     807 calls)
     s_psi        :     16.29s CPU     16.29s WALL (     807 calls)
     g_psi        :      0.89s CPU      0.91s WALL (     625 calls)
     cdiaghg      :     32.84s CPU     32.89s WALL (     781 calls)
     cegterg:over :     17.88s CPU     17.93s WALL (     625 calls)
     cegterg:upda :     11.38s CPU     11.44s WALL (     625 calls)
     cegterg:last :      8.08s CPU      8.07s WALL (     208 calls)

     Called by h_psi:
     h_psi:vloc   :    122.58s CPU    123.21s WALL (     807 calls)
     h_psi:vnl    :     32.66s CPU     32.68s WALL (     807 calls)
     add_vuspsi   :     16.17s CPU     16.20s WALL (     807 calls)
     vhpsi        :     16.45s CPU     16.46s WALL (     807 calls)

     General routines
     calbec       :     31.33s CPU     31.35s WALL (    1978 calls)
     fft          :      3.73s CPU      4.00s WALL (     236 calls)
     ffts         :      0.08s CPU      0.19s WALL (      30 calls)
     fftw         :    119.47s CPU    120.16s WALL (   86564 calls)
     interpolate  :      0.55s CPU      0.77s WALL (      30 calls)
     davcio       :      0.01s CPU      0.86s WALL (     390 calls)

     Parallel routines
     fft_scatter  :     31.74s CPU     32.59s WALL (   86830 calls)
     Hubbard U routines
     new_ns       :      2.56s CPU      2.91s WALL (       7 calls)
     vhpsi        :     16.45s CPU     16.46s WALL (     807 calls)

     PWSCF        :  6m20.28s CPU     6m25.71s WALL


   This run was terminated on:  12:19:59  13Nov2012            

=------------------------------------------------------------------------------=
