 
Job started on n16 at Tue Nov 13 11:59:51 EST 2012

     Program PWSCF v.5.0.1 starts on 13Nov2012 at 11:59:53 

     This program is part of the open-source Quantum ESPRESSO suite
     for quantum simulation of materials; please cite
         "P. Giannozzi et al., J. Phys.:Condens. Matter 21 395502 (2009);
          URL http://www.quantum-espresso.org", 
     in publications or presentations arising from this work. More details at
     http://www.quantum-espresso.org/quote.php

     Parallel version (MPI), running on     2 processors
     R & G space division:  proc/pool =    2

     Current dimensions of program PWSCF are:
     Max number of different atomic species (ntypx) = 10
     Max number of k-points (npk) =  40000
     Max angular momentum in pseudopotentials (lmaxx) =  3
     Reading input from NiO_U0_init.in
               file Ni.pbe-nd-rrkjus.UPF: wavefunction(s)  4S renormalized
               file Ni.pbe-nd-rrkjus.UPF: wavefunction(s)  4S renormalized
               file O.pbe-rrkjus.UPF: wavefunction(s)  2S renormalized
               file O.pbe-rrkjus.UPF: wavefunction(s)  2S renormalized

     Subspace diagonalization in iterative solution of the eigenvalue problem:
     a serial algorithm will be used


     Parallelization info
     --------------------
     sticks:   dense  smooth     PW     G-vecs:    dense   smooth      PW
     Min        1293     519    150                43273    11032    1738
     Max        1294     520    151                43274    11043    1741
     Sum        2587    1039    301                86547    22075    3479


     Title: 
     GGA + U, U = 1D-40, init                                                   


     bravais-lattice index     =            2
     lattice parameter (alat)  =      15.8000  a.u.
     unit-cell volume          =     986.0780 (a.u.)^3
     number of atoms/cell      =           16
     number of atomic types    =            4
     number of electrons       =       128.00
     number of Kohn-Sham states=           77
     kinetic-energy cutoff     =      30.0000  Ry
     charge density cutoff     =     300.0000  Ry
     convergence threshold     =      1.0E-08
     mixing beta               =       0.3000
     number of iterations used =            8  plain     mixing
     Exchange-correlation      =  SLA  PW   PBE  PBE ( 1 4 3 4 0)
     EXX-fraction              =        0.00

     celldm(1)=  15.800000  celldm(2)=   0.000000  celldm(3)=   0.000000
     celldm(4)=   0.000000  celldm(5)=   0.000000  celldm(6)=   0.000000

     crystal axes: (cart. coord. in units of alat)
               a(1) = (  -0.500000   0.000000   0.500000 )  
               a(2) = (   0.000000   0.500000   0.500000 )  
               a(3) = (  -0.500000   0.500000   0.000000 )  

     reciprocal axes: (cart. coord. in units 2 pi/alat)
               b(1) = ( -1.000000 -1.000000  1.000000 )  
               b(2) = (  1.000000  1.000000  1.000000 )  
               b(3) = ( -1.000000  1.000000 -1.000000 )  


     PseudoPot. # 1 for Ni read from file:
     /home/mcurnan/dft-course/Project1/example_NiO/Ni.pbe-nd-rrkjus.UPF
     MD5 check sum: 8081f0a005c9a5470caab1a58e82ecb2
     Pseudo is Ultrasoft + core correction, Zval = 10.0
     Generated by new atomic code, or converted to UPF format
     Using radial grid of 1203 points,  6 beta functions with: 
                l(1) =   0
                l(2) =   0
                l(3) =   1
                l(4) =   1
                l(5) =   2
                l(6) =   2
     Q(r) pseudized with 0 coefficients 


     PseudoPot. # 2 for Ni read from file:
     /home/mcurnan/dft-course/Project1/example_NiO/Ni.pbe-nd-rrkjus.UPF
     MD5 check sum: 8081f0a005c9a5470caab1a58e82ecb2
     Pseudo is Ultrasoft + core correction, Zval = 10.0
     Generated by new atomic code, or converted to UPF format
     Using radial grid of 1203 points,  6 beta functions with: 
                l(1) =   0
                l(2) =   0
                l(3) =   1
                l(4) =   1
                l(5) =   2
                l(6) =   2
     Q(r) pseudized with 0 coefficients 


     PseudoPot. # 3 for O  read from file:
     /home/mcurnan/dft-course/Project1/example_NiO/O.pbe-rrkjus.UPF
     MD5 check sum: 390ba29e75625707450f3bd3f0eb6be9
     Pseudo is Ultrasoft, Zval =  6.0
     Generated by new atomic code, or converted to UPF format
     Using radial grid of 1269 points,  4 beta functions with: 
                l(1) =   0
                l(2) =   0
                l(3) =   1
                l(4) =   1
     Q(r) pseudized with 0 coefficients 


     PseudoPot. # 4 for O  read from file:
     /home/mcurnan/dft-course/Project1/example_NiO/O.pbe-rrkjus.UPF
     MD5 check sum: 390ba29e75625707450f3bd3f0eb6be9
     Pseudo is Ultrasoft, Zval =  6.0
     Generated by new atomic code, or converted to UPF format
     Using radial grid of 1269 points,  4 beta functions with: 
                l(1) =   0
                l(2) =   0
                l(3) =   1
                l(4) =   1
     Q(r) pseudized with 0 coefficients 


     atomic species   valence    mass     pseudopotential
        Ni1           10.00     1.00000     Ni( 1.00)
        Ni2           10.00     1.00000     Ni( 1.00)
        O1             6.00     1.00000     O ( 1.00)
        O2             6.00     1.00000     O ( 1.00)

     Starting magnetic structure 
     atomic species   magnetization
        Ni1          0.500
        Ni2         -0.500
        O1           0.000
        O2           0.000
 -----
     simplified LDA+U calculation, Hubbard_lmax = 2
     atomic species  L   Hubbard U  Hubbard alpha
        Ni1          2    0.000000    0.000000
        Ni2          2    0.000000    0.000000
        O1           1    0.000000    0.000000
        O2           1    0.000000    0.000000
 -----

      6 Sym. Ops. (no inversion) found


                                    s                        frac. trans.

      isym =  1     identity                                     

 cryst.   s( 1) = (     1          0          0      )
                  (     0          1          0      )
                  (     0          0          1      )

 cart.    s( 1) = (  1.0000000  0.0000000  0.0000000 )
                  (  0.0000000  1.0000000  0.0000000 )
                  (  0.0000000  0.0000000  1.0000000 )


      isym =  2     120 deg rotation - cart. axis [-1,1,1]       

 cryst.   s( 2) = (     0          1          0      )
                  (     0          0          1      )
                  (     1          0          0      )

 cart.    s( 2) = (  0.0000000 -1.0000000  0.0000000 )
                  (  0.0000000  0.0000000  1.0000000 )
                  ( -1.0000000  0.0000000  0.0000000 )


      isym =  3     120 deg rotation - cart. axis [1,-1,-1]      

 cryst.   s( 3) = (     0          0          1      )
                  (     1          0          0      )
                  (     0          1          0      )

 cart.    s( 3) = (  0.0000000  0.0000000 -1.0000000 )
                  ( -1.0000000  0.0000000  0.0000000 )
                  (  0.0000000  1.0000000  0.0000000 )


      isym =  4     inv. 180 deg rotation - cart. axis [1,1,0]   

 cryst.   s( 4) = (     0          1          0      )
                  (     1          0          0      )
                  (     0          0          1      )

 cart.    s( 4) = (  0.0000000 -1.0000000  0.0000000 )
                  ( -1.0000000  0.0000000  0.0000000 )
                  (  0.0000000  0.0000000  1.0000000 )


      isym =  5     inv. 180 deg rotation - cart. axis [1,0,1]   

 cryst.   s( 5) = (     1          0          0      )
                  (     0          0          1      )
                  (     0          1          0      )

 cart.    s( 5) = (  0.0000000  0.0000000 -1.0000000 )
                  (  0.0000000  1.0000000  0.0000000 )
                  ( -1.0000000  0.0000000  0.0000000 )


      isym =  6     inv. 180 deg rotation - cart. axis [0,1,-1]  

 cryst.   s( 6) = (     0          0          1      )
                  (     0          1          0      )
                  (     1          0          0      )

 cart.    s( 6) = (  1.0000000  0.0000000  0.0000000 )
                  (  0.0000000  0.0000000  1.0000000 )
                  (  0.0000000  1.0000000  0.0000000 )


     point group C_3v (3m)  
     there are  3 classes
     the character table:

       E     2C3   3s_v 
A_1    1.00  1.00  1.00
A_2    1.00  1.00 -1.00
E      2.00 -1.00  0.00

     the symmetry operations in each class:
     E        1
     2C3      2    3
     3s_v     4    5    6

   Cartesian axes

     site n.     atom                  positions (alat units)
         1           Ni1 tau(   1) = (   0.0000000  -0.2500000   0.0000000  )
         2           Ni1 tau(   2) = (  -0.2500000   0.0000000   0.5000000  )
         3           Ni1 tau(   3) = (  -0.5000000   0.0000000   0.2500000  )
         4           Ni1 tau(   4) = (  -0.2500000   0.2500000   0.2500000  )
         5           Ni2 tau(   5) = (  -0.2500000  -0.2500000   0.2500000  )
         6           Ni2 tau(   6) = (   0.0000000   0.0000000   0.2500000  )
         7           Ni2 tau(   7) = (  -0.2500000   0.0000000   0.0000000  )
         8           Ni2 tau(   8) = (  -0.5000000   0.2500000   0.5000000  )
         9           O1  tau(   9) = (   0.0000000   0.0000000   0.0000000  )
        10           O2  tau(  10) = (  -0.2500000   0.0000000   0.2500000  )
        11           O2  tau(  11) = (   0.0000000   0.2500000   0.2500000  )
        12           O2  tau(  12) = (  -0.2500000   0.2500000   0.0000000  )
        13           O2  tau(  13) = (  -0.2500000   0.2500000   0.5000000  )
        14           O2  tau(  14) = (  -0.5000000   0.2500000   0.2500000  )
        15           O2  tau(  15) = (  -0.2500000   0.5000000   0.2500000  )
        16           O2  tau(  16) = (  -0.5000000   0.5000000   0.5000000  )

   Crystallographic axes

     site n.     atom                  positions (cryst. coord.)
         1           Ni1 tau(   1) = (  0.2500000 -0.2500000 -0.2500000  )
         2           Ni1 tau(   2) = (  0.7500000  0.2500000 -0.2500000  )
         3           Ni1 tau(   3) = (  0.7500000 -0.2500000  0.2500000  )
         4           Ni1 tau(   4) = (  0.2500000  0.2500000  0.2500000  )
         5           Ni2 tau(   5) = (  0.7500000 -0.2500000 -0.2500000  )
         6           Ni2 tau(   6) = (  0.2500000  0.2500000 -0.2500000  )
         7           Ni2 tau(   7) = (  0.2500000 -0.2500000  0.2500000  )
         8           Ni2 tau(   8) = (  0.7500000  0.2500000  0.2500000  )
         9           O1  tau(   9) = (  0.0000000  0.0000000  0.0000000  )
        10           O2  tau(  10) = (  0.5000000  0.0000000  0.0000000  )
        11           O2  tau(  11) = (  0.0000000  0.5000000  0.0000000  )
        12           O2  tau(  12) = (  0.0000000  0.0000000  0.5000000  )
        13           O2  tau(  13) = (  0.5000000  0.5000000  0.0000000  )
        14           O2  tau(  14) = (  0.5000000  0.0000000  0.5000000  )
        15           O2  tau(  15) = (  0.0000000  0.5000000  0.5000000  )
        16           O2  tau(  16) = (  0.5000000  0.5000000  0.5000000  )

     number of k points=    26  gaussian smearing, width (Ry)=  0.0100
                       cart. coord. in units 2pi/alat
        k(    1) = (   0.0000000   0.0000000   0.0000000), wk =   0.0156250
        k(    2) = (  -0.2500000   0.2500000  -0.2500000), wk =   0.0937500
        k(    3) = (   0.5000000  -0.5000000   0.5000000), wk =   0.0468750
        k(    4) = (   0.0000000   0.5000000   0.0000000), wk =   0.0937500
        k(    5) = (   0.7500000  -0.2500000   0.7500000), wk =   0.1875000
        k(    6) = (   0.5000000   0.0000000   0.5000000), wk =   0.0937500
        k(    7) = (   0.0000000  -1.0000000   0.0000000), wk =   0.0468750
        k(    8) = (  -0.5000000  -1.0000000   0.0000000), wk =   0.0937500
        k(    9) = (  -0.2500000   0.2500000   0.2500000), wk =   0.0312500
        k(   10) = (   0.5000000  -0.5000000  -0.5000000), wk =   0.0156250
        k(   11) = (   0.2500000   0.7500000   0.7500000), wk =   0.0937500
        k(   12) = (   0.7500000  -0.2500000  -0.7500000), wk =   0.0937500
        k(   13) = (   0.0000000   0.5000000   0.5000000), wk =   0.0937500
        k(   14) = (   0.0000000   0.0000000   0.0000000), wk =   0.0156250
        k(   15) = (  -0.2500000   0.2500000  -0.2500000), wk =   0.0937500
        k(   16) = (   0.5000000  -0.5000000   0.5000000), wk =   0.0468750
        k(   17) = (   0.0000000   0.5000000   0.0000000), wk =   0.0937500
        k(   18) = (   0.7500000  -0.2500000   0.7500000), wk =   0.1875000
        k(   19) = (   0.5000000   0.0000000   0.5000000), wk =   0.0937500
        k(   20) = (   0.0000000  -1.0000000   0.0000000), wk =   0.0468750
        k(   21) = (  -0.5000000  -1.0000000   0.0000000), wk =   0.0937500
        k(   22) = (  -0.2500000   0.2500000   0.2500000), wk =   0.0312500
        k(   23) = (   0.5000000  -0.5000000  -0.5000000), wk =   0.0156250
        k(   24) = (   0.2500000   0.7500000   0.7500000), wk =   0.0937500
        k(   25) = (   0.7500000  -0.2500000  -0.7500000), wk =   0.0937500
        k(   26) = (   0.0000000   0.5000000   0.5000000), wk =   0.0937500

                       cryst. coord.
        k(    1) = (   0.0000000   0.0000000   0.0000000), wk =   0.0156250
        k(    2) = (   0.0000000   0.0000000   0.2500000), wk =   0.0937500
        k(    3) = (   0.0000000   0.0000000  -0.5000000), wk =   0.0468750
        k(    4) = (   0.0000000   0.2500000   0.2500000), wk =   0.0937500
        k(    5) = (   0.0000000   0.2500000  -0.5000000), wk =   0.1875000
        k(    6) = (   0.0000000   0.2500000  -0.2500000), wk =   0.0937500
        k(    7) = (   0.0000000  -0.5000000  -0.5000000), wk =   0.0468750
        k(    8) = (   0.2500000  -0.5000000  -0.2500000), wk =   0.0937500
        k(    9) = (   0.2500000   0.2500000   0.2500000), wk =   0.0312500
        k(   10) = (  -0.5000000  -0.5000000  -0.5000000), wk =   0.0156250
        k(   11) = (   0.2500000   0.7500000   0.2500000), wk =   0.0937500
        k(   12) = (  -0.7500000  -0.5000000  -0.5000000), wk =   0.0937500
        k(   13) = (   0.2500000   0.5000000   0.2500000), wk =   0.0937500
        k(   14) = (   0.0000000   0.0000000   0.0000000), wk =   0.0156250
        k(   15) = (   0.0000000   0.0000000   0.2500000), wk =   0.0937500
        k(   16) = (   0.0000000   0.0000000  -0.5000000), wk =   0.0468750
        k(   17) = (   0.0000000   0.2500000   0.2500000), wk =   0.0937500
        k(   18) = (   0.0000000   0.2500000  -0.5000000), wk =   0.1875000
        k(   19) = (   0.0000000   0.2500000  -0.2500000), wk =   0.0937500
        k(   20) = (   0.0000000  -0.5000000  -0.5000000), wk =   0.0468750
        k(   21) = (   0.2500000  -0.5000000  -0.2500000), wk =   0.0937500
        k(   22) = (   0.2500000   0.2500000   0.2500000), wk =   0.0312500
        k(   23) = (  -0.5000000  -0.5000000  -0.5000000), wk =   0.0156250
        k(   24) = (   0.2500000   0.7500000   0.2500000), wk =   0.0937500
        k(   25) = (  -0.7500000  -0.5000000  -0.5000000), wk =   0.0937500
        k(   26) = (   0.2500000   0.5000000   0.2500000), wk =   0.0937500

     Dense  grid:    86547 G-vectors     FFT dimensions: (  64,  64,  64)

     Smooth grid:    22075 G-vectors     FFT dimensions: (  40,  40,  40)

     Largest allocated arrays     est. size (Mb)     dimensions
        Kohn-Sham Wavefunctions         1.64 Mb     (   1395,   77)
        Atomic wavefunctions            1.70 Mb     (   1395,   80)
        NL pseudopotentials             4.43 Mb     (   1395,  208)
        Each V/rho on FFT grid          4.00 Mb     ( 131072,   2)
        Each G-vector array             0.33 Mb     (  43274)
        G-vector shells                 0.00 Mb     (    635)
     Largest temporary arrays     est. size (Mb)     dimensions
        Auxiliary wavefunctions         6.56 Mb     (   1395,  308)
        Each subspace H/S matrix        1.45 Mb     ( 308, 308)
        Each <psi_i|beta_j> matrix      0.24 Mb     (    208,   77)
        Arrays for rho mixing          16.00 Mb     ( 131072,   8)

     Check: negative/imaginary core charge=   -0.000047    0.000000

     Initial potential from superposition of free atoms

     starting charge  127.99632, renormalised to  128.00000
 --- in v_hubbard ---
Hubbard energy    0.0000
 -------
     Number of +U iterations with fixed ns =  0
     Starting occupations:
 --- enter write_ns ---
 LDA+U parameters:
U( 1)     =  0.00000000
alpha( 1) =  0.00000000
U( 2)     =  0.00000000
alpha( 2) =  0.00000000
U( 3)     =  0.00000000
alpha( 3) =  0.00000000
U( 4)     =  0.00000000
alpha( 4) =  0.00000000
atom    1   Tr[ns(na)] (up, down, total) =   5.00000  3.00000  8.00000
   spin  1
    eigenvalues: 
  1.000  1.000  1.000  1.000  1.000
    eigenvectors:
  1.000  0.000  0.000  0.000  0.000
  0.000  1.000  0.000  0.000  0.000
  0.000  0.000  1.000  0.000  0.000
  0.000  0.000  0.000  1.000  0.000
  0.000  0.000  0.000  0.000  1.000
    occupations:
  1.000  0.000  0.000  0.000  0.000
  0.000  1.000  0.000  0.000  0.000
  0.000  0.000  1.000  0.000  0.000
  0.000  0.000  0.000  1.000  0.000
  0.000  0.000  0.000  0.000  1.000
   spin  2
    eigenvalues: 
  0.600  0.600  0.600  0.600  0.600
    eigenvectors:
  1.000  0.000  0.000  0.000  0.000
  0.000  1.000  0.000  0.000  0.000
  0.000  0.000  1.000  0.000  0.000
  0.000  0.000  0.000  1.000  0.000
  0.000  0.000  0.000  0.000  1.000
    occupations:
  0.600  0.000  0.000  0.000  0.000
  0.000  0.600  0.000  0.000  0.000
  0.000  0.000  0.600  0.000  0.000
  0.000  0.000  0.000  0.600  0.000
  0.000  0.000  0.000  0.000  0.600
atomic mag. moment =     2.000000
atom    2   Tr[ns(na)] (up, down, total) =   5.00000  3.00000  8.00000
   spin  1
    eigenvalues: 
  1.000  1.000  1.000  1.000  1.000
    eigenvectors:
  1.000  0.000  0.000  0.000  0.000
  0.000  1.000  0.000  0.000  0.000
  0.000  0.000  1.000  0.000  0.000
  0.000  0.000  0.000  1.000  0.000
  0.000  0.000  0.000  0.000  1.000
    occupations:
  1.000  0.000  0.000  0.000  0.000
  0.000  1.000  0.000  0.000  0.000
  0.000  0.000  1.000  0.000  0.000
  0.000  0.000  0.000  1.000  0.000
  0.000  0.000  0.000  0.000  1.000
   spin  2
    eigenvalues: 
  0.600  0.600  0.600  0.600  0.600
    eigenvectors:
  1.000  0.000  0.000  0.000  0.000
  0.000  1.000  0.000  0.000  0.000
  0.000  0.000  1.000  0.000  0.000
  0.000  0.000  0.000  1.000  0.000
  0.000  0.000  0.000  0.000  1.000
    occupations:
  0.600  0.000  0.000  0.000  0.000
  0.000  0.600  0.000  0.000  0.000
  0.000  0.000  0.600  0.000  0.000
  0.000  0.000  0.000  0.600  0.000
  0.000  0.000  0.000  0.000  0.600
atomic mag. moment =     2.000000
atom    3   Tr[ns(na)] (up, down, total) =   5.00000  3.00000  8.00000
   spin  1
    eigenvalues: 
  1.000  1.000  1.000  1.000  1.000
    eigenvectors:
  1.000  0.000  0.000  0.000  0.000
  0.000  1.000  0.000  0.000  0.000
  0.000  0.000  1.000  0.000  0.000
  0.000  0.000  0.000  1.000  0.000
  0.000  0.000  0.000  0.000  1.000
    occupations:
  1.000  0.000  0.000  0.000  0.000
  0.000  1.000  0.000  0.000  0.000
  0.000  0.000  1.000  0.000  0.000
  0.000  0.000  0.000  1.000  0.000
  0.000  0.000  0.000  0.000  1.000
   spin  2
    eigenvalues: 
  0.600  0.600  0.600  0.600  0.600
    eigenvectors:
  1.000  0.000  0.000  0.000  0.000
  0.000  1.000  0.000  0.000  0.000
  0.000  0.000  1.000  0.000  0.000
  0.000  0.000  0.000  1.000  0.000
  0.000  0.000  0.000  0.000  1.000
    occupations:
  0.600  0.000  0.000  0.000  0.000
  0.000  0.600  0.000  0.000  0.000
  0.000  0.000  0.600  0.000  0.000
  0.000  0.000  0.000  0.600  0.000
  0.000  0.000  0.000  0.000  0.600
atomic mag. moment =     2.000000
atom    4   Tr[ns(na)] (up, down, total) =   5.00000  3.00000  8.00000
   spin  1
    eigenvalues: 
  1.000  1.000  1.000  1.000  1.000
    eigenvectors:
  1.000  0.000  0.000  0.000  0.000
  0.000  1.000  0.000  0.000  0.000
  0.000  0.000  1.000  0.000  0.000
  0.000  0.000  0.000  1.000  0.000
  0.000  0.000  0.000  0.000  1.000
    occupations:
  1.000  0.000  0.000  0.000  0.000
  0.000  1.000  0.000  0.000  0.000
  0.000  0.000  1.000  0.000  0.000
  0.000  0.000  0.000  1.000  0.000
  0.000  0.000  0.000  0.000  1.000
   spin  2
    eigenvalues: 
  0.600  0.600  0.600  0.600  0.600
    eigenvectors:
  1.000  0.000  0.000  0.000  0.000
  0.000  1.000  0.000  0.000  0.000
  0.000  0.000  1.000  0.000  0.000
  0.000  0.000  0.000  1.000  0.000
  0.000  0.000  0.000  0.000  1.000
    occupations:
  0.600  0.000  0.000  0.000  0.000
  0.000  0.600  0.000  0.000  0.000
  0.000  0.000  0.600  0.000  0.000
  0.000  0.000  0.000  0.600  0.000
  0.000  0.000  0.000  0.000  0.600
atomic mag. moment =     2.000000
atom    5   Tr[ns(na)] (up, down, total) =   3.00000  5.00000  8.00000
   spin  1
    eigenvalues: 
  0.600  0.600  0.600  0.600  0.600
    eigenvectors:
  1.000  0.000  0.000  0.000  0.000
  0.000  1.000  0.000  0.000  0.000
  0.000  0.000  1.000  0.000  0.000
  0.000  0.000  0.000  1.000  0.000
  0.000  0.000  0.000  0.000  1.000
    occupations:
  0.600  0.000  0.000  0.000  0.000
  0.000  0.600  0.000  0.000  0.000
  0.000  0.000  0.600  0.000  0.000
  0.000  0.000  0.000  0.600  0.000
  0.000  0.000  0.000  0.000  0.600
   spin  2
    eigenvalues: 
  1.000  1.000  1.000  1.000  1.000
    eigenvectors:
  1.000  0.000  0.000  0.000  0.000
  0.000  1.000  0.000  0.000  0.000
  0.000  0.000  1.000  0.000  0.000
  0.000  0.000  0.000  1.000  0.000
  0.000  0.000  0.000  0.000  1.000
    occupations:
  1.000  0.000  0.000  0.000  0.000
  0.000  1.000  0.000  0.000  0.000
  0.000  0.000  1.000  0.000  0.000
  0.000  0.000  0.000  1.000  0.000
  0.000  0.000  0.000  0.000  1.000
atomic mag. moment =    -2.000000
atom    6   Tr[ns(na)] (up, down, total) =   3.00000  5.00000  8.00000
   spin  1
    eigenvalues: 
  0.600  0.600  0.600  0.600  0.600
    eigenvectors:
  1.000  0.000  0.000  0.000  0.000
  0.000  1.000  0.000  0.000  0.000
  0.000  0.000  1.000  0.000  0.000
  0.000  0.000  0.000  1.000  0.000
  0.000  0.000  0.000  0.000  1.000
    occupations:
  0.600  0.000  0.000  0.000  0.000
  0.000  0.600  0.000  0.000  0.000
  0.000  0.000  0.600  0.000  0.000
  0.000  0.000  0.000  0.600  0.000
  0.000  0.000  0.000  0.000  0.600
   spin  2
    eigenvalues: 
  1.000  1.000  1.000  1.000  1.000
    eigenvectors:
  1.000  0.000  0.000  0.000  0.000
  0.000  1.000  0.000  0.000  0.000
  0.000  0.000  1.000  0.000  0.000
  0.000  0.000  0.000  1.000  0.000
  0.000  0.000  0.000  0.000  1.000
    occupations:
  1.000  0.000  0.000  0.000  0.000
  0.000  1.000  0.000  0.000  0.000
  0.000  0.000  1.000  0.000  0.000
  0.000  0.000  0.000  1.000  0.000
  0.000  0.000  0.000  0.000  1.000
atomic mag. moment =    -2.000000
atom    7   Tr[ns(na)] (up, down, total) =   3.00000  5.00000  8.00000
   spin  1
    eigenvalues: 
  0.600  0.600  0.600  0.600  0.600
    eigenvectors:
  1.000  0.000  0.000  0.000  0.000
  0.000  1.000  0.000  0.000  0.000
  0.000  0.000  1.000  0.000  0.000
  0.000  0.000  0.000  1.000  0.000
  0.000  0.000  0.000  0.000  1.000
    occupations:
  0.600  0.000  0.000  0.000  0.000
  0.000  0.600  0.000  0.000  0.000
  0.000  0.000  0.600  0.000  0.000
  0.000  0.000  0.000  0.600  0.000
  0.000  0.000  0.000  0.000  0.600
   spin  2
    eigenvalues: 
  1.000  1.000  1.000  1.000  1.000
    eigenvectors:
  1.000  0.000  0.000  0.000  0.000
  0.000  1.000  0.000  0.000  0.000
  0.000  0.000  1.000  0.000  0.000
  0.000  0.000  0.000  1.000  0.000
  0.000  0.000  0.000  0.000  1.000
    occupations:
  1.000  0.000  0.000  0.000  0.000
  0.000  1.000  0.000  0.000  0.000
  0.000  0.000  1.000  0.000  0.000
  0.000  0.000  0.000  1.000  0.000
  0.000  0.000  0.000  0.000  1.000
atomic mag. moment =    -2.000000
atom    8   Tr[ns(na)] (up, down, total) =   3.00000  5.00000  8.00000
   spin  1
    eigenvalues: 
  0.600  0.600  0.600  0.600  0.600
    eigenvectors:
  1.000  0.000  0.000  0.000  0.000
  0.000  1.000  0.000  0.000  0.000
  0.000  0.000  1.000  0.000  0.000
  0.000  0.000  0.000  1.000  0.000
  0.000  0.000  0.000  0.000  1.000
    occupations:
  0.600  0.000  0.000  0.000  0.000
  0.000  0.600  0.000  0.000  0.000
  0.000  0.000  0.600  0.000  0.000
  0.000  0.000  0.000  0.600  0.000
  0.000  0.000  0.000  0.000  0.600
   spin  2
    eigenvalues: 
  1.000  1.000  1.000  1.000  1.000
    eigenvectors:
  1.000  0.000  0.000  0.000  0.000
  0.000  1.000  0.000  0.000  0.000
  0.000  0.000  1.000  0.000  0.000
  0.000  0.000  0.000  1.000  0.000
  0.000  0.000  0.000  0.000  1.000
    occupations:
  1.000  0.000  0.000  0.000  0.000
  0.000  1.000  0.000  0.000  0.000
  0.000  0.000  1.000  0.000  0.000
  0.000  0.000  0.000  1.000  0.000
  0.000  0.000  0.000  0.000  1.000
atomic mag. moment =    -2.000000
atom    9   Tr[ns(na)] (up, down, total) =   2.00000  2.00000  4.00000
   spin  1
    eigenvalues: 
  0.667  0.667  0.667
    eigenvectors:
  1.000  0.000  0.000
  0.000  1.000  0.000
  0.000  0.000  1.000
    occupations:
  0.667  0.000  0.000
  0.000  0.667  0.000
  0.000  0.000  0.667
   spin  2
    eigenvalues: 
  0.667  0.667  0.667
    eigenvectors:
  1.000  0.000  0.000
  0.000  1.000  0.000
  0.000  0.000  1.000
    occupations:
  0.667  0.000  0.000
  0.000  0.667  0.000
  0.000  0.000  0.667
atomic mag. moment =     0.000000
atom   10   Tr[ns(na)] (up, down, total) =   2.00000  2.00000  4.00000
   spin  1
    eigenvalues: 
  0.667  0.667  0.667
    eigenvectors:
  1.000  0.000  0.000
  0.000  1.000  0.000
  0.000  0.000  1.000
    occupations:
  0.667  0.000  0.000
  0.000  0.667  0.000
  0.000  0.000  0.667
   spin  2
    eigenvalues: 
  0.667  0.667  0.667
    eigenvectors:
  1.000  0.000  0.000
  0.000  1.000  0.000
  0.000  0.000  1.000
    occupations:
  0.667  0.000  0.000
  0.000  0.667  0.000
  0.000  0.000  0.667
atomic mag. moment =     0.000000
atom   11   Tr[ns(na)] (up, down, total) =   2.00000  2.00000  4.00000
   spin  1
    eigenvalues: 
  0.667  0.667  0.667
    eigenvectors:
  1.000  0.000  0.000
  0.000  1.000  0.000
  0.000  0.000  1.000
    occupations:
  0.667  0.000  0.000
  0.000  0.667  0.000
  0.000  0.000  0.667
   spin  2
    eigenvalues: 
  0.667  0.667  0.667
    eigenvectors:
  1.000  0.000  0.000
  0.000  1.000  0.000
  0.000  0.000  1.000
    occupations:
  0.667  0.000  0.000
  0.000  0.667  0.000
  0.000  0.000  0.667
atomic mag. moment =     0.000000
atom   12   Tr[ns(na)] (up, down, total) =   2.00000  2.00000  4.00000
   spin  1
    eigenvalues: 
  0.667  0.667  0.667
    eigenvectors:
  1.000  0.000  0.000
  0.000  1.000  0.000
  0.000  0.000  1.000
    occupations:
  0.667  0.000  0.000
  0.000  0.667  0.000
  0.000  0.000  0.667
   spin  2
    eigenvalues: 
  0.667  0.667  0.667
    eigenvectors:
  1.000  0.000  0.000
  0.000  1.000  0.000
  0.000  0.000  1.000
    occupations:
  0.667  0.000  0.000
  0.000  0.667  0.000
  0.000  0.000  0.667
atomic mag. moment =     0.000000
atom   13   Tr[ns(na)] (up, down, total) =   2.00000  2.00000  4.00000
   spin  1
    eigenvalues: 
  0.667  0.667  0.667
    eigenvectors:
  1.000  0.000  0.000
  0.000  1.000  0.000
  0.000  0.000  1.000
    occupations:
  0.667  0.000  0.000
  0.000  0.667  0.000
  0.000  0.000  0.667
   spin  2
    eigenvalues: 
  0.667  0.667  0.667
    eigenvectors:
  1.000  0.000  0.000
  0.000  1.000  0.000
  0.000  0.000  1.000
    occupations:
  0.667  0.000  0.000
  0.000  0.667  0.000
  0.000  0.000  0.667
atomic mag. moment =     0.000000
atom   14   Tr[ns(na)] (up, down, total) =   2.00000  2.00000  4.00000
   spin  1
    eigenvalues: 
  0.667  0.667  0.667
    eigenvectors:
  1.000  0.000  0.000
  0.000  1.000  0.000
  0.000  0.000  1.000
    occupations:
  0.667  0.000  0.000
  0.000  0.667  0.000
  0.000  0.000  0.667
   spin  2
    eigenvalues: 
  0.667  0.667  0.667
    eigenvectors:
  1.000  0.000  0.000
  0.000  1.000  0.000
  0.000  0.000  1.000
    occupations:
  0.667  0.000  0.000
  0.000  0.667  0.000
  0.000  0.000  0.667
atomic mag. moment =     0.000000
atom   15   Tr[ns(na)] (up, down, total) =   2.00000  2.00000  4.00000
   spin  1
    eigenvalues: 
  0.667  0.667  0.667
    eigenvectors:
  1.000  0.000  0.000
  0.000  1.000  0.000
  0.000  0.000  1.000
    occupations:
  0.667  0.000  0.000
  0.000  0.667  0.000
  0.000  0.000  0.667
   spin  2
    eigenvalues: 
  0.667  0.667  0.667
    eigenvectors:
  1.000  0.000  0.000
  0.000  1.000  0.000
  0.000  0.000  1.000
    occupations:
  0.667  0.000  0.000
  0.000  0.667  0.000
  0.000  0.000  0.667
atomic mag. moment =     0.000000
atom   16   Tr[ns(na)] (up, down, total) =   2.00000  2.00000  4.00000
   spin  1
    eigenvalues: 
  0.667  0.667  0.667
    eigenvectors:
  1.000  0.000  0.000
  0.000  1.000  0.000
  0.000  0.000  1.000
    occupations:
  0.667  0.000  0.000
  0.000  0.667  0.000
  0.000  0.000  0.667
   spin  2
    eigenvalues: 
  0.667  0.667  0.667
    eigenvectors:
  1.000  0.000  0.000
  0.000  1.000  0.000
  0.000  0.000  1.000
    occupations:
  0.667  0.000  0.000
  0.000  0.667  0.000
  0.000  0.000  0.667
atomic mag. moment =     0.000000
N of occupied +U levels =  96.0000000
 --- exit write_ns ---
 Atomic wfc used for LDA+U Projector are NOT orthogonalized
     Starting wfc are   80 randomized atomic wfcs

     total cpu time spent up to now is       30.6 secs

     per-process dynamical memory:    59.8 Mb

     Self-consistent Calculation

     iteration #  1     ecut=    30.00 Ry     beta=0.30
     Davidson diagonalization with overlap
     ethr =  1.00E-02,  avg # of iterations =  3.0
 --- enter write_ns ---
 LDA+U parameters:
U( 1)     =  0.00000000
alpha( 1) =  0.00000000
U( 2)     =  0.00000000
alpha( 2) =  0.00000000
U( 3)     =  0.00000000
alpha( 3) =  0.00000000
U( 4)     =  0.00000000
alpha( 4) =  0.00000000
atom    1   Tr[ns(na)] (up, down, total) =   4.98476  3.08069  8.06544
   spin  1
    eigenvalues: 
  0.995  0.995  0.998  0.998  0.998
    eigenvectors:
  0.250  0.750  0.000  0.000  0.000
  0.000  0.000  0.000  0.665  0.334
  0.000  0.000  0.500  0.167  0.333
  0.750  0.250  0.000  0.000  0.000
  0.000  0.000  0.500  0.167  0.333
    occupations:
  0.995  0.000  0.000  0.000  0.000
  0.000  0.998  0.000  0.000  0.000
  0.000  0.000  0.998  0.000  0.000
  0.000  0.000  0.000  0.995  0.000
  0.000  0.000  0.000  0.000  0.998
   spin  2
    eigenvalues: 
  0.241  0.241  0.851  0.851  0.896
    eigenvectors:
  0.750  0.250  0.000  0.000  0.000
  0.000  0.000  0.000  0.667  0.333
  0.000  0.000  0.500  0.166  0.333
  0.250  0.750  0.000  0.000  0.000
  0.000  0.000  0.500  0.166  0.333
    occupations:
  0.241 -0.005  0.005  0.000 -0.010
 -0.005  0.866 -0.015 -0.009 -0.015
  0.005 -0.015  0.866 -0.009  0.015
  0.000 -0.009 -0.009  0.241  0.000
 -0.010 -0.015  0.015  0.000  0.866
atomic mag. moment =     1.904068
atom    2   Tr[ns(na)] (up, down, total) =   4.98476  3.08069  8.06544
   spin  1
    eigenvalues: 
  0.995  0.995  0.998  0.998  0.998
    eigenvectors:
  0.250  0.750  0.000  0.000  0.000
  0.000  0.000  0.500  0.167  0.333
  0.000  0.000  0.000  0.665  0.334
  0.750  0.250  0.000  0.000  0.000
  0.000  0.000  0.500  0.167  0.333
    occupations:
  0.995  0.000  0.000  0.000  0.000
  0.000  0.998  0.000  0.000  0.000
  0.000  0.000  0.998  0.000  0.000
  0.000  0.000  0.000  0.995  0.000
  0.000  0.000  0.000  0.000  0.998
   spin  2
    eigenvalues: 
  0.241  0.241  0.851  0.851  0.896
    eigenvectors:
  0.750  0.250  0.000  0.000  0.000
  0.000  0.000  0.500  0.166  0.333
  0.000  0.000  0.000  0.667  0.333
  0.250  0.750  0.000  0.000  0.000
  0.000  0.000  0.500  0.166  0.333
    occupations:
  0.241 -0.005  0.005  0.000 -0.010
 -0.005  0.866 -0.015 -0.009 -0.015
  0.005 -0.015  0.866 -0.009  0.015
  0.000 -0.009 -0.009  0.241  0.000
 -0.010 -0.015  0.015  0.000  0.866
atomic mag. moment =     1.904068
atom    3   Tr[ns(na)] (up, down, total) =   4.98476  3.08069  8.06544
   spin  1
    eigenvalues: 
  0.995  0.995  0.998  0.998  0.998
    eigenvectors:
  0.999  0.000  0.000  0.001  0.000
  0.000  0.000  0.500  0.167  0.333
  0.000  0.000  0.500  0.167  0.333
  0.000  0.999  0.001  0.000  0.000
  0.000  0.000  0.000  0.665  0.334
    occupations:
  0.995  0.000  0.000  0.000  0.000
  0.000  0.998  0.000  0.000  0.000
  0.000  0.000  0.998  0.000  0.000
  0.000  0.000  0.000  0.995  0.000
  0.000  0.000  0.000  0.000  0.998
   spin  2
    eigenvalues: 
  0.241  0.241  0.851  0.851  0.896
    eigenvectors:
  0.000  1.000  0.000  0.000  0.000
  0.000  0.000  0.500  0.166  0.333
  0.000  0.000  0.500  0.166  0.333
  1.000  0.000  0.000  0.000  0.000
  0.000  0.000  0.000  0.667  0.333
    occupations:
  0.241 -0.005  0.005  0.000 -0.010
 -0.005  0.866 -0.015 -0.009 -0.015
  0.005 -0.015  0.866 -0.009  0.015
  0.000 -0.009 -0.009  0.241  0.000
 -0.010 -0.015  0.015  0.000  0.866
atomic mag. moment =     1.904068
atom    4   Tr[ns(na)] (up, down, total) =   4.98474  3.08064  8.06538
   spin  1
    eigenvalues: 
  0.995  0.995  0.998  0.998  0.998
    eigenvectors:
  0.013  0.986  0.000  0.000  0.000
  0.000  0.000  0.054  0.613  0.333
  0.000  0.000  0.630  0.036  0.333
  0.986  0.013  0.000  0.000  0.000
  0.000  0.000  0.316  0.351  0.333
    occupations:
  0.995  0.000  0.000  0.000  0.000
  0.000  0.998  0.000  0.000  0.000
  0.000  0.000  0.998  0.000  0.000
  0.000  0.000  0.000  0.995  0.000
  0.000  0.000  0.000  0.000  0.998
   spin  2
    eigenvalues: 
  0.241  0.241  0.851  0.851  0.896
    eigenvectors:
  0.004  0.996  0.000  0.000  0.000
  0.000  0.000  0.048  0.618  0.333
  0.000  0.000  0.625  0.041  0.333
  0.996  0.004  0.000  0.000  0.000
  0.000  0.000  0.326  0.340  0.333
    occupations:
  0.241 -0.005  0.005  0.000 -0.010
 -0.005  0.866 -0.015 -0.009 -0.015
  0.005 -0.015  0.866 -0.009  0.015
  0.000 -0.009 -0.009  0.241  0.000
 -0.010 -0.015  0.015  0.000  0.866
atomic mag. moment =     1.904106
atom    5   Tr[ns(na)] (up, down, total) =   3.08058  4.98474  8.06532
   spin  1
    eigenvalues: 
  0.241  0.241  0.851  0.851  0.896
    eigenvectors:
  0.076  0.923  0.000  0.000  0.000
  0.000  0.000  0.043  0.623  0.333
  0.000  0.000  0.620  0.046  0.333
  0.923  0.076  0.000  0.000  0.000
  0.000  0.000  0.336  0.330  0.333
    occupations:
  0.241 -0.005  0.005  0.000 -0.010
 -0.005  0.866 -0.015 -0.009 -0.015
  0.005 -0.015  0.866 -0.009  0.015
  0.000 -0.009 -0.009  0.241  0.000
 -0.010 -0.015  0.015  0.000  0.866
   spin  2
    eigenvalues: 
  0.995  0.995  0.998  0.998  0.998
    eigenvectors:
  0.001  0.998  0.000  0.000  0.000
  0.000  0.000  0.049  0.617  0.333
  0.000  0.000  0.626  0.041  0.333
  0.998  0.001  0.000  0.000  0.000
  0.000  0.000  0.325  0.342  0.333
    occupations:
  0.995  0.000  0.000  0.000  0.000
  0.000  0.998  0.000  0.000  0.000
  0.000  0.000  0.998  0.000  0.000
  0.000  0.000  0.000  0.995  0.000
  0.000  0.000  0.000  0.000  0.998
atomic mag. moment =    -1.904160
atom    6   Tr[ns(na)] (up, down, total) =   3.08059  4.98475  8.06534
   spin  1
    eigenvalues: 
  0.241  0.241  0.851  0.851  0.896
    eigenvectors:
  1.000  0.000  0.000  0.000  0.000
  0.000  0.000  0.167  0.500  0.333
  0.000  0.000  0.167  0.500  0.333
  0.000  1.000  0.000  0.000  0.000
  0.000  0.000  0.666  0.000  0.333
    occupations:
  0.241 -0.005  0.005  0.000 -0.010
 -0.005  0.866 -0.015 -0.009 -0.015
  0.005 -0.015  0.866 -0.009  0.015
  0.000 -0.009 -0.009  0.241  0.000
 -0.010 -0.015  0.015  0.000  0.866
   spin  2
    eigenvalues: 
  0.995  0.995  0.998  0.998  0.998
    eigenvectors:
  0.000  0.999  0.001  0.000  0.000
  0.000  0.000  0.164  0.500  0.336
  0.000  0.000  0.164  0.500  0.336
  0.999  0.000  0.000  0.001  0.000
  0.000  0.000  0.672  0.000  0.328
    occupations:
  0.995  0.000  0.000  0.000  0.000
  0.000  0.998  0.000  0.000  0.000
  0.000  0.000  0.998  0.000  0.000
  0.000  0.000  0.000  0.995  0.000
  0.000  0.000  0.000  0.000  0.998
atomic mag. moment =    -1.904159
atom    7   Tr[ns(na)] (up, down, total) =   3.08059  4.98475  8.06534
   spin  1
    eigenvalues: 
  0.241  0.241  0.851  0.851  0.896
    eigenvectors:
  0.250  0.750  0.000  0.000  0.000
  0.000  0.000  0.167  0.500  0.333
  0.000  0.000  0.666  0.000  0.333
  0.750  0.250  0.000  0.000  0.000
  0.000  0.000  0.167  0.500  0.333
    occupations:
  0.241 -0.005  0.005  0.000 -0.010
 -0.005  0.866 -0.015 -0.009 -0.015
  0.005 -0.015  0.866 -0.009  0.015
  0.000 -0.009 -0.009  0.241  0.000
 -0.010 -0.015  0.015  0.000  0.866
   spin  2
    eigenvalues: 
  0.995  0.995  0.998  0.998  0.998
    eigenvectors:
  0.750  0.250  0.000  0.000  0.000
  0.000  0.000  0.164  0.500  0.336
  0.000  0.000  0.672  0.000  0.328
  0.250  0.750  0.000  0.000  0.000
  0.000  0.000  0.164  0.500  0.336
    occupations:
  0.995  0.000  0.000  0.000  0.000
  0.000  0.998  0.000  0.000  0.000
  0.000  0.000  0.998  0.000  0.000
  0.000  0.000  0.000  0.995  0.000
  0.000  0.000  0.000  0.000  0.998
atomic mag. moment =    -1.904159
atom    8   Tr[ns(na)] (up, down, total) =   3.08059  4.98475  8.06534
   spin  1
    eigenvalues: 
  0.241  0.241  0.851  0.851  0.896
    eigenvectors:
  0.250  0.750  0.000  0.000  0.000
  0.000  0.000  0.666  0.000  0.333
  0.000  0.000  0.167  0.500  0.333
  0.750  0.250  0.000  0.000  0.000
  0.000  0.000  0.167  0.500  0.333
    occupations:
  0.241 -0.005  0.005  0.000 -0.010
 -0.005  0.866 -0.015 -0.009 -0.015
  0.005 -0.015  0.866 -0.009  0.015
  0.000 -0.009 -0.009  0.241  0.000
 -0.010 -0.015  0.015  0.000  0.866
   spin  2
    eigenvalues: 
  0.995  0.995  0.998  0.998  0.998
    eigenvectors:
  0.750  0.250  0.000  0.000  0.000
  0.000  0.000  0.672  0.000  0.328
  0.000  0.000  0.164  0.500  0.336
  0.250  0.750  0.000  0.000  0.000
  0.000  0.000  0.164  0.500  0.336
    occupations:
  0.995  0.000  0.000  0.000  0.000
  0.000  0.998  0.000  0.000  0.000
  0.000  0.000  0.998  0.000  0.000
  0.000  0.000  0.000  0.995  0.000
  0.000  0.000  0.000  0.000  0.998
atomic mag. moment =    -1.904159
atom    9   Tr[ns(na)] (up, down, total) =   2.96540  2.96540  5.93080
   spin  1
    eigenvalues: 
  0.988  0.988  0.989
    eigenvectors:
  0.127  0.540  0.333
  0.210  0.456  0.333
  0.663  0.004  0.333
    occupations:
  0.988  0.000  0.000
  0.000  0.988  0.000
  0.000  0.000  0.988
   spin  2
    eigenvalues: 
  0.988  0.988  0.989
    eigenvectors:
  0.105  0.562  0.333
  0.237  0.430  0.333
  0.658  0.009  0.333
    occupations:
  0.988  0.000  0.000
  0.000  0.988  0.000
  0.000  0.000  0.988
atomic mag. moment =    -0.000006
atom   10   Tr[ns(na)] (up, down, total) =   2.96542  2.96540  5.93082
   spin  1
    eigenvalues: 
  0.988  0.988  0.989
    eigenvectors:
  0.167  0.500  0.333
  0.167  0.500  0.333
  0.667  0.000  0.333
    occupations:
  0.988  0.000  0.000
  0.000  0.988  0.000
  0.000  0.000  0.988
   spin  2
    eigenvalues: 
  0.988  0.988  0.989
    eigenvectors:
  0.166  0.500  0.334
  0.166  0.500  0.334
  0.668  0.000  0.332
    occupations:
  0.988  0.000  0.000
  0.000  0.988  0.000
  0.000  0.000  0.988
atomic mag. moment =     0.000012
atom   11   Tr[ns(na)] (up, down, total) =   2.96542  2.96540  5.93082
   spin  1
    eigenvalues: 
  0.988  0.988  0.989
    eigenvectors:
  0.167  0.500  0.333
  0.667  0.000  0.333
  0.167  0.500  0.333
    occupations:
  0.988  0.000  0.000
  0.000  0.988  0.000
  0.000  0.000  0.988
   spin  2
    eigenvalues: 
  0.988  0.988  0.989
    eigenvectors:
  0.166  0.500  0.334
  0.668  0.000  0.332
  0.166  0.500  0.334
    occupations:
  0.988  0.000  0.000
  0.000  0.988  0.000
  0.000  0.000  0.988
atomic mag. moment =     0.000012
atom   12   Tr[ns(na)] (up, down, total) =   2.96542  2.96540  5.93082
   spin  1
    eigenvalues: 
  0.988  0.988  0.989
    eigenvectors:
  0.667  0.000  0.333
  0.167  0.500  0.333
  0.167  0.500  0.333
    occupations:
  0.988  0.000  0.000
  0.000  0.988  0.000
  0.000  0.000  0.988
   spin  2
    eigenvalues: 
  0.988  0.988  0.989
    eigenvectors:
  0.668  0.000  0.332
  0.166  0.500  0.334
  0.166  0.500  0.334
    occupations:
  0.988  0.000  0.000
  0.000  0.988  0.000
  0.000  0.000  0.988
atomic mag. moment =     0.000012
atom   13   Tr[ns(na)] (up, down, total) =   2.96541  2.96540  5.93081
   spin  1
    eigenvalues: 
  0.988  0.988  0.989
    eigenvectors:
  0.000  0.667  0.333
  0.500  0.166  0.334
  0.500  0.166  0.334
    occupations:
  0.988  0.000  0.000
  0.000  0.988  0.000
  0.000  0.000  0.988
   spin  2
    eigenvalues: 
  0.988  0.988  0.989
    eigenvectors:
  0.662  0.000  0.338
  0.169  0.500  0.331
  0.169  0.500  0.331
    occupations:
  0.988  0.000  0.000
  0.000  0.988  0.000
  0.000  0.000  0.988
atomic mag. moment =     0.000009
atom   14   Tr[ns(na)] (up, down, total) =   2.96541  2.96540  5.93081
   spin  1
    eigenvalues: 
  0.988  0.988  0.989
    eigenvectors:
  0.500  0.166  0.334
  0.000  0.667  0.333
  0.500  0.166  0.334
    occupations:
  0.988  0.000  0.000
  0.000  0.988  0.000
  0.000  0.000  0.988
   spin  2
    eigenvalues: 
  0.988  0.988  0.989
    eigenvectors:
  0.169  0.500  0.331
  0.662  0.000  0.338
  0.169  0.500  0.331
    occupations:
  0.988  0.000  0.000
  0.000  0.988  0.000
  0.000  0.000  0.988
atomic mag. moment =     0.000009
atom   15   Tr[ns(na)] (up, down, total) =   2.96541  2.96540  5.93081
   spin  1
    eigenvalues: 
  0.988  0.988  0.989
    eigenvectors:
  0.500  0.166  0.334
  0.500  0.166  0.334
  0.000  0.667  0.333
    occupations:
  0.988  0.000  0.000
  0.000  0.988  0.000
  0.000  0.000  0.988
   spin  2
    eigenvalues: 
  0.988  0.988  0.989
    eigenvectors:
  0.169  0.500  0.331
  0.169  0.500  0.331
  0.662  0.000  0.338
    occupations:
  0.988  0.000  0.000
  0.000  0.988  0.000
  0.000  0.000  0.988
atomic mag. moment =     0.000009
atom   16   Tr[ns(na)] (up, down, total) =   2.96541  2.96539  5.93080
   spin  1
    eigenvalues: 
  0.988  0.988  0.989
    eigenvectors:
  0.066  0.601  0.333
  0.295  0.371  0.333
  0.639  0.027  0.333
    occupations:
  0.988  0.000  0.000
  0.000  0.988  0.000
  0.000  0.000  0.988
   spin  2
    eigenvalues: 
  0.988  0.988  0.989
    eigenvectors:
  0.088  0.579  0.333
  0.261  0.406  0.333
  0.651  0.015  0.333
    occupations:
  0.988  0.000  0.000
  0.000  0.988  0.000
  0.000  0.000  0.988
atomic mag. moment =     0.000016
N of occupied +U levels = 111.9695572
 --- exit write_ns ---
 --- in v_hubbard ---
Hubbard energy    0.0000
 -------

     total cpu time spent up to now is       96.9 secs

     total energy              =    -938.82290405 Ry
     Harris-Foulkes estimate   =    -942.63298589 Ry
     estimated scf accuracy    <      10.04213490 Ry

     total magnetization       =     0.00 Bohr mag/cell
     absolute magnetization    =    18.44 Bohr mag/cell

     iteration #  2     ecut=    30.00 Ry     beta=0.30
     Davidson diagonalization with overlap
     ethr =  7.85E-03,  avg # of iterations =  2.1
 --- enter write_ns ---
 LDA+U parameters:
U( 1)     =  0.00000000
alpha( 1) =  0.00000000
U( 2)     =  0.00000000
alpha( 2) =  0.00000000
U( 3)     =  0.00000000
alpha( 3) =  0.00000000
U( 4)     =  0.00000000
alpha( 4) =  0.00000000
atom    1   Tr[ns(na)] (up, down, total) =   4.96687  3.85343  8.82030
   spin  1
    eigenvalues: 
  0.988  0.988  0.997  0.997  0.997
    eigenvectors:
  0.750  0.250  0.000  0.000  0.000
  0.000  0.000  0.333  0.666  0.000
  0.000  0.000  0.333  0.167  0.500
  0.250  0.750  0.000  0.000  0.000
  0.000  0.000  0.333  0.167  0.500
    occupations:
  0.988  0.000  0.000  0.000  0.000
  0.000  0.997  0.000  0.000  0.000
  0.000  0.000  0.997  0.000  0.000
  0.000  0.000  0.000  0.988  0.000
  0.000  0.000  0.000  0.000  0.997
   spin  2
    eigenvalues: 
  0.441  0.441  0.990  0.990  0.990
    eigenvectors:
  0.250  0.750  0.000  0.000  0.000
  0.000  0.000  0.673  0.000  0.327
  0.000  0.000  0.163  0.500  0.337
  0.750  0.250  0.000  0.000  0.000
  0.000  0.000  0.163  0.500  0.337
    occupations:
  0.442 -0.004  0.004  0.000 -0.008
 -0.004  0.990  0.000 -0.007  0.000
  0.004  0.000  0.990 -0.007  0.000
  0.000 -0.007 -0.007  0.442  0.000
 -0.008  0.000  0.000  0.000  0.990
atomic mag. moment =     1.113436
atom    2   Tr[ns(na)] (up, down, total) =   4.96687  3.85343  8.82030
   spin  1
    eigenvalues: 
  0.988  0.988  0.997  0.997  0.997
    eigenvectors:
  0.750  0.250  0.000  0.000  0.000
  0.000  0.000  0.333  0.167  0.500
  0.000  0.000  0.333  0.666  0.000
  0.250  0.750  0.000  0.000  0.000
  0.000  0.000  0.333  0.167  0.500
    occupations:
  0.988  0.000  0.000  0.000  0.000
  0.000  0.997  0.000  0.000  0.000
  0.000  0.000  0.997  0.000  0.000
  0.000  0.000  0.000  0.988  0.000
  0.000  0.000  0.000  0.000  0.997
   spin  2
    eigenvalues: 
  0.441  0.441  0.990  0.990  0.990
    eigenvectors:
  0.250  0.750  0.000  0.000  0.000
  0.000  0.000  0.163  0.500  0.337
  0.000  0.000  0.673  0.000  0.327
  0.750  0.250  0.000  0.000  0.000
  0.000  0.000  0.163  0.500  0.337
    occupations:
  0.442 -0.004  0.004  0.000 -0.008
 -0.004  0.990  0.000 -0.007  0.000
  0.004  0.000  0.990 -0.007  0.000
  0.000 -0.007 -0.007  0.442  0.000
 -0.008  0.000  0.000  0.000  0.990
atomic mag. moment =     1.113436
atom    3   Tr[ns(na)] (up, down, total) =   4.96687  3.85343  8.82030
   spin  1
    eigenvalues: 
  0.988  0.988  0.997  0.997  0.997
    eigenvectors:
  0.000  1.000  0.000  0.000  0.000
  0.000  0.000  0.333  0.167  0.500
  0.000  0.000  0.333  0.167  0.500
  1.000  0.000  0.000  0.000  0.000
  0.000  0.000  0.333  0.666  0.000
    occupations:
  0.988  0.000  0.000  0.000  0.000
  0.000  0.997  0.000  0.000  0.000
  0.000  0.000  0.997  0.000  0.000
  0.000  0.000  0.000  0.988  0.000
  0.000  0.000  0.000  0.000  0.997
   spin  2
    eigenvalues: 
  0.441  0.441  0.990  0.990  0.990
    eigenvectors:
  1.000  0.000  0.000  0.000  0.000
  0.000  0.000  0.163  0.500  0.337
  0.000  0.000  0.163  0.500  0.337
  0.000  1.000  0.000  0.000  0.000
  0.000  0.000  0.673  0.000  0.327
    occupations:
  0.442 -0.004  0.004  0.000 -0.008
 -0.004  0.990  0.000 -0.007  0.000
  0.004  0.000  0.990 -0.007  0.000
  0.000 -0.007 -0.007  0.442  0.000
 -0.008  0.000  0.000  0.000  0.990
atomic mag. moment =     1.113436
atom    4   Tr[ns(na)] (up, down, total) =   4.96687  3.85354  8.82041
   spin  1
    eigenvalues: 
  0.988  0.988  0.997  0.997  0.997
    eigenvectors:
  0.020  0.979  0.000  0.000  0.000
  0.000  0.000  0.333  0.067  0.599
  0.000  0.000  0.333  0.640  0.026
  0.979  0.020  0.000  0.000  0.000
  0.000  0.000  0.333  0.292  0.374
    occupations:
  0.988  0.000  0.000  0.000  0.000
  0.000  0.997  0.000  0.000  0.000
  0.000  0.000  0.997  0.000  0.000
  0.000  0.000  0.000  0.988  0.000
  0.000  0.000  0.000  0.000  0.997
   spin  2
    eigenvalues: 
  0.442  0.442  0.990  0.990  0.990
    eigenvectors:
  0.007  0.992  0.000  0.000  0.000
  0.000  0.000  0.048  0.618  0.333
  0.000  0.000  0.625  0.041  0.333
  0.992  0.007  0.000  0.000  0.000
  0.000  0.000  0.326  0.340  0.333
    occupations:
  0.442 -0.004  0.004  0.000 -0.008
 -0.004  0.990  0.000 -0.007  0.000
  0.004  0.000  0.990 -0.007  0.000
  0.000 -0.007 -0.007  0.442  0.000
 -0.008  0.000  0.000  0.000  0.990
atomic mag. moment =     1.113329
atom    5   Tr[ns(na)] (up, down, total) =   3.85364  4.96687  8.82051
   spin  1
    eigenvalues: 
  0.442  0.442  0.990  0.990  0.990
    eigenvectors:
  0.044  0.955  0.000  0.000  0.000
  0.000  0.000  0.057  0.610  0.333
  0.000  0.000  0.633  0.034  0.333
  0.955  0.044  0.000  0.000  0.000
  0.000  0.000  0.310  0.356  0.333
    occupations:
  0.442 -0.004  0.004  0.000 -0.008
 -0.004  0.990  0.000 -0.007  0.000
  0.004  0.000  0.990 -0.007  0.000
  0.000 -0.007 -0.007  0.442  0.000
 -0.008  0.000  0.000  0.000  0.990
   spin  2
    eigenvalues: 
  0.988  0.988  0.997  0.997  0.997
    eigenvectors:
  0.002  0.998  0.000  0.000  0.000
  0.000  0.000  0.333  0.060  0.606
  0.000  0.000  0.333  0.635  0.031
  0.998  0.002  0.000  0.000  0.000
  0.000  0.000  0.333  0.304  0.363
    occupations:
  0.988  0.000  0.000  0.000  0.000
  0.000  0.997  0.000  0.000  0.000
  0.000  0.000  0.997  0.000  0.000
  0.000  0.000  0.000  0.988  0.000
  0.000  0.000  0.000  0.000  0.997
atomic mag. moment =    -1.113232
atom    6   Tr[ns(na)] (up, down, total) =   3.85359  4.96688  8.82047
   spin  1
    eigenvalues: 
  0.442  0.442  0.990  0.990  0.990
    eigenvectors:
  1.000  0.000  0.000  0.000  0.000
  0.000  0.000  0.156  0.500  0.344
  0.000  0.000  0.156  0.500  0.344
  0.000  1.000  0.000  0.000  0.000
  0.000  0.000  0.688  0.000  0.312
    occupations:
  0.442 -0.004  0.004  0.000 -0.008
 -0.004  0.990  0.000 -0.007  0.000
  0.004  0.000  0.990 -0.007  0.000
  0.000 -0.007 -0.007  0.442  0.000
 -0.008  0.000  0.000  0.000  0.990
   spin  2
    eigenvalues: 
  0.988  0.988  0.997  0.997  0.997
    eigenvectors:
  0.000  1.000  0.000  0.000  0.000
  0.000  0.000  0.333  0.167  0.500
  0.000  0.000  0.333  0.167  0.500
  1.000  0.000  0.000  0.000  0.000
  0.000  0.000  0.334  0.666  0.000
    occupations:
  0.988  0.000  0.000  0.000  0.000
  0.000  0.997  0.000  0.000  0.000
  0.000  0.000  0.997  0.000  0.000
  0.000  0.000  0.000  0.988  0.000
  0.000  0.000  0.000  0.000  0.997
atomic mag. moment =    -1.113293
atom    7   Tr[ns(na)] (up, down, total) =   3.85359  4.96688  8.82047
   spin  1
    eigenvalues: 
  0.442  0.442  0.990  0.990  0.990
    eigenvectors:
  0.250  0.750  0.000  0.000  0.000
  0.000  0.000  0.156  0.500  0.344
  0.000  0.000  0.688  0.000  0.312
  0.750  0.250  0.000  0.000  0.000
  0.000  0.000  0.156  0.500  0.344
    occupations:
  0.442 -0.004  0.004  0.000 -0.008
 -0.004  0.990  0.000 -0.007  0.000
  0.004  0.000  0.990 -0.007  0.000
  0.000 -0.007 -0.007  0.442  0.000
 -0.008  0.000  0.000  0.000  0.990
   spin  2
    eigenvalues: 
  0.988  0.988  0.997  0.997  0.997
    eigenvectors:
  0.750  0.250  0.000  0.000  0.000
  0.000  0.000  0.333  0.167  0.500
  0.000  0.000  0.334  0.666  0.000
  0.250  0.750  0.000  0.000  0.000
  0.000  0.000  0.333  0.167  0.500
    occupations:
  0.988  0.000  0.000  0.000  0.000
  0.000  0.997  0.000  0.000  0.000
  0.000  0.000  0.997  0.000  0.000
  0.000  0.000  0.000  0.988  0.000
  0.000  0.000  0.000  0.000  0.997
atomic mag. moment =    -1.113293
atom    8   Tr[ns(na)] (up, down, total) =   3.85359  4.96688  8.82047
   spin  1
    eigenvalues: 
  0.442  0.442  0.990  0.990  0.990
    eigenvectors:
  0.250  0.750  0.000  0.000  0.000
  0.000  0.000  0.688  0.000  0.312
  0.000  0.000  0.156  0.500  0.344
  0.750  0.250  0.000  0.000  0.000
  0.000  0.000  0.156  0.500  0.344
    occupations:
  0.442 -0.004  0.004  0.000 -0.008
 -0.004  0.990  0.000 -0.007  0.000
  0.004  0.000  0.990 -0.007  0.000
  0.000 -0.007 -0.007  0.442  0.000
 -0.008  0.000  0.000  0.000  0.990
   spin  2
    eigenvalues: 
  0.988  0.988  0.997  0.997  0.997
    eigenvectors:
  0.750  0.250  0.000  0.000  0.000
  0.000  0.000  0.334  0.666  0.000
  0.000  0.000  0.333  0.167  0.500
  0.250  0.750  0.000  0.000  0.000
  0.000  0.000  0.333  0.167  0.500
    occupations:
  0.988  0.000  0.000  0.000  0.000
  0.000  0.997  0.000  0.000  0.000
  0.000  0.000  0.997  0.000  0.000
  0.000  0.000  0.000  0.988  0.000
  0.000  0.000  0.000  0.000  0.997
atomic mag. moment =    -1.113293
atom    9   Tr[ns(na)] (up, down, total) =   2.73843  2.73849  5.47692
   spin  1
    eigenvalues: 
  0.912  0.912  0.914
    eigenvectors:
  0.122  0.545  0.333
  0.216  0.451  0.333
  0.662  0.004  0.333
    occupations:
  0.913  0.001 -0.001
  0.001  0.913 -0.001
 -0.001 -0.001  0.913
   spin  2
    eigenvalues: 
  0.912  0.912  0.914
    eigenvectors:
  0.122  0.545  0.333
  0.216  0.451  0.333
  0.662  0.004  0.333
    occupations:
  0.913  0.001 -0.001
  0.001  0.913 -0.001
 -0.001 -0.001  0.913
atomic mag. moment =    -0.000065
atom   10   Tr[ns(na)] (up, down, total) =   2.73837  2.73841  5.47678
   spin  1
    eigenvalues: 
  0.912  0.912  0.914
    eigenvectors:
  0.166  0.500  0.334
  0.166  0.500  0.334
  0.667  0.000  0.333
    occupations:
  0.913  0.001 -0.001
  0.001  0.913 -0.001
 -0.001 -0.001  0.913
   spin  2
    eigenvalues: 
  0.912  0.912  0.914
    eigenvectors:
  0.500  0.166  0.334
  0.500  0.166  0.334
  0.000  0.668  0.332
    occupations:
  0.913  0.001 -0.001
  0.001  0.913 -0.001
 -0.001 -0.001  0.913
atomic mag. moment =    -0.000039
atom   11   Tr[ns(na)] (up, down, total) =   2.73837  2.73841  5.47678
   spin  1
    eigenvalues: 
  0.912  0.912  0.914
    eigenvectors:
  0.166  0.500  0.334
  0.667  0.000  0.333
  0.166  0.500  0.334
    occupations:
  0.913  0.001 -0.001
  0.001  0.913 -0.001
 -0.001 -0.001  0.913
   spin  2
    eigenvalues: 
  0.912  0.912  0.914
    eigenvectors:
  0.500  0.166  0.334
  0.000  0.668  0.332
  0.500  0.166  0.334
    occupations:
  0.913  0.001 -0.001
  0.001  0.913 -0.001
 -0.001 -0.001  0.913
atomic mag. moment =    -0.000039
atom   12   Tr[ns(na)] (up, down, total) =   2.73837  2.73841  5.47678
   spin  1
    eigenvalues: 
  0.912  0.912  0.914
    eigenvectors:
  0.667  0.000  0.333
  0.166  0.500  0.334
  0.166  0.500  0.334
    occupations:
  0.913  0.001 -0.001
  0.001  0.913 -0.001
 -0.001 -0.001  0.913
   spin  2
    eigenvalues: 
  0.912  0.912  0.914
    eigenvectors:
  0.000  0.668  0.332
  0.500  0.166  0.334
  0.500  0.166  0.334
    occupations:
  0.913  0.001 -0.001
  0.001  0.913 -0.001
 -0.001 -0.001  0.913
atomic mag. moment =    -0.000039
atom   13   Tr[ns(na)] (up, down, total) =   2.73841  2.73845  5.47686
   spin  1
    eigenvalues: 
  0.912  0.912  0.914
    eigenvectors:
  0.669  0.000  0.331
  0.166  0.500  0.334
  0.166  0.500  0.334
    occupations:
  0.913  0.001 -0.001
  0.001  0.913 -0.001
 -0.001 -0.001  0.913
   spin  2
    eigenvalues: 
  0.912  0.912  0.914
    eigenvectors:
  0.669  0.000  0.331
  0.166  0.500  0.334
  0.166  0.500  0.334
    occupations:
  0.913  0.001 -0.001
  0.001  0.913 -0.001
 -0.001 -0.001  0.913
atomic mag. moment =    -0.000038
atom   14   Tr[ns(na)] (up, down, total) =   2.73841  2.73845  5.47686
   spin  1
    eigenvalues: 
  0.912  0.912  0.914
    eigenvectors:
  0.166  0.500  0.334
  0.669  0.000  0.331
  0.166  0.500  0.334
    occupations:
  0.913  0.001 -0.001
  0.001  0.913 -0.001
 -0.001 -0.001  0.913
   spin  2
    eigenvalues: 
  0.912  0.912  0.914
    eigenvectors:
  0.166  0.500  0.334
  0.669  0.000  0.331
  0.166  0.500  0.334
    occupations:
  0.913  0.001 -0.001
  0.001  0.913 -0.001
 -0.001 -0.001  0.913
atomic mag. moment =    -0.000038
atom   15   Tr[ns(na)] (up, down, total) =   2.73841  2.73845  5.47686
   spin  1
    eigenvalues: 
  0.912  0.912  0.914
    eigenvectors:
  0.166  0.500  0.334
  0.166  0.500  0.334
  0.669  0.000  0.331
    occupations:
  0.913  0.001 -0.001
  0.001  0.913 -0.001
 -0.001 -0.001  0.913
   spin  2
    eigenvalues: 
  0.912  0.912  0.914
    eigenvectors:
  0.166  0.500  0.334
  0.166  0.500  0.334
  0.669  0.000  0.331
    occupations:
  0.913  0.001 -0.001
  0.001  0.913 -0.001
 -0.001 -0.001  0.913
atomic mag. moment =    -0.000038
atom   16   Tr[ns(na)] (up, down, total) =   2.73838  2.73843  5.47681
   spin  1
    eigenvalues: 
  0.912  0.912  0.914
    eigenvectors:
  0.106  0.561  0.333
  0.236  0.430  0.333
  0.658  0.009  0.333
    occupations:
  0.913  0.001 -0.001
  0.001  0.913 -0.001
 -0.001 -0.001  0.913
   spin  2
    eigenvalues: 
  0.912  0.912  0.914
    eigenvectors:
  0.095  0.572  0.333
  0.251  0.415  0.333
  0.654  0.013  0.333
    occupations:
  0.913  0.001 -0.001
  0.001  0.913 -0.001
 -0.001 -0.001  0.913
atomic mag. moment =    -0.000053
N of occupied +U levels = 114.3778876
 --- exit write_ns ---
 --- in v_hubbard ---
Hubbard energy    0.0000
 -------

     total cpu time spent up to now is      154.9 secs

     total energy              =    -941.39069344 Ry
     Harris-Foulkes estimate   =    -941.33843940 Ry
     estimated scf accuracy    <       2.02765769 Ry

     total magnetization       =     0.00 Bohr mag/cell
     absolute magnetization    =    12.09 Bohr mag/cell

     iteration #  3     ecut=    30.00 Ry     beta=0.30
     Davidson diagonalization with overlap
     ethr =  1.58E-03,  avg # of iterations =  1.0
 --- enter write_ns ---
 LDA+U parameters:
U( 1)     =  0.00000000
alpha( 1) =  0.00000000
U( 2)     =  0.00000000
alpha( 2) =  0.00000000
U( 3)     =  0.00000000
alpha( 3) =  0.00000000
U( 4)     =  0.00000000
alpha( 4) =  0.00000000
atom    1   Tr[ns(na)] (up, down, total) =   4.96980  3.66830  8.63811
   spin  1
    eigenvalues: 
  0.988  0.988  0.998  0.998  0.998
    eigenvectors:
  0.250  0.750  0.000  0.000  0.000
  0.000  0.000  0.333  0.667  0.000
  0.000  0.000  0.333  0.167  0.500
  0.750  0.250  0.000  0.000  0.000
  0.000  0.000  0.333  0.167  0.500
    occupations:
  0.988  0.000  0.000  0.000  0.000
  0.000  0.998  0.000  0.000  0.000
  0.000  0.000  0.998  0.000  0.000
  0.000  0.000  0.000  0.988  0.000
  0.000  0.000  0.000  0.000  0.998
   spin  2
    eigenvalues: 
  0.346  0.346  0.992  0.992  0.993
    eigenvectors:
  0.250  0.750  0.000  0.000  0.000
  0.000  0.000  0.667  0.000  0.333
  0.000  0.000  0.167  0.500  0.333
  0.750  0.250  0.000  0.000  0.000
  0.000  0.000  0.167  0.500  0.333
    occupations:
  0.346 -0.003  0.003  0.000 -0.006
 -0.003  0.992  0.000 -0.006  0.000
  0.003  0.000  0.992 -0.006  0.000
  0.000 -0.006 -0.006  0.346  0.000
 -0.006  0.000  0.000  0.000  0.992
atomic mag. moment =     1.301499
atom    2   Tr[ns(na)] (up, down, total) =   4.96980  3.66830  8.63811
   spin  1
    eigenvalues: 
  0.988  0.988  0.998  0.998  0.998
    eigenvectors:
  0.250  0.750  0.000  0.000  0.000
  0.000  0.000  0.333  0.167  0.500
  0.000  0.000  0.333  0.667  0.000
  0.750  0.250  0.000  0.000  0.000
  0.000  0.000  0.333  0.167  0.500
    occupations:
  0.988  0.000  0.000  0.000  0.000
  0.000  0.998  0.000  0.000  0.000
  0.000  0.000  0.998  0.000  0.000
  0.000  0.000  0.000  0.988  0.000
  0.000  0.000  0.000  0.000  0.998
   spin  2
    eigenvalues: 
  0.346  0.346  0.992  0.992  0.993
    eigenvectors:
  0.250  0.750  0.000  0.000  0.000
  0.000  0.000  0.167  0.500  0.333
  0.000  0.000  0.667  0.000  0.333
  0.750  0.250  0.000  0.000  0.000
  0.000  0.000  0.167  0.500  0.333
    occupations:
  0.346 -0.003  0.003  0.000 -0.006
 -0.003  0.992  0.000 -0.006  0.000
  0.003  0.000  0.992 -0.006  0.000
  0.000 -0.006 -0.006  0.346  0.000
 -0.006  0.000  0.000  0.000  0.992
atomic mag. moment =     1.301499
atom    3   Tr[ns(na)] (up, down, total) =   4.96980  3.66830  8.63811
   spin  1
    eigenvalues: 
  0.988  0.988  0.998  0.998  0.998
    eigenvectors:
  1.000  0.000  0.000  0.000  0.000
  0.000  0.000  0.333  0.167  0.500
  0.000  0.000  0.333  0.167  0.500
  0.000  1.000  0.000  0.000  0.000
  0.000  0.000  0.333  0.667  0.000
    occupations:
  0.988  0.000  0.000  0.000  0.000
  0.000  0.998  0.000  0.000  0.000
  0.000  0.000  0.998  0.000  0.000
  0.000  0.000  0.000  0.988  0.000
  0.000  0.000  0.000  0.000  0.998
   spin  2
    eigenvalues: 
  0.346  0.346  0.992  0.992  0.993
    eigenvectors:
  1.000  0.000  0.000  0.000  0.000
  0.000  0.000  0.167  0.500  0.333
  0.000  0.000  0.167  0.500  0.333
  0.000  1.000  0.000  0.000  0.000
  0.000  0.000  0.667  0.000  0.333
    occupations:
  0.346 -0.003  0.003  0.000 -0.006
 -0.003  0.992  0.000 -0.006  0.000
  0.003  0.000  0.992 -0.006  0.000
  0.000 -0.006 -0.006  0.346  0.000
 -0.006  0.000  0.000  0.000  0.992
atomic mag. moment =     1.301499
atom    4   Tr[ns(na)] (up, down, total) =   4.96980  3.66831  8.63811
   spin  1
    eigenvalues: 
  0.988  0.988  0.998  0.998  0.998
    eigenvectors:
  0.017  0.983  0.000  0.000  0.000
  0.000  0.000  0.333  0.051  0.616
  0.000  0.000  0.333  0.628  0.039
  0.983  0.017  0.000  0.000  0.000
  0.000  0.000  0.333  0.321  0.346
    occupations:
  0.988  0.000  0.000  0.000  0.000
  0.000  0.998  0.000  0.000  0.000
  0.000  0.000  0.998  0.000  0.000
  0.000  0.000  0.000  0.988  0.000
  0.000  0.000  0.000  0.000  0.998
   spin  2
    eigenvalues: 
  0.346  0.346  0.992  0.992  0.993
    eigenvectors:
  0.002  0.998  0.000  0.000  0.000
  0.000  0.000  0.043  0.623  0.333
  0.000  0.000  0.621  0.046  0.333
  0.998  0.002  0.000  0.000  0.000
  0.000  0.000  0.336  0.331  0.333
    occupations:
  0.346 -0.003  0.003  0.000 -0.006
 -0.003  0.992  0.000 -0.006  0.000
  0.003  0.000  0.992 -0.006  0.000
  0.000 -0.006 -0.006  0.346  0.000
 -0.006  0.000  0.000  0.000  0.992
atomic mag. moment =     1.301489
atom    5   Tr[ns(na)] (up, down, total) =   3.66827  4.96979  8.63806
   spin  1
    eigenvalues: 
  0.345  0.345  0.992  0.992  0.993
    eigenvectors:
  0.026  0.974  0.000  0.000  0.000
  0.000  0.000  0.056  0.611  0.333
  0.000  0.000  0.632  0.035  0.333
  0.974  0.026  0.000  0.000  0.000
  0.000  0.000  0.312  0.354  0.333
    occupations:
  0.346 -0.003  0.003  0.000 -0.006
 -0.003  0.992  0.000 -0.006  0.000
  0.003  0.000  0.992 -0.006  0.000
  0.000 -0.006 -0.006  0.346  0.000
 -0.006  0.000  0.000  0.000  0.992
   spin  2
    eigenvalues: 
  0.988  0.988  0.998  0.998  0.998
    eigenvectors:
  0.020  0.980  0.000  0.000  0.000
  0.000  0.000  0.333  0.049  0.617
  0.000  0.000  0.333  0.626  0.040
  0.980  0.020  0.000  0.000  0.000
  0.000  0.000  0.333  0.324  0.343
    occupations:
  0.988  0.000  0.000  0.000  0.000
  0.000  0.998  0.000  0.000  0.000
  0.000  0.000  0.998  0.000  0.000
  0.000  0.000  0.000  0.988  0.000
  0.000  0.000  0.000  0.000  0.998
atomic mag. moment =    -1.301526
atom    6   Tr[ns(na)] (up, down, total) =   3.66825  4.96979  8.63804
   spin  1
    eigenvalues: 
  0.345  0.345  0.992  0.992  0.993
    eigenvectors:
  0.000  1.000  0.000  0.000  0.000
  0.000  0.000  0.166  0.500  0.334
  0.000  0.000  0.166  0.500  0.334
  1.000  0.000  0.000  0.000  0.000
  0.000  0.000  0.668  0.000  0.332
    occupations:
  0.346 -0.003  0.003  0.000 -0.006
 -0.003  0.992  0.000 -0.006  0.000
  0.003  0.000  0.992 -0.006  0.000
  0.000 -0.006 -0.006  0.346  0.000
 -0.006  0.000  0.000  0.000  0.992
   spin  2
    eigenvalues: 
  0.988  0.988  0.998  0.998  0.998
    eigenvectors:
  1.000  0.000  0.000  0.000  0.000
  0.000  0.000  0.321  0.179  0.500
  0.000  0.000  0.321  0.179  0.500
  0.000  1.000  0.000  0.000  0.000
  0.000  0.000  0.358  0.642  0.000
    occupations:
  0.988  0.000  0.000  0.000  0.000
  0.000  0.998  0.000  0.000  0.000
  0.000  0.000  0.998  0.000  0.000
  0.000  0.000  0.000  0.988  0.000
  0.000  0.000  0.000  0.000  0.998
atomic mag. moment =    -1.301547
atom    7   Tr[ns(na)] (up, down, total) =   3.66825  4.96979  8.63804
   spin  1
    eigenvalues: 
  0.345  0.345  0.992  0.992  0.993
    eigenvectors:
  0.750  0.250  0.000  0.000  0.000
  0.000  0.000  0.166  0.500  0.334
  0.000  0.000  0.668  0.000  0.332
  0.250  0.750  0.000  0.000  0.000
  0.000  0.000  0.166  0.500  0.334
    occupations:
  0.346 -0.003  0.003  0.000 -0.006
 -0.003  0.992  0.000 -0.006  0.000
  0.003  0.000  0.992 -0.006  0.000
  0.000 -0.006 -0.006  0.346  0.000
 -0.006  0.000  0.000  0.000  0.992
   spin  2
    eigenvalues: 
  0.988  0.988  0.998  0.998  0.998
    eigenvectors:
  0.250  0.750  0.000  0.000  0.000
  0.000  0.000  0.321  0.179  0.500
  0.000  0.000  0.358  0.642  0.000
  0.750  0.250  0.000  0.000  0.000
  0.000  0.000  0.321  0.179  0.500
    occupations:
  0.988  0.000  0.000  0.000  0.000
  0.000  0.998  0.000  0.000  0.000
  0.000  0.000  0.998  0.000  0.000
  0.000  0.000  0.000  0.988  0.000
  0.000  0.000  0.000  0.000  0.998
atomic mag. moment =    -1.301547
atom    8   Tr[ns(na)] (up, down, total) =   3.66825  4.96979  8.63804
   spin  1
    eigenvalues: 
  0.345  0.345  0.992  0.992  0.993
    eigenvectors:
  0.750  0.250  0.000  0.000  0.000
  0.000  0.000  0.668  0.000  0.332
  0.000  0.000  0.166  0.500  0.334
  0.250  0.750  0.000  0.000  0.000
  0.000  0.000  0.166  0.500  0.334
    occupations:
  0.346 -0.003  0.003  0.000 -0.006
 -0.003  0.992  0.000 -0.006  0.000
  0.003  0.000  0.992 -0.006  0.000
  0.000 -0.006 -0.006  0.346  0.000
 -0.006  0.000  0.000  0.000  0.992
   spin  2
    eigenvalues: 
  0.988  0.988  0.998  0.998  0.998
    eigenvectors:
  0.250  0.750  0.000  0.000  0.000
  0.000  0.000  0.358  0.642  0.000
  0.000  0.000  0.321  0.179  0.500
  0.750  0.250  0.000  0.000  0.000
  0.000  0.000  0.321  0.179  0.500
    occupations:
  0.988  0.000  0.000  0.000  0.000
  0.000  0.998  0.000  0.000  0.000
  0.000  0.000  0.998  0.000  0.000
  0.000  0.000  0.000  0.988  0.000
  0.000  0.000  0.000  0.000  0.998
atomic mag. moment =    -1.301547
atom    9   Tr[ns(na)] (up, down, total) =   2.82213  2.82213  5.64425
   spin  1
    eigenvalues: 
  0.940  0.940  0.942
    eigenvectors:
  0.075  0.592  0.333
  0.280  0.386  0.333
  0.645  0.022  0.333
    occupations:
  0.941  0.001 -0.001
  0.001  0.941 -0.001
 -0.001 -0.001  0.941
   spin  2
    eigenvalues: 
  0.940  0.940  0.942
    eigenvectors:
  0.092  0.575  0.333
  0.255  0.412  0.333
  0.653  0.014  0.333
    occupations:
  0.941  0.001 -0.001
  0.001  0.941 -0.001
 -0.001 -0.001  0.941
atomic mag. moment =    -0.000002
atom   10   Tr[ns(na)] (up, down, total) =   2.82216  2.82214  5.64430
   spin  1
    eigenvalues: 
  0.940  0.940  0.942
    eigenvectors:
  0.500  0.167  0.333
  0.500  0.167  0.333
  0.000  0.667  0.333
    occupations:
  0.941  0.001 -0.001
  0.001  0.941 -0.001
 -0.001 -0.001  0.941
   spin  2
    eigenvalues: 
  0.940  0.940  0.942
    eigenvectors:
  0.167  0.500  0.333
  0.167  0.500  0.333
  0.667  0.000  0.333
    occupations:
  0.941  0.001 -0.001
  0.001  0.941 -0.001
 -0.001 -0.001  0.941
atomic mag. moment =     0.000016
atom   11   Tr[ns(na)] (up, down, total) =   2.82216  2.82214  5.64430
   spin  1
    eigenvalues: 
  0.940  0.940  0.942
    eigenvectors:
  0.500  0.167  0.333
  0.000  0.667  0.333
  0.500  0.167  0.333
    occupations:
  0.941  0.001 -0.001
  0.001  0.941 -0.001
 -0.001 -0.001  0.941
   spin  2
    eigenvalues: 
  0.940  0.940  0.942
    eigenvectors:
  0.167  0.500  0.333
  0.667  0.000  0.333
  0.167  0.500  0.333
    occupations:
  0.941  0.001 -0.001
  0.001  0.941 -0.001
 -0.001 -0.001  0.941
atomic mag. moment =     0.000016
atom   12   Tr[ns(na)] (up, down, total) =   2.82216  2.82214  5.64430
   spin  1
    eigenvalues: 
  0.940  0.940  0.942
    eigenvectors:
  0.000  0.667  0.333
  0.500  0.167  0.333
  0.500  0.167  0.333
    occupations:
  0.941  0.001 -0.001
  0.001  0.941 -0.001
 -0.001 -0.001  0.941
   spin  2
    eigenvalues: 
  0.940  0.940  0.942
    eigenvectors:
  0.667  0.000  0.333
  0.167  0.500  0.333
  0.167  0.500  0.333
    occupations:
  0.941  0.001 -0.001
  0.001  0.941 -0.001
 -0.001 -0.001  0.941
atomic mag. moment =     0.000016
atom   13   Tr[ns(na)] (up, down, total) =   2.82215  2.82214  5.64429
   spin  1
    eigenvalues: 
  0.940  0.940  0.942
    eigenvectors:
  0.668  0.000  0.332
  0.166  0.500  0.334
  0.166  0.500  0.334
    occupations:
  0.941  0.001 -0.001
  0.001  0.941 -0.001
 -0.001 -0.001  0.941
   spin  2
    eigenvalues: 
  0.940  0.940  0.942
    eigenvectors:
  0.668  0.000  0.332
  0.166  0.500  0.334
  0.166  0.500  0.334
    occupations:
  0.941  0.001 -0.001
  0.001  0.941 -0.001
 -0.001 -0.001  0.941
atomic mag. moment =     0.000014
atom   14   Tr[ns(na)] (up, down, total) =   2.82215  2.82214  5.64429
   spin  1
    eigenvalues: 
  0.940  0.940  0.942
    eigenvectors:
  0.166  0.500  0.334
  0.668  0.000  0.332
  0.166  0.500  0.334
    occupations:
  0.941  0.001 -0.001
  0.001  0.941 -0.001
 -0.001 -0.001  0.941
   spin  2
    eigenvalues: 
  0.940  0.940  0.942
    eigenvectors:
  0.166  0.500  0.334
  0.668  0.000  0.332
  0.166  0.500  0.334
    occupations:
  0.941  0.001 -0.001
  0.001  0.941 -0.001
 -0.001 -0.001  0.941
atomic mag. moment =     0.000014
atom   15   Tr[ns(na)] (up, down, total) =   2.82215  2.82214  5.64429
   spin  1
    eigenvalues: 
  0.940  0.940  0.942
    eigenvectors:
  0.166  0.500  0.334
  0.166  0.500  0.334
  0.668  0.000  0.332
    occupations:
  0.941  0.001 -0.001
  0.001  0.941 -0.001
 -0.001 -0.001  0.941
   spin  2
    eigenvalues: 
  0.940  0.940  0.942
    eigenvectors:
  0.166  0.500  0.334
  0.166  0.500  0.334
  0.668  0.000  0.332
    occupations:
  0.941  0.001 -0.001
  0.001  0.941 -0.001
 -0.001 -0.001  0.941
atomic mag. moment =     0.000014
atom   16   Tr[ns(na)] (up, down, total) =   2.82216  2.82215  5.64430
   spin  1
    eigenvalues: 
  0.940  0.940  0.942
    eigenvectors:
  0.078  0.588  0.333
  0.275  0.392  0.333
  0.647  0.020  0.333
    occupations:
  0.941  0.001 -0.001
  0.001  0.941 -0.001
 -0.001 -0.001  0.941
   spin  2
    eigenvalues: 
  0.940  0.940  0.942
    eigenvectors:
  0.141  0.526  0.333
  0.194  0.472  0.333
  0.665  0.001  0.333
    occupations:
  0.941  0.001 -0.001
  0.001  0.941 -0.001
 -0.001 -0.001  0.941
atomic mag. moment =     0.000008
N of occupied +U levels = 114.2589388
 --- exit write_ns ---

     negative rho (up, down):  0.106E-03 0.107E-03
 --- in v_hubbard ---
Hubbard energy    0.0000
 -------

     total cpu time spent up to now is      206.9 secs

     total energy              =    -941.95026213 Ry
     Harris-Foulkes estimate   =    -941.52794059 Ry
     estimated scf accuracy    <       0.67058582 Ry

     total magnetization       =     0.00 Bohr mag/cell
     absolute magnetization    =    13.28 Bohr mag/cell

     iteration #  4     ecut=    30.00 Ry     beta=0.30
     Davidson diagonalization with overlap
     ethr =  5.24E-04,  avg # of iterations =  1.6
 --- enter write_ns ---
 LDA+U parameters:
U( 1)     =  0.00000000
alpha( 1) =  0.00000000
U( 2)     =  0.00000000
alpha( 2) =  0.00000000
U( 3)     =  0.00000000
alpha( 3) =  0.00000000
U( 4)     =  0.00000000
alpha( 4) =  0.00000000
atom    1   Tr[ns(na)] (up, down, total) =   4.95594  3.77559  8.73153
   spin  1
    eigenvalues: 
  0.982  0.982  0.997  0.997  0.997
    eigenvectors:
  0.750  0.250  0.000  0.000  0.000
  0.000  0.000  0.000  0.661  0.339
  0.000  0.000  0.500  0.169  0.331
  0.250  0.750  0.000  0.000  0.000
  0.000  0.000  0.500  0.169  0.331
    occupations:
  0.982  0.000  0.000  0.000  0.000
  0.000  0.997  0.000  0.000  0.000
  0.000  0.000  0.997  0.000  0.000
  0.000  0.000  0.000  0.982  0.000
  0.000  0.000  0.000  0.000  0.997
   spin  2
    eigenvalues: 
  0.395  0.395  0.995  0.995  0.996
    eigenvectors:
  0.250  0.750  0.000  0.000  0.000
  0.000  0.000  0.000  0.664  0.336
  0.000  0.000  0.500  0.168  0.332
  0.750  0.250  0.000  0.000  0.000
  0.000  0.000  0.500  0.168  0.332
    occupations:
  0.395  0.000  0.000  0.000  0.000
  0.000  0.996  0.000  0.000  0.000
  0.000  0.000  0.996  0.000  0.000
  0.000  0.000  0.000  0.395  0.000
  0.000  0.000  0.000  0.000  0.996
atomic mag. moment =     1.180349
atom    2   Tr[ns(na)] (up, down, total) =   4.95594  3.77559  8.73153
   spin  1
    eigenvalues: 
  0.982  0.982  0.997  0.997  0.997
    eigenvectors:
  0.750  0.250  0.000  0.000  0.000
  0.000  0.000  0.500  0.169  0.331
  0.000  0.000  0.000  0.661  0.339
  0.250  0.750  0.000  0.000  0.000
  0.000  0.000  0.500  0.169  0.331
    occupations:
  0.982  0.000  0.000  0.000  0.000
  0.000  0.997  0.000  0.000  0.000
  0.000  0.000  0.997  0.000  0.000
  0.000  0.000  0.000  0.982  0.000
  0.000  0.000  0.000  0.000  0.997
   spin  2
    eigenvalues: 
  0.395  0.395  0.995  0.995  0.996
    eigenvectors:
  0.250  0.750  0.000  0.000  0.000
  0.000  0.000  0.500  0.168  0.332
  0.000  0.000  0.000  0.664  0.336
  0.750  0.250  0.000  0.000  0.000
  0.000  0.000  0.500  0.168  0.332
    occupations:
  0.395  0.000  0.000  0.000  0.000
  0.000  0.996  0.000  0.000  0.000
  0.000  0.000  0.996  0.000  0.000
  0.000  0.000  0.000  0.395  0.000
  0.000  0.000  0.000  0.000  0.996
atomic mag. moment =     1.180349
atom    3   Tr[ns(na)] (up, down, total) =   4.95594  3.77559  8.73153
   spin  1
    eigenvalues: 
  0.982  0.982  0.997  0.997  0.997
    eigenvectors:
  0.000  1.000  0.000  0.000  0.000
  0.000  0.000  0.500  0.169  0.331
  0.000  0.000  0.500  0.169  0.331
  1.000  0.000  0.000  0.000  0.000
  0.000  0.000  0.000  0.661  0.339
    occupations:
  0.982  0.000  0.000  0.000  0.000
  0.000  0.997  0.000  0.000  0.000
  0.000  0.000  0.997  0.000  0.000
  0.000  0.000  0.000  0.982  0.000
  0.000  0.000  0.000  0.000  0.997
   spin  2
    eigenvalues: 
  0.395  0.395  0.995  0.995  0.996
    eigenvectors:
  1.000  0.000  0.000  0.000  0.000
  0.000  0.000  0.500  0.168  0.332
  0.000  0.000  0.500  0.168  0.332
  0.000  1.000  0.000  0.000  0.000
  0.000  0.000  0.000  0.664  0.336
    occupations:
  0.395  0.000  0.000  0.000  0.000
  0.000  0.996  0.000  0.000  0.000
  0.000  0.000  0.996  0.000  0.000
  0.000  0.000  0.000  0.395  0.000
  0.000  0.000  0.000  0.000  0.996
atomic mag. moment =     1.180349
atom    4   Tr[ns(na)] (up, down, total) =   4.95594  3.77557  8.73151
   spin  1
    eigenvalues: 
  0.982  0.982  0.997  0.997  0.997
    eigenvectors:
  0.008  0.992  0.000  0.000  0.000
  0.000  0.000  0.053  0.614  0.333
  0.000  0.000  0.630  0.037  0.333
  0.992  0.008  0.000  0.000  0.000
  0.000  0.000  0.317  0.349  0.333
    occupations:
  0.982  0.000  0.000  0.000  0.000
  0.000  0.997  0.000  0.000  0.000
  0.000  0.000  0.997  0.000  0.000
  0.000  0.000  0.000  0.982  0.000
  0.000  0.000  0.000  0.000  0.997
   spin  2
    eigenvalues: 
  0.395  0.395  0.995  0.995  0.996
    eigenvectors:
  0.013  0.987  0.000  0.000  0.000
  0.000  0.000  0.061  0.606  0.333
  0.000  0.000  0.636  0.031  0.333
  0.987  0.013  0.000  0.000  0.000
  0.000  0.000  0.303  0.363  0.333
    occupations:
  0.395  0.000  0.000  0.000  0.000
  0.000  0.996  0.000  0.000  0.000
  0.000  0.000  0.996  0.000  0.000
  0.000  0.000  0.000  0.395  0.000
  0.000  0.000  0.000  0.000  0.996
atomic mag. moment =     1.180377
atom    5   Tr[ns(na)] (up, down, total) =   3.77577  4.95599  8.73176
   spin  1
    eigenvalues: 
  0.395  0.395  0.995  0.995  0.996
    eigenvectors:
  0.028  0.972  0.000  0.000  0.000
  0.000  0.000  0.048  0.618  0.333
  0.000  0.000  0.625  0.041  0.333
  0.972  0.028  0.000  0.000  0.000
  0.000  0.000  0.326  0.340  0.333
    occupations:
  0.395  0.000  0.000  0.000  0.000
  0.000  0.996  0.000  0.000  0.000
  0.000  0.000  0.996  0.000  0.000
  0.000  0.000  0.000  0.395  0.000
  0.000  0.000  0.000  0.000  0.996
   spin  2
    eigenvalues: 
  0.982  0.982  0.997  0.997  0.997
    eigenvectors:
  0.003  0.997  0.000  0.000  0.000
  0.000  0.000  0.040  0.626  0.333
  0.000  0.000  0.617  0.049  0.333
  0.997  0.003  0.000  0.000  0.000
  0.000  0.000  0.342  0.324  0.333
    occupations:
  0.982  0.000  0.000  0.000  0.000
  0.000  0.997  0.000  0.000  0.000
  0.000  0.000  0.997  0.000  0.000
  0.000  0.000  0.000  0.982  0.000
  0.000  0.000  0.000  0.000  0.997
atomic mag. moment =    -1.180221
atom    6   Tr[ns(na)] (up, down, total) =   3.77591  4.95600  8.73191
   spin  1
    eigenvalues: 
  0.395  0.395  0.995  0.995  0.996
    eigenvectors:
  1.000  0.000  0.000  0.000  0.000
  0.000  0.000  0.500  0.169  0.331
  0.000  0.000  0.500  0.169  0.331
  0.000  1.000  0.000  0.000  0.000
  0.000  0.000  0.000  0.663  0.337
    occupations:
  0.395  0.000  0.000  0.000  0.000
  0.000  0.996  0.000  0.000  0.000
  0.000  0.000  0.996  0.000  0.000
  0.000  0.000  0.000  0.395  0.000
  0.000  0.000  0.000  0.000  0.996
   spin  2
    eigenvalues: 
  0.982  0.982  0.997  0.997  0.997
    eigenvectors:
  0.000  1.000  0.000  0.000  0.000
  0.000  0.000  0.162  0.500  0.338
  0.000  0.000  0.162  0.500  0.338
  1.000  0.000  0.000  0.000  0.000
  0.000  0.000  0.675  0.000  0.325
    occupations:
  0.982  0.000  0.000  0.000  0.000
  0.000  0.997  0.000  0.000  0.000
  0.000  0.000  0.997  0.000  0.000
  0.000  0.000  0.000  0.982  0.000
  0.000  0.000  0.000  0.000  0.997
atomic mag. moment =    -1.180092
atom    7   Tr[ns(na)] (up, down, total) =   3.77591  4.95600  8.73191
   spin  1
    eigenvalues: 
  0.395  0.395  0.995  0.995  0.996
    eigenvectors:
  0.250  0.750  0.000  0.000  0.000
  0.000  0.000  0.500  0.169  0.331
  0.000  0.000  0.000  0.663  0.337
  0.750  0.250  0.000  0.000  0.000
  0.000  0.000  0.500  0.169  0.331
    occupations:
  0.395  0.000  0.000  0.000  0.000
  0.000  0.996  0.000  0.000  0.000
  0.000  0.000  0.996  0.000  0.000
  0.000  0.000  0.000  0.395  0.000
  0.000  0.000  0.000  0.000  0.996
   spin  2
    eigenvalues: 
  0.982  0.982  0.997  0.997  0.997
    eigenvectors:
  0.750  0.250  0.000  0.000  0.000
  0.000  0.000  0.162  0.500  0.338
  0.000  0.000  0.675  0.000  0.325
  0.250  0.750  0.000  0.000  0.000
  0.000  0.000  0.162  0.500  0.338
    occupations:
  0.982  0.000  0.000  0.000  0.000
  0.000  0.997  0.000  0.000  0.000
  0.000  0.000  0.997  0.000  0.000
  0.000  0.000  0.000  0.982  0.000
  0.000  0.000  0.000  0.000  0.997
atomic mag. moment =    -1.180092
atom    8   Tr[ns(na)] (up, down, total) =   3.77591  4.95600  8.73191
   spin  1
    eigenvalues: 
  0.395  0.395  0.995  0.995  0.996
    eigenvectors:
  0.250  0.750  0.000  0.000  0.000
  0.000  0.000  0.000  0.663  0.337
  0.000  0.000  0.500  0.169  0.331
  0.750  0.250  0.000  0.000  0.000
  0.000  0.000  0.500  0.169  0.331
    occupations:
  0.395  0.000  0.000  0.000  0.000
  0.000  0.996  0.000  0.000  0.000
  0.000  0.000  0.996  0.000  0.000
  0.000  0.000  0.000  0.395  0.000
  0.000  0.000  0.000  0.000  0.996
   spin  2
    eigenvalues: 
  0.982  0.982  0.997  0.997  0.997
    eigenvectors:
  0.750  0.250  0.000  0.000  0.000
  0.000  0.000  0.675  0.000  0.325
  0.000  0.000  0.162  0.500  0.338
  0.250  0.750  0.000  0.000  0.000
  0.000  0.000  0.162  0.500  0.338
    occupations:
  0.982  0.000  0.000  0.000  0.000
  0.000  0.997  0.000  0.000  0.000
  0.000  0.000  0.997  0.000  0.000
  0.000  0.000  0.000  0.982  0.000
  0.000  0.000  0.000  0.000  0.997
atomic mag. moment =    -1.180092
atom    9   Tr[ns(na)] (up, down, total) =   2.79727  2.79733  5.59460
   spin  1
    eigenvalues: 
  0.932  0.932  0.933
    eigenvectors:
  0.108  0.559  0.333
  0.233  0.433  0.333
  0.659  0.008  0.333
    occupations:
  0.932  0.000  0.000
  0.000  0.932  0.000
  0.000  0.000  0.932
   spin  2
    eigenvalues: 
  0.932  0.932  0.933
    eigenvectors:
  0.102  0.564  0.333
  0.241  0.426  0.333
  0.657  0.010  0.333
    occupations:
  0.932  0.000  0.000
  0.000  0.932  0.000
  0.000  0.000  0.932
atomic mag. moment =    -0.000064
atom   10   Tr[ns(na)] (up, down, total) =   2.79718  2.79723  5.59442
   spin  1
    eigenvalues: 
  0.932  0.932  0.933
    eigenvectors:
  0.500  0.168  0.332
  0.500  0.168  0.332
  0.000  0.665  0.335
    occupations:
  0.932  0.000  0.000
  0.000  0.932  0.000
  0.000  0.000  0.932
   spin  2
    eigenvalues: 
  0.932  0.932  0.933
    eigenvectors:
  0.500  0.168  0.332
  0.500  0.168  0.332
  0.000  0.664  0.336
    occupations:
  0.932  0.000  0.000
  0.000  0.932  0.000
  0.000  0.000  0.932
atomic mag. moment =    -0.000048
atom   11   Tr[ns(na)] (up, down, total) =   2.79718  2.79723  5.59442
   spin  1
    eigenvalues: 
  0.932  0.932  0.933
    eigenvectors:
  0.500  0.168  0.332
  0.000  0.665  0.335
  0.500  0.168  0.332
    occupations:
  0.932  0.000  0.000
  0.000  0.932  0.000
  0.000  0.000  0.932
   spin  2
    eigenvalues: 
  0.932  0.932  0.933
    eigenvectors:
  0.500  0.168  0.332
  0.000  0.664  0.336
  0.500  0.168  0.332
    occupations:
  0.932  0.000  0.000
  0.000  0.932  0.000
[...]
    10.6586  10.6586  10.8692  10.8692  10.9629  10.9629  11.2432  11.2432
    11.2520  11.2520  11.2967  11.2967  11.3291  11.3291  11.4318  11.4318
    13.0373  13.0373  13.0438  13.0438  13.0518  13.0518  13.0623  13.0623
    16.4826  16.4826  19.6527  19.6527  19.7119

     occupation numbers 
     0.0469   0.0469   0.0469   0.0469   0.0469   0.0469   0.0469   0.0469
     0.0469   0.0469   0.0469   0.0469   0.0469   0.0469   0.0469   0.0469
     0.0469   0.0469   0.0469   0.0469   0.0469   0.0469   0.0469   0.0469
     0.0469   0.0469   0.0469   0.0469   0.0469   0.0469   0.0469   0.0469
     0.0469   0.0469   0.0469   0.0469   0.0469   0.0469   0.0469   0.0469
     0.0469   0.0469   0.0469   0.0469   0.0469   0.0469   0.0469   0.0469
     0.0469   0.0469   0.0469   0.0469   0.0469   0.0469   0.0469   0.0469
     0.0469   0.0469   0.0469   0.0469   0.0469   0.0469   0.0469   0.0469
     0.0000   0.0000   0.0000   0.0000   0.0000   0.0000   0.0000   0.0000
     0.0000   0.0000   0.0000   0.0000   0.0000

          k = 0.0000 0.5000 0.0000 (  2706 PWs)   bands (ev):

    -7.8497  -6.8065  -6.7519  -6.7517  -6.7517  -6.7513  -6.5653  -6.5653
     4.4894   4.4894   4.4904   4.4946   5.2309   5.5189   5.5189   6.5258
     6.5258   6.5460   6.5828   6.5900   6.6188   6.6188   6.6776   7.0594
     7.0594   7.1660   7.1660   7.4593   7.9686   7.9737   8.6484   8.6576
     8.9537   9.5323   9.6265   9.6265   9.8120   9.9776  10.0548  10.0548
    10.0943  10.1099  10.1838  10.2768  10.2768  10.3950  10.4088  10.5431
    10.5431  10.6118  10.6118  10.6569  10.9097  11.0069  11.0069  11.0482
    11.0542  11.1677  11.2403  11.2926  11.2926  11.3455  11.3455  11.3771
    12.8758  13.0370  13.0370  13.0404  13.5217  13.5649  13.6426  13.6426
    15.2134  18.5668  18.5679  18.5679  18.5684

     occupation numbers 
     0.0938   0.0938   0.0938   0.0938   0.0938   0.0938   0.0938   0.0938
     0.0938   0.0938   0.0938   0.0938   0.0938   0.0938   0.0938   0.0938
     0.0938   0.0938   0.0938   0.0938   0.0938   0.0938   0.0938   0.0938
     0.0938   0.0938   0.0938   0.0938   0.0938   0.0938   0.0938   0.0938
     0.0938   0.0938   0.0938   0.0938   0.0938   0.0938   0.0938   0.0938
     0.0938   0.0938   0.0938   0.0938   0.0938   0.0938   0.0938   0.0938
     0.0938   0.0938   0.0938   0.0938   0.0938   0.0938   0.0938   0.0938
     0.0938   0.0937   0.0937   0.0937   0.0937   0.0937   0.0937   0.0937
     0.0000   0.0000   0.0000   0.0000   0.0000   0.0000   0.0000   0.0000
     0.0000   0.0000   0.0000   0.0000   0.0000

          k = 0.7500-0.2500 0.7500 (  2734 PWs)   bands (ev):

    -7.5001  -7.1696  -6.9648  -6.7688  -6.7686  -6.5939  -6.5541  -6.5538
     4.9613   4.9635   4.9752   5.3040   5.4213   5.4962   5.5177   6.1726
     6.2074   6.2332   6.2622   6.5859   6.5882   6.7421   6.7460   6.8580
     6.8867   6.9196   6.9900   7.3540   7.3730   7.7174   7.7570   8.0118
     9.4541   9.6490   9.8201   9.8927   9.9536   9.9662  10.0347  10.1361
    10.1388  10.1665  10.2083  10.2856  10.3135  10.3200  10.4754  10.5093
    10.7302  10.7359  10.7397  10.7517  10.8756  10.9038  11.0375  11.0754
    11.1653  11.1928  11.2231  11.2548  11.3296  11.3334  11.3514  11.4078
    12.7364  12.7802  12.8321  12.9285  13.2333  13.2563  13.3620  13.4309
    16.6942  17.6020  18.6704  19.3624  19.3640

     occupation numbers 
     0.1875   0.1875   0.1875   0.1875   0.1875   0.1875   0.1875   0.1875
     0.1875   0.1875   0.1875   0.1875   0.1875   0.1875   0.1875   0.1875
     0.1875   0.1875   0.1875   0.1875   0.1875   0.1875   0.1875   0.1875
     0.1875   0.1875   0.1875   0.1875   0.1875   0.1875   0.1875   0.1875
     0.1875   0.1875   0.1875   0.1875   0.1875   0.1875   0.1875   0.1875
     0.1875   0.1875   0.1875   0.1875   0.1875   0.1875   0.1875   0.1875
     0.1875   0.1875   0.1875   0.1875   0.1875   0.1875   0.1875   0.1875
     0.1875   0.1875   0.1875   0.1875   0.1875   0.1875   0.1875   0.1875
     0.0000   0.0000   0.0000   0.0000   0.0000   0.0000   0.0000   0.0000
     0.0000   0.0000   0.0000   0.0000   0.0000

          k = 0.5000 0.0000 0.5000 (  2742 PWs)   bands (ev):

    -7.6380  -7.0145  -7.0145  -6.7180  -6.7180  -6.6008  -6.6005  -6.5444
     4.7685   4.7736   5.0650   5.0650   5.2609   5.2609   5.6981   5.9615
     6.2832   6.2994   6.5243   6.7165   6.7425   6.7425   6.9111   6.9111
     6.9278   7.1564   7.1564   7.1861   7.4479   7.4479   7.6283   8.1210
     9.6563   9.6563   9.7877   9.8472   9.9036   9.9036  10.0424  10.1097
    10.1315  10.2245  10.2275  10.2275  10.2275  10.3600  10.3600  10.5139
    10.7167  10.7489  10.7489  10.8256  10.9010  11.0936  11.0936  11.1122
    11.2070  11.2070  11.2298  11.2410  11.2766  11.3429  11.4033  11.4033
    13.0400  13.0444  13.0553  13.0553  13.1119  13.1494  13.1494  13.2814
    16.0075  18.0612  18.0612  19.3780  19.3780

     occupation numbers 
     0.0938   0.0938   0.0938   0.0938   0.0938   0.0938   0.0938   0.0938
     0.0938   0.0938   0.0938   0.0938   0.0938   0.0938   0.0938   0.0938
     0.0938   0.0938   0.0938   0.0938   0.0938   0.0938   0.0938   0.0938
     0.0938   0.0938   0.0938   0.0938   0.0938   0.0938   0.0938   0.0938
     0.0938   0.0938   0.0938   0.0938   0.0938   0.0938   0.0938   0.0938
     0.0938   0.0938   0.0938   0.0938   0.0938   0.0938   0.0938   0.0938
     0.0938   0.0938   0.0938   0.0938   0.0938   0.0938   0.0938   0.0938
     0.0937   0.0937   0.0937   0.0937   0.0937   0.0937   0.0937   0.0937
     0.0000   0.0000   0.0000   0.0000   0.0000   0.0000   0.0000   0.0000
     0.0000   0.0000   0.0000   0.0000   0.0000

          k = 0.0000-1.0000 0.0000 (  2762 PWs)   bands (ev):

    -7.3086  -7.3086  -6.8144  -6.8144  -6.8142  -6.8142  -6.5110  -6.5110
     5.0176   5.0176   5.0246   5.0247   5.7672   5.7672   6.0978   6.0978
     6.1036   6.1036   6.4017   6.4017   6.6492   6.6492   6.6815   6.6815
     6.7209   6.7209   6.7273   6.7273   8.1474   8.1474   8.1584   8.1584
     9.2480   9.2480   9.9485   9.9485  10.0288  10.0288  10.0440  10.0440
    10.0471  10.0471  10.1680  10.1681  10.3482  10.3482  10.4945  10.4945
    10.5172  10.5172  10.5805  10.5805  10.9102  10.9102  11.0032  11.0032
    11.1465  11.1465  11.2248  11.2248  11.3344  11.3344  11.3390  11.3390
    12.4599  12.4599  12.7180  12.7180  13.5157  13.5157  13.6156  13.6156
    17.6668  17.6668  19.2517  19.2517  19.2525

     occupation numbers 
     0.0469   0.0469   0.0469   0.0469   0.0469   0.0469   0.0469   0.0469
     0.0469   0.0469   0.0469   0.0469   0.0469   0.0469   0.0469   0.0469
     0.0469   0.0469   0.0469   0.0469   0.0469   0.0469   0.0469   0.0469
     0.0469   0.0469   0.0469   0.0469   0.0469   0.0469   0.0469   0.0469
     0.0469   0.0469   0.0469   0.0469   0.0469   0.0469   0.0469   0.0469
     0.0469   0.0469   0.0469   0.0469   0.0469   0.0469   0.0469   0.0469
     0.0469   0.0469   0.0469   0.0469   0.0469   0.0469   0.0469   0.0469
     0.0469   0.0469   0.0469   0.0469   0.0469   0.0469   0.0469   0.0469
     0.0000   0.0000   0.0000   0.0000   0.0000   0.0000   0.0000   0.0000
     0.0000   0.0000   0.0000   0.0000   0.0000

          k =-0.5000-1.0000 0.0000 (  2740 PWs)   bands (ev):

    -7.1496  -7.1492  -7.1492  -7.1490  -6.5788  -6.5753  -6.5753  -6.5716
     5.2791   5.2791   5.2805   5.3263   5.3783   5.5402   5.5402   5.6517
     6.2220   6.2519   6.2519   6.2836   6.6180   6.6180   6.6313   6.7591
     6.8986   7.2656   7.2656   7.4598   7.4755   7.5034   7.5034   7.5550
     9.7096   9.7368   9.7368   9.8047   9.9848  10.0357  10.0357  10.0677
    10.1162  10.2699  10.2867  10.2867  10.3431  10.3431  10.3972  10.4625
    10.6138  10.6613  10.6613  10.6882  10.9458  10.9458  10.9666  10.9882
    11.1717  11.1835  11.1835  11.2777  11.2931  11.2972  11.3638  11.3638
    12.7722  12.8871  12.8871  13.0007  13.1524  13.1966  13.1966  13.2415
    18.0173  18.0362  18.0362  18.0565  20.8589

     occupation numbers 
     0.0938   0.0938   0.0938   0.0938   0.0938   0.0938   0.0938   0.0938
     0.0938   0.0938   0.0938   0.0938   0.0938   0.0938   0.0938   0.0938
     0.0938   0.0938   0.0938   0.0938   0.0938   0.0938   0.0938   0.0938
     0.0938   0.0938   0.0938   0.0938   0.0938   0.0938   0.0938   0.0938
     0.0938   0.0938   0.0938   0.0938   0.0938   0.0938   0.0938   0.0938
     0.0938   0.0938   0.0938   0.0938   0.0938   0.0938   0.0938   0.0938
     0.0938   0.0938   0.0938   0.0938   0.0938   0.0938   0.0938   0.0938
     0.0937   0.0937   0.0937   0.0937   0.0937   0.0937   0.0937   0.0937
     0.0000   0.0000   0.0000   0.0000   0.0000   0.0000   0.0000   0.0000
     0.0000   0.0000   0.0000   0.0000   0.0000

          k =-0.2500 0.2500 0.2500 (  2743 PWs)   bands (ev):

    -7.9030  -6.9266  -6.6817  -6.6817  -6.6817  -6.6311  -6.6311  -6.6311
     4.3454   4.3454   4.3454   4.6085   5.3418   5.3418   5.3418   6.4771
     6.4771   6.4771   6.6204   6.6204   6.6204   6.6946   6.6946   7.2111
     7.2111   7.2111   7.7040   7.7040   7.7040   7.9714   8.4506   8.4506
     9.2609   9.2609   9.2609   9.6171   9.6171  10.0008  10.0642  10.0642
    10.0642  10.2751  10.2751  10.2751  10.6018  10.6018  10.6018  10.6212
    10.6212  10.7225  10.7225  10.7225  10.9132  10.9132  10.9395  10.9395
    10.9395  11.0320  11.2556  11.2556  11.2556  11.3931  11.3931  11.3931
    13.3326  13.3326  13.3489  13.3489  13.3489  13.3563  13.3563  13.3563
    14.7670  17.5953  18.6755  18.6755  18.6756

     occupation numbers 
     0.0313   0.0313   0.0313   0.0313   0.0313   0.0313   0.0313   0.0313
     0.0313   0.0313   0.0313   0.0313   0.0313   0.0313   0.0313   0.0313
     0.0313   0.0313   0.0313   0.0313   0.0313   0.0313   0.0313   0.0313
     0.0313   0.0313   0.0313   0.0313   0.0313   0.0313   0.0313   0.0313
     0.0313   0.0313   0.0313   0.0313   0.0313   0.0313   0.0313   0.0313
     0.0313   0.0313   0.0313   0.0313   0.0313   0.0313   0.0313   0.0313
     0.0313   0.0313   0.0313   0.0313   0.0313   0.0313   0.0313   0.0313
     0.0313   0.0313   0.0312   0.0312   0.0312   0.0312   0.0312   0.0312
     0.0000   0.0000   0.0000   0.0000   0.0000   0.0000   0.0000   0.0000
     0.0000   0.0000   0.0000   0.0000   0.0000

          k = 0.5000-0.5000-0.5000 (  2764 PWs)   bands (ev):

    -7.4499  -7.4412  -6.6701  -6.6701  -6.6701  -6.6498  -6.6498  -6.6498
     5.0095   5.0095   5.0095   5.1107   5.1107   5.1107   6.0774   6.1164
     6.2585   6.2585   6.2585   6.6890   6.6890   6.6890   6.7485   6.7485
     6.7485   6.9783   6.9783   7.4453   7.4453   7.4453   7.8620   7.8620
     9.4899   9.4899   9.4899   9.6731   9.6731  10.1155  10.1201  10.1201
    10.1201  10.4483  10.4483  10.4483  10.5061  10.5061  10.5061  10.7257
    10.7257  10.8419  10.8419  10.8419  10.8700  11.0555  11.0555  11.0555
    11.2439  11.2439  11.2439  11.2991  11.2991  11.4009  11.4009  11.4009
    13.0386  13.0386  13.0386  13.0550  13.0550  13.0701  13.0701  13.0701
    16.4097  16.5597  19.6311  19.6311  19.6311

     occupation numbers 
     0.0156   0.0156   0.0156   0.0156   0.0156   0.0156   0.0156   0.0156
     0.0156   0.0156   0.0156   0.0156   0.0156   0.0156   0.0156   0.0156
     0.0156   0.0156   0.0156   0.0156   0.0156   0.0156   0.0156   0.0156
     0.0156   0.0156   0.0156   0.0156   0.0156   0.0156   0.0156   0.0156
     0.0156   0.0156   0.0156   0.0156   0.0156   0.0156   0.0156   0.0156
     0.0156   0.0156   0.0156   0.0156   0.0156   0.0156   0.0156   0.0156
     0.0156   0.0156   0.0156   0.0156   0.0156   0.0156   0.0156   0.0156
     0.0156   0.0156   0.0156   0.0156   0.0156   0.0156   0.0156   0.0156
     0.0000   0.0000   0.0000   0.0000   0.0000   0.0000   0.0000   0.0000
     0.0000   0.0000   0.0000   0.0000   0.0000

          k = 0.2500 0.7500 0.7500 (  2734 PWs)   bands (ev):

    -7.5001  -7.1697  -6.9648  -6.7686  -6.7686  -6.5939  -6.5540  -6.5540
     4.9673   4.9715   4.9715   5.2417   5.4968   5.5014   5.5014   6.1198
     6.2270   6.2270   6.3423   6.5654   6.5654   6.6588   6.8184   6.8184
     6.8265   7.0393   7.0393   7.1536   7.5013   7.7428   7.7695   7.9970
     9.3796   9.5554   9.9421   9.9421  10.0195  10.0195  10.0412  10.0428
    10.0550  10.1759  10.2124  10.2124  10.3970  10.4414  10.4964  10.4964
    10.6575  10.6957  10.6958  10.7103  10.8945  10.9470  11.0940  11.0940
    11.2146  11.2146  11.2307  11.2678  11.2751  11.2770  11.3466  11.3466
    12.7386  12.7976  12.8799  12.8799  13.2527  13.3405  13.3405  13.3521
    16.6937  17.6030  18.6722  19.3607  19.3607

     occupation numbers 
     0.0938   0.0938   0.0938   0.0938   0.0938   0.0938   0.0938   0.0938
     0.0938   0.0938   0.0938   0.0938   0.0938   0.0938   0.0938   0.0938
     0.0938   0.0938   0.0938   0.0938   0.0938   0.0938   0.0938   0.0938
     0.0938   0.0938   0.0938   0.0938   0.0938   0.0938   0.0938   0.0938
     0.0938   0.0938   0.0938   0.0938   0.0938   0.0938   0.0938   0.0938
     0.0938   0.0938   0.0938   0.0938   0.0938   0.0938   0.0938   0.0938
     0.0938   0.0938   0.0938   0.0938   0.0938   0.0938   0.0938   0.0938
     0.0937   0.0937   0.0937   0.0937   0.0937   0.0937   0.0937   0.0937
     0.0000   0.0000   0.0000   0.0000   0.0000   0.0000   0.0000   0.0000
     0.0000   0.0000   0.0000   0.0000   0.0000

          k = 0.7500-0.2500-0.7500 (  2734 PWs)   bands (ev):

    -7.5002  -7.1697  -6.9648  -6.7688  -6.7688  -6.5936  -6.5538  -6.5538
     4.9610   4.9707   4.9707   5.2820   5.4359   5.4966   5.4966   6.2195
     6.2249   6.2249   6.2612   6.6511   6.6641   6.6641   6.6952   6.6952
     6.8264   7.0779   7.0779   7.2669   7.3778   7.7509   7.7588   8.0484
     9.3519   9.5422   9.7588   9.7588   9.7829  10.0583  10.0945  10.0945
    10.2856  10.2860  10.4193  10.4193  10.4403  10.5523  10.5523  10.5580
    10.5682  10.6486  10.6492  10.6492  10.8402  10.8790  10.8790  10.9582
    11.0693  11.2412  11.2728  11.2997  11.2997  11.3587  11.3587  11.4213
    12.6916  12.8375  12.8827  12.8827  13.2790  13.3335  13.3412  13.3412
    16.6936  17.6046  18.6699  19.3599  19.3599

     occupation numbers 
     0.0938   0.0938   0.0938   0.0938   0.0938   0.0938   0.0938   0.0938
     0.0938   0.0938   0.0938   0.0938   0.0938   0.0938   0.0938   0.0938
     0.0938   0.0938   0.0938   0.0938   0.0938   0.0938   0.0938   0.0938
     0.0938   0.0938   0.0938   0.0938   0.0938   0.0938   0.0938   0.0938
     0.0938   0.0938   0.0938   0.0938   0.0938   0.0938   0.0938   0.0938
     0.0938   0.0938   0.0938   0.0938   0.0938   0.0938   0.0938   0.0938
     0.0938   0.0938   0.0938   0.0938   0.0938   0.0938   0.0938   0.0938
     0.0938   0.0937   0.0937   0.0937   0.0937   0.0937   0.0937   0.0937
     0.0000   0.0000   0.0000   0.0000   0.0000   0.0000   0.0000   0.0000
     0.0000   0.0000   0.0000   0.0000   0.0000

          k = 0.0000 0.5000 0.5000 (  2742 PWs)   bands (ev):

    -7.6381  -7.0147  -7.0145  -6.7183  -6.7183  -6.6001  -6.6001  -6.5444
     4.7690   4.7690   5.0740   5.0792   5.2398   5.2398   5.6999   5.9643
     6.3126   6.3126   6.5829   6.6742   6.6742   6.7876   6.8546   6.9194
     7.0129   7.1589   7.1589   7.2019   7.2019   7.4838   7.8305   8.1189
     9.5553   9.6070   9.6355   9.6355   9.7729  10.0730  10.0730  10.1295
    10.2415  10.2415  10.3045  10.3842  10.4462  10.5567  10.5587  10.5587
    10.6308  10.6631  10.6631  10.7414  10.7631  10.8191  11.0480  11.0480
    11.1033  11.2690  11.2690  11.3381  11.3682  11.3682  11.3839  11.4048
    13.0429  13.0448  13.0526  13.0526  13.0620  13.2046  13.2046  13.2340
    16.0087  18.0604  18.0622  19.3735  19.3735

     occupation numbers 
     0.0938   0.0938   0.0938   0.0938   0.0938   0.0938   0.0938   0.0938
     0.0938   0.0938   0.0938   0.0938   0.0938   0.0938   0.0938   0.0938
     0.0938   0.0938   0.0938   0.0938   0.0938   0.0938   0.0938   0.0938
     0.0938   0.0938   0.0938   0.0938   0.0938   0.0938   0.0938   0.0938
     0.0938   0.0938   0.0938   0.0938   0.0938   0.0938   0.0938   0.0938
     0.0938   0.0938   0.0938   0.0938   0.0938   0.0938   0.0938   0.0938
     0.0938   0.0938   0.0938   0.0938   0.0938   0.0938   0.0938   0.0938
     0.0938   0.0937   0.0937   0.0937   0.0937   0.0937   0.0937   0.0937
     0.0000   0.0000   0.0000   0.0000   0.0000   0.0000   0.0000   0.0000
     0.0000   0.0000   0.0000   0.0000   0.0000

     the Fermi energy is    11.9555 ev

!    total energy              =    -942.01610087 Ry
     Harris-Foulkes estimate   =    -942.01606496 Ry
     estimated scf accuracy    <          3.1E-09 Ry

     The total energy is the sum of the following terms:

     one-electron contribution =     -56.32811268 Ry
     hartree contribution      =     175.70980763 Ry
     xc contribution           =    -297.54038998 Ry
     ewald contribution        =    -763.85740583 Ry
     Hubbard energy            =       0.00000000 Ry
     smearing contrib. (-TS)   =       0.00000000 Ry

     total magnetization       =     0.00 Bohr mag/cell
     absolute magnetization    =    12.29 Bohr mag/cell

     convergence has been achieved in  13 iterations

     Writing output data file NiO_U0.save

     init_run     :     29.71s CPU     30.06s WALL (       1 calls)
     electrons    :    746.07s CPU    781.74s WALL (       1 calls)

     Called by init_run:
     wfcinit      :     17.16s CPU     17.40s WALL (       1 calls)
     potinit      :      1.43s CPU      1.47s WALL (       1 calls)

     Called by electrons:
     c_bands      :    520.89s CPU    550.77s WALL (      13 calls)
     sum_band     :    146.42s CPU    149.13s WALL (      13 calls)
     v_of_rho     :     14.54s CPU     14.79s WALL (      14 calls)
     v_h          :      0.37s CPU      0.41s WALL (      14 calls)
     v_xc         :     14.18s CPU     14.38s WALL (      14 calls)
     newd         :     66.54s CPU     66.70s WALL (      14 calls)
     mix_rho      :      1.63s CPU      2.44s WALL (      13 calls)

     Called by c_bands:
     init_us_2    :      4.58s CPU      4.66s WALL (     728 calls)
     cegterg      :    505.68s CPU    515.19s WALL (     338 calls)

     Called by sum_band:
     sum_band:bec :      0.79s CPU      0.78s WALL (     338 calls)
     addusdens    :     51.89s CPU     52.07s WALL (      13 calls)

     Called by *egterg:
     h_psi        :    376.79s CPU    379.76s WALL (    1092 calls)
     s_psi        :     33.66s CPU     33.68s WALL (    1118 calls)
     g_psi        :      1.32s CPU      1.32s WALL (     728 calls)
     cdiaghg      :     36.04s CPU     36.06s WALL (    1066 calls)
     cegterg:over :     26.84s CPU     26.85s WALL (     728 calls)
     cegterg:upda :     17.11s CPU     17.11s WALL (     728 calls)
     cegterg:last :     10.93s CPU     11.05s WALL (     338 calls)

     Called by h_psi:
     h_psi:vloc   :    270.84s CPU    271.92s WALL (    1092 calls)
     h_psi:vnl    :     64.16s CPU     64.20s WALL (    1092 calls)
     add_vuspsi   :     32.59s CPU     32.63s WALL (    1092 calls)
     vhpsi        :     40.77s CPU     42.61s WALL (    1092 calls)

     General routines
     calbec       :     63.87s CPU     66.29s WALL (    2886 calls)
     fft          :      8.69s CPU      9.53s WALL (     424 calls)
     ffts         :      0.16s CPU      0.50s WALL (      54 calls)
     fftw         :    246.72s CPU    247.43s WALL (  145568 calls)
     interpolate  :      1.38s CPU      2.12s WALL (      54 calls)
     davcio       :      0.05s CPU      7.79s WALL (    2298 calls)

     Parallel routines
     fft_scatter  :     78.30s CPU     80.00s WALL (  146046 calls)
     Hubbard U routines
     new_ns       :      5.21s CPU      6.96s WALL (      13 calls)
     vhpsi        :     40.77s CPU     42.61s WALL (    1092 calls)

     PWSCF        : 12m56.56s CPU    13m32.97s WALL


   This run was terminated on:  12:13:26  13Nov2012            

=------------------------------------------------------------------------------=
