 
Job started on n6 at Sun Nov 11 14:38:12 EST 2012

     Program PWSCF v.5.0.1 starts on 11Nov2012 at 14:38:14 

     This program is part of the open-source Quantum ESPRESSO suite
     for quantum simulation of materials; please cite
         "P. Giannozzi et al., J. Phys.:Condens. Matter 21 395502 (2009);
          URL http://www.quantum-espresso.org", 
     in publications or presentations arising from this work. More details at
     http://www.quantum-espresso.org/quote.php

     Parallel version (MPI), running on     2 processors
     R & G space division:  proc/pool =    2

     Current dimensions of program PWSCF are:
     Max number of different atomic species (ntypx) = 10
     Max number of k-points (npk) =  40000
     Max angular momentum in pseudopotentials (lmaxx) =  3
     Reading input from CoLaO_U300_init.in
               file Co.pbe-nd-rrkjus.UPF: wavefunction(s)  4S 3D renormalized
               file O.pbe-rrkjus.UPF: wavefunction(s)  2S renormalized

     Subspace diagonalization in iterative solution of the eigenvalue problem:
     a serial algorithm will be used


     Parallelization info
     --------------------
     sticks:   dense  smooth     PW     G-vecs:    dense   smooth      PW
     Min        1112     444    131                34808     8786    1448
     Max        1113     445    132                34809     8787    1449
     Sum        2225     889    263                69617    17573    2897


     Title: 
     GGA + U, U = 3.000, init                                                   


     bravais-lattice index     =            5
     lattice parameter (alat)  =      10.3292  a.u.
     unit-cell volume          =     793.0599 (a.u.)^3
     number of atoms/cell      =           10
     number of atomic types    =            4
     number of electrons       =        76.00
     number of Kohn-Sham states=           46
     kinetic-energy cutoff     =      30.0000  Ry
     charge density cutoff     =     300.0000  Ry
     convergence threshold     =      1.0E-08
     mixing beta               =       0.2000
     number of iterations used =            8  plain     mixing
     Exchange-correlation      =  SLA  PW   PBE  PBE ( 1 4 3 4 0)
     EXX-fraction              =        0.00

     celldm(1)=  10.329242  celldm(2)=   0.000000  celldm(3)=   0.000000
     celldm(4)=   0.488100  celldm(5)=   0.000000  celldm(6)=   0.000000

     crystal axes: (cart. coord. in units of alat)
               a(1) = (   0.505915  -0.292090   0.811624 )  
               a(2) = (   0.000000   0.584180   0.811624 )  
               a(3) = (  -0.505915  -0.292090   0.811624 )  

     reciprocal axes: (cart. coord. in units 2 pi/alat)
               b(1) = (  0.988308 -0.570600  0.410699 )  
               b(2) = (  0.000000  1.141200  0.410699 )  
               b(3) = ( -0.988308 -0.570600  0.410699 )  


     PseudoPot. # 1 for Co read from file:
     /home/mcurnan/dft-course/Project1/example_LaCoO3/Co.pbe-nd-rrkjus.UPF
     MD5 check sum: 3e47a84addf5e975e0edeaeee2a73f59
     Pseudo is Ultrasoft + core correction, Zval =  9.0
     Generated by new atomic code, or converted to UPF format
     Using radial grid of  961 points,  6 beta functions with: 
                l(1) =   0
                l(2) =   0
                l(3) =   1
                l(4) =   1
                l(5) =   2
                l(6) =   2
     Q(r) pseudized with 0 coefficients 


     PseudoPot. # 2 for La read from file:
     /home/mcurnan/dft-course/Project1/example_LaCoO3/La.pbe-nsp-van.UPF
     MD5 check sum: b2f11743f52dde65f77d1302becd7929
     Pseudo is Ultrasoft + core correction, Zval = 11.0
     Generated by new atomic code, or converted to UPF format
     Using radial grid of  907 points,  6 beta functions with: 
                l(1) =   0
                l(2) =   0
                l(3) =   1
                l(4) =   1
                l(5) =   2
                l(6) =   2
     Q(r) pseudized with  6 coefficients,  rinner =    1.200   1.200   1.200
                                                       1.200   1.200

     PseudoPot. # 3 for La read from file:
     /home/mcurnan/dft-course/Project1/example_LaCoO3/La.pbe-nsp-van.UPF
     MD5 check sum: b2f11743f52dde65f77d1302becd7929
     Pseudo is Ultrasoft + core correction, Zval = 11.0
     Generated by new atomic code, or converted to UPF format
     Using radial grid of  907 points,  6 beta functions with: 
                l(1) =   0
                l(2) =   0
                l(3) =   1
                l(4) =   1
                l(5) =   2
                l(6) =   2
     Q(r) pseudized with  6 coefficients,  rinner =    1.200   1.200   1.200
                                                       1.200   1.200

     PseudoPot. # 4 for O  read from file:
     /home/mcurnan/dft-course/Project1/example_LaCoO3/O.pbe-rrkjus.UPF
     MD5 check sum: 390ba29e75625707450f3bd3f0eb6be9
     Pseudo is Ultrasoft, Zval =  6.0
     Generated by new atomic code, or converted to UPF format
     Using radial grid of 1269 points,  4 beta functions with: 
                l(1) =   0
                l(2) =   0
                l(3) =   1
                l(4) =   1
     Q(r) pseudized with 0 coefficients 


     atomic species   valence    mass     pseudopotential
        Co1            9.00     1.00000     Co( 1.00)
        La1           11.00     1.00000     La( 1.00)
        La2           11.00     1.00000     La( 1.00)
        O1             6.00     1.00000     O ( 1.00)
 -----
     simplified LDA+U calculation, Hubbard_lmax = 2
     atomic species  L   Hubbard U  Hubbard alpha
        Co1          2    0.000000    0.000000
        La1          2    0.000000    0.000000
        La2          2    0.000000    0.000000
        O1           1    0.000000    0.000000
 -----

      3 Sym. Ops. (no inversion) found


                                    s                        frac. trans.

      isym =  1     identity                                     

 cryst.   s( 1) = (     1          0          0      )
                  (     0          1          0      )
                  (     0          0          1      )

 cart.    s( 1) = (  1.0000000  0.0000000  0.0000000 )
                  (  0.0000000  1.0000000  0.0000000 )
                  (  0.0000000  0.0000000  1.0000000 )


      isym =  2     120 deg rotation - cryst. axis [0,0,1]       

 cryst.   s( 2) = (     0          1          0      )
                  (     0          0          1      )
                  (     1          0          0      )

 cart.    s( 2) = ( -0.5000000 -0.8660254  0.0000000 )
                  (  0.8660254 -0.5000000  0.0000000 )
                  (  0.0000000  0.0000000  1.0000000 )


      isym =  3     120 deg rotation - cryst. axis [0,0,-1]      

 cryst.   s( 3) = (     0          0          1      )
                  (     1          0          0      )
                  (     0          1          0      )

 cart.    s( 3) = ( -0.5000000  0.8660254  0.0000000 )
                  ( -0.8660254 -0.5000000  0.0000000 )
                  (  0.0000000  0.0000000  1.0000000 )


     point group C_3 (3)    
     there are  3 classes
     the character table:

       E     C3    C3^2 
A      1.00  1.00  1.00
E      1.00 -0.50 -0.50
E*     1.00 -0.50 -0.50
     imaginary part
A      0.00  0.00  0.00
E      0.00  0.87 -0.87
E*     0.00 -0.87  0.87

     the symmetry operations in each class:
     E        1
     C3       2
     C3^2     3

   Cartesian axes

     site n.     atom                  positions (alat units)
         1           Co1 tau(   1) = (   0.0000000   0.0000000   1.8261537  )
         2           Co1 tau(   2) = (   0.0000000   0.0000000   0.6087179  )
         3           La1 tau(   3) = (   0.0000000   0.0000000   0.0000000  )
         4           La2 tau(   4) = (   0.0000000   0.0000000   1.2174358  )
         5           O1  tau(   5) = (   0.2831100  -0.0928263   1.6236536  )
         6           O1  tau(   6) = (  -0.2219449  -0.1987674   1.6236536  )
         7           O1  tau(   7) = (  -0.0611651   0.2915936   1.6236536  )
         8           O1  tau(   8) = (   0.2228050   0.3849164   1.2170300  )
         9           O1  tau(   9) = (   0.2219449  -0.3854130   1.2170300  )
        10           O1  tau(  10) = (  -0.4447499   0.0004966   1.2170300  )

   Crystallographic axes

     site n.     atom                  positions (cryst. coord.)
         1           Co1 tau(   1) = (  0.7500000  0.7500000  0.7500000  )
         2           Co1 tau(   2) = (  0.2500000  0.2500000  0.2500000  )
         3           La1 tau(   3) = (  0.0000000  0.0000000  0.0000000  )
         4           La2 tau(   4) = (  0.5000000  0.5000000  0.5000000  )
         5           O1  tau(   5) = (  0.9996000  0.5609000  0.4400000  )
         6           O1  tau(   6) = (  0.5609000  0.4400000  0.9996000  )
         7           O1  tau(   7) = (  0.4400000  0.9996000  0.5609000  )
         8           O1  tau(   8) = (  0.5004000  0.9391000  0.0600000  )
         9           O1  tau(   9) = (  0.9391000  0.0600000  0.5004000  )
        10           O1  tau(  10) = (  0.0600000  0.5004000  0.9391000  )

     number of k points=    14  gaussian smearing, width (Ry)=  0.0300
                       cart. coord. in units 2pi/alat
        k(    1) = (   0.0000000   0.0000000   0.0000000), wk =   0.0312500
        k(    2) = (  -0.2470771  -0.1426500   0.1026748), wk =   0.1875000
        k(    3) = (   0.4941541   0.2853000  -0.2053496), wk =   0.0937500
        k(    4) = (  -0.2470771   0.1426500   0.2053496), wk =   0.1875000
        k(    5) = (   0.4941541   0.5706001  -0.1026748), wk =   0.1875000
        k(    6) = (   0.2470771   0.4279500   0.0000000), wk =   0.1875000
        k(    7) = (   0.4941541  -0.2853000  -0.4106993), wk =   0.0937500
        k(    8) = (   0.0000000   0.0000000   0.3080244), wk =   0.0625000
        k(    9) = (   0.7412312   0.4279500   0.0000000), wk =   0.1875000
        k(   10) = (   0.4941541   0.2853000   0.1026748), wk =   0.1875000
        k(   11) = (   0.7412312  -0.4279500  -0.3080244), wk =   0.1875000
        k(   12) = (   0.4941541  -0.5706001  -0.2053496), wk =   0.1875000
        k(   13) = (   0.0000000   0.0000000  -0.6160489), wk =   0.0312500
        k(   14) = (   0.4941541  -0.5706001   0.1026748), wk =   0.1875000

                       cryst. coord.
        k(    1) = (   0.0000000   0.0000000   0.0000000), wk =   0.0312500
        k(    2) = (   0.0000000   0.0000000   0.2500000), wk =   0.1875000
        k(    3) = (   0.0000000   0.0000000  -0.5000000), wk =   0.0937500
        k(    4) = (   0.0000000   0.2500000   0.2500000), wk =   0.1875000
        k(    5) = (   0.0000000   0.2500000  -0.5000000), wk =   0.1875000
        k(    6) = (   0.0000000   0.2500000  -0.2500000), wk =   0.1875000
        k(    7) = (   0.0000000  -0.5000000  -0.5000000), wk =   0.0937500
        k(    8) = (   0.2500000   0.2500000   0.2500000), wk =   0.0625000
        k(    9) = (   0.2500000   0.2500000  -0.5000000), wk =   0.1875000
        k(   10) = (   0.2500000   0.2500000  -0.2500000), wk =   0.1875000
        k(   11) = (   0.2500000  -0.5000000  -0.5000000), wk =   0.1875000
        k(   12) = (   0.2500000  -0.5000000  -0.2500000), wk =   0.1875000
        k(   13) = (  -0.5000000  -0.5000000  -0.5000000), wk =   0.0312500
        k(   14) = (   0.5000000  -0.2500000   0.0000000), wk =   0.1875000

     Dense  grid:    69617 G-vectors     FFT dimensions: (  60,  60,  60)

     Smooth grid:    17573 G-vectors     FFT dimensions: (  40,  40,  40)

     Largest allocated arrays     est. size (Mb)     dimensions
        Kohn-Sham Wavefunctions         0.78 Mb     (   1117,   46)
        Atomic wavefunctions            1.06 Mb     (   1117,   62)
        NL pseudopotentials             2.05 Mb     (   1117,  120)
        Each V/rho on FFT grid          1.65 Mb     ( 108000)
        Each G-vector array             0.27 Mb     (  34808)
        G-vector shells                 0.04 Mb     (   4682)
     Largest temporary arrays     est. size (Mb)     dimensions
        Auxiliary wavefunctions         3.14 Mb     (   1117,  184)
        Each subspace H/S matrix        0.52 Mb     ( 184, 184)
        Each <psi_i|beta_j> matrix      0.08 Mb     (    120,   46)
        Arrays for rho mixing          13.18 Mb     ( 108000,   8)

     Check: negative/imaginary core charge=   -0.000028    0.000000

     Initial potential from superposition of free atoms

     starting charge   75.93482, renormalised to   76.00000
 --- in v_hubbard ---
Hubbard energy    0.0000
 -------
     Number of +U iterations with fixed ns =  0
     Starting occupations:
 --- enter write_ns ---
 LDA+U parameters:
U( 1)     =  0.00000000
alpha( 1) =  0.00000000
U( 2)     =  0.00000000
alpha( 2) =  0.00000000
U( 3)     =  0.00000000
alpha( 3) =  0.00000000
U( 4)     =  0.00000000
alpha( 4) =  0.00000000
atom    1   Tr[ns(na)] =   7.00000
    eigenvalues: 
  0.700  0.700  0.700  0.700  0.700
    eigenvectors:
  1.000  0.000  0.000  0.000  0.000
  0.000  1.000  0.000  0.000  0.000
  0.000  0.000  1.000  0.000  0.000
  0.000  0.000  0.000  1.000  0.000
  0.000  0.000  0.000  0.000  1.000
    occupations:
  0.700  0.000  0.000  0.000  0.000
  0.000  0.700  0.000  0.000  0.000
  0.000  0.000  0.700  0.000  0.000
  0.000  0.000  0.000  0.700  0.000
  0.000  0.000  0.000  0.000  0.700
atom    2   Tr[ns(na)] =   7.00000
    eigenvalues: 
  0.700  0.700  0.700  0.700  0.700
    eigenvectors:
  1.000  0.000  0.000  0.000  0.000
  0.000  1.000  0.000  0.000  0.000
  0.000  0.000  1.000  0.000  0.000
  0.000  0.000  0.000  1.000  0.000
  0.000  0.000  0.000  0.000  1.000
    occupations:
  0.700  0.000  0.000  0.000  0.000
  0.000  0.700  0.000  0.000  0.000
  0.000  0.000  0.700  0.000  0.000
  0.000  0.000  0.000  0.700  0.000
  0.000  0.000  0.000  0.000  0.700
atom    3   Tr[ns(na)] =   1.00000
    eigenvalues: 
  0.100  0.100  0.100  0.100  0.100
    eigenvectors:
  1.000  0.000  0.000  0.000  0.000
  0.000  1.000  0.000  0.000  0.000
  0.000  0.000  1.000  0.000  0.000
  0.000  0.000  0.000  1.000  0.000
  0.000  0.000  0.000  0.000  1.000
    occupations:
  0.100  0.000  0.000  0.000  0.000
  0.000  0.100  0.000  0.000  0.000
  0.000  0.000  0.100  0.000  0.000
  0.000  0.000  0.000  0.100  0.000
  0.000  0.000  0.000  0.000  0.100
atom    4   Tr[ns(na)] =   1.00000
    eigenvalues: 
  0.100  0.100  0.100  0.100  0.100
    eigenvectors:
  1.000  0.000  0.000  0.000  0.000
  0.000  1.000  0.000  0.000  0.000
  0.000  0.000  1.000  0.000  0.000
  0.000  0.000  0.000  1.000  0.000
  0.000  0.000  0.000  0.000  1.000
    occupations:
  0.100  0.000  0.000  0.000  0.000
  0.000  0.100  0.000  0.000  0.000
  0.000  0.000  0.100  0.000  0.000
  0.000  0.000  0.000  0.100  0.000
  0.000  0.000  0.000  0.000  0.100
atom    5   Tr[ns(na)] =   4.00000
    eigenvalues: 
  0.667  0.667  0.667
    eigenvectors:
  1.000  0.000  0.000
  0.000  1.000  0.000
  0.000  0.000  1.000
    occupations:
  0.667  0.000  0.000
  0.000  0.667  0.000
  0.000  0.000  0.667
atom    6   Tr[ns(na)] =   4.00000
    eigenvalues: 
  0.667  0.667  0.667
    eigenvectors:
  1.000  0.000  0.000
  0.000  1.000  0.000
  0.000  0.000  1.000
    occupations:
  0.667  0.000  0.000
  0.000  0.667  0.000
  0.000  0.000  0.667
atom    7   Tr[ns(na)] =   4.00000
    eigenvalues: 
  0.667  0.667  0.667
    eigenvectors:
  1.000  0.000  0.000
  0.000  1.000  0.000
  0.000  0.000  1.000
    occupations:
  0.667  0.000  0.000
  0.000  0.667  0.000
  0.000  0.000  0.667
atom    8   Tr[ns(na)] =   4.00000
    eigenvalues: 
  0.667  0.667  0.667
    eigenvectors:
  1.000  0.000  0.000
  0.000  1.000  0.000
  0.000  0.000  1.000
    occupations:
  0.667  0.000  0.000
  0.000  0.667  0.000
  0.000  0.000  0.667
atom    9   Tr[ns(na)] =   4.00000
    eigenvalues: 
  0.667  0.667  0.667
    eigenvectors:
  1.000  0.000  0.000
  0.000  1.000  0.000
  0.000  0.000  1.000
    occupations:
  0.667  0.000  0.000
  0.000  0.667  0.000
  0.000  0.000  0.667
atom   10   Tr[ns(na)] =   4.00000
    eigenvalues: 
  0.667  0.667  0.667
    eigenvectors:
  1.000  0.000  0.000
  0.000  1.000  0.000
  0.000  0.000  1.000
    occupations:
  0.667  0.000  0.000
  0.000  0.667  0.000
  0.000  0.000  0.667
N of occupied +U levels =  40.0000000
 --- exit write_ns ---
 Atomic wfc used for LDA+U Projector are NOT orthogonalized
     Starting wfc are   62 randomized atomic wfcs

     total cpu time spent up to now is       16.8 secs

     per-process dynamical memory:    37.1 Mb

     Self-consistent Calculation

     iteration #  1     ecut=    30.00 Ry     beta=0.20
     Davidson diagonalization with overlap
     ethr =  1.00E-02,  avg # of iterations =  2.0
 --- enter write_ns ---
 LDA+U parameters:
U( 1)     =  0.00000000
alpha( 1) =  0.00000000
U( 2)     =  0.00000000
alpha( 2) =  0.00000000
U( 3)     =  0.00000000
alpha( 3) =  0.00000000
U( 4)     =  0.00000000
alpha( 4) =  0.00000000
atom    1   Tr[ns(na)] =   6.58596
    eigenvalues: 
  0.281  0.281  0.908  0.911  0.911
    eigenvectors:
  0.000  0.000  1.000  0.000  0.000
  0.356  0.293  0.000  0.002  0.349
  0.293  0.356  0.000  0.349  0.002
  0.318  0.034  0.000  0.530  0.119
  0.034  0.318  0.000  0.119  0.530
    occupations:
  0.908  0.000  0.000  0.000  0.000
  0.000  0.503  0.000 -0.149  0.261
  0.000  0.000  0.503  0.261  0.149
  0.000 -0.149  0.261  0.690  0.000
  0.000  0.261  0.149  0.000  0.690
atom    2   Tr[ns(na)] =   6.57662
    eigenvalues: 
  0.279  0.279  0.908  0.911  0.911
    eigenvectors:
  0.000  0.000  1.000  0.000  0.000
  0.649  0.000  0.000  0.268  0.083
  0.000  0.649  0.000  0.083  0.268
  0.084  0.268  0.000  0.474  0.175
  0.268  0.084  0.000  0.175  0.474
    occupations:
  0.908  0.000  0.000  0.000  0.000
  0.000  0.501  0.000  0.149  0.262
  0.000  0.000  0.501  0.262 -0.149
  0.000  0.149  0.262  0.689  0.000
  0.000  0.262 -0.149  0.000  0.689
atom    3   Tr[ns(na)] =   3.61168
    eigenvalues: 
  0.345  0.345  0.365  0.376  0.376
    eigenvectors:
  0.000  0.000  1.000  0.000  0.000
  0.918  0.080  0.000  0.000  0.002
  0.080  0.918  0.000  0.002  0.000
  0.000  0.001  0.000  0.892  0.106
  0.001  0.000  0.000  0.106  0.892
    occupations:
  0.365  0.000  0.000  0.000  0.000
  0.000  0.345  0.000  0.000  0.001
  0.000  0.000  0.345  0.001  0.000
  0.000  0.000  0.001  0.376  0.000
  0.000  0.001  0.000  0.000  0.376
atom    4   Tr[ns(na)] =   3.61154
    eigenvalues: 
  0.345  0.345  0.364  0.376  0.376
    eigenvectors:
  0.000  0.000  1.000  0.000  0.000
  0.918  0.080  0.000  0.000  0.002
  0.080  0.918  0.000  0.002  0.000
  0.000  0.001  0.000  0.893  0.106
  0.001  0.000  0.000  0.106  0.893
    occupations:
  0.364  0.000  0.000  0.000  0.000
  0.000  0.345  0.000  0.000  0.001
  0.000  0.000  0.345  0.001  0.000
  0.000  0.000  0.001  0.376  0.000
  0.000  0.001  0.000  0.000  0.376
atom    5   Tr[ns(na)] =   5.82376
    eigenvalues: 
  0.954  0.977  0.981
    eigenvectors:
  0.318  0.000  0.682
  0.513  0.249  0.238
  0.168  0.751  0.081
    occupations:
  0.972 -0.011  0.006
 -0.011  0.966  0.007
  0.006  0.007  0.974
atom    6   Tr[ns(na)] =   5.82376
    eigenvalues: 
  0.954  0.977  0.981
    eigenvectors:
  0.318  0.000  0.682
  0.509  0.251  0.240
  0.173  0.749  0.078
    occupations:
  0.972  0.011  0.006
  0.011  0.966 -0.007
  0.006 -0.007  0.974
atom    7   Tr[ns(na)] =   5.82376
    eigenvalues: 
  0.954  0.977  0.981
    eigenvectors:
  0.318  0.000  0.682
  0.000  1.000  0.000
  0.682  0.000  0.318
    occupations:
  0.972  0.000 -0.013
  0.000  0.977  0.000
 -0.013  0.000  0.962
atom    8   Tr[ns(na)] =   5.82379
    eigenvalues: 
  0.954  0.977  0.981
    eigenvectors:
  0.318  0.000  0.682
  0.513  0.247  0.240
  0.168  0.753  0.078
    occupations:
  0.972 -0.011  0.006
 -0.011  0.966  0.007
  0.006  0.007  0.974
atom    9   Tr[ns(na)] =   5.82379
    eigenvalues: 
  0.954  0.977  0.981
    eigenvectors:
  0.318  0.000  0.682
  0.509  0.253  0.237
  0.173  0.747  0.081
    occupations:
  0.972  0.011  0.006
  0.011  0.966 -0.007
  0.006 -0.007  0.974
atom   10   Tr[ns(na)] =   5.82379
    eigenvalues: 
  0.954  0.977  0.981
    eigenvectors:
  0.318  0.000  0.682
  0.000  1.000  0.000
  0.682  0.000  0.318
    occupations:
  0.972  0.000 -0.013
  0.000  0.977  0.000
 -0.013  0.000  0.962
N of occupied +U levels =  55.3284690
 --- exit write_ns ---
 --- in v_hubbard ---
Hubbard energy    0.0000
 -------

     total cpu time spent up to now is       39.6 secs

     total energy              =    -537.25484774 Ry
     Harris-Foulkes estimate   =    -539.67252749 Ry
     estimated scf accuracy    <       7.40102991 Ry

     iteration #  2     ecut=    30.00 Ry     beta=0.20
     Davidson diagonalization with overlap
     ethr =  9.74E-03,  avg # of iterations =  2.3
 --- enter write_ns ---
 LDA+U parameters:
U( 1)     =  0.00000000
alpha( 1) =  0.00000000
U( 2)     =  0.00000000
alpha( 2) =  0.00000000
U( 3)     =  0.00000000
alpha( 3) =  0.00000000
U( 4)     =  0.00000000
alpha( 4) =  0.00000000
atom    1   Tr[ns(na)] =   8.18702
    eigenvalues: 
  0.621  0.621  0.950  0.950  0.950
    eigenvectors:
  0.000  0.000  1.000  0.000  0.000
  0.317  0.334  0.000  0.010  0.338
  0.334  0.317  0.000  0.338  0.010
  0.283  0.065  0.000  0.505  0.147
  0.065  0.283  0.000  0.147  0.505
    occupations:
  0.950  0.000  0.000  0.000  0.000
  0.000  0.736  0.000 -0.050  0.149
  0.000  0.000  0.736  0.149  0.050
  0.000 -0.050  0.149  0.836  0.000
  0.000  0.149  0.050  0.000  0.836
atom    2   Tr[ns(na)] =   8.25090
    eigenvalues: 
  0.627  0.627  0.957  0.957  0.957
    eigenvectors:
  0.000  0.000  1.000  0.000  0.000
  0.619  0.033  0.000  0.212  0.136
  0.033  0.619  0.000  0.136  0.212
  0.004  0.344  0.000  0.465  0.187
  0.344  0.004  0.000  0.187  0.465
    occupations:
  0.957  0.000  0.000  0.000  0.000
  0.000  0.742  0.000  0.051  0.149
  0.000  0.000  0.742  0.149 -0.051
  0.000  0.051  0.149  0.842  0.000
  0.000  0.149 -0.051  0.000  0.842
atom    3   Tr[ns(na)] =   3.54706
    eigenvalues: 
  0.330  0.330  0.360  0.377  0.377
    eigenvectors:
  0.000  0.000  1.000  0.000  0.000
  0.736  0.155  0.000  0.017  0.092
  0.155  0.736  0.000  0.092  0.017
  0.020  0.089  0.000  0.747  0.144
  0.089  0.020  0.000  0.144  0.747
    occupations:
  0.360  0.000  0.000  0.000  0.000
  0.000  0.335  0.000  0.000  0.015
  0.000  0.000  0.335  0.015  0.000
  0.000  0.000  0.015  0.372  0.000
  0.000  0.015  0.000  0.000  0.372
atom    4   Tr[ns(na)] =   3.54677
    eigenvalues: 
  0.330  0.330  0.360  0.377  0.377
    eigenvectors:
  0.000  0.000  1.000  0.000  0.000
  0.736  0.155  0.000  0.017  0.092
  0.155  0.736  0.000  0.092  0.017
  0.019  0.089  0.000  0.747  0.144
  0.089  0.019  0.000  0.144  0.747
    occupations:
  0.360  0.000  0.000  0.000  0.000
  0.000  0.335  0.000  0.000  0.014
  0.000  0.000  0.335  0.014  0.000
  0.000  0.000  0.014  0.372  0.000
  0.000  0.014  0.000  0.000  0.372
atom    5   Tr[ns(na)] =   5.42963
    eigenvalues: 
  0.831  0.933  0.951
    eigenvectors:
  0.346  0.000  0.654
  0.489  0.253  0.258
  0.165  0.747  0.088
    occupations:
  0.910 -0.050  0.029
 -0.050  0.888  0.026
  0.029  0.026  0.917
atom    6   Tr[ns(na)] =   5.42963
    eigenvalues: 
  0.831  0.933  0.951
    eigenvectors:
  0.346  0.000  0.654
  0.493  0.247  0.260
  0.162  0.753  0.085
    occupations:
  0.910  0.050  0.029
  0.050  0.887 -0.026
  0.029 -0.026  0.918
atom    7   Tr[ns(na)] =   5.42963
    eigenvalues: 
  0.831  0.933  0.951
    eigenvectors:
  0.346  0.000  0.654
  0.000  1.000  0.000
  0.654  0.000  0.346
    occupations:
  0.910  0.000 -0.057
  0.000  0.933  0.000
 -0.057  0.000  0.873
atom    8   Tr[ns(na)] =   5.42952
    eigenvalues: 
  0.831  0.933  0.951
    eigenvectors:
  0.346  0.000  0.654
  0.489  0.252  0.259
  0.165  0.748  0.087
    occupations:
  0.910 -0.050  0.029
 -0.050  0.888  0.026
  0.029  0.026  0.917
atom    9   Tr[ns(na)] =   5.42952
    eigenvalues: 
  0.831  0.933  0.951
    eigenvectors:
  0.346  0.000  0.654
  0.492  0.248  0.260
  0.162  0.752  0.086
    occupations:
  0.910  0.050  0.029
  0.050  0.887 -0.026
  0.029 -0.026  0.918
atom   10   Tr[ns(na)] =   5.42952
    eigenvalues: 
  0.831  0.933  0.951
    eigenvectors:
  0.346  0.000  0.654
  0.000  1.000  0.000
  0.654  0.000  0.346
    occupations:
  0.910  0.000 -0.057
  0.000  0.933  0.000
 -0.057  0.000  0.873
N of occupied +U levels =  56.1092236
 --- exit write_ns ---
 --- in v_hubbard ---
Hubbard energy    0.0000
 -------

     total cpu time spent up to now is       62.2 secs

     total energy              =    -538.29783722 Ry
     Harris-Foulkes estimate   =    -538.37556660 Ry
     estimated scf accuracy    <       0.35355217 Ry

     iteration #  3     ecut=    30.00 Ry     beta=0.20
     Davidson diagonalization with overlap
     ethr =  4.65E-04,  avg # of iterations =  2.0
 --- enter write_ns ---
 LDA+U parameters:
U( 1)     =  0.00000000
alpha( 1) =  0.00000000
U( 2)     =  0.00000000
alpha( 2) =  0.00000000
U( 3)     =  0.00000000
alpha( 3) =  0.00000000
U( 4)     =  0.00000000
alpha( 4) =  0.00000000
atom    1   Tr[ns(na)] =   8.12758
    eigenvalues: 
  0.588  0.588  0.962  0.962  0.963
    eigenvectors:
  0.000  0.000  0.000  0.000  1.000
  0.334  0.320  0.003  0.343  0.000
  0.320  0.334  0.343  0.003  0.000
  0.292  0.055  0.515  0.138  0.000
  0.055  0.292  0.138  0.515  0.000
    occupations:
  0.963  0.000  0.000  0.000  0.000
  0.000  0.718  0.000 -0.067  0.165
  0.000  0.000  0.718  0.165  0.067
  0.000 -0.067  0.165  0.833  0.000
  0.000  0.165  0.067  0.000  0.833
atom    2   Tr[ns(na)] =   7.83920
    eigenvalues: 
  0.561  0.561  0.931  0.933  0.933
    eigenvectors:
  0.000  0.000  1.000  0.000  0.000
  0.629  0.025  0.000  0.214  0.132
  0.025  0.629  0.000  0.132  0.214
  0.007  0.339  0.000  0.468  0.186
  0.339  0.007  0.000  0.186  0.468
    occupations:
  0.931  0.000  0.000  0.000  0.000
  0.000  0.690  0.000  0.059  0.167
  0.000  0.000  0.690  0.167 -0.059
  0.000  0.059  0.167  0.804  0.000
  0.000  0.167 -0.059  0.000  0.804
atom    3   Tr[ns(na)] =   3.68282
    eigenvalues: 
  0.343  0.343  0.372  0.391  0.391
    eigenvectors:
  0.000  0.000  1.000  0.000  0.000
  0.763  0.146  0.000  0.013  0.078
  0.146  0.763  0.000  0.078  0.013
  0.016  0.075  0.000  0.767  0.142
  0.075  0.016  0.000  0.142  0.767
    occupations:
  0.372  0.000  0.000  0.000  0.000
  0.000  0.348  0.000  0.000  0.014
  0.000  0.000  0.348  0.014  0.000
  0.000  0.000  0.014  0.387  0.000
  0.000  0.014  0.000  0.000  0.387
atom    4   Tr[ns(na)] =   3.68292
    eigenvalues: 
  0.343  0.343  0.372  0.391  0.391
    eigenvectors:
  0.000  0.000  1.000  0.000  0.000
  0.762  0.146  0.000  0.013  0.078
  0.146  0.762  0.000  0.078  0.013
  0.016  0.076  0.000  0.767  0.142
  0.076  0.016  0.000  0.142  0.767
    occupations:
  0.372  0.000  0.000  0.000  0.000
  0.000  0.348  0.000  0.000  0.014
  0.000  0.000  0.348  0.014  0.000
  0.000  0.000  0.014  0.387  0.000
  0.000  0.014  0.000  0.000  0.387
atom    5   Tr[ns(na)] =   5.47248
    eigenvalues: 
  0.850  0.937  0.950
    eigenvectors:
  0.338  0.000  0.662
  0.505  0.240  0.255
  0.157  0.760  0.083
    occupations:
  0.916 -0.041  0.023
 -0.041  0.896  0.023
  0.023  0.023  0.924
atom    6   Tr[ns(na)] =   5.47248
    eigenvalues: 
  0.850  0.937  0.950
    eigenvectors:
  0.338  0.000  0.662
  0.488  0.260  0.253
  0.174  0.740  0.086
    occupations:
  0.916  0.041  0.024
  0.041  0.898 -0.023
  0.024 -0.023  0.923
atom    7   Tr[ns(na)] =   5.47248
    eigenvalues: 
  0.850  0.937  0.950
    eigenvectors:
  0.338  0.000  0.662
  0.000  1.000  0.000
  0.662  0.000  0.338
    occupations:
  0.916  0.001 -0.047
  0.001  0.937  0.001
 -0.047  0.001  0.884
atom    8   Tr[ns(na)] =   5.47250
    eigenvalues: 
  0.850  0.937  0.950
    eigenvectors:
  0.338  0.000  0.662
  0.505  0.240  0.255
  0.157  0.760  0.083
    occupations:
  0.916 -0.041  0.023
 -0.041  0.896  0.023
  0.023  0.023  0.924
atom    9   Tr[ns(na)] =   5.47250
    eigenvalues: 
  0.850  0.937  0.950
    eigenvectors:
  0.338  0.000  0.662
  0.488  0.260  0.252
  0.174  0.740  0.086
    occupations:
  0.916  0.041  0.024
  0.041  0.898 -0.023
  0.024 -0.023  0.923
atom   10   Tr[ns(na)] =   5.47250
    eigenvalues: 
  0.850  0.937  0.950
    eigenvectors:
  0.338  0.000  0.662
  0.000  1.000  0.000
  0.661  0.000  0.338
    occupations:
  0.916  0.001 -0.047
  0.001  0.937  0.001
 -0.047  0.001  0.884
N of occupied +U levels =  56.1674274
 --- exit write_ns ---
 --- in v_hubbard ---
Hubbard energy    0.0000
 -------

     total cpu time spent up to now is       83.7 secs

     total energy              =    -538.31741773 Ry
     Harris-Foulkes estimate   =    -538.35220441 Ry
     estimated scf accuracy    <       0.16618982 Ry

     iteration #  4     ecut=    30.00 Ry     beta=0.20
     Davidson diagonalization with overlap
     ethr =  2.19E-04,  avg # of iterations =  1.9
 --- enter write_ns ---
 LDA+U parameters:
U( 1)     =  0.00000000
alpha( 1) =  0.00000000
U( 2)     =  0.00000000
alpha( 2) =  0.00000000
U( 3)     =  0.00000000
alpha( 3) =  0.00000000
U( 4)     =  0.00000000
alpha( 4) =  0.00000000
atom    1   Tr[ns(na)] =   7.22535
    eigenvalues: 
  0.557  0.557  0.829  0.835  0.835
    eigenvectors:
  0.000  0.000  1.000  0.000  0.000
  0.313  0.342  0.000  0.024  0.321
  0.342  0.313  0.000  0.321  0.024
  0.261  0.084  0.000  0.497  0.158
  0.084  0.261  0.000  0.158  0.497
    occupations:
  0.829  0.000  0.000  0.000  0.000
  0.000  0.653  0.000 -0.033  0.128
  0.000  0.000  0.653  0.128  0.033
  0.000 -0.033  0.128  0.739  0.000
  0.000  0.128  0.033  0.000  0.739
atom    2   Tr[ns(na)] =   8.74496
    eigenvalues: 
  0.704  0.704  0.987  0.987  0.989
    eigenvectors:
  0.000  0.000  0.000  0.000  1.000
  0.648  0.005  0.249  0.097  0.000
  0.005  0.648  0.097  0.249  0.000
  0.045  0.301  0.474  0.179  0.000
  0.301  0.045  0.179  0.474  0.000
    occupations:
  0.989  0.000  0.000  0.000  0.000
  0.000  0.802  0.000  0.060  0.121
  0.000  0.000  0.802  0.121 -0.060
  0.000  0.060  0.121  0.889  0.000
  0.000  0.121 -0.060  0.000  0.889
atom    3   Tr[ns(na)] =   3.75261
    eigenvalues: 
  0.351  0.351  0.379  0.398  0.398
    eigenvectors:
  0.000  0.000  1.000  0.000  0.000
  0.778  0.139  0.000  0.015  0.068
  0.139  0.778  0.000  0.068  0.015
  0.011  0.072  0.000  0.777  0.141
  0.072  0.011  0.000  0.141  0.777
    occupations:
  0.379  0.000  0.000  0.000  0.000
  0.000  0.355  0.000  0.000  0.013
  0.000  0.000  0.355  0.013  0.000
  0.000  0.000  0.013  0.394  0.000
  0.000  0.013  0.000  0.000  0.394
atom    4   Tr[ns(na)] =   3.75262
    eigenvalues: 
  0.351  0.351  0.379  0.398  0.398
    eigenvectors:
  0.000  0.000  1.000  0.000  0.000
  0.777  0.140  0.000  0.015  0.069
  0.140  0.777  0.000  0.069  0.015
  0.011  0.073  0.000  0.776  0.141
  0.073  0.011  0.000  0.141  0.776
    occupations:
  0.379  0.000  0.000  0.000  0.000
  0.000  0.355  0.000  0.000  0.013
  0.000  0.000  0.355  0.013  0.000
  0.000  0.000  0.013  0.394  0.000
  0.000  0.013  0.000  0.000  0.394
atom    5   Tr[ns(na)] =   5.44677
    eigenvalues: 
  0.849  0.932  0.942
    eigenvectors:
  0.341  0.000  0.659
  0.466  0.294  0.240
  0.193  0.706  0.101
    occupations:
  0.911 -0.037  0.024
 -0.037  0.896  0.023
  0.024  0.023  0.917
atom    6   Tr[ns(na)] =   5.44677
    eigenvalues: 
  0.849  0.932  0.942
    eigenvectors:
  0.341  0.000  0.659
  0.521  0.209  0.270
  0.138  0.791  0.071
    occupations:
  0.911  0.039  0.020
  0.039  0.892 -0.021
  0.020 -0.021  0.921
atom    7   Tr[ns(na)] =   5.44677
    eigenvalues: 
  0.849  0.932  0.942
    eigenvectors:
  0.341  0.000  0.659
  0.002  0.998  0.001
  0.657  0.002  0.340
    occupations:
  0.911 -0.002 -0.044
 -0.002  0.932 -0.002
 -0.044 -0.002  0.881
atom    8   Tr[ns(na)] =   5.44682
    eigenvalues: 
  0.849  0.932  0.942
    eigenvectors:
  0.341  0.000  0.659
  0.466  0.293  0.241
  0.193  0.707  0.100
    occupations:
  0.911 -0.037  0.024
 -0.037  0.896  0.023
  0.024  0.023  0.917
atom    9   Tr[ns(na)] =   5.44682
    eigenvalues: 
  0.849  0.932  0.942
    eigenvectors:
  0.341  0.000  0.659
  0.521  0.209  0.270
  0.138  0.791  0.071
    occupations:
  0.911  0.039  0.020
  0.039  0.892 -0.021
  0.020 -0.021  0.921
atom   10   Tr[ns(na)] =   5.44682
    eigenvalues: 
  0.849  0.932  0.942
    eigenvectors:
  0.341  0.000  0.659
  0.002  0.998  0.001
  0.657  0.002  0.340
    occupations:
  0.911 -0.002 -0.044
 -0.002  0.932 -0.002
 -0.044 -0.002  0.881
N of occupied +U levels =  56.1563131
 --- exit write_ns ---
 --- in v_hubbard ---
Hubbard energy    0.0000
 -------

     total cpu time spent up to now is      105.3 secs

     total energy              =    -538.28954504 Ry
     Harris-Foulkes estimate   =    -538.37700085 Ry
     estimated scf accuracy    <       1.25489526 Ry

     iteration #  5     ecut=    30.00 Ry     beta=0.20
     Davidson diagonalization with overlap
     ethr =  2.19E-04,  avg # of iterations =  1.0
 --- enter write_ns ---
 LDA+U parameters:
U( 1)     =  0.00000000
alpha( 1) =  0.00000000
U( 2)     =  0.00000000
alpha( 2) =  0.00000000
U( 3)     =  0.00000000
alpha( 3) =  0.00000000
U( 4)     =  0.00000000
alpha( 4) =  0.00000000
atom    1   Tr[ns(na)] =   8.13767
    eigenvalues: 
  0.607  0.607  0.950  0.952  0.952
    eigenvectors:
  0.000  0.000  1.000  0.000  0.000
  0.334  0.321  0.000  0.004  0.341
  0.321  0.334  0.000  0.341  0.004
  0.288  0.057  0.000  0.515  0.140
  0.057  0.288  0.000  0.140  0.515
    occupations:
  0.950  0.000  0.000  0.000  0.000
  0.000  0.726  0.000 -0.060  0.152
  0.000  0.000  0.726  0.152  0.060
  0.000 -0.060  0.152  0.833  0.000
  0.000  0.152  0.060  0.000  0.833
atom    2   Tr[ns(na)] =   8.05125
    eigenvalues: 
  0.599  0.599  0.941  0.944  0.944
    eigenvectors:
  0.000  0.000  1.000  0.000  0.000
  0.635  0.020  0.000  0.219  0.126
  0.020  0.635  0.000  0.126  0.219
  0.012  0.333  0.000  0.470  0.185
  0.333  0.012  0.000  0.185  0.470
    occupations:
  0.941  0.000  0.000  0.000  0.000
  0.000  0.718  0.000  0.058  0.153
  0.000  0.000  0.718  0.153 -0.058
  0.000  0.058  0.153  0.825  0.000
  0.000  0.153 -0.058  0.000  0.825
atom    3   Tr[ns(na)] =   3.81939
    eigenvalues: 
  0.359  0.359  0.384  0.404  0.404
    eigenvectors:
  0.000  0.000  1.000  0.000  0.000
  0.790  0.136  0.000  0.010  0.063
  0.136  0.790  0.000  0.063  0.010
  0.011  0.062  0.000  0.788  0.139
  0.062  0.011  0.000  0.139  0.788
    occupations:
  0.384  0.000  0.000  0.000  0.000
  0.000  0.362  0.000  0.000  0.012
  0.000  0.000  0.362  0.012  0.000
  0.000  0.000  0.012  0.401  0.000
  0.000  0.012  0.000  0.000  0.401
atom    4   Tr[ns(na)] =   3.81937
    eigenvalues: 
  0.359  0.359  0.384  0.404  0.404
    eigenvectors:
  0.000  0.000  1.000  0.000  0.000
  0.789  0.137  0.000  0.010  0.064
  0.137  0.789  0.000  0.064  0.010
  0.012  0.062  0.000  0.787  0.139
  0.062  0.012  0.000  0.139  0.787
    occupations:
  0.384  0.000  0.000  0.000  0.000
  0.000  0.362  0.000  0.000  0.012
  0.000  0.000  0.362  0.012  0.000
  0.000  0.000  0.012  0.400  0.000
  0.000  0.012  0.000  0.000  0.400
atom    5   Tr[ns(na)] =   5.40735
    eigenvalues: 
  0.838  0.927  0.939
    eigenvectors:
  0.342  0.000  0.658
  0.496  0.247  0.257
  0.162  0.753  0.086
    occupations:
  0.905 -0.042  0.024
 -0.042  0.886  0.023
  0.024  0.023  0.913
atom    6   Tr[ns(na)] =   5.40735
    eigenvalues: 
  0.838  0.927  0.939
    eigenvectors:
  0.342  0.000  0.658
  0.490  0.253  0.257
  0.167  0.747  0.086
    occupations:
  0.905  0.042  0.024
  0.042  0.886 -0.024
  0.024 -0.024  0.913
atom    7   Tr[ns(na)] =   5.40735
    eigenvalues: 
  0.838  0.927  0.939
    eigenvectors:
  0.342  0.000  0.658
  0.000  1.000  0.000
  0.658  0.000  0.342
    occupations:
  0.905  0.000 -0.048
  0.000  0.927  0.000
 -0.048  0.000  0.873
atom    8   Tr[ns(na)] =   5.40738
    eigenvalues: 
  0.838  0.927  0.939
    eigenvectors:
  0.342  0.000  0.658
  0.496  0.247  0.257
  0.162  0.753  0.085
    occupations:
  0.905 -0.042  0.024
 -0.042  0.886  0.023
  0.024  0.023  0.913
atom    9   Tr[ns(na)] =   5.40738
    eigenvalues: 
  0.838  0.927  0.939
    eigenvectors:
  0.342  0.000  0.658
  0.490  0.253  0.257
  0.167  0.747  0.086
    occupations:
  0.905  0.042  0.024
  0.042  0.886 -0.024
  0.024 -0.024  0.913
atom   10   Tr[ns(na)] =   5.40738
    eigenvalues: 
  0.838  0.927  0.939
    eigenvectors:
  0.342  0.000  0.658
  0.000  1.000  0.000
  0.658  0.000  0.342
    occupations:
  0.905  0.000 -0.048
  0.000  0.927  0.000
 -0.048  0.000  0.873
N of occupied +U levels =  56.2718710
 --- exit write_ns ---
 --- in v_hubbard ---
Hubbard energy    0.0000
 -------

     total cpu time spent up to now is      128.4 secs

     total energy              =    -538.31875219 Ry
     Harris-Foulkes estimate   =    -538.33683821 Ry
     estimated scf accuracy    <       0.04344515 Ry

     iteration #  6     ecut=    30.00 Ry     beta=0.20
     Davidson diagonalization with overlap
     ethr =  5.72E-05,  avg # of iterations =  3.2
 --- enter write_ns ---
 LDA+U parameters:
U( 1)     =  0.00000000
alpha( 1) =  0.00000000
U( 2)     =  0.00000000
alpha( 2) =  0.00000000
U( 3)     =  0.00000000
alpha( 3) =  0.00000000
U( 4)     =  0.00000000
alpha( 4) =  0.00000000
atom    1   Tr[ns(na)] =   7.76524
    eigenvalues: 
  0.541  0.541  0.932  0.935  0.935
    eigenvectors:
  0.000  0.000  1.000  0.000  0.000
  0.341  0.315  0.000  0.002  0.343
  0.315  0.341  0.000  0.343  0.002
  0.292  0.053  0.000  0.519  0.136
  0.053  0.292  0.000  0.136  0.519
    occupations:
  0.932  0.000  0.000  0.000  0.000
  0.000  0.676  0.000 -0.074  0.172
  0.000  0.000  0.676  0.172  0.074
  0.000 -0.074  0.172  0.799  0.000
  0.000  0.172  0.074  0.000  0.799
atom    2   Tr[ns(na)] =   7.76785
    eigenvalues: 
  0.540  0.540  0.933  0.936  0.936
    eigenvectors:
  0.000  0.000  1.000  0.000  0.000
  0.646  0.010  0.000  0.230  0.114
  0.010  0.646  0.000  0.114  0.230
  0.026  0.318  0.000  0.473  0.183
  0.318  0.026  0.000  0.183  0.473
    occupations:
  0.933  0.000  0.000  0.000  0.000
  0.000  0.676  0.000  0.073  0.173
  0.000  0.000  0.676  0.173 -0.073
  0.000  0.073  0.173  0.799  0.000
  0.000  0.173 -0.073  0.000  0.799
atom    3   Tr[ns(na)] =   3.75980
    eigenvalues: 
  0.350  0.350  0.380  0.400  0.400
    eigenvectors:
  0.000  0.000  1.000  0.000  0.000
  0.781  0.140  0.000  0.012  0.068
  0.140  0.781  0.000  0.068  0.012
  0.012  0.067  0.000  0.781  0.140
  0.067  0.012  0.000  0.140  0.781
    occupations:
  0.380  0.000  0.000  0.000  0.000
  0.000  0.354  0.000  0.000  0.013
  0.000  0.000  0.354  0.013  0.000
  0.000  0.000  0.013  0.396  0.000
  0.000  0.013  0.000  0.000  0.396
atom    4   Tr[ns(na)] =   3.75980
    eigenvalues: 
  0.350  0.350  0.380  0.400  0.400
    eigenvectors:
  0.000  0.000  1.000  0.000  0.000
  0.781  0.140  0.000  0.012  0.068
  0.140  0.781  0.000  0.068  0.012
  0.012  0.067  0.000  0.781  0.140
  0.067  0.012  0.000  0.140  0.781
    occupations:
  0.380  0.000  0.000  0.000  0.000
  0.000  0.354  0.000  0.000  0.013
  0.000  0.000  0.354  0.013  0.000
  0.000  0.000  0.013  0.396  0.000
  0.000  0.013  0.000  0.000  0.396
atom    5   Tr[ns(na)] =   5.51882
    eigenvalues: 
  0.870  0.940  0.949
    eigenvectors:
  0.332  0.000  0.668
  0.502  0.250  0.249
  0.166  0.750  0.084
    occupations:
  0.923 -0.032  0.018
 -0.032  0.907  0.019
  0.018  0.019  0.929
atom    6   Tr[ns(na)] =   5.51882
    eigenvalues: 
  0.870  0.940  0.949
    eigenvectors:
  0.332  0.000  0.668
  0.500  0.250  0.250
  0.168  0.750  0.083
    occupations:
  0.923  0.032  0.018
  0.032  0.907 -0.019
  0.018 -0.019  0.929
atom    7   Tr[ns(na)] =   5.51882
    eigenvalues: 
  0.870  0.940  0.949
    eigenvectors:
  0.332  0.000  0.668
  0.000  1.000  0.000
  0.668  0.000  0.332
    occupations:
  0.923  0.000 -0.037
  0.000  0.940  0.000
 -0.037  0.000  0.896
atom    8   Tr[ns(na)] =   5.51874
    eigenvalues: 
  0.870  0.940  0.949
    eigenvectors:
  0.332  0.000  0.668
  0.502  0.250  0.249
  0.166  0.750  0.084
    occupations:
  0.923 -0.032  0.018
 -0.032  0.907  0.019
  0.018  0.019  0.929
atom    9   Tr[ns(na)] =   5.51874
    eigenvalues: 
  0.870  0.940  0.949
    eigenvectors:
  0.332  0.000  0.668
  0.500  0.250  0.250
  0.168  0.750  0.083
    occupations:
  0.923  0.032  0.018
  0.032  0.907 -0.019
  0.018 -0.019  0.929
atom   10   Tr[ns(na)] =   5.51874
    eigenvalues: 
  0.870  0.940  0.949
    eigenvectors:
  0.332  0.000  0.668
  0.000  1.000  0.000
  0.668  0.000  0.332
    occupations:
  0.923  0.000 -0.037
  0.000  0.940  0.000
 -0.037  0.000  0.896
N of occupied +U levels =  56.1653772
 --- exit write_ns ---
 --- in v_hubbard ---
Hubbard energy    0.0000
 -------

     total cpu time spent up to now is      159.7 secs

     total energy              =    -538.31507882 Ry
     Harris-Foulkes estimate   =    -538.35827766 Ry
     estimated scf accuracy    <       0.18053876 Ry

     iteration #  7     ecut=    30.00 Ry     beta=0.20
     Davidson diagonalization with overlap
     ethr =  5.72E-05,  avg # of iterations =  2.4
 --- enter write_ns ---
 LDA+U parameters:
U( 1)     =  0.00000000
alpha( 1) =  0.00000000
U( 2)     =  0.00000000
alpha( 2) =  0.00000000
U( 3)     =  0.00000000
alpha( 3) =  0.00000000
U( 4)     =  0.00000000
alpha( 4) =  0.00000000
atom    1   Tr[ns(na)] =   7.99224
    eigenvalues: 
  0.590  0.590  0.936  0.940  0.940
    eigenvectors:
  0.000  0.000  1.000  0.000  0.000
  0.335  0.320  0.000  0.003  0.341
  0.320  0.335  0.000  0.341  0.003
  0.288  0.056  0.000  0.516  0.139
  0.056  0.288  0.000  0.139  0.516
    occupations:
  0.936  0.000  0.000  0.000  0.000
  0.000  0.711  0.000 -0.062  0.154
  0.000  0.000  0.711  0.154  0.062
  0.000 -0.062  0.154  0.819  0.000
  0.000  0.154  0.062  0.000  0.819
atom    2   Tr[ns(na)] =   7.99286
    eigenvalues: 
  0.590  0.590  0.937  0.940  0.940
    eigenvectors:
  0.000  0.000  1.000  0.000  0.000
  0.640  0.015  0.000  0.224  0.121
  0.015  0.640  0.000  0.121  0.224
  0.017  0.328  0.000  0.471  0.184
  0.328  0.017  0.000  0.184  0.471
    occupations:
  0.937  0.000  0.000  0.000  0.000
  0.000  0.711  0.000  0.061  0.155
  0.000  0.000  0.711  0.155 -0.061
  0.000  0.061  0.155  0.819  0.000
  0.000  0.155 -0.061  0.000  0.819
atom    3   Tr[ns(na)] =   3.80108
    eigenvalues: 
  0.355  0.355  0.384  0.403  0.403
    eigenvectors:
  0.000  0.000  1.000  0.000  0.000
  0.785  0.138  0.000  0.011  0.065
  0.138  0.785  0.000  0.065  0.011
  0.012  0.065  0.000  0.784  0.140
  0.065  0.012  0.000  0.140  0.784
    occupations:
  0.384  0.000  0.000  0.000  0.000
  0.000  0.359  0.000  0.000  0.013
  0.000  0.000  0.359  0.013  0.000
  0.000  0.000  0.013  0.399  0.000
  0.000  0.013  0.000  0.000  0.399
atom    4   Tr[ns(na)] =   3.80103
    eigenvalues: 
  0.355  0.355  0.384  0.403  0.403
    eigenvectors:
  0.000  0.000  1.000  0.000  0.000
  0.785  0.138  0.000  0.011  0.066
  0.138  0.785  0.000  0.066  0.011
  0.012  0.065  0.000  0.784  0.140
  0.065  0.012  0.000  0.140  0.784
    occupations:
  0.384  0.000  0.000  0.000  0.000
  0.000  0.359  0.000  0.000  0.013
  0.000  0.000  0.359  0.013  0.000
  0.000  0.000  0.013  0.399  0.000
  0.000  0.013  0.000  0.000  0.399
atom    5   Tr[ns(na)] =   5.44308
    eigenvalues: 
  0.849  0.931  0.942
    eigenvectors:
  0.339  0.000  0.661
  0.496  0.250  0.254
  0.164  0.750  0.085
    occupations:
  0.910 -0.038  0.022
 -0.038  0.893  0.022
  0.022  0.022  0.918
atom    6   Tr[ns(na)] =   5.44308
    eigenvalues: 
  0.849  0.931  0.942
    eigenvectors:
  0.339  0.000  0.661
  0.495  0.250  0.255
  0.166  0.750  0.084
    occupations:
  0.910  0.038  0.022
  0.038  0.893 -0.022
  0.022 -0.022  0.918
atom    7   Tr[ns(na)] =   5.44308
    eigenvalues: 
  0.849  0.931  0.942
    eigenvectors:
  0.339  0.000  0.661
  0.000  1.000  0.000
  0.661  0.000  0.339
    occupations:
  0.910  0.000 -0.044
  0.000  0.931  0.000
 -0.044  0.000  0.880
atom    8   Tr[ns(na)] =   5.44306
    eigenvalues: 
  0.849  0.931  0.942
    eigenvectors:
  0.339  0.000  0.661
  0.496  0.250  0.254
  0.164  0.750  0.085
    occupations:
  0.910 -0.038  0.022
 -0.038  0.893  0.022
  0.022  0.022  0.918
atom    9   Tr[ns(na)] =   5.44306
    eigenvalues: 
  0.849  0.931  0.942
    eigenvectors:
  0.339  0.000  0.661
  0.495  0.250  0.255
  0.166  0.750  0.084
    occupations:
  0.910  0.038  0.022
  0.038  0.893 -0.022
  0.022 -0.022  0.918
atom   10   Tr[ns(na)] =   5.44306
    eigenvalues: 
  0.849  0.931  0.942
    eigenvectors:
  0.339  0.000  0.661
  0.000  1.000  0.000
  0.661  0.000  0.339
    occupations:
  0.910  0.000 -0.044
  0.000  0.931  0.000
 -0.044  0.000  0.880
N of occupied +U levels =  56.2456453
 --- exit write_ns ---
 --- in v_hubbard ---
Hubbard energy    0.0000
 -------

     total cpu time spent up to now is      191.8 secs

     total energy              =    -538.33248515 Ry
     Harris-Foulkes estimate   =    -538.33215357 Ry
     estimated scf accuracy    <       0.00252832 Ry

     iteration #  8     ecut=    30.00 Ry     beta=0.20
     Davidson diagonalization with overlap
     ethr =  3.33E-06,  avg # of iterations =  5.8
 --- enter write_ns ---
 LDA+U parameters:
U( 1)     =  0.00000000
alpha( 1) =  0.00000000
U( 2)     =  0.00000000
alpha( 2) =  0.00000000
U( 3)     =  0.00000000
alpha( 3) =  0.00000000
U( 4)     =  0.00000000
alpha( 4) =  0.00000000
atom    1   Tr[ns(na)] =   7.99795
    eigenvalues: 
  0.591  0.591  0.937  0.940  0.940
    eigenvectors:
  0.000  0.000  1.000  0.000  0.000
  0.334  0.321  0.000  0.004  0.342
  0.321  0.334  0.000  0.342  0.004
  0.289  0.056  0.000  0.515  0.140
  0.056  0.289  0.000  0.140  0.515
    occupations:
  0.937  0.000  0.000  0.000  0.000
  0.000  0.711  0.000 -0.062  0.154
  0.000  0.000  0.711  0.154  0.062
  0.000 -0.062  0.154  0.820  0.000
  0.000  0.154  0.062  0.000  0.820
atom    2   Tr[ns(na)] =   7.99738
    eigenvalues: 
  0.590  0.590  0.938  0.941  0.941
    eigenvectors:
  0.000  0.000  1.000  0.000  0.000
  0.639  0.016  0.000  0.223  0.122
  0.016  0.639  0.000  0.122  0.223
  0.016  0.329  0.000  0.471  0.184
  0.329  0.016  0.000  0.184  0.471
    occupations:
  0.938  0.000  0.000  0.000  0.000
  0.000  0.711  0.000  0.061  0.155
  0.000  0.000  0.711  0.155 -0.061
  0.000  0.061  0.155  0.820  0.000
  0.000  0.155 -0.061  0.000  0.820
atom    3   Tr[ns(na)] =   3.79978
    eigenvalues: 
  0.355  0.355  0.384  0.403  0.403
    eigenvectors:
  0.000  0.000  1.000  0.000  0.000
  0.782  0.139  0.000  0.011  0.067
  0.139  0.782  0.000  0.067  0.011
  0.012  0.066  0.000  0.781  0.140
  0.066  0.012  0.000  0.140  0.781
    occupations:
  0.384  0.000  0.000  0.000  0.000
  0.000  0.359  0.000  0.000  0.013
  0.000  0.000  0.359  0.013  0.000
  0.000  0.000  0.013  0.399  0.000
  0.000  0.013  0.000  0.000  0.399
atom    4   Tr[ns(na)] =   3.79980
    eigenvalues: 
  0.355  0.355  0.384  0.403  0.403
    eigenvectors:
  0.000  0.000  1.000  0.000  0.000
  0.782  0.139  0.000  0.011  0.067
  0.139  0.782  0.000  0.067  0.011
  0.012  0.066  0.000  0.781  0.140
  0.066  0.012  0.000  0.140  0.781
    occupations:
  0.384  0.000  0.000  0.000  0.000
  0.000  0.359  0.000  0.000  0.013
  0.000  0.000  0.359  0.013  0.000
  0.000  0.000  0.013  0.399  0.000
  0.000  0.013  0.000  0.000  0.399
atom    5   Tr[ns(na)] =   5.44173
    eigenvalues: 
  0.849  0.931  0.942
    eigenvectors:
  0.339  0.000  0.661
  0.496  0.250  0.254
  0.164  0.750  0.085
    occupations:
  0.910 -0.038  0.022
 -0.038  0.893  0.022
  0.022  0.022  0.918
atom    6   Tr[ns(na)] =   5.44173
    eigenvalues: 
  0.849  0.931  0.942
    eigenvectors:
  0.339  0.000  0.661
  0.495  0.250  0.255
  0.166  0.750  0.084
    occupations:
  0.910  0.038  0.022
  0.038  0.893 -0.022
  0.022 -0.022  0.918
atom    7   Tr[ns(na)] =   5.44173
    eigenvalues: 
  0.849  0.931  0.942
    eigenvectors:
  0.339  0.000  0.661
  0.000  1.000  0.000
  0.661  0.000  0.339
    occupations:
  0.910  0.000 -0.044
  0.000  0.931  0.000
 -0.044  0.000  0.880
atom    8   Tr[ns(na)] =   5.44173
    eigenvalues: 
  0.849  0.931  0.942
    eigenvectors:
  0.339  0.000  0.661
  0.496  0.250  0.254
  0.164  0.750  0.085
    occupations:
  0.910 -0.038  0.022
 -0.038  0.893  0.022
  0.022  0.022  0.918
atom    9   Tr[ns(na)] =   5.44173
    eigenvalues: 
  0.849  0.931  0.942
    eigenvectors:
  0.339  0.000  0.661
  0.495  0.250  0.255
  0.166  0.750  0.084
    occupations:
  0.910  0.038  0.022
  0.038  0.893 -0.022
  0.022 -0.022  0.918
atom   10   Tr[ns(na)] =   5.44173
    eigenvalues: 
  0.849  0.931  0.942
    eigenvectors:
  0.339  0.000  0.661
  0.000  1.000  0.000
  0.661  0.000  0.339
    occupations:
  0.910  0.000 -0.044
  0.000  0.931  0.000
 -0.044  0.000  0.880
N of occupied +U levels =  56.2452781
 --- exit write_ns ---
 --- in v_hubbard ---
Hubbard energy    0.0000
 -------

     total cpu time spent up to now is      229.8 secs

     total energy              =    -538.33245565 Ry
     Harris-Foulkes estimate   =    -538.33265350 Ry
     estimated scf accuracy    <       0.00176447 Ry

     iteration #  9     ecut=    30.00 Ry     beta=0.20
     Davidson diagonalization with overlap
     ethr =  2.32E-06,  avg # of iterations =  1.6
 --- enter write_ns ---
 LDA+U parameters:
U( 1)     =  0.00000000
alpha( 1) =  0.00000000
U( 2)     =  0.00000000
alpha( 2) =  0.00000000
U( 3)     =  0.00000000
alpha( 3) =  0.00000000
U( 4)     =  0.00000000
alpha( 4) =  0.00000000
atom    1   Tr[ns(na)] =   8.02053
    eigenvalues: 
  0.596  0.596  0.938  0.941  0.941
    eigenvectors:
  0.000  0.000  1.000  0.000  0.000
  0.333  0.321  0.000  0.004  0.342
  0.321  0.333  0.000  0.342  0.004
  0.288  0.057  0.000  0.515  0.140
  0.057  0.288  0.000  0.140  0.515
    occupations:
  0.938  0.000  0.000  0.000  0.000
  0.000  0.715  0.000 -0.060  0.153
  0.000  0.000  0.715  0.153  0.060
  0.000 -0.060  0.153  0.821  0.000
  0.000  0.153  0.060  0.000  0.821
atom    2   Tr[ns(na)] =   8.02006
    eigenvalues: 
  0.595  0.595  0.938  0.941  0.941
    eigenvectors:
  0.000  0.000  1.000  0.000  0.000
  0.638  0.017  0.000  0.223  0.123
  0.017  0.638  0.000  0.123  0.223
  0.015  0.330  0.000  0.470  0.184
  0.330  0.015  0.000  0.184  0.470
    occupations:
  0.938  0.000  0.000  0.000  0.000
  0.000  0.714  0.000  0.060  0.153
  0.000  0.000  0.714  0.153 -0.060
  0.000  0.060  0.153  0.822  0.000
  0.000  0.153 -0.060  0.000  0.822
atom    3   Tr[ns(na)] =   3.79842
    eigenvalues: 
  0.355  0.355  0.384  0.403  0.403
    eigenvectors:
  0.000  0.000  1.000  0.000  0.000
  0.781  0.140  0.000  0.012  0.068
  0.140  0.781  0.000  0.068  0.012
  0.013  0.067  0.000  0.780  0.140
  0.067  0.013  0.000  0.140  0.780
    occupations:
  0.384  0.000  0.000  0.000  0.000
  0.000  0.359  0.000  0.000  0.013
  0.000  0.000  0.359  0.013  0.000
  0.000  0.000  0.013  0.399  0.000
  0.000  0.013  0.000  0.000  0.399
atom    4   Tr[ns(na)] =   3.79844
    eigenvalues: 
  0.355  0.355  0.384  0.403  0.403
    eigenvectors:
  0.000  0.000  1.000  0.000  0.000
  0.781  0.139  0.000  0.012  0.068
  0.139  0.781  0.000  0.068  0.012
  0.013  0.067  0.000  0.780  0.140
  0.067  0.013  0.000  0.140  0.780
    occupations:
  0.384  0.000  0.000  0.000  0.000
  0.000  0.359  0.000  0.000  0.013
  0.000  0.000  0.359  0.013  0.000
  0.000  0.000  0.013  0.399  0.000
  0.000  0.013  0.000  0.000  0.399
atom    5   Tr[ns(na)] =   5.43513
    eigenvalues: 
  0.847  0.930  0.941
    eigenvectors:
  0.340  0.000  0.660
  0.496  0.250  0.255
  0.164  0.750  0.085
    occupations:
  0.909 -0.039  0.022
 -0.039  0.891  0.022
  0.022  0.022  0.917
atom    6   Tr[ns(na)] =   5.43513
    eigenvalues: 
  0.847  0.930  0.941
    eigenvectors:
  0.340  0.000  0.660
  0.494  0.250  0.256
  0.166  0.750  0.085
    occupations:
  0.909  0.039  0.022
  0.039  0.892 -0.022
  0.022 -0.022  0.917
atom    7   Tr[ns(na)] =   5.43513
    eigenvalues: 
  0.847  0.930  0.941
    eigenvectors:
  0.340  0.000  0.660
  0.000  1.000  0.000
  0.660  0.000  0.340
    occupations:
  0.909  0.000 -0.045
  0.000  0.930  0.000
 -0.045  0.000  0.879
atom    8   Tr[ns(na)] =   5.43513
    eigenvalues: 
  0.847  0.930  0.941
    eigenvectors:
  0.340  0.000  0.660
  0.496  0.250  0.255
  0.164  0.750  0.085
    occupations:
  0.909 -0.039  0.022
 -0.039  0.891  0.022
  0.022  0.022  0.917
atom    9   Tr[ns(na)] =   5.43513
    eigenvalues: 
  0.847  0.930  0.941
    eigenvectors:
  0.340  0.000  0.660
  0.494  0.250  0.256
  0.166  0.750  0.085
    occupations:
  0.909  0.039  0.022
  0.039  0.892 -0.022
  0.022 -0.022  0.917
atom   10   Tr[ns(na)] =   5.43513
    eigenvalues: 
  0.847  0.930  0.941
    eigenvectors:
  0.340  0.000  0.660
  0.000  1.000  0.000
  0.660  0.000  0.340
    occupations:
  0.909  0.000 -0.045
  0.000  0.930  0.000
 -0.045  0.000  0.879
N of occupied +U levels =  56.2482335
 --- exit write_ns ---
 --- in v_hubbard ---
Hubbard energy    0.0000
 -------

     total cpu time spent up to now is      261.1 secs

     total energy              =    -538.33275884 Ry
     Harris-Foulkes estimate   =    -538.33263034 Ry
     estimated scf accuracy    <       0.00007465 Ry

     iteration # 10     ecut=    30.00 Ry     beta=0.20
     Davidson diagonalization with overlap
     ethr =  9.82E-08,  avg # of iterations =  3.1
 --- enter write_ns ---
 LDA+U parameters:
U( 1)     =  0.00000000
alpha( 1) =  0.00000000
U( 2)     =  0.00000000
alpha( 2) =  0.00000000
U( 3)     =  0.00000000
alpha( 3) =  0.00000000
U( 4)     =  0.00000000
alpha( 4) =  0.00000000
atom    1   Tr[ns(na)] =   8.02054
    eigenvalues: 
  0.595  0.595  0.938  0.941  0.941
    eigenvectors:
  0.000  0.000  1.000  0.000  0.000
  0.333  0.321  0.000  0.004  0.342
  0.321  0.333  0.000  0.342  0.004
  0.288  0.057  0.000  0.515  0.140
  0.057  0.288  0.000  0.140  0.515
    occupations:
  0.938  0.000  0.000  0.000  0.000
  0.000  0.715  0.000 -0.060  0.153
  0.000  0.000  0.715  0.153  0.060
  0.000 -0.060  0.153  0.822  0.000
  0.000  0.153  0.060  0.000  0.822
atom    2   Tr[ns(na)] =   8.01991
    eigenvalues: 
  0.595  0.595  0.938  0.941  0.941
    eigenvectors:
  0.000  0.000  1.000  0.000  0.000
  0.638  0.016  0.000  0.223  0.122
  0.016  0.638  0.000  0.122  0.223
  0.016  0.330  0.000  0.470  0.184
  0.330  0.016  0.000  0.184  0.470
    occupations:
  0.938  0.000  0.000  0.000  0.000
  0.000  0.714  0.000  0.060  0.153
  0.000  0.000  0.714  0.153 -0.060
  0.000  0.060  0.153  0.822  0.000
  0.000  0.153 -0.060  0.000  0.822
atom    3   Tr[ns(na)] =   3.80293
    eigenvalues: 
  0.355  0.355  0.384  0.403  0.403
    eigenvectors:
  0.000  0.000  1.000  0.000  0.000
  0.781  0.139  0.000  0.012  0.068
  0.139  0.781  0.000  0.068  0.012
  0.013  0.067  0.000  0.780  0.140
  0.067  0.013  0.000  0.140  0.780
    occupations:
  0.384  0.000  0.000  0.000  0.000
  0.000  0.359  0.000  0.000  0.013
  0.000  0.000  0.359  0.013  0.000
  0.000  0.000  0.013  0.399  0.000
  0.000  0.013  0.000  0.000  0.399
atom    4   Tr[ns(na)] =   3.80293
    eigenvalues: 
  0.355  0.355  0.384  0.403  0.403
    eigenvectors:
  0.000  0.000  1.000  0.000  0.000
  0.781  0.140  0.000  0.012  0.068
  0.140  0.781  0.000  0.068  0.012
  0.013  0.067  0.000  0.780  0.140
  0.067  0.013  0.000  0.140  0.780
    occupations:
  0.384  0.000  0.000  0.000  0.000
  0.000  0.359  0.000  0.000  0.013
  0.000  0.000  0.359  0.013  0.000
  0.000  0.000  0.013  0.399  0.000
  0.000  0.013  0.000  0.000  0.399
atom    5   Tr[ns(na)] =   5.43402
    eigenvalues: 
  0.846  0.929  0.941
    eigenvectors:
  0.340  0.000  0.660
  0.496  0.250  0.255
  0.164  0.750  0.085
    occupations:
  0.909 -0.039  0.022
 -0.039  0.891  0.022
  0.022  0.022  0.917
atom    6   Tr[ns(na)] =   5.43402
    eigenvalues: 
  0.846  0.929  0.941
    eigenvectors:
  0.340  0.000  0.660
  0.494  0.250  0.256
  0.166  0.750  0.085
    occupations:
  0.909  0.039  0.022
  0.039  0.891 -0.022
  0.022 -0.022  0.917
atom    7   Tr[ns(na)] =   5.43402
    eigenvalues: 
  0.846  0.929  0.941
    eigenvectors:
  0.340  0.000  0.660
  0.000  1.000  0.000
  0.660  0.000  0.340
    occupations:
  0.909  0.000 -0.045
  0.000  0.929  0.000
 -0.045  0.000  0.879
atom    8   Tr[ns(na)] =   5.43401
    eigenvalues: 
  0.846  0.929  0.941
    eigenvectors:
  0.340  0.000  0.660
  0.496  0.250  0.255
  0.164  0.750  0.085
    occupations:
  0.909 -0.039  0.022
 -0.039  0.891  0.022
  0.022  0.022  0.917
atom    9   Tr[ns(na)] =   5.43401
    eigenvalues: 
  0.846  0.929  0.941
    eigenvectors:
  0.340  0.000  0.660
  0.494  0.250  0.256
  0.166  0.750  0.085
    occupations:
  0.909  0.039  0.022
  0.039  0.891 -0.022
  0.022 -0.022  0.917
atom   10   Tr[ns(na)] =   5.43401
    eigenvalues: 
  0.846  0.929  0.941
    eigenvectors:
  0.340  0.000  0.660
  0.000  1.000  0.000
  0.660  0.000  0.340
    occupations:
  0.909  0.000 -0.045
  0.000  0.929  0.000
 -0.045  0.000  0.879
N of occupied +U levels =  56.2503992
 --- exit write_ns ---
 --- in v_hubbard ---
Hubbard energy    0.0000
 -------

     total cpu time spent up to now is      288.6 secs

     total energy              =    -538.33287680 Ry
     Harris-Foulkes estimate   =    -538.33278181 Ry
     estimated scf accuracy    <       0.00000911 Ry

     iteration # 11     ecut=    30.00 Ry     beta=0.20
     Davidson diagonalization with overlap
     ethr =  1.20E-08,  avg # of iterations =  2.1
 --- enter write_ns ---
 LDA+U parameters:
U( 1)     =  0.00000000
alpha( 1) =  0.00000000
U( 2)     =  0.00000000
alpha( 2) =  0.00000000
U( 3)     =  0.00000000
alpha( 3) =  0.00000000
U( 4)     =  0.00000000
alpha( 4) =  0.00000000
atom    1   Tr[ns(na)] =   8.02225
    eigenvalues: 
  0.596  0.596  0.938  0.941  0.941
    eigenvectors:
  0.000  0.000  1.000  0.000  0.000
  0.333  0.321  0.000  0.004  0.341
  0.321  0.333  0.000  0.341  0.004
  0.288  0.057  0.000  0.515  0.140
  0.057  0.288  0.000  0.140  0.515
    occupations:
  0.938  0.000  0.000  0.000  0.000
  0.000  0.715  0.000 -0.060  0.152
  0.000  0.000  0.715  0.152  0.060
  0.000 -0.060  0.152  0.822  0.000
  0.000  0.152  0.060  0.000  0.822
atom    2   Tr[ns(na)] =   8.02185
    eigenvalues: 
  0.595  0.595  0.938  0.941  0.941
    eigenvectors:
  0.000  0.000  1.000  0.000  0.000
  0.639  0.016  0.000  0.223  0.123
  0.016  0.639  0.000  0.123  0.223
  0.016  0.329  0.000  0.471  0.184
  0.329  0.016  0.000  0.184  0.471
    occupations:
  0.938  0.000  0.000  0.000  0.000
  0.000  0.715  0.000  0.060  0.153
  0.000  0.000  0.715  0.153 -0.060
  0.000  0.060  0.153  0.822  0.000
  0.000  0.153 -0.060  0.000  0.822
atom    3   Tr[ns(na)] =   3.80255
    eigenvalues: 
  0.355  0.355  0.384  0.403  0.403
    eigenvectors:
  0.000  0.000  1.000  0.000  0.000
  0.781  0.139  0.000  0.012  0.068
  0.139  0.781  0.000  0.068  0.012
  0.013  0.067  0.000  0.780  0.140
  0.067  0.013  0.000  0.140  0.780
    occupations:
  0.384  0.000  0.000  0.000  0.000
  0.000  0.359  0.000  0.000  0.013
  0.000  0.000  0.359  0.013  0.000
  0.000  0.000  0.013  0.399  0.000
  0.000  0.013  0.000  0.000  0.399
atom    4   Tr[ns(na)] =   3.80255
    eigenvalues: 
  0.355  0.355  0.384  0.403  0.403
    eigenvectors:
  0.000  0.000  1.000  0.000  0.000
  0.781  0.140  0.000  0.012  0.068
  0.140  0.781  0.000  0.068  0.012
  0.013  0.067  0.000  0.780  0.140
  0.067  0.013  0.000  0.140  0.780
    occupations:
  0.384  0.000  0.000  0.000  0.000
  0.000  0.359  0.000  0.000  0.013
  0.000  0.000  0.359  0.013  0.000
  0.000  0.000  0.013  0.399  0.000
  0.000  0.013  0.000  0.000  0.399
atom    5   Tr[ns(na)] =   5.43355
    eigenvalues: 
  0.846  0.929  0.941
    eigenvectors:
  0.340  0.000  0.660
  0.496  0.250  0.255
  0.164  0.750  0.086
    occupations:
  0.909 -0.039  0.022
 -0.039  0.891  0.022
  0.022  0.022  0.917
atom    6   Tr[ns(na)] =   5.43355
    eigenvalues: 
  0.846  0.929  0.941
    eigenvectors:
  0.340  0.000  0.660
  0.494  0.250  0.256
  0.166  0.750  0.085
    occupations:
  0.909  0.039  0.022
  0.039  0.891 -0.022
  0.022 -0.022  0.917
atom    7   Tr[ns(na)] =   5.43355
    eigenvalues: 
  0.846  0.929  0.941
    eigenvectors:
  0.340  0.000  0.660
  0.000  1.000  0.000
  0.660  0.000  0.340
    occupations:
  0.909  0.000 -0.045
  0.000  0.929  0.000
 -0.045  0.000  0.879
atom    8   Tr[ns(na)] =   5.43355
    eigenvalues: 
  0.846  0.929  0.941
    eigenvectors:
  0.340  0.000  0.660
  0.496  0.250  0.255
  0.164  0.750  0.086
    occupations:
  0.909 -0.039  0.022
 -0.039  0.891  0.022
  0.022  0.022  0.917
atom    9   Tr[ns(na)] =   5.43355
    eigenvalues: 
  0.846  0.929  0.941
    eigenvectors:
  0.340  0.000  0.660
  0.494  0.250  0.256
  0.166  0.750  0.085
    occupations:
  0.909  0.039  0.022
  0.039  0.891 -0.022
  0.022 -0.022  0.917
atom   10   Tr[ns(na)] =   5.43355
    eigenvalues: 
  0.846  0.929  0.941
    eigenvectors:
  0.340  0.000  0.660
  0.000  1.000  0.000
  0.660  0.000  0.340
    occupations:
  0.909  0.000 -0.045
  0.000  0.929  0.000
 -0.045  0.000  0.879
N of occupied +U levels =  56.2504956
 --- exit write_ns ---
 --- in v_hubbard ---
Hubbard energy    0.0000
 -------

     total cpu time spent up to now is      315.6 secs

     total energy              =    -538.33294016 Ry
     Harris-Foulkes estimate   =    -538.33287812 Ry
     estimated scf accuracy    <       0.00000137 Ry

     iteration # 12     ecut=    30.00 Ry     beta=0.20
     Davidson diagonalization with overlap
     ethr =  1.80E-09,  avg # of iterations =  2.1
 --- enter write_ns ---
 LDA+U parameters:
U( 1)     =  0.00000000
alpha( 1) =  0.00000000
U( 2)     =  0.00000000
alpha( 2) =  0.00000000
U( 3)     =  0.00000000
alpha( 3) =  0.00000000
U( 4)     =  0.00000000
alpha( 4) =  0.00000000
atom    1   Tr[ns(na)] =   8.02151
    eigenvalues: 
  0.596  0.596  0.938  0.941  0.941
    eigenvectors:
  0.000  0.000  1.000  0.000  0.000
  0.334  0.321  0.000  0.004  0.341
  0.321  0.334  0.000  0.341  0.004
  0.288  0.057  0.000  0.515  0.140
  0.057  0.288  0.000  0.140  0.515
    occupations:
  0.938  0.000  0.000  0.000  0.000
  0.000  0.715  0.000 -0.060  0.153
  0.000  0.000  0.715  0.153  0.060
  0.000 -0.060  0.153  0.822  0.000
  0.000  0.153  0.060  0.000  0.822
atom    2   Tr[ns(na)] =   8.02076
    eigenvalues: 
  0.595  0.595  0.938  0.941  0.941
    eigenvectors:
  0.000  0.000  1.000  0.000  0.000
  0.638  0.017  0.000  0.223  0.122
  0.017  0.638  0.000  0.122  0.223
  0.015  0.330  0.000  0.470  0.184
  0.330  0.015  0.000  0.184  0.470
    occupations:
  0.938  0.000  0.000  0.000  0.000
  0.000  0.714  0.000  0.060  0.153
  0.000  0.000  0.714  0.153 -0.060
  0.000  0.060  0.153  0.822  0.000
  0.000  0.153 -0.060  0.000  0.822
atom    3   Tr[ns(na)] =   3.80280
    eigenvalues: 
  0.355  0.355  0.384  0.403  0.403
    eigenvectors:
  0.000  0.000  1.000  0.000  0.000
  0.781  0.139  0.000  0.012  0.068
  0.139  0.781  0.000  0.068  0.012
  0.013  0.067  0.000  0.780  0.140
  0.067  0.013  0.000  0.140  0.780
    occupations:
  0.384  0.000  0.000  0.000  0.000
  0.000  0.359  0.000  0.000  0.013
  0.000  0.000  0.359  0.013  0.000
  0.000  0.000  0.013  0.399  0.000
  0.000  0.013  0.000  0.000  0.399
atom    4   Tr[ns(na)] =   3.80280
    eigenvalues: 
  0.355  0.355  0.384  0.403  0.403
    eigenvectors:
  0.000  0.000  1.000  0.000  0.000
  0.781  0.139  0.000  0.012  0.068
  0.139  0.781  0.000  0.068  0.012
  0.013  0.067  0.000  0.780  0.140
  0.067  0.013  0.000  0.140  0.780
    occupations:
  0.384  0.000  0.000  0.000  0.000
  0.000  0.359  0.000  0.000  0.013
  0.000  0.000  0.359  0.013  0.000
  0.000  0.000  0.013  0.399  0.000
  0.000  0.013  0.000  0.000  0.399
atom    5   Tr[ns(na)] =   5.43377
    eigenvalues: 
  0.846  0.929  0.941
    eigenvectors:
  0.340  0.000  0.660
  0.496  0.250  0.255
  0.164  0.750  0.086
    occupations:
  0.909 -0.039  0.022
 -0.039  0.891  0.022
  0.022  0.022  0.917
atom    6   Tr[ns(na)] =   5.43377
    eigenvalues: 
  0.846  0.929  0.941
    eigenvectors:
  0.340  0.000  0.660
  0.494  0.250  0.256
  0.166  0.750  0.085
    occupations:
  0.909  0.039  0.022
  0.039  0.891 -0.022
  0.022 -0.022  0.917
atom    7   Tr[ns(na)] =   5.43377
    eigenvalues: 
  0.846  0.929  0.941
    eigenvectors:
  0.340  0.000  0.660
  0.000  1.000  0.000
  0.660  0.000  0.340
    occupations:
  0.909  0.000 -0.045
  0.000  0.929  0.000
 -0.045  0.000  0.879
atom    8   Tr[ns(na)] =   5.43377
    eigenvalues: 
  0.846  0.929  0.941
    eigenvectors:
  0.340  0.000  0.660
  0.496  0.250  0.255
  0.164  0.750  0.086
    occupations:
  0.909 -0.039  0.022
 -0.039  0.891  0.022
  0.022  0.022  0.917
atom    9   Tr[ns(na)] =   5.43377
    eigenvalues: 
  0.846  0.929  0.941
    eigenvectors:
  0.340  0.000  0.660
  0.494  0.250  0.256
  0.166  0.750  0.085
    occupations:
  0.909  0.039  0.022
  0.039  0.891 -0.022
  0.022 -0.022  0.917
atom   10   Tr[ns(na)] =   5.43377
    eigenvalues: 
  0.846  0.929  0.941
    eigenvectors:
  0.340  0.000  0.660
  0.000  1.000  0.000
  0.660  0.000  0.340
    occupations:
  0.909  0.000 -0.045
  0.000  0.929  0.000
 -0.045  0.000  0.879
N of occupied +U levels =  56.2504993
 --- exit write_ns ---
 --- in v_hubbard ---
Hubbard energy    0.0000
 -------

     total cpu time spent up to now is      339.6 secs

     total energy              =    -538.33298091 Ry
     Harris-Foulkes estimate   =    -538.33294056 Ry
     estimated scf accuracy    <       0.00000100 Ry

     iteration # 13     ecut=    30.00 Ry     beta=0.20
     Davidson diagonalization with overlap
     ethr =  1.32E-09,  avg # of iterations =  2.0
 --- enter write_ns ---
 LDA+U parameters:
U( 1)     =  0.00000000
alpha( 1) =  0.00000000
U( 2)     =  0.00000000
alpha( 2) =  0.00000000
U( 3)     =  0.00000000
alpha( 3) =  0.00000000
U( 4)     =  0.00000000
alpha( 4) =  0.00000000
atom    1   Tr[ns(na)] =   8.02229
    eigenvalues: 
  0.596  0.596  0.938  0.941  0.941
    eigenvectors:
  0.000  0.000  1.000  0.000  0.000
  0.333  0.322  0.000  0.004  0.341
  0.322  0.333  0.000  0.341  0.004
  0.288  0.057  0.000  0.515  0.140
  0.057  0.288  0.000  0.140  0.515
    occupations:
  0.938  0.000  0.000  0.000  0.000
  0.000  0.715  0.000 -0.060  0.152
  0.000  0.000  0.715  0.152  0.060
  0.000 -0.060  0.152  0.822  0.000
  0.000  0.152  0.060  0.000  0.822
atom    2   Tr[ns(na)] =   8.02173
    eigenvalues: 
  0.595  0.595  0.938  0.941  0.941
    eigenvectors:
  0.000  0.000  1.000  0.000  0.000
  0.638  0.016  0.000  0.223  0.123
  0.016  0.638  0.000  0.123  0.223
  0.016  0.330  0.000  0.470  0.184
  0.330  0.016  0.000  0.184  0.470
    occupations:
  0.938  0.000  0.000  0.000  0.000
  0.000  0.715  0.000  0.060  0.153
  0.000  0.000  0.715  0.153 -0.060
  0.000  0.060  0.153  0.822  0.000
  0.000  0.153 -0.060  0.000  0.822
atom    3   Tr[ns(na)] =   3.80290
    eigenvalues: 
  0.355  0.355  0.384  0.403  0.403
    eigenvectors:
  0.000  0.000  1.000  0.000  0.000
  0.781  0.140  0.000  0.012  0.068
  0.140  0.781  0.000  0.068  0.012
  0.013  0.067  0.000  0.780  0.140
  0.067  0.013  0.000  0.140  0.780
    occupations:
  0.384  0.000  0.000  0.000  0.000
  0.000  0.359  0.000  0.000  0.013
  0.000  0.000  0.359  0.013  0.000
  0.000  0.000  0.013  0.399  0.000
  0.000  0.013  0.000  0.000  0.399
atom    4   Tr[ns(na)] =   3.80290
    eigenvalues: 
  0.355  0.355  0.384  0.403  0.403
    eigenvectors:
  0.000  0.000  1.000  0.000  0.000
  0.781  0.140  0.000  0.012  0.068
  0.140  0.781  0.000  0.068  0.012
  0.013  0.067  0.000  0.780  0.140
  0.067  0.013  0.000  0.140  0.780
    occupations:
  0.384  0.000  0.000  0.000  0.000
  0.000  0.359  0.000  0.000  0.013
  0.000  0.000  0.359  0.013  0.000
  0.000  0.000  0.013  0.399  0.000
  0.000  0.013  0.000  0.000  0.399
atom    5   Tr[ns(na)] =   5.43348
    eigenvalues: 
  0.846  0.929  0.941
    eigenvectors:
  0.340  0.000  0.660
  0.496  0.250  0.255
  0.164  0.750  0.086
    occupations:
  0.909 -0.039  0.022
 -0.039  0.891  0.022
  0.022  0.022  0.917
atom    6   Tr[ns(na)] =   5.43348
    eigenvalues: 
  0.846  0.929  0.941
    eigenvectors:
  0.340  0.000  0.660
  0.494  0.250  0.256
  0.166  0.750  0.085
    occupations:
  0.909  0.039  0.022
  0.039  0.891 -0.022
  0.022 -0.022  0.917
atom    7   Tr[ns(na)] =   5.43348
    eigenvalues: 
  0.846  0.929  0.941
    eigenvectors:
  0.340  0.000  0.660
  0.000  1.000  0.000
  0.660  0.000  0.340
    occupations:
  0.909  0.000 -0.045
  0.000  0.929  0.000
 -0.045  0.000  0.879
atom    8   Tr[ns(na)] =   5.43348
    eigenvalues: 
  0.846  0.929  0.941
    eigenvectors:
  0.340  0.000  0.660
  0.496  0.250  0.255
  0.164  0.750  0.086
    occupations:
  0.909 -0.039  0.022
 -0.039  0.891  0.022
  0.022  0.022  0.917
atom    9   Tr[ns(na)] =   5.43348
    eigenvalues: 
  0.846  0.929  0.941
    eigenvectors:
  0.340  0.000  0.660
  0.494  0.250  0.256
  0.166  0.750  0.085
    occupations:
  0.909  0.039  0.022
  0.039  0.891 -0.022
  0.022 -0.022  0.917
atom   10   Tr[ns(na)] =   5.43348
    eigenvalues: 
  0.846  0.929  0.941
    eigenvectors:
  0.340  0.000  0.660
  0.000  1.000  0.000
  0.660  0.000  0.340
    occupations:
  0.909  0.000 -0.045
  0.000  0.929  0.000
 -0.045  0.000  0.879
N of occupied +U levels =  56.2507039
 --- exit write_ns ---
 --- in v_hubbard ---
Hubbard energy    0.0000
 -------

     total cpu time spent up to now is      356.5 secs

     total energy              =    -538.33300703 Ry
     Harris-Foulkes estimate   =    -538.33298114 Ry
     estimated scf accuracy    <       0.00000019 Ry

     iteration # 14     ecut=    30.00 Ry     beta=0.20
     Davidson diagonalization with overlap
     ethr =  2.56E-10,  avg # of iterations =  1.1
 --- enter write_ns ---
 LDA+U parameters:
U( 1)     =  0.00000000
alpha( 1) =  0.00000000
U( 2)     =  0.00000000
alpha( 2) =  0.00000000
U( 3)     =  0.00000000
alpha( 3) =  0.00000000
U( 4)     =  0.00000000
alpha( 4) =  0.00000000
atom    1   Tr[ns(na)] =   8.02219
    eigenvalues: 
  0.596  0.596  0.938  0.941  0.941
    eigenvectors:
  0.000  0.000  1.000  0.000  0.000
  0.334  0.321  0.000  0.004  0.342
  0.321  0.334  0.000  0.342  0.004
  0.288  0.057  0.000  0.515  0.140
  0.057  0.288  0.000  0.140  0.515
    occupations:
  0.938  0.000  0.000  0.000  0.000
  0.000  0.715  0.000 -0.060  0.152
  0.000  0.000  0.715  0.152  0.060
  0.000 -0.060  0.152  0.822  0.000
  0.000  0.152  0.060  0.000  0.822
atom    2   Tr[ns(na)] =   8.02147
    eigenvalues: 
  0.595  0.595  0.938  0.941  0.941
    eigenvectors:
  0.000  0.000  1.000  0.000  0.000
  0.638  0.017  0.000  0.223  0.122
  0.017  0.638  0.000  0.122  0.223
  0.015  0.330  0.000  0.470  0.185
  0.330  0.015  0.000  0.185  0.470
    occupations:
  0.938  0.000  0.000  0.000  0.000
  0.000  0.715  0.000  0.060  0.153
  0.000  0.000  0.715  0.153 -0.060
  0.000  0.060  0.153  0.822  0.000
  0.000  0.153 -0.060  0.000  0.822
atom    3   Tr[ns(na)] =   3.80291
    eigenvalues: 
  0.355  0.355  0.384  0.403  0.403
    eigenvectors:
  0.000  0.000  1.000  0.000  0.000
  0.781  0.139  0.000  0.012  0.068
  0.139  0.781  0.000  0.068  0.012
  0.013  0.067  0.000  0.780  0.140
  0.067  0.013  0.000  0.140  0.780
    occupations:
  0.384  0.000  0.000  0.000  0.000
  0.000  0.359  0.000  0.000  0.013
  0.000  0.000  0.359  0.013  0.000
  0.000  0.000  0.013  0.399  0.000
  0.000  0.013  0.000  0.000  0.399
atom    4   Tr[ns(na)] =   3.80291
    eigenvalues: 
  0.355  0.355  0.384  0.403  0.403
    eigenvectors:
  0.000  0.000  1.000  0.000  0.000
  0.781  0.140  0.000  0.012  0.068
  0.140  0.781  0.000  0.068  0.012
  0.013  0.067  0.000  0.780  0.140
  0.067  0.013  0.000  0.140  0.780
    occupations:
  0.384  0.000  0.000  0.000  0.000
  0.000  0.359  0.000  0.000  0.013
  0.000  0.000  0.359  0.013  0.000
  0.000  0.000  0.013  0.399  0.000
  0.000  0.013  0.000  0.000  0.399
atom    5   Tr[ns(na)] =   5.43353
    eigenvalues: 
  0.846  0.929  0.941
    eigenvectors:
  0.340  0.000  0.660
  0.496  0.250  0.255
  0.164  0.750  0.086
    occupations:
  0.909 -0.039  0.022
 -0.039  0.891  0.022
  0.022  0.022  0.917
atom    6   Tr[ns(na)] =   5.43353
    eigenvalues: 
  0.846  0.929  0.941
    eigenvectors:
  0.340  0.000  0.660
  0.494  0.250  0.256
  0.166  0.750  0.085
    occupations:
  0.909  0.039  0.022
  0.039  0.891 -0.022
  0.022 -0.022  0.917
atom    7   Tr[ns(na)] =   5.43353
    eigenvalues: 
  0.846  0.929  0.941
    eigenvectors:
  0.340  0.000  0.660
  0.000  1.000  0.000
  0.660  0.000  0.340
    occupations:
  0.909  0.000 -0.045
  0.000  0.929  0.000
 -0.045  0.000  0.879
atom    8   Tr[ns(na)] =   5.43353
    eigenvalues: 
  0.846  0.929  0.941
    eigenvectors:
  0.340  0.000  0.660
  0.496  0.250  0.255
  0.164  0.750  0.086
    occupations:
  0.909 -0.039  0.022
 -0.039  0.891  0.022
  0.022  0.022  0.917
atom    9   Tr[ns(na)] =   5.43353
    eigenvalues: 
  0.846  0.929  0.941
    eigenvectors:
  0.340  0.000  0.660
  0.494  0.250  0.256
  0.166  0.750  0.085
    occupations:
  0.909  0.039  0.022
  0.039  0.891 -0.022
  0.022 -0.022  0.917
atom   10   Tr[ns(na)] =   5.43353
    eigenvalues: 
  0.846  0.929  0.941
    eigenvectors:
  0.340  0.000  0.660
  0.000  1.000  0.000
  0.660  0.000  0.340
    occupations:
  0.909  0.000 -0.045
  0.000  0.929  0.000
 -0.045  0.000  0.879
N of occupied +U levels =  56.2506635
 --- exit write_ns ---
 --- in v_hubbard ---
Hubbard energy    0.0000
 -------

     total cpu time spent up to now is      372.1 secs

     total energy              =    -538.33302369 Ry
     Harris-Foulkes estimate   =    -538.33300705 Ry
     estimated scf accuracy    <       0.00000003 Ry

     iteration # 15     ecut=    30.00 Ry     beta=0.20
     Davidson diagonalization with overlap
     ethr =  4.34E-11,  avg # of iterations =  2.5
 --- enter write_ns ---
 LDA+U parameters:
U( 1)     =  0.00000000
alpha( 1) =  0.00000000
U( 2)     =  0.00000000
alpha( 2) =  0.00000000
U( 3)     =  0.00000000
alpha( 3) =  0.00000000
U( 4)     =  0.00000000
alpha( 4) =  0.00000000
atom    1   Tr[ns(na)] =   8.02192
    eigenvalues: 
  0.596  0.596  0.938  0.941  0.941
    eigenvectors:
  0.000  0.000  1.000  0.000  0.000
  0.333  0.321  0.000  0.004  0.342
  0.321  0.333  0.000  0.342  0.004
  0.288  0.057  0.000  0.515  0.140
  0.057  0.288  0.000  0.140  0.515
    occupations:
  0.938  0.000  0.000  0.000  0.000
  0.000  0.715  0.000 -0.060  0.152
  0.000  0.000  0.715  0.152  0.060
  0.000 -0.060  0.152  0.822  0.000
  0.000  0.152  0.060  0.000  0.822
atom    2   Tr[ns(na)] =   8.02131
    eigenvalues: 
  0.595  0.595  0.938  0.941  0.941
    eigenvectors:
  0.000  0.000  1.000  0.000  0.000
  0.638  0.016  0.000  0.223  0.122
  0.016  0.638  0.000  0.122  0.223
  0.016  0.330  0.000  0.470  0.184
  0.330  0.016  0.000  0.184  0.470
    occupations:
  0.938  0.000  0.000  0.000  0.000
  0.000  0.715  0.000  0.060  0.153
  0.000  0.000  0.715  0.153 -0.060
  0.000  0.060  0.153  0.822  0.000
  0.000  0.153 -0.060  0.000  0.822
atom    3   Tr[ns(na)] =   3.80283
    eigenvalues: 
  0.355  0.355  0.384  0.403  0.403
    eigenvectors:
  0.000  0.000  1.000  0.000  0.000
  0.781  0.139  0.000  0.012  0.068
  0.139  0.781  0.000  0.068  0.012
  0.013  0.067  0.000  0.780  0.140
  0.067  0.013  0.000  0.140  0.780
    occupations:
  0.384  0.000  0.000  0.000  0.000
  0.000  0.359  0.000  0.000  0.013
  0.000  0.000  0.359  0.013  0.000
  0.000  0.000  0.013  0.399  0.000
  0.000  0.013  0.000  0.000  0.399
atom    4   Tr[ns(na)] =   3.80283
    eigenvalues: 
  0.355  0.355  0.384  0.403  0.403
    eigenvectors:
  0.000  0.000  1.000  0.000  0.000
  0.781  0.139  0.000  0.012  0.068
  0.139  0.781  0.000  0.068  0.012
  0.013  0.067  0.000  0.780  0.140
  0.067  0.013  0.000  0.140  0.780
    occupations:
  0.384  0.000  0.000  0.000  0.000
  0.000  0.359  0.000  0.000  0.013
  0.000  0.000  0.359  0.013  0.000
  0.000  0.000  0.013  0.399  0.000
  0.000  0.013  0.000  0.000  0.399
atom    5   Tr[ns(na)] =   5.43361
    eigenvalues: 
  0.846  0.929  0.941
    eigenvectors:
  0.340  0.000  0.660
  0.496  0.250  0.255
  0.164  0.750  0.086
    occupations:
  0.909 -0.039  0.022
 -0.039  0.891  0.022
  0.022  0.022  0.917
atom    6   Tr[ns(na)] =   5.43361
    eigenvalues: 
  0.846  0.929  0.941
    eigenvectors:
  0.340  0.000  0.660
  0.494  0.250  0.256
  0.166  0.750  0.085
    occupations:
  0.909  0.039  0.022
  0.039  0.891 -0.022
  0.022 -0.022  0.917
atom    7   Tr[ns(na)] =   5.43361
    eigenvalues: 
  0.846  0.929  0.941
    eigenvectors:
  0.340  0.000  0.660
  0.000  1.000  0.000
  0.660  0.000  0.340
    occupations:
  0.909  0.000 -0.045
  0.000  0.929  0.000
 -0.045  0.000  0.879
atom    8   Tr[ns(na)] =   5.43361
    eigenvalues: 
  0.846  0.929  0.941
    eigenvectors:
  0.340  0.000  0.660
  0.496  0.250  0.255
  0.164  0.750  0.086
    occupations:
  0.909 -0.039  0.022
 -0.039  0.891  0.022
  0.022  0.022  0.917
atom    9   Tr[ns(na)] =   5.43361
    eigenvalues: 
  0.846  0.929  0.941
    eigenvectors:
  0.340  0.000  0.660
  0.494  0.250  0.256
  0.166  0.750  0.085
    occupations:
  0.909  0.039  0.022
  0.039  0.891 -0.022
  0.022 -0.022  0.917
atom   10   Tr[ns(na)] =   5.43361
    eigenvalues: 
  0.846  0.929  0.941
    eigenvectors:
  0.340  0.000  0.660
  0.000  1.000  0.000
  0.660  0.000  0.340
    occupations:
  0.909  0.000 -0.045
  0.000  0.929  0.000
 -0.045  0.000  0.879
N of occupied +U levels =  56.2505801
 --- exit write_ns ---
 --- in v_hubbard ---
Hubbard energy    0.0000
 -------

     total cpu time spent up to now is      390.4 secs

     total energy              =    -538.33303422 Ry
     Harris-Foulkes estimate   =    -538.33302371 Ry
     estimated scf accuracy    <       0.00000006 Ry

     iteration # 16     ecut=    30.00 Ry     beta=0.20
     Davidson diagonalization with overlap
     ethr =  4.34E-11,  avg # of iterations =  1.1
 --- enter write_ns ---
 LDA+U parameters:
U( 1)     =  0.00000000
alpha( 1) =  0.00000000
U( 2)     =  0.00000000
alpha( 2) =  0.00000000
U( 3)     =  0.00000000
alpha( 3) =  0.00000000
U( 4)     =  0.00000000
alpha( 4) =  0.00000000
atom    1   Tr[ns(na)] =   8.02205
    eigenvalues: 
  0.596  0.596  0.938  0.941  0.941
    eigenvectors:
  0.000  0.000  1.000  0.000  0.000
  0.334  0.321  0.000  0.004  0.341
  0.321  0.334  0.000  0.341  0.004
  0.288  0.057  0.000  0.515  0.140
  0.057  0.288  0.000  0.140  0.515
    occupations:
  0.938  0.000  0.000  0.000  0.000
  0.000  0.715  0.000 -0.060  0.152
  0.000  0.000  0.715  0.152  0.060
  0.000 -0.060  0.152  0.822  0.000
  0.000  0.152  0.060  0.000  0.822
atom    2   Tr[ns(na)] =   8.02143
    eigenvalues: 
  0.595  0.595  0.938  0.941  0.941
    eigenvectors:
  0.000  0.000  1.000  0.000  0.000
  0.638  0.017  0.000  0.223  0.123
  0.017  0.638  0.000  0.123  0.223
  0.016  0.330  0.000  0.470  0.184
  0.330  0.016  0.000  0.184  0.470
    occupations:
  0.938  0.000  0.000  0.000  0.000
  0.000  0.715  0.000  0.060  0.153
  0.000  0.000  0.715  0.153 -0.060
  0.000  0.060  0.153  0.822  0.000
  0.000  0.153 -0.060  0.000  0.822
atom    3   Tr[ns(na)] =   3.80283
    eigenvalues: 
  0.355  0.355  0.384  0.403  0.403
    eigenvectors:
  0.000  0.000  1.000  0.000  0.000
  0.781  0.140  0.000  0.012  0.068
  0.140  0.781  0.000  0.068  0.012
  0.013  0.067  0.000  0.780  0.140
  0.067  0.013  0.000  0.140  0.780
    occupations:
  0.384  0.000  0.000  0.000  0.000
[...]
    eigenvectors:
  0.000  0.000  0.000  0.000  1.000
  0.637  0.020  0.219  0.123  0.000
  0.020  0.637  0.123  0.219  0.000
  0.013  0.329  0.473  0.185  0.000
  0.329  0.013  0.185  0.473  0.000
    occupations:
  0.990  0.000  0.000  0.000  0.000
  0.000  0.687  0.000  0.079  0.202
  0.000  0.000  0.687  0.202 -0.079
  0.000  0.079  0.202  0.831  0.000
  0.000  0.202 -0.079  0.000  0.831
atom    3   Tr[ns(na)] =   3.75293
    eigenvalues: 
  0.351  0.351  0.378  0.398  0.398
    eigenvectors:
  0.000  0.000  1.000  0.000  0.000
  0.779  0.140  0.000  0.012  0.069
  0.140  0.779  0.000  0.069  0.012
  0.013  0.068  0.000  0.778  0.141
  0.068  0.013  0.000  0.141  0.778
    occupations:
  0.378  0.000  0.000  0.000  0.000
  0.000  0.355  0.000  0.000  0.013
  0.000  0.000  0.355  0.013  0.000
  0.000  0.000  0.013  0.394  0.000
  0.000  0.013  0.000  0.000  0.394
atom    4   Tr[ns(na)] =   3.79522
    eigenvalues: 
  0.356  0.356  0.382  0.402  0.402
    eigenvectors:
  0.000  0.000  1.000  0.000  0.000
  0.782  0.139  0.000  0.011  0.067
  0.139  0.782  0.000  0.067  0.011
  0.012  0.066  0.000  0.781  0.140
  0.066  0.012  0.000  0.140  0.781
    occupations:
  0.382  0.000  0.000  0.000  0.000
  0.000  0.360  0.000  0.000  0.012
  0.000  0.000  0.360  0.012  0.000
  0.000  0.000  0.012  0.398  0.000
  0.000  0.012  0.000  0.000  0.398
atom    5   Tr[ns(na)] =   5.43368
    eigenvalues: 
  0.840  0.930  0.946
    eigenvectors:
  0.338  0.000  0.662
  0.497  0.251  0.253
  0.166  0.749  0.085
    occupations:
  0.911 -0.044  0.025
 -0.044  0.890  0.023
  0.025  0.023  0.917
atom    6   Tr[ns(na)] =   5.43368
    eigenvalues: 
  0.840  0.930  0.946
    eigenvectors:
  0.338  0.000  0.662
  0.497  0.249  0.254
  0.165  0.751  0.084
    occupations:
  0.911  0.044  0.025
  0.044  0.890 -0.023
  0.025 -0.023  0.917
atom    7   Tr[ns(na)] =   5.43368
    eigenvalues: 
  0.840  0.930  0.946
    eigenvectors:
  0.338  0.000  0.662
  0.000  1.000  0.000
  0.662  0.000  0.338
    occupations:
  0.911  0.000 -0.050
  0.000  0.930  0.000
 -0.050  0.000  0.876
atom    8   Tr[ns(na)] =   5.43364
    eigenvalues: 
  0.840  0.930  0.947
    eigenvectors:
  0.338  0.000  0.662
  0.497  0.251  0.253
  0.166  0.749  0.085
    occupations:
  0.911 -0.044  0.025
 -0.044  0.890  0.023
  0.025  0.023  0.916
atom    9   Tr[ns(na)] =   5.43364
    eigenvalues: 
  0.840  0.930  0.947
    eigenvectors:
  0.338  0.000  0.662
  0.497  0.249  0.254
  0.165  0.751  0.084
    occupations:
  0.911  0.044  0.025
  0.044  0.890 -0.023
  0.025 -0.023  0.916
atom   10   Tr[ns(na)] =   5.43364
    eigenvalues: 
  0.840  0.930  0.947
    eigenvectors:
  0.338  0.000  0.662
  0.000  1.000  0.000
  0.662  0.000  0.338
    occupations:
  0.911  0.000 -0.050
  0.000  0.930  0.000
 -0.050  0.000  0.876
N of occupied +U levels =  56.2588319
 --- exit write_ns ---
 --- in v_hubbard ---
Hubbard energy    0.2766
 -------

     total cpu time spent up to now is      234.4 secs

     End of self-consistent calculation

          k = 0.0000 0.0000 0.0000 (  2175 PWs)   bands (ev):

   -19.8261 -19.6384  -6.5329  -5.8269  -5.8269  -5.7741  -5.7741  -5.4285
    -3.8361  -3.2766  -3.2449  -3.2449  -3.0317  -3.0317   5.1991   6.8427
     6.8427   7.1823   7.1823   7.2141   7.5308   7.5308   7.7251   9.1444
     9.3083   9.3337   9.3337   9.6363   9.6363  10.0546  10.0546  10.2654
    10.4762  10.4762  10.6915  11.1544  11.1544  11.5550  11.9909  11.9909
    14.7643  14.7643  15.4886  15.4886  16.2631  16.8462

     occupation numbers 
     0.0313   0.0313   0.0313   0.0313   0.0313   0.0313   0.0313   0.0313
     0.0313   0.0313   0.0313   0.0313   0.0313   0.0313   0.0313   0.0313
     0.0313   0.0313   0.0313   0.0313   0.0313   0.0313   0.0313   0.0313
     0.0313   0.0313   0.0313   0.0312   0.0312   0.0312   0.0312   0.0312
     0.0312   0.0312   0.0312   0.0306   0.0306   0.0234   0.0063   0.0063
     0.0000   0.0000   0.0000   0.0000   0.0000   0.0000

          k =-0.2471-0.1427 0.1027 (  2181 PWs)   bands (ev):

   -19.8033 -19.6679  -6.7100  -6.2541  -5.9242  -5.8208  -5.5757  -5.4414
    -3.6308  -3.4128  -2.9532  -2.9165  -2.8662  -2.7689   5.5606   6.8073
     6.8598   6.9446   6.9672   7.2006   7.2377   7.4907   7.6201   8.2977
     8.3035   8.8471   9.6132   9.7366   9.7457   9.9971  10.2381  10.2583
    10.4250  10.4329  10.4851  11.2307  11.3171  11.3396  12.3198  12.3904
    14.3102  14.3213  15.8712  16.1226  17.0244  17.3161

     occupation numbers 
     0.1875   0.1875   0.1875   0.1875   0.1875   0.1875   0.1875   0.1875
     0.1875   0.1875   0.1875   0.1875   0.1875   0.1875   0.1875   0.1875
     0.1875   0.1875   0.1875   0.1875   0.1875   0.1875   0.1875   0.1875
     0.1875   0.1875   0.1875   0.1875   0.1875   0.1875   0.1875   0.1875
     0.1875   0.1875   0.1875   0.1808   0.1750   0.1730   0.0045   0.0025
     0.0000   0.0000   0.0000   0.0000   0.0000   0.0000

          k = 0.4942 0.2853-0.2053 (  2202 PWs)   bands (ev):

   -19.7754 -19.7026  -6.7127  -6.6688  -5.9416  -5.9310  -5.4939  -5.4876
    -3.4207  -3.3868  -2.8137  -2.7957  -2.5448  -2.4923   6.0045   6.0283
     7.0451   7.0642   7.1904   7.2049   7.4298   7.4519   7.5114   7.5425
     7.7407   7.7660   9.4587   9.4652   9.8739   9.8814  10.2822  10.2921
    10.6492  10.6688  10.8061  10.8261  11.0679  11.0860  13.2924  13.3308
    13.3767  13.4151  16.8485  16.9099  17.1453  17.2052

     occupation numbers 
     0.0938   0.0938   0.0938   0.0938   0.0938   0.0938   0.0938   0.0938
     0.0938   0.0938   0.0938   0.0938   0.0938   0.0938   0.0938   0.0938
     0.0938   0.0938   0.0938   0.0938   0.0938   0.0938   0.0938   0.0938
     0.0938   0.0938   0.0937   0.0937   0.0937   0.0937   0.0937   0.0937
     0.0937   0.0937   0.0937   0.0937   0.0929   0.0927   0.0000   0.0000
     0.0000   0.0000   0.0000   0.0000   0.0000   0.0000

          k =-0.2471 0.1427 0.2053 (  2195 PWs)   bands (ev):

   -19.7970 -19.6722  -6.8391  -6.2150  -6.0408  -5.7797  -5.6214  -5.4366
    -3.4434  -3.2822  -3.1211  -2.9072  -2.8292  -2.5704   5.5941   6.5445
     6.7336   6.8423   7.1830   7.3132   7.3873   7.4447   7.5056   8.3594
     8.3645   8.7924   9.2530   9.3584   9.8884   9.9257  10.0331  10.1094
    10.2862  10.8234  10.9645  10.9781  11.2481  11.3229  11.9103  12.7372
    13.6398  14.7810  16.0487  16.2466  17.0918  17.5742

     occupation numbers 
     0.1875   0.1875   0.1875   0.1875   0.1875   0.1875   0.1875   0.1875
     0.1875   0.1875   0.1875   0.1875   0.1875   0.1875   0.1875   0.1875
     0.1875   0.1875   0.1875   0.1875   0.1875   0.1875   0.1875   0.1875
     0.1875   0.1875   0.1875   0.1875   0.1875   0.1875   0.1875   0.1875
     0.1875   0.1874   0.1869   0.1868   0.1798   0.1745   0.0543   0.0001
     0.0000   0.0000   0.0000   0.0000   0.0000   0.0000

          k = 0.4942 0.5706-0.1027 (  2198 PWs)   bands (ev):

   -19.7783 -19.6934  -6.9357  -6.6158  -6.1088  -5.8610  -5.4772  -5.3611
    -3.3334  -3.2706  -2.8927  -2.7203  -2.5363  -2.3943   5.8783   6.1953
     6.4221   6.9160   7.1249   7.2609   7.3327   7.5110   7.5373   7.6784
     8.0538   8.6230   8.9808   9.2627   9.5740   9.8006   9.8820  10.3313
    10.3836  10.8175  10.9242  11.0010  11.1427  11.2535  12.3130  12.7443
    13.4297  14.3596  16.9480  17.1562  17.3539  18.0459

     occupation numbers 
     0.1875   0.1875   0.1875   0.1875   0.1875   0.1875   0.1875   0.1875
     0.1875   0.1875   0.1875   0.1875   0.1875   0.1875   0.1875   0.1875
     0.1875   0.1875   0.1875   0.1875   0.1875   0.1875   0.1875   0.1875
     0.1875   0.1875   0.1875   0.1875   0.1875   0.1875   0.1875   0.1875
     0.1875   0.1874   0.1871   0.1866   0.1842   0.1795   0.0048   0.0001
     0.0000   0.0000   0.0000   0.0000   0.0000   0.0000

          k = 0.2471 0.4280 0.0000 (  2203 PWs)   bands (ev):

   -19.7830 -19.6907  -6.8251  -6.6053  -6.0254  -5.9534  -5.4072  -5.3404
    -3.5492  -3.3133  -2.8121  -2.7263  -2.5779  -2.5700   5.8826   6.2151
     6.6952   7.0134   7.0905   7.1483   7.3739   7.3827   7.4360   7.7584
     7.9681   8.9040   8.9281   9.3867   9.7647   9.7800  10.0589  10.3532
    10.6401  10.6725  10.8325  10.9504  10.9673  11.3447  12.2289  13.3231
    13.3993  14.1552  16.4817  17.0350  17.4628  17.9619

     occupation numbers 
     0.1875   0.1875   0.1875   0.1875   0.1875   0.1875   0.1875   0.1875
     0.1875   0.1875   0.1875   0.1875   0.1875   0.1875   0.1875   0.1875
     0.1875   0.1875   0.1875   0.1875   0.1875   0.1875   0.1875   0.1875
     0.1875   0.1875   0.1875   0.1875   0.1875   0.1875   0.1875   0.1875
     0.1875   0.1875   0.1874   0.1870   0.1869   0.1725   0.0091   0.0000
     0.0000   0.0000   0.0000   0.0000   0.0000   0.0000

          k = 0.4942-0.2853-0.4107 (  2202 PWs)   bands (ev):

   -19.7783 -19.6866  -7.1568  -6.4420  -6.2277  -5.9034  -5.4948  -5.2739
    -3.2226  -3.1372  -3.0643  -2.6578  -2.4869  -2.2322   5.8060   5.9056
     6.1908   6.8291   7.1805   7.2868   7.3520   7.5077   7.9897   7.9972
     8.2083   8.3248   8.6208   9.3990   9.4295   9.6914  10.0488  10.0851
    10.4299  10.7258  10.8889  11.0365  11.1686  11.3836  11.8532  12.4248
    13.3314  14.7946  17.0921  17.3067  17.5654  17.6507

     occupation numbers 
     0.0938   0.0938   0.0938   0.0938   0.0938   0.0938   0.0938   0.0938
     0.0938   0.0938   0.0938   0.0938   0.0938   0.0938   0.0938   0.0938
     0.0938   0.0938   0.0938   0.0938   0.0938   0.0938   0.0938   0.0938
     0.0938   0.0938   0.0938   0.0937   0.0937   0.0937   0.0937   0.0937
     0.0937   0.0937   0.0936   0.0931   0.0917   0.0842   0.0338   0.0009
     0.0000   0.0000   0.0000   0.0000   0.0000   0.0000

          k = 0.0000 0.0000 0.3080 (  2187 PWs)   bands (ev):

   -19.8030 -19.6687  -6.5988  -5.9380  -5.9161  -5.9002  -5.8110  -5.8047
    -3.2277  -3.1554  -3.1163  -2.9830  -2.9241  -2.8899   5.6256   6.8908
     6.9346   6.9403   7.1273   7.1797   7.1912   7.5034   7.5120   8.4742
     8.4762   8.8757   9.4513   9.5681   9.5697   9.7454  10.1310  10.1366
    10.4586  10.4605  10.6788  11.2790  11.2807  11.3311  12.2933  12.2945
    14.2705  14.2746  15.9600  15.9724  16.9343  17.5244

     occupation numbers 
     0.0625   0.0625   0.0625   0.0625   0.0625   0.0625   0.0625   0.0625
     0.0625   0.0625   0.0625   0.0625   0.0625   0.0625   0.0625   0.0625
     0.0625   0.0625   0.0625   0.0625   0.0625   0.0625   0.0625   0.0625
     0.0625   0.0625   0.0625   0.0625   0.0625   0.0625   0.0625   0.0625
     0.0625   0.0625   0.0625   0.0593   0.0593   0.0579   0.0019   0.0019
     0.0000   0.0000   0.0000   0.0000   0.0000   0.0000

          k = 0.7412 0.4280 0.0000 (  2204 PWs)   bands (ev):

   -19.7827 -19.6915  -6.7096  -6.5703  -6.1165  -5.8043  -5.6621  -5.5159
    -3.1970  -3.1181  -3.0516  -2.6958  -2.6607  -2.5930   5.9222   6.4671
     6.5920   7.0340   7.1204   7.2469   7.2961   7.4247   7.4930   7.7047
     8.0514   8.7189   8.9859   9.4698   9.5625   9.6932   9.8515  10.2323
    10.6401  10.7852  10.8487  11.0240  11.0626  11.1651  12.2296  13.2446
    13.3158  14.1819  16.7299  16.7727  17.6328  17.8285

     occupation numbers 
     0.1875   0.1875   0.1875   0.1875   0.1875   0.1875   0.1875   0.1875
     0.1875   0.1875   0.1875   0.1875   0.1875   0.1875   0.1875   0.1875
     0.1875   0.1875   0.1875   0.1875   0.1875   0.1875   0.1875   0.1875
     0.1875   0.1875   0.1875   0.1875   0.1875   0.1875   0.1875   0.1875
     0.1875   0.1874   0.1873   0.1864   0.1859   0.1835   0.0091   0.0000
     0.0000   0.0000   0.0000   0.0000   0.0000   0.0000

          k = 0.4942 0.2853 0.1027 (  2211 PWs)   bands (ev):

   -19.7785 -19.6932  -6.9523  -6.5086  -6.3024  -5.6698  -5.5915  -5.3329
    -3.3450  -3.1822  -3.0487  -2.6165  -2.5693  -2.3869   5.9119   6.1789
     6.3701   6.8982   7.1467   7.1995   7.3715   7.4585   7.6139   7.6705
     8.0920   8.6767   8.9758   9.3985   9.4201   9.6638   9.9955  10.2438
    10.4658  10.8832  11.0244  11.0403  11.0790  11.1084  12.2677  12.7591
    13.4762  14.3411  16.9211  16.9863  17.6214  17.9672

     occupation numbers 
     0.1875   0.1875   0.1875   0.1875   0.1875   0.1875   0.1875   0.1875
     0.1875   0.1875   0.1875   0.1875   0.1875   0.1875   0.1875   0.1875
     0.1875   0.1875   0.1875   0.1875   0.1875   0.1875   0.1875   0.1875
     0.1875   0.1875   0.1875   0.1875   0.1875   0.1875   0.1875   0.1875
     0.1875   0.1872   0.1864   0.1862   0.1856   0.1850   0.0068   0.0000
     0.0000   0.0000   0.0000   0.0000   0.0000   0.0000

          k = 0.7412-0.4280-0.3080 (  2210 PWs)   bands (ev):

   -19.7785 -19.6937  -6.8881  -6.4179  -6.2814  -5.7669  -5.7272  -5.4643
    -3.0892  -3.0708  -2.9840  -2.7385  -2.6301  -2.4368   5.9882   6.3190
     6.4095   6.8773   7.1237   7.2426   7.4122   7.4882   7.6495   7.6915
     8.0654   8.6885   8.8589   9.3789   9.4965   9.5105   9.6631  10.1773
    10.5084  10.8888  10.9829  11.0280  11.1505  11.1696  12.2283  12.7115
    13.4252  14.3114  17.1019  17.1124  17.5914  17.9337

     occupation numbers 
     0.1875   0.1875   0.1875   0.1875   0.1875   0.1875   0.1875   0.1875
     0.1875   0.1875   0.1875   0.1875   0.1875   0.1875   0.1875   0.1875
     0.1875   0.1875   0.1875   0.1875   0.1875   0.1875   0.1875   0.1875
     0.1875   0.1875   0.1875   0.1875   0.1875   0.1875   0.1875   0.1875
     0.1875   0.1872   0.1868   0.1863   0.1840   0.1833   0.0091   0.0001
     0.0000   0.0000   0.0000   0.0000   0.0000   0.0000

          k = 0.4942-0.5706-0.2053 (  2206 PWs)   bands (ev):

   -19.7777 -19.6922  -6.8615  -6.8505  -6.0133  -6.0059  -5.4026  -5.3990
    -3.1855  -3.1622  -2.8466  -2.8058  -2.3939  -2.3880   6.0557   6.0665
     6.5470   6.5694   7.0440   7.0485   7.3439   7.3662   7.6805   7.7094
     8.6812   8.6876   8.8218   8.8408   9.5157   9.5176  10.0619  10.0637
    10.6786  10.6834  10.8805  10.8887  11.2080  11.2147  12.2796  12.2840
    14.0037  14.0138  17.4628  17.4663  17.9050  17.9100

     occupation numbers 
     0.1875   0.1875   0.1875   0.1875   0.1875   0.1875   0.1875   0.1875
     0.1875   0.1875   0.1875   0.1875   0.1875   0.1875   0.1875   0.1875
     0.1875   0.1875   0.1875   0.1875   0.1875   0.1875   0.1875   0.1875
     0.1875   0.1875   0.1875   0.1875   0.1875   0.1875   0.1875   0.1875
     0.1875   0.1875   0.1873   0.1872   0.1818   0.1815   0.0062   0.0060
     0.0000   0.0000   0.0000   0.0000   0.0000   0.0000

          k = 0.0000 0.0000-0.6160 (  2186 PWs)   bands (ev):

   -19.7759 -19.7032  -6.5013  -6.4505  -5.9329  -5.9329  -5.8947  -5.8947
    -2.9311  -2.9311  -2.8794  -2.8794  -2.7501  -2.6894   6.2367   6.2616
     7.1075   7.1075   7.1266   7.1266   7.4182   7.4422   7.6916   7.6916
     7.7182   7.7182   9.6145   9.6145   9.6236   9.6236   9.6816   9.6931
    10.8619  10.8800  10.9567  10.9567  10.9759  10.9759  13.2337  13.2337
    13.2716  13.2716  17.1284  17.1284  17.1924  17.1924

     occupation numbers 
     0.0313   0.0313   0.0313   0.0313   0.0313   0.0313   0.0313   0.0313
     0.0313   0.0313   0.0313   0.0313   0.0313   0.0313   0.0313   0.0313
     0.0313   0.0313   0.0313   0.0313   0.0313   0.0313   0.0313   0.0313
     0.0313   0.0313   0.0312   0.0312   0.0312   0.0312   0.0312   0.0312
     0.0312   0.0312   0.0312   0.0312   0.0311   0.0311   0.0000   0.0000
     0.0000   0.0000   0.0000   0.0000   0.0000   0.0000

          k = 0.4942-0.5706 0.1027 (  2198 PWs)   bands (ev):

   -19.7783 -19.6934  -6.9361  -6.6150  -6.1098  -5.8599  -5.4782  -5.3604
    -3.3341  -3.2705  -2.8929  -2.7193  -2.5369  -2.3939   5.8758   6.2012
     6.4168   6.9175   7.1259   7.2639   7.3424   7.4997   7.5213   7.6901
     8.0570   8.6264   8.9779   9.2622   9.5715   9.8009   9.8818  10.3334
    10.3832  10.8114  10.9304  10.9994  11.1495  11.2484  12.3128  12.7440
    13.4296  14.3594  16.9498  17.1534  17.3544  18.0476

     occupation numbers 
     0.1875   0.1875   0.1875   0.1875   0.1875   0.1875   0.1875   0.1875
     0.1875   0.1875   0.1875   0.1875   0.1875   0.1875   0.1875   0.1875
     0.1875   0.1875   0.1875   0.1875   0.1875   0.1875   0.1875   0.1875
     0.1875   0.1875   0.1875   0.1875   0.1875   0.1875   0.1875   0.1875
     0.1875   0.1874   0.1871   0.1866   0.1840   0.1798   0.0048   0.0001
     0.0000   0.0000   0.0000   0.0000   0.0000   0.0000

     the Fermi energy is    11.7501 ev

!    total energy              =    -538.03435750 Ry
     Harris-Foulkes estimate   =    -538.03434335 Ry
     estimated scf accuracy    <          7.2E-09 Ry

     The total energy is the sum of the following terms:

     one-electron contribution =     -32.95398555 Ry
     hartree contribution      =      83.71798421 Ry
     xc contribution           =    -199.61848502 Ry
     ewald contribution        =    -389.44315552 Ry
     Hubbard energy            =       0.27655795 Ry
     smearing contrib. (-TS)   =      -0.01327356 Ry

     convergence has been achieved in  12 iterations

     init_run     :      7.59s CPU      7.82s WALL (       1 calls)
     electrons    :    217.48s CPU    226.05s WALL (       1 calls)

     Called by init_run:
     wfcinit      :      0.00s CPU      0.00s WALL (       1 calls)
     potinit      :      0.30s CPU      0.36s WALL (       1 calls)

     Called by electrons:
     c_bands      :    142.38s CPU    146.77s WALL (      12 calls)
     sum_band     :     43.68s CPU     45.76s WALL (      12 calls)
     v_of_rho     :      3.72s CPU      3.81s WALL (      13 calls)
     v_h          :      0.20s CPU      0.20s WALL (      13 calls)
     v_xc         :      3.52s CPU      3.60s WALL (      13 calls)
     newd         :     28.77s CPU     29.25s WALL (      13 calls)
     mix_rho      :      0.54s CPU      0.56s WALL (      12 calls)

     Called by c_bands:
     init_us_2    :      1.37s CPU      1.39s WALL (     336 calls)
     cegterg      :    138.77s CPU    142.85s WALL (     168 calls)

     Called by sum_band:
     sum_band:bec :      0.12s CPU      0.13s WALL (     168 calls)
     addusdens    :     18.11s CPU     18.23s WALL (      12 calls)

     Called by *egterg:
     h_psi        :    105.67s CPU    108.88s WALL (     669 calls)
     s_psi        :      5.08s CPU      5.12s WALL (     669 calls)
     g_psi        :      0.42s CPU      0.43s WALL (     501 calls)
     cdiaghg      :      8.70s CPU      8.89s WALL (     655 calls)
     cegterg:over :      7.51s CPU      7.96s WALL (     501 calls)
     cegterg:upda :      3.82s CPU      3.87s WALL (     501 calls)
     cegterg:last :      2.70s CPU      2.70s WALL (     194 calls)

     Called by h_psi:
     h_psi:vloc   :     86.65s CPU     89.35s WALL (     669 calls)
     h_psi:vnl    :     11.58s CPU     11.89s WALL (     669 calls)
     add_vuspsi   :      5.18s CPU      5.24s WALL (     669 calls)
     vhpsi        :      7.23s CPU      7.43s WALL (     669 calls)

     General routines
     calbec       :     14.22s CPU     14.74s WALL (    1674 calls)
     fft          :      3.72s CPU      4.18s WALL (     203 calls)
     ffts         :      0.07s CPU      0.22s WALL (      25 calls)
     fftw         :     85.74s CPU     89.74s WALL (   48650 calls)
     interpolate  :      0.42s CPU      0.80s WALL (      25 calls)
     davcio       :      0.01s CPU      0.55s WALL (     350 calls)

     Parallel routines
     fft_scatter  :     37.40s CPU     41.58s WALL (   48878 calls)
     Hubbard U routines
     new_ns       :      1.34s CPU      1.62s WALL (      12 calls)
     vhpsi        :      7.23s CPU      7.43s WALL (     669 calls)

     PWSCF        :  3m45.54s CPU     3m54.45s WALL


   This run was terminated on:  15:17: 5  11Nov2012            

=------------------------------------------------------------------------------=
   JOB DONE.
=------------------------------------------------------------------------------=
 
Job Ended on n6 at Sun Nov 11 15:17:06 EST 2012
 
