   JOB DONE.
=------------------------------------------------------------------------------=

     Program PWSCF v.5.0.1 starts on 13Nov2012 at 12:41: 2 

     This program is part of the open-source Quantum ESPRESSO suite
     for quantum simulation of materials; please cite
         "P. Giannozzi et al., J. Phys.:Condens. Matter 21 395502 (2009);
          URL http://www.quantum-espresso.org", 
     in publications or presentations arising from this work. More details at
     http://www.quantum-espresso.org/quote.php

     Parallel version (MPI), running on     2 processors
     R & G space division:  proc/pool =    2

     Current dimensions of program PWSCF are:
     Max number of different atomic species (ntypx) = 10
     Max number of k-points (npk) =  40000
     Max angular momentum in pseudopotentials (lmaxx) =  3
     Reading input from CoLaO_U0_a15.in
               file Co.pbe-nd-rrkjus.UPF: wavefunction(s)  4S 3D renormalized
               file Co.pbe-nd-rrkjus.UPF: wavefunction(s)  4S 3D renormalized
               file O.pbe-rrkjus.UPF: wavefunction(s)  2S renormalized

     Subspace diagonalization in iterative solution of the eigenvalue problem:
     a serial algorithm will be used


     Parallelization info
     --------------------
     sticks:   dense  smooth     PW     G-vecs:    dense   smooth      PW
     Min        1112     444    131                34808     8786    1448
     Max        1113     445    132                34809     8787    1449
     Sum        2225     889    263                69617    17573    2897


     Title: 
     GGA + U, U = 1D-40, alpha = 0.150                                          


     bravais-lattice index     =            5
     lattice parameter (alat)  =      10.3292  a.u.
     unit-cell volume          =     793.0599 (a.u.)^3
     number of atoms/cell      =           10
     number of atomic types    =            4
     number of electrons       =        76.00
     number of Kohn-Sham states=           46
     kinetic-energy cutoff     =      30.0000  Ry
     charge density cutoff     =     300.0000  Ry
     convergence threshold     =      1.0E-08
     mixing beta               =       0.2000
     number of iterations used =            8  plain     mixing
     Exchange-correlation      =  SLA  PW   PBE  PBE ( 1 4 3 4 0)
     EXX-fraction              =        0.00

     celldm(1)=  10.329242  celldm(2)=   0.000000  celldm(3)=   0.000000
     celldm(4)=   0.488100  celldm(5)=   0.000000  celldm(6)=   0.000000

     crystal axes: (cart. coord. in units of alat)
               a(1) = (   0.505915  -0.292090   0.811624 )  
               a(2) = (   0.000000   0.584180   0.811624 )  
               a(3) = (  -0.505915  -0.292090   0.811624 )  

     reciprocal axes: (cart. coord. in units 2 pi/alat)
               b(1) = (  0.988308 -0.570600  0.410699 )  
               b(2) = (  0.000000  1.141200  0.410699 )  
               b(3) = ( -0.988308 -0.570600  0.410699 )  


     PseudoPot. # 1 for Co read from file:
     /home/mcurnan/dft-course/Project1/example_LaCoO3/Co.pbe-nd-rrkjus.UPF
     MD5 check sum: 3e47a84addf5e975e0edeaeee2a73f59
     Pseudo is Ultrasoft + core correction, Zval =  9.0
     Generated by new atomic code, or converted to UPF format
     Using radial grid of  961 points,  6 beta functions with: 
                l(1) =   0
                l(2) =   0
                l(3) =   1
                l(4) =   1
                l(5) =   2
                l(6) =   2
     Q(r) pseudized with 0 coefficients 


     PseudoPot. # 2 for Co read from file:
     /home/mcurnan/dft-course/Project1/example_LaCoO3/Co.pbe-nd-rrkjus.UPF
     MD5 check sum: 3e47a84addf5e975e0edeaeee2a73f59
     Pseudo is Ultrasoft + core correction, Zval =  9.0
     Generated by new atomic code, or converted to UPF format
     Using radial grid of  961 points,  6 beta functions with: 
                l(1) =   0
                l(2) =   0
                l(3) =   1
                l(4) =   1
                l(5) =   2
                l(6) =   2
     Q(r) pseudized with 0 coefficients 


     PseudoPot. # 3 for La read from file:
     /home/mcurnan/dft-course/Project1/example_LaCoO3/La.pbe-nsp-van.UPF
     MD5 check sum: b2f11743f52dde65f77d1302becd7929
     Pseudo is Ultrasoft + core correction, Zval = 11.0
     Generated by new atomic code, or converted to UPF format
     Using radial grid of  907 points,  6 beta functions with: 
                l(1) =   0
                l(2) =   0
                l(3) =   1
                l(4) =   1
                l(5) =   2
                l(6) =   2
     Q(r) pseudized with  6 coefficients,  rinner =    1.200   1.200   1.200
                                                       1.200   1.200

     PseudoPot. # 4 for O  read from file:
     /home/mcurnan/dft-course/Project1/example_LaCoO3/O.pbe-rrkjus.UPF
     MD5 check sum: 390ba29e75625707450f3bd3f0eb6be9
     Pseudo is Ultrasoft, Zval =  6.0
     Generated by new atomic code, or converted to UPF format
     Using radial grid of 1269 points,  4 beta functions with: 
                l(1) =   0
                l(2) =   0
                l(3) =   1
                l(4) =   1
     Q(r) pseudized with 0 coefficients 


     atomic species   valence    mass     pseudopotential
        Co1            9.00     1.00000     Co( 1.00)
        Co2            9.00     1.00000     Co( 1.00)
        La1           11.00     1.00000     La( 1.00)
        O1             6.00     1.00000     O ( 1.00)

     Starting magnetic structure 
     atomic species   magnetization
        Co1          1.000
        Co2          1.000
        La1          0.000
        O1           0.000
 -----
     simplified LDA+U calculation, Hubbard_lmax = 2
     atomic species  L   Hubbard U  Hubbard alpha
        Co1          2    0.000000    0.150000
        Co2          2    0.000000    0.000000
        La1          2    0.000000    0.000000
        O1           1    0.000000    0.000000
 -----

      6 Sym. Ops., with inversion, found


                                    s                        frac. trans.

      isym =  1     identity                                     

 cryst.   s( 1) = (     1          0          0      )
                  (     0          1          0      )
                  (     0          0          1      )

 cart.    s( 1) = (  1.0000000  0.0000000  0.0000000 )
                  (  0.0000000  1.0000000  0.0000000 )
                  (  0.0000000  0.0000000  1.0000000 )


      isym =  2     120 deg rotation - cryst. axis [0,0,1]       

 cryst.   s( 2) = (     0          1          0      )
                  (     0          0          1      )
                  (     1          0          0      )

 cart.    s( 2) = ( -0.5000000 -0.8660254  0.0000000 )
                  (  0.8660254 -0.5000000  0.0000000 )
                  (  0.0000000  0.0000000  1.0000000 )


      isym =  3     120 deg rotation - cryst. axis [0,0,-1]      

 cryst.   s( 3) = (     0          0          1      )
                  (     1          0          0      )
                  (     0          1          0      )

 cart.    s( 3) = ( -0.5000000  0.8660254  0.0000000 )
                  ( -0.8660254 -0.5000000  0.0000000 )
                  (  0.0000000  0.0000000  1.0000000 )


      isym =  4     inversion                                    

 cryst.   s( 4) = (    -1          0          0      )
                  (     0         -1          0      )
                  (     0          0         -1      )

 cart.    s( 4) = ( -1.0000000  0.0000000  0.0000000 )
                  (  0.0000000 -1.0000000  0.0000000 )
                  (  0.0000000  0.0000000 -1.0000000 )


      isym =  5     inv. 180 deg rotation - cart. axis [0,1,0]   

 cryst.   s( 5) = (     0         -1          0      )
                  (     0          0         -1      )
                  (    -1          0          0      )

 cart.    s( 5) = (  0.5000000  0.8660254  0.0000000 )
                  ( -0.8660254  0.5000000  0.0000000 )
                  (  0.0000000  0.0000000 -1.0000000 )


      isym =  6     inv. 180 deg rotation - cart. axis [1,0,0]   

 cryst.   s( 6) = (     0          0         -1      )
                  (    -1          0          0      )
                  (     0         -1          0      )

 cart.    s( 6) = (  0.5000000 -0.8660254  0.0000000 )
                  (  0.8660254  0.5000000  0.0000000 )
                  (  0.0000000  0.0000000 -1.0000000 )


     point group S_6 (-3)   
     there are  6 classes
     the character table:

       E     C3    C3^2  i     S6^5  S6   
A_g    1.00  1.00  1.00  1.00  1.00  1.00
E_g    1.00 -0.50 -0.50  1.00 -0.50 -0.50
E_g*   1.00 -0.50 -0.50  1.00 -0.50 -0.50
A_u    1.00  1.00  1.00 -1.00 -1.00 -1.00
E_u    1.00 -0.50 -0.50 -1.00  0.50  0.50
E_u*   1.00 -0.50 -0.50 -1.00  0.50  0.50
     imaginary part
A_g    0.00  0.00  0.00  0.00  0.00  0.00
E_g    0.00  0.87 -0.87  0.00  0.87 -0.87
E_g*   0.00 -0.87  0.87  0.00 -0.87  0.87
A_u    0.00  0.00  0.00  0.00  0.00  0.00
E_u    0.00  0.87 -0.87  0.00 -0.87  0.87
E_u*   0.00 -0.87  0.87  0.00  0.87 -0.87

     the symmetry operations in each class:
     E        1
     C3       2
     C3^2     3
     i        4
     S6^5     5
     S6       6

   Cartesian axes

     site n.     atom                  positions (alat units)
         1           Co1 tau(   1) = (   0.0000000   0.0000000   0.0000000  )
         2           Co2 tau(   2) = (   0.0000000   0.0000000   1.2174358  )
         3           La1 tau(   3) = (   0.0000000   0.0000000   0.6087179  )
         4           La1 tau(   4) = (   0.0000000   0.0000000   1.8261537  )
         5           O1  tau(   5) = (  -0.2839701  -0.0933228   1.0141240  )
         6           O1  tau(   6) = (   0.0611651   0.2925867   1.0141240  )
         7           O1  tau(   7) = (   0.2228050  -0.1992639   1.0141240  )
         8           O1  tau(   8) = (  -0.0611651  -0.2925867   1.4207476  )
         9           O1  tau(   9) = (   0.2839701   0.0933228   1.4207476  )
        10           O1  tau(  10) = (  -0.2228050   0.1992639   1.4207476  )

   Crystallographic axes

     site n.     atom                  positions (cryst. coord.)
         1           Co1 tau(   1) = (  0.0000000  0.0000000  0.0000000  )
         2           Co2 tau(   2) = (  0.5000000  0.5000000  0.5000000  )
         3           La1 tau(   3) = (  0.2500000  0.2500000  0.2500000  )
         4           La1 tau(   4) = (  0.7500000  0.7500000  0.7500000  )
         5           O1  tau(   5) = (  0.1891000  0.3100000  0.7504000  )
         6           O1  tau(   6) = (  0.3100000  0.7504000  0.1891000  )
         7           O1  tau(   7) = (  0.7504000  0.1891000  0.3100000  )
         8           O1  tau(   8) = (  0.6900000  0.2496000  0.8109000  )
         9           O1  tau(   9) = (  0.8109000  0.6900000  0.2496000  )
        10           O1  tau(  10) = (  0.2496000  0.8109000  0.6900000  )

     number of k points=    28  gaussian smearing, width (Ry)=  0.0300
                       cart. coord. in units 2pi/alat
        k(    1) = (   0.0000000   0.0000000   0.0000000), wk =   0.0156250
        k(    2) = (  -0.2470771  -0.1426500   0.1026748), wk =   0.0937500
        k(    3) = (   0.4941541   0.2853000  -0.2053496), wk =   0.0468750
        k(    4) = (  -0.2470771   0.1426500   0.2053496), wk =   0.0937500
        k(    5) = (   0.4941541   0.5706001  -0.1026748), wk =   0.0937500
        k(    6) = (   0.2470771   0.4279500   0.0000000), wk =   0.0937500
        k(    7) = (   0.4941541  -0.2853000  -0.4106993), wk =   0.0468750
        k(    8) = (   0.0000000   0.0000000   0.3080244), wk =   0.0312500
        k(    9) = (   0.7412312   0.4279500   0.0000000), wk =   0.0937500
        k(   10) = (   0.4941541   0.2853000   0.1026748), wk =   0.0937500
        k(   11) = (   0.7412312  -0.4279500  -0.3080244), wk =   0.0937500
        k(   12) = (   0.4941541  -0.5706001  -0.2053496), wk =   0.0937500
        k(   13) = (   0.0000000   0.0000000  -0.6160489), wk =   0.0156250
        k(   14) = (   0.4941541  -0.5706001   0.1026748), wk =   0.0937500
        k(   15) = (   0.0000000   0.0000000   0.0000000), wk =   0.0156250
        k(   16) = (  -0.2470771  -0.1426500   0.1026748), wk =   0.0937500
        k(   17) = (   0.4941541   0.2853000  -0.2053496), wk =   0.0468750
        k(   18) = (  -0.2470771   0.1426500   0.2053496), wk =   0.0937500
        k(   19) = (   0.4941541   0.5706001  -0.1026748), wk =   0.0937500
        k(   20) = (   0.2470771   0.4279500   0.0000000), wk =   0.0937500
        k(   21) = (   0.4941541  -0.2853000  -0.4106993), wk =   0.0468750
        k(   22) = (   0.0000000   0.0000000   0.3080244), wk =   0.0312500
        k(   23) = (   0.7412312   0.4279500   0.0000000), wk =   0.0937500
        k(   24) = (   0.4941541   0.2853000   0.1026748), wk =   0.0937500
        k(   25) = (   0.7412312  -0.4279500  -0.3080244), wk =   0.0937500
        k(   26) = (   0.4941541  -0.5706001  -0.2053496), wk =   0.0937500
        k(   27) = (   0.0000000   0.0000000  -0.6160489), wk =   0.0156250
        k(   28) = (   0.4941541  -0.5706001   0.1026748), wk =   0.0937500

                       cryst. coord.
        k(    1) = (   0.0000000   0.0000000   0.0000000), wk =   0.0156250
        k(    2) = (   0.0000000   0.0000000   0.2500000), wk =   0.0937500
        k(    3) = (   0.0000000   0.0000000  -0.5000000), wk =   0.0468750
        k(    4) = (   0.0000000   0.2500000   0.2500000), wk =   0.0937500
        k(    5) = (   0.0000000   0.2500000  -0.5000000), wk =   0.0937500
        k(    6) = (   0.0000000   0.2500000  -0.2500000), wk =   0.0937500
        k(    7) = (   0.0000000  -0.5000000  -0.5000000), wk =   0.0468750
        k(    8) = (   0.2500000   0.2500000   0.2500000), wk =   0.0312500
        k(    9) = (   0.2500000   0.2500000  -0.5000000), wk =   0.0937500
        k(   10) = (   0.2500000   0.2500000  -0.2500000), wk =   0.0937500
        k(   11) = (   0.2500000  -0.5000000  -0.5000000), wk =   0.0937500
        k(   12) = (   0.2500000  -0.5000000  -0.2500000), wk =   0.0937500
        k(   13) = (  -0.5000000  -0.5000000  -0.5000000), wk =   0.0156250
        k(   14) = (   0.5000000  -0.2500000   0.0000000), wk =   0.0937500
        k(   15) = (   0.0000000   0.0000000   0.0000000), wk =   0.0156250
        k(   16) = (   0.0000000   0.0000000   0.2500000), wk =   0.0937500
        k(   17) = (   0.0000000   0.0000000  -0.5000000), wk =   0.0468750
        k(   18) = (   0.0000000   0.2500000   0.2500000), wk =   0.0937500
        k(   19) = (   0.0000000   0.2500000  -0.5000000), wk =   0.0937500
        k(   20) = (   0.0000000   0.2500000  -0.2500000), wk =   0.0937500
        k(   21) = (   0.0000000  -0.5000000  -0.5000000), wk =   0.0468750
        k(   22) = (   0.2500000   0.2500000   0.2500000), wk =   0.0312500
        k(   23) = (   0.2500000   0.2500000  -0.5000000), wk =   0.0937500
        k(   24) = (   0.2500000   0.2500000  -0.2500000), wk =   0.0937500
        k(   25) = (   0.2500000  -0.5000000  -0.5000000), wk =   0.0937500
        k(   26) = (   0.2500000  -0.5000000  -0.2500000), wk =   0.0937500
        k(   27) = (  -0.5000000  -0.5000000  -0.5000000), wk =   0.0156250
        k(   28) = (   0.5000000  -0.2500000   0.0000000), wk =   0.0937500

     Dense  grid:    69617 G-vectors     FFT dimensions: (  60,  60,  60)

     Smooth grid:    17573 G-vectors     FFT dimensions: (  40,  40,  40)

     Largest allocated arrays     est. size (Mb)     dimensions
        Kohn-Sham Wavefunctions         0.78 Mb     (   1117,   46)
        Atomic wavefunctions            1.06 Mb     (   1117,   62)
        NL pseudopotentials             2.05 Mb     (   1117,  120)
        Each V/rho on FFT grid          3.30 Mb     ( 108000,   2)
        Each G-vector array             0.27 Mb     (  34808)
        G-vector shells                 0.04 Mb     (   4682)
     Largest temporary arrays     est. size (Mb)     dimensions
        Auxiliary wavefunctions         3.14 Mb     (   1117,  184)
        Each subspace H/S matrix        0.52 Mb     ( 184, 184)
        Each <psi_i|beta_j> matrix      0.08 Mb     (    120,   46)
        Arrays for rho mixing          13.18 Mb     ( 108000,   8)

     Check: negative/imaginary core charge=   -0.000028    0.000000

     The initial density is read from file :
     /home/mcurnan/dft-course/Project1/example_LaCoO3/0/Co/alpha/CoLaO_U0.save/charge-density.dat

 --- in v_hubbard ---
Hubbard energy    0.0875
 -------
     Number of +U iterations with fixed ns =  0
     Starting occupations:
 --- enter write_ns ---
 LDA+U parameters:
U( 1)     =  0.00000000
alpha( 1) =  0.15000000
U( 2)     =  0.00000000
alpha( 2) =  0.00000000
U( 3)     =  0.00000000
alpha( 3) =  0.00000000
U( 4)     =  0.00000000
alpha( 4) =  0.00000000
atom    1   Tr[ns(na)] (up, down, total) =   4.56612  3.37352  7.93963
   spin  1
    eigenvalues: 
  0.785  0.785  0.999  0.999  0.999
    eigenvectors:
  0.000  0.000  0.000  0.000  1.000
  0.422  0.224  0.056  0.298  0.000
  0.224  0.422  0.298  0.056  0.000
  0.346  0.008  0.556  0.090  0.000
  0.008  0.346  0.090  0.556  0.000
    occupations:
  0.999  0.000  0.000  0.000  0.000
  0.000  0.861  0.000 -0.073  0.072
  0.000  0.000  0.861  0.072  0.073
  0.000 -0.073  0.072  0.923  0.000
  0.000  0.072  0.073  0.000  0.923
   spin  2
    eigenvalues: 
  0.474  0.474  0.773  0.826  0.826
    eigenvectors:
  0.000  0.000  1.000  0.000  0.000
  0.276  0.363  0.000  0.034  0.327
  0.363  0.276  0.000  0.327  0.034
  0.279  0.082  0.000  0.476  0.163
  0.082  0.279  0.000  0.163  0.476
    occupations:
  0.773  0.000  0.000  0.000  0.000
  0.000  0.601  0.000 -0.037  0.165
  0.000  0.000  0.601  0.165  0.037
  0.000 -0.037  0.165  0.699  0.000
  0.000  0.165  0.037  0.000  0.699
atomic mag. moment =     1.192598
atom    2   Tr[ns(na)] (up, down, total) =   4.67274  3.22494  7.89767
   spin  1
    eigenvalues: 
  0.838  0.838  0.999  0.999  0.999
    eigenvectors:
  0.000  0.000  0.000  0.000  1.000
  0.643  0.003  0.325  0.029  0.000
  0.003  0.643  0.029  0.325  0.000
  0.153  0.201  0.499  0.147  0.000
  0.201  0.153  0.147  0.499  0.000
    occupations:
  0.999  0.000  0.000  0.000  0.000
  0.000  0.895  0.000  0.054  0.054
  0.000  0.000  0.895  0.054 -0.054
  0.000  0.054  0.054  0.942  0.000
  0.000  0.054 -0.054  0.000  0.942
   spin  2
    eigenvalues: 
  0.459  0.459  0.730  0.788  0.788
    eigenvectors:
  0.000  0.000  1.000  0.000  0.000
  0.510  0.125  0.000  0.190  0.175
  0.125  0.510  0.000  0.175  0.190
  0.019  0.346  0.000  0.447  0.189
  0.346  0.019  0.000  0.189  0.447
    occupations:
  0.730  0.000  0.000  0.000  0.000
  0.000  0.579  0.000  0.036  0.154
  0.000  0.000  0.579  0.154 -0.036
  0.000  0.036  0.154  0.668  0.000
  0.000  0.154 -0.036  0.000  0.668
atomic mag. moment =     1.447801
atom    3   Tr[ns(na)] (up, down, total) =   1.91460  1.90025  3.81485
   spin  1
    eigenvalues: 
  0.357  0.357  0.387  0.407  0.407
    eigenvectors:
  0.000  0.000  1.000  0.000  0.000
  0.786  0.138  0.000  0.011  0.065
  0.138  0.786  0.000  0.065  0.011
  0.012  0.064  0.000  0.785  0.139
  0.064  0.012  0.000  0.139  0.785
    occupations:
  0.387  0.000  0.000  0.000  0.000
  0.000  0.361  0.000  0.000  0.013
  0.000  0.000  0.361  0.013  0.000
  0.000  0.000  0.013  0.403  0.000
  0.000  0.013  0.000  0.000  0.403
   spin  2
    eigenvalues: 
  0.353  0.353  0.387  0.404  0.404
    eigenvectors:
  0.000  0.000  1.000  0.000  0.000
  0.766  0.145  0.000  0.013  0.077
  0.145  0.766  0.000  0.077  0.013
  0.015  0.075  0.000  0.767  0.143
  0.075  0.015  0.000  0.143  0.767
    occupations:
  0.387  0.000  0.000  0.000  0.000
  0.000  0.358  0.000  0.000  0.015
  0.000  0.000  0.358  0.015  0.000
  0.000  0.000  0.015  0.399  0.000
  0.000  0.015  0.000  0.000  0.399
atomic mag. moment =     0.014350
atom    4   Tr[ns(na)] (up, down, total) =   1.91460  1.90025  3.81485
   spin  1
    eigenvalues: 
  0.357  0.357  0.387  0.407  0.407
    eigenvectors:
  0.000  0.000  1.000  0.000  0.000
  0.786  0.138  0.000  0.011  0.065
  0.138  0.786  0.000  0.065  0.011
  0.012  0.064  0.000  0.785  0.139
  0.064  0.012  0.000  0.139  0.785
    occupations:
  0.387  0.000  0.000  0.000  0.000
  0.000  0.361  0.000  0.000  0.013
  0.000  0.000  0.361  0.013  0.000
  0.000  0.000  0.013  0.403  0.000
  0.000  0.013  0.000  0.000  0.403
   spin  2
    eigenvalues: 
  0.353  0.353  0.387  0.404  0.404
    eigenvectors:
  0.000  0.000  1.000  0.000  0.000
  0.766  0.145  0.000  0.013  0.077
  0.145  0.766  0.000  0.077  0.013
  0.015  0.074  0.000  0.767  0.143
  0.074  0.015  0.000  0.143  0.767
    occupations:
  0.387  0.000  0.000  0.000  0.000
  0.000  0.358  0.000  0.000  0.015
  0.000  0.000  0.358  0.015  0.000
  0.000  0.000  0.015  0.399  0.000
  0.000  0.015  0.000  0.000  0.399
atomic mag. moment =     0.014350
atom    5   Tr[ns(na)] (up, down, total) =   2.74224  2.70309  5.44533
   spin  1
    eigenvalues: 
  0.844  0.947  0.951
    eigenvectors:
  0.337  0.000  0.663
  0.487  0.256  0.257
  0.176  0.744  0.080
    occupations:
  0.915  0.044  0.026
  0.044  0.898 -0.030
  0.026 -0.030  0.929
   spin  2
    eigenvalues: 
  0.864  0.920  0.920
    eigenvectors:
  0.333  0.051  0.615
  0.486  0.406  0.108
  0.181  0.543  0.276
    occupations:
  0.901  0.022  0.014
  0.022  0.893 -0.016
  0.014 -0.016  0.910
atomic mag. moment =     0.039149
atom    6   Tr[ns(na)] (up, down, total) =   2.74224  2.70309  5.44533
   spin  1
    eigenvalues: 
  0.844  0.947  0.951
    eigenvectors:
  0.337  0.000  0.663
  0.000  1.000  0.000
  0.663  0.000  0.337
    occupations:
  0.915  0.001 -0.051
  0.001  0.947  0.001
 -0.051  0.001  0.880
   spin  2
    eigenvalues: 
  0.864  0.920  0.920
    eigenvectors:
  0.333  0.051  0.615
  0.000  0.915  0.085
  0.666  0.034  0.300
    occupations:
  0.901  0.001 -0.026
  0.001  0.920  0.001
 -0.026  0.001  0.883
atomic mag. moment =     0.039149
atom    7   Tr[ns(na)] (up, down, total) =   2.74224  2.70309  5.44533
   spin  1
    eigenvalues: 
  0.844  0.947  0.951
    eigenvectors:
  0.337  0.000  0.663
  0.508  0.244  0.248
  0.155  0.756  0.089
    occupations:
  0.915 -0.044  0.025
 -0.044  0.896  0.029
  0.025  0.029  0.932
   spin  2
    eigenvalues: 
  0.864  0.920  0.920
    eigenvectors:
  0.333  0.051  0.615
  0.514  0.102  0.384
  0.153  0.846  0.000
    occupations:
  0.901 -0.023  0.013
 -0.023  0.891  0.016
  0.013  0.016  0.911
atomic mag. moment =     0.039149
atom    8   Tr[ns(na)] (up, down, total) =   2.74224  2.70309  5.44533
   spin  1
    eigenvalues: 
  0.844  0.947  0.951
    eigenvectors:
  0.337  0.000  0.663
  0.000  1.000  0.000
  0.663  0.000  0.337
    occupations:
  0.915  0.001 -0.051
  0.001  0.947  0.001
 -0.051  0.001  0.880
   spin  2
    eigenvalues: 
  0.864  0.920  0.920
    eigenvectors:
  0.333  0.051  0.615
  0.000  0.915  0.085
  0.666  0.034  0.300
    occupations:
  0.901  0.001 -0.026
  0.001  0.920  0.001
 -0.026  0.001  0.883
atomic mag. moment =     0.039149
atom    9   Tr[ns(na)] (up, down, total) =   2.74224  2.70309  5.44533
   spin  1
    eigenvalues: 
  0.844  0.947  0.951
    eigenvectors:
  0.337  0.000  0.663
  0.487  0.256  0.257
  0.176  0.744  0.080
    occupations:
  0.915  0.044  0.026
  0.044  0.898 -0.030
  0.026 -0.030  0.929
   spin  2
    eigenvalues: 
  0.864  0.920  0.920
    eigenvectors:
  0.333  0.051  0.615
  0.486  0.406  0.108
  0.181  0.543  0.276
    occupations:
  0.901  0.022  0.014
  0.022  0.893 -0.016
  0.014 -0.016  0.910
atomic mag. moment =     0.039149
atom   10   Tr[ns(na)] (up, down, total) =   2.74224  2.70309  5.44533
   spin  1
    eigenvalues: 
  0.844  0.947  0.951
    eigenvectors:
  0.337  0.000  0.663
  0.508  0.244  0.248
  0.155  0.756  0.089
    occupations:
  0.915 -0.044  0.025
 -0.044  0.896  0.029
  0.025  0.029  0.932
   spin  2
    eigenvalues: 
  0.864  0.920  0.920
    eigenvectors:
  0.333  0.051  0.615
  0.514  0.102  0.384
  0.153  0.846  0.000
    occupations:
  0.901 -0.023  0.013
 -0.023  0.891  0.016
  0.013  0.016  0.911
atomic mag. moment =     0.039149
N of occupied +U levels =  56.1389605
 --- exit write_ns ---
 LDA+U Projector read from file 
     Starting wfc from file

     total cpu time spent up to now is       10.7 secs

     per-process dynamical memory:    66.8 Mb

     Self-consistent Calculation

     iteration #  1     ecut=    30.00 Ry     beta=0.20
     Davidson diagonalization with overlap
     c_bands:  1 eigenvalues not converged
     c_bands:  1 eigenvalues not converged
     c_bands:  1 eigenvalues not converged
     c_bands:  1 eigenvalues not converged
     c_bands:  1 eigenvalues not converged
     c_bands:  1 eigenvalues not converged
     c_bands:  1 eigenvalues not converged
     c_bands:  1 eigenvalues not converged
     c_bands:  1 eigenvalues not converged
     c_bands:  1 eigenvalues not converged
     c_bands:  1 eigenvalues not converged
     c_bands:  1 eigenvalues not converged
     ethr =  1.00E-10,  avg # of iterations = 13.8
 --- enter write_ns ---
 LDA+U parameters:
U( 1)     =  0.00000000
alpha( 1) =  0.15000000
U( 2)     =  0.00000000
alpha( 2) =  0.00000000
U( 3)     =  0.00000000
alpha( 3) =  0.00000000
U( 4)     =  0.00000000
alpha( 4) =  0.00000000
atom    1   Tr[ns(na)] (up, down, total) =   4.54118  3.22437  7.76555
   spin  1
    eigenvalues: 
  0.773  0.773  0.998  0.998  0.999
    eigenvectors:
  0.000  0.000  0.000  0.000  1.000
  0.423  0.223  0.057  0.297  0.000
  0.223  0.423  0.297  0.057  0.000
  0.346  0.008  0.556  0.090  0.000
  0.008  0.346  0.090  0.556  0.000
    occupations:
  0.999  0.000  0.000  0.000  0.000
  0.000  0.853  0.000 -0.077  0.076
  0.000  0.000  0.853  0.076  0.077
  0.000 -0.077  0.076  0.919  0.000
  0.000  0.076  0.077  0.000  0.919
   spin  2
    eigenvalues: 
  0.462  0.462  0.728  0.786  0.786
    eigenvectors:
  0.000  0.000  1.000  0.000  0.000
  0.271  0.366  0.000  0.040  0.322
  0.366  0.271  0.000  0.322  0.040
  0.275  0.087  0.000  0.471  0.166
  0.087  0.275  0.000  0.166  0.471
    occupations:
  0.728  0.000  0.000  0.000  0.000
  0.000  0.579  0.000 -0.031  0.153
  0.000  0.000  0.579  0.153  0.031
  0.000 -0.031  0.153  0.669  0.000
  0.000  0.153  0.031  0.000  0.669
atomic mag. moment =     1.316801
atom    2   Tr[ns(na)] (up, down, total) =   4.69096  3.32240  8.01336
   spin  1
    eigenvalues: 
  0.847  0.847  0.999  0.999  0.999
    eigenvectors:
  0.000  0.000  1.000  0.000  0.000
  0.643  0.003  0.000  0.326  0.028
  0.003  0.643  0.000  0.028  0.326
  0.154  0.200  0.000  0.500  0.146
  0.200  0.154  0.000  0.146  0.500
    occupations:
  0.999  0.000  0.000  0.000  0.000
  0.000  0.901  0.000  0.052  0.051
  0.000  0.000  0.901  0.051 -0.052
  0.000  0.052  0.051  0.945  0.000
  0.000  0.051 -0.052  0.000  0.945
   spin  2
    eigenvalues: 
  0.461  0.461  0.765  0.818  0.818
    eigenvectors:
  0.000  0.000  1.000  0.000  0.000
  0.552  0.085  0.000  0.197  0.166
  0.085  0.552  0.000  0.166  0.197
  0.005  0.358  0.000  0.448  0.188
  0.358  0.005  0.000  0.188  0.448
    occupations:
  0.765  0.000  0.000  0.000  0.000
  0.000  0.591  0.000  0.043  0.166
  0.000  0.000  0.591  0.166 -0.043
  0.000  0.043  0.166  0.688  0.000
  0.000  0.166 -0.043  0.000  0.688
atomic mag. moment =     1.368557
atom    3   Tr[ns(na)] (up, down, total) =   1.91492  1.90109  3.81602
   spin  1
    eigenvalues: 
  0.357  0.357  0.387  0.407  0.407
    eigenvectors:
  0.000  0.000  1.000  0.000  0.000
  0.787  0.137  0.000  0.011  0.065
  0.137  0.787  0.000  0.065  0.011
  0.012  0.064  0.000  0.785  0.139
  0.064  0.012  0.000  0.139  0.785
    occupations:
  0.387  0.000  0.000  0.000  0.000
  0.000  0.361  0.000  0.000  0.013
  0.000  0.000  0.361  0.013  0.000
  0.000  0.000  0.013  0.403  0.000
  0.000  0.013  0.000  0.000  0.403
   spin  2
    eigenvalues: 
  0.353  0.353  0.387  0.404  0.404
    eigenvectors:
  0.000  0.000  1.000  0.000  0.000
  0.766  0.144  0.000  0.014  0.076
  0.144  0.766  0.000  0.076  0.014
  0.014  0.075  0.000  0.768  0.143
  0.075  0.014  0.000  0.143  0.768
    occupations:
  0.387  0.000  0.000  0.000  0.000
  0.000  0.358  0.000  0.000  0.015
  0.000  0.000  0.358  0.015  0.000
  0.000  0.000  0.015  0.399  0.000
  0.000  0.015  0.000  0.000  0.399
atomic mag. moment =     0.013831
atom    4   Tr[ns(na)] (up, down, total) =   1.91492  1.90109  3.81602
   spin  1
    eigenvalues: 
  0.357  0.357  0.387  0.407  0.407
    eigenvectors:
  0.000  0.000  1.000  0.000  0.000
  0.786  0.138  0.000  0.011  0.065
  0.138  0.786  0.000  0.065  0.011
  0.012  0.064  0.000  0.785  0.139
  0.064  0.012  0.000  0.139  0.785
    occupations:
  0.387  0.000  0.000  0.000  0.000
  0.000  0.361  0.000  0.000  0.013
  0.000  0.000  0.361  0.013  0.000
  0.000  0.000  0.013  0.403  0.000
  0.000  0.013  0.000  0.000  0.403
   spin  2
    eigenvalues: 
  0.353  0.353  0.387  0.404  0.404
    eigenvectors:
  0.000  0.000  1.000  0.000  0.000
  0.767  0.143  0.000  0.014  0.076
  0.143  0.767  0.000  0.076  0.014
  0.014  0.075  0.000  0.768  0.143
  0.075  0.014  0.000  0.143  0.768
    occupations:
  0.387  0.000  0.000  0.000  0.000
  0.000  0.358  0.000  0.000  0.015
  0.000  0.000  0.358  0.015  0.000
  0.000  0.000  0.015  0.399  0.000
  0.000  0.015  0.000  0.000  0.399
atomic mag. moment =     0.013831
atom    5   Tr[ns(na)] (up, down, total) =   2.74571  2.70703  5.45274
   spin  1
    eigenvalues: 
  0.847  0.948  0.951
    eigenvectors:
  0.336  0.000  0.663
  0.484  0.259  0.258
  0.180  0.741  0.079
    occupations:
  0.916  0.042  0.026
  0.042  0.900 -0.029
  0.026 -0.029  0.930
   spin  2
    eigenvalues: 
  0.866  0.921  0.921
    eigenvectors:
  0.333  0.009  0.658
  0.503  0.190  0.307
  0.164  0.801  0.034
    occupations:
  0.902  0.022  0.013
  0.022  0.893 -0.016
  0.013 -0.016  0.912
atomic mag. moment =     0.038685
atom    6   Tr[ns(na)] (up, down, total) =   2.74571  2.70703  5.45274
   spin  1
    eigenvalues: 
  0.847  0.948  0.951
    eigenvectors:
  0.336  0.000  0.663
  0.000  0.999  0.000
  0.663  0.000  0.337
    occupations:
  0.916  0.001 -0.049
  0.001  0.948  0.002
 -0.049  0.002  0.882
   spin  2
    eigenvalues: 
  0.866  0.921  0.921
    eigenvectors:
  0.333  0.009  0.658
  0.000  0.986  0.014
  0.667  0.005  0.328
    occupations:
  0.902  0.000 -0.026
  0.000  0.921  0.000
 -0.026  0.000  0.884
atomic mag. moment =     0.038685
atom    7   Tr[ns(na)] (up, down, total) =   2.74571  2.70703  5.45274
   spin  1
    eigenvalues: 
  0.847  0.948  0.951
    eigenvectors:
  0.336  0.000  0.663
  0.512  0.241  0.247
  0.152  0.758  0.090
    occupations:
  0.916 -0.043  0.024
 -0.043  0.897  0.028
  0.024  0.028  0.933
   spin  2
    eigenvalues: 
  0.866  0.921  0.921
    eigenvectors:
  0.333  0.009  0.658
  0.498  0.310  0.191
  0.169  0.681  0.150
    occupations:
  0.902 -0.022  0.013
 -0.022  0.893  0.016
  0.013  0.016  0.911
atomic mag. moment =     0.038685
atom    8   Tr[ns(na)] (up, down, total) =   2.74571  2.70703  5.45274
   spin  1
    eigenvalues: 
  0.847  0.948  0.951
    eigenvectors:
  0.336  0.000  0.663
  0.000  0.999  0.000
  0.663  0.000  0.337
    occupations:
  0.916  0.001 -0.049
  0.001  0.948  0.002
 -0.049  0.002  0.882
   spin  2
    eigenvalues: 
  0.866  0.921  0.921
    eigenvectors:
  0.333  0.009  0.658
  0.000  0.986  0.014
  0.667  0.005  0.328
    occupations:
  0.902  0.000 -0.026
  0.000  0.921  0.000
 -0.026  0.000  0.884
atomic mag. moment =     0.038685
atom    9   Tr[ns(na)] (up, down, total) =   2.74571  2.70703  5.45274
   spin  1
    eigenvalues: 
  0.847  0.948  0.951
    eigenvectors:
  0.336  0.000  0.663
  0.484  0.259  0.258
  0.180  0.741  0.079
    occupations:
  0.916  0.042  0.026
  0.042  0.900 -0.029
  0.026 -0.029  0.930
   spin  2
    eigenvalues: 
  0.866  0.921  0.921
    eigenvectors:
  0.333  0.009  0.658
  0.503  0.190  0.307
  0.164  0.801  0.034
    occupations:
  0.902  0.022  0.013
  0.022  0.893 -0.016
  0.013 -0.016  0.912
atomic mag. moment =     0.038685
atom   10   Tr[ns(na)] (up, down, total) =   2.74571  2.70703  5.45274
   spin  1
    eigenvalues: 
  0.847  0.948  0.951
    eigenvectors:
  0.336  0.000  0.663
  0.512  0.241  0.247
  0.152  0.758  0.090
    occupations:
  0.916 -0.043  0.024
 -0.043  0.897  0.028
  0.024  0.028  0.933
   spin  2
    eigenvalues: 
  0.866  0.921  0.921
    eigenvectors:
  0.333  0.009  0.658
  0.498  0.310  0.191
  0.169  0.681  0.150
    occupations:
  0.902 -0.022  0.013
 -0.022  0.893  0.016
  0.013  0.016  0.911
atomic mag. moment =     0.038685
N of occupied +U levels =  56.1273594
 --- exit write_ns ---
 --- in v_hubbard ---
Hubbard energy    0.0871
 -------

     total cpu time spent up to now is       63.4 secs

     total energy              =    -538.25695072 Ry
     Harris-Foulkes estimate   =    -538.26884237 Ry
     estimated scf accuracy    <       0.03606654 Ry

     total magnetization       =     3.59 Bohr mag/cell
     absolute magnetization    =     3.73 Bohr mag/cell

     iteration #  2     ecut=    30.00 Ry     beta=0.20
     Davidson diagonalization with overlap
     ethr =  4.75E-05,  avg # of iterations =  2.0
 --- enter write_ns ---
 LDA+U parameters:
U( 1)     =  0.00000000
alpha( 1) =  0.15000000
U( 2)     =  0.00000000
alpha( 2) =  0.00000000
U( 3)     =  0.00000000
alpha( 3) =  0.00000000
U( 4)     =  0.00000000
alpha( 4) =  0.00000000
atom    1   Tr[ns(na)] (up, down, total) =   4.75960  3.94039  8.69999
   spin  1
    eigenvalues: 
  0.881  0.881  0.999  0.999  0.999
    eigenvectors:
  0.000  0.000  1.000  0.000  0.000
  0.428  0.217  0.000  0.064  0.291
  0.217  0.428  0.000  0.291  0.064
  0.348  0.006  0.000  0.557  0.088
  0.006  0.348  0.000  0.088  0.557
    occupations:
  0.999  0.000  0.000  0.000  0.000
  0.000  0.923  0.000 -0.041  0.038
  0.000  0.000  0.923  0.038  0.041
  0.000 -0.041  0.038  0.957  0.000
  0.000  0.038  0.041  0.000  0.957
   spin  2
    eigenvalues: 
  0.526  0.526  0.953  0.967  0.967
    eigenvectors:
  0.000  0.000  1.000  0.000  0.000
  0.293  0.349  0.000  0.017  0.341
  0.349  0.293  0.000  0.341  0.017
  0.290  0.068  0.000  0.490  0.152
  0.068  0.290  0.000  0.152  0.490
    occupations:
  0.953  0.000  0.000  0.000  0.000
  0.000  0.684  0.000 -0.061  0.202
  0.000  0.000  0.684  0.202  0.061
  0.000 -0.061  0.202  0.809  0.000
  0.000  0.202  0.061  0.000  0.809
atomic mag. moment =     0.819213
atom    2   Tr[ns(na)] (up, down, total) =   4.51199  2.48827  7.00026
   spin  1
    eigenvalues: 
  0.758  0.758  0.999  0.999  0.999
    eigenvectors:
  0.000  0.000  0.000  0.000  1.000
  0.644  0.003  0.324  0.030  0.000
  0.003  0.644  0.030  0.324  0.000
  0.151  0.203  0.499  0.148  0.000
  0.203  0.151  0.148  0.499  0.000
    occupations:
  0.999  0.000  0.000  0.000  0.000
  0.000  0.843  0.000  0.081  0.082
  0.000  0.000  0.843  0.082 -0.081
  0.000  0.081  0.082  0.914  0.000
  0.000  0.082 -0.081  0.000  0.914
   spin  2
    eigenvalues: 
  0.421  0.421  0.495  0.576  0.576
    eigenvectors:
  0.000  0.000  1.000  0.000  0.000
  0.200  0.404  0.000  0.066  0.330
  0.404  0.200  0.000  0.330  0.066
  0.313  0.083  0.000  0.436  0.168
  0.083  0.313  0.000  0.168  0.436
    occupations:
  0.495  0.000  0.000  0.000  0.000
  0.000  0.482  0.000 -0.010  0.075
  0.000  0.000  0.482  0.075  0.010
  0.000 -0.010  0.075  0.514  0.000
  0.000  0.075  0.010  0.000  0.514
atomic mag. moment =     2.023727
atom    3   Tr[ns(na)] (up, down, total) =   1.91671  1.90113  3.81784
   spin  1
    eigenvalues: 
  0.357  0.357  0.387  0.408  0.408
    eigenvectors:
  0.000  0.000  1.000  0.000  0.000
  0.787  0.137  0.000  0.011  0.064
  0.137  0.787  0.000  0.064  0.011
  0.011  0.065  0.000  0.785  0.139
  0.065  0.011  0.000  0.139  0.785
    occupations:
  0.387  0.000  0.000  0.000  0.000
  0.000  0.361  0.000  0.000  0.013
  0.000  0.000  0.361  0.013  0.000
  0.000  0.000  0.013  0.404  0.000
  0.000  0.013  0.000  0.000  0.404
   spin  2
    eigenvalues: 
  0.353  0.353  0.387  0.404  0.404
    eigenvectors:
  0.000  0.000  1.000  0.000  0.000
  0.757  0.150  0.000  0.009  0.084
  0.150  0.757  0.000  0.084  0.009
  0.022  0.071  0.000  0.764  0.143
  0.071  0.022  0.000  0.143  0.764
    occupations:
  0.387  0.000  0.000  0.000  0.000
  0.000  0.358  0.000 -0.001  0.015
  0.000  0.000  0.358  0.015  0.001
  0.000 -0.001  0.015  0.399  0.000
  0.000  0.015  0.001  0.000  0.399
atomic mag. moment =     0.015585
atom    4   Tr[ns(na)] (up, down, total) =   1.91671  1.90113  3.81784
   spin  1
    eigenvalues: 
  0.357  0.357  0.387  0.408  0.408
    eigenvectors:
  0.000  0.000  1.000  0.000  0.000
  0.787  0.137  0.000  0.011  0.064
  0.137  0.787  0.000  0.064  0.011
  0.011  0.065  0.000  0.785  0.139
  0.065  0.011  0.000  0.139  0.785
    occupations:
  0.387  0.000  0.000  0.000  0.000
  0.000  0.361  0.000  0.000  0.013
  0.000  0.000  0.361  0.013  0.000
  0.000  0.000  0.013  0.404  0.000
  0.000  0.013  0.000  0.000  0.404
   spin  2
    eigenvalues: 
  0.353  0.353  0.387  0.404  0.404
    eigenvectors:
  0.000  0.000  1.000  0.000  0.000
  0.757  0.150  0.000  0.009  0.084
  0.150  0.757  0.000  0.084  0.009
  0.022  0.071  0.000  0.764  0.143
  0.071  0.022  0.000  0.143  0.764
    occupations:
  0.387  0.000  0.000  0.000  0.000
  0.000  0.358  0.000 -0.001  0.015
  0.000  0.000  0.358  0.015  0.001
  0.000 -0.001  0.015  0.399  0.000
  0.000  0.015  0.001  0.000  0.399
atomic mag. moment =     0.015585
atom    5   Tr[ns(na)] (up, down, total) =   2.75090  2.70738  5.45827
   spin  1
    eigenvalues: 
  0.851  0.948  0.951
    eigenvectors:
  0.336  0.001  0.663
  0.525  0.229  0.246
  0.139  0.769  0.092
    occupations:
  0.918  0.042  0.022
  0.042  0.898 -0.026
  0.022 -0.026  0.935
   spin  2
    eigenvalues: 
  0.863  0.921  0.923
    eigenvectors:
  0.328  0.001  0.671
  0.396  0.432  0.172
  0.276  0.567  0.157
    occupations:
  0.904  0.022  0.018
  0.022  0.898 -0.019
  0.018 -0.019  0.905
atomic mag. moment =     0.043521
atom    6   Tr[ns(na)] (up, down, total) =   2.75090  2.70738  5.45827
   spin  1
    eigenvalues: 
  0.851  0.948  0.951
    eigenvectors:
  0.336  0.001  0.663
  0.002  0.998  0.000
  0.662  0.001  0.337
    occupations:
  0.918 -0.002 -0.047
 -0.002  0.948 -0.003
 -0.047 -0.003  0.885
   spin  2
    eigenvalues: 
  0.863  0.921  0.923
    eigenvectors:
  0.328  0.001  0.671
  0.020  0.962  0.019
  0.652  0.037  0.311
    occupations:
  0.904  0.005 -0.028
  0.005  0.920  0.006
 -0.028  0.006  0.884
atomic mag. moment =     0.043521
atom    7   Tr[ns(na)] (up, down, total) =   2.75090  2.70738  5.45827
   spin  1
    eigenvalues: 
  0.851  0.948  0.951
    eigenvectors:
  0.336  0.001  0.663
  0.469  0.271  0.260
  0.195  0.728  0.077
    occupations:
  0.918 -0.040  0.026
 -0.040  0.904  0.029
  0.026  0.029  0.930
   spin  2
    eigenvalues: 
  0.863  0.921  0.923
    eigenvectors:
  0.328  0.001  0.671
  0.592  0.105  0.304
  0.080  0.894  0.026
    occupations:
  0.904 -0.027  0.010
 -0.027  0.887  0.012
  0.010  0.012  0.917
atomic mag. moment =     0.043521
atom    8   Tr[ns(na)] (up, down, total) =   2.75090  2.70738  5.45827
   spin  1
    eigenvalues: 
  0.851  0.948  0.951
    eigenvectors:
  0.336  0.001  0.663
  0.002  0.998  0.000
  0.662  0.001  0.337
    occupations:
  0.918 -0.002 -0.047
 -0.002  0.948 -0.003
 -0.047 -0.003  0.885
   spin  2
    eigenvalues: 
  0.863  0.921  0.923
    eigenvectors:
  0.328  0.001  0.671
  0.020  0.962  0.019
  0.652  0.037  0.311
    occupations:
  0.904  0.005 -0.028
  0.005  0.920  0.006
 -0.028  0.006  0.884
atomic mag. moment =     0.043521
atom    9   Tr[ns(na)] (up, down, total) =   2.75090  2.70738  5.45827
   spin  1
    eigenvalues: 
  0.851  0.948  0.951
    eigenvectors:
  0.336  0.001  0.663
  0.525  0.229  0.246
  0.139  0.769  0.092
    occupations:
  0.918  0.042  0.022
  0.042  0.898 -0.026
  0.022 -0.026  0.935
   spin  2
    eigenvalues: 
  0.863  0.921  0.923
    eigenvectors:
  0.328  0.001  0.671
  0.396  0.432  0.172
  0.276  0.567  0.157
    occupations:
  0.904  0.022  0.018
  0.022  0.898 -0.019
  0.018 -0.019  0.905
atomic mag. moment =     0.043521
atom   10   Tr[ns(na)] (up, down, total) =   2.75090  2.70738  5.45827
   spin  1
    eigenvalues: 
  0.851  0.948  0.951
    eigenvectors:
  0.336  0.001  0.663
  0.469  0.271  0.260
  0.195  0.728  0.077
    occupations:
  0.918 -0.040  0.026
 -0.040  0.904  0.029
  0.026  0.029  0.930
   spin  2
    eigenvalues: 
  0.863  0.921  0.923
    eigenvectors:
  0.328  0.001  0.671
  0.592  0.105  0.304
  0.080  0.894  0.026
    occupations:
  0.904 -0.027  0.010
 -0.027  0.887  0.012
  0.010  0.012  0.917
atomic mag. moment =     0.043521
N of occupied +U levels =  56.0855712
 --- exit write_ns ---
 --- in v_hubbard ---
Hubbard energy    0.0874
 -------

     total cpu time spent up to now is       86.3 secs

     total energy              =    -538.23597901 Ry
     Harris-Foulkes estimate   =    -538.30778818 Ry
     estimated scf accuracy    <       1.43527035 Ry

     total magnetization       =     3.80 Bohr mag/cell
     absolute magnetization    =     3.92 Bohr mag/cell

     iteration #  3     ecut=    30.00 Ry     beta=0.20
     Davidson diagonalization with overlap
     ethr =  4.75E-05,  avg # of iterations =  2.0
 --- enter write_ns ---
 LDA+U parameters:
U( 1)     =  0.00000000
alpha( 1) =  0.15000000
U( 2)     =  0.00000000
alpha( 2) =  0.00000000
U( 3)     =  0.00000000
alpha( 3) =  0.00000000
U( 4)     =  0.00000000
alpha( 4) =  0.00000000
atom    1   Tr[ns(na)] (up, down, total) =   4.57616  3.36852  7.94468
   spin  1
    eigenvalues: 
  0.790  0.790  0.999  0.999  0.999
    eigenvectors:
  0.000  0.000  0.000  0.000  1.000
  0.423  0.223  0.056  0.297  0.000
  0.223  0.423  0.297  0.056  0.000
  0.346  0.008  0.556  0.090  0.000
  0.008  0.346  0.090  0.556  0.000
    occupations:
  0.999  0.000  0.000  0.000  0.000
  0.000  0.864  0.000 -0.071  0.070
  0.000  0.000  0.864  0.070  0.071
  0.000 -0.071  0.070  0.925  0.000
  0.000  0.070  0.071  0.000  0.925
   spin  2
    eigenvalues: 
  0.473  0.473  0.772  0.825  0.825
    eigenvectors:
  0.000  0.000  1.000  0.000  0.000
  0.275  0.364  0.000  0.035  0.327
  0.364  0.275  0.000  0.327  0.035
  0.278  0.083  0.000  0.475  0.164
  0.083  0.278  0.000  0.164  0.475
    occupations:
  0.772  0.000  0.000  0.000  0.000
  0.000  0.600  0.000 -0.036  0.165
  0.000  0.000  0.600  0.165  0.036
  0.000 -0.036  0.165  0.698  0.000
  0.000  0.165  0.036  0.000  0.698
atomic mag. moment =     1.207640
atom    2   Tr[ns(na)] (up, down, total) =   4.66861  3.22272  7.89133
   spin  1
    eigenvalues: 
  0.836  0.836  0.999  0.999  0.999
    eigenvectors:
  0.000  0.000  0.000  0.000  1.000
  0.643  0.003  0.325  0.029  0.000
  0.003  0.643  0.029  0.325  0.000
  0.153  0.201  0.499  0.147  0.000
  0.201  0.153  0.147  0.499  0.000
    occupations:
  0.999  0.000  0.000  0.000  0.000
  0.000  0.894  0.000  0.055  0.055
  0.000  0.000  0.894  0.055 -0.055
  0.000  0.055  0.055  0.941  0.000
  0.000  0.055 -0.055  0.000  0.941
   spin  2
    eigenvalues: 
  0.460  0.460  0.729  0.787  0.787
    eigenvectors:
  0.000  0.000  1.000  0.000  0.000
  0.509  0.127  0.000  0.188  0.176
  0.127  0.509  0.000  0.176  0.188
  0.020  0.345  0.000  0.447  0.188
  0.345  0.020  0.000  0.188  0.447
    occupations:
  0.729  0.000  0.000  0.000  0.000
  0.000  0.579  0.000  0.035  0.153
  0.000  0.000  0.579  0.153 -0.035
  0.000  0.035  0.153  0.668  0.000
  0.000  0.153 -0.035  0.000  0.668
atomic mag. moment =     1.445888
atom    3   Tr[ns(na)] (up, down, total) =   1.91559  1.90124  3.81683
   spin  1
    eigenvalues: 
  0.357  0.357  0.387  0.407  0.407
    eigenvectors:
  0.000  0.000  1.000  0.000  0.000
  0.786  0.138  0.000  0.011  0.065
  0.138  0.786  0.000  0.065  0.011
  0.012  0.064  0.000  0.785  0.139
  0.064  0.012  0.000  0.139  0.785
    occupations:
  0.387  0.000  0.000  0.000  0.000
  0.000  0.361  0.000  0.000  0.013
  0.000  0.000  0.361  0.013  0.000
  0.000  0.000  0.013  0.403  0.000
  0.000  0.013  0.000  0.000  0.403
   spin  2
    eigenvalues: 
  0.353  0.353  0.387  0.404  0.404
    eigenvectors:
  0.000  0.000  1.000  0.000  0.000
  0.765  0.145  0.000  0.013  0.077
  0.145  0.765  0.000  0.077  0.013
  0.016  0.074  0.000  0.768  0.143
  0.074  0.016  0.000  0.143  0.768
    occupations:
  0.387  0.000  0.000  0.000  0.000
  0.000  0.358  0.000  0.000  0.015
  0.000  0.000  0.358  0.015  0.000
  0.000  0.000  0.015  0.399  0.000
  0.000  0.015  0.000  0.000  0.399
atomic mag. moment =     0.014352
atom    4   Tr[ns(na)] (up, down, total) =   1.91559  1.90124  3.81683
   spin  1
    eigenvalues: 
  0.357  0.357  0.387  0.407  0.407
    eigenvectors:
  0.000  0.000  1.000  0.000  0.000
  0.786  0.138  0.000  0.011  0.065
  0.138  0.786  0.000  0.065  0.011
  0.012  0.064  0.000  0.785  0.139
  0.064  0.012  0.000  0.139  0.785
    occupations:
  0.387  0.000  0.000  0.000  0.000
  0.000  0.361  0.000  0.000  0.013
  0.000  0.000  0.361  0.013  0.000
  0.000  0.000  0.013  0.403  0.000
  0.000  0.013  0.000  0.000  0.403
   spin  2
    eigenvalues: 
  0.353  0.353  0.387  0.404  0.404
    eigenvectors:
  0.000  0.000  1.000  0.000  0.000
  0.766  0.145  0.000  0.013  0.077
  0.145  0.766  0.000  0.077  0.013
  0.016  0.074  0.000  0.767  0.143
  0.074  0.016  0.000  0.143  0.767
    occupations:
  0.387  0.000  0.000  0.000  0.000
  0.000  0.358  0.000  0.000  0.015
  0.000  0.000  0.358  0.015  0.000
  0.000  0.000  0.015  0.399  0.000
  0.000  0.015  0.000  0.000  0.399
atomic mag. moment =     0.014352
atom    5   Tr[ns(na)] (up, down, total) =   2.74152  2.70256  5.44408
   spin  1
    eigenvalues: 
  0.843  0.947  0.951
    eigenvectors:
  0.337  0.000  0.663
  0.488  0.255  0.257
  0.174  0.745  0.080
    occupations:
  0.915  0.044  0.026
  0.044  0.897 -0.030
  0.026 -0.030  0.929
   spin  2
    eigenvalues: 
  0.864  0.919  0.920
    eigenvectors:
  0.334  0.022  0.644
  0.485  0.363  0.151
  0.181  0.614  0.205
    occupations:
  0.901  0.022  0.014
  0.022  0.892 -0.016
  0.014 -0.016  0.909
atomic mag. moment =     0.038953
atom    6   Tr[ns(na)] (up, down, total) =   2.74152  2.70256  5.44408
   spin  1
    eigenvalues: 
  0.843  0.947  0.951
    eigenvectors:
  0.337  0.000  0.663
  0.000  1.000  0.000
  0.663  0.000  0.337
    occupations:
  0.915  0.001 -0.051
  0.001  0.947  0.001
 -0.051  0.001  0.880
   spin  2
    eigenvalues: 
  0.864  0.919  0.920
    eigenvectors:
  0.334  0.022  0.644
  0.000  0.961  0.039
  0.666  0.017  0.317
    occupations:
  0.901  0.001 -0.026
  0.001  0.919  0.001
 -0.026  0.001  0.882
atomic mag. moment =     0.038953
atom    7   Tr[ns(na)] (up, down, total) =   2.74152  2.70256  5.44408
   spin  1
    eigenvalues: 
  0.843  0.947  0.951
    eigenvectors:
  0.337  0.000  0.663
  0.506  0.245  0.249
  0.157  0.754  0.088
    occupations:
  0.915 -0.044  0.025
 -0.044  0.896  0.029
  0.025  0.029  0.931
   spin  2
    eigenvalues: 
  0.864  0.919  0.920
    eigenvectors:
  0.334  0.022  0.644
  0.514  0.143  0.344
  0.153  0.835  0.012
    occupations:
  0.901 -0.023  0.013
 -0.023  0.891  0.016
  0.013  0.016  0.911
atomic mag. moment =     0.038953
atom    8   Tr[ns(na)] (up, down, total) =   2.74152  2.70256  5.44408
   spin  1
    eigenvalues: 
  0.843  0.947  0.951
    eigenvectors:
  0.337  0.000  0.663
  0.000  1.000  0.000
  0.663  0.000  0.337
    occupations:
  0.915  0.001 -0.051
  0.001  0.947  0.001
 -0.051  0.001  0.880
   spin  2
    eigenvalues: 
  0.864  0.919  0.920
    eigenvectors:
  0.334  0.022  0.644
  0.000  0.961  0.039
  0.666  0.017  0.317
    occupations:
  0.901  0.001 -0.026
  0.001  0.919  0.001
 -0.026  0.001  0.882
atomic mag. moment =     0.038953
atom    9   Tr[ns(na)] (up, down, total) =   2.74152  2.70256  5.44408
   spin  1
    eigenvalues: 
  0.843  0.947  0.951
    eigenvectors:
  0.337  0.000  0.663
  0.488  0.255  0.257
  0.174  0.745  0.080
    occupations:
  0.915  0.044  0.026
  0.044  0.897 -0.030
  0.026 -0.030  0.929
   spin  2
    eigenvalues: 
  0.864  0.919  0.920
    eigenvectors:
  0.334  0.022  0.644
  0.485  0.363  0.151
  0.181  0.614  0.205
    occupations:
  0.901  0.022  0.014
  0.022  0.892 -0.016
  0.014 -0.016  0.909
atomic mag. moment =     0.038953
atom   10   Tr[ns(na)] (up, down, total) =   2.74152  2.70256  5.44408
   spin  1
    eigenvalues: 
  0.843  0.947  0.951
    eigenvectors:
  0.337  0.000  0.663
  0.506  0.245  0.249
  0.157  0.754  0.088
    occupations:
  0.915 -0.044  0.025
 -0.044  0.896  0.029
  0.025  0.029  0.931
   spin  2
    eigenvalues: 
  0.864  0.919  0.920
    eigenvectors:
  0.334  0.022  0.644
  0.514  0.143  0.344
  0.153  0.835  0.012
    occupations:
  0.901 -0.023  0.013
 -0.023  0.891  0.016
  0.013  0.016  0.911
atomic mag. moment =     0.038953
N of occupied +U levels =  56.1341283
 --- exit write_ns ---
 --- in v_hubbard ---
Hubbard energy    0.0874
 -------

     total cpu time spent up to now is      109.9 secs

     total energy              =    -538.26778278 Ry
     Harris-Foulkes estimate   =    -538.26779138 Ry
     estimated scf accuracy    <       0.00098038 Ry

     total magnetization       =     3.56 Bohr mag/cell
     absolute magnetization    =     3.71 Bohr mag/cell

     iteration #  4     ecut=    30.00 Ry     beta=0.20
     Davidson diagonalization with overlap
     ethr =  1.29E-06,  avg # of iterations =  2.1
 --- enter write_ns ---
 LDA+U parameters:
U( 1)     =  0.00000000
alpha( 1) =  0.15000000
U( 2)     =  0.00000000
alpha( 2) =  0.00000000
U( 3)     =  0.00000000
alpha( 3) =  0.00000000
U( 4)     =  0.00000000
alpha( 4) =  0.00000000
atom    1   Tr[ns(na)] (up, down, total) =   4.57178  3.34542  7.91720
   spin  1
    eigenvalues: 
  0.788  0.788  0.999  0.999  0.999
    eigenvectors:
  0.000  0.000  0.000  0.000  1.000
  0.423  0.223  0.057  0.297  0.000
  0.223  0.423  0.297  0.057  0.000
  0.346  0.008  0.556  0.090  0.000
  0.008  0.346  0.090  0.556  0.000
    occupations:
  0.999  0.000  0.000  0.000  0.000
  0.000  0.863  0.000 -0.072  0.071
  0.000  0.000  0.863  0.071  0.072
  0.000 -0.072  0.071  0.924  0.000
  0.000  0.071  0.072  0.000  0.924
   spin  2
    eigenvalues: 
  0.471  0.471  0.766  0.819  0.819
    eigenvectors:
  0.000  0.000  1.000  0.000  0.000
  0.275  0.364  0.000  0.035  0.327
  0.364  0.275  0.000  0.327  0.035
  0.278  0.083  0.000  0.475  0.164
  0.083  0.278  0.000  0.164  0.475
    occupations:
  0.766  0.000  0.000  0.000  0.000
  0.000  0.597  0.000 -0.036  0.164
  0.000  0.000  0.597  0.164  0.036
  0.000 -0.036  0.164  0.693  0.000
  0.000  0.164  0.036  0.000  0.693
atomic mag. moment =     1.226357
atom    2   Tr[ns(na)] (up, down, total) =   4.66996  3.23021  7.90017
   spin  1
    eigenvalues: 
  0.837  0.837  0.999  0.999  0.999
    eigenvectors:
  0.000  0.000  0.000  0.000  1.000
  0.643  0.003  0.325  0.028  0.000
  0.003  0.643  0.028  0.325  0.000
  0.153  0.201  0.500  0.147  0.000
  0.201  0.153  0.147  0.500  0.000
    occupations:
  0.999  0.000  0.000  0.000  0.000
  0.000  0.894  0.000  0.055  0.055
  0.000  0.000  0.894  0.055 -0.055
  0.000  0.055  0.055  0.941  0.000
  0.000  0.055 -0.055  0.000  0.941
   spin  2
    eigenvalues: 
  0.459  0.459  0.732  0.790  0.790
    eigenvectors:
  0.000  0.000  1.000  0.000  0.000
  0.518  0.118  0.000  0.190  0.174
  0.118  0.518  0.000  0.174  0.190
  0.016  0.348  0.000  0.448  0.188
  0.348  0.016  0.000  0.188  0.448
    occupations:
  0.732  0.000  0.000  0.000  0.000
  0.000  0.580  0.000  0.037  0.155
  0.000  0.000  0.580  0.155 -0.037
  0.000  0.037  0.155  0.669  0.000
  0.000  0.155 -0.037  0.000  0.669
atomic mag. moment =     1.439756
atom    3   Tr[ns(na)] (up, down, total) =   1.91536  1.90118  3.81653
   spin  1
    eigenvalues: 
  0.357  0.357  0.387  0.407  0.407
    eigenvectors:
  0.000  0.000  1.000  0.000  0.000
  0.786  0.137  0.000  0.011  0.065
  0.137  0.786  0.000  0.065  0.011
  0.012  0.064  0.000  0.785  0.139
  0.064  0.012  0.000  0.139  0.785
    occupations:
  0.387  0.000  0.000  0.000  0.000
  0.000  0.361  0.000  0.000  0.013
  0.000  0.000  0.361  0.013  0.000
  0.000  0.000  0.013  0.403  0.000
  0.000  0.013  0.000  0.000  0.403
   spin  2
    eigenvalues: 
  0.353  0.353  0.387  0.404  0.404
    eigenvectors:
  0.000  0.000  1.000  0.000  0.000
  0.765  0.145  0.000  0.013  0.077
  0.145  0.765  0.000  0.077  0.013
  0.015  0.074  0.000  0.767  0.143
  0.074  0.015  0.000  0.143  0.767
    occupations:
  0.387  0.000  0.000  0.000  0.000
  0.000  0.358  0.000  0.000  0.015
  0.000  0.000  0.358  0.015  0.000
  0.000  0.000  0.015  0.399  0.000
  0.000  0.015  0.000  0.000  0.399
atomic mag. moment =     0.014180
atom    4   Tr[ns(na)] (up, down, total) =   1.91536  1.90118  3.81653
   spin  1
    eigenvalues: 
  0.357  0.357  0.387  0.407  0.407
    eigenvectors:
  0.000  0.000  1.000  0.000  0.000
  0.786  0.138  0.000  0.011  0.065
  0.138  0.786  0.000  0.065  0.011
  0.012  0.064  0.000  0.785  0.139
  0.064  0.012  0.000  0.139  0.785
    occupations:
  0.387  0.000  0.000  0.000  0.000
  0.000  0.361  0.000  0.000  0.013
  0.000  0.000  0.361  0.013  0.000
  0.000  0.000  0.013  0.403  0.000
  0.000  0.013  0.000  0.000  0.403
   spin  2
    eigenvalues: 
  0.353  0.353  0.387  0.404  0.404
    eigenvectors:
  0.000  0.000  1.000  0.000  0.000
  0.766  0.144  0.000  0.013  0.077
  0.144  0.766  0.000  0.077  0.013
  0.015  0.075  0.000  0.767  0.143
  0.075  0.015  0.000  0.143  0.767
    occupations:
  0.387  0.000  0.000  0.000  0.000
  0.000  0.358  0.000  0.000  0.015
  0.000  0.000  0.358  0.015  0.000
  0.000  0.000  0.015  0.399  0.000
  0.000  0.015  0.000  0.000  0.399
atomic mag. moment =     0.014180
atom    5   Tr[ns(na)] (up, down, total) =   2.74278  2.70412  5.44690
   spin  1
    eigenvalues: 
  0.844  0.947  0.951
    eigenvectors:
  0.337  0.000  0.663
  0.488  0.255  0.257
  0.175  0.745  0.080
    occupations:
  0.915  0.043  0.026
  0.043  0.898 -0.030
  0.026 -0.030  0.930
   spin  2
    eigenvalues: 
  0.864  0.920  0.920
    eigenvectors:
  0.333  0.020  0.647
  0.488  0.354  0.158
  0.178  0.626  0.196
    occupations:
  0.901  0.022  0.014
  0.022  0.893 -0.016
  0.014 -0.016  0.910
atomic mag. moment =     0.038661
atom    6   Tr[ns(na)] (up, down, total) =   2.74278  2.70412  5.44690
   spin  1
    eigenvalues: 
  0.844  0.947  0.951
    eigenvectors:
  0.337  0.000  0.663
  0.000  1.000  0.000
  0.663  0.000  0.337
    occupations:
  0.915  0.001 -0.050
  0.001  0.947  0.001
 -0.050  0.001  0.880
   spin  2
    eigenvalues: 
  0.864  0.920  0.920
    eigenvectors:
  0.333  0.020  0.647
  0.000  0.966  0.034
  0.666  0.014  0.319
    occupations:
  0.901  0.001 -0.026
  0.001  0.920  0.001
 -0.026  0.001  0.883
atomic mag. moment =     0.038661
atom    7   Tr[ns(na)] (up, down, total) =   2.74278  2.70412  5.44690
   spin  1
    eigenvalues: 
  0.844  0.947  0.951
    eigenvectors:
  0.337  0.000  0.663
  0.506  0.245  0.249
  0.157  0.755  0.088
    occupations:
  0.915 -0.044  0.025
 -0.044  0.896  0.028
  0.025  0.028  0.932
   spin  2
    eigenvalues: 
  0.864  0.920  0.920
    eigenvectors:
  0.333  0.020  0.647
  0.511  0.150  0.338
  0.155  0.830  0.015
    occupations:
  0.901 -0.023  0.013
 -0.023  0.892  0.016
  0.013  0.016  0.911
atomic mag. moment =     0.038661
atom    8   Tr[ns(na)] (up, down, total) =   2.74278  2.70412  5.44690
   spin  1
    eigenvalues: 
  0.844  0.947  0.951
    eigenvectors:
  0.337  0.000  0.663
  0.000  1.000  0.000
  0.663  0.000  0.337
    occupations:
  0.915  0.001 -0.050
  0.001  0.947  0.001
 -0.050  0.001  0.880
   spin  2
    eigenvalues: 
  0.864  0.920  0.920
    eigenvectors:
  0.333  0.020  0.647
  0.000  0.966  0.034
  0.666  0.014  0.319
    occupations:
  0.901  0.001 -0.026
  0.001  0.920  0.001
 -0.026  0.001  0.883
atomic mag. moment =     0.038661
atom    9   Tr[ns(na)] (up, down, total) =   2.74278  2.70412  5.44690
   spin  1
    eigenvalues: 
  0.844  0.947  0.951
    eigenvectors:
  0.337  0.000  0.663
  0.488  0.255  0.257
  0.175  0.745  0.080
    occupations:
  0.915  0.043  0.026
  0.043  0.898 -0.030
  0.026 -0.030  0.930
   spin  2
    eigenvalues: 
  0.864  0.920  0.920
    eigenvectors:
  0.333  0.020  0.647
  0.488  0.354  0.158
  0.178  0.626  0.196
    occupations:
  0.901  0.022  0.014
  0.022  0.893 -0.016
  0.014 -0.016  0.910
atomic mag. moment =     0.038661
atom   10   Tr[ns(na)] (up, down, total) =   2.74278  2.70412  5.44690
   spin  1
    eigenvalues: 
  0.844  0.947  0.951
    eigenvectors:
  0.337  0.000  0.663
  0.506  0.245  0.249
  0.157  0.755  0.088
    occupations:
  0.915 -0.044  0.025
 -0.044  0.896  0.028
  0.025  0.028  0.932
   spin  2
    eigenvalues: 
  0.864  0.920  0.920
    eigenvectors:
  0.333  0.020  0.647
  0.511  0.150  0.338
  0.155  0.830  0.015
    occupations:
  0.901 -0.023  0.013
 -0.023  0.892  0.016
  0.013  0.016  0.911
atomic mag. moment =     0.038661
N of occupied +U levels =  56.1318346
 --- exit write_ns ---
 --- in v_hubbard ---
Hubbard energy    0.0873
 -------

     total cpu time spent up to now is      132.3 secs

     total energy              =    -538.26792035 Ry
     Harris-Foulkes estimate   =    -538.26785742 Ry
     estimated scf accuracy    <       0.00002654 Ry

     total magnetization       =     3.57 Bohr mag/cell
     absolute magnetization    =     3.72 Bohr mag/cell

     iteration #  5     ecut=    30.00 Ry     beta=0.20
     Davidson diagonalization with overlap
     ethr =  3.49E-08,  avg # of iterations =  3.6
 --- enter write_ns ---
 LDA+U parameters:
U( 1)     =  0.00000000
alpha( 1) =  0.15000000
U( 2)     =  0.00000000
alpha( 2) =  0.00000000
U( 3)     =  0.00000000
alpha( 3) =  0.00000000
U( 4)     =  0.00000000
alpha( 4) =  0.00000000
atom    1   Tr[ns(na)] (up, down, total) =   4.57269  3.32895  7.90164
   spin  1
    eigenvalues: 
  0.788  0.788  0.999  0.999  0.999
    eigenvectors:
  0.000  0.000  0.000  0.000  1.000
  0.423  0.223  0.057  0.297  0.000
  0.223  0.423  0.297  0.057  0.000
  0.346  0.008  0.556  0.090  0.000
  0.008  0.346  0.090  0.556  0.000
    occupations:
  0.999  0.000  0.000  0.000  0.000
  0.000  0.863  0.000 -0.072  0.070
  0.000  0.000  0.863  0.070  0.072
  0.000 -0.072  0.070  0.924  0.000
  0.000  0.070  0.072  0.000  0.924
   spin  2
    eigenvalues: 
  0.469  0.469  0.761  0.815  0.815
    eigenvectors:
  0.000  0.000  1.000  0.000  0.000
  0.274  0.364  0.000  0.035  0.326
  0.364  0.274  0.000  0.326  0.035
  0.278  0.083  0.000  0.474  0.164
  0.083  0.278  0.000  0.164  0.474
    occupations:
  0.761  0.000  0.000  0.000  0.000
  0.000  0.594  0.000 -0.035  0.163
  0.000  0.000  0.594  0.163  0.035
  0.000 -0.035  0.163  0.690  0.000
  0.000  0.163  0.035  0.000  0.690
atomic mag. moment =     1.243745
atom    2   Tr[ns(na)] (up, down, total) =   4.66984  3.23907  7.90891
   spin  1
    eigenvalues: 
  0.836  0.836  0.999  0.999  0.999
    eigenvectors:
  0.000  0.000  0.000  0.000  1.000
  0.643  0.003  0.326  0.028  0.000
  0.003  0.643  0.028  0.326  0.000
  0.153  0.201  0.500  0.146  0.000
  0.201  0.153  0.146  0.500  0.000
    occupations:
  0.999  0.000  0.000  0.000  0.000
  0.000  0.894  0.000  0.055  0.055
  0.000  0.000  0.894  0.055 -0.055
  0.000  0.055  0.055  0.941  0.000
  0.000  0.055 -0.055  0.000  0.941
   spin  2
    eigenvalues: 
  0.459  0.459  0.736  0.793  0.793
    eigenvectors:
  0.000  0.000  1.000  0.000  0.000
  0.523  0.113  0.000  0.191  0.173
  0.113  0.523  0.000  0.173  0.191
  0.014  0.350  0.000  0.448  0.188
  0.350  0.014  0.000  0.188  0.448
    occupations:
  0.736  0.000  0.000  0.000  0.000
  0.000  0.580  0.000  0.037  0.156
  0.000  0.000  0.580  0.156 -0.037
  0.000  0.037  0.156  0.671  0.000
  0.000  0.156 -0.037  0.000  0.671
atomic mag. moment =     1.430768
atom    3   Tr[ns(na)] (up, down, total) =   1.91480  1.90064  3.81544
   spin  1
    eigenvalues: 
  0.357  0.357  0.387  0.407  0.407
    eigenvectors:
  0.000  0.000  1.000  0.000  0.000
  0.786  0.138  0.000  0.011  0.065
  0.138  0.786  0.000  0.065  0.011
  0.012  0.064  0.000  0.785  0.139
  0.064  0.012  0.000  0.139  0.785
    occupations:
  0.387  0.000  0.000  0.000  0.000
  0.000  0.361  0.000  0.000  0.013
  0.000  0.000  0.361  0.013  0.000
  0.000  0.000  0.013  0.403  0.000
  0.000  0.013  0.000  0.000  0.403
   spin  2
    eigenvalues: 
  0.353  0.353  0.387  0.404  0.404
    eigenvectors:
  0.000  0.000  1.000  0.000  0.000
  0.765  0.145  0.000  0.013  0.077
  0.145  0.765  0.000  0.077  0.013
  0.015  0.075  0.000  0.767  0.143
  0.075  0.015  0.000  0.143  0.767
    occupations:
  0.387  0.000  0.000  0.000  0.000
  0.000  0.358  0.000  0.000  0.015
  0.000  0.000  0.358  0.015  0.000
  0.000  0.000  0.015  0.399  0.000
  0.000  0.015  0.000  0.000  0.399
atomic mag. moment =     0.014156
atom    4   Tr[ns(na)] (up, down, total) =   1.91480  1.90064  3.81544
   spin  1
    eigenvalues: 
  0.357  0.357  0.387  0.407  0.407
    eigenvectors:
  0.000  0.000  1.000  0.000  0.000
  0.787  0.137  0.000  0.011  0.065
  0.137  0.787  0.000  0.065  0.011
  0.012  0.064  0.000  0.785  0.139
  0.064  0.012  0.000  0.139  0.785
    occupations:
  0.387  0.000  0.000  0.000  0.000
  0.000  0.361  0.000  0.000  0.013
  0.000  0.000  0.361  0.013  0.000
  0.000  0.000  0.013  0.403  0.000
  0.000  0.013  0.000  0.000  0.403
   spin  2
    eigenvalues: 
  0.353  0.353  0.387  0.404  0.404
    eigenvectors:
  0.000  0.000  1.000  0.000  0.000
  0.765  0.145  0.000  0.013  0.077
  0.145  0.765  0.000  0.077  0.013
  0.015  0.075  0.000  0.767  0.143
  0.075  0.015  0.000  0.143  0.767
    occupations:
  0.387  0.000  0.000  0.000  0.000
  0.000  0.358  0.000  0.000  0.015
  0.000  0.000  0.358  0.015  0.000
  0.000  0.000  0.015  0.399  0.000
  0.000  0.015  0.000  0.000  0.399
atomic mag. moment =     0.014156
atom    5   Tr[ns(na)] (up, down, total) =   2.74332  2.70480  5.44812
   spin  1
    eigenvalues: 
  0.845  0.947  0.951
    eigenvectors:
  0.337  0.000  0.663
  0.488  0.255  0.256
  0.175  0.745  0.081
    occupations:
  0.915  0.043  0.026
  0.043  0.898 -0.029
  0.026 -0.029  0.930
   spin  2
    eigenvalues: 
  0.865  0.920  0.920
    eigenvectors:
  0.333  0.020  0.647
  0.490  0.351  0.159
  0.177  0.630  0.194
    occupations:
  0.902  0.022  0.013
  0.022  0.893 -0.016
  0.013 -0.016  0.910
atomic mag. moment =     0.038525
atom    6   Tr[ns(na)] (up, down, total) =   2.74332  2.70480  5.44812
   spin  1
    eigenvalues: 
  0.845  0.947  0.951
    eigenvectors:
  0.337  0.000  0.663
  0.000  1.000  0.000
  0.663  0.000  0.337
    occupations:
  0.915  0.001 -0.050
  0.001  0.947  0.001
 -0.050  0.001  0.881
   spin  2
    eigenvalues: 
  0.865  0.920  0.920
    eigenvectors:
  0.333  0.020  0.647
  0.000  0.967  0.033
  0.667  0.013  0.320
    occupations:
  0.902  0.000 -0.026
  0.000  0.920  0.001
 -0.026  0.001  0.883
atomic mag. moment =     0.038525
atom    7   Tr[ns(na)] (up, down, total) =   2.74332  2.70480  5.44812
   spin  1
    eigenvalues: 
  0.845  0.947  0.951
    eigenvectors:
  0.337  0.000  0.663
  0.506  0.245  0.249
  0.157  0.755  0.088
    occupations:
  0.915 -0.044  0.025
 -0.044  0.896  0.028
  0.025  0.028  0.932
   spin  2
    eigenvalues: 
  0.865  0.920  0.920
    eigenvectors:
  0.333  0.020  0.647
  0.510  0.153  0.337
  0.157  0.827  0.016
    occupations:
  0.902 -0.023  0.013
 -0.023  0.892  0.016
  0.013  0.016  0.911
atomic mag. moment =     0.038525
atom    8   Tr[ns(na)] (up, down, total) =   2.74332  2.70480  5.44812
   spin  1
    eigenvalues: 
  0.845  0.947  0.951
    eigenvectors:
  0.337  0.000  0.663
  0.000  1.000  0.000
  0.663  0.000  0.337
    occupations:
  0.915  0.001 -0.050
  0.001  0.947  0.001
 -0.050  0.001  0.881
   spin  2
    eigenvalues: 
  0.865  0.920  0.920
    eigenvectors:
  0.333  0.020  0.647
  0.000  0.967  0.033
  0.667  0.013  0.320
    occupations:
  0.902  0.000 -0.026
  0.000  0.920  0.001
 -0.026  0.001  0.883
atomic mag. moment =     0.038525
atom    9   Tr[ns(na)] (up, down, total) =   2.74332  2.70480  5.44812
   spin  1
    eigenvalues: 
  0.845  0.947  0.951
    eigenvectors:
  0.337  0.000  0.663
  0.488  0.255  0.256
  0.175  0.745  0.081
    occupations:
  0.915  0.043  0.026
  0.043  0.898 -0.029
  0.026 -0.029  0.930
   spin  2
    eigenvalues: 
  0.865  0.920  0.920
    eigenvectors:
  0.333  0.020  0.647
  0.490  0.351  0.159
  0.177  0.630  0.194
    occupations:
  0.902  0.022  0.013
  0.022  0.893 -0.016
  0.013 -0.016  0.910
atomic mag. moment =     0.038525
atom   10   Tr[ns(na)] (up, down, total) =   2.74332  2.70480  5.44812
   spin  1
    eigenvalues: 
  0.845  0.947  0.951
    eigenvectors:
  0.337  0.000  0.663
  0.506  0.245  0.249
  0.157  0.755  0.088
    occupations:
  0.915 -0.044  0.025
 -0.044  0.896  0.028
  0.025  0.028  0.932
   spin  2
    eigenvalues: 
  0.865  0.920  0.920
    eigenvectors:
  0.333  0.020  0.647
  0.510  0.153  0.337
  0.157  0.827  0.016
    occupations:
  0.902 -0.023  0.013
 -0.023  0.892  0.016
  0.013  0.016  0.911
atomic mag. moment =     0.038525
N of occupied +U levels =  56.1301358
 --- exit write_ns ---
 --- in v_hubbard ---
Hubbard energy    0.0873
 -------

     total cpu time spent up to now is      160.7 secs

     total energy              =    -538.26798301 Ry
     Harris-Foulkes estimate   =    -538.26793798 Ry
     estimated scf accuracy    <       0.00031353 Ry

     total magnetization       =     3.58 Bohr mag/cell
     absolute magnetization    =     3.73 Bohr mag/cell

     iteration #  6     ecut=    30.00 Ry     beta=0.20
     Davidson diagonalization with overlap
     ethr =  3.49E-08,  avg # of iterations =  1.0
 --- enter write_ns ---
 LDA+U parameters:
U( 1)     =  0.00000000
alpha( 1) =  0.15000000
U( 2)     =  0.00000000
alpha( 2) =  0.00000000
U( 3)     =  0.00000000
alpha( 3) =  0.00000000
U( 4)     =  0.00000000
alpha( 4) =  0.00000000
atom    1   Tr[ns(na)] (up, down, total) =   4.57532  3.32733  7.90265
   spin  1
    eigenvalues: 
  0.790  0.790  0.999  0.999  0.999
    eigenvectors:
  0.000  0.000  0.000  0.000  1.000
  0.423  0.223  0.057  0.297  0.000
  0.223  0.423  0.297  0.057  0.000
  0.346  0.008  0.556  0.090  0.000
  0.008  0.346  0.090  0.556  0.000
    occupations:
  0.999  0.000  0.000  0.000  0.000
  0.000  0.864  0.000 -0.071  0.070
  0.000  0.000  0.864  0.070  0.071
  0.000 -0.071  0.070  0.925  0.000
  0.000  0.070  0.071  0.000  0.925
   spin  2
    eigenvalues: 
  0.469  0.469  0.760  0.815  0.815
    eigenvectors:
  0.000  0.000  1.000  0.000  0.000
  0.274  0.364  0.000  0.035  0.327
  0.364  0.274  0.000  0.327  0.035
  0.279  0.083  0.000  0.474  0.164
  0.083  0.279  0.000  0.164  0.474
    occupations:
  0.760  0.000  0.000  0.000  0.000
  0.000  0.594  0.000 -0.035  0.162
  0.000  0.000  0.594  0.162  0.035
  0.000 -0.035  0.162  0.690  0.000
  0.000  0.162  0.035  0.000  0.690
atomic mag. moment =     1.247989
atom    2   Tr[ns(na)] (up, down, total) =   4.66854  3.23952  7.90806
   spin  1
    eigenvalues: 
  0.836  0.836  0.999  0.999  0.999
    eigenvectors:
  0.000  0.000  0.000  0.000  1.000
  0.643  0.003  0.326  0.028  0.000
  0.003  0.643  0.028  0.326  0.000
  0.153  0.201  0.500  0.147  0.000
  0.201  0.153  0.147  0.500  0.000
    occupations:
  0.999  0.000  0.000  0.000  0.000
  0.000  0.894  0.000  0.055  0.055
  0.000  0.000  0.894  0.055 -0.055
  0.000  0.055  0.055  0.941  0.000
  0.000  0.055 -0.055  0.000  0.941
   spin  2
    eigenvalues: 
  0.459  0.459  0.736  0.793  0.793
    eigenvectors:
  0.000  0.000  1.000  0.000  0.000
  0.523  0.113  0.000  0.191  0.173
  0.113  0.523  0.000  0.173  0.191
  0.014  0.350  0.000  0.448  0.188
  0.350  0.014  0.000  0.188  0.448
    occupations:
  0.736  0.000  0.000  0.000  0.000
  0.000  0.580  0.000  0.037  0.156
  0.000  0.000  0.580  0.156 -0.037
  0.000  0.037  0.156  0.671  0.000
  0.000  0.156 -0.037  0.000  0.671
atomic mag. moment =     1.429019
atom    3   Tr[ns(na)] (up, down, total) =   1.91477  1.90059  3.81536
   spin  1
    eigenvalues: 
  0.357  0.357  0.387  0.407  0.407
    eigenvectors:
  0.000  0.000  1.000  0.000  0.000
  0.786  0.138  0.000  0.011  0.065
  0.138  0.786  0.000  0.065  0.011
  0.012  0.064  0.000  0.785  0.139
  0.064  0.012  0.000  0.139  0.785
    occupations:
  0.387  0.000  0.000  0.000  0.000
  0.000  0.361  0.000  0.000  0.013
  0.000  0.000  0.361  0.013  0.000
  0.000  0.000  0.013  0.403  0.000
  0.000  0.013  0.000  0.000  0.403
   spin  2
    eigenvalues: 
  0.353  0.353  0.387  0.404  0.404
    eigenvectors:
  0.000  0.000  1.000  0.000  0.000
  0.766  0.144  0.000  0.013  0.077
  0.144  0.766  0.000  0.077  0.013
  0.015  0.075  0.000  0.767  0.143
  0.075  0.015  0.000  0.143  0.767
    occupations:
  0.387  0.000  0.000  0.000  0.000
  0.000  0.358  0.000  0.000  0.015
  0.000  0.000  0.358  0.015  0.000
  0.000  0.000  0.015  0.399  0.000
  0.000  0.015  0.000  0.000  0.399
atomic mag. moment =     0.014184
atom    4   Tr[ns(na)] (up, down, total) =   1.91477  1.90059  3.81536
   spin  1
    eigenvalues: 
  0.357  0.357  0.387  0.407  0.407
    eigenvectors:
  0.000  0.000  1.000  0.000  0.000
  0.786  0.138  0.000  0.011  0.065
  0.138  0.786  0.000  0.065  0.011
  0.012  0.064  0.000  0.785  0.139
  0.064  0.012  0.000  0.139  0.785
    occupations:
  0.387  0.000  0.000  0.000  0.000
  0.000  0.361  0.000  0.000  0.013
  0.000  0.000  0.361  0.013  0.000
  0.000  0.000  0.013  0.403  0.000
  0.000  0.013  0.000  0.000  0.403
   spin  2
    eigenvalues: 
  0.353  0.353  0.387  0.404  0.404
    eigenvectors:
  0.000  0.000  1.000  0.000  0.000
  0.766  0.144  0.000  0.013  0.077
  0.144  0.766  0.000  0.077  0.013
  0.015  0.075  0.000  0.767  0.143
  0.075  0.015  0.000  0.143  0.767
    occupations:
  0.387  0.000  0.000  0.000  0.000
  0.000  0.358  0.000  0.000  0.015
  0.000  0.000  0.358  0.015  0.000
  0.000  0.000  0.015  0.399  0.000
  0.000  0.015  0.000  0.000  0.399
atomic mag. moment =     0.014184
atom    5   Tr[ns(na)] (up, down, total) =   2.74328  2.70480  5.44807
   spin  1
    eigenvalues: 
  0.845  0.947  0.951
    eigenvectors:
  0.337  0.000  0.663
  0.489  0.255  0.256
  0.174  0.745  0.081
    occupations:
  0.915  0.043  0.026
  0.043  0.898 -0.029
  0.026 -0.029  0.930
   spin  2
    eigenvalues: 
  0.865  0.920  0.920
    eigenvectors:
  0.333  0.022  0.644
  0.490  0.356  0.154
  0.176  0.622  0.202
    occupations:
  0.902  0.022  0.013
  0.022  0.893 -0.016
  0.013 -0.016  0.910
atomic mag. moment =     0.038478
atom    6   Tr[ns(na)] (up, down, total) =   2.74328  2.70480  5.44807
   spin  1
    eigenvalues: 
  0.845  0.947  0.951
    eigenvectors:
  0.337  0.000  0.663
  0.000  1.000  0.000
  0.663  0.000  0.337
    occupations:
  0.915  0.001 -0.050
  0.001  0.947  0.001
 -0.050  0.001  0.881
   spin  2
    eigenvalues: 
  0.865  0.920  0.920
    eigenvectors:
  0.333  0.022  0.644
  0.000  0.963  0.037
  0.667  0.015  0.318
    occupations:
  0.902  0.000 -0.026
  0.000  0.920  0.001
 -0.026  0.001  0.883
atomic mag. moment =     0.038478
atom    7   Tr[ns(na)] (up, down, total) =   2.74328  2.70480  5.44807
   spin  1
    eigenvalues: 
  0.845  0.947  0.951
    eigenvectors:
  0.337  0.000  0.663
  0.506  0.245  0.249
  0.157  0.755  0.088
    occupations:
  0.915 -0.044  0.025
 -0.044  0.896  0.028
  0.025  0.028  0.932
   spin  2
    eigenvalues: 
  0.865  0.920  0.920
    eigenvectors:
  0.333  0.022  0.644
  0.510  0.148  0.342
  0.157  0.830  0.013
    occupations:
  0.902 -0.023  0.013
 -0.023  0.892  0.016
  0.013  0.016  0.911
atomic mag. moment =     0.038478
atom    8   Tr[ns(na)] (up, down, total) =   2.74328  2.70480  5.44807
   spin  1
    eigenvalues: 
  0.845  0.947  0.951
    eigenvectors:
  0.337  0.000  0.663
  0.000  1.000  0.000
  0.663  0.000  0.337
    occupations:
  0.915  0.001 -0.050
  0.001  0.947  0.001
 -0.050  0.001  0.881
   spin  2
    eigenvalues: 
  0.865  0.920  0.920
    eigenvectors:
  0.333  0.022  0.644
  0.000  0.963  0.037
  0.667  0.015  0.318
    occupations:
  0.902  0.000 -0.026
  0.000  0.920  0.001
 -0.026  0.001  0.883
atomic mag. moment =     0.038478
atom    9   Tr[ns(na)] (up, down, total) =   2.74328  2.70480  5.44807
   spin  1
    eigenvalues: 
  0.845  0.947  0.951
    eigenvectors:
  0.337  0.000  0.663
  0.489  0.255  0.256
  0.174  0.745  0.081
    occupations:
  0.915  0.043  0.026
  0.043  0.898 -0.029
  0.026 -0.029  0.930
   spin  2
    eigenvalues: 
  0.865  0.920  0.920
    eigenvectors:
  0.333  0.022  0.644
  0.490  0.356  0.154
  0.176  0.622  0.202
    occupations:
  0.902  0.022  0.013
  0.022  0.893 -0.016
  0.013 -0.016  0.910
atomic mag. moment =     0.038478
atom   10   Tr[ns(na)] (up, down, total) =   2.74328  2.70480  5.44807
   spin  1
    eigenvalues: 
  0.845  0.947  0.951
    eigenvectors:
  0.337  0.000  0.663
  0.506  0.245  0.249
  0.157  0.755  0.088
    occupations:
  0.915 -0.044  0.025
 -0.044  0.896  0.028
  0.025  0.028  0.932
   spin  2
    eigenvalues: 
  0.865  0.920  0.920
    eigenvectors:
  0.333  0.022  0.644
  0.510  0.148  0.342
  0.157  0.830  0.013
    occupations:
  0.902 -0.023  0.013
 -0.023  0.892  0.016
  0.013  0.016  0.911
atomic mag. moment =     0.038478
N of occupied +U levels =  56.1298744
 --- exit write_ns ---
 --- in v_hubbard ---
Hubbard energy    0.0872
 -------

     total cpu time spent up to now is      181.9 secs

     total energy              =    -538.26801389 Ry
     Harris-Foulkes estimate   =    -538.26798456 Ry
     estimated scf accuracy    <       0.00023950 Ry

     total magnetization       =     3.58 Bohr mag/cell
     absolute magnetization    =     3.73 Bohr mag/cell

     iteration #  7     ecut=    30.00 Ry     beta=0.20
     Davidson diagonalization with overlap
     ethr =  3.49E-08,  avg # of iterations =  1.4
 --- enter write_ns ---
 LDA+U parameters:
U( 1)     =  0.00000000
alpha( 1) =  0.15000000
U( 2)     =  0.00000000
alpha( 2) =  0.00000000
U( 3)     =  0.00000000
alpha( 3) =  0.00000000
U( 4)     =  0.00000000
alpha( 4) =  0.00000000
atom    1   Tr[ns(na)] (up, down, total) =   4.57943  3.32375  7.90319
   spin  1
    eigenvalues: 
  0.792  0.792  0.999  0.999  0.999
    eigenvectors:
  0.000  0.000  0.000  0.000  1.000
  0.423  0.223  0.057  0.297  0.000
  0.223  0.423  0.297  0.057  0.000
  0.346  0.008  0.556  0.090  0.000
  0.008  0.346  0.090  0.556  0.000
    occupations:
  0.999  0.000  0.000  0.000  0.000
  0.000  0.865  0.000 -0.071  0.069
  0.000  0.000  0.865  0.069  0.071
  0.000 -0.071  0.069  0.925  0.000
  0.000  0.069  0.071  0.000  0.925
   spin  2
    eigenvalues: 
  0.468  0.468  0.759  0.814  0.814
    eigenvectors:
  0.000  0.000  1.000  0.000  0.000
  0.274  0.365  0.000  0.035  0.327
  0.365  0.274  0.000  0.327  0.035
  0.279  0.083  0.000  0.474  0.164
  0.083  0.279  0.000  0.164  0.474
    occupations:
  0.759  0.000  0.000  0.000  0.000
  0.000  0.593  0.000 -0.035  0.162
  0.000  0.000  0.593  0.162  0.035
  0.000 -0.035  0.162  0.689  0.000
  0.000  0.162  0.035  0.000  0.689
atomic mag. moment =     1.255679
atom    2   Tr[ns(na)] (up, down, total) =   4.66643  3.24140  7.90782
   spin  1
    eigenvalues: 
  0.835  0.835  0.999  0.999  0.999
    eigenvectors:
  0.000  0.000  0.000  0.000  1.000
  0.643  0.003  0.326  0.028  0.000
  0.003  0.643  0.028  0.326  0.000
  0.153  0.201  0.500  0.146  0.000
  0.201  0.153  0.146  0.500  0.000
    occupations:
  0.999  0.000  0.000  0.000  0.000
  0.000  0.893  0.000  0.056  0.055
  0.000  0.000  0.893  0.055 -0.056
  0.000  0.056  0.055  0.941  0.000
  0.000  0.055 -0.056  0.000  0.941
   spin  2
    eigenvalues: 
  0.459  0.459  0.737  0.793  0.793
    eigenvectors:
  0.000  0.000  1.000  0.000  0.000
  0.525  0.112  0.000  0.191  0.173
  0.112  0.525  0.000  0.173  0.191
  0.014  0.350  0.000  0.448  0.188
  0.350  0.014  0.000  0.188  0.448
    occupations:
  0.737  0.000  0.000  0.000  0.000
  0.000  0.581  0.000  0.038  0.157
  0.000  0.000  0.581  0.157 -0.038
  0.000  0.038  0.157  0.672  0.000
  0.000  0.157 -0.038  0.000  0.672
atomic mag. moment =     1.425032
atom    3   Tr[ns(na)] (up, down, total) =   1.91482  1.90059  3.81540
   spin  1
    eigenvalues: 
  0.357  0.357  0.387  0.407  0.407
    eigenvectors:
  0.000  0.000  1.000  0.000  0.000
  0.786  0.138  0.000  0.011  0.065
  0.138  0.786  0.000  0.065  0.011
  0.012  0.064  0.000  0.785  0.139
  0.064  0.012  0.000  0.139  0.785
    occupations:
  0.387  0.000  0.000  0.000  0.000
  0.000  0.361  0.000  0.000  0.013
  0.000  0.000  0.361  0.013  0.000
  0.000  0.000  0.013  0.403  0.000
  0.000  0.013  0.000  0.000  0.403
   spin  2
    eigenvalues: 
  0.353  0.353  0.387  0.404  0.404
    eigenvectors:
  0.000  0.000  1.000  0.000  0.000
  0.765  0.145  0.000  0.013  0.077
  0.145  0.765  0.000  0.077  0.013
  0.015  0.075  0.000  0.767  0.143
  0.075  0.015  0.000  0.143  0.767
    occupations:
  0.387  0.000  0.000  0.000  0.000
  0.000  0.358  0.000  0.000  0.015
  0.000  0.000  0.358  0.015  0.000
  0.000  0.000  0.015  0.399  0.000
  0.000  0.015  0.000  0.000  0.399
atomic mag. moment =     0.014227
atom    4   Tr[ns(na)] (up, down, total) =   1.91482  1.90059  3.81540
   spin  1
    eigenvalues: 
  0.357  0.357  0.387  0.407  0.407
    eigenvectors:
  0.000  0.000  1.000  0.000  0.000
  0.786  0.138  0.000  0.011  0.065
  0.138  0.786  0.000  0.065  0.011
  0.012  0.064  0.000  0.784  0.139
  0.064  0.012  0.000  0.139  0.784
    occupations:
  0.387  0.000  0.000  0.000  0.000
  0.000  0.361  0.000  0.000  0.013
  0.000  0.000  0.361  0.013  0.000
  0.000  0.000  0.013  0.403  0.000
  0.000  0.013  0.000  0.000  0.403
   spin  2
    eigenvalues: 
  0.353  0.353  0.387  0.404  0.404
    eigenvectors:
  0.000  0.000  1.000  0.000  0.000
  0.766  0.144  0.000  0.013  0.077
  0.144  0.766  0.000  0.077  0.013
  0.015  0.075  0.000  0.767  0.143
  0.075  0.015  0.000  0.143  0.767
    occupations:
  0.387  0.000  0.000  0.000  0.000
  0.000  0.358  0.000  0.000  0.015
  0.000  0.000  0.358  0.015  0.000
  0.000  0.000  0.015  0.399  0.000
  0.000  0.015  0.000  0.000  0.399
atomic mag. moment =     0.014227
atom    5   Tr[ns(na)] (up, down, total) =   2.74318  2.70478  5.44796
   spin  1
    eigenvalues: 
  0.845  0.947  0.951
    eigenvectors:
  0.337  0.000  0.663
  0.489  0.255  0.256
  0.174  0.745  0.081
    occupations:
  0.915  0.043  0.026
  0.043  0.898 -0.029
  0.026 -0.029  0.930
   spin  2
    eigenvalues: 
  0.865  0.920  0.920
    eigenvectors:
  0.333  0.031  0.636
  0.491  0.370  0.139
  0.176  0.600  0.224
    occupations:
  0.902  0.022  0.013
  0.022  0.893 -0.016
  0.013 -0.016  0.910
atomic mag. moment =     0.038397
atom    6   Tr[ns(na)] (up, down, total) =   2.74318  2.70478  5.44796
   spin  1
    eigenvalues: 
  0.845  0.947  0.951
    eigenvectors:
  0.337  0.000  0.663
  0.000  1.000  0.000
  0.663  0.000  0.337
    occupations:
  0.915  0.001 -0.050
  0.001  0.947  0.001
 -0.050  0.001  0.881
   spin  2
    eigenvalues: 
  0.865  0.920  0.920
    eigenvectors:
  0.333  0.031  0.636
  0.000  0.950  0.050
  0.667  0.019  0.314
    occupations:
  0.902  0.000 -0.026
  0.000  0.920  0.001
 -0.026  0.001  0.883
atomic mag. moment =     0.038397
atom    7   Tr[ns(na)] (up, down, total) =   2.74318  2.70478  5.44796
   spin  1
    eigenvalues: 
  0.845  0.947  0.951
    eigenvectors:
  0.337  0.000  0.663
  0.505  0.245  0.250
  0.158  0.755  0.088
    occupations:
  0.915 -0.044  0.025
 -0.044  0.896  0.028
[...]
     0.0937   0.0937   0.0937   0.0937   0.0937   0.0937   0.0937   0.0879
     0.0098   0.0000   0.0000   0.0000   0.0000   0.0000

          k = 0.4942-0.5706-0.2053 (  2206 PWs)   bands (ev):

   -19.6636 -19.6636  -6.8567  -6.8365  -6.0004  -5.9994  -5.3810  -5.3749
    -3.1102  -3.1093  -2.7677  -2.7663  -2.3426  -2.3392   5.9474   5.9482
     6.8393   6.8443   6.9232   6.9264   7.3720   7.3731   7.9316   7.9578
     8.7701   8.7727   8.8954   8.8998   9.4968   9.5007   9.9932   9.9972
    10.6802  10.6962  10.8132  10.8264  11.0817  11.0983  11.4427  11.4529
    13.3044  13.3062  17.4412  17.4421  17.8894  17.8922

     occupation numbers 
     0.0938   0.0938   0.0938   0.0938   0.0938   0.0938   0.0938   0.0938
     0.0938   0.0938   0.0938   0.0938   0.0938   0.0938   0.0938   0.0938
     0.0938   0.0938   0.0938   0.0938   0.0938   0.0938   0.0938   0.0938
     0.0938   0.0938   0.0938   0.0938   0.0938   0.0938   0.0937   0.0937
     0.0937   0.0937   0.0937   0.0937   0.0937   0.0937   0.0936   0.0936
     0.0000   0.0000   0.0000   0.0000   0.0000   0.0000

          k = 0.0000 0.0000-0.6160 (  2186 PWs)   bands (ev):

   -19.6663 -19.6651  -6.4872  -6.4684  -5.9011  -5.9011  -5.8847  -5.8847
    -2.8420  -2.8420  -2.8406  -2.8406  -2.6702  -2.6699   6.2916   6.2973
     6.9595   6.9595   6.9718   6.9718   7.6946   7.7159   7.8830   7.8830
     7.9010   7.9010   9.5707   9.5707   9.5775   9.5775   9.6942   9.7038
    10.7609  10.8069  10.9257  10.9257  10.9631  10.9631  12.5098  12.5098
    12.5236  12.5236  17.1270  17.1270  17.1308  17.1308

     occupation numbers 
     0.0156   0.0156   0.0156   0.0156   0.0156   0.0156   0.0156   0.0156
     0.0156   0.0156   0.0156   0.0156   0.0156   0.0156   0.0156   0.0156
     0.0156   0.0156   0.0156   0.0156   0.0156   0.0156   0.0156   0.0156
     0.0156   0.0156   0.0156   0.0156   0.0156   0.0156   0.0156   0.0156
     0.0156   0.0156   0.0156   0.0156   0.0156   0.0156   0.0039   0.0039
     0.0036   0.0036   0.0000   0.0000   0.0000   0.0000

          k = 0.4942-0.5706 0.1027 (  2198 PWs)   bands (ev):

   -19.6855 -19.6441  -6.9227  -6.6106  -6.0940  -5.8548  -5.4672  -5.3298
    -3.2572  -3.2098  -2.8323  -2.6628  -2.4837  -2.3424   5.8275   6.1476
     6.6458   6.7505   7.0975   7.2646   7.4153   7.6363   7.7220   7.9005
     8.1773   8.7535   9.0059   9.2232   9.5167   9.7553   9.8684  10.2966
    10.4147  10.8010  10.9036  10.9474  11.0710  11.1647  11.5073  11.9120
    12.6807  13.6865  16.9268  17.1243  17.3285  18.0341

     occupation numbers 
     0.0938   0.0938   0.0938   0.0938   0.0938   0.0938   0.0938   0.0938
     0.0938   0.0938   0.0938   0.0938   0.0938   0.0938   0.0938   0.0938
     0.0938   0.0938   0.0938   0.0938   0.0938   0.0938   0.0938   0.0938
     0.0938   0.0938   0.0938   0.0938   0.0938   0.0938   0.0938   0.0937
     0.0937   0.0937   0.0937   0.0937   0.0937   0.0937   0.0935   0.0860
     0.0095   0.0000   0.0000   0.0000   0.0000   0.0000

 ------ SPIN DOWN ----------


          k = 0.0000 0.0000 0.0000 (  2175 PWs)   bands (ev):

   -19.7530 -19.5799  -6.4340  -5.7108  -5.7108  -5.6863  -5.6863  -5.3596
    -3.7078  -3.2238  -3.1101  -3.1101  -2.9672  -2.9672   5.2426   7.2931
     7.2931   7.5843   7.5843   7.7780   8.0522   8.0522   8.0954   9.4412
     9.7511   9.7511  10.0723  10.1238  10.1238  10.5960  10.5960  10.7922
    11.2415  11.2415  11.3263  12.1728  12.1728  12.7008  13.0287  13.0287
    15.3675  15.3675  15.5060  15.5060  16.2240  16.8282

     occupation numbers 
     0.0156   0.0156   0.0156   0.0156   0.0156   0.0156   0.0156   0.0156
     0.0156   0.0156   0.0156   0.0156   0.0156   0.0156   0.0156   0.0156
     0.0156   0.0156   0.0156   0.0156   0.0156   0.0156   0.0156   0.0156
     0.0156   0.0156   0.0156   0.0156   0.0156   0.0156   0.0156   0.0156
     0.0156   0.0156   0.0156   0.0107   0.0107   0.0014   0.0001   0.0001
     0.0000   0.0000   0.0000   0.0000   0.0000   0.0000

          k =-0.2471-0.1427 0.1027 (  2181 PWs)   bands (ev):

   -19.7250 -19.6023  -6.6201  -6.1804  -5.8112  -5.7203  -5.4782  -5.3408
    -3.5245  -3.3322  -2.8535  -2.8341  -2.7659  -2.6945   5.6097   6.9529
     7.3555   7.3763   7.4788   7.6868   7.6977   8.0511   8.0713   8.8252
     8.8909   9.5308   9.8069  10.0097  10.0690  10.1931  10.5407  10.5521
    11.5646  11.6094  11.6595  12.3502  12.3892  12.5168  13.1798  13.2268
    14.9346  14.9474  15.8963  16.1372  17.0172  17.3204

     occupation numbers 
     0.0938   0.0938   0.0938   0.0938   0.0938   0.0938   0.0938   0.0938
     0.0938   0.0938   0.0938   0.0938   0.0938   0.0938   0.0938   0.0938
     0.0938   0.0938   0.0938   0.0938   0.0938   0.0938   0.0938   0.0938
     0.0938   0.0938   0.0938   0.0937   0.0937   0.0937   0.0937   0.0937
     0.0933   0.0931   0.0926   0.0420   0.0371   0.0225   0.0001   0.0001
     0.0000   0.0000   0.0000   0.0000   0.0000   0.0000

          k = 0.4942 0.2853-0.2053 (  2202 PWs)   bands (ev):

   -19.6615 -19.6603  -6.6255  -6.6106  -5.8415  -5.8257  -5.3909  -5.3732
    -3.3205  -3.3199  -2.7108  -2.7095  -2.4428  -2.4405   6.1653   6.1672
     7.4392   7.4507   7.5197   7.5296   7.8749   7.8815   8.1765   8.1780
     8.4367   8.4422   9.7265   9.7366  10.0313  10.0404  10.4501  10.4628
    11.9789  11.9987  12.0728  12.0920  12.2177  12.2360  14.0014  14.0277
    14.0705  14.0975  16.8964  16.9013  17.1919  17.1972

     occupation numbers 
     0.0469   0.0469   0.0469   0.0469   0.0469   0.0469   0.0469   0.0469
     0.0469   0.0469   0.0469   0.0469   0.0469   0.0469   0.0469   0.0469
     0.0469   0.0469   0.0469   0.0469   0.0469   0.0469   0.0469   0.0469
     0.0469   0.0469   0.0469   0.0469   0.0469   0.0469   0.0469   0.0469
     0.0411   0.0404   0.0374   0.0365   0.0295   0.0284   0.0000   0.0000
     0.0000   0.0000   0.0000   0.0000   0.0000   0.0000

          k =-0.2471 0.1427 0.2053 (  2195 PWs)   bands (ev):

   -19.7204 -19.6046  -6.7447  -6.1191  -5.9530  -5.7010  -5.5268  -5.3067
    -3.3497  -3.2128  -3.0281  -2.8144  -2.7334  -2.4875   5.6634   6.9952
     7.2898   7.3139   7.3921   7.5629   7.6686   8.0822   8.1052   8.8429
     9.1202   9.1223   9.4758   9.9686  10.1339  10.2658  10.3428  10.4667
    11.2624  11.8773  11.9853  12.0528  12.4058  12.5251  12.9539  13.5186
    14.3128  15.4060  16.0484  16.2576  17.0868  17.5847

     occupation numbers 
     0.0938   0.0938   0.0938   0.0938   0.0938   0.0938   0.0938   0.0938
     0.0938   0.0938   0.0938   0.0938   0.0938   0.0938   0.0938   0.0938
     0.0938   0.0938   0.0938   0.0938   0.0938   0.0938   0.0938   0.0938
     0.0938   0.0938   0.0938   0.0937   0.0937   0.0937   0.0937   0.0937
     0.0937   0.0876   0.0817   0.0765   0.0350   0.0217   0.0012   0.0000
     0.0000   0.0000   0.0000   0.0000   0.0000   0.0000

          k = 0.4942 0.5706-0.1027 (  2198 PWs)   bands (ev):

   -19.6801 -19.6390  -6.8489  -6.5420  -6.0185  -5.7724  -5.3698  -5.2287
    -3.2493  -3.1997  -2.8080  -2.6354  -2.4532  -2.3112   6.0263   6.4161
     7.0603   7.3351   7.4228   7.4710   7.7392   8.0174   8.1364   8.2966
     8.5565   9.0932   9.3498   9.5271   9.8664   9.9807  10.1412  10.5271
    11.6351  12.0375  12.1066  12.2085  12.3452  12.3509  13.1669  13.5273
    14.1350  15.0018  16.9641  17.1863  17.3736  18.0760

     occupation numbers 
     0.0938   0.0938   0.0938   0.0938   0.0938   0.0938   0.0938   0.0938
     0.0938   0.0938   0.0938   0.0938   0.0938   0.0938   0.0938   0.0938
     0.0938   0.0938   0.0938   0.0938   0.0938   0.0938   0.0938   0.0938
     0.0938   0.0938   0.0938   0.0938   0.0938   0.0937   0.0937   0.0937
     0.0929   0.0778   0.0715   0.0601   0.0427   0.0419   0.0001   0.0000
     0.0000   0.0000   0.0000   0.0000   0.0000   0.0000

          k = 0.2471 0.4280 0.0000 (  2203 PWs)   bands (ev):

   -19.6897 -19.6317  -6.7423  -6.5298  -5.9411  -5.8570  -5.2939  -5.2148
    -3.4545  -3.2440  -2.7308  -2.6385  -2.4968  -2.4799   5.9808   6.4301
     7.2786   7.4218   7.4618   7.5264   7.5831   7.9295   8.0424   8.4015
     8.6562   9.1160   9.5739   9.6946   9.9524   9.9570  10.2207  10.5413
    11.8956  11.9091  11.9772  12.1695  12.1770  12.4547  13.1345  14.0213
    14.0874  14.8087  16.5057  17.0557  17.4718  17.9767

     occupation numbers 
     0.0938   0.0938   0.0938   0.0938   0.0938   0.0938   0.0938   0.0938
     0.0938   0.0938   0.0938   0.0938   0.0938   0.0938   0.0938   0.0938
     0.0938   0.0938   0.0938   0.0938   0.0938   0.0938   0.0938   0.0938
     0.0938   0.0938   0.0938   0.0938   0.0937   0.0937   0.0937   0.0937
     0.0868   0.0862   0.0823   0.0647   0.0638   0.0292   0.0002   0.0000
     0.0000   0.0000   0.0000   0.0000   0.0000   0.0000

          k = 0.4942-0.2853-0.4107 (  2202 PWs)   bands (ev):

   -19.6873 -19.6290  -7.0580  -6.3563  -6.1396  -5.8255  -5.4077  -5.1236
    -3.1404  -3.0796  -2.9783  -2.5789  -2.4028  -2.1480   5.9511   6.5341
     6.6395   7.2223   7.2822   7.3273   8.1056   8.1772   8.2631   8.3704
     8.7206   8.8678   8.8877   9.5511   9.7851  10.1628  10.1865  10.6091
    11.2471  11.9201  12.0415  12.2550  12.3986  12.4639  12.8927  13.2884
    14.0627  15.4283  17.0938  17.3449  17.5724  17.6389

     occupation numbers 
     0.0469   0.0469   0.0469   0.0469   0.0469   0.0469   0.0469   0.0469
     0.0469   0.0469   0.0469   0.0469   0.0469   0.0469   0.0469   0.0469
     0.0469   0.0469   0.0469   0.0469   0.0469   0.0469   0.0469   0.0469
     0.0469   0.0469   0.0469   0.0469   0.0469   0.0469   0.0469   0.0469
     0.0469   0.0428   0.0387   0.0272   0.0180   0.0141   0.0010   0.0000
     0.0000   0.0000   0.0000   0.0000   0.0000   0.0000

          k = 0.0000 0.0000 0.3080 (  2187 PWs)   bands (ev):

   -19.7248 -19.6021  -6.5061  -5.8673  -5.8027  -5.8027  -5.7097  -5.7097
    -3.1380  -3.0246  -3.0246  -2.9184  -2.8232  -2.8232   5.6604   7.2083
     7.3582   7.3582   7.5581   7.5581   7.7170   8.0806   8.0806   9.0631
     9.0631   9.5877   9.5932   9.8666   9.8666  10.0769  10.3035  10.3035
    11.6765  11.6765  11.6926  12.3654  12.3654  12.5349  13.1591  13.1591
    14.8963  14.8963  15.9839  15.9839  16.9169  17.5428

     occupation numbers 
     0.0313   0.0313   0.0313   0.0313   0.0313   0.0313   0.0313   0.0313
     0.0313   0.0313   0.0313   0.0313   0.0313   0.0313   0.0313   0.0313
     0.0313   0.0313   0.0313   0.0313   0.0313   0.0313   0.0313   0.0313
     0.0313   0.0313   0.0313   0.0313   0.0313   0.0312   0.0312   0.0312
     0.0308   0.0308   0.0308   0.0134   0.0134   0.0069   0.0001   0.0001
     0.0000   0.0000   0.0000   0.0000   0.0000   0.0000

          k = 0.7412 0.4280 0.0000 (  2204 PWs)   bands (ev):

   -19.6895 -19.6315  -6.6263  -6.4931  -6.0332  -5.7097  -5.5388  -5.4072
    -3.1023  -3.0240  -2.9866  -2.6039  -2.5882  -2.5039   6.0279   6.6168
     7.2915   7.4528   7.4561   7.5446   7.5886   7.8817   8.2282   8.3795
     8.6997   8.9905   9.6447   9.6801   9.7722   9.8397  10.0439  10.3865
    11.8882  11.9152  12.0386  12.1825  12.2217  12.4193  13.1277  13.9495
    14.0095  14.8346  16.7674  16.7768  17.6421  17.8604

     occupation numbers 
     0.0938   0.0938   0.0938   0.0938   0.0938   0.0938   0.0938   0.0938
     0.0938   0.0938   0.0938   0.0938   0.0938   0.0938   0.0938   0.0938
     0.0938   0.0938   0.0938   0.0938   0.0938   0.0938   0.0938   0.0938
     0.0938   0.0938   0.0938   0.0938   0.0938   0.0938   0.0937   0.0937
     0.0871   0.0859   0.0777   0.0632   0.0585   0.0334   0.0002   0.0000
     0.0000   0.0000   0.0000   0.0000   0.0000   0.0000

          k = 0.4942 0.2853 0.1027 (  2211 PWs)   bands (ev):

   -19.6801 -19.6390  -6.8653  -6.4370  -6.2155  -5.5625  -5.4991  -5.1991
    -3.2626  -3.1121  -2.9603  -2.5341  -2.4861  -2.3022   6.0535   6.3867
     7.0299   7.3382   7.3431   7.4685   7.7414   8.0606   8.2251   8.2422
     8.6054   9.2166   9.3526   9.5824   9.7379   9.8373  10.1972  10.5427
    11.6343  12.0685  12.1700  12.2227  12.2898  12.2941  13.1319  13.5368
    14.1790  14.9858  16.9523  16.9890  17.6541  17.9914

     occupation numbers 
     0.0938   0.0938   0.0938   0.0938   0.0938   0.0938   0.0938   0.0938
     0.0938   0.0938   0.0938   0.0938   0.0938   0.0938   0.0938   0.0938
     0.0938   0.0938   0.0938   0.0938   0.0938   0.0938   0.0938   0.0938
     0.0938   0.0938   0.0938   0.0938   0.0938   0.0938   0.0937   0.0937
     0.0929   0.0751   0.0646   0.0584   0.0498   0.0493   0.0002   0.0000
     0.0000   0.0000   0.0000   0.0000   0.0000   0.0000

          k = 0.7412-0.4280-0.3080 (  2210 PWs)   bands (ev):

   -19.6799 -19.6387  -6.8003  -6.3428  -6.1929  -5.6787  -5.6259  -5.3328
    -3.0091  -2.9831  -2.9084  -2.6604  -2.5412  -2.3543   6.1172   6.5457
     7.1144   7.3214   7.3933   7.4202   7.7585   8.1062   8.2439   8.2842
     8.6027   9.1825   9.2001   9.6826   9.7184   9.7818   9.8421  10.3822
    11.6835  12.0729  12.1534  12.2104  12.3193  12.3721  13.0947  13.4968
    14.1314  14.9521  17.1256  17.1364  17.6212  17.9607

     occupation numbers 
     0.0938   0.0938   0.0938   0.0938   0.0938   0.0938   0.0938   0.0938
     0.0938   0.0938   0.0938   0.0938   0.0938   0.0938   0.0938   0.0938
     0.0938   0.0938   0.0938   0.0938   0.0938   0.0938   0.0938   0.0938
     0.0938   0.0938   0.0938   0.0938   0.0938   0.0938   0.0938   0.0937
     0.0924   0.0747   0.0665   0.0599   0.0460   0.0392   0.0003   0.0000
     0.0000   0.0000   0.0000   0.0000   0.0000   0.0000

          k = 0.4942-0.5706-0.2053 (  2206 PWs)   bands (ev):

   -19.6584 -19.6583  -6.7843  -6.7646  -5.9273  -5.9263  -5.2776  -5.2715
    -3.1027  -3.1018  -2.7430  -2.7416  -2.3097  -2.3063   6.2419   6.2530
     7.1935   7.1986   7.3645   7.3660   7.5946   7.5969   8.4617   8.4725
     8.9377   8.9390   9.2465   9.2473   9.7168   9.7181  10.2818  10.2819
    11.8911  11.8941  12.0719  12.0834  12.3757  12.3814  13.1630  13.1666
    14.6706  14.6768  17.5048  17.5056  17.9191  17.9215

     occupation numbers 
     0.0938   0.0938   0.0938   0.0938   0.0938   0.0938   0.0938   0.0938
     0.0938   0.0938   0.0938   0.0938   0.0938   0.0938   0.0938   0.0938
     0.0938   0.0938   0.0938   0.0938   0.0938   0.0938   0.0938   0.0938
     0.0938   0.0938   0.0938   0.0938   0.0938   0.0938   0.0937   0.0937
     0.0870   0.0869   0.0748   0.0737   0.0388   0.0381   0.0002   0.0001
     0.0000   0.0000   0.0000   0.0000   0.0000   0.0000

          k = 0.0000 0.0000-0.6160 (  2186 PWs)   bands (ev):

   -19.6610 -19.6598  -6.4102  -6.3917  -5.8206  -5.8206  -5.8041  -5.8041
    -2.8107  -2.8107  -2.8090  -2.8090  -2.6541  -2.6538   6.3777   6.3825
     7.4645   7.4645   7.4754   7.4754   8.0251   8.0334   8.3460   8.3460
     8.3501   8.3501   9.8219   9.8219   9.8329   9.8329   9.8673   9.8809
    12.1231  12.1405  12.1484  12.1484  12.1675  12.1675  13.9376  13.9376
    13.9640  13.9640  17.1871  17.1871  17.1896  17.1896

     occupation numbers 
     0.0156   0.0156   0.0156   0.0156   0.0156   0.0156   0.0156   0.0156
     0.0156   0.0156   0.0156   0.0156   0.0156   0.0156   0.0156   0.0156
     0.0156   0.0156   0.0156   0.0156   0.0156   0.0156   0.0156   0.0156
     0.0156   0.0156   0.0156   0.0156   0.0156   0.0156   0.0156   0.0156
     0.0116   0.0113   0.0112   0.0112   0.0108   0.0108   0.0000   0.0000
     0.0000   0.0000   0.0000   0.0000   0.0000   0.0000

          k = 0.4942-0.5706 0.1027 (  2198 PWs)   bands (ev):

   -19.6801 -19.6390  -6.8489  -6.5389  -6.0226  -5.7756  -5.3693  -5.2242
    -3.2495  -3.1997  -2.8090  -2.6348  -2.4540  -2.3102   6.0272   6.4137
     7.0620   7.3322   7.4170   7.4739   7.7430   8.0196   8.1338   8.3022
     8.5569   9.0953   9.3445   9.5256   9.8642   9.9816  10.1409  10.5295
    11.6355  12.0297  12.1154  12.2077  12.3426  12.3525  13.1663  13.5281
    14.1350  15.0012  16.9660  17.1832  17.3745  18.0746

     occupation numbers 
     0.0938   0.0938   0.0938   0.0938   0.0938   0.0938   0.0938   0.0938
     0.0938   0.0938   0.0938   0.0938   0.0938   0.0938   0.0938   0.0938
     0.0938   0.0938   0.0938   0.0938   0.0938   0.0938   0.0938   0.0938
     0.0938   0.0938   0.0938   0.0938   0.0938   0.0937   0.0937   0.0937
     0.0929   0.0784   0.0706   0.0602   0.0430   0.0417   0.0001   0.0000
     0.0000   0.0000   0.0000   0.0000   0.0000   0.0000

     the Fermi energy is    12.3127 ev

!    total energy              =    -538.26813473 Ry
     Harris-Foulkes estimate   =    -538.26812912 Ry
     estimated scf accuracy    <          4.6E-09 Ry

     The total energy is the sum of the following terms:

     one-electron contribution =     -32.72088284 Ry
     hartree contribution      =      83.50124916 Ry
     xc contribution           =    -199.65165657 Ry
     ewald contribution        =    -389.44315552 Ry
     Hubbard energy            =       0.08701980 Ry
     smearing contrib. (-TS)   =      -0.04070874 Ry

     total magnetization       =     3.59 Bohr mag/cell
     absolute magnetization    =     3.74 Bohr mag/cell

     convergence has been achieved in  19 iterations

     init_run     :      8.44s CPU      8.57s WALL (       1 calls)
     electrons    :    485.03s CPU    488.79s WALL (       1 calls)

     Called by init_run:
     wfcinit      :      0.00s CPU      0.00s WALL (       1 calls)
     potinit      :      0.84s CPU      0.88s WALL (       1 calls)

     Called by electrons:
     c_bands      :    330.00s CPU    331.12s WALL (      19 calls)
     sum_band     :     98.11s CPU     98.74s WALL (      19 calls)
     v_of_rho     :     14.42s CPU     14.55s WALL (      20 calls)
     v_h          :      0.28s CPU      0.28s WALL (      20 calls)
     v_xc         :     14.13s CPU     14.27s WALL (      20 calls)
     newd         :     42.91s CPU     43.01s WALL (      20 calls)
     mix_rho      :      1.07s CPU      1.07s WALL (      19 calls)

     Called by c_bands:
     init_us_2    :      3.78s CPU      3.78s WALL (    1064 calls)
     cegterg      :    319.51s CPU    320.15s WALL (     532 calls)

     Called by sum_band:
     sum_band:bec :      0.38s CPU      0.40s WALL (     532 calls)
     addusdens    :     39.06s CPU     39.15s WALL (      19 calls)

     Called by *egterg:
     h_psi        :    240.38s CPU    240.87s WALL (    2005 calls)
     s_psi        :     14.02s CPU     14.03s WALL (    2005 calls)
     g_psi        :      1.18s CPU      1.16s WALL (    1473 calls)
     cdiaghg      :     23.29s CPU     23.33s WALL (    1977 calls)
     cegterg:over :     15.19s CPU     15.21s WALL (    1473 calls)
     cegterg:upda :     10.29s CPU     10.28s WALL (    1473 calls)
     cegterg:last :      6.00s CPU      5.99s WALL (     559 calls)

     Called by h_psi:
     h_psi:vloc   :    195.39s CPU    195.85s WALL (    2005 calls)
     h_psi:vnl    :     28.59s CPU     28.60s WALL (    2005 calls)
     add_vuspsi   :     14.06s CPU     14.05s WALL (    2005 calls)
     vhpsi        :     15.85s CPU     15.89s WALL (    2005 calls)

     General routines
     calbec       :     30.32s CPU     30.37s WALL (    5074 calls)
     fft          :      6.12s CPU      6.18s WALL (     608 calls)
     ffts         :      0.19s CPU      0.19s WALL (      78 calls)
     fftw         :    191.17s CPU    191.28s WALL (  144192 calls)
     interpolate  :      1.08s CPU      1.08s WALL (      78 calls)
     davcio       :      0.02s CPU      0.89s WALL (    1092 calls)

     Parallel routines
     fft_scatter  :     48.19s CPU     48.06s WALL (  144878 calls)
     Hubbard U routines
     new_ns       :      3.09s CPU      3.50s WALL (      19 calls)
     vhpsi        :     15.85s CPU     15.89s WALL (    2005 calls)

     PWSCF        :  8m13.92s CPU     8m19.54s WALL


   This run was terminated on:  12:49:22  13Nov2012            

=------------------------------------------------------------------------------=
