 
Job started on n10 at Tue Nov 13 11:48:30 EST 2012

     Program PWSCF v.5.0.1 starts on 13Nov2012 at 11:48:33 

     This program is part of the open-source Quantum ESPRESSO suite
     for quantum simulation of materials; please cite
         "P. Giannozzi et al., J. Phys.:Condens. Matter 21 395502 (2009);
          URL http://www.quantum-espresso.org", 
     in publications or presentations arising from this work. More details at
     http://www.quantum-espresso.org/quote.php

     Parallel version (MPI), running on     2 processors
     R & G space division:  proc/pool =    2

     Current dimensions of program PWSCF are:
     Max number of different atomic species (ntypx) = 10
     Max number of k-points (npk) =  40000
     Max angular momentum in pseudopotentials (lmaxx) =  3
     Reading input from CoLaO_U0_init.in
               file Co.pbe-nd-rrkjus.UPF: wavefunction(s)  4S 3D renormalized
               file Co.pbe-nd-rrkjus.UPF: wavefunction(s)  4S 3D renormalized
               file O.pbe-rrkjus.UPF: wavefunction(s)  2S renormalized

     Subspace diagonalization in iterative solution of the eigenvalue problem:
     a serial algorithm will be used


     Parallelization info
     --------------------
     sticks:   dense  smooth     PW     G-vecs:    dense   smooth      PW
     Min        1112     444    131                34808     8786    1448
     Max        1113     445    132                34809     8787    1449
     Sum        2225     889    263                69617    17573    2897


     Title: 
     GGA + U, U = 1D-40, init                                                   


     bravais-lattice index     =            5
     lattice parameter (alat)  =      10.3292  a.u.
     unit-cell volume          =     793.0599 (a.u.)^3
     number of atoms/cell      =           10
     number of atomic types    =            4
     number of electrons       =        76.00
     number of Kohn-Sham states=           46
     kinetic-energy cutoff     =      30.0000  Ry
     charge density cutoff     =     300.0000  Ry
     convergence threshold     =      1.0E-08
     mixing beta               =       0.2000
     number of iterations used =            8  plain     mixing
     Exchange-correlation      =  SLA  PW   PBE  PBE ( 1 4 3 4 0)
     EXX-fraction              =        0.00

     celldm(1)=  10.329242  celldm(2)=   0.000000  celldm(3)=   0.000000
     celldm(4)=   0.488100  celldm(5)=   0.000000  celldm(6)=   0.000000

     crystal axes: (cart. coord. in units of alat)
               a(1) = (   0.505915  -0.292090   0.811624 )  
               a(2) = (   0.000000   0.584180   0.811624 )  
               a(3) = (  -0.505915  -0.292090   0.811624 )  

     reciprocal axes: (cart. coord. in units 2 pi/alat)
               b(1) = (  0.988308 -0.570600  0.410699 )  
               b(2) = (  0.000000  1.141200  0.410699 )  
               b(3) = ( -0.988308 -0.570600  0.410699 )  


     PseudoPot. # 1 for Co read from file:
     /home/mcurnan/dft-course/Project1/example_LaCoO3/Co.pbe-nd-rrkjus.UPF
     MD5 check sum: 3e47a84addf5e975e0edeaeee2a73f59
     Pseudo is Ultrasoft + core correction, Zval =  9.0
     Generated by new atomic code, or converted to UPF format
     Using radial grid of  961 points,  6 beta functions with: 
                l(1) =   0
                l(2) =   0
                l(3) =   1
                l(4) =   1
                l(5) =   2
                l(6) =   2
     Q(r) pseudized with 0 coefficients 


     PseudoPot. # 2 for Co read from file:
     /home/mcurnan/dft-course/Project1/example_LaCoO3/Co.pbe-nd-rrkjus.UPF
     MD5 check sum: 3e47a84addf5e975e0edeaeee2a73f59
     Pseudo is Ultrasoft + core correction, Zval =  9.0
     Generated by new atomic code, or converted to UPF format
     Using radial grid of  961 points,  6 beta functions with: 
                l(1) =   0
                l(2) =   0
                l(3) =   1
                l(4) =   1
                l(5) =   2
                l(6) =   2
     Q(r) pseudized with 0 coefficients 


     PseudoPot. # 3 for La read from file:
     /home/mcurnan/dft-course/Project1/example_LaCoO3/La.pbe-nsp-van.UPF
     MD5 check sum: b2f11743f52dde65f77d1302becd7929
     Pseudo is Ultrasoft + core correction, Zval = 11.0
     Generated by new atomic code, or converted to UPF format
     Using radial grid of  907 points,  6 beta functions with: 
                l(1) =   0
                l(2) =   0
                l(3) =   1
                l(4) =   1
                l(5) =   2
                l(6) =   2
     Q(r) pseudized with  6 coefficients,  rinner =    1.200   1.200   1.200
                                                       1.200   1.200

     PseudoPot. # 4 for O  read from file:
     /home/mcurnan/dft-course/Project1/example_LaCoO3/O.pbe-rrkjus.UPF
     MD5 check sum: 390ba29e75625707450f3bd3f0eb6be9
     Pseudo is Ultrasoft, Zval =  6.0
     Generated by new atomic code, or converted to UPF format
     Using radial grid of 1269 points,  4 beta functions with: 
                l(1) =   0
                l(2) =   0
                l(3) =   1
                l(4) =   1
     Q(r) pseudized with 0 coefficients 


     atomic species   valence    mass     pseudopotential
        Co1            9.00     1.00000     Co( 1.00)
        Co2            9.00     1.00000     Co( 1.00)
        La1           11.00     1.00000     La( 1.00)
        O1             6.00     1.00000     O ( 1.00)

     Starting magnetic structure 
     atomic species   magnetization
        Co1          1.000
        Co2          1.000
        La1          0.000
        O1           0.000
 -----
     simplified LDA+U calculation, Hubbard_lmax = 2
     atomic species  L   Hubbard U  Hubbard alpha
        Co1          2    0.000000    0.000000
        Co2          2    0.000000    0.000000
        La1          2    0.000000    0.000000
        O1           1    0.000000    0.000000
 -----

      6 Sym. Ops., with inversion, found


                                    s                        frac. trans.

      isym =  1     identity                                     

 cryst.   s( 1) = (     1          0          0      )
                  (     0          1          0      )
                  (     0          0          1      )

 cart.    s( 1) = (  1.0000000  0.0000000  0.0000000 )
                  (  0.0000000  1.0000000  0.0000000 )
                  (  0.0000000  0.0000000  1.0000000 )


      isym =  2     120 deg rotation - cryst. axis [0,0,1]       

 cryst.   s( 2) = (     0          1          0      )
                  (     0          0          1      )
                  (     1          0          0      )

 cart.    s( 2) = ( -0.5000000 -0.8660254  0.0000000 )
                  (  0.8660254 -0.5000000  0.0000000 )
                  (  0.0000000  0.0000000  1.0000000 )


      isym =  3     120 deg rotation - cryst. axis [0,0,-1]      

 cryst.   s( 3) = (     0          0          1      )
                  (     1          0          0      )
                  (     0          1          0      )

 cart.    s( 3) = ( -0.5000000  0.8660254  0.0000000 )
                  ( -0.8660254 -0.5000000  0.0000000 )
                  (  0.0000000  0.0000000  1.0000000 )


      isym =  4     inversion                                    

 cryst.   s( 4) = (    -1          0          0      )
                  (     0         -1          0      )
                  (     0          0         -1      )

 cart.    s( 4) = ( -1.0000000  0.0000000  0.0000000 )
                  (  0.0000000 -1.0000000  0.0000000 )
                  (  0.0000000  0.0000000 -1.0000000 )


      isym =  5     inv. 180 deg rotation - cart. axis [0,1,0]   

 cryst.   s( 5) = (     0         -1          0      )
                  (     0          0         -1      )
                  (    -1          0          0      )

 cart.    s( 5) = (  0.5000000  0.8660254  0.0000000 )
                  ( -0.8660254  0.5000000  0.0000000 )
                  (  0.0000000  0.0000000 -1.0000000 )


      isym =  6     inv. 180 deg rotation - cart. axis [1,0,0]   

 cryst.   s( 6) = (     0          0         -1      )
                  (    -1          0          0      )
                  (     0         -1          0      )

 cart.    s( 6) = (  0.5000000 -0.8660254  0.0000000 )
                  (  0.8660254  0.5000000  0.0000000 )
                  (  0.0000000  0.0000000 -1.0000000 )


     point group S_6 (-3)   
     there are  6 classes
     the character table:

       E     C3    C3^2  i     S6^5  S6   
A_g    1.00  1.00  1.00  1.00  1.00  1.00
E_g    1.00 -0.50 -0.50  1.00 -0.50 -0.50
E_g*   1.00 -0.50 -0.50  1.00 -0.50 -0.50
A_u    1.00  1.00  1.00 -1.00 -1.00 -1.00
E_u    1.00 -0.50 -0.50 -1.00  0.50  0.50
E_u*   1.00 -0.50 -0.50 -1.00  0.50  0.50
     imaginary part
A_g    0.00  0.00  0.00  0.00  0.00  0.00
E_g    0.00  0.87 -0.87  0.00  0.87 -0.87
E_g*   0.00 -0.87  0.87  0.00 -0.87  0.87
A_u    0.00  0.00  0.00  0.00  0.00  0.00
E_u    0.00  0.87 -0.87  0.00 -0.87  0.87
E_u*   0.00 -0.87  0.87  0.00  0.87 -0.87

     the symmetry operations in each class:
     E        1
     C3       2
     C3^2     3
     i        4
     S6^5     5
     S6       6

   Cartesian axes

     site n.     atom                  positions (alat units)
         1           Co1 tau(   1) = (   0.0000000   0.0000000   0.0000000  )
         2           Co2 tau(   2) = (   0.0000000   0.0000000   1.2174358  )
         3           La1 tau(   3) = (   0.0000000   0.0000000   0.6087179  )
         4           La1 tau(   4) = (   0.0000000   0.0000000   1.8261537  )
         5           O1  tau(   5) = (  -0.2839701  -0.0933228   1.0141240  )
         6           O1  tau(   6) = (   0.0611651   0.2925867   1.0141240  )
         7           O1  tau(   7) = (   0.2228050  -0.1992639   1.0141240  )
         8           O1  tau(   8) = (  -0.0611651  -0.2925867   1.4207476  )
         9           O1  tau(   9) = (   0.2839701   0.0933228   1.4207476  )
        10           O1  tau(  10) = (  -0.2228050   0.1992639   1.4207476  )

   Crystallographic axes

     site n.     atom                  positions (cryst. coord.)
         1           Co1 tau(   1) = (  0.0000000  0.0000000  0.0000000  )
         2           Co2 tau(   2) = (  0.5000000  0.5000000  0.5000000  )
         3           La1 tau(   3) = (  0.2500000  0.2500000  0.2500000  )
         4           La1 tau(   4) = (  0.7500000  0.7500000  0.7500000  )
         5           O1  tau(   5) = (  0.1891000  0.3100000  0.7504000  )
         6           O1  tau(   6) = (  0.3100000  0.7504000  0.1891000  )
         7           O1  tau(   7) = (  0.7504000  0.1891000  0.3100000  )
         8           O1  tau(   8) = (  0.6900000  0.2496000  0.8109000  )
         9           O1  tau(   9) = (  0.8109000  0.6900000  0.2496000  )
        10           O1  tau(  10) = (  0.2496000  0.8109000  0.6900000  )

     number of k points=    28  gaussian smearing, width (Ry)=  0.0300
                       cart. coord. in units 2pi/alat
        k(    1) = (   0.0000000   0.0000000   0.0000000), wk =   0.0156250
        k(    2) = (  -0.2470771  -0.1426500   0.1026748), wk =   0.0937500
        k(    3) = (   0.4941541   0.2853000  -0.2053496), wk =   0.0468750
        k(    4) = (  -0.2470771   0.1426500   0.2053496), wk =   0.0937500
        k(    5) = (   0.4941541   0.5706001  -0.1026748), wk =   0.0937500
        k(    6) = (   0.2470771   0.4279500   0.0000000), wk =   0.0937500
        k(    7) = (   0.4941541  -0.2853000  -0.4106993), wk =   0.0468750
        k(    8) = (   0.0000000   0.0000000   0.3080244), wk =   0.0312500
        k(    9) = (   0.7412312   0.4279500   0.0000000), wk =   0.0937500
        k(   10) = (   0.4941541   0.2853000   0.1026748), wk =   0.0937500
        k(   11) = (   0.7412312  -0.4279500  -0.3080244), wk =   0.0937500
        k(   12) = (   0.4941541  -0.5706001  -0.2053496), wk =   0.0937500
        k(   13) = (   0.0000000   0.0000000  -0.6160489), wk =   0.0156250
        k(   14) = (   0.4941541  -0.5706001   0.1026748), wk =   0.0937500
        k(   15) = (   0.0000000   0.0000000   0.0000000), wk =   0.0156250
        k(   16) = (  -0.2470771  -0.1426500   0.1026748), wk =   0.0937500
        k(   17) = (   0.4941541   0.2853000  -0.2053496), wk =   0.0468750
        k(   18) = (  -0.2470771   0.1426500   0.2053496), wk =   0.0937500
        k(   19) = (   0.4941541   0.5706001  -0.1026748), wk =   0.0937500
        k(   20) = (   0.2470771   0.4279500   0.0000000), wk =   0.0937500
        k(   21) = (   0.4941541  -0.2853000  -0.4106993), wk =   0.0468750
        k(   22) = (   0.0000000   0.0000000   0.3080244), wk =   0.0312500
        k(   23) = (   0.7412312   0.4279500   0.0000000), wk =   0.0937500
        k(   24) = (   0.4941541   0.2853000   0.1026748), wk =   0.0937500
        k(   25) = (   0.7412312  -0.4279500  -0.3080244), wk =   0.0937500
        k(   26) = (   0.4941541  -0.5706001  -0.2053496), wk =   0.0937500
        k(   27) = (   0.0000000   0.0000000  -0.6160489), wk =   0.0156250
        k(   28) = (   0.4941541  -0.5706001   0.1026748), wk =   0.0937500

                       cryst. coord.
        k(    1) = (   0.0000000   0.0000000   0.0000000), wk =   0.0156250
        k(    2) = (   0.0000000   0.0000000   0.2500000), wk =   0.0937500
        k(    3) = (   0.0000000   0.0000000  -0.5000000), wk =   0.0468750
        k(    4) = (   0.0000000   0.2500000   0.2500000), wk =   0.0937500
        k(    5) = (   0.0000000   0.2500000  -0.5000000), wk =   0.0937500
        k(    6) = (   0.0000000   0.2500000  -0.2500000), wk =   0.0937500
        k(    7) = (   0.0000000  -0.5000000  -0.5000000), wk =   0.0468750
        k(    8) = (   0.2500000   0.2500000   0.2500000), wk =   0.0312500
        k(    9) = (   0.2500000   0.2500000  -0.5000000), wk =   0.0937500
        k(   10) = (   0.2500000   0.2500000  -0.2500000), wk =   0.0937500
        k(   11) = (   0.2500000  -0.5000000  -0.5000000), wk =   0.0937500
        k(   12) = (   0.2500000  -0.5000000  -0.2500000), wk =   0.0937500
        k(   13) = (  -0.5000000  -0.5000000  -0.5000000), wk =   0.0156250
        k(   14) = (   0.5000000  -0.2500000   0.0000000), wk =   0.0937500
        k(   15) = (   0.0000000   0.0000000   0.0000000), wk =   0.0156250
        k(   16) = (   0.0000000   0.0000000   0.2500000), wk =   0.0937500
        k(   17) = (   0.0000000   0.0000000  -0.5000000), wk =   0.0468750
        k(   18) = (   0.0000000   0.2500000   0.2500000), wk =   0.0937500
        k(   19) = (   0.0000000   0.2500000  -0.5000000), wk =   0.0937500
        k(   20) = (   0.0000000   0.2500000  -0.2500000), wk =   0.0937500
        k(   21) = (   0.0000000  -0.5000000  -0.5000000), wk =   0.0468750
        k(   22) = (   0.2500000   0.2500000   0.2500000), wk =   0.0312500
        k(   23) = (   0.2500000   0.2500000  -0.5000000), wk =   0.0937500
        k(   24) = (   0.2500000   0.2500000  -0.2500000), wk =   0.0937500
        k(   25) = (   0.2500000  -0.5000000  -0.5000000), wk =   0.0937500
        k(   26) = (   0.2500000  -0.5000000  -0.2500000), wk =   0.0937500
        k(   27) = (  -0.5000000  -0.5000000  -0.5000000), wk =   0.0156250
        k(   28) = (   0.5000000  -0.2500000   0.0000000), wk =   0.0937500

     Dense  grid:    69617 G-vectors     FFT dimensions: (  60,  60,  60)

     Smooth grid:    17573 G-vectors     FFT dimensions: (  40,  40,  40)

     Largest allocated arrays     est. size (Mb)     dimensions
        Kohn-Sham Wavefunctions         0.78 Mb     (   1117,   46)
        Atomic wavefunctions            1.06 Mb     (   1117,   62)
        NL pseudopotentials             2.05 Mb     (   1117,  120)
        Each V/rho on FFT grid          3.30 Mb     ( 108000,   2)
        Each G-vector array             0.27 Mb     (  34808)
        G-vector shells                 0.04 Mb     (   4682)
     Largest temporary arrays     est. size (Mb)     dimensions
        Auxiliary wavefunctions         3.14 Mb     (   1117,  184)
        Each subspace H/S matrix        0.52 Mb     ( 184, 184)
        Each <psi_i|beta_j> matrix      0.08 Mb     (    120,   46)
        Arrays for rho mixing          13.18 Mb     ( 108000,   8)

     Check: negative/imaginary core charge=   -0.000028    0.000000

     Initial potential from superposition of free atoms

     starting charge   75.93482, renormalised to   76.00000
 --- in v_hubbard ---
Hubbard energy    0.0000
 -------
     Number of +U iterations with fixed ns =  0
     Starting occupations:
 --- enter write_ns ---
 LDA+U parameters:
U( 1)     =  0.00000000
alpha( 1) =  0.00000000
U( 2)     =  0.00000000
alpha( 2) =  0.00000000
U( 3)     =  0.00000000
alpha( 3) =  0.00000000
U( 4)     =  0.00000000
alpha( 4) =  0.00000000
atom    1   Tr[ns(na)] (up, down, total) =   5.00000  2.00000  7.00000
   spin  1
    eigenvalues: 
  1.000  1.000  1.000  1.000  1.000
    eigenvectors:
  1.000  0.000  0.000  0.000  0.000
  0.000  1.000  0.000  0.000  0.000
  0.000  0.000  1.000  0.000  0.000
  0.000  0.000  0.000  1.000  0.000
  0.000  0.000  0.000  0.000  1.000
    occupations:
  1.000  0.000  0.000  0.000  0.000
  0.000  1.000  0.000  0.000  0.000
  0.000  0.000  1.000  0.000  0.000
  0.000  0.000  0.000  1.000  0.000
  0.000  0.000  0.000  0.000  1.000
   spin  2
    eigenvalues: 
  0.400  0.400  0.400  0.400  0.400
    eigenvectors:
  1.000  0.000  0.000  0.000  0.000
  0.000  1.000  0.000  0.000  0.000
  0.000  0.000  1.000  0.000  0.000
  0.000  0.000  0.000  1.000  0.000
  0.000  0.000  0.000  0.000  1.000
    occupations:
  0.400  0.000  0.000  0.000  0.000
  0.000  0.400  0.000  0.000  0.000
  0.000  0.000  0.400  0.000  0.000
  0.000  0.000  0.000  0.400  0.000
  0.000  0.000  0.000  0.000  0.400
atomic mag. moment =     3.000000
atom    2   Tr[ns(na)] (up, down, total) =   5.00000  2.00000  7.00000
   spin  1
    eigenvalues: 
  1.000  1.000  1.000  1.000  1.000
    eigenvectors:
  1.000  0.000  0.000  0.000  0.000
  0.000  1.000  0.000  0.000  0.000
  0.000  0.000  1.000  0.000  0.000
  0.000  0.000  0.000  1.000  0.000
  0.000  0.000  0.000  0.000  1.000
    occupations:
  1.000  0.000  0.000  0.000  0.000
  0.000  1.000  0.000  0.000  0.000
  0.000  0.000  1.000  0.000  0.000
  0.000  0.000  0.000  1.000  0.000
  0.000  0.000  0.000  0.000  1.000
   spin  2
    eigenvalues: 
  0.400  0.400  0.400  0.400  0.400
    eigenvectors:
  1.000  0.000  0.000  0.000  0.000
  0.000  1.000  0.000  0.000  0.000
  0.000  0.000  1.000  0.000  0.000
  0.000  0.000  0.000  1.000  0.000
  0.000  0.000  0.000  0.000  1.000
    occupations:
  0.400  0.000  0.000  0.000  0.000
  0.000  0.400  0.000  0.000  0.000
  0.000  0.000  0.400  0.000  0.000
  0.000  0.000  0.000  0.400  0.000
  0.000  0.000  0.000  0.000  0.400
atomic mag. moment =     3.000000
atom    3   Tr[ns(na)] (up, down, total) =   0.50000  0.50000  1.00000
   spin  1
    eigenvalues: 
  0.100  0.100  0.100  0.100  0.100
    eigenvectors:
  1.000  0.000  0.000  0.000  0.000
  0.000  1.000  0.000  0.000  0.000
  0.000  0.000  1.000  0.000  0.000
  0.000  0.000  0.000  1.000  0.000
  0.000  0.000  0.000  0.000  1.000
    occupations:
  0.100  0.000  0.000  0.000  0.000
  0.000  0.100  0.000  0.000  0.000
  0.000  0.000  0.100  0.000  0.000
  0.000  0.000  0.000  0.100  0.000
  0.000  0.000  0.000  0.000  0.100
   spin  2
    eigenvalues: 
  0.100  0.100  0.100  0.100  0.100
    eigenvectors:
  1.000  0.000  0.000  0.000  0.000
  0.000  1.000  0.000  0.000  0.000
  0.000  0.000  1.000  0.000  0.000
  0.000  0.000  0.000  1.000  0.000
  0.000  0.000  0.000  0.000  1.000
    occupations:
  0.100  0.000  0.000  0.000  0.000
  0.000  0.100  0.000  0.000  0.000
  0.000  0.000  0.100  0.000  0.000
  0.000  0.000  0.000  0.100  0.000
  0.000  0.000  0.000  0.000  0.100
atomic mag. moment =     0.000000
atom    4   Tr[ns(na)] (up, down, total) =   0.50000  0.50000  1.00000
   spin  1
    eigenvalues: 
  0.100  0.100  0.100  0.100  0.100
    eigenvectors:
  1.000  0.000  0.000  0.000  0.000
  0.000  1.000  0.000  0.000  0.000
  0.000  0.000  1.000  0.000  0.000
  0.000  0.000  0.000  1.000  0.000
  0.000  0.000  0.000  0.000  1.000
    occupations:
  0.100  0.000  0.000  0.000  0.000
  0.000  0.100  0.000  0.000  0.000
  0.000  0.000  0.100  0.000  0.000
  0.000  0.000  0.000  0.100  0.000
  0.000  0.000  0.000  0.000  0.100
   spin  2
    eigenvalues: 
  0.100  0.100  0.100  0.100  0.100
    eigenvectors:
  1.000  0.000  0.000  0.000  0.000
  0.000  1.000  0.000  0.000  0.000
  0.000  0.000  1.000  0.000  0.000
  0.000  0.000  0.000  1.000  0.000
  0.000  0.000  0.000  0.000  1.000
    occupations:
  0.100  0.000  0.000  0.000  0.000
  0.000  0.100  0.000  0.000  0.000
  0.000  0.000  0.100  0.000  0.000
  0.000  0.000  0.000  0.100  0.000
  0.000  0.000  0.000  0.000  0.100
atomic mag. moment =     0.000000
atom    5   Tr[ns(na)] (up, down, total) =   2.00000  2.00000  4.00000
   spin  1
    eigenvalues: 
  0.667  0.667  0.667
    eigenvectors:
  1.000  0.000  0.000
  0.000  1.000  0.000
  0.000  0.000  1.000
    occupations:
  0.667  0.000  0.000
  0.000  0.667  0.000
  0.000  0.000  0.667
   spin  2
    eigenvalues: 
  0.667  0.667  0.667
    eigenvectors:
  1.000  0.000  0.000
  0.000  1.000  0.000
  0.000  0.000  1.000
    occupations:
  0.667  0.000  0.000
  0.000  0.667  0.000
  0.000  0.000  0.667
atomic mag. moment =     0.000000
atom    6   Tr[ns(na)] (up, down, total) =   2.00000  2.00000  4.00000
   spin  1
    eigenvalues: 
  0.667  0.667  0.667
    eigenvectors:
  1.000  0.000  0.000
  0.000  1.000  0.000
  0.000  0.000  1.000
    occupations:
  0.667  0.000  0.000
  0.000  0.667  0.000
  0.000  0.000  0.667
   spin  2
    eigenvalues: 
  0.667  0.667  0.667
    eigenvectors:
  1.000  0.000  0.000
  0.000  1.000  0.000
  0.000  0.000  1.000
    occupations:
  0.667  0.000  0.000
  0.000  0.667  0.000
  0.000  0.000  0.667
atomic mag. moment =     0.000000
atom    7   Tr[ns(na)] (up, down, total) =   2.00000  2.00000  4.00000
   spin  1
    eigenvalues: 
  0.667  0.667  0.667
    eigenvectors:
  1.000  0.000  0.000
  0.000  1.000  0.000
  0.000  0.000  1.000
    occupations:
  0.667  0.000  0.000
  0.000  0.667  0.000
  0.000  0.000  0.667
   spin  2
    eigenvalues: 
  0.667  0.667  0.667
    eigenvectors:
  1.000  0.000  0.000
  0.000  1.000  0.000
  0.000  0.000  1.000
    occupations:
  0.667  0.000  0.000
  0.000  0.667  0.000
  0.000  0.000  0.667
atomic mag. moment =     0.000000
atom    8   Tr[ns(na)] (up, down, total) =   2.00000  2.00000  4.00000
   spin  1
    eigenvalues: 
  0.667  0.667  0.667
    eigenvectors:
  1.000  0.000  0.000
  0.000  1.000  0.000
  0.000  0.000  1.000
    occupations:
  0.667  0.000  0.000
  0.000  0.667  0.000
  0.000  0.000  0.667
   spin  2
    eigenvalues: 
  0.667  0.667  0.667
    eigenvectors:
  1.000  0.000  0.000
  0.000  1.000  0.000
  0.000  0.000  1.000
    occupations:
  0.667  0.000  0.000
  0.000  0.667  0.000
  0.000  0.000  0.667
atomic mag. moment =     0.000000
atom    9   Tr[ns(na)] (up, down, total) =   2.00000  2.00000  4.00000
   spin  1
    eigenvalues: 
  0.667  0.667  0.667
    eigenvectors:
  1.000  0.000  0.000
  0.000  1.000  0.000
  0.000  0.000  1.000
    occupations:
  0.667  0.000  0.000
  0.000  0.667  0.000
  0.000  0.000  0.667
   spin  2
    eigenvalues: 
  0.667  0.667  0.667
    eigenvectors:
  1.000  0.000  0.000
  0.000  1.000  0.000
  0.000  0.000  1.000
    occupations:
  0.667  0.000  0.000
  0.000  0.667  0.000
  0.000  0.000  0.667
atomic mag. moment =     0.000000
atom   10   Tr[ns(na)] (up, down, total) =   2.00000  2.00000  4.00000
   spin  1
    eigenvalues: 
  0.667  0.667  0.667
    eigenvectors:
  1.000  0.000  0.000
  0.000  1.000  0.000
  0.000  0.000  1.000
    occupations:
  0.667  0.000  0.000
  0.000  0.667  0.000
  0.000  0.000  0.667
   spin  2
    eigenvalues: 
  0.667  0.667  0.667
    eigenvectors:
  1.000  0.000  0.000
  0.000  1.000  0.000
  0.000  0.000  1.000
    occupations:
  0.667  0.000  0.000
  0.000  0.667  0.000
  0.000  0.000  0.667
atomic mag. moment =     0.000000
N of occupied +U levels =  40.0000000
 --- exit write_ns ---
 Atomic wfc used for LDA+U Projector are NOT orthogonalized
     Starting wfc are   62 randomized atomic wfcs

     total cpu time spent up to now is       19.5 secs

     per-process dynamical memory:    44.3 Mb

     Self-consistent Calculation

     iteration #  1     ecut=    30.00 Ry     beta=0.20
     Davidson diagonalization with overlap
     ethr =  1.00E-02,  avg # of iterations =  2.3
 --- enter write_ns ---
 LDA+U parameters:
U( 1)     =  0.00000000
alpha( 1) =  0.00000000
U( 2)     =  0.00000000
alpha( 2) =  0.00000000
U( 3)     =  0.00000000
alpha( 3) =  0.00000000
U( 4)     =  0.00000000
alpha( 4) =  0.00000000
atom    1   Tr[ns(na)] (up, down, total) =   4.99384  0.57600  5.56984
   spin  1
    eigenvalues: 
  0.997  0.998  0.998  1.000  1.000
    eigenvectors:
  1.000  0.000  0.000  0.000  0.000
  0.000  0.347  0.015  0.625  0.013
  0.000  0.015  0.347  0.013  0.625
  0.000  0.521  0.117  0.313  0.049
  0.000  0.117  0.521  0.049  0.313
    occupations:
  0.997  0.000  0.000  0.000  0.000
  0.000  1.000  0.000  0.001  0.000
  0.000  0.000  1.000  0.000 -0.001
  0.000  0.001  0.000  0.999  0.000
  0.000  0.000 -0.001  0.000  0.999
   spin  2
    eigenvalues: 
  0.075  0.075  0.076  0.175  0.175
    eigenvectors:
  0.000  0.000  1.000  0.000  0.000
  0.014  0.344  0.000  0.373  0.270
  0.344  0.014  0.000  0.270  0.373
  0.540  0.102  0.000  0.335  0.023
  0.102  0.540  0.000  0.023  0.335
    occupations:
  0.076  0.000  0.000  0.000  0.000
  0.000  0.139  0.000  0.027 -0.039
  0.000  0.000  0.139 -0.039 -0.027
  0.000  0.027 -0.039  0.111  0.000
  0.000 -0.039 -0.027  0.000  0.111
atomic mag. moment =     4.417844
atom    2   Tr[ns(na)] (up, down, total) =   4.99442  0.56567  5.56009
   spin  1
    eigenvalues: 
  0.997  0.998  0.998  1.001  1.001
    eigenvectors:
  1.000  0.000  0.000  0.000  0.000
  0.000  0.305  0.056  0.496  0.142
  0.000  0.056  0.305  0.142  0.496
  0.000  0.606  0.033  0.327  0.034
  0.000  0.033  0.606  0.034  0.327
    occupations:
  0.997  0.000  0.000  0.000  0.000
  0.000  1.000  0.000 -0.001  0.000
  0.000  0.000  1.000  0.000  0.001
  0.000 -0.001  0.000  0.999  0.000
  0.000  0.000  0.001  0.000  0.999
   spin  2
    eigenvalues: 
  0.074  0.074  0.074  0.172  0.172
    eigenvectors:
  0.000  0.000  1.000  0.000  0.000
  0.294  0.062  0.000  0.643  0.000
  0.062  0.294  0.000  0.000  0.643
  0.477  0.166  0.000  0.107  0.249
  0.166  0.477  0.000  0.249  0.107
    occupations:
  0.074  0.000  0.000  0.000  0.000
  0.000  0.137  0.000 -0.027 -0.039
  0.000  0.000  0.137 -0.039  0.027
  0.000 -0.027 -0.039  0.109  0.000
  0.000 -0.039  0.027  0.000  0.109
atomic mag. moment =     4.428746
atom    3   Tr[ns(na)] (up, down, total) =   2.11629  1.97551  4.09180
   spin  1
    eigenvalues: 
  0.369  0.369  0.379  0.500  0.500
    eigenvectors:
  0.000  0.000  1.000  0.000  0.000
  0.081  0.240  0.000  0.367  0.312
  0.240  0.081  0.000  0.312  0.367
  0.509  0.170  0.000  0.147  0.174
  0.170  0.509  0.000  0.174  0.147
    occupations:
  0.379  0.000  0.000  0.000  0.000
  0.000  0.458  0.000  0.000 -0.061
  0.000  0.000  0.458 -0.061  0.000
  0.000  0.000 -0.061  0.411  0.000
  0.000 -0.061  0.000  0.000  0.411
   spin  2
    eigenvalues: 
  0.344  0.352  0.352  0.464  0.464
    eigenvectors:
  1.000  0.000  0.000  0.000  0.000
  0.000  0.106  0.267  0.249  0.378
  0.000  0.267  0.106  0.378  0.249
  0.000  0.450  0.177  0.224  0.149
  0.000  0.177  0.450  0.149  0.224
    occupations:
  0.344  0.000  0.000  0.000  0.000
  0.000  0.422  0.000  0.000 -0.054
  0.000  0.000  0.422 -0.054  0.000
  0.000  0.000 -0.054  0.394  0.000
  0.000 -0.054  0.000  0.000  0.394
atomic mag. moment =     0.140783
atom    4   Tr[ns(na)] (up, down, total) =   2.11629  1.97551  4.09180
   spin  1
    eigenvalues: 
  0.369  0.369  0.379  0.500  0.500
    eigenvectors:
  0.000  0.000  1.000  0.000  0.000
  0.081  0.240  0.000  0.367  0.312
  0.240  0.081  0.000  0.312  0.367
  0.508  0.171  0.000  0.147  0.174
  0.171  0.508  0.000  0.174  0.147
    occupations:
  0.379  0.000  0.000  0.000  0.000
  0.000  0.458  0.000  0.000 -0.061
  0.000  0.000  0.458 -0.061  0.000
  0.000  0.000 -0.061  0.411  0.000
  0.000 -0.061  0.000  0.000  0.411
   spin  2
    eigenvalues: 
  0.344  0.352  0.352  0.464  0.464
    eigenvectors:
  1.000  0.000  0.000  0.000  0.000
  0.000  0.106  0.267  0.250  0.377
  0.000  0.267  0.106  0.377  0.250
  0.000  0.449  0.177  0.224  0.150
  0.000  0.177  0.449  0.150  0.224
    occupations:
  0.344  0.000  0.000  0.000  0.000
  0.000  0.422  0.000  0.000 -0.054
  0.000  0.000  0.422 -0.054  0.000
  0.000  0.000 -0.054  0.394  0.000
  0.000 -0.054  0.000  0.000  0.394
atomic mag. moment =     0.140783
atom    5   Tr[ns(na)] (up, down, total) =   2.93974  2.93081  5.87055
   spin  1
    eigenvalues: 
  0.977  0.980  0.983
    eigenvectors:
  0.224  0.000  0.776
  0.579  0.253  0.168
  0.197  0.747  0.056
    occupations:
  0.981  0.002  0.001
  0.002  0.979 -0.001
  0.001 -0.001  0.980
   spin  2
    eigenvalues: 
  0.974  0.977  0.980
    eigenvectors:
  0.272  0.000  0.728
  0.539  0.259  0.203
  0.189  0.741  0.069
    occupations:
  0.978  0.002  0.001
  0.002  0.976 -0.001
  0.001 -0.001  0.977
atomic mag. moment =     0.008930
atom    6   Tr[ns(na)] (up, down, total) =   2.93974  2.93081  5.87055
   spin  1
    eigenvalues: 
  0.977  0.980  0.983
    eigenvectors:
  0.224  0.000  0.776
  0.000  1.000  0.000
  0.776  0.000  0.224
    occupations:
  0.981  0.000 -0.003
  0.000  0.980  0.000
 -0.003  0.000  0.978
   spin  2
    eigenvalues: 
  0.974  0.977  0.980
    eigenvectors:
  0.272  0.000  0.728
  0.000  1.000  0.000
  0.728  0.000  0.272
    occupations:
  0.978  0.000 -0.003
  0.000  0.977  0.000
 -0.003  0.000  0.975
atomic mag. moment =     0.008930
atom    7   Tr[ns(na)] (up, down, total) =   2.93974  2.93081  5.87055
   spin  1
    eigenvalues: 
  0.977  0.980  0.983
    eigenvectors:
  0.224  0.000  0.776
  0.585  0.247  0.168
  0.191  0.753  0.056
    occupations:
  0.981 -0.002  0.001
 -0.002  0.979  0.001
  0.001  0.001  0.980
   spin  2
    eigenvalues: 
  0.974  0.977  0.980
    eigenvectors:
  0.272  0.000  0.728
  0.553  0.242  0.205
  0.175  0.758  0.067
    occupations:
  0.978 -0.002  0.001
 -0.002  0.976  0.001
  0.001  0.001  0.977
atomic mag. moment =     0.008930
atom    8   Tr[ns(na)] (up, down, total) =   2.93974  2.93081  5.87055
   spin  1
    eigenvalues: 
  0.977  0.980  0.983
    eigenvectors:
  0.224  0.000  0.776
  0.000  1.000  0.000
  0.776  0.000  0.224
    occupations:
  0.981  0.000 -0.003
  0.000  0.980  0.000
 -0.003  0.000  0.978
   spin  2
    eigenvalues: 
  0.974  0.977  0.980
    eigenvectors:
  0.272  0.000  0.728
  0.000  1.000  0.000
  0.728  0.000  0.272
    occupations:
  0.978  0.000 -0.003
  0.000  0.977  0.000
 -0.003  0.000  0.975
atomic mag. moment =     0.008930
atom    9   Tr[ns(na)] (up, down, total) =   2.93974  2.93081  5.87055
   spin  1
    eigenvalues: 
  0.977  0.980  0.983
    eigenvectors:
  0.224  0.000  0.776
  0.579  0.253  0.168
  0.197  0.747  0.056
    occupations:
  0.981  0.002  0.001
  0.002  0.979 -0.001
  0.001 -0.001  0.980
   spin  2
    eigenvalues: 
  0.974  0.977  0.980
    eigenvectors:
  0.272  0.000  0.728
  0.539  0.259  0.203
  0.189  0.741  0.069
    occupations:
  0.978  0.002  0.001
  0.002  0.976 -0.001
  0.001 -0.001  0.977
atomic mag. moment =     0.008930
atom   10   Tr[ns(na)] (up, down, total) =   2.93974  2.93081  5.87055
   spin  1
    eigenvalues: 
  0.977  0.980  0.983
    eigenvectors:
  0.224  0.000  0.776
  0.585  0.247  0.168
  0.191  0.753  0.056
    occupations:
  0.981 -0.002  0.001
 -0.002  0.979  0.001
  0.001  0.001  0.980
   spin  2
    eigenvalues: 
  0.974  0.977  0.980
    eigenvectors:
  0.272  0.000  0.728
  0.553  0.242  0.205
  0.175  0.758  0.067
    occupations:
  0.978 -0.002  0.001
 -0.002  0.976  0.001
  0.001  0.001  0.977
atomic mag. moment =     0.008930
N of occupied +U levels =  54.5368367
 --- exit write_ns ---
 --- in v_hubbard ---
Hubbard energy    0.0000
 -------

     total cpu time spent up to now is       46.4 secs

     total energy              =    -536.65041358 Ry
     Harris-Foulkes estimate   =    -539.70505778 Ry
     estimated scf accuracy    <       9.69767804 Ry

     total magnetization       =    10.19 Bohr mag/cell
     absolute magnetization    =    10.22 Bohr mag/cell

     iteration #  2     ecut=    30.00 Ry     beta=0.20
     Davidson diagonalization with overlap
     ethr =  1.00E-02,  avg # of iterations =  3.1
 --- enter write_ns ---
 LDA+U parameters:
U( 1)     =  0.00000000
alpha( 1) =  0.00000000
U( 2)     =  0.00000000
alpha( 2) =  0.00000000
U( 3)     =  0.00000000
alpha( 3) =  0.00000000
U( 4)     =  0.00000000
alpha( 4) =  0.00000000
atom    1   Tr[ns(na)] (up, down, total) =   4.98102  2.03379  7.01481
   spin  1
    eigenvalues: 
  0.996  0.996  0.996  0.997  0.997
    eigenvectors:
  0.000  0.000  1.000  0.000  0.000
  0.585  0.002  0.000  0.404  0.009
  0.002  0.585  0.000  0.009  0.404
  0.249  0.164  0.000  0.464  0.124
  0.164  0.249  0.000  0.124  0.464
    occupations:
  0.996  0.000  0.000  0.000  0.000
  0.000  0.996  0.000  0.000  0.000
  0.000  0.000  0.996  0.000  0.000
  0.000  0.000  0.000  0.996  0.000
  0.000  0.000  0.000  0.000  0.996
   spin  2
    eigenvalues: 
  0.352  0.352  0.439  0.439  0.453
    eigenvectors:
  0.000  0.000  0.000  0.000  1.000
  0.423  0.214  0.070  0.293  0.000
  0.214  0.423  0.293  0.070  0.000
  0.357  0.006  0.555  0.082  0.000
  0.006  0.357  0.082  0.555  0.000
    occupations:
  0.453  0.000  0.000  0.000  0.000
  0.000  0.383  0.000 -0.031  0.028
  0.000  0.000  0.383  0.028  0.031
  0.000 -0.031  0.028  0.407  0.000
  0.000  0.028  0.031  0.000  0.407
atomic mag. moment =     2.947235
atom    2   Tr[ns(na)] (up, down, total) =   4.98081  2.12490  7.10570
   spin  1
    eigenvalues: 
  0.996  0.996  0.996  0.997  0.997
    eigenvectors:
  0.000  0.000  1.000  0.000  0.000
  0.401  0.186  0.000  0.131  0.282
  0.186  0.401  0.000  0.282  0.131
  0.412  0.000  0.000  0.521  0.066
  0.000  0.412  0.000  0.066  0.521
    occupations:
  0.996  0.000  0.000  0.000  0.000
  0.000  0.996  0.000  0.000  0.000
  0.000  0.000  0.996  0.000  0.000
  0.000  0.000  0.000  0.996  0.000
  0.000  0.000  0.000  0.000  0.996
   spin  2
    eigenvalues: 
  0.350  0.350  0.470  0.470  0.485
    eigenvectors:
  0.000  0.000  0.000  0.000  1.000
  0.641  0.001  0.320  0.038  0.000
  0.001  0.641  0.038  0.320  0.000
  0.150  0.208  0.497  0.145  0.000
  0.208  0.150  0.145  0.497  0.000
    occupations:
  0.485  0.000  0.000  0.000  0.000
  0.000  0.393  0.000  0.039  0.042
  0.000  0.000  0.393  0.042 -0.039
  0.000  0.039  0.042  0.427  0.000
  0.000  0.042 -0.039  0.000  0.427
atomic mag. moment =     2.855907
atom    3   Tr[ns(na)] (up, down, total) =   1.79498  1.77561  3.57059
   spin  1
    eigenvalues: 
  0.332  0.332  0.365  0.383  0.383
    eigenvectors:
  0.000  0.000  1.000  0.000  0.000
  0.731  0.157  0.000  0.018  0.094
  0.157  0.731  0.000  0.094  0.018
  0.020  0.092  0.000  0.744  0.144
  0.092  0.020  0.000  0.144  0.744
    occupations:
  0.365  0.000  0.000  0.000  0.000
  0.000  0.337  0.000  0.000  0.016
  0.000  0.000  0.337  0.016  0.000
  0.000  0.000  0.016  0.378  0.000
  0.000  0.016  0.000  0.000  0.378
   spin  2
    eigenvalues: 
  0.325  0.325  0.363  0.381  0.381
    eigenvectors:
  0.000  0.000  1.000  0.000  0.000
  0.728  0.157  0.000  0.019  0.096
  0.157  0.728  0.000  0.096  0.019
  0.021  0.094  0.000  0.739  0.146
  0.094  0.021  0.000  0.146  0.739
    occupations:
  0.363  0.000  0.000  0.000  0.000
  0.000  0.331  0.000  0.000  0.018
  0.000  0.000  0.331  0.018  0.000
  0.000  0.000  0.018  0.375  0.000
  0.000  0.018  0.000  0.000  0.375
atomic mag. moment =     0.019375
atom    4   Tr[ns(na)] (up, down, total) =   1.79498  1.77561  3.57059
   spin  1
    eigenvalues: 
  0.332  0.332  0.365  0.383  0.383
    eigenvectors:
  0.000  0.000  1.000  0.000  0.000
  0.731  0.156  0.000  0.018  0.094
  0.156  0.731  0.000  0.094  0.018
  0.020  0.092  0.000  0.744  0.144
  0.092  0.020  0.000  0.144  0.744
    occupations:
  0.365  0.000  0.000  0.000  0.000
  0.000  0.337  0.000  0.000  0.016
  0.000  0.000  0.337  0.016  0.000
  0.000  0.000  0.016  0.378  0.000
  0.000  0.016  0.000  0.000  0.378
   spin  2
    eigenvalues: 
  0.325  0.325  0.363  0.381  0.381
    eigenvectors:
  0.000  0.000  1.000  0.000  0.000
  0.728  0.157  0.000  0.019  0.096
  0.157  0.728  0.000  0.096  0.019
  0.021  0.094  0.000  0.739  0.146
  0.094  0.021  0.000  0.146  0.739
    occupations:
  0.363  0.000  0.000  0.000  0.000
  0.000  0.331  0.000  0.000  0.018
  0.000  0.000  0.331  0.018  0.000
  0.000  0.000  0.018  0.375  0.000
  0.000  0.018  0.000  0.000  0.375
atomic mag. moment =     0.019375
atom    5   Tr[ns(na)] (up, down, total) =   2.88672  2.78806  5.67478
   spin  1
    eigenvalues: 
  0.956  0.965  0.966
    eigenvectors:
  0.196  0.804  0.000
  0.606  0.149  0.245
  0.198  0.047  0.755
    occupations:
  0.963  0.003  0.002
  0.003  0.960 -0.003
  0.002 -0.003  0.964
   spin  2
    eigenvalues: 
  0.906  0.941  0.941
    eigenvectors:
  0.322  0.674  0.005
  0.511  0.202  0.287
  0.168  0.124  0.708
    occupations:
  0.930  0.014  0.008
  0.014  0.923 -0.010
  0.008 -0.010  0.935
atomic mag. moment =     0.098660
atom    6   Tr[ns(na)] (up, down, total) =   2.88672  2.78806  5.67478
   spin  1
    eigenvalues: 
  0.956  0.965  0.966
    eigenvectors:
  0.196  0.804  0.000
  0.000  0.000  1.000
  0.804  0.196  0.000
    occupations:
  0.963  0.000 -0.003
  0.000  0.966  0.000
 -0.003  0.000  0.958
   spin  2
    eigenvalues: 
  0.906  0.941  0.941
    eigenvectors:
  0.322  0.674  0.005
  0.000  0.006  0.994
  0.678  0.320  0.002
    occupations:
  0.930  0.000 -0.017
  0.000  0.941  0.000
 -0.017  0.000  0.917
atomic mag. moment =     0.098660
atom    7   Tr[ns(na)] (up, down, total) =   2.88672  2.78806  5.67478
   spin  1
    eigenvalues: 
  0.956  0.965  0.966
    eigenvectors:
  0.196  0.804  0.000
  0.600  0.145  0.255
  0.204  0.051  0.745
    occupations:
  0.963 -0.003  0.002
 -0.003  0.960  0.003
  0.002  0.003  0.964
   spin  2
    eigenvalues: 
  0.906  0.941  0.941
    eigenvectors:
  0.322  0.674  0.005
  0.507  0.281  0.212
  0.172  0.046  0.783
    occupations:
  0.930 -0.014  0.008
 -0.014  0.923  0.011
  0.008  0.011  0.935
atomic mag. moment =     0.098660
atom    8   Tr[ns(na)] (up, down, total) =   2.88672  2.78806  5.67478
   spin  1
    eigenvalues: 
  0.956  0.965  0.966
    eigenvectors:
  0.196  0.804  0.000
  0.000  0.000  1.000
  0.804  0.196  0.000
    occupations:
  0.963  0.000 -0.003
  0.000  0.966  0.000
 -0.003  0.000  0.958
   spin  2
    eigenvalues: 
  0.906  0.941  0.941
    eigenvectors:
  0.322  0.674  0.005
  0.000  0.006  0.994
  0.678  0.320  0.002
    occupations:
  0.930  0.000 -0.017
  0.000  0.941  0.000
 -0.017  0.000  0.917
atomic mag. moment =     0.098660
atom    9   Tr[ns(na)] (up, down, total) =   2.88672  2.78806  5.67478
   spin  1
    eigenvalues: 
  0.956  0.965  0.966
    eigenvectors:
  0.196  0.804  0.000
  0.606  0.149  0.245
  0.198  0.047  0.755
    occupations:
  0.963  0.003  0.002
  0.003  0.960 -0.003
  0.002 -0.003  0.964
   spin  2
    eigenvalues: 
  0.906  0.941  0.941
    eigenvectors:
  0.322  0.674  0.005
  0.511  0.202  0.287
  0.168  0.124  0.708
    occupations:
  0.930  0.014  0.008
  0.014  0.923 -0.010
  0.008 -0.010  0.935
atomic mag. moment =     0.098660
atom   10   Tr[ns(na)] (up, down, total) =   2.88672  2.78806  5.67478
   spin  1
    eigenvalues: 
  0.956  0.965  0.966
    eigenvectors:
  0.196  0.804  0.000
  0.600  0.145  0.255
  0.204  0.051  0.745
    occupations:
  0.963 -0.003  0.002
 -0.003  0.960  0.003
  0.002  0.003  0.964
   spin  2
    eigenvalues: 
  0.906  0.941  0.941
    eigenvectors:
  0.322  0.674  0.005
  0.507  0.281  0.212
  0.172  0.046  0.783
    occupations:
  0.930 -0.014  0.008
 -0.014  0.923  0.011
  0.008  0.011  0.935
atomic mag. moment =     0.098660
N of occupied +U levels =  55.3103707
 --- exit write_ns ---
 --- in v_hubbard ---
Hubbard energy    0.0000
 -------

     total cpu time spent up to now is       72.5 secs

     total energy              =    -537.78421037 Ry
     Harris-Foulkes estimate   =    -537.77272527 Ry
     estimated scf accuracy    <       1.00284286 Ry

     total magnetization       =     8.00 Bohr mag/cell
     absolute magnetization    =     8.04 Bohr mag/cell

     iteration #  3     ecut=    30.00 Ry     beta=0.20
     Davidson diagonalization with overlap
     ethr =  1.32E-03,  avg # of iterations =  2.0
 --- enter write_ns ---
 LDA+U parameters:
U( 1)     =  0.00000000
alpha( 1) =  0.00000000
U( 2)     =  0.00000000
alpha( 2) =  0.00000000
U( 3)     =  0.00000000
alpha( 3) =  0.00000000
U( 4)     =  0.00000000
alpha( 4) =  0.00000000
atom    1   Tr[ns(na)] (up, down, total) =   4.96642  2.92210  7.88852
   spin  1
    eigenvalues: 
  0.991  0.991  0.995  0.995  0.995
    eigenvectors:
  0.000  0.000  0.000  0.000  1.000
  0.397  0.279  0.003  0.321  0.000
  0.279  0.397  0.321  0.003  0.000
  0.289  0.035  0.554  0.121  0.000
  0.035  0.289  0.121  0.554  0.000
    occupations:
  0.995  0.000  0.000  0.000  0.000
  0.000  0.992  0.000 -0.001  0.001
  0.000  0.000  0.992  0.001  0.001
  0.000 -0.001  0.001  0.993  0.000
  0.000  0.001  0.001  0.000  0.993
   spin  2
    eigenvalues: 
  0.470  0.470  0.660  0.660  0.663
    eigenvectors:
  0.000  0.000  0.000  0.000  1.000
  0.379  0.268  0.015  0.338  0.000
  0.268  0.379  0.338  0.015  0.000
  0.332  0.022  0.543  0.104  0.000
  0.022  0.332  0.104  0.543  0.000
    occupations:
  0.663  0.000  0.000  0.000  0.000
  0.000  0.537  0.000 -0.053  0.074
  0.000  0.000  0.537  0.074  0.053
  0.000 -0.053  0.074  0.593  0.000
  0.000  0.074  0.053  0.000  0.593
atomic mag. moment =     2.044328
atom    2   Tr[ns(na)] (up, down, total) =   4.96708  2.29751  7.26459
   spin  1
    eigenvalues: 
  0.991  0.991  0.995  0.995  0.995
    eigenvectors:
  0.000  0.000  0.000  0.000  1.000
  0.663  0.005  0.264  0.068  0.000
  0.005  0.663  0.068  0.264  0.000
  0.072  0.259  0.500  0.169  0.000
  0.259  0.072  0.169  0.500  0.000
    occupations:
  0.995  0.000  0.000  0.000  0.000
  0.000  0.992  0.000  0.001  0.002
  0.000  0.000  0.992  0.002 -0.001
  0.000  0.001  0.002  0.994  0.000
  0.000  0.002 -0.001  0.000  0.994
   spin  2
    eigenvalues: 
  0.437  0.437  0.474  0.474  0.475
    eigenvectors:
  0.000  0.000  0.000  0.000  1.000
  0.563  0.038  0.395  0.004  0.000
  0.038  0.563  0.004  0.395  0.000
  0.307  0.093  0.531  0.070  0.000
  0.093  0.307  0.070  0.531  0.000
    occupations:
  0.475  0.000  0.000  0.000  0.000
  0.000  0.452  0.000  0.017  0.004
  0.000  0.000  0.452  0.004 -0.017
  0.000  0.017  0.004  0.459  0.000
  0.000  0.004 -0.017  0.000  0.459
atomic mag. moment =     2.669575
atom    3   Tr[ns(na)] (up, down, total) =   1.91872  1.85136  3.77008
   spin  1
    eigenvalues: 
  0.356  0.356  0.389  0.408  0.408
    eigenvectors:
  0.000  0.000  1.000  0.000  0.000
  0.759  0.146  0.000  0.015  0.080
  0.146  0.759  0.000  0.080  0.015
  0.015  0.079  0.000  0.763  0.143
  0.079  0.015  0.000  0.143  0.763
    occupations:
  0.389  0.000  0.000  0.000  0.000
  0.000  0.361  0.000  0.000  0.015
  0.000  0.000  0.361  0.015  0.000
  0.000  0.000  0.015  0.403  0.000
  0.000  0.015  0.000  0.000  0.403
   spin  2
    eigenvalues: 
  0.342  0.342  0.379  0.394  0.394
    eigenvectors:
  0.000  0.000  1.000  0.000  0.000
  0.747  0.151  0.000  0.014  0.088
  0.151  0.747  0.000  0.088  0.014
  0.019  0.083  0.000  0.753  0.144
  0.083  0.019  0.000  0.144  0.753
    occupations:
  0.379  0.000  0.000  0.000  0.000
  0.000  0.347  0.000  0.000  0.016
  0.000  0.000  0.347  0.016  0.000
  0.000  0.000  0.016  0.389  0.000
  0.000  0.016  0.000  0.000  0.389
atomic mag. moment =     0.067363
atom    4   Tr[ns(na)] (up, down, total) =   1.91872  1.85136  3.77008
   spin  1
    eigenvalues: 
  0.356  0.356  0.389  0.408  0.408
    eigenvectors:
  0.000  0.000  1.000  0.000  0.000
  0.759  0.147  0.000  0.015  0.080
  0.147  0.759  0.000  0.080  0.015
  0.015  0.079  0.000  0.763  0.143
  0.079  0.015  0.000  0.143  0.763
    occupations:
  0.389  0.000  0.000  0.000  0.000
  0.000  0.361  0.000  0.000  0.015
  0.000  0.000  0.361  0.015  0.000
  0.000  0.000  0.015  0.403  0.000
  0.000  0.015  0.000  0.000  0.403
   spin  2
    eigenvalues: 
  0.342  0.342  0.379  0.394  0.394
    eigenvectors:
  0.000  0.000  1.000  0.000  0.000
  0.746  0.151  0.000  0.014  0.088
  0.151  0.746  0.000  0.088  0.014
  0.020  0.083  0.000  0.754  0.144
  0.083  0.020  0.000  0.144  0.754
    occupations:
  0.379  0.000  0.000  0.000  0.000
  0.000  0.347  0.000  0.000  0.016
  0.000  0.000  0.347  0.016  0.000
  0.000  0.000  0.016  0.389  0.000
  0.000  0.016  0.000  0.000  0.389
atomic mag. moment =     0.067363
atom    5   Tr[ns(na)] (up, down, total) =   2.82839  2.66018  5.48857
   spin  1
    eigenvalues: 
  0.927  0.950  0.951
    eigenvectors:
  0.316  0.684  0.000
  0.514  0.235  0.251
  0.171  0.081  0.749
    occupations:
  0.943  0.009  0.005
  0.009  0.939 -0.007
  0.005 -0.007  0.947
   spin  2
    eigenvalues: 
  0.855  0.901  0.904
    eigenvectors:
  0.342  0.657  0.001
  0.463  0.260  0.278
  0.195  0.083  0.721
    occupations:
  0.885  0.018  0.012
  0.018  0.881 -0.015
  0.012 -0.015  0.894
atomic mag. moment =     0.168212
atom    6   Tr[ns(na)] (up, down, total) =   2.82839  2.66018  5.48857
   spin  1
    eigenvalues: 
  0.927  0.950  0.951
    eigenvectors:
  0.316  0.684  0.000
  0.000  0.000  1.000
  0.684  0.316  0.000
    occupations:
  0.943  0.000 -0.011
  0.000  0.951  0.000
 -0.011  0.000  0.934
   spin  2
    eigenvalues: 
  0.855  0.901  0.904
    eigenvectors:
  0.342  0.657  0.001
  0.002  0.000  0.998
  0.656  0.343  0.001
    occupations:
  0.885  0.001 -0.022
  0.001  0.904  0.002
 -0.022  0.002  0.871
atomic mag. moment =     0.168212
atom    7   Tr[ns(na)] (up, down, total) =   2.82839  2.66018  5.48857
   spin  1
    eigenvalues: 
  0.927  0.950  0.951
    eigenvectors:
  0.316  0.684  0.000
  0.513  0.239  0.249
  0.171  0.077  0.751
    occupations:
  0.943 -0.009  0.005
 -0.009  0.939  0.007
  0.005  0.007  0.947
   spin  2
    eigenvalues: 
  0.855  0.901  0.904
    eigenvectors:
  0.342  0.657  0.001
  0.522  0.255  0.223
  0.136  0.088  0.776
    occupations:
  0.885 -0.019  0.010
 -0.019  0.878  0.014
  0.010  0.014  0.897
atomic mag. moment =     0.168212
atom    8   Tr[ns(na)] (up, down, total) =   2.82839  2.66018  5.48857
   spin  1
    eigenvalues: 
  0.927  0.950  0.951
    eigenvectors:
  0.316  0.684  0.000
  0.000  0.000  1.000
  0.684  0.316  0.000
    occupations:
  0.943  0.000 -0.011
  0.000  0.951  0.000
 -0.011  0.000  0.934
   spin  2
    eigenvalues: 
  0.855  0.901  0.904
    eigenvectors:
  0.342  0.657  0.001
  0.002  0.000  0.998
  0.656  0.343  0.001
    occupations:
  0.885  0.001 -0.022
  0.001  0.904  0.002
 -0.022  0.002  0.871
atomic mag. moment =     0.168212
atom    9   Tr[ns(na)] (up, down, total) =   2.82839  2.66018  5.48857
   spin  1
    eigenvalues: 
  0.927  0.950  0.951
    eigenvectors:
  0.316  0.684  0.000
  0.514  0.235  0.251
  0.171  0.081  0.749
    occupations:
  0.943  0.009  0.005
  0.009  0.939 -0.007
  0.005 -0.007  0.947
   spin  2
    eigenvalues: 
  0.855  0.901  0.904
    eigenvectors:
  0.342  0.657  0.001
  0.463  0.260  0.278
  0.195  0.083  0.721
    occupations:
  0.885  0.018  0.012
  0.018  0.881 -0.015
  0.012 -0.015  0.894
atomic mag. moment =     0.168212
atom   10   Tr[ns(na)] (up, down, total) =   2.82839  2.66018  5.48857
   spin  1
    eigenvalues: 
  0.927  0.950  0.951
    eigenvectors:
  0.316  0.684  0.000
  0.513  0.239  0.249
  0.171  0.077  0.751
    occupations:
  0.943 -0.009  0.005
 -0.009  0.939  0.007
  0.005  0.007  0.947
   spin  2
    eigenvalues: 
  0.855  0.901  0.904
    eigenvectors:
  0.342  0.657  0.001
  0.522  0.255  0.223
  0.136  0.088  0.776
    occupations:
  0.885 -0.019  0.010
 -0.019  0.878  0.014
  0.010  0.014  0.897
atomic mag. moment =     0.168212
N of occupied +U levels =  55.6246840
 --- exit write_ns ---
 --- in v_hubbard ---
Hubbard energy    0.0000
 -------

     total cpu time spent up to now is       96.5 secs

     total energy              =    -537.93552629 Ry
     Harris-Foulkes estimate   =    -537.90455215 Ry
     estimated scf accuracy    <       0.70854916 Ry

     total magnetization       =     7.54 Bohr mag/cell
     absolute magnetization    =     7.54 Bohr mag/cell

     iteration #  4     ecut=    30.00 Ry     beta=0.20
     Davidson diagonalization with overlap
     ethr =  9.32E-04,  avg # of iterations =  1.0
 --- enter write_ns ---
 LDA+U parameters:
U( 1)     =  0.00000000
alpha( 1) =  0.00000000
U( 2)     =  0.00000000
alpha( 2) =  0.00000000
U( 3)     =  0.00000000
alpha( 3) =  0.00000000
U( 4)     =  0.00000000
alpha( 4) =  0.00000000
atom    1   Tr[ns(na)] (up, down, total) =   4.95218  1.59564  6.54783
   spin  1
    eigenvalues: 
  0.981  0.981  0.997  0.997  0.997
    eigenvectors:
  0.000  0.000  0.000  0.000  1.000
  0.403  0.251  0.026  0.320  0.000
  0.251  0.403  0.320  0.026  0.000
  0.330  0.016  0.553  0.101  0.000
  0.016  0.330  0.101  0.553  0.000
    occupations:
  0.997  0.000  0.000  0.000  0.000
  0.000  0.986  0.000 -0.005  0.006
  0.000  0.000  0.986  0.006  0.005
  0.000 -0.005  0.006  0.991  0.000
  0.000  0.006  0.005  0.000  0.991
   spin  2
    eigenvalues: 
  0.267  0.267  0.278  0.391  0.391
    eigenvectors:
  0.000  0.000  1.000  0.000  0.000
  0.022  0.333  0.000  0.301  0.345
  0.333  0.022  0.000  0.345  0.301
  0.493  0.153  0.000  0.275  0.080
  0.153  0.493  0.000  0.080  0.275
    occupations:
  0.278  0.000  0.000  0.000  0.000
  0.000  0.347  0.000  0.015 -0.057
  0.000  0.000  0.347 -0.057 -0.015
  0.000  0.015 -0.057  0.311  0.000
  0.000 -0.057 -0.015  0.000  0.311
atomic mag. moment =     3.356540
atom    2   Tr[ns(na)] (up, down, total) =   4.96360  3.48050  8.44410
   spin  1
    eigenvalues: 
  0.989  0.989  0.995  0.995  0.995
    eigenvectors:
  0.000  0.000  0.000  0.000  1.000
  0.660  0.004  0.280  0.057  0.000
  0.004  0.660  0.057  0.280  0.000
  0.093  0.243  0.500  0.164  0.000
  0.243  0.093  0.164  0.500  0.000
    occupations:
  0.995  0.000  0.000  0.000  0.000
  0.000  0.991  0.000  0.002  0.002
  0.000  0.000  0.991  0.002 -0.002
  0.000  0.002  0.002  0.993  0.000
  0.000  0.002 -0.002  0.000  0.993
   spin  2
    eigenvalues: 
  0.476  0.476  0.842  0.842  0.844
    eigenvectors:
  0.000  0.000  0.000  0.000  1.000
  0.647  0.001  0.281  0.071  0.000
  0.001  0.647  0.071  0.281  0.000
  0.091  0.260  0.482  0.167  0.000
  0.260  0.091  0.167  0.482  0.000
    occupations:
  0.844  0.000  0.000  0.000  0.000
  0.000  0.605  0.000  0.095  0.147
  0.000  0.000  0.605  0.147 -0.095
  0.000  0.095  0.147  0.713  0.000
  0.000  0.147 -0.095  0.000  0.713
atomic mag. moment =     1.483106
atom    3   Tr[ns(na)] (up, down, total) =   1.91783  1.86577  3.78360
   spin  1
    eigenvalues: 
  0.356  0.356  0.389  0.408  0.408
    eigenvectors:
  0.000  0.000  1.000  0.000  0.000
  0.760  0.147  0.000  0.014  0.079
  0.147  0.760  0.000  0.079  0.014
  0.016  0.078  0.000  0.764  0.143
  0.078  0.016  0.000  0.143  0.764
    occupations:
  0.389  0.000  0.000  0.000  0.000
  0.000  0.361  0.000  0.000  0.015
  0.000  0.000  0.361  0.015  0.000
  0.000  0.000  0.015  0.403  0.000
  0.000  0.015  0.000  0.000  0.403
   spin  2
    eigenvalues: 
  0.345  0.345  0.381  0.397  0.397
    eigenvectors:
  0.000  0.000  1.000  0.000  0.000
  0.757  0.144  0.000  0.020  0.079
  0.144  0.757  0.000  0.079  0.020
  0.012  0.086  0.000  0.757  0.144
  0.086  0.012  0.000  0.144  0.757
    occupations:
  0.381  0.000  0.000  0.000  0.000
  0.000  0.350  0.000  0.001  0.016
  0.000  0.000  0.350  0.016 -0.001
  0.000  0.001  0.016  0.392  0.000
  0.000  0.016 -0.001  0.000  0.392
atomic mag. moment =     0.052060
atom    4   Tr[ns(na)] (up, down, total) =   1.91783  1.86577  3.78360
   spin  1
    eigenvalues: 
  0.356  0.356  0.389  0.408  0.408
    eigenvectors:
  0.000  0.000  1.000  0.000  0.000
  0.760  0.147  0.000  0.014  0.079
  0.147  0.760  0.000  0.079  0.014
  0.016  0.078  0.000  0.764  0.142
  0.078  0.016  0.000  0.142  0.764
    occupations:
  0.389  0.000  0.000  0.000  0.000
  0.000  0.361  0.000  0.000  0.015
  0.000  0.000  0.361  0.015  0.000
  0.000  0.000  0.015  0.403  0.000
  0.000  0.015  0.000  0.000  0.403
   spin  2
    eigenvalues: 
  0.345  0.345  0.381  0.397  0.397
    eigenvectors:
  0.000  0.000  1.000  0.000  0.000
  0.758  0.144  0.000  0.020  0.079
  0.144  0.758  0.000  0.079  0.020
  0.012  0.086  0.000  0.757  0.144
  0.086  0.012  0.000  0.144  0.757
    occupations:
  0.381  0.000  0.000  0.000  0.000
  0.000  0.350  0.000  0.001  0.016
  0.000  0.000  0.350  0.016 -0.001
  0.000  0.001  0.016  0.392  0.000
  0.000  0.016 -0.001  0.000  0.392
atomic mag. moment =     0.052060
atom    5   Tr[ns(na)] (up, down, total) =   2.81686  2.69366  5.51052
   spin  1
    eigenvalues: 
  0.915  0.950  0.951
    eigenvectors:
  0.333  0.666  0.001
  0.487  0.265  0.248
  0.180  0.069  0.751
    occupations:
  0.939  0.014  0.009
  0.014  0.933 -0.011
  0.009 -0.011  0.945
   spin  2
    eigenvalues: 
  0.862  0.915  0.916
    eigenvectors:
  0.334  0.656  0.010
  0.576  0.239  0.185
  0.090  0.105  0.805
    occupations:
  0.897  0.023  0.009
  0.023  0.885 -0.013
  0.009 -0.013  0.911
atomic mag. moment =     0.123200
atom    6   Tr[ns(na)] (up, down, total) =   2.81686  2.69366  5.51052
   spin  1
    eigenvalues: 
  0.915  0.950  0.951
    eigenvectors:
  0.333  0.666  0.001
  0.000  0.001  0.999
  0.667  0.333  0.000
    occupations:
  0.939  0.000 -0.017
  0.000  0.951  0.001
 -0.017  0.001  0.927
   spin  2
    eigenvalues: 
  0.862  0.915  0.916
    eigenvectors:
  0.334  0.656  0.010
  0.014  0.001  0.984
  0.652  0.342  0.006
    occupations:
  0.897 -0.004 -0.025
 -0.004  0.916 -0.005
 -0.025 -0.005  0.881
atomic mag. moment =     0.123200
atom    7   Tr[ns(na)] (up, down, total) =   2.81686  2.69366  5.51052
   spin  1
    eigenvalues: 
  0.915  0.950  0.951
    eigenvectors:
  0.333  0.666  0.001
  0.514  0.235  0.251
  0.154  0.099  0.748
    occupations:
  0.939 -0.015  0.008
 -0.015  0.933  0.010
  0.008  0.010  0.946
   spin  2
    eigenvalues: 
  0.862  0.915  0.916
    eigenvectors:
  0.334  0.656  0.010
  0.409  0.275  0.316
  0.258  0.068  0.674
    occupations:
  0.897 -0.019  0.016
 -0.019  0.894  0.018
  0.016  0.018  0.902
atomic mag. moment =     0.123200
atom    8   Tr[ns(na)] (up, down, total) =   2.81686  2.69366  5.51052
   spin  1
    eigenvalues: 
  0.915  0.950  0.951
    eigenvectors:
  0.333  0.666  0.001
  0.000  0.001  0.999
  0.667  0.333  0.000
    occupations:
  0.939  0.000 -0.017
  0.000  0.951  0.001
 -0.017  0.001  0.927
   spin  2
    eigenvalues: 
  0.862  0.915  0.916
    eigenvectors:
  0.334  0.656  0.010
  0.014  0.001  0.984
  0.652  0.342  0.006
    occupations:
  0.897 -0.004 -0.025
 -0.004  0.916 -0.005
 -0.025 -0.005  0.881
atomic mag. moment =     0.123200
atom    9   Tr[ns(na)] (up, down, total) =   2.81686  2.69366  5.51052
   spin  1
    eigenvalues: 
  0.915  0.950  0.951
    eigenvectors:
  0.333  0.666  0.001
  0.487  0.265  0.248
  0.180  0.069  0.751
    occupations:
  0.939  0.014  0.009
  0.014  0.933 -0.011
  0.009 -0.011  0.945
   spin  2
    eigenvalues: 
  0.862  0.915  0.916
    eigenvectors:
  0.334  0.656  0.010
  0.576  0.239  0.185
  0.090  0.105  0.805
    occupations:
  0.897  0.023  0.009
  0.023  0.885 -0.013
  0.009 -0.013  0.911
atomic mag. moment =     0.123200
atom   10   Tr[ns(na)] (up, down, total) =   2.81686  2.69366  5.51052
   spin  1
    eigenvalues: 
  0.915  0.950  0.951
    eigenvectors:
  0.333  0.666  0.001
  0.514  0.235  0.251
  0.154  0.099  0.748
    occupations:
  0.939 -0.015  0.008
 -0.015  0.933  0.010
  0.008  0.010  0.946
   spin  2
    eigenvalues: 
  0.862  0.915  0.916
    eigenvectors:
  0.334  0.656  0.010
  0.409  0.275  0.316
  0.258  0.068  0.674
    occupations:
  0.897 -0.019  0.016
 -0.019  0.894  0.018
  0.016  0.018  0.902
atomic mag. moment =     0.123200
N of occupied +U levels =  55.6222289
 --- exit write_ns ---

     negative rho (up, down):  0.000E+00 0.616E-05
 --- in v_hubbard ---
Hubbard energy    0.0000
 -------

     total cpu time spent up to now is      120.6 secs

     total energy              =    -538.06863766 Ry
     Harris-Foulkes estimate   =    -538.04680702 Ry
     estimated scf accuracy    <       2.01758008 Ry

     total magnetization       =     7.20 Bohr mag/cell
     absolute magnetization    =     7.20 Bohr mag/cell

     iteration #  5     ecut=    30.00 Ry     beta=0.20
     Davidson diagonalization with overlap
     ethr =  9.32E-04,  avg # of iterations =  1.0
 --- enter write_ns ---
 LDA+U parameters:
U( 1)     =  0.00000000
alpha( 1) =  0.00000000
U( 2)     =  0.00000000
alpha( 2) =  0.00000000
U( 3)     =  0.00000000
alpha( 3) =  0.00000000
U( 4)     =  0.00000000
alpha( 4) =  0.00000000
atom    1   Tr[ns(na)] (up, down, total) =   4.96816  2.34251  7.31066
   spin  1
    eigenvalues: 
  0.988  0.988  0.998  0.998  0.998
    eigenvectors:
  0.000  0.000  0.000  0.000  1.000
  0.406  0.251  0.025  0.318  0.000
  0.251  0.406  0.318  0.025  0.000
  0.326  0.017  0.555  0.102  0.000
  0.017  0.326  0.102  0.555  0.000
    occupations:
  0.998  0.000  0.000  0.000  0.000
  0.000  0.991  0.000 -0.003  0.004
  0.000  0.000  0.991  0.004  0.003
  0.000 -0.003  0.004  0.994  0.000
  0.000  0.004  0.003  0.000  0.994
   spin  2
    eigenvalues: 
  0.404  0.404  0.509  0.509  0.516
    eigenvectors:
  0.000  0.000  0.000  0.000  1.000
  0.429  0.215  0.065  0.291  0.000
  0.215  0.429  0.291  0.065  0.000
  0.350  0.007  0.558  0.086  0.000
  0.007  0.350  0.086  0.558  0.000
    occupations:
  0.516  0.000  0.000  0.000  0.000
  0.000  0.442  0.000 -0.036  0.034
  0.000  0.000  0.442  0.034  0.036
  0.000 -0.036  0.034  0.472  0.000
  0.000  0.034  0.036  0.000  0.472
atomic mag. moment =     2.625648
atom    2   Tr[ns(na)] (up, down, total) =   4.96909  2.49837  7.46746
   spin  1
    eigenvalues: 
  0.988  0.988  0.997  0.997  0.998
    eigenvectors:
  0.000  0.000  0.000  0.000  1.000
  0.655  0.003  0.295  0.047  0.000
  0.003  0.655  0.047  0.295  0.000
  0.113  0.229  0.499  0.159  0.000
  0.229  0.113  0.159  0.499  0.000
    occupations:
  0.998  0.000  0.000  0.000  0.000
  0.000  0.991  0.000  0.003  0.003
  0.000  0.000  0.991  0.003 -0.003
  0.000  0.003  0.003  0.994  0.000
  0.000  0.003 -0.003  0.000  0.994
   spin  2
    eigenvalues: 
  0.405  0.405  0.560  0.560  0.567
    eigenvectors:
  0.000  0.000  0.000  0.000  1.000
  0.646  0.001  0.311  0.042  0.000
  0.001  0.646  0.042  0.311  0.000
  0.140  0.213  0.499  0.148  0.000
  0.213  0.140  0.148  0.499  0.000
    occupations:
  0.567  0.000  0.000  0.000  0.000
  0.000  0.460  0.000  0.049  0.056
  0.000  0.000  0.460  0.056 -0.049
  0.000  0.049  0.056  0.506  0.000
  0.000  0.056 -0.049  0.000  0.506
atomic mag. moment =     2.470723
atom    3   Tr[ns(na)] (up, down, total) =   1.92029  1.87685  3.79714
   spin  1
    eigenvalues: 
  0.356  0.356  0.389  0.409  0.409
    eigenvectors:
  0.000  0.000  1.000  0.000  0.000
  0.764  0.145  0.000  0.014  0.077
  0.145  0.764  0.000  0.077  0.014
  0.015  0.076  0.000  0.767  0.142
  0.076  0.015  0.000  0.142  0.767
    occupations:
  0.389  0.000  0.000  0.000  0.000
  0.000  0.361  0.000  0.000  0.015
  0.000  0.000  0.361  0.015  0.000
  0.000  0.000  0.015  0.404  0.000
  0.000  0.015  0.000  0.000  0.404
   spin  2
    eigenvalues: 
  0.346  0.346  0.384  0.400  0.400
    eigenvectors:
  0.000  0.000  1.000  0.000  0.000
  0.752  0.148  0.000  0.016  0.084
  0.148  0.752  0.000  0.084  0.016
  0.016  0.084  0.000  0.755  0.144
  0.084  0.016  0.000  0.144  0.755
    occupations:
  0.384  0.000  0.000  0.000  0.000
  0.000  0.352  0.000  0.000  0.016
  0.000  0.000  0.352  0.016  0.000
  0.000  0.000  0.016  0.395  0.000
  0.000  0.016  0.000  0.000  0.395
atomic mag. moment =     0.043444
atom    4   Tr[ns(na)] (up, down, total) =   1.92029  1.87685  3.79714
   spin  1
    eigenvalues: 
  0.356  0.356  0.389  0.409  0.409
    eigenvectors:
  0.000  0.000  1.000  0.000  0.000
  0.764  0.145  0.000  0.014  0.077
  0.145  0.764  0.000  0.077  0.014
  0.015  0.076  0.000  0.767  0.142
  0.076  0.015  0.000  0.142  0.767
    occupations:
  0.389  0.000  0.000  0.000  0.000
  0.000  0.361  0.000  0.000  0.015
  0.000  0.000  0.361  0.015  0.000
  0.000  0.000  0.015  0.404  0.000
  0.000  0.015  0.000  0.000  0.404
   spin  2
    eigenvalues: 
  0.346  0.346  0.384  0.400  0.400
    eigenvectors:
  0.000  0.000  1.000  0.000  0.000
  0.752  0.148  0.000  0.016  0.084
  0.148  0.752  0.000  0.084  0.016
  0.016  0.084  0.000  0.755  0.144
  0.084  0.016  0.000  0.144  0.755
    occupations:
  0.384  0.000  0.000  0.000  0.000
  0.000  0.352  0.000  0.000  0.016
  0.000  0.000  0.352  0.016  0.000
  0.000  0.000  0.016  0.395  0.000
  0.000  0.016  0.000  0.000  0.395
atomic mag. moment =     0.043444
atom    5   Tr[ns(na)] (up, down, total) =   2.83892  2.70611  5.54503
   spin  1
    eigenvalues: 
  0.935  0.951  0.953
    eigenvectors:
  0.284  0.716  0.000
  0.535  0.215  0.250
  0.181  0.069  0.750
    occupations:
  0.947  0.007  0.004
  0.007  0.943 -0.006
  0.004 -0.006  0.949
   spin  2
    eigenvalues: 
  0.876  0.914  0.916
    eigenvectors:
  0.330  0.670  0.000
  0.510  0.243  0.248
  0.160  0.088  0.752
    occupations:
  0.901  0.016  0.009
  0.016  0.895 -0.012
  0.009 -0.012  0.909
atomic mag. moment =     0.132807
atom    6   Tr[ns(na)] (up, down, total) =   2.83892  2.70611  5.54503
   spin  1
    eigenvalues: 
  0.935  0.951  0.953
    eigenvectors:
  0.284  0.716  0.000
  0.000  0.000  1.000
  0.716  0.284  0.000
    occupations:
  0.947  0.000 -0.008
  0.000  0.953  0.000
 -0.008  0.000  0.939
   spin  2
    eigenvalues: 
  0.876  0.914  0.916
    eigenvectors:
  0.330  0.670  0.000
  0.000  0.000  1.000
  0.670  0.330  0.000
    occupations:
  0.901  0.000 -0.018
  0.000  0.916  0.000
 -0.018  0.000  0.889
atomic mag. moment =     0.132807
atom    7   Tr[ns(na)] (up, down, total) =   2.83892  2.70611  5.54503
   spin  1
    eigenvalues: 
  0.935  0.951  0.953
    eigenvectors:
  0.284  0.716  0.000
  0.539  0.211  0.250
  0.177  0.073  0.750
    occupations:
  0.947 -0.007  0.004
 -0.007  0.943  0.006
  0.004  0.006  0.950
   spin  2
    eigenvalues: 
  0.876  0.914  0.916
    eigenvectors:
  0.330  0.670  0.000
  0.495  0.253  0.252
  0.175  0.078  0.748
    occupations:
  0.901 -0.015  0.009
 -0.015  0.896  0.012
  0.009  0.012  0.909
atomic mag. moment =     0.132807
atom    8   Tr[ns(na)] (up, down, total) =   2.83892  2.70611  5.54503
   spin  1
    eigenvalues: 
  0.935  0.951  0.953
    eigenvectors:
  0.284  0.716  0.000
  0.000  0.000  1.000
  0.716  0.284  0.000
    occupations:
  0.947  0.000 -0.008
  0.000  0.953  0.000
 -0.008  0.000  0.939
   spin  2
    eigenvalues: 
  0.876  0.914  0.916
    eigenvectors:
  0.330  0.670  0.000
  0.000  0.000  1.000
  0.670  0.330  0.000
    occupations:
  0.901  0.000 -0.018
  0.000  0.916  0.000
 -0.018  0.000  0.889
atomic mag. moment =     0.132807
atom    9   Tr[ns(na)] (up, down, total) =   2.83892  2.70611  5.54503
   spin  1
    eigenvalues: 
  0.935  0.951  0.953
    eigenvectors:
  0.284  0.716  0.000
  0.535  0.215  0.250
  0.181  0.069  0.750
    occupations:
  0.947  0.007  0.004
  0.007  0.943 -0.006
  0.004 -0.006  0.949
   spin  2
    eigenvalues: 
  0.876  0.914  0.916
    eigenvectors:
  0.330  0.670  0.000
  0.510  0.243  0.248
  0.160  0.088  0.752
    occupations:
  0.901  0.016  0.009
  0.016  0.895 -0.012
  0.009 -0.012  0.909
atomic mag. moment =     0.132807
atom   10   Tr[ns(na)] (up, down, total) =   2.83892  2.70611  5.54503
   spin  1
    eigenvalues: 
  0.935  0.951  0.953
    eigenvectors:
  0.284  0.716  0.000
  0.539  0.211  0.250
  0.177  0.073  0.750
    occupations:
  0.947 -0.007  0.004
 -0.007  0.943  0.006
  0.004  0.006  0.950
   spin  2
    eigenvalues: 
  0.876  0.914  0.916
    eigenvectors:
  0.330  0.670  0.000
  0.495  0.253  0.252
  0.175  0.078  0.748
    occupations:
  0.901 -0.015  0.009
 -0.015  0.896  0.012
  0.009  0.012  0.909
atomic mag. moment =     0.132807
N of occupied +U levels =  55.6425723
 --- exit write_ns ---

     negative rho (up, down):  0.000E+00 0.123E-03
 --- in v_hubbard ---
Hubbard energy    0.0000
 -------

     total cpu time spent up to now is      143.3 secs

     total energy              =    -538.23536830 Ry
     Harris-Foulkes estimate   =    -538.11501773 Ry
     estimated scf accuracy    <       0.20502951 Ry

     total magnetization       =     7.53 Bohr mag/cell
     absolute magnetization    =     7.53 Bohr mag/cell

     iteration #  6     ecut=    30.00 Ry     beta=0.20
     Davidson diagonalization with overlap
     ethr =  2.70E-04,  avg # of iterations =  2.1
 --- enter write_ns ---
 LDA+U parameters:
U( 1)     =  0.00000000
alpha( 1) =  0.00000000
U( 2)     =  0.00000000
alpha( 2) =  0.00000000
U( 3)     =  0.00000000
alpha( 3) =  0.00000000
U( 4)     =  0.00000000
alpha( 4) =  0.00000000
atom    1   Tr[ns(na)] (up, down, total) =   4.86609  3.34540  8.21149
   spin  1
    eigenvalues: 
  0.936  0.936  0.998  0.998  0.998
    eigenvectors:
  0.000  0.000  0.000  0.000  1.000
  0.401  0.248  0.031  0.320  0.000
  0.248  0.401  0.320  0.031  0.000
  0.337  0.014  0.552  0.097  0.000
  0.014  0.337  0.097  0.552  0.000
    occupations:
  0.998  0.000  0.000  0.000  0.000
  0.000  0.958  0.000 -0.019  0.023
  0.000  0.000  0.958  0.023  0.019
  0.000 -0.019  0.023  0.976  0.000
  0.000  0.023  0.019  0.000  0.976
   spin  2
    eigenvalues: 
  0.494  0.494  0.777  0.790  0.790
    eigenvectors:
  0.000  0.000  1.000  0.000  0.000
  0.361  0.292  0.000  0.002  0.345
  0.292  0.361  0.000  0.345  0.002
  0.314  0.033  0.000  0.534  0.119
  0.033  0.314  0.000  0.119  0.534
    occupations:
  0.777  0.000  0.000  0.000  0.000
  0.000  0.597  0.000 -0.070  0.122
  0.000  0.000  0.597  0.122  0.070
  0.000 -0.070  0.122  0.687  0.000
  0.000  0.122  0.070  0.000  0.687
atomic mag. moment =     1.520694
atom    2   Tr[ns(na)] (up, down, total) =   4.84851  2.95435  7.80286
   spin  1
    eigenvalues: 
  0.927  0.927  0.998  0.998  0.998
    eigenvectors:
  0.000  0.000  0.000  0.000  1.000
  0.647  0.002  0.307  0.044  0.000
  0.002  0.647  0.044  0.307  0.000
  0.125  0.226  0.492  0.157  0.000
  0.226  0.125  0.157  0.492  0.000
    occupations:
  0.998  0.000  0.000  0.000  0.000
  0.000  0.952  0.000  0.022  0.026
  0.000  0.000  0.952  0.026 -0.022
  0.000  0.022  0.026  0.973  0.000
  0.000  0.026 -0.022  0.000  0.973
   spin  2
    eigenvalues: 
  0.474  0.474  0.661  0.673  0.673
    eigenvectors:
  0.000  0.000  1.000  0.000  0.000
  0.654  0.001  0.000  0.267  0.078
  0.001  0.654  0.000  0.078  0.267
  0.080  0.265  0.000  0.488  0.167
  0.265  0.080  0.000  0.167  0.488
    occupations:
  0.661  0.000  0.000  0.000  0.000
  0.000  0.542  0.000  0.049  0.081
  0.000  0.000  0.542  0.081 -0.049
  0.000  0.049  0.081  0.604  0.000
  0.000  0.081 -0.049  0.000  0.604
atomic mag. moment =     1.894157
atom    3   Tr[ns(na)] (up, down, total) =   1.96066  1.94854  3.90920
   spin  1
    eigenvalues: 
  0.367  0.367  0.396  0.415  0.415
    eigenvectors:
  0.000  0.000  1.000  0.000  0.000
  0.795  0.134  0.000  0.010  0.060
  0.134  0.795  0.000  0.060  0.010
  0.011  0.060  0.000  0.791  0.138
  0.060  0.011  0.000  0.138  0.791
    occupations:
  0.396  0.000  0.000  0.000  0.000
  0.000  0.370  0.000  0.000  0.012
  0.000  0.000  0.370  0.012  0.000
  0.000  0.000  0.012  0.412  0.000
  0.000  0.012  0.000  0.000  0.412
   spin  2
    eigenvalues: 
  0.363  0.363  0.397  0.413  0.413
    eigenvectors:
  0.000  0.000  1.000  0.000  0.000
  0.769  0.144  0.000  0.011  0.076
  0.144  0.769  0.000  0.076  0.011
  0.016  0.071  0.000  0.771  0.143
  0.071  0.016  0.000  0.143  0.771
    occupations:
  0.397  0.000  0.000  0.000  0.000
  0.000  0.367  0.000 -0.001  0.014
  0.000  0.000  0.367  0.014  0.001
  0.000 -0.001  0.014  0.409  0.000
  0.000  0.014  0.001  0.000  0.409
atomic mag. moment =     0.012124
atom    4   Tr[ns(na)] (up, down, total) =   1.96066  1.94854  3.90920
   spin  1
    eigenvalues: 
  0.367  0.367  0.396  0.415  0.415
    eigenvectors:
  0.000  0.000  1.000  0.000  0.000
  0.795  0.134  0.000  0.010  0.060
  0.134  0.795  0.000  0.060  0.010
  0.011  0.060  0.000  0.791  0.138
  0.060  0.011  0.000  0.138  0.791
    occupations:
  0.396  0.000  0.000  0.000  0.000
  0.000  0.370  0.000  0.000  0.012
  0.000  0.000  0.370  0.012  0.000
  0.000  0.000  0.012  0.412  0.000
  0.000  0.012  0.000  0.000  0.412
   spin  2
    eigenvalues: 
  0.363  0.363  0.397  0.413  0.413
    eigenvectors:
  0.000  0.000  1.000  0.000  0.000
  0.769  0.144  0.000  0.011  0.076
  0.144  0.769  0.000  0.076  0.011
  0.016  0.071  0.000  0.771  0.142
  0.071  0.016  0.000  0.142  0.771
    occupations:
  0.397  0.000  0.000  0.000  0.000
  0.000  0.367  0.000 -0.001  0.014
  0.000  0.000  0.367  0.014  0.001
  0.000 -0.001  0.014  0.409  0.000
  0.000  0.014  0.001  0.000  0.409
atomic mag. moment =     0.012124
atom    5   Tr[ns(na)] (up, down, total) =   2.73697  2.63326  5.37023
   spin  1
    eigenvalues: 
  0.849  0.943  0.945
    eigenvectors:
  0.355  0.000  0.645
  0.488  0.247  0.265
  0.157  0.753  0.090
    occupations:
  0.911  0.040  0.023
  0.040  0.898 -0.026
  0.023 -0.026  0.928
   spin  2
    eigenvalues: 
  0.842  0.894  0.897
    eigenvectors:
  0.344  0.656  0.001
  0.470  0.262  0.269
  0.187  0.082  0.731
    occupations:
  0.876  0.021  0.013
  0.021  0.870 -0.017
  0.013 -0.017  0.887
atomic mag. moment =     0.103706
atom    6   Tr[ns(na)] (up, down, total) =   2.73697  2.63326  5.37023
   spin  1
    eigenvalues: 
  0.849  0.943  0.945
    eigenvectors:
  0.355  0.000  0.645
  0.000  1.000  0.000
  0.645  0.000  0.355
    occupations:
  0.911  0.000 -0.046
  0.000  0.943  0.000
 -0.046  0.000  0.883
   spin  2
    eigenvalues: 
  0.842  0.894  0.897
    eigenvectors:
  0.344  0.656  0.001
  0.001  0.000  0.999
  0.655  0.344  0.000
    occupations:
  0.876  0.001 -0.025
  0.001  0.897  0.001
 -0.025  0.001  0.860
atomic mag. moment =     0.103706
atom    7   Tr[ns(na)] (up, down, total) =   2.73697  2.63326  5.37023
   spin  1
    eigenvalues: 
  0.849  0.943  0.945
    eigenvectors:
  0.355  0.000  0.645
  0.480  0.253  0.267
  0.165  0.747  0.088
    occupations:
  0.911 -0.040  0.023
 -0.040  0.898  0.026
  0.023  0.026  0.928
   spin  2
    eigenvalues: 
  0.842  0.894  0.897
    eigenvectors:
  0.344  0.656  0.001
  0.514  0.254  0.232
  0.142  0.090  0.768
    occupations:
  0.876 -0.022  0.011
 -0.022  0.868  0.015
  0.011  0.015  0.889
atomic mag. moment =     0.103706
atom    8   Tr[ns(na)] (up, down, total) =   2.73697  2.63326  5.37023
   spin  1
    eigenvalues: 
  0.849  0.943  0.945
    eigenvectors:
  0.355  0.000  0.645
  0.000  1.000  0.000
  0.645  0.000  0.355
    occupations:
  0.911  0.000 -0.046
  0.000  0.943  0.000
 -0.046  0.000  0.883
   spin  2
    eigenvalues: 
  0.842  0.894  0.897
    eigenvectors:
  0.344  0.656  0.001
  0.001  0.000  0.999
  0.655  0.344  0.000
    occupations:
  0.876  0.001 -0.025
  0.001  0.897  0.001
 -0.025  0.001  0.860
atomic mag. moment =     0.103706
atom    9   Tr[ns(na)] (up, down, total) =   2.73697  2.63326  5.37023
   spin  1
    eigenvalues: 
  0.849  0.943  0.945
    eigenvectors:
  0.355  0.000  0.645
  0.488  0.247  0.265
  0.157  0.753  0.090
    occupations:
  0.911  0.040  0.023
  0.040  0.898 -0.026
  0.023 -0.026  0.928
   spin  2
    eigenvalues: 
  0.842  0.894  0.897
    eigenvectors:
  0.344  0.656  0.001
  0.470  0.262  0.269
  0.187  0.082  0.731
    occupations:
  0.876  0.021  0.013
  0.021  0.870 -0.017
  0.013 -0.017  0.887
atomic mag. moment =     0.103706
atom   10   Tr[ns(na)] (up, down, total) =   2.73697  2.63326  5.37023
   spin  1
    eigenvalues: 
  0.849  0.943  0.945
    eigenvectors:
  0.355  0.000  0.645
  0.480  0.253  0.267
  0.165  0.747  0.088
    occupations:
  0.911 -0.040  0.023
 -0.040  0.898  0.026
  0.023  0.026  0.928
   spin  2
    eigenvalues: 
  0.842  0.894  0.897
    eigenvectors:
  0.344  0.656  0.001
  0.514  0.254  0.232
  0.142  0.090  0.768
    occupations:
  0.876 -0.022  0.011
 -0.022  0.868  0.015
  0.011  0.015  0.889
atomic mag. moment =     0.103706
N of occupied +U levels =  56.0541112
 --- exit write_ns ---

     negative rho (up, down):  0.000E+00 0.750E-04
 --- in v_hubbard ---
Hubbard energy    0.0000
 -------

     total cpu time spent up to now is      169.1 secs

     total energy              =    -538.33373542 Ry
     Harris-Foulkes estimate   =    -538.33337054 Ry
     estimated scf accuracy    <       0.33918582 Ry

     total magnetization       =     5.15 Bohr mag/cell
     absolute magnetization    =     5.22 Bohr mag/cell

     iteration #  7     ecut=    30.00 Ry     beta=0.20
     Davidson diagonalization with overlap
     ethr =  2.70E-04,  avg # of iterations =  1.0
 --- enter write_ns ---
 LDA+U parameters:
U( 1)     =  0.00000000
alpha( 1) =  0.00000000
U( 2)     =  0.00000000
alpha( 2) =  0.00000000
U( 3)     =  0.00000000
alpha( 3) =  0.00000000
U( 4)     =  0.00000000
alpha( 4) =  0.00000000
atom    1   Tr[ns(na)] (up, down, total) =   4.84482  3.27341  8.11823
   spin  1
    eigenvalues: 
  0.925  0.925  0.998  0.998  0.999
    eigenvectors:
  0.000  0.000  0.000  0.000  1.000
  0.403  0.246  0.033  0.318  0.000
  0.246  0.403  0.318  0.033  0.000
  0.337  0.014  0.552  0.097  0.000
  0.014  0.337  0.097  0.552  0.000
    occupations:
  0.999  0.000  0.000  0.000  0.000
  0.000  0.951  0.000 -0.023  0.027
  0.000  0.000  0.951  0.027  0.023
  0.000 -0.023  0.027  0.973  0.000
  0.000  0.027  0.023  0.000  0.973
   spin  2
    eigenvalues: 
  0.478  0.478  0.764  0.776  0.776
    eigenvectors:
  0.000  0.000  1.000  0.000  0.000
  0.363  0.290  0.000  0.003  0.344
  0.290  0.363  0.000  0.344  0.003
  0.314  0.033  0.000  0.535  0.118
  0.033  0.314  0.000  0.118  0.535
    occupations:
  0.764  0.000  0.000  0.000  0.000
  0.000  0.582  0.000 -0.072  0.123
  0.000  0.000  0.582  0.123  0.072
  0.000 -0.072  0.123  0.673  0.000
  0.000  0.123  0.072  0.000  0.673
atomic mag. moment =     1.571413
atom    2   Tr[ns(na)] (up, down, total) =   4.82777  2.94221  7.76998
   spin  1
    eigenvalues: 
  0.916  0.916  0.999  0.999  0.999
    eigenvectors:
  0.000  0.000  0.000  0.000  1.000
  0.647  0.002  0.308  0.043  0.000
  0.002  0.647  0.043  0.308  0.000
  0.127  0.224  0.492  0.157  0.000
  0.224  0.127  0.157  0.492  0.000
    occupations:
  0.999  0.000  0.000  0.000  0.000
  0.000  0.945  0.000  0.025  0.030
  0.000  0.000  0.945  0.030 -0.025
  0.000  0.025  0.030  0.970  0.000
  0.000  0.030 -0.025  0.000  0.970
   spin  2
    eigenvalues: 
  0.461  0.461  0.665  0.677  0.677
    eigenvectors:
  0.000  0.000  1.000  0.000  0.000
  0.653  0.001  0.000  0.267  0.078
  0.001  0.653  0.000  0.078  0.267
  0.081  0.265  0.000  0.488  0.167
  0.265  0.081  0.000  0.167  0.488
    occupations:
  0.665  0.000  0.000  0.000  0.000
  0.000  0.536  0.000  0.054  0.088
  0.000  0.000  0.536  0.088 -0.054
  0.000  0.054  0.088  0.603  0.000
  0.000  0.088 -0.054  0.000  0.603
atomic mag. moment =     1.885560
atom    3   Tr[ns(na)] (up, down, total) =   1.95583  1.94750  3.90334
   spin  1
    eigenvalues: 
  0.365  0.365  0.395  0.415  0.415
    eigenvectors:
  0.000  0.000  1.000  0.000  0.000
  0.791  0.136  0.000  0.011  0.062
  0.136  0.791  0.000  0.062  0.011
  0.011  0.062  0.000  0.788  0.139
  0.062  0.011  0.000  0.139  0.788
    occupations:
  0.395  0.000  0.000  0.000  0.000
  0.000  0.369  0.000  0.000  0.013
  0.000  0.000  0.369  0.013  0.000
  0.000  0.000  0.013  0.411  0.000
  0.000  0.013  0.000  0.000  0.411
   spin  2
    eigenvalues: 
  0.362  0.362  0.397  0.413  0.413
    eigenvectors:
  0.000  0.000  1.000  0.000  0.000
  0.767  0.145  0.000  0.012  0.077
  0.145  0.767  0.000  0.077  0.012
  0.016  0.073  0.000  0.768  0.143
  0.073  0.016  0.000  0.143  0.768
    occupations:
  0.397  0.000  0.000  0.000  0.000
  0.000  0.366  0.000  0.000  0.015
  0.000  0.000  0.366  0.015  0.000
  0.000  0.000  0.015  0.409  0.000
  0.000  0.015  0.000  0.000  0.409
atomic mag. moment =     0.008333
atom    4   Tr[ns(na)] (up, down, total) =   1.95583  1.94750  3.90334
   spin  1
    eigenvalues: 
  0.365  0.365  0.395  0.415  0.415
    eigenvectors:
  0.000  0.000  1.000  0.000  0.000
  0.792  0.135  0.000  0.011  0.062
  0.135  0.792  0.000  0.062  0.011
  0.011  0.062  0.000  0.788  0.139
  0.062  0.011  0.000  0.139  0.788
    occupations:
  0.395  0.000  0.000  0.000  0.000
  0.000  0.369  0.000  0.000  0.013
  0.000  0.000  0.369  0.013  0.000
  0.000  0.000  0.013  0.411  0.000
  0.000  0.013  0.000  0.000  0.411
   spin  2
    eigenvalues: 
  0.362  0.362  0.397  0.413  0.413
    eigenvectors:
  0.000  0.000  1.000  0.000  0.000
  0.767  0.144  0.000  0.012  0.077
  0.144  0.767  0.000  0.077  0.012
  0.016  0.073  0.000  0.768  0.143
  0.073  0.016  0.000  0.143  0.768
    occupations:
  0.397  0.000  0.000  0.000  0.000
  0.000  0.366  0.000  0.000  0.015
  0.000  0.000  0.366  0.015  0.000
  0.000  0.000  0.015  0.409  0.000
  0.000  0.015  0.000  0.000  0.409
atomic mag. moment =     0.008333
atom    5   Tr[ns(na)] (up, down, total) =   2.74463  2.64980  5.39443
   spin  1
    eigenvalues: 
  0.854  0.944  0.946
    eigenvectors:
  0.351  0.000  0.649
  0.491  0.248  0.262
  0.159  0.752  0.089
    occupations:
  0.914  0.038  0.022
  0.038  0.901 -0.025
  0.022 -0.025  0.930
   spin  2
    eigenvalues: 
  0.848  0.899  0.902
    eigenvectors:
  0.339  0.660  0.001
  0.477  0.260  0.263
  0.184  0.080  0.737
    occupations:
  0.882  0.020  0.013
  0.020  0.876 -0.016
  0.013 -0.016  0.892
atomic mag. moment =     0.094830
atom    6   Tr[ns(na)] (up, down, total) =   2.74463  2.64980  5.39443
   spin  1
    eigenvalues: 
  0.854  0.944  0.946
    eigenvectors:
  0.351  0.000  0.649
  0.000  1.000  0.000
  0.649  0.000  0.351
    occupations:
  0.914  0.000 -0.044
  0.000  0.944  0.000
 -0.044  0.000  0.886
   spin  2
    eigenvalues: 
  0.848  0.899  0.902
    eigenvectors:
  0.339  0.660  0.001
  0.001  0.000  0.999
  0.660  0.340  0.000
    occupations:
  0.882  0.001 -0.024
  0.001  0.902  0.001
 -0.024  0.001  0.866
atomic mag. moment =     0.094830
atom    7   Tr[ns(na)] (up, down, total) =   2.74463  2.64980  5.39443
   spin  1
    eigenvalues: 
  0.854  0.944  0.946
    eigenvectors:
  0.351  0.000  0.649
  0.484  0.252  0.264
  0.166  0.748  0.086
    occupations:
  0.914 -0.038  0.022
 -0.038  0.901  0.025
  0.022  0.025  0.930
   spin  2
    eigenvalues: 
  0.848  0.899  0.902
    eigenvectors:
  0.339  0.660  0.001
  0.513  0.249  0.237
  0.148  0.090  0.762
    occupations:
  0.882 -0.021  0.011
 -0.021  0.874  0.015
  0.011  0.015  0.894
atomic mag. moment =     0.094830
atom    8   Tr[ns(na)] (up, down, total) =   2.74463  2.64980  5.39443
   spin  1
    eigenvalues: 
  0.854  0.944  0.946
[...]
     0.0937   0.0937   0.0937   0.0937   0.0937   0.0937   0.0937   0.0872
     0.0077   0.0000   0.0000   0.0000   0.0000   0.0000

          k = 0.4942-0.5706-0.2053 (  2206 PWs)   bands (ev):

   -19.6711 -19.6711  -6.8618  -6.8515  -6.0084  -6.0070  -5.3957  -5.3943
    -3.1169  -3.1165  -2.7748  -2.7740  -2.3494  -2.3470   5.9259   5.9523
     6.8071   6.8463   6.8999   6.9085   7.3628   7.3637   7.9009   7.9460
     8.7596   8.7661   8.8833   8.8887   9.4831   9.4985   9.9786   9.9960
    10.6436  10.6926  10.7979  10.8631  11.0792  11.1256  11.4322  11.4754
    13.3026  13.3423  17.4351  17.4353  17.8837  17.8860

     occupation numbers 
     0.0938   0.0938   0.0938   0.0938   0.0938   0.0938   0.0938   0.0938
     0.0938   0.0938   0.0938   0.0938   0.0938   0.0938   0.0938   0.0938
     0.0938   0.0938   0.0938   0.0938   0.0938   0.0938   0.0938   0.0938
     0.0938   0.0938   0.0938   0.0938   0.0938   0.0938   0.0937   0.0937
     0.0937   0.0937   0.0937   0.0937   0.0937   0.0937   0.0936   0.0935
     0.0000   0.0000   0.0000   0.0000   0.0000   0.0000

          k = 0.0000 0.0000-0.6160 (  2186 PWs)   bands (ev):

   -19.6730 -19.6730  -6.4909  -6.4775  -5.9086  -5.9086  -5.9046  -5.9046
    -2.8504  -2.8504  -2.8494  -2.8494  -2.6768  -2.6766   6.2870   6.2942
     6.9208   6.9208   6.9851   6.9851   7.6735   7.7026   7.8530   7.8530
     7.8901   7.8901   9.5497   9.5497   9.5821   9.5821   9.6795   9.7013
    10.7003  10.8683  10.8683  10.8725  11.0225  11.0225  12.4384  12.4384
    12.6174  12.6174  17.1235  17.1235  17.1236  17.1236

     occupation numbers 
     0.0156   0.0156   0.0156   0.0156   0.0156   0.0156   0.0156   0.0156
     0.0156   0.0156   0.0156   0.0156   0.0156   0.0156   0.0156   0.0156
     0.0156   0.0156   0.0156   0.0156   0.0156   0.0156   0.0156   0.0156
     0.0156   0.0156   0.0156   0.0156   0.0156   0.0156   0.0156   0.0156
     0.0156   0.0156   0.0156   0.0156   0.0156   0.0156   0.0048   0.0048
     0.0021   0.0021   0.0000   0.0000   0.0000   0.0000

          k = 0.4942-0.5706 0.1027 (  2198 PWs)   bands (ev):

   -19.6925 -19.6519  -6.9323  -6.6200  -6.1019  -5.8628  -5.4821  -5.3498
    -3.2649  -3.2169  -2.8396  -2.6701  -2.4908  -2.3502   5.8230   6.1369
     6.6254   6.7296   7.0794   7.2624   7.4091   7.6154   7.7149   7.8644
     8.1724   8.7338   8.9958   9.2173   9.5085   9.7447   9.8602  10.2919
    10.4032  10.7654  10.9036  10.9587  11.0975  11.1671  11.5275  11.9098
    12.7026  13.7028  16.9204  17.1185  17.3225  18.0296

     occupation numbers 
     0.0938   0.0938   0.0938   0.0938   0.0938   0.0938   0.0938   0.0938
     0.0938   0.0938   0.0938   0.0938   0.0938   0.0938   0.0938   0.0938
     0.0938   0.0938   0.0938   0.0938   0.0938   0.0938   0.0938   0.0938
     0.0938   0.0938   0.0938   0.0938   0.0938   0.0938   0.0938   0.0937
     0.0937   0.0937   0.0937   0.0937   0.0937   0.0937   0.0934   0.0852
     0.0074   0.0000   0.0000   0.0000   0.0000   0.0000

 ------ SPIN DOWN ----------


          k = 0.0000 0.0000 0.0000 (  2175 PWs)   bands (ev):

   -19.7597 -19.5866  -6.4384  -5.7164  -5.7164  -5.7040  -5.7040  -5.3651
    -3.7169  -3.2300  -3.1213  -3.1213  -2.9734  -2.9734   5.2446   7.2590
     7.2590   7.5825   7.5825   7.7759   8.0254   8.0254   8.0693   9.4350
     9.7447   9.7447  10.0608  10.1144  10.1144  10.5899  10.5899  10.7866
    11.2043  11.2043  11.2922  12.1406  12.1406  12.6830  13.0077  13.0077
    15.3555  15.3555  15.4991  15.4991  16.2202  16.8237

     occupation numbers 
     0.0156   0.0156   0.0156   0.0156   0.0156   0.0156   0.0156   0.0156
     0.0156   0.0156   0.0156   0.0156   0.0156   0.0156   0.0156   0.0156
     0.0156   0.0156   0.0156   0.0156   0.0156   0.0156   0.0156   0.0156
     0.0156   0.0156   0.0156   0.0156   0.0156   0.0156   0.0156   0.0156
     0.0156   0.0156   0.0156   0.0110   0.0110   0.0014   0.0001   0.0001
     0.0000   0.0000   0.0000   0.0000   0.0000   0.0000

          k =-0.2471-0.1427 0.1027 (  2181 PWs)   bands (ev):

   -19.7318 -19.6095  -6.6248  -6.1867  -5.8235  -5.7328  -5.4890  -5.3523
    -3.5328  -3.3396  -2.8623  -2.8416  -2.7739  -2.7013   5.6109   6.9505
     7.3258   7.3447   7.4650   7.6786   7.6822   8.0273   8.0473   8.8109
     8.8774   9.5186   9.7999   9.9986  10.0576  10.1851  10.5333  10.5435
    11.5332  11.5780  11.6303  12.3268  12.3676  12.4976  13.1552  13.2020
    14.9205  14.9333  15.8900  16.1311  17.0129  17.3158

     occupation numbers 
     0.0938   0.0938   0.0938   0.0938   0.0938   0.0938   0.0938   0.0938
     0.0938   0.0938   0.0938   0.0938   0.0938   0.0938   0.0938   0.0938
     0.0938   0.0938   0.0938   0.0938   0.0938   0.0938   0.0938   0.0938
     0.0938   0.0938   0.0938   0.0937   0.0937   0.0937   0.0937   0.0937
     0.0934   0.0931   0.0927   0.0426   0.0375   0.0225   0.0001   0.0001
     0.0000   0.0000   0.0000   0.0000   0.0000   0.0000

          k = 0.4942 0.2853-0.2053 (  2202 PWs)   bands (ev):

   -19.6682 -19.6682  -6.6288  -6.6175  -5.8464  -5.8451  -5.3956  -5.3931
    -3.3291  -3.3264  -2.7190  -2.7172  -2.4491  -2.4469   6.1630   6.1633
     7.4097   7.4452   7.4836   7.5273   7.8436   7.8773   8.1441   8.1720
     8.4021   8.4362   9.7131   9.7258  10.0261  10.0310  10.4455  10.4508
    11.9334  11.9933  12.0288  12.0868  12.1798  12.2291  13.9434  14.0133
    14.0457  14.1149  16.8905  16.8959  17.1870  17.1921

     occupation numbers 
     0.0469   0.0469   0.0469   0.0469   0.0469   0.0469   0.0469   0.0469
     0.0469   0.0469   0.0469   0.0469   0.0469   0.0469   0.0469   0.0469
     0.0469   0.0469   0.0469   0.0469   0.0469   0.0469   0.0469   0.0469
     0.0469   0.0469   0.0469   0.0469   0.0469   0.0469   0.0469   0.0469
     0.0419   0.0399   0.0385   0.0358   0.0307   0.0276   0.0000   0.0000
     0.0000   0.0000   0.0000   0.0000   0.0000   0.0000

          k =-0.2471 0.1427 0.2053 (  2195 PWs)   bands (ev):

   -19.7271 -19.6120  -6.7515  -6.1276  -5.9605  -5.7113  -5.5363  -5.3229
    -3.3574  -3.2197  -3.0363  -2.8219  -2.7408  -2.4951   5.6623   6.9837
     7.2555   7.2899   7.3838   7.5598   7.6515   8.0587   8.0814   8.8341
     9.1040   9.1072   9.4665   9.9600  10.1261  10.2571  10.3355  10.4584
    11.2249  11.8507  11.9584  12.0230  12.3850  12.5060  12.9307  13.4930
    14.2970  15.3932  16.0423  16.2517  17.0824  17.5806

     occupation numbers 
     0.0938   0.0938   0.0938   0.0938   0.0938   0.0938   0.0938   0.0938
     0.0938   0.0938   0.0938   0.0938   0.0938   0.0938   0.0938   0.0938
     0.0938   0.0938   0.0938   0.0938   0.0938   0.0938   0.0938   0.0938
     0.0938   0.0938   0.0938   0.0937   0.0937   0.0937   0.0937   0.0937
     0.0937   0.0879   0.0823   0.0775   0.0353   0.0217   0.0013   0.0000
     0.0000   0.0000   0.0000   0.0000   0.0000   0.0000

          k = 0.4942 0.5706-0.1027 (  2198 PWs)   bands (ev):

   -19.6871 -19.6467  -6.8567  -6.5478  -6.0278  -5.7828  -5.3813  -5.2431
    -3.2563  -3.2068  -2.8156  -2.6426  -2.4598  -2.3180   6.0219   6.4040
     7.0408   7.3045   7.3948   7.4705   7.7327   8.0004   8.1290   8.2655
     8.5419   9.0788   9.3367   9.5178   9.8563   9.9716  10.1320  10.5202
    11.6055  11.9915  12.0969  12.1849  12.3199  12.3373  13.1419  13.4996
    14.1198  14.9868  16.9581  17.1801  17.3682  18.0707

     occupation numbers 
     0.0938   0.0938   0.0938   0.0938   0.0938   0.0938   0.0938   0.0938
     0.0938   0.0938   0.0938   0.0938   0.0938   0.0938   0.0938   0.0938
     0.0938   0.0938   0.0938   0.0938   0.0938   0.0938   0.0938   0.0938
     0.0938   0.0938   0.0938   0.0938   0.0938   0.0937   0.0937   0.0937
     0.0930   0.0799   0.0706   0.0607   0.0435   0.0413   0.0002   0.0000
     0.0000   0.0000   0.0000   0.0000   0.0000   0.0000

          k = 0.2471 0.4280 0.0000 (  2203 PWs)   bands (ev):

   -19.6968 -19.6392  -6.7480  -6.5379  -5.9475  -5.8687  -5.3063  -5.2301
    -3.4623  -3.2508  -2.7380  -2.6452  -2.5036  -2.4875   5.9778   6.4238
     7.2576   7.3950   7.4419   7.5178   7.5700   7.9095   8.0204   8.3820
     8.6377   9.1066   9.5647   9.6788   9.9436   9.9488  10.2134  10.5328
    11.8673  11.8813  11.9492  12.1408  12.1613  12.4357  13.1087  13.9749
    14.0941  14.7939  16.5000  17.0495  17.4667  17.9717

     occupation numbers 
     0.0938   0.0938   0.0938   0.0938   0.0938   0.0938   0.0938   0.0938
     0.0938   0.0938   0.0938   0.0938   0.0938   0.0938   0.0938   0.0938
     0.0938   0.0938   0.0938   0.0938   0.0938   0.0938   0.0938   0.0938
     0.0938   0.0938   0.0938   0.0938   0.0937   0.0937   0.0937   0.0937
     0.0872   0.0866   0.0829   0.0658   0.0635   0.0292   0.0002   0.0000
     0.0000   0.0000   0.0000   0.0000   0.0000   0.0000

          k = 0.4942-0.2853-0.4107 (  2202 PWs)   bands (ev):

   -19.6940 -19.6373  -7.0680  -6.3618  -6.1451  -5.8397  -5.4132  -5.1423
    -3.1476  -3.0860  -2.9859  -2.5853  -2.4091  -2.1550   5.9423   6.5150
     6.6134   7.2199   7.2480   7.3248   8.0830   8.1540   8.2578   8.3688
     8.7149   8.8452   8.8651   9.5452   9.7796  10.1569  10.1813  10.6007
    11.2082  11.8868  12.0111  12.2344  12.3752  12.4467  12.8679  13.2597
    14.0460  15.4155  17.0881  17.3386  17.5674  17.6342

     occupation numbers 
     0.0469   0.0469   0.0469   0.0469   0.0469   0.0469   0.0469   0.0469
     0.0469   0.0469   0.0469   0.0469   0.0469   0.0469   0.0469   0.0469
     0.0469   0.0469   0.0469   0.0469   0.0469   0.0469   0.0469   0.0469
     0.0469   0.0469   0.0469   0.0469   0.0469   0.0469   0.0469   0.0469
     0.0469   0.0432   0.0392   0.0273   0.0183   0.0140   0.0011   0.0000
     0.0000   0.0000   0.0000   0.0000   0.0000   0.0000

          k = 0.0000 0.0000 0.3080 (  2187 PWs)   bands (ev):

   -19.7315 -19.6093  -6.5106  -5.8730  -5.8127  -5.8127  -5.7233  -5.7233
    -3.1452  -3.0335  -3.0335  -2.9249  -2.8310  -2.8310   5.6620   7.2059
     7.3272   7.3272   7.5513   7.5513   7.6917   8.0562   8.0562   9.0495
     9.0495   9.5814   9.5833   9.8560   9.8560  10.0649  10.2949  10.2949
    11.6467  11.6467  11.6648  12.3424  12.3424  12.5161  13.1343  13.1343
    14.8822  14.8822  15.9777  15.9777  16.9131  17.5380

     occupation numbers 
     0.0313   0.0313   0.0313   0.0313   0.0313   0.0313   0.0313   0.0313
     0.0313   0.0313   0.0313   0.0313   0.0313   0.0313   0.0313   0.0313
     0.0313   0.0313   0.0313   0.0313   0.0313   0.0313   0.0313   0.0313
     0.0313   0.0313   0.0313   0.0313   0.0313   0.0312   0.0312   0.0312
     0.0309   0.0309   0.0308   0.0136   0.0136   0.0069   0.0001   0.0001
     0.0000   0.0000   0.0000   0.0000   0.0000   0.0000

          k = 0.7412 0.4280 0.0000 (  2204 PWs)   bands (ev):

   -19.6965 -19.6390  -6.6320  -6.5013  -6.0419  -5.7182  -5.5537  -5.4196
    -3.1103  -3.0321  -2.9934  -2.6105  -2.5952  -2.5115   6.0242   6.6105
     7.2680   7.4295   7.4379   7.5359   7.5721   7.8620   8.2056   8.3596
     8.6813   8.9817   9.6371   9.6650   9.7637   9.8320  10.0346  10.3784
    11.8611  11.8863  12.0118  12.1554  12.2048  12.3997  13.1014  13.9005
    14.0178  14.8200  16.7618  16.7709  17.6376  17.8544

     occupation numbers 
     0.0938   0.0938   0.0938   0.0938   0.0938   0.0938   0.0938   0.0938
     0.0938   0.0938   0.0938   0.0938   0.0938   0.0938   0.0938   0.0938
     0.0938   0.0938   0.0938   0.0938   0.0938   0.0938   0.0938   0.0938
     0.0938   0.0938   0.0938   0.0938   0.0938   0.0938   0.0937   0.0937
     0.0875   0.0864   0.0784   0.0642   0.0583   0.0335   0.0002   0.0000
     0.0000   0.0000   0.0000   0.0000   0.0000   0.0000

          k = 0.4942 0.2853 0.1027 (  2211 PWs)   bands (ev):

   -19.6871 -19.6467  -6.8732  -6.4437  -6.2233  -5.5752  -5.5067  -5.2157
    -3.2700  -3.1189  -2.9682  -2.5405  -2.4928  -2.3094   6.0478   6.3772
     7.0073   7.3087   7.3373   7.4525   7.7292   8.0420   8.2036   8.2262
     8.5882   9.2053   9.3401   9.5721   9.7271   9.8292  10.1887  10.5352
    11.6034  12.0406  12.1379  12.2054  12.2654  12.2799  13.1055  13.5090
    14.1639  14.9716  16.9466  16.9835  17.6487  17.9857

     occupation numbers 
     0.0938   0.0938   0.0938   0.0938   0.0938   0.0938   0.0938   0.0938
     0.0938   0.0938   0.0938   0.0938   0.0938   0.0938   0.0938   0.0938
     0.0938   0.0938   0.0938   0.0938   0.0938   0.0938   0.0938   0.0938
     0.0938   0.0938   0.0938   0.0938   0.0938   0.0938   0.0937   0.0937
     0.0930   0.0760   0.0662   0.0582   0.0506   0.0487   0.0002   0.0000
     0.0000   0.0000   0.0000   0.0000   0.0000   0.0000

          k = 0.7412-0.4280-0.3080 (  2210 PWs)   bands (ev):

   -19.6869 -19.6465  -6.8087  -6.3498  -6.2006  -5.6855  -5.6386  -5.3487
    -3.0166  -2.9908  -2.9152  -2.6673  -2.5483  -2.3613   6.1111   6.5345
     7.0910   7.2921   7.3879   7.4058   7.7470   8.0867   8.2253   8.2662
     8.5850   9.1714   9.1880   9.6747   9.7091   9.7699   9.8328  10.3743
    11.6536  12.0449  12.1238  12.1915  12.3001  12.3531  13.0676  13.4683
    14.1161  14.9380  17.1198  17.1306  17.6159  17.9563

     occupation numbers 
     0.0938   0.0938   0.0938   0.0938   0.0938   0.0938   0.0938   0.0938
     0.0938   0.0938   0.0938   0.0938   0.0938   0.0938   0.0938   0.0938
     0.0938   0.0938   0.0938   0.0938   0.0938   0.0938   0.0938   0.0938
     0.0938   0.0938   0.0938   0.0938   0.0938   0.0938   0.0938   0.0937
     0.0925   0.0756   0.0677   0.0599   0.0461   0.0393   0.0003   0.0000
     0.0000   0.0000   0.0000   0.0000   0.0000   0.0000

          k = 0.4942-0.5706-0.2053 (  2206 PWs)   bands (ev):

   -19.6658 -19.6658  -6.7883  -6.7778  -5.9337  -5.9322  -5.2898  -5.2893
    -3.1093  -3.1089  -2.7497  -2.7489  -2.3162  -2.3133   6.2235   6.2513
     7.1726   7.1775   7.3430   7.3537   7.5755   7.5900   8.4234   8.4661
     8.9297   8.9319   9.2341   9.2347   9.7054   9.7126  10.2716  10.2752
    11.8591  11.8685  12.0311  12.0728  12.3463  12.3704  13.1284  13.1474
    14.6510  14.6661  17.4988  17.4995  17.9135  17.9156

     occupation numbers 
     0.0938   0.0938   0.0938   0.0938   0.0938   0.0938   0.0938   0.0938
     0.0938   0.0938   0.0938   0.0938   0.0938   0.0938   0.0938   0.0938
     0.0938   0.0938   0.0938   0.0938   0.0938   0.0938   0.0938   0.0938
     0.0938   0.0938   0.0938   0.0938   0.0938   0.0938   0.0937   0.0937
     0.0876   0.0872   0.0768   0.0730   0.0401   0.0371   0.0002   0.0001
     0.0000   0.0000   0.0000   0.0000   0.0000   0.0000

          k = 0.0000 0.0000-0.6160 (  2186 PWs)   bands (ev):

   -19.6677 -19.6677  -6.4131  -6.3987  -5.8254  -5.8254  -5.8230  -5.8230
    -2.8189  -2.8189  -2.8171  -2.8171  -2.6605  -2.6601   6.3769   6.3783
     7.4285   7.4285   7.4727   7.4727   7.9989   8.0256   8.3108   8.3108
     8.3448   8.3448   9.8165   9.8165   9.8189   9.8189   9.8621   9.8713
    12.0795  12.1085  12.1085  12.1370  12.1606  12.1606  13.8779  13.8779
    13.9826  13.9826  17.1806  17.1806  17.1853  17.1853

     occupation numbers 
     0.0156   0.0156   0.0156   0.0156   0.0156   0.0156   0.0156   0.0156
     0.0156   0.0156   0.0156   0.0156   0.0156   0.0156   0.0156   0.0156
     0.0156   0.0156   0.0156   0.0156   0.0156   0.0156   0.0156   0.0156
     0.0156   0.0156   0.0156   0.0156   0.0156   0.0156   0.0156   0.0156
     0.0121   0.0116   0.0116   0.0110   0.0106   0.0106   0.0000   0.0000
     0.0000   0.0000   0.0000   0.0000   0.0000   0.0000

          k = 0.4942-0.5706 0.1027 (  2198 PWs)   bands (ev):

   -19.6871 -19.6467  -6.8572  -6.5469  -6.0288  -5.7816  -5.3824  -5.2425
    -3.2571  -3.2067  -2.8157  -2.6415  -2.4605  -2.3175   6.0195   6.4075
     7.0368   7.3109   7.4143   7.4557   7.7216   8.0011   8.1035   8.2962
     8.5384   9.0860   9.3322   9.5151   9.8531   9.9747  10.1321  10.5209
    11.6028  12.0196  12.0717  12.1858  12.3231  12.3343  13.1391  13.4993
    14.1197  14.9882  16.9603  17.1776  17.3688  18.0705

     occupation numbers 
     0.0938   0.0938   0.0938   0.0938   0.0938   0.0938   0.0938   0.0938
     0.0938   0.0938   0.0938   0.0938   0.0938   0.0938   0.0938   0.0938
     0.0938   0.0938   0.0938   0.0938   0.0938   0.0938   0.0938   0.0938
     0.0938   0.0938   0.0938   0.0938   0.0938   0.0937   0.0937   0.0937
     0.0930   0.0777   0.0731   0.0606   0.0431   0.0417   0.0002   0.0000
     0.0000   0.0000   0.0000   0.0000   0.0000   0.0000

     the Fermi energy is    12.2941 ev

!    total energy              =    -538.35542515 Ry
     Harris-Foulkes estimate   =    -538.35541961 Ry
     estimated scf accuracy    <          7.8E-09 Ry

     The total energy is the sum of the following terms:

     one-electron contribution =     -32.74505112 Ry
     hartree contribution      =      83.52589218 Ry
     xc contribution           =    -199.65318497 Ry
     ewald contribution        =    -389.44315552 Ry
     Hubbard energy            =       0.00000000 Ry
     smearing contrib. (-TS)   =      -0.03992572 Ry

     total magnetization       =     3.54 Bohr mag/cell
     absolute magnetization    =     3.69 Bohr mag/cell

     convergence has been achieved in  33 iterations

     Writing output data file CoLaO_U0.save

     init_run     :     18.24s CPU     18.91s WALL (       1 calls)
     electrons    :    820.42s CPU    865.14s WALL (       1 calls)

     Called by init_run:
     wfcinit      :      9.26s CPU      9.41s WALL (       1 calls)
     potinit      :      1.79s CPU      1.82s WALL (       1 calls)

     Called by electrons:
     c_bands      :    545.48s CPU    582.64s WALL (      33 calls)
     sum_band     :    177.81s CPU    180.27s WALL (      33 calls)
     v_of_rho     :     24.84s CPU     25.16s WALL (      34 calls)
     v_h          :      0.52s CPU      0.57s WALL (      34 calls)
     v_xc         :     24.32s CPU     24.59s WALL (      34 calls)
     newd         :     69.36s CPU     69.61s WALL (      34 calls)
     mix_rho      :      2.41s CPU      3.73s WALL (      33 calls)

     Called by c_bands:
     init_us_2    :      6.94s CPU      6.99s WALL (    1904 calls)
     cegterg      :    527.72s CPU    531.01s WALL (     924 calls)

     Called by sum_band:
     sum_band:bec :      0.69s CPU      0.69s WALL (     924 calls)
     addusdens    :     65.03s CPU     65.16s WALL (      33 calls)

     Called by *egterg:
     h_psi        :    424.11s CPU    426.89s WALL (    2747 calls)
     s_psi        :     22.72s CPU     22.80s WALL (    2775 calls)
     g_psi        :      1.67s CPU      1.69s WALL (    1795 calls)
     cdiaghg      :     26.38s CPU     26.54s WALL (    2719 calls)
     cegterg:over :     22.29s CPU     22.35s WALL (    1795 calls)
     cegterg:upda :     12.68s CPU     12.68s WALL (    1795 calls)
     cegterg:last :      7.93s CPU      7.92s WALL (     924 calls)

     Called by h_psi:
     h_psi:vloc   :    345.90s CPU    348.31s WALL (    2747 calls)
     h_psi:vnl    :     47.81s CPU     47.95s WALL (    2747 calls)
     add_vuspsi   :     22.78s CPU     22.79s WALL (    2747 calls)
     vhpsi        :     29.51s CPU     29.77s WALL (    2747 calls)

     General routines
     calbec       :     57.21s CPU     57.74s WALL (    7370 calls)
     fft          :     11.78s CPU     12.22s WALL (    1044 calls)
     ffts         :      0.36s CPU      0.42s WALL (     134 calls)
     fftw         :    343.83s CPU    346.20s WALL (  233390 calls)
     interpolate  :      1.98s CPU      2.27s WALL (     134 calls)
     davcio       :      0.08s CPU      8.90s WALL (    6222 calls)

     Parallel routines
     fft_scatter  :    110.95s CPU    113.52s WALL (  234568 calls)
     Hubbard U routines
     new_ns       :      5.84s CPU      7.19s WALL (      33 calls)
     vhpsi        :     29.51s CPU     29.77s WALL (    2747 calls)

     PWSCF        : 13m59.40s CPU    14m45.13s WALL


   This run was terminated on:  12: 3:18  13Nov2012            

=------------------------------------------------------------------------------=
