   JOB DONE.
=------------------------------------------------------------------------------=

     Program PWSCF v.5.0.1 starts on 13Nov2012 at 12:18:12 

     This program is part of the open-source Quantum ESPRESSO suite
     for quantum simulation of materials; please cite
         "P. Giannozzi et al., J. Phys.:Condens. Matter 21 395502 (2009);
          URL http://www.quantum-espresso.org", 
     in publications or presentations arising from this work. More details at
     http://www.quantum-espresso.org/quote.php

     Parallel version (MPI), running on     2 processors
     R & G space division:  proc/pool =    2

     Current dimensions of program PWSCF are:
     Max number of different atomic species (ntypx) = 10
     Max number of k-points (npk) =  40000
     Max angular momentum in pseudopotentials (lmaxx) =  3
     Reading input from CoLaO_U0_a-5.in
               file Co.pbe-nd-rrkjus.UPF: wavefunction(s)  4S 3D renormalized
               file Co.pbe-nd-rrkjus.UPF: wavefunction(s)  4S 3D renormalized
               file O.pbe-rrkjus.UPF: wavefunction(s)  2S renormalized

     Subspace diagonalization in iterative solution of the eigenvalue problem:
     a serial algorithm will be used


     Parallelization info
     --------------------
     sticks:   dense  smooth     PW     G-vecs:    dense   smooth      PW
     Min        1112     444    131                34808     8786    1448
     Max        1113     445    132                34809     8787    1449
     Sum        2225     889    263                69617    17573    2897


     Title: 
     GGA + U, U = 1D-40, alpha = -0.050                                         


     bravais-lattice index     =            5
     lattice parameter (alat)  =      10.3292  a.u.
     unit-cell volume          =     793.0599 (a.u.)^3
     number of atoms/cell      =           10
     number of atomic types    =            4
     number of electrons       =        76.00
     number of Kohn-Sham states=           46
     kinetic-energy cutoff     =      30.0000  Ry
     charge density cutoff     =     300.0000  Ry
     convergence threshold     =      1.0E-08
     mixing beta               =       0.2000
     number of iterations used =            8  plain     mixing
     Exchange-correlation      =  SLA  PW   PBE  PBE ( 1 4 3 4 0)
     EXX-fraction              =        0.00

     celldm(1)=  10.329242  celldm(2)=   0.000000  celldm(3)=   0.000000
     celldm(4)=   0.488100  celldm(5)=   0.000000  celldm(6)=   0.000000

     crystal axes: (cart. coord. in units of alat)
               a(1) = (   0.505915  -0.292090   0.811624 )  
               a(2) = (   0.000000   0.584180   0.811624 )  
               a(3) = (  -0.505915  -0.292090   0.811624 )  

     reciprocal axes: (cart. coord. in units 2 pi/alat)
               b(1) = (  0.988308 -0.570600  0.410699 )  
               b(2) = (  0.000000  1.141200  0.410699 )  
               b(3) = ( -0.988308 -0.570600  0.410699 )  


     PseudoPot. # 1 for Co read from file:
     /home/mcurnan/dft-course/Project1/example_LaCoO3/Co.pbe-nd-rrkjus.UPF
     MD5 check sum: 3e47a84addf5e975e0edeaeee2a73f59
     Pseudo is Ultrasoft + core correction, Zval =  9.0
     Generated by new atomic code, or converted to UPF format
     Using radial grid of  961 points,  6 beta functions with: 
                l(1) =   0
                l(2) =   0
                l(3) =   1
                l(4) =   1
                l(5) =   2
                l(6) =   2
     Q(r) pseudized with 0 coefficients 


     PseudoPot. # 2 for Co read from file:
     /home/mcurnan/dft-course/Project1/example_LaCoO3/Co.pbe-nd-rrkjus.UPF
     MD5 check sum: 3e47a84addf5e975e0edeaeee2a73f59
     Pseudo is Ultrasoft + core correction, Zval =  9.0
     Generated by new atomic code, or converted to UPF format
     Using radial grid of  961 points,  6 beta functions with: 
                l(1) =   0
                l(2) =   0
                l(3) =   1
                l(4) =   1
                l(5) =   2
                l(6) =   2
     Q(r) pseudized with 0 coefficients 


     PseudoPot. # 3 for La read from file:
     /home/mcurnan/dft-course/Project1/example_LaCoO3/La.pbe-nsp-van.UPF
     MD5 check sum: b2f11743f52dde65f77d1302becd7929
     Pseudo is Ultrasoft + core correction, Zval = 11.0
     Generated by new atomic code, or converted to UPF format
     Using radial grid of  907 points,  6 beta functions with: 
                l(1) =   0
                l(2) =   0
                l(3) =   1
                l(4) =   1
                l(5) =   2
                l(6) =   2
     Q(r) pseudized with  6 coefficients,  rinner =    1.200   1.200   1.200
                                                       1.200   1.200

     PseudoPot. # 4 for O  read from file:
     /home/mcurnan/dft-course/Project1/example_LaCoO3/O.pbe-rrkjus.UPF
     MD5 check sum: 390ba29e75625707450f3bd3f0eb6be9
     Pseudo is Ultrasoft, Zval =  6.0
     Generated by new atomic code, or converted to UPF format
     Using radial grid of 1269 points,  4 beta functions with: 
                l(1) =   0
                l(2) =   0
                l(3) =   1
                l(4) =   1
     Q(r) pseudized with 0 coefficients 


     atomic species   valence    mass     pseudopotential
        Co1            9.00     1.00000     Co( 1.00)
        Co2            9.00     1.00000     Co( 1.00)
        La1           11.00     1.00000     La( 1.00)
        O1             6.00     1.00000     O ( 1.00)

     Starting magnetic structure 
     atomic species   magnetization
        Co1          1.000
        Co2          1.000
        La1          0.000
        O1           0.000
 -----
     simplified LDA+U calculation, Hubbard_lmax = 2
     atomic species  L   Hubbard U  Hubbard alpha
        Co1          2    0.000000   -0.050000
        Co2          2    0.000000    0.000000
        La1          2    0.000000    0.000000
        O1           1    0.000000    0.000000
 -----

      6 Sym. Ops., with inversion, found


                                    s                        frac. trans.

      isym =  1     identity                                     

 cryst.   s( 1) = (     1          0          0      )
                  (     0          1          0      )
                  (     0          0          1      )

 cart.    s( 1) = (  1.0000000  0.0000000  0.0000000 )
                  (  0.0000000  1.0000000  0.0000000 )
                  (  0.0000000  0.0000000  1.0000000 )


      isym =  2     120 deg rotation - cryst. axis [0,0,1]       

 cryst.   s( 2) = (     0          1          0      )
                  (     0          0          1      )
                  (     1          0          0      )

 cart.    s( 2) = ( -0.5000000 -0.8660254  0.0000000 )
                  (  0.8660254 -0.5000000  0.0000000 )
                  (  0.0000000  0.0000000  1.0000000 )


      isym =  3     120 deg rotation - cryst. axis [0,0,-1]      

 cryst.   s( 3) = (     0          0          1      )
                  (     1          0          0      )
                  (     0          1          0      )

 cart.    s( 3) = ( -0.5000000  0.8660254  0.0000000 )
                  ( -0.8660254 -0.5000000  0.0000000 )
                  (  0.0000000  0.0000000  1.0000000 )


      isym =  4     inversion                                    

 cryst.   s( 4) = (    -1          0          0      )
                  (     0         -1          0      )
                  (     0          0         -1      )

 cart.    s( 4) = ( -1.0000000  0.0000000  0.0000000 )
                  (  0.0000000 -1.0000000  0.0000000 )
                  (  0.0000000  0.0000000 -1.0000000 )


      isym =  5     inv. 180 deg rotation - cart. axis [0,1,0]   

 cryst.   s( 5) = (     0         -1          0      )
                  (     0          0         -1      )
                  (    -1          0          0      )

 cart.    s( 5) = (  0.5000000  0.8660254  0.0000000 )
                  ( -0.8660254  0.5000000  0.0000000 )
                  (  0.0000000  0.0000000 -1.0000000 )


      isym =  6     inv. 180 deg rotation - cart. axis [1,0,0]   

 cryst.   s( 6) = (     0          0         -1      )
                  (    -1          0          0      )
                  (     0         -1          0      )

 cart.    s( 6) = (  0.5000000 -0.8660254  0.0000000 )
                  (  0.8660254  0.5000000  0.0000000 )
                  (  0.0000000  0.0000000 -1.0000000 )


     point group S_6 (-3)   
     there are  6 classes
     the character table:

       E     C3    C3^2  i     S6^5  S6   
A_g    1.00  1.00  1.00  1.00  1.00  1.00
E_g    1.00 -0.50 -0.50  1.00 -0.50 -0.50
E_g*   1.00 -0.50 -0.50  1.00 -0.50 -0.50
A_u    1.00  1.00  1.00 -1.00 -1.00 -1.00
E_u    1.00 -0.50 -0.50 -1.00  0.50  0.50
E_u*   1.00 -0.50 -0.50 -1.00  0.50  0.50
     imaginary part
A_g    0.00  0.00  0.00  0.00  0.00  0.00
E_g    0.00  0.87 -0.87  0.00  0.87 -0.87
E_g*   0.00 -0.87  0.87  0.00 -0.87  0.87
A_u    0.00  0.00  0.00  0.00  0.00  0.00
E_u    0.00  0.87 -0.87  0.00 -0.87  0.87
E_u*   0.00 -0.87  0.87  0.00  0.87 -0.87

     the symmetry operations in each class:
     E        1
     C3       2
     C3^2     3
     i        4
     S6^5     5
     S6       6

   Cartesian axes

     site n.     atom                  positions (alat units)
         1           Co1 tau(   1) = (   0.0000000   0.0000000   0.0000000  )
         2           Co2 tau(   2) = (   0.0000000   0.0000000   1.2174358  )
         3           La1 tau(   3) = (   0.0000000   0.0000000   0.6087179  )
         4           La1 tau(   4) = (   0.0000000   0.0000000   1.8261537  )
         5           O1  tau(   5) = (  -0.2839701  -0.0933228   1.0141240  )
         6           O1  tau(   6) = (   0.0611651   0.2925867   1.0141240  )
         7           O1  tau(   7) = (   0.2228050  -0.1992639   1.0141240  )
         8           O1  tau(   8) = (  -0.0611651  -0.2925867   1.4207476  )
         9           O1  tau(   9) = (   0.2839701   0.0933228   1.4207476  )
        10           O1  tau(  10) = (  -0.2228050   0.1992639   1.4207476  )

   Crystallographic axes

     site n.     atom                  positions (cryst. coord.)
         1           Co1 tau(   1) = (  0.0000000  0.0000000  0.0000000  )
         2           Co2 tau(   2) = (  0.5000000  0.5000000  0.5000000  )
         3           La1 tau(   3) = (  0.2500000  0.2500000  0.2500000  )
         4           La1 tau(   4) = (  0.7500000  0.7500000  0.7500000  )
         5           O1  tau(   5) = (  0.1891000  0.3100000  0.7504000  )
         6           O1  tau(   6) = (  0.3100000  0.7504000  0.1891000  )
         7           O1  tau(   7) = (  0.7504000  0.1891000  0.3100000  )
         8           O1  tau(   8) = (  0.6900000  0.2496000  0.8109000  )
         9           O1  tau(   9) = (  0.8109000  0.6900000  0.2496000  )
        10           O1  tau(  10) = (  0.2496000  0.8109000  0.6900000  )

     number of k points=    28  gaussian smearing, width (Ry)=  0.0300
                       cart. coord. in units 2pi/alat
        k(    1) = (   0.0000000   0.0000000   0.0000000), wk =   0.0156250
        k(    2) = (  -0.2470771  -0.1426500   0.1026748), wk =   0.0937500
        k(    3) = (   0.4941541   0.2853000  -0.2053496), wk =   0.0468750
        k(    4) = (  -0.2470771   0.1426500   0.2053496), wk =   0.0937500
        k(    5) = (   0.4941541   0.5706001  -0.1026748), wk =   0.0937500
        k(    6) = (   0.2470771   0.4279500   0.0000000), wk =   0.0937500
        k(    7) = (   0.4941541  -0.2853000  -0.4106993), wk =   0.0468750
        k(    8) = (   0.0000000   0.0000000   0.3080244), wk =   0.0312500
        k(    9) = (   0.7412312   0.4279500   0.0000000), wk =   0.0937500
        k(   10) = (   0.4941541   0.2853000   0.1026748), wk =   0.0937500
        k(   11) = (   0.7412312  -0.4279500  -0.3080244), wk =   0.0937500
        k(   12) = (   0.4941541  -0.5706001  -0.2053496), wk =   0.0937500
        k(   13) = (   0.0000000   0.0000000  -0.6160489), wk =   0.0156250
        k(   14) = (   0.4941541  -0.5706001   0.1026748), wk =   0.0937500
        k(   15) = (   0.0000000   0.0000000   0.0000000), wk =   0.0156250
        k(   16) = (  -0.2470771  -0.1426500   0.1026748), wk =   0.0937500
        k(   17) = (   0.4941541   0.2853000  -0.2053496), wk =   0.0468750
        k(   18) = (  -0.2470771   0.1426500   0.2053496), wk =   0.0937500
        k(   19) = (   0.4941541   0.5706001  -0.1026748), wk =   0.0937500
        k(   20) = (   0.2470771   0.4279500   0.0000000), wk =   0.0937500
        k(   21) = (   0.4941541  -0.2853000  -0.4106993), wk =   0.0468750
        k(   22) = (   0.0000000   0.0000000   0.3080244), wk =   0.0312500
        k(   23) = (   0.7412312   0.4279500   0.0000000), wk =   0.0937500
        k(   24) = (   0.4941541   0.2853000   0.1026748), wk =   0.0937500
        k(   25) = (   0.7412312  -0.4279500  -0.3080244), wk =   0.0937500
        k(   26) = (   0.4941541  -0.5706001  -0.2053496), wk =   0.0937500
        k(   27) = (   0.0000000   0.0000000  -0.6160489), wk =   0.0156250
        k(   28) = (   0.4941541  -0.5706001   0.1026748), wk =   0.0937500

                       cryst. coord.
        k(    1) = (   0.0000000   0.0000000   0.0000000), wk =   0.0156250
        k(    2) = (   0.0000000   0.0000000   0.2500000), wk =   0.0937500
        k(    3) = (   0.0000000   0.0000000  -0.5000000), wk =   0.0468750
        k(    4) = (   0.0000000   0.2500000   0.2500000), wk =   0.0937500
        k(    5) = (   0.0000000   0.2500000  -0.5000000), wk =   0.0937500
        k(    6) = (   0.0000000   0.2500000  -0.2500000), wk =   0.0937500
        k(    7) = (   0.0000000  -0.5000000  -0.5000000), wk =   0.0468750
        k(    8) = (   0.2500000   0.2500000   0.2500000), wk =   0.0312500
        k(    9) = (   0.2500000   0.2500000  -0.5000000), wk =   0.0937500
        k(   10) = (   0.2500000   0.2500000  -0.2500000), wk =   0.0937500
        k(   11) = (   0.2500000  -0.5000000  -0.5000000), wk =   0.0937500
        k(   12) = (   0.2500000  -0.5000000  -0.2500000), wk =   0.0937500
        k(   13) = (  -0.5000000  -0.5000000  -0.5000000), wk =   0.0156250
        k(   14) = (   0.5000000  -0.2500000   0.0000000), wk =   0.0937500
        k(   15) = (   0.0000000   0.0000000   0.0000000), wk =   0.0156250
        k(   16) = (   0.0000000   0.0000000   0.2500000), wk =   0.0937500
        k(   17) = (   0.0000000   0.0000000  -0.5000000), wk =   0.0468750
        k(   18) = (   0.0000000   0.2500000   0.2500000), wk =   0.0937500
        k(   19) = (   0.0000000   0.2500000  -0.5000000), wk =   0.0937500
        k(   20) = (   0.0000000   0.2500000  -0.2500000), wk =   0.0937500
        k(   21) = (   0.0000000  -0.5000000  -0.5000000), wk =   0.0468750
        k(   22) = (   0.2500000   0.2500000   0.2500000), wk =   0.0312500
        k(   23) = (   0.2500000   0.2500000  -0.5000000), wk =   0.0937500
        k(   24) = (   0.2500000   0.2500000  -0.2500000), wk =   0.0937500
        k(   25) = (   0.2500000  -0.5000000  -0.5000000), wk =   0.0937500
        k(   26) = (   0.2500000  -0.5000000  -0.2500000), wk =   0.0937500
        k(   27) = (  -0.5000000  -0.5000000  -0.5000000), wk =   0.0156250
        k(   28) = (   0.5000000  -0.2500000   0.0000000), wk =   0.0937500

     Dense  grid:    69617 G-vectors     FFT dimensions: (  60,  60,  60)

     Smooth grid:    17573 G-vectors     FFT dimensions: (  40,  40,  40)

     Largest allocated arrays     est. size (Mb)     dimensions
        Kohn-Sham Wavefunctions         0.78 Mb     (   1117,   46)
        Atomic wavefunctions            1.06 Mb     (   1117,   62)
        NL pseudopotentials             2.05 Mb     (   1117,  120)
        Each V/rho on FFT grid          3.30 Mb     ( 108000,   2)
        Each G-vector array             0.27 Mb     (  34808)
        G-vector shells                 0.04 Mb     (   4682)
     Largest temporary arrays     est. size (Mb)     dimensions
        Auxiliary wavefunctions         3.14 Mb     (   1117,  184)
        Each subspace H/S matrix        0.52 Mb     ( 184, 184)
        Each <psi_i|beta_j> matrix      0.08 Mb     (    120,   46)
        Arrays for rho mixing          13.18 Mb     ( 108000,   8)

     Check: negative/imaginary core charge=   -0.000028    0.000000

     The initial density is read from file :
     /home/mcurnan/dft-course/Project1/example_LaCoO3/0/Co/alpha/CoLaO_U0.save/charge-density.dat

 --- in v_hubbard ---
Hubbard energy   -0.0292
 -------
     Number of +U iterations with fixed ns =  0
     Starting occupations:
 --- enter write_ns ---
 LDA+U parameters:
U( 1)     =  0.00000000
alpha( 1) = -0.05000000
U( 2)     =  0.00000000
alpha( 2) =  0.00000000
U( 3)     =  0.00000000
alpha( 3) =  0.00000000
U( 4)     =  0.00000000
alpha( 4) =  0.00000000
atom    1   Tr[ns(na)] (up, down, total) =   4.56612  3.37352  7.93963
   spin  1
    eigenvalues: 
  0.785  0.785  0.999  0.999  0.999
    eigenvectors:
  0.000  0.000  0.000  0.000  1.000
  0.422  0.224  0.056  0.298  0.000
  0.224  0.422  0.298  0.056  0.000
  0.346  0.008  0.556  0.090  0.000
  0.008  0.346  0.090  0.556  0.000
    occupations:
  0.999  0.000  0.000  0.000  0.000
  0.000  0.861  0.000 -0.073  0.072
  0.000  0.000  0.861  0.072  0.073
  0.000 -0.073  0.072  0.923  0.000
  0.000  0.072  0.073  0.000  0.923
   spin  2
    eigenvalues: 
  0.474  0.474  0.773  0.826  0.826
    eigenvectors:
  0.000  0.000  1.000  0.000  0.000
  0.276  0.363  0.000  0.034  0.327
  0.363  0.276  0.000  0.327  0.034
  0.279  0.082  0.000  0.476  0.163
  0.082  0.279  0.000  0.163  0.476
    occupations:
  0.773  0.000  0.000  0.000  0.000
  0.000  0.601  0.000 -0.037  0.165
  0.000  0.000  0.601  0.165  0.037
  0.000 -0.037  0.165  0.699  0.000
  0.000  0.165  0.037  0.000  0.699
atomic mag. moment =     1.192598
atom    2   Tr[ns(na)] (up, down, total) =   4.67274  3.22494  7.89767
   spin  1
    eigenvalues: 
  0.838  0.838  0.999  0.999  0.999
    eigenvectors:
  0.000  0.000  0.000  0.000  1.000
  0.643  0.003  0.325  0.029  0.000
  0.003  0.643  0.029  0.325  0.000
  0.153  0.201  0.499  0.147  0.000
  0.201  0.153  0.147  0.499  0.000
    occupations:
  0.999  0.000  0.000  0.000  0.000
  0.000  0.895  0.000  0.054  0.054
  0.000  0.000  0.895  0.054 -0.054
  0.000  0.054  0.054  0.942  0.000
  0.000  0.054 -0.054  0.000  0.942
   spin  2
    eigenvalues: 
  0.459  0.459  0.730  0.788  0.788
    eigenvectors:
  0.000  0.000  1.000  0.000  0.000
  0.510  0.125  0.000  0.190  0.175
  0.125  0.510  0.000  0.175  0.190
  0.019  0.346  0.000  0.447  0.189
  0.346  0.019  0.000  0.189  0.447
    occupations:
  0.730  0.000  0.000  0.000  0.000
  0.000  0.579  0.000  0.036  0.154
  0.000  0.000  0.579  0.154 -0.036
  0.000  0.036  0.154  0.668  0.000
  0.000  0.154 -0.036  0.000  0.668
atomic mag. moment =     1.447801
atom    3   Tr[ns(na)] (up, down, total) =   1.91460  1.90025  3.81485
   spin  1
    eigenvalues: 
  0.357  0.357  0.387  0.407  0.407
    eigenvectors:
  0.000  0.000  1.000  0.000  0.000
  0.786  0.138  0.000  0.011  0.065
  0.138  0.786  0.000  0.065  0.011
  0.012  0.064  0.000  0.785  0.139
  0.064  0.012  0.000  0.139  0.785
    occupations:
  0.387  0.000  0.000  0.000  0.000
  0.000  0.361  0.000  0.000  0.013
  0.000  0.000  0.361  0.013  0.000
  0.000  0.000  0.013  0.403  0.000
  0.000  0.013  0.000  0.000  0.403
   spin  2
    eigenvalues: 
  0.353  0.353  0.387  0.404  0.404
    eigenvectors:
  0.000  0.000  1.000  0.000  0.000
  0.766  0.145  0.000  0.013  0.077
  0.145  0.766  0.000  0.077  0.013
  0.015  0.075  0.000  0.767  0.143
  0.075  0.015  0.000  0.143  0.767
    occupations:
  0.387  0.000  0.000  0.000  0.000
  0.000  0.358  0.000  0.000  0.015
  0.000  0.000  0.358  0.015  0.000
  0.000  0.000  0.015  0.399  0.000
  0.000  0.015  0.000  0.000  0.399
atomic mag. moment =     0.014350
atom    4   Tr[ns(na)] (up, down, total) =   1.91460  1.90025  3.81485
   spin  1
    eigenvalues: 
  0.357  0.357  0.387  0.407  0.407
    eigenvectors:
  0.000  0.000  1.000  0.000  0.000
  0.786  0.138  0.000  0.011  0.065
  0.138  0.786  0.000  0.065  0.011
  0.012  0.064  0.000  0.785  0.139
  0.064  0.012  0.000  0.139  0.785
    occupations:
  0.387  0.000  0.000  0.000  0.000
  0.000  0.361  0.000  0.000  0.013
  0.000  0.000  0.361  0.013  0.000
  0.000  0.000  0.013  0.403  0.000
  0.000  0.013  0.000  0.000  0.403
   spin  2
    eigenvalues: 
  0.353  0.353  0.387  0.404  0.404
    eigenvectors:
  0.000  0.000  1.000  0.000  0.000
  0.766  0.145  0.000  0.013  0.077
  0.145  0.766  0.000  0.077  0.013
  0.015  0.074  0.000  0.767  0.143
  0.074  0.015  0.000  0.143  0.767
    occupations:
  0.387  0.000  0.000  0.000  0.000
  0.000  0.358  0.000  0.000  0.015
  0.000  0.000  0.358  0.015  0.000
  0.000  0.000  0.015  0.399  0.000
  0.000  0.015  0.000  0.000  0.399
atomic mag. moment =     0.014350
atom    5   Tr[ns(na)] (up, down, total) =   2.74224  2.70309  5.44533
   spin  1
    eigenvalues: 
  0.844  0.947  0.951
    eigenvectors:
  0.337  0.000  0.663
  0.487  0.256  0.257
  0.176  0.744  0.080
    occupations:
  0.915  0.044  0.026
  0.044  0.898 -0.030
  0.026 -0.030  0.929
   spin  2
    eigenvalues: 
  0.864  0.920  0.920
    eigenvectors:
  0.333  0.051  0.615
  0.486  0.406  0.108
  0.181  0.543  0.276
    occupations:
  0.901  0.022  0.014
  0.022  0.893 -0.016
  0.014 -0.016  0.910
atomic mag. moment =     0.039149
atom    6   Tr[ns(na)] (up, down, total) =   2.74224  2.70309  5.44533
   spin  1
    eigenvalues: 
  0.844  0.947  0.951
    eigenvectors:
  0.337  0.000  0.663
  0.000  1.000  0.000
  0.663  0.000  0.337
    occupations:
  0.915  0.001 -0.051
  0.001  0.947  0.001
 -0.051  0.001  0.880
   spin  2
    eigenvalues: 
  0.864  0.920  0.920
    eigenvectors:
  0.333  0.051  0.615
  0.000  0.915  0.085
  0.666  0.034  0.300
    occupations:
  0.901  0.001 -0.026
  0.001  0.920  0.001
 -0.026  0.001  0.883
atomic mag. moment =     0.039149
atom    7   Tr[ns(na)] (up, down, total) =   2.74224  2.70309  5.44533
   spin  1
    eigenvalues: 
  0.844  0.947  0.951
    eigenvectors:
  0.337  0.000  0.663
  0.508  0.244  0.248
  0.155  0.756  0.089
    occupations:
  0.915 -0.044  0.025
 -0.044  0.896  0.029
  0.025  0.029  0.932
   spin  2
    eigenvalues: 
  0.864  0.920  0.920
    eigenvectors:
  0.333  0.051  0.615
  0.514  0.102  0.384
  0.153  0.846  0.000
    occupations:
  0.901 -0.023  0.013
 -0.023  0.891  0.016
  0.013  0.016  0.911
atomic mag. moment =     0.039149
atom    8   Tr[ns(na)] (up, down, total) =   2.74224  2.70309  5.44533
   spin  1
    eigenvalues: 
  0.844  0.947  0.951
    eigenvectors:
  0.337  0.000  0.663
  0.000  1.000  0.000
  0.663  0.000  0.337
    occupations:
  0.915  0.001 -0.051
  0.001  0.947  0.001
 -0.051  0.001  0.880
   spin  2
    eigenvalues: 
  0.864  0.920  0.920
    eigenvectors:
  0.333  0.051  0.615
  0.000  0.915  0.085
  0.666  0.034  0.300
    occupations:
  0.901  0.001 -0.026
  0.001  0.920  0.001
 -0.026  0.001  0.883
atomic mag. moment =     0.039149
atom    9   Tr[ns(na)] (up, down, total) =   2.74224  2.70309  5.44533
   spin  1
    eigenvalues: 
  0.844  0.947  0.951
    eigenvectors:
  0.337  0.000  0.663
  0.487  0.256  0.257
  0.176  0.744  0.080
    occupations:
  0.915  0.044  0.026
  0.044  0.898 -0.030
  0.026 -0.030  0.929
   spin  2
    eigenvalues: 
  0.864  0.920  0.920
    eigenvectors:
  0.333  0.051  0.615
  0.486  0.406  0.108
  0.181  0.543  0.276
    occupations:
  0.901  0.022  0.014
  0.022  0.893 -0.016
  0.014 -0.016  0.910
atomic mag. moment =     0.039149
atom   10   Tr[ns(na)] (up, down, total) =   2.74224  2.70309  5.44533
   spin  1
    eigenvalues: 
  0.844  0.947  0.951
    eigenvectors:
  0.337  0.000  0.663
  0.508  0.244  0.248
  0.155  0.756  0.089
    occupations:
  0.915 -0.044  0.025
 -0.044  0.896  0.029
  0.025  0.029  0.932
   spin  2
    eigenvalues: 
  0.864  0.920  0.920
    eigenvectors:
  0.333  0.051  0.615
  0.514  0.102  0.384
  0.153  0.846  0.000
    occupations:
  0.901 -0.023  0.013
 -0.023  0.891  0.016
  0.013  0.016  0.911
atomic mag. moment =     0.039149
N of occupied +U levels =  56.1389605
 --- exit write_ns ---
 LDA+U Projector read from file 
     Starting wfc from file

     total cpu time spent up to now is        8.7 secs

     per-process dynamical memory:    66.8 Mb

     Self-consistent Calculation

     iteration #  1     ecut=    30.00 Ry     beta=0.20
     Davidson diagonalization with overlap
     c_bands:  1 eigenvalues not converged
     c_bands:  1 eigenvalues not converged
     c_bands:  1 eigenvalues not converged
     c_bands:  1 eigenvalues not converged
     c_bands:  1 eigenvalues not converged
     c_bands:  1 eigenvalues not converged
     c_bands:  1 eigenvalues not converged
     c_bands:  1 eigenvalues not converged
     c_bands:  1 eigenvalues not converged
     c_bands:  1 eigenvalues not converged
     ethr =  1.00E-10,  avg # of iterations = 13.3
 --- enter write_ns ---
 LDA+U parameters:
U( 1)     =  0.00000000
alpha( 1) = -0.05000000
U( 2)     =  0.00000000
alpha( 2) =  0.00000000
U( 3)     =  0.00000000
alpha( 3) =  0.00000000
U( 4)     =  0.00000000
alpha( 4) =  0.00000000
atom    1   Tr[ns(na)] (up, down, total) =   4.57419  3.42020  7.99438
   spin  1
    eigenvalues: 
  0.789  0.789  0.999  0.999  0.999
    eigenvectors:
  0.000  0.000  0.000  0.000  1.000
  0.422  0.224  0.056  0.298  0.000
  0.224  0.422  0.298  0.056  0.000
  0.346  0.008  0.556  0.090  0.000
  0.008  0.346  0.090  0.556  0.000
    occupations:
  0.999  0.000  0.000  0.000  0.000
  0.000  0.863  0.000 -0.071  0.071
  0.000  0.000  0.863  0.071  0.071
  0.000 -0.071  0.071  0.925  0.000
  0.000  0.071  0.071  0.000  0.925
   spin  2
    eigenvalues: 
  0.478  0.478  0.787  0.838  0.838
    eigenvectors:
  0.000  0.000  1.000  0.000  0.000
  0.277  0.362  0.000  0.032  0.328
  0.362  0.277  0.000  0.328  0.032
  0.280  0.081  0.000  0.477  0.163
  0.081  0.280  0.000  0.163  0.477
    occupations:
  0.787  0.000  0.000  0.000  0.000
  0.000  0.608  0.000 -0.039  0.168
  0.000  0.000  0.608  0.168  0.039
  0.000 -0.039  0.168  0.708  0.000
  0.000  0.168  0.039  0.000  0.708
atomic mag. moment =     1.153993
atom    2   Tr[ns(na)] (up, down, total) =   4.66705  3.19347  7.86052
   spin  1
    eigenvalues: 
  0.835  0.835  0.999  0.999  0.999
    eigenvectors:
  0.000  0.000  0.000  0.000  1.000
  0.643  0.003  0.325  0.029  0.000
  0.003  0.643  0.029  0.325  0.000
  0.152  0.202  0.499  0.147  0.000
  0.202  0.152  0.147  0.499  0.000
    occupations:
  0.999  0.000  0.000  0.000  0.000
  0.000  0.893  0.000  0.055  0.055
  0.000  0.000  0.893  0.055 -0.055
  0.000  0.055  0.055  0.941  0.000
  0.000  0.055 -0.055  0.000  0.941
   spin  2
    eigenvalues: 
  0.459  0.459  0.719  0.778  0.778
    eigenvectors:
  0.000  0.000  1.000  0.000  0.000
  0.495  0.140  0.000  0.187  0.179
  0.140  0.495  0.000  0.179  0.187
  0.026  0.339  0.000  0.447  0.188
  0.339  0.026  0.000  0.188  0.447
    occupations:
  0.719  0.000  0.000  0.000  0.000
  0.000  0.576  0.000  0.034  0.150
  0.000  0.000  0.576  0.150 -0.034
  0.000  0.034  0.150  0.662  0.000
  0.000  0.150 -0.034  0.000  0.662
atomic mag. moment =     1.473582
atom    3   Tr[ns(na)] (up, down, total) =   1.91444  1.89995  3.81439
   spin  1
    eigenvalues: 
  0.357  0.357  0.387  0.407  0.407
    eigenvectors:
  0.000  0.000  1.000  0.000  0.000
  0.786  0.138  0.000  0.011  0.065
  0.138  0.786  0.000  0.065  0.011
  0.012  0.064  0.000  0.785  0.139
  0.064  0.012  0.000  0.139  0.785
    occupations:
  0.387  0.000  0.000  0.000  0.000
  0.000  0.361  0.000  0.000  0.013
  0.000  0.000  0.361  0.013  0.000
  0.000  0.000  0.013  0.403  0.000
  0.000  0.013  0.000  0.000  0.403
   spin  2
    eigenvalues: 
  0.353  0.353  0.387  0.404  0.404
    eigenvectors:
  0.000  0.000  1.000  0.000  0.000
  0.765  0.145  0.000  0.013  0.077
  0.145  0.765  0.000  0.077  0.013
  0.016  0.074  0.000  0.767  0.143
  0.074  0.016  0.000  0.143  0.767
    occupations:
  0.387  0.000  0.000  0.000  0.000
  0.000  0.357  0.000  0.000  0.015
  0.000  0.000  0.357  0.015  0.000
  0.000  0.000  0.015  0.399  0.000
  0.000  0.015  0.000  0.000  0.399
atomic mag. moment =     0.014492
atom    4   Tr[ns(na)] (up, down, total) =   1.91444  1.89995  3.81439
   spin  1
    eigenvalues: 
  0.357  0.357  0.387  0.407  0.407
    eigenvectors:
  0.000  0.000  1.000  0.000  0.000
  0.787  0.137  0.000  0.011  0.065
  0.137  0.787  0.000  0.065  0.011
  0.012  0.064  0.000  0.785  0.139
  0.064  0.012  0.000  0.139  0.785
    occupations:
  0.387  0.000  0.000  0.000  0.000
  0.000  0.361  0.000  0.000  0.013
  0.000  0.000  0.361  0.013  0.000
  0.000  0.000  0.013  0.403  0.000
  0.000  0.013  0.000  0.000  0.403
   spin  2
    eigenvalues: 
  0.353  0.353  0.387  0.404  0.404
    eigenvectors:
  0.000  0.000  1.000  0.000  0.000
  0.765  0.145  0.000  0.013  0.077
  0.145  0.765  0.000  0.077  0.013
  0.016  0.074  0.000  0.767  0.143
  0.074  0.016  0.000  0.143  0.767
    occupations:
  0.387  0.000  0.000  0.000  0.000
  0.000  0.357  0.000  0.000  0.015
  0.000  0.000  0.357  0.015  0.000
  0.000  0.000  0.015  0.399  0.000
  0.000  0.015  0.000  0.000  0.399
atomic mag. moment =     0.014492
atom    5   Tr[ns(na)] (up, down, total) =   2.74120  2.70188  5.44308
   spin  1
    eigenvalues: 
  0.843  0.947  0.951
    eigenvectors:
  0.337  0.000  0.663
  0.488  0.255  0.257
  0.175  0.744  0.080
    occupations:
  0.915  0.044  0.026
  0.044  0.897 -0.030
  0.026 -0.030  0.929
   spin  2
    eigenvalues: 
  0.863  0.919  0.919
    eigenvectors:
  0.334  0.059  0.607
  0.480  0.423  0.096
  0.186  0.518  0.296
    occupations:
  0.901  0.022  0.014
  0.022  0.892 -0.017
  0.014 -0.017  0.909
atomic mag. moment =     0.039323
atom    6   Tr[ns(na)] (up, down, total) =   2.74120  2.70188  5.44308
   spin  1
    eigenvalues: 
  0.843  0.947  0.951
    eigenvectors:
  0.337  0.000  0.663
  0.000  1.000  0.000
  0.663  0.000  0.337
    occupations:
  0.915  0.001 -0.051
  0.001  0.947  0.001
 -0.051  0.001  0.879
   spin  2
    eigenvalues: 
  0.863  0.919  0.919
    eigenvectors:
  0.334  0.059  0.607
  0.001  0.899  0.100
  0.666  0.041  0.293
    occupations:
  0.901  0.001 -0.026
  0.001  0.919  0.001
 -0.026  0.001  0.882
atomic mag. moment =     0.039323
atom    7   Tr[ns(na)] (up, down, total) =   2.74120  2.70188  5.44308
   spin  1
    eigenvalues: 
  0.843  0.947  0.951
    eigenvectors:
  0.337  0.000  0.663
  0.507  0.245  0.249
  0.157  0.755  0.088
    occupations:
  0.915 -0.045  0.025
 -0.045  0.895  0.029
  0.025  0.029  0.931
   spin  2
    eigenvalues: 
  0.863  0.919  0.919
    eigenvectors:
  0.334  0.059  0.607
  0.519  0.089  0.393
  0.148  0.852  0.000
    occupations:
  0.901 -0.023  0.012
 -0.023  0.890  0.016
  0.012  0.016  0.911
atomic mag. moment =     0.039323
atom    8   Tr[ns(na)] (up, down, total) =   2.74120  2.70188  5.44308
   spin  1
    eigenvalues: 
  0.843  0.947  0.951
    eigenvectors:
  0.337  0.000  0.663
  0.000  1.000  0.000
  0.663  0.000  0.337
    occupations:
  0.915  0.001 -0.051
  0.001  0.947  0.001
 -0.051  0.001  0.879
   spin  2
    eigenvalues: 
  0.863  0.919  0.919
    eigenvectors:
  0.334  0.059  0.607
  0.001  0.899  0.100
  0.666  0.041  0.293
    occupations:
  0.901  0.001 -0.026
  0.001  0.919  0.001
 -0.026  0.001  0.882
atomic mag. moment =     0.039323
atom    9   Tr[ns(na)] (up, down, total) =   2.74120  2.70188  5.44308
   spin  1
    eigenvalues: 
  0.843  0.947  0.951
    eigenvectors:
  0.337  0.000  0.663
  0.488  0.255  0.257
  0.175  0.744  0.080
    occupations:
  0.915  0.044  0.026
  0.044  0.897 -0.030
  0.026 -0.030  0.929
   spin  2
    eigenvalues: 
  0.863  0.919  0.919
    eigenvectors:
  0.334  0.059  0.607
  0.480  0.423  0.096
  0.186  0.518  0.296
    occupations:
  0.901  0.022  0.014
  0.022  0.892 -0.017
  0.014 -0.017  0.909
atomic mag. moment =     0.039323
atom   10   Tr[ns(na)] (up, down, total) =   2.74120  2.70188  5.44308
   spin  1
    eigenvalues: 
  0.843  0.947  0.951
    eigenvectors:
  0.337  0.000  0.663
  0.507  0.245  0.249
  0.157  0.755  0.088
    occupations:
  0.915 -0.045  0.025
 -0.045  0.895  0.029
  0.025  0.029  0.931
   spin  2
    eigenvalues: 
  0.863  0.919  0.919
    eigenvectors:
  0.334  0.059  0.607
  0.519  0.089  0.393
  0.148  0.852  0.000
    occupations:
  0.901 -0.023  0.012
 -0.023  0.890  0.016
  0.012  0.016  0.911
atomic mag. moment =     0.039323
N of occupied +U levels =  56.1421557
 --- exit write_ns ---
 --- in v_hubbard ---
Hubbard energy   -0.0292
 -------

     total cpu time spent up to now is       54.9 secs

     total energy              =    -538.38350166 Ry
     Harris-Foulkes estimate   =    -538.38470334 Ry
     estimated scf accuracy    <       0.00364260 Ry

     total magnetization       =     3.53 Bohr mag/cell
     absolute magnetization    =     3.68 Bohr mag/cell

     iteration #  2     ecut=    30.00 Ry     beta=0.20
     Davidson diagonalization with overlap
     ethr =  4.79E-06,  avg # of iterations =  2.0
 --- enter write_ns ---
 LDA+U parameters:
U( 1)     =  0.00000000
alpha( 1) = -0.05000000
U( 2)     =  0.00000000
alpha( 2) =  0.00000000
U( 3)     =  0.00000000
alpha( 3) =  0.00000000
U( 4)     =  0.00000000
alpha( 4) =  0.00000000
atom    1   Tr[ns(na)] (up, down, total) =   4.50983  3.11056  7.62038
   spin  1
    eigenvalues: 
  0.757  0.757  0.998  0.998  0.999
    eigenvectors:
  0.000  0.000  0.000  0.000  1.000
  0.422  0.225  0.055  0.299  0.000
  0.225  0.422  0.299  0.055  0.000
  0.345  0.008  0.556  0.090  0.000
  0.008  0.345  0.090  0.556  0.000
    occupations:
  0.999  0.000  0.000  0.000  0.000
  0.000  0.842  0.000 -0.082  0.081
  0.000  0.000  0.842  0.081  0.082
  0.000 -0.082  0.081  0.913  0.000
  0.000  0.081  0.082  0.000  0.913
   spin  2
    eigenvalues: 
  0.462  0.462  0.687  0.750  0.750
    eigenvectors:
  0.000  0.000  1.000  0.000  0.000
  0.265  0.372  0.000  0.050  0.314
  0.372  0.265  0.000  0.314  0.050
  0.269  0.095  0.000  0.465  0.171
  0.095  0.269  0.000  0.171  0.465
    occupations:
  0.687  0.000  0.000  0.000  0.000
  0.000  0.567  0.000 -0.023  0.137
  0.000  0.000  0.567  0.137  0.023
  0.000 -0.023  0.137  0.645  0.000
  0.000  0.137  0.023  0.000  0.645
atomic mag. moment =     1.399269
atom    2   Tr[ns(na)] (up, down, total) =   4.72482  3.47691  8.20172
   spin  1
    eigenvalues: 
  0.864  0.864  0.999  0.999  0.999
    eigenvectors:
  0.000  0.000  1.000  0.000  0.000
  0.643  0.003  0.000  0.326  0.028
  0.003  0.643  0.000  0.028  0.326
  0.154  0.200  0.000  0.500  0.146
  0.200  0.154  0.000  0.146  0.500
    occupations:
  0.999  0.000  0.000  0.000  0.000
  0.000  0.912  0.000  0.046  0.045
  0.000  0.000  0.912  0.045 -0.046
  0.000  0.046  0.045  0.951  0.000
  0.000  0.045 -0.046  0.000  0.951
   spin  2
    eigenvalues: 
  0.472  0.472  0.813  0.859  0.859
    eigenvectors:
  0.000  0.000  1.000  0.000  0.000
  0.574  0.064  0.000  0.202  0.160
  0.064  0.574  0.000  0.160  0.202
  0.001  0.361  0.000  0.449  0.189
  0.361  0.001  0.000  0.189  0.449
    occupations:
  0.813  0.000  0.000  0.000  0.000
  0.000  0.613  0.000  0.049  0.179
  0.000  0.000  0.613  0.179 -0.049
  0.000  0.049  0.179  0.719  0.000
  0.000  0.179 -0.049  0.000  0.719
atomic mag. moment =     1.247910
atom    3   Tr[ns(na)] (up, down, total) =   1.91451  1.89977  3.81428
   spin  1
    eigenvalues: 
  0.357  0.357  0.387  0.407  0.407
    eigenvectors:
  0.000  0.000  1.000  0.000  0.000
  0.786  0.138  0.000  0.011  0.065
  0.138  0.786  0.000  0.065  0.011
  0.012  0.064  0.000  0.785  0.139
  0.064  0.012  0.000  0.139  0.785
    occupations:
  0.387  0.000  0.000  0.000  0.000
  0.000  0.361  0.000  0.000  0.013
  0.000  0.000  0.361  0.013  0.000
  0.000  0.000  0.013  0.403  0.000
  0.000  0.013  0.000  0.000  0.403
   spin  2
    eigenvalues: 
  0.353  0.353  0.387  0.404  0.404
    eigenvectors:
  0.000  0.000  1.000  0.000  0.000
  0.767  0.143  0.000  0.015  0.075
  0.143  0.767  0.000  0.075  0.015
  0.013  0.077  0.000  0.767  0.143
  0.077  0.013  0.000  0.143  0.767
    occupations:
  0.387  0.000  0.000  0.000  0.000
  0.000  0.357  0.000  0.000  0.015
  0.000  0.000  0.357  0.015  0.000
  0.000  0.000  0.015  0.399  0.000
  0.000  0.015  0.000  0.000  0.399
atomic mag. moment =     0.014739
atom    4   Tr[ns(na)] (up, down, total) =   1.91451  1.89977  3.81428
   spin  1
    eigenvalues: 
  0.357  0.357  0.387  0.407  0.407
    eigenvectors:
  0.000  0.000  1.000  0.000  0.000
  0.787  0.137  0.000  0.011  0.065
  0.137  0.787  0.000  0.065  0.011
  0.012  0.064  0.000  0.785  0.139
  0.064  0.012  0.000  0.139  0.785
    occupations:
  0.387  0.000  0.000  0.000  0.000
  0.000  0.361  0.000  0.000  0.013
  0.000  0.000  0.361  0.013  0.000
  0.000  0.000  0.013  0.403  0.000
  0.000  0.013  0.000  0.000  0.403
   spin  2
    eigenvalues: 
  0.353  0.353  0.387  0.404  0.404
    eigenvectors:
  0.000  0.000  1.000  0.000  0.000
  0.767  0.143  0.000  0.015  0.075
  0.143  0.767  0.000  0.075  0.015
  0.013  0.077  0.000  0.767  0.143
  0.077  0.013  0.000  0.143  0.767
    occupations:
  0.387  0.000  0.000  0.000  0.000
  0.000  0.357  0.000  0.000  0.015
  0.000  0.000  0.357  0.015  0.000
  0.000  0.000  0.015  0.399  0.000
  0.000  0.015  0.000  0.000  0.399
atomic mag. moment =     0.014739
atom    5   Tr[ns(na)] (up, down, total) =   2.74462  2.70297  5.44759
   spin  1
    eigenvalues: 
  0.846  0.948  0.951
    eigenvectors:
  0.336  0.001  0.663
  0.476  0.263  0.261
  0.188  0.736  0.076
    occupations:
  0.916  0.042  0.026
  0.042  0.900 -0.030
  0.026 -0.030  0.929
   spin  2
    eigenvalues: 
  0.864  0.919  0.920
    eigenvectors:
  0.333  0.117  0.549
  0.520  0.045  0.435
  0.147  0.838  0.016
    occupations:
  0.901  0.023  0.012
  0.023  0.891 -0.015
  0.012 -0.015  0.911
atomic mag. moment =     0.041642
atom    6   Tr[ns(na)] (up, down, total) =   2.74462  2.70297  5.44759
   spin  1
    eigenvalues: 
  0.846  0.948  0.951
    eigenvectors:
  0.336  0.001  0.663
  0.001  0.999  0.000
  0.663  0.000  0.337
    occupations:
  0.916  0.002 -0.050
  0.002  0.948  0.003
 -0.050  0.003  0.881
   spin  2
    eigenvalues: 
  0.864  0.919  0.920
    eigenvectors:
  0.333  0.117  0.549
  0.001  0.808  0.192
  0.666  0.075  0.259
    occupations:
  0.901 -0.001 -0.026
 -0.001  0.919 -0.001
 -0.026 -0.001  0.882
atomic mag. moment =     0.041642
atom    7   Tr[ns(na)] (up, down, total) =   2.74462  2.70297  5.44759
   spin  1
    eigenvalues: 
  0.846  0.948  0.951
    eigenvectors:
  0.336  0.001  0.663
  0.519  0.236  0.245
  0.145  0.763  0.092
    occupations:
  0.916 -0.044  0.023
 -0.044  0.896  0.027
  0.023  0.027  0.933
   spin  2
    eigenvalues: 
  0.864  0.919  0.920
    eigenvectors:
  0.333  0.117  0.549
  0.479  0.472  0.049
  0.188  0.411  0.401
    occupations:
  0.901 -0.022  0.014
 -0.022  0.893  0.017
  0.014  0.017  0.909
atomic mag. moment =     0.041642
atom    8   Tr[ns(na)] (up, down, total) =   2.74462  2.70297  5.44759
   spin  1
    eigenvalues: 
  0.846  0.948  0.951
    eigenvectors:
  0.336  0.001  0.663
  0.001  0.999  0.000
  0.663  0.000  0.337
    occupations:
  0.916  0.002 -0.050
  0.002  0.948  0.003
 -0.050  0.003  0.881
   spin  2
    eigenvalues: 
  0.864  0.919  0.920
    eigenvectors:
  0.333  0.117  0.549
  0.001  0.808  0.192
  0.666  0.075  0.259
    occupations:
  0.901 -0.001 -0.026
 -0.001  0.919 -0.001
 -0.026 -0.001  0.882
atomic mag. moment =     0.041642
atom    9   Tr[ns(na)] (up, down, total) =   2.74462  2.70297  5.44759
   spin  1
    eigenvalues: 
  0.846  0.948  0.951
    eigenvectors:
  0.336  0.001  0.663
  0.476  0.263  0.261
  0.188  0.736  0.076
    occupations:
  0.916  0.042  0.026
  0.042  0.900 -0.030
  0.026 -0.030  0.929
   spin  2
    eigenvalues: 
  0.864  0.919  0.920
    eigenvectors:
  0.333  0.117  0.549
  0.520  0.045  0.435
  0.147  0.838  0.016
    occupations:
  0.901  0.023  0.012
  0.023  0.891 -0.015
  0.012 -0.015  0.911
atomic mag. moment =     0.041642
atom   10   Tr[ns(na)] (up, down, total) =   2.74462  2.70297  5.44759
   spin  1
    eigenvalues: 
  0.846  0.948  0.951
    eigenvectors:
  0.336  0.001  0.663
  0.519  0.236  0.245
  0.145  0.763  0.092
    occupations:
  0.916 -0.044  0.023
 -0.044  0.896  0.027
  0.023  0.027  0.933
   spin  2
    eigenvalues: 
  0.864  0.919  0.920
    eigenvectors:
  0.333  0.117  0.549
  0.479  0.472  0.049
  0.188  0.411  0.401
    occupations:
  0.901 -0.022  0.014
 -0.022  0.893  0.017
  0.014  0.017  0.909
atomic mag. moment =     0.041642
N of occupied +U levels =  56.1362215
 --- exit write_ns ---
 --- in v_hubbard ---
Hubbard energy   -0.0292
 -------

     total cpu time spent up to now is       77.4 secs

     total energy              =    -538.38033806 Ry
     Harris-Foulkes estimate   =    -538.38893354 Ry
     estimated scf accuracy    <       0.19568730 Ry

     total magnetization       =     3.57 Bohr mag/cell
     absolute magnetization    =     3.72 Bohr mag/cell

     iteration #  3     ecut=    30.00 Ry     beta=0.20
     Davidson diagonalization with overlap
     ethr =  4.79E-06,  avg # of iterations =  2.0
 --- enter write_ns ---
 LDA+U parameters:
U( 1)     =  0.00000000
alpha( 1) = -0.05000000
U( 2)     =  0.00000000
alpha( 2) =  0.00000000
U( 3)     =  0.00000000
alpha( 3) =  0.00000000
U( 4)     =  0.00000000
alpha( 4) =  0.00000000
atom    1   Tr[ns(na)] (up, down, total) =   4.56519  3.38350  7.94869
   spin  1
    eigenvalues: 
  0.785  0.785  0.999  0.999  0.999
    eigenvectors:
  0.000  0.000  0.000  0.000  1.000
  0.422  0.224  0.056  0.298  0.000
  0.224  0.422  0.298  0.056  0.000
  0.346  0.008  0.556  0.090  0.000
  0.008  0.346  0.090  0.556  0.000
    occupations:
  0.999  0.000  0.000  0.000  0.000
  0.000  0.860  0.000 -0.073  0.072
  0.000  0.000  0.860  0.072  0.073
  0.000 -0.073  0.072  0.923  0.000
  0.000  0.072  0.073  0.000  0.923
   spin  2
    eigenvalues: 
  0.475  0.475  0.776  0.828  0.828
    eigenvectors:
  0.000  0.000  1.000  0.000  0.000
  0.277  0.363  0.000  0.033  0.328
  0.363  0.277  0.000  0.328  0.033
  0.279  0.082  0.000  0.476  0.163
  0.082  0.279  0.000  0.163  0.476
    occupations:
  0.776  0.000  0.000  0.000  0.000
  0.000  0.603  0.000 -0.037  0.165
  0.000  0.000  0.603  0.165  0.037
  0.000 -0.037  0.165  0.701  0.000
  0.000  0.165  0.037  0.000  0.701
atomic mag. moment =     1.181689
atom    2   Tr[ns(na)] (up, down, total) =   4.67296  3.22121  7.89417
   spin  1
    eigenvalues: 
  0.838  0.838  0.999  0.999  0.999
    eigenvectors:
  0.000  0.000  0.000  0.000  1.000
  0.643  0.003  0.325  0.028  0.000
  0.003  0.643  0.028  0.325  0.000
  0.153  0.201  0.499  0.147  0.000
  0.201  0.153  0.147  0.499  0.000
    occupations:
  0.999  0.000  0.000  0.000  0.000
  0.000  0.895  0.000  0.054  0.054
  0.000  0.000  0.895  0.054 -0.054
  0.000  0.054  0.054  0.942  0.000
  0.000  0.054 -0.054  0.000  0.942
   spin  2
    eigenvalues: 
  0.459  0.459  0.729  0.787  0.787
    eigenvectors:
  0.000  0.000  1.000  0.000  0.000
  0.510  0.126  0.000  0.189  0.176
  0.126  0.510  0.000  0.176  0.189
  0.019  0.345  0.000  0.447  0.188
  0.345  0.019  0.000  0.188  0.447
    occupations:
  0.729  0.000  0.000  0.000  0.000
  0.000  0.579  0.000  0.036  0.154
  0.000  0.000  0.579  0.154 -0.036
  0.000  0.036  0.154  0.667  0.000
  0.000  0.154 -0.036  0.000  0.667
atomic mag. moment =     1.451748
atom    3   Tr[ns(na)] (up, down, total) =   1.91431  1.89993  3.81424
   spin  1
    eigenvalues: 
  0.357  0.357  0.387  0.407  0.407
    eigenvectors:
  0.000  0.000  1.000  0.000  0.000
  0.786  0.138  0.000  0.011  0.065
  0.138  0.786  0.000  0.065  0.011
  0.012  0.064  0.000  0.785  0.139
  0.064  0.012  0.000  0.139  0.785
    occupations:
  0.387  0.000  0.000  0.000  0.000
  0.000  0.361  0.000  0.000  0.013
  0.000  0.000  0.361  0.013  0.000
  0.000  0.000  0.013  0.403  0.000
  0.000  0.013  0.000  0.000  0.403
   spin  2
    eigenvalues: 
  0.353  0.353  0.387  0.404  0.404
    eigenvectors:
  0.000  0.000  1.000  0.000  0.000
  0.765  0.145  0.000  0.013  0.077
  0.145  0.765  0.000  0.077  0.013
  0.015  0.074  0.000  0.767  0.143
  0.074  0.015  0.000  0.143  0.767
    occupations:
  0.387  0.000  0.000  0.000  0.000
  0.000  0.357  0.000  0.000  0.015
  0.000  0.000  0.357  0.015  0.000
  0.000  0.000  0.015  0.399  0.000
  0.000  0.015  0.000  0.000  0.399
atomic mag. moment =     0.014382
atom    4   Tr[ns(na)] (up, down, total) =   1.91431  1.89993  3.81424
   spin  1
    eigenvalues: 
  0.357  0.357  0.387  0.407  0.407
    eigenvectors:
  0.000  0.000  1.000  0.000  0.000
  0.787  0.137  0.000  0.011  0.065
  0.137  0.787  0.000  0.065  0.011
  0.012  0.064  0.000  0.785  0.139
  0.064  0.012  0.000  0.139  0.785
    occupations:
  0.387  0.000  0.000  0.000  0.000
  0.000  0.361  0.000  0.000  0.013
  0.000  0.000  0.361  0.013  0.000
  0.000  0.000  0.013  0.403  0.000
  0.000  0.013  0.000  0.000  0.403
   spin  2
    eigenvalues: 
  0.353  0.353  0.387  0.404  0.404
    eigenvectors:
  0.000  0.000  1.000  0.000  0.000
  0.765  0.145  0.000  0.013  0.077
  0.145  0.765  0.000  0.077  0.013
  0.015  0.075  0.000  0.767  0.143
  0.075  0.015  0.000  0.143  0.767
    occupations:
  0.387  0.000  0.000  0.000  0.000
  0.000  0.357  0.000  0.000  0.015
  0.000  0.000  0.357  0.015  0.000
  0.000  0.000  0.015  0.399  0.000
  0.000  0.015  0.000  0.000  0.399
atomic mag. moment =     0.014382
atom    5   Tr[ns(na)] (up, down, total) =   2.74214  2.70281  5.44495
   spin  1
    eigenvalues: 
  0.844  0.947  0.951
    eigenvectors:
  0.337  0.000  0.663
  0.487  0.256  0.257
  0.177  0.743  0.080
    occupations:
  0.915  0.044  0.026
  0.044  0.898 -0.030
  0.026 -0.030  0.929
   spin  2
    eigenvalues: 
  0.864  0.919  0.920
    eigenvectors:
  0.333  0.066  0.600
  0.485  0.423  0.092
  0.181  0.511  0.308
    occupations:
  0.901  0.022  0.014
  0.022  0.892 -0.017
  0.014 -0.017  0.909
atomic mag. moment =     0.039324
atom    6   Tr[ns(na)] (up, down, total) =   2.74214  2.70281  5.44495
   spin  1
    eigenvalues: 
  0.844  0.947  0.951
    eigenvectors:
  0.337  0.000  0.663
  0.000  1.000  0.000
  0.663  0.000  0.337
    occupations:
  0.915  0.001 -0.051
  0.001  0.947  0.001
 -0.051  0.001  0.880
   spin  2
    eigenvalues: 
  0.864  0.919  0.920
    eigenvectors:
  0.333  0.066  0.600
  0.000  0.891  0.108
  0.666  0.042  0.291
    occupations:
  0.901  0.001 -0.026
  0.001  0.919  0.001
 -0.026  0.001  0.882
atomic mag. moment =     0.039324
atom    7   Tr[ns(na)] (up, down, total) =   2.74214  2.70281  5.44495
   spin  1
    eigenvalues: 
  0.844  0.947  0.951
    eigenvectors:
  0.337  0.000  0.663
  0.508  0.243  0.248
  0.155  0.756  0.088
    occupations:
  0.915 -0.045  0.025
 -0.045  0.896  0.029
  0.025  0.029  0.932
   spin  2
    eigenvalues: 
  0.864  0.919  0.920
    eigenvectors:
  0.333  0.066  0.600
  0.514  0.086  0.399
  0.152  0.848  0.000
    occupations:
  0.901 -0.023  0.013
 -0.023  0.891  0.016
  0.013  0.016  0.911
atomic mag. moment =     0.039324
atom    8   Tr[ns(na)] (up, down, total) =   2.74214  2.70281  5.44495
   spin  1
    eigenvalues: 
  0.844  0.947  0.951
    eigenvectors:
  0.337  0.000  0.663
  0.000  1.000  0.000
  0.663  0.000  0.337
    occupations:
  0.915  0.001 -0.051
  0.001  0.947  0.001
 -0.051  0.001  0.880
   spin  2
    eigenvalues: 
  0.864  0.919  0.920
    eigenvectors:
  0.333  0.066  0.600
  0.000  0.891  0.108
  0.666  0.042  0.291
    occupations:
  0.901  0.001 -0.026
  0.001  0.919  0.001
 -0.026  0.001  0.882
atomic mag. moment =     0.039324
atom    9   Tr[ns(na)] (up, down, total) =   2.74214  2.70281  5.44495
   spin  1
    eigenvalues: 
  0.844  0.947  0.951
    eigenvectors:
  0.337  0.000  0.663
  0.487  0.256  0.257
  0.177  0.743  0.080
    occupations:
  0.915  0.044  0.026
  0.044  0.898 -0.030
  0.026 -0.030  0.929
   spin  2
    eigenvalues: 
  0.864  0.919  0.920
    eigenvectors:
  0.333  0.066  0.600
  0.485  0.423  0.092
  0.181  0.511  0.308
    occupations:
  0.901  0.022  0.014
  0.022  0.892 -0.017
  0.014 -0.017  0.909
atomic mag. moment =     0.039324
atom   10   Tr[ns(na)] (up, down, total) =   2.74214  2.70281  5.44495
   spin  1
    eigenvalues: 
  0.844  0.947  0.951
    eigenvectors:
  0.337  0.000  0.663
  0.508  0.243  0.248
  0.155  0.756  0.088
    occupations:
  0.915 -0.045  0.025
 -0.045  0.896  0.029
  0.025  0.029  0.932
   spin  2
    eigenvalues: 
  0.864  0.919  0.920
    eigenvectors:
  0.333  0.066  0.600
  0.514  0.086  0.399
  0.152  0.848  0.000
    occupations:
  0.901 -0.023  0.013
 -0.023  0.891  0.016
  0.013  0.016  0.911
atomic mag. moment =     0.039324
N of occupied +U levels =  56.1410250
 --- exit write_ns ---
 --- in v_hubbard ---
Hubbard energy   -0.0292
 -------

     total cpu time spent up to now is      100.5 secs

     total energy              =    -538.38458975 Ry
     Harris-Foulkes estimate   =    -538.38457581 Ry
     estimated scf accuracy    <       0.00001340 Ry

     total magnetization       =     3.53 Bohr mag/cell
     absolute magnetization    =     3.69 Bohr mag/cell

     iteration #  4     ecut=    30.00 Ry     beta=0.20
     Davidson diagonalization with overlap
     ethr =  1.76E-08,  avg # of iterations =  3.4
 --- enter write_ns ---
 LDA+U parameters:
U( 1)     =  0.00000000
alpha( 1) = -0.05000000
U( 2)     =  0.00000000
alpha( 2) =  0.00000000
U( 3)     =  0.00000000
alpha( 3) =  0.00000000
U( 4)     =  0.00000000
alpha( 4) =  0.00000000
atom    1   Tr[ns(na)] (up, down, total) =   4.56497  3.38437  7.94934
   spin  1
    eigenvalues: 
  0.784  0.784  0.999  0.999  0.999
    eigenvectors:
  0.000  0.000  0.000  0.000  1.000
  0.422  0.224  0.056  0.298  0.000
  0.224  0.422  0.298  0.056  0.000
  0.346  0.008  0.556  0.090  0.000
  0.008  0.346  0.090  0.556  0.000
    occupations:
  0.999  0.000  0.000  0.000  0.000
  0.000  0.860  0.000 -0.073  0.072
  0.000  0.000  0.860  0.072  0.073
  0.000 -0.073  0.072  0.923  0.000
  0.000  0.072  0.073  0.000  0.923
   spin  2
    eigenvalues: 
  0.476  0.476  0.776  0.828  0.828
    eigenvectors:
  0.000  0.000  1.000  0.000  0.000
  0.277  0.363  0.000  0.033  0.327
  0.363  0.277  0.000  0.327  0.033
  0.279  0.082  0.000  0.476  0.163
  0.082  0.279  0.000  0.163  0.476
    occupations:
  0.776  0.000  0.000  0.000  0.000
  0.000  0.603  0.000 -0.037  0.165
  0.000  0.000  0.603  0.165  0.037
  0.000 -0.037  0.165  0.701  0.000
  0.000  0.165  0.037  0.000  0.701
atomic mag. moment =     1.180603
atom    2   Tr[ns(na)] (up, down, total) =   4.67328  3.22202  7.89530
   spin  1
    eigenvalues: 
  0.838  0.838  0.999  0.999  0.999
    eigenvectors:
  0.000  0.000  0.000  0.000  1.000
  0.643  0.003  0.325  0.029  0.000
  0.003  0.643  0.029  0.325  0.000
  0.152  0.202  0.499  0.147  0.000
  0.202  0.152  0.147  0.499  0.000
    occupations:
  0.999  0.000  0.000  0.000  0.000
  0.000  0.895  0.000  0.054  0.054
  0.000  0.000  0.895  0.054 -0.054
  0.000  0.054  0.054  0.942  0.000
  0.000  0.054 -0.054  0.000  0.942
   spin  2
    eigenvalues: 
  0.460  0.460  0.729  0.787  0.787
    eigenvectors:
  0.000  0.000  1.000  0.000  0.000
  0.510  0.125  0.000  0.189  0.176
  0.125  0.510  0.000  0.176  0.189
  0.019  0.345  0.000  0.447  0.188
  0.345  0.019  0.000  0.188  0.447
    occupations:
  0.729  0.000  0.000  0.000  0.000
  0.000  0.579  0.000  0.036  0.154
  0.000  0.000  0.579  0.154 -0.036
  0.000  0.036  0.154  0.668  0.000
  0.000  0.154 -0.036  0.000  0.668
atomic mag. moment =     1.451260
atom    3   Tr[ns(na)] (up, down, total) =   1.91436  1.89997  3.81434
   spin  1
    eigenvalues: 
  0.357  0.357  0.387  0.407  0.407
    eigenvectors:
  0.000  0.000  1.000  0.000  0.000
  0.787  0.137  0.000  0.011  0.065
  0.137  0.787  0.000  0.065  0.011
  0.012  0.064  0.000  0.785  0.139
  0.064  0.012  0.000  0.139  0.785
    occupations:
  0.387  0.000  0.000  0.000  0.000
  0.000  0.361  0.000  0.000  0.013
  0.000  0.000  0.361  0.013  0.000
  0.000  0.000  0.013  0.403  0.000
  0.000  0.013  0.000  0.000  0.403
   spin  2
    eigenvalues: 
  0.353  0.353  0.387  0.404  0.404
    eigenvectors:
  0.000  0.000  1.000  0.000  0.000
  0.766  0.144  0.000  0.013  0.077
  0.144  0.766  0.000  0.077  0.013
  0.015  0.074  0.000  0.767  0.143
  0.074  0.015  0.000  0.143  0.767
    occupations:
  0.387  0.000  0.000  0.000  0.000
  0.000  0.357  0.000  0.000  0.015
  0.000  0.000  0.357  0.015  0.000
  0.000  0.000  0.015  0.399  0.000
  0.000  0.015  0.000  0.000  0.399
atomic mag. moment =     0.014392
atom    4   Tr[ns(na)] (up, down, total) =   1.91436  1.89997  3.81434
   spin  1
    eigenvalues: 
  0.357  0.357  0.387  0.407  0.407
    eigenvectors:
  0.000  0.000  1.000  0.000  0.000
  0.787  0.138  0.000  0.011  0.065
  0.138  0.787  0.000  0.065  0.011
  0.012  0.064  0.000  0.785  0.139
  0.064  0.012  0.000  0.139  0.785
    occupations:
  0.387  0.000  0.000  0.000  0.000
  0.000  0.361  0.000  0.000  0.013
  0.000  0.000  0.361  0.013  0.000
  0.000  0.000  0.013  0.403  0.000
  0.000  0.013  0.000  0.000  0.403
   spin  2
    eigenvalues: 
  0.353  0.353  0.387  0.404  0.404
    eigenvectors:
  0.000  0.000  1.000  0.000  0.000
  0.766  0.144  0.000  0.013  0.077
  0.144  0.766  0.000  0.077  0.013
  0.015  0.075  0.000  0.767  0.143
  0.075  0.015  0.000  0.143  0.767
    occupations:
  0.387  0.000  0.000  0.000  0.000
  0.000  0.357  0.000  0.000  0.015
  0.000  0.000  0.357  0.015  0.000
  0.000  0.000  0.015  0.399  0.000
  0.000  0.015  0.000  0.000  0.399
atomic mag. moment =     0.014392
atom    5   Tr[ns(na)] (up, down, total) =   2.74202  2.70265  5.44467
   spin  1
    eigenvalues: 
  0.843  0.947  0.951
    eigenvectors:
  0.337  0.000  0.663
  0.487  0.256  0.257
  0.177  0.743  0.080
    occupations:
  0.915  0.044  0.026
  0.044  0.898 -0.030
  0.026 -0.030  0.929
   spin  2
    eigenvalues: 
  0.864  0.919  0.920
    eigenvectors:
  0.333  0.062  0.605
  0.485  0.419  0.096
  0.182  0.519  0.299
    occupations:
  0.901  0.022  0.014
  0.022  0.892 -0.017
  0.014 -0.017  0.909
atomic mag. moment =     0.039364
atom    6   Tr[ns(na)] (up, down, total) =   2.74202  2.70265  5.44467
   spin  1
    eigenvalues: 
  0.843  0.947  0.951
    eigenvectors:
  0.337  0.000  0.663
  0.000  1.000  0.000
  0.663  0.000  0.337
    occupations:
  0.915  0.001 -0.051
  0.001  0.947  0.001
 -0.051  0.001  0.880
   spin  2
    eigenvalues: 
  0.864  0.919  0.920
    eigenvectors:
  0.333  0.062  0.605
  0.000  0.898  0.102
  0.666  0.040  0.294
    occupations:
  0.901  0.001 -0.026
  0.001  0.919  0.001
 -0.026  0.001  0.882
atomic mag. moment =     0.039364
atom    7   Tr[ns(na)] (up, down, total) =   2.74202  2.70265  5.44467
   spin  1
    eigenvalues: 
  0.843  0.947  0.951
    eigenvectors:
  0.337  0.000  0.663
  0.508  0.244  0.248
  0.155  0.756  0.089
    occupations:
  0.915 -0.045  0.025
 -0.045  0.896  0.029
  0.025  0.029  0.932
   spin  2
    eigenvalues: 
  0.864  0.919  0.920
    eigenvectors:
  0.333  0.062  0.605
  0.514  0.090  0.395
  0.152  0.848  0.000
    occupations:
  0.901 -0.023  0.013
 -0.023  0.891  0.016
  0.013  0.016  0.911
atomic mag. moment =     0.039364
atom    8   Tr[ns(na)] (up, down, total) =   2.74202  2.70265  5.44467
   spin  1
    eigenvalues: 
  0.843  0.947  0.951
    eigenvectors:
  0.337  0.000  0.663
  0.000  1.000  0.000
  0.663  0.000  0.337
    occupations:
  0.915  0.001 -0.051
  0.001  0.947  0.001
 -0.051  0.001  0.880
   spin  2
    eigenvalues: 
  0.864  0.919  0.920
    eigenvectors:
  0.333  0.062  0.605
  0.000  0.898  0.102
  0.666  0.040  0.294
    occupations:
  0.901  0.001 -0.026
  0.001  0.919  0.001
 -0.026  0.001  0.882
atomic mag. moment =     0.039364
atom    9   Tr[ns(na)] (up, down, total) =   2.74202  2.70265  5.44467
   spin  1
    eigenvalues: 
  0.843  0.947  0.951
    eigenvectors:
  0.337  0.000  0.663
  0.487  0.256  0.257
  0.177  0.743  0.080
    occupations:
  0.915  0.044  0.026
  0.044  0.898 -0.030
  0.026 -0.030  0.929
   spin  2
    eigenvalues: 
  0.864  0.919  0.920
    eigenvectors:
  0.333  0.062  0.605
  0.485  0.419  0.096
  0.182  0.519  0.299
    occupations:
  0.901  0.022  0.014
  0.022  0.892 -0.017
  0.014 -0.017  0.909
atomic mag. moment =     0.039364
atom   10   Tr[ns(na)] (up, down, total) =   2.74202  2.70265  5.44467
   spin  1
    eigenvalues: 
  0.843  0.947  0.951
    eigenvectors:
  0.337  0.000  0.663
  0.508  0.244  0.248
  0.155  0.756  0.089
    occupations:
  0.915 -0.045  0.025
 -0.045  0.896  0.029
  0.025  0.029  0.932
   spin  2
    eigenvalues: 
  0.864  0.919  0.920
    eigenvectors:
  0.333  0.062  0.605
  0.514  0.090  0.395
  0.152  0.848  0.000
    occupations:
  0.901 -0.023  0.013
 -0.023  0.891  0.016
  0.013  0.016  0.911
atomic mag. moment =     0.039364
N of occupied +U levels =  56.1413123
 --- exit write_ns ---
 --- in v_hubbard ---
Hubbard energy   -0.0292
 -------

     total cpu time spent up to now is      127.4 secs

     total energy              =    -538.38460255 Ry
     Harris-Foulkes estimate   =    -538.38459354 Ry
     estimated scf accuracy    <       0.00001296 Ry

     total magnetization       =     3.53 Bohr mag/cell
     absolute magnetization    =     3.68 Bohr mag/cell

     iteration #  5     ecut=    30.00 Ry     beta=0.20
     Davidson diagonalization with overlap
     ethr =  1.71E-08,  avg # of iterations =  1.0
 --- enter write_ns ---
 LDA+U parameters:
U( 1)     =  0.00000000
alpha( 1) = -0.05000000
U( 2)     =  0.00000000
alpha( 2) =  0.00000000
U( 3)     =  0.00000000
alpha( 3) =  0.00000000
U( 4)     =  0.00000000
alpha( 4) =  0.00000000
atom    1   Tr[ns(na)] (up, down, total) =   4.56349  3.38423  7.94772
   spin  1
    eigenvalues: 
  0.784  0.784  0.999  0.999  0.999
    eigenvectors:
  0.000  0.000  0.000  0.000  1.000
  0.422  0.224  0.056  0.298  0.000
  0.224  0.422  0.298  0.056  0.000
  0.346  0.008  0.556  0.090  0.000
  0.008  0.346  0.090  0.556  0.000
    occupations:
  0.999  0.000  0.000  0.000  0.000
  0.000  0.860  0.000 -0.073  0.072
  0.000  0.000  0.860  0.072  0.073
  0.000 -0.073  0.072  0.923  0.000
  0.000  0.072  0.073  0.000  0.923
   spin  2
    eigenvalues: 
  0.476  0.476  0.776  0.828  0.828
    eigenvectors:
  0.000  0.000  1.000  0.000  0.000
  0.277  0.363  0.000  0.033  0.327
  0.363  0.277  0.000  0.327  0.033
  0.279  0.082  0.000  0.476  0.163
  0.082  0.279  0.000  0.163  0.476
    occupations:
  0.776  0.000  0.000  0.000  0.000
  0.000  0.603  0.000 -0.037  0.165
  0.000  0.000  0.603  0.165  0.037
  0.000 -0.037  0.165  0.701  0.000
  0.000  0.165  0.037  0.000  0.701
atomic mag. moment =     1.179262
atom    2   Tr[ns(na)] (up, down, total) =   4.67401  3.22273  7.89675
   spin  1
    eigenvalues: 
  0.839  0.839  0.999  0.999  0.999
    eigenvectors:
  0.000  0.000  0.000  0.000  1.000
  0.643  0.003  0.325  0.029  0.000
  0.003  0.643  0.029  0.325  0.000
  0.153  0.201  0.499  0.147  0.000
  0.201  0.153  0.147  0.499  0.000
    occupations:
  0.999  0.000  0.000  0.000  0.000
  0.000  0.895  0.000  0.054  0.054
  0.000  0.000  0.895  0.054 -0.054
  0.000  0.054  0.054  0.942  0.000
  0.000  0.054 -0.054  0.000  0.942
   spin  2
    eigenvalues: 
  0.460  0.460  0.729  0.787  0.787
    eigenvectors:
  0.000  0.000  1.000  0.000  0.000
  0.510  0.125  0.000  0.189  0.176
  0.125  0.510  0.000  0.176  0.189
  0.019  0.345  0.000  0.447  0.188
  0.345  0.019  0.000  0.188  0.447
    occupations:
  0.729  0.000  0.000  0.000  0.000
  0.000  0.579  0.000  0.036  0.154
  0.000  0.000  0.579  0.154 -0.036
  0.000  0.036  0.154  0.668  0.000
  0.000  0.154 -0.036  0.000  0.668
atomic mag. moment =     1.451280
atom    3   Tr[ns(na)] (up, down, total) =   1.91441  1.90004  3.81445
   spin  1
    eigenvalues: 
  0.357  0.357  0.387  0.407  0.407
    eigenvectors:
  0.000  0.000  1.000  0.000  0.000
  0.787  0.138  0.000  0.011  0.065
  0.138  0.787  0.000  0.065  0.011
  0.012  0.064  0.000  0.785  0.139
  0.064  0.012  0.000  0.139  0.785
    occupations:
  0.387  0.000  0.000  0.000  0.000
  0.000  0.361  0.000  0.000  0.013
  0.000  0.000  0.361  0.013  0.000
  0.000  0.000  0.013  0.403  0.000
  0.000  0.013  0.000  0.000  0.403
   spin  2
    eigenvalues: 
  0.353  0.353  0.387  0.404  0.404
    eigenvectors:
  0.000  0.000  1.000  0.000  0.000
  0.765  0.145  0.000  0.013  0.077
  0.145  0.765  0.000  0.077  0.013
  0.015  0.074  0.000  0.767  0.143
  0.074  0.015  0.000  0.143  0.767
    occupations:
  0.387  0.000  0.000  0.000  0.000
  0.000  0.357  0.000  0.000  0.015
  0.000  0.000  0.357  0.015  0.000
  0.000  0.000  0.015  0.399  0.000
  0.000  0.015  0.000  0.000  0.399
atomic mag. moment =     0.014370
atom    4   Tr[ns(na)] (up, down, total) =   1.91441  1.90004  3.81445
   spin  1
    eigenvalues: 
  0.357  0.357  0.387  0.407  0.407
    eigenvectors:
  0.000  0.000  1.000  0.000  0.000
  0.787  0.137  0.000  0.011  0.065
  0.137  0.787  0.000  0.065  0.011
  0.012  0.064  0.000  0.785  0.139
  0.064  0.012  0.000  0.139  0.785
    occupations:
  0.387  0.000  0.000  0.000  0.000
  0.000  0.361  0.000  0.000  0.013
  0.000  0.000  0.361  0.013  0.000
  0.000  0.000  0.013  0.403  0.000
  0.000  0.013  0.000  0.000  0.403
   spin  2
    eigenvalues: 
  0.353  0.353  0.387  0.404  0.404
    eigenvectors:
  0.000  0.000  1.000  0.000  0.000
  0.766  0.144  0.000  0.013  0.077
  0.144  0.766  0.000  0.077  0.013
  0.015  0.074  0.000  0.767  0.143
  0.074  0.015  0.000  0.143  0.767
    occupations:
  0.387  0.000  0.000  0.000  0.000
  0.000  0.357  0.000  0.000  0.015
  0.000  0.000  0.357  0.015  0.000
  0.000  0.000  0.015  0.399  0.000
  0.000  0.015  0.000  0.000  0.399
atomic mag. moment =     0.014370
atom    5   Tr[ns(na)] (up, down, total) =   2.74204  2.70265  5.44469
   spin  1
    eigenvalues: 
  0.843  0.947  0.951
    eigenvectors:
  0.337  0.000  0.663
  0.486  0.257  0.257
  0.177  0.743  0.080
    occupations:
  0.915  0.044  0.026
  0.044  0.898 -0.030
  0.026 -0.030  0.929
   spin  2
    eigenvalues: 
  0.864  0.919  0.920
    eigenvectors:
  0.333  0.056  0.611
  0.485  0.412  0.103
  0.182  0.532  0.286
    occupations:
  0.901  0.022  0.014
  0.022  0.892 -0.017
  0.014 -0.017  0.909
atomic mag. moment =     0.039388
atom    6   Tr[ns(na)] (up, down, total) =   2.74204  2.70265  5.44469
   spin  1
    eigenvalues: 
  0.843  0.947  0.951
    eigenvectors:
  0.337  0.000  0.663
  0.000  1.000  0.000
  0.663  0.000  0.337
    occupations:
  0.915  0.001 -0.051
  0.001  0.947  0.001
 -0.051  0.001  0.880
   spin  2
    eigenvalues: 
  0.864  0.919  0.920
    eigenvectors:
  0.333  0.056  0.611
  0.000  0.908  0.092
  0.666  0.037  0.297
    occupations:
  0.901  0.001 -0.026
  0.001  0.919  0.001
 -0.026  0.001  0.882
atomic mag. moment =     0.039388
atom    7   Tr[ns(na)] (up, down, total) =   2.74204  2.70265  5.44469
   spin  1
    eigenvalues: 
  0.843  0.947  0.951
    eigenvectors:
  0.337  0.000  0.663
  0.508  0.243  0.248
  0.155  0.756  0.089
    occupations:
  0.915 -0.045  0.025
 -0.045  0.896  0.029
  0.025  0.029  0.932
   spin  2
    eigenvalues: 
  0.864  0.919  0.920
    eigenvectors:
  0.333  0.056  0.611
  0.514  0.097  0.389
  0.152  0.848  0.000
    occupations:
  0.901 -0.023  0.013
 -0.023  0.891  0.016
  0.013  0.016  0.911
atomic mag. moment =     0.039388
atom    8   Tr[ns(na)] (up, down, total) =   2.74204  2.70265  5.44469
   spin  1
    eigenvalues: 
  0.843  0.947  0.951
    eigenvectors:
  0.337  0.000  0.663
  0.000  1.000  0.000
  0.663  0.000  0.337
    occupations:
  0.915  0.001 -0.051
  0.001  0.947  0.001
 -0.051  0.001  0.880
   spin  2
    eigenvalues: 
  0.864  0.919  0.920
    eigenvectors:
  0.333  0.056  0.611
  0.000  0.908  0.092
  0.666  0.037  0.297
    occupations:
  0.901  0.001 -0.026
  0.001  0.919  0.001
 -0.026  0.001  0.882
atomic mag. moment =     0.039388
atom    9   Tr[ns(na)] (up, down, total) =   2.74204  2.70265  5.44469
   spin  1
    eigenvalues: 
  0.843  0.947  0.951
    eigenvectors:
  0.337  0.000  0.663
  0.486  0.257  0.257
  0.177  0.743  0.080
    occupations:
  0.915  0.044  0.026
  0.044  0.898 -0.030
  0.026 -0.030  0.929
   spin  2
    eigenvalues: 
  0.864  0.919  0.920
    eigenvectors:
  0.333  0.056  0.611
  0.485  0.412  0.103
  0.182  0.532  0.286
    occupations:
  0.901  0.022  0.014
  0.022  0.892 -0.017
  0.014 -0.017  0.909
atomic mag. moment =     0.039388
atom   10   Tr[ns(na)] (up, down, total) =   2.74204  2.70265  5.44469
   spin  1
    eigenvalues: 
  0.843  0.947  0.951
    eigenvectors:
  0.337  0.000  0.663
  0.508  0.243  0.248
  0.155  0.756  0.089
    occupations:
  0.915 -0.045  0.025
 -0.045  0.896  0.029
  0.025  0.029  0.932
   spin  2
    eigenvalues: 
  0.864  0.919  0.920
    eigenvectors:
  0.333  0.056  0.611
  0.514  0.097  0.389
  0.152  0.848  0.000
    occupations:
  0.901 -0.023  0.013
 -0.023  0.891  0.016
  0.013  0.016  0.911
atomic mag. moment =     0.039388
N of occupied +U levels =  56.1415003
 --- exit write_ns ---
 --- in v_hubbard ---
Hubbard energy   -0.0292
 -------

     total cpu time spent up to now is      148.3 secs

     total energy              =    -538.38460868 Ry
     Harris-Foulkes estimate   =    -538.38460306 Ry
     estimated scf accuracy    <       0.00000239 Ry

     total magnetization       =     3.53 Bohr mag/cell
     absolute magnetization    =     3.68 Bohr mag/cell

     iteration #  6     ecut=    30.00 Ry     beta=0.20
     Davidson diagonalization with overlap
     ethr =  3.15E-09,  avg # of iterations =  2.0
 --- enter write_ns ---
 LDA+U parameters:
U( 1)     =  0.00000000
alpha( 1) = -0.05000000
U( 2)     =  0.00000000
alpha( 2) =  0.00000000
U( 3)     =  0.00000000
alpha( 3) =  0.00000000
U( 4)     =  0.00000000
alpha( 4) =  0.00000000
atom    1   Tr[ns(na)] (up, down, total) =   4.56170  3.38766  7.94936
   spin  1
    eigenvalues: 
  0.783  0.783  0.999  0.999  0.999
    eigenvectors:
  0.000  0.000  0.000  0.000  1.000
  0.422  0.224  0.056  0.298  0.000
  0.224  0.422  0.298  0.056  0.000
  0.346  0.008  0.556  0.090  0.000
  0.008  0.346  0.090  0.556  0.000
    occupations:
  0.999  0.000  0.000  0.000  0.000
  0.000  0.859  0.000 -0.073  0.073
  0.000  0.000  0.859  0.073  0.073
  0.000 -0.073  0.073  0.922  0.000
  0.000  0.073  0.073  0.000  0.922
   spin  2
    eigenvalues: 
  0.476  0.476  0.777  0.829  0.829
    eigenvectors:
  0.000  0.000  1.000  0.000  0.000
  0.276  0.363  0.000  0.033  0.327
  0.363  0.276  0.000  0.327  0.033
  0.279  0.082  0.000  0.476  0.163
  0.082  0.279  0.000  0.163  0.476
    occupations:
  0.777  0.000  0.000  0.000  0.000
  0.000  0.603  0.000 -0.037  0.166
  0.000  0.000  0.603  0.166  0.037
  0.000 -0.037  0.166  0.702  0.000
  0.000  0.166  0.037  0.000  0.702
atomic mag. moment =     1.174048
atom    2   Tr[ns(na)] (up, down, total) =   4.67476  3.22071  7.89547
   spin  1
    eigenvalues: 
  0.839  0.839  0.999  0.999  0.999
    eigenvectors:
  0.000  0.000  0.000  0.000  1.000
  0.643  0.003  0.325  0.029  0.000
  0.003  0.643  0.029  0.325  0.000
  0.153  0.201  0.499  0.147  0.000
  0.201  0.153  0.147  0.499  0.000
    occupations:
  0.999  0.000  0.000  0.000  0.000
  0.000  0.896  0.000  0.054  0.054
  0.000  0.000  0.896  0.054 -0.054
  0.000  0.054  0.054  0.942  0.000
  0.000  0.054 -0.054  0.000  0.942
   spin  2
    eigenvalues: 
  0.460  0.460  0.728  0.787  0.787
    eigenvectors:
  0.000  0.000  1.000  0.000  0.000
  0.509  0.126  0.000  0.189  0.176
  0.126  0.509  0.000  0.176  0.189
  0.020  0.345  0.000  0.447  0.188
  0.345  0.020  0.000  0.188  0.447
    occupations:
  0.728  0.000  0.000  0.000  0.000
  0.000  0.579  0.000  0.035  0.153
  0.000  0.000  0.579  0.153 -0.035
  0.000  0.035  0.153  0.667  0.000
  0.000  0.153 -0.035  0.000  0.667
atomic mag. moment =     1.454048
atom    3   Tr[ns(na)] (up, down, total) =   1.91445  1.90010  3.81455
   spin  1
    eigenvalues: 
  0.357  0.357  0.387  0.407  0.407
    eigenvectors:
  0.000  0.000  1.000  0.000  0.000
  0.786  0.138  0.000  0.011  0.065
  0.138  0.786  0.000  0.065  0.011
  0.012  0.064  0.000  0.785  0.139
  0.064  0.012  0.000  0.139  0.785
    occupations:
  0.387  0.000  0.000  0.000  0.000
  0.000  0.361  0.000  0.000  0.013
  0.000  0.000  0.361  0.013  0.000
  0.000  0.000  0.013  0.403  0.000
  0.000  0.013  0.000  0.000  0.403
   spin  2
    eigenvalues: 
  0.353  0.353  0.387  0.404  0.404
    eigenvectors:
  0.000  0.000  1.000  0.000  0.000
  0.765  0.145  0.000  0.013  0.077
  0.145  0.765  0.000  0.077  0.013
  0.015  0.074  0.000  0.767  0.143
  0.074  0.015  0.000  0.143  0.767
    occupations:
  0.387  0.000  0.000  0.000  0.000
  0.000  0.357  0.000  0.000  0.015
  0.000  0.000  0.357  0.015  0.000
  0.000  0.000  0.015  0.399  0.000
  0.000  0.015  0.000  0.000  0.399
atomic mag. moment =     0.014344
atom    4   Tr[ns(na)] (up, down, total) =   1.91445  1.90010  3.81455
   spin  1
    eigenvalues: 
  0.357  0.357  0.387  0.407  0.407
    eigenvectors:
  0.000  0.000  1.000  0.000  0.000
  0.787  0.138  0.000  0.011  0.065
  0.138  0.787  0.000  0.065  0.011
  0.012  0.064  0.000  0.785  0.139
  0.064  0.012  0.000  0.139  0.785
    occupations:
  0.387  0.000  0.000  0.000  0.000
  0.000  0.361  0.000  0.000  0.013
  0.000  0.000  0.361  0.013  0.000
  0.000  0.000  0.013  0.403  0.000
  0.000  0.013  0.000  0.000  0.403
   spin  2
    eigenvalues: 
  0.353  0.353  0.387  0.404  0.404
    eigenvectors:
  0.000  0.000  1.000  0.000  0.000
  0.766  0.145  0.000  0.013  0.077
  0.145  0.766  0.000  0.077  0.013
  0.015  0.074  0.000  0.768  0.143
  0.074  0.015  0.000  0.143  0.768
    occupations:
  0.387  0.000  0.000  0.000  0.000
  0.000  0.357  0.000  0.000  0.015
  0.000  0.000  0.357  0.015  0.000
  0.000  0.000  0.015  0.399  0.000
  0.000  0.015  0.000  0.000  0.399
atomic mag. moment =     0.014344
atom    5   Tr[ns(na)] (up, down, total) =   2.74204  2.70261  5.44465
   spin  1
    eigenvalues: 
  0.843  0.947  0.951
    eigenvectors:
  0.337  0.000  0.663
  0.486  0.257  0.257
  0.177  0.743  0.080
    occupations:
  0.915  0.044  0.026
  0.044  0.898 -0.030
  0.026 -0.030  0.929
   spin  2
    eigenvalues: 
  0.864  0.919  0.920
    eigenvectors:
  0.333  0.046  0.620
  0.485  0.402  0.114
  0.182  0.552  0.266
    occupations:
  0.901  0.022  0.014
  0.022  0.892 -0.017
  0.014 -0.017  0.909
atomic mag. moment =     0.039432
atom    6   Tr[ns(na)] (up, down, total) =   2.74204  2.70261  5.44465
   spin  1
    eigenvalues: 
  0.843  0.947  0.951
    eigenvectors:
  0.337  0.000  0.663
  0.000  1.000  0.000
  0.663  0.000  0.337
    occupations:
  0.915  0.001 -0.051
  0.001  0.947  0.001
 -0.051  0.001  0.880
   spin  2
    eigenvalues: 
  0.864  0.919  0.920
    eigenvectors:
  0.333  0.046  0.620
  0.000  0.922  0.078
  0.666  0.032  0.302
    occupations:
  0.901  0.001 -0.026
  0.001  0.919  0.001
 -0.026  0.001  0.882
atomic mag. moment =     0.039432
atom    7   Tr[ns(na)] (up, down, total) =   2.74204  2.70261  5.44465
   spin  1
    eigenvalues: 
  0.843  0.947  0.951
    eigenvectors:
  0.337  0.000  0.663
  0.509  0.243  0.248
  0.155  0.756  0.089
    occupations:
  0.915 -0.045  0.025
 -0.045  0.895  0.029
  0.025  0.029  0.932
   spin  2
    eigenvalues: 
  0.864  0.919  0.920
    eigenvectors:
  0.333  0.046  0.620
  0.515  0.106  0.379
  0.152  0.847  0.001
    occupations:
  0.901 -0.023  0.013
 -0.023  0.891  0.016
  0.013  0.016  0.911
atomic mag. moment =     0.039432
atom    8   Tr[ns(na)] (up, down, total) =   2.74204  2.70261  5.44465
   spin  1
    eigenvalues: 
  0.843  0.947  0.951
    eigenvectors:
  0.337  0.000  0.663
  0.000  1.000  0.000
  0.663  0.000  0.337
    occupations:
  0.915  0.001 -0.051
  0.001  0.947  0.001
 -0.051  0.001  0.880
   spin  2
    eigenvalues: 
  0.864  0.919  0.920
    eigenvectors:
  0.333  0.046  0.620
  0.000  0.922  0.078
  0.666  0.032  0.302
    occupations:
  0.901  0.001 -0.026
  0.001  0.919  0.001
 -0.026  0.001  0.882
atomic mag. moment =     0.039432
atom    9   Tr[ns(na)] (up, down, total) =   2.74204  2.70261  5.44465
   spin  1
    eigenvalues: 
  0.843  0.947  0.951
    eigenvectors:
  0.337  0.000  0.663
  0.486  0.257  0.257
  0.177  0.743  0.080
    occupations:
  0.915  0.044  0.026
  0.044  0.898 -0.030
  0.026 -0.030  0.929
   spin  2
    eigenvalues: 
  0.864  0.919  0.920
    eigenvectors:
  0.333  0.046  0.620
  0.485  0.402  0.114
  0.182  0.552  0.266
    occupations:
  0.901  0.022  0.014
  0.022  0.892 -0.017
  0.014 -0.017  0.909
atomic mag. moment =     0.039432
atom   10   Tr[ns(na)] (up, down, total) =   2.74204  2.70261  5.44465
   spin  1
    eigenvalues: 
  0.843  0.947  0.951
    eigenvectors:
  0.337  0.000  0.663
  0.509  0.243  0.248
  0.155  0.756  0.089
    occupations:
  0.915 -0.045  0.025
 -0.045  0.895  0.029
  0.025  0.029  0.932
   spin  2
    eigenvalues: 
  0.864  0.919  0.920
    eigenvectors:
  0.333  0.046  0.620
  0.515  0.106  0.379
  0.152  0.847  0.001
    occupations:
  0.901 -0.023  0.013
 -0.023  0.891  0.016
  0.013  0.016  0.911
atomic mag. moment =     0.039432
N of occupied +U levels =  56.1417949
 --- exit write_ns ---
 --- in v_hubbard ---
Hubbard energy   -0.0292
 -------

     total cpu time spent up to now is      171.3 secs

     total energy              =    -538.38461113 Ry
     Harris-Foulkes estimate   =    -538.38460979 Ry
     estimated scf accuracy    <       0.00000476 Ry

     total magnetization       =     3.53 Bohr mag/cell
     absolute magnetization    =     3.68 Bohr mag/cell

     iteration #  7     ecut=    30.00 Ry     beta=0.20
     Davidson diagonalization with overlap
     ethr =  3.15E-09,  avg # of iterations =  2.5
 --- enter write_ns ---
 LDA+U parameters:
U( 1)     =  0.00000000
alpha( 1) = -0.05000000
U( 2)     =  0.00000000
alpha( 2) =  0.00000000
U( 3)     =  0.00000000
alpha( 3) =  0.00000000
U( 4)     =  0.00000000
alpha( 4) =  0.00000000
atom    1   Tr[ns(na)] (up, down, total) =   4.55827  3.39086  7.94914
   spin  1
    eigenvalues: 
  0.781  0.781  0.999  0.999  0.999
    eigenvectors:
  0.000  0.000  0.000  0.000  1.000
  0.422  0.224  0.056  0.298  0.000
  0.224  0.422  0.298  0.056  0.000
  0.346  0.008  0.556  0.090  0.000
  0.008  0.346  0.090  0.556  0.000
    occupations:
  0.999  0.000  0.000  0.000  0.000
  0.000  0.858  0.000 -0.074  0.073
  0.000  0.000  0.858  0.073  0.074
  0.000 -0.074  0.073  0.922  0.000
  0.000  0.073  0.074  0.000  0.922
   spin  2
    eigenvalues: 
  0.476  0.476  0.778  0.830  0.830
    eigenvectors:
  0.000  0.000  1.000  0.000  0.000
  0.276  0.363  0.000  0.034  0.327
  0.363  0.276  0.000  0.327  0.034
  0.278  0.082  0.000  0.476  0.163
  0.082  0.278  0.000  0.163  0.476
    occupations:
  0.778  0.000  0.000  0.000  0.000
  0.000  0.604  0.000 -0.037  0.166
  0.000  0.000  0.604  0.166  0.037
  0.000 -0.037  0.166  0.703  0.000
  0.000  0.166  0.037  0.000  0.703
atomic mag. moment =     1.167410
atom    2   Tr[ns(na)] (up, down, total) =   4.67683  3.21939  7.89622
   spin  1
    eigenvalues: 
  0.840  0.840  0.999  0.999  0.999
    eigenvectors:
  0.000  0.000  0.000  0.000  1.000
  0.643  0.003  0.325  0.029  0.000
  0.003  0.643  0.029  0.325  0.000
  0.153  0.201  0.499  0.147  0.000
  0.201  0.153  0.147  0.499  0.000
    occupations:
  0.999  0.000  0.000  0.000  0.000
  0.000  0.896  0.000  0.054  0.054
  0.000  0.000  0.896  0.054 -0.054
  0.000  0.054  0.054  0.943  0.000
  0.000  0.054 -0.054  0.000  0.943
   spin  2
    eigenvalues: 
  0.460  0.460  0.728  0.786  0.786
    eigenvectors:
  0.000  0.000  1.000  0.000  0.000
  0.506  0.129  0.000  0.189  0.176
  0.129  0.506  0.000  0.176  0.189
  0.021  0.344  0.000  0.447  0.189
  0.344  0.021  0.000  0.189  0.447
    occupations:
  0.728  0.000  0.000  0.000  0.000
  0.000  0.579  0.000  0.035  0.153
  0.000  0.000  0.579  0.153 -0.035
  0.000  0.035  0.153  0.667  0.000
  0.000  0.153 -0.035  0.000  0.667
atomic mag. moment =     1.457447
atom    3   Tr[ns(na)] (up, down, total) =   1.91430  1.89998  3.81428
   spin  1
    eigenvalues: 
  0.357  0.357  0.387  0.407  0.407
    eigenvectors:
  0.000  0.000  1.000  0.000  0.000
  0.787  0.137  0.000  0.011  0.065
  0.137  0.787  0.000  0.065  0.011
  0.012  0.064  0.000  0.785  0.139
  0.064  0.012  0.000  0.139  0.785
    occupations:
  0.387  0.000  0.000  0.000  0.000
  0.000  0.361  0.000  0.000  0.013
  0.000  0.000  0.361  0.013  0.000
  0.000  0.000  0.013  0.403  0.000
  0.000  0.013  0.000  0.000  0.403
   spin  2
    eigenvalues: 
  0.353  0.353  0.387  0.404  0.404
    eigenvectors:
  0.000  0.000  1.000  0.000  0.000
  0.766  0.144  0.000  0.013  0.077
  0.144  0.766  0.000  0.077  0.013
  0.015  0.074  0.000  0.767  0.143
  0.074  0.015  0.000  0.143  0.767
    occupations:
  0.387  0.000  0.000  0.000  0.000
  0.000  0.357  0.000  0.000  0.015
  0.000  0.000  0.357  0.015  0.000
  0.000  0.000  0.015  0.399  0.000
  0.000  0.015  0.000  0.000  0.399
atomic mag. moment =     0.014318
atom    4   Tr[ns(na)] (up, down, total) =   1.91430  1.89998  3.81428
   spin  1
    eigenvalues: 
  0.357  0.357  0.387  0.407  0.407
    eigenvectors:
  0.000  0.000  1.000  0.000  0.000
  0.787  0.138  0.000  0.011  0.065
  0.138  0.787  0.000  0.065  0.011
  0.012  0.064  0.000  0.785  0.139
  0.064  0.012  0.000  0.139  0.785
    occupations:
  0.387  0.000  0.000  0.000  0.000
  0.000  0.361  0.000  0.000  0.013
  0.000  0.000  0.361  0.013  0.000
  0.000  0.000  0.013  0.403  0.000
  0.000  0.013  0.000  0.000  0.403
   spin  2
    eigenvalues: 
  0.353  0.353  0.387  0.404  0.404
    eigenvectors:
  0.000  0.000  1.000  0.000  0.000
  0.766  0.144  0.000  0.013  0.077
  0.144  0.766  0.000  0.077  0.013
  0.015  0.074  0.000  0.767  0.143
  0.074  0.015  0.000  0.143  0.767
    occupations:
  0.387  0.000  0.000  0.000  0.000
  0.000  0.357  0.000  0.000  0.015
  0.000  0.000  0.357  0.015  0.000
  0.000  0.000  0.015  0.399  0.000
  0.000  0.015  0.000  0.000  0.399
atomic mag. moment =     0.014318
atom    5   Tr[ns(na)] (up, down, total) =   2.74211  2.70255  5.44466
   spin  1
    eigenvalues: 
  0.844  0.947  0.951
    eigenvectors:
  0.337  0.000  0.663
  0.486  0.257  0.257
  0.178  0.743  0.080
    occupations:
  0.915  0.044  0.026
  0.044  0.898 -0.030
  0.026 -0.030  0.929
   spin  2
    eigenvalues: 
  0.864  0.919  0.920
    eigenvectors:
  0.333  0.037  0.630
  0.484  0.389  0.127
  0.182  0.574  0.243
    occupations:
  0.901  0.022  0.014
  0.022  0.892 -0.017
  0.014 -0.017  0.909
atomic mag. moment =     0.039564
atom    6   Tr[ns(na)] (up, down, total) =   2.74211  2.70255  5.44466
   spin  1
    eigenvalues: 
  0.844  0.947  0.951
    eigenvectors:
  0.337  0.000  0.663
  0.000  1.000  0.000
  0.663  0.000  0.337
    occupations:
  0.915  0.001 -0.051
  0.001  0.947  0.001
 -0.051  0.001  0.880
   spin  2
    eigenvalues: 
  0.864  0.919  0.920
    eigenvectors:
  0.333  0.037  0.630
  0.000  0.937  0.062
  0.666  0.026  0.308
    occupations:
  0.901  0.001 -0.026
  0.001  0.919  0.001
 -0.026  0.001  0.882
atomic mag. moment =     0.039564
atom    7   Tr[ns(na)] (up, down, total) =   2.74211  2.70255  5.44466
   spin  1
    eigenvalues: 
  0.844  0.947  0.951
    eigenvectors:
  0.337  0.000  0.663
  0.509  0.243  0.248
  0.154  0.757  0.089
    occupations:
  0.915 -0.045  0.025
 -0.045  0.895  0.029
  0.025  0.029  0.932
   spin  2
    eigenvalues: 
  0.864  0.919  0.920
    eigenvectors:
[...]
     0.0937   0.0937   0.0937   0.0937   0.0937   0.0937   0.0937   0.0870
     0.0070   0.0000   0.0000   0.0000   0.0000   0.0000

          k = 0.4942-0.5706-0.2053 (  2206 PWs)   bands (ev):

   -19.6733 -19.6733  -6.8636  -6.8565  -6.0112  -6.0096  -5.4010  -5.4007
    -3.1189  -3.1187  -2.7770  -2.7764  -2.3515  -2.3494   5.9200   5.9508
     6.7963   6.8438   6.8910   6.9036   7.3591   7.3603   7.8851   7.9453
     8.7554   8.7641   8.8773   8.8843   9.4779   9.4978   9.9728   9.9952
    10.6234  10.6835  10.7892  10.8785  11.0790  11.1388  11.4272  11.4833
    13.3033  13.3535  17.4331  17.4335  17.8820  17.8841

     occupation numbers 
     0.0938   0.0938   0.0938   0.0938   0.0938   0.0938   0.0938   0.0938
     0.0938   0.0938   0.0938   0.0938   0.0938   0.0938   0.0938   0.0938
     0.0938   0.0938   0.0938   0.0938   0.0938   0.0938   0.0938   0.0938
     0.0938   0.0938   0.0938   0.0938   0.0938   0.0938   0.0937   0.0937
     0.0937   0.0937   0.0937   0.0937   0.0937   0.0937   0.0936   0.0935
     0.0000   0.0000   0.0000   0.0000   0.0000   0.0000

          k = 0.0000 0.0000-0.6160 (  2186 PWs)   bands (ev):

   -19.6754 -19.6750  -6.4924  -6.4805  -5.9113  -5.9113  -5.9111  -5.9111
    -2.8535  -2.8535  -2.8516  -2.8516  -2.6788  -2.6787   6.2839   6.2941
     6.9073   6.9073   6.9881   6.9881   7.6617   7.7014   7.8395   7.8395
     7.8879   7.8879   9.5437   9.5437   9.5820   9.5820   9.6749   9.6996
    10.6728  10.8434  10.8434  10.8987  11.0446  11.0446  12.4169  12.4169
    12.6445  12.6445  17.1215  17.1215  17.1224  17.1224

     occupation numbers 
     0.0156   0.0156   0.0156   0.0156   0.0156   0.0156   0.0156   0.0156
     0.0156   0.0156   0.0156   0.0156   0.0156   0.0156   0.0156   0.0156
     0.0156   0.0156   0.0156   0.0156   0.0156   0.0156   0.0156   0.0156
     0.0156   0.0156   0.0156   0.0156   0.0156   0.0156   0.0156   0.0156
     0.0156   0.0156   0.0156   0.0156   0.0156   0.0156   0.0051   0.0051
     0.0017   0.0017   0.0000   0.0000   0.0000   0.0000

          k = 0.4942-0.5706 0.1027 (  2198 PWs)   bands (ev):

   -19.6946 -19.6542  -6.9357  -6.6231  -6.1046  -5.8656  -5.4872  -5.3567
    -3.2672  -3.2190  -2.8418  -2.6724  -2.4930  -2.3526   5.8207   6.1329
     6.6171   6.7215   7.0737   7.2610   7.4054   7.6082   7.7089   7.8547
     8.1688   8.7270   8.9918   9.2143   9.5050   9.7410   9.8566  10.2887
    10.3949  10.7473  10.8970  10.9672  11.0963  11.1833  11.5318  11.9058
    12.7116  13.7084  16.9185  17.1167  17.3207  18.0279

     occupation numbers 
     0.0938   0.0938   0.0938   0.0938   0.0938   0.0938   0.0938   0.0938
     0.0938   0.0938   0.0938   0.0938   0.0938   0.0938   0.0938   0.0938
     0.0938   0.0938   0.0938   0.0938   0.0938   0.0938   0.0938   0.0938
     0.0938   0.0938   0.0938   0.0938   0.0938   0.0938   0.0938   0.0937
     0.0937   0.0937   0.0937   0.0937   0.0937   0.0937   0.0933   0.0850
     0.0066   0.0000   0.0000   0.0000   0.0000   0.0000

 ------ SPIN DOWN ----------


          k = 0.0000 0.0000 0.0000 (  2175 PWs)   bands (ev):

   -19.7616 -19.5885  -6.4393  -5.7176  -5.7176  -5.7093  -5.7093  -5.3662
    -3.7198  -3.2318  -3.1247  -3.1247  -2.9752  -2.9752   5.2458   7.2476
     7.2476   7.5825   7.5825   7.7757   8.0165   8.0165   8.0606   9.4334
     9.7431   9.7431  10.0573  10.1117  10.1117  10.5887  10.5887  10.7855
    11.1912  11.1912  11.2801  12.1290  12.1290  12.6769  13.0003  13.0003
    15.3516  15.3516  15.4971  15.4971  16.2191  16.8225

     occupation numbers 
     0.0156   0.0156   0.0156   0.0156   0.0156   0.0156   0.0156   0.0156
     0.0156   0.0156   0.0156   0.0156   0.0156   0.0156   0.0156   0.0156
     0.0156   0.0156   0.0156   0.0156   0.0156   0.0156   0.0156   0.0156
     0.0156   0.0156   0.0156   0.0156   0.0156   0.0156   0.0156   0.0156
     0.0156   0.0156   0.0156   0.0111   0.0111   0.0014   0.0001   0.0001
     0.0000   0.0000   0.0000   0.0000   0.0000   0.0000

          k =-0.2471-0.1427 0.1027 (  2181 PWs)   bands (ev):

   -19.7338 -19.6116  -6.6258  -6.1882  -5.8272  -5.7363  -5.4919  -5.3553
    -3.5353  -3.3418  -2.8649  -2.8437  -2.7762  -2.7032   5.6118   6.9502
     7.3156   7.3337   7.4610   7.6752   7.6792   8.0194   8.0393   8.8064
     8.8732   9.5149   9.7980   9.9953  10.0542  10.1830  10.5315  10.5413
    11.5219  11.5665  11.6201  12.3187  12.3604  12.4911  13.1462  13.1930
    14.9159  14.9290  15.8882  16.1294  17.0116  17.3144

     occupation numbers 
     0.0938   0.0938   0.0938   0.0938   0.0938   0.0938   0.0938   0.0938
     0.0938   0.0938   0.0938   0.0938   0.0938   0.0938   0.0938   0.0938
     0.0938   0.0938   0.0938   0.0938   0.0938   0.0938   0.0938   0.0938
     0.0938   0.0938   0.0938   0.0937   0.0937   0.0937   0.0937   0.0937
     0.0934   0.0932   0.0928   0.0428   0.0375   0.0225   0.0001   0.0001
     0.0000   0.0000   0.0000   0.0000   0.0000   0.0000

          k = 0.4942 0.2853-0.2053 (  2202 PWs)   bands (ev):

   -19.6705 -19.6701  -6.6294  -6.6191  -5.8509  -5.8475  -5.3990  -5.3965
    -3.3318  -3.3283  -2.7218  -2.7191  -2.4508  -2.4487   6.1625   6.1626
     7.3973   7.4464   7.4698   7.5289   7.8339   7.8759   8.1336   8.1700
     8.3910   8.4343   9.7062   9.7252  10.0248  10.0285  10.4443  10.4475
    11.9143  11.9946  12.0103  12.0879  12.1636  12.2299  13.9213  13.9911
    14.0537  14.1230  16.8888  16.8942  17.1857  17.1905

     occupation numbers 
     0.0469   0.0469   0.0469   0.0469   0.0469   0.0469   0.0469   0.0469
     0.0469   0.0469   0.0469   0.0469   0.0469   0.0469   0.0469   0.0469
     0.0469   0.0469   0.0469   0.0469   0.0469   0.0469   0.0469   0.0469
     0.0469   0.0469   0.0469   0.0469   0.0469   0.0469   0.0469   0.0469
     0.0423   0.0396   0.0390   0.0354   0.0312   0.0271   0.0000   0.0000
     0.0000   0.0000   0.0000   0.0000   0.0000   0.0000

          k =-0.2471 0.1427 0.2053 (  2195 PWs)   bands (ev):

   -19.7290 -19.6143  -6.7533  -6.1299  -5.9623  -5.7141  -5.5387  -5.3276
    -3.3598  -3.2218  -3.0387  -2.8241  -2.7430  -2.4973   5.6623   6.9801
     7.2441   7.2818   7.3816   7.5592   7.6465   8.0508   8.0736   8.8316
     9.0988   9.1026   9.4638   9.9577  10.1241  10.2547  10.3337  10.4561
    11.2115  11.8410  11.9472  12.0137  12.3783  12.4997  12.9226  13.4828
    14.2925  15.3891  16.0405  16.2500  17.0811  17.5793

     occupation numbers 
     0.0938   0.0938   0.0938   0.0938   0.0938   0.0938   0.0938   0.0938
     0.0938   0.0938   0.0938   0.0938   0.0938   0.0938   0.0938   0.0938
     0.0938   0.0938   0.0938   0.0938   0.0938   0.0938   0.0938   0.0938
     0.0938   0.0938   0.0938   0.0937   0.0937   0.0937   0.0937   0.0937
     0.0937   0.0880   0.0826   0.0777   0.0353   0.0216   0.0013   0.0000
     0.0000   0.0000   0.0000   0.0000   0.0000   0.0000

          k = 0.4942 0.5706-0.1027 (  2198 PWs)   bands (ev):

   -19.6892 -19.6490  -6.8588  -6.5491  -6.0303  -5.7856  -5.3844  -5.2472
    -3.2585  -3.2089  -2.8178  -2.6446  -2.4616  -2.3199   6.0207   6.4004
     7.0345   7.2943   7.3867   7.4704   7.7302   7.9952   8.1265   8.2556
     8.5375   9.0745   9.3327   9.5152   9.8534   9.9691  10.1295  10.5183
    11.5944  11.9762  12.0910  12.1767  12.3131  12.3329  13.1326  13.4883
    14.1159  14.9822  16.9563  17.1784  17.3667  18.0685

     occupation numbers 
     0.0938   0.0938   0.0938   0.0938   0.0938   0.0938   0.0938   0.0938
     0.0938   0.0938   0.0938   0.0938   0.0938   0.0938   0.0938   0.0938
     0.0938   0.0938   0.0938   0.0938   0.0938   0.0938   0.0938   0.0938
     0.0938   0.0938   0.0938   0.0938   0.0938   0.0937   0.0937   0.0937
     0.0930   0.0806   0.0705   0.0609   0.0435   0.0410   0.0002   0.0000
     0.0000   0.0000   0.0000   0.0000   0.0000   0.0000

          k = 0.2471 0.4280 0.0000 (  2203 PWs)   bands (ev):

   -19.6989 -19.6414  -6.7494  -6.5400  -5.9490  -5.8720  -5.3097  -5.2344
    -3.4648  -3.2529  -2.7401  -2.6471  -2.5056  -2.4896   5.9771   6.4221
     7.2506   7.3855   7.4343   7.5163   7.5670   7.9029   8.0131   8.3758
     8.6318   9.1039   9.5621   9.6740   9.9405   9.9473  10.2115  10.5305
    11.8561  11.8709  11.9385  12.1311  12.1577  12.4297  13.0991  13.9545
    14.1005  14.7891  16.4984  17.0477  17.4652  17.9703

     occupation numbers 
     0.0938   0.0938   0.0938   0.0938   0.0938   0.0938   0.0938   0.0938
     0.0938   0.0938   0.0938   0.0938   0.0938   0.0938   0.0938   0.0938
     0.0938   0.0938   0.0938   0.0938   0.0938   0.0938   0.0938   0.0938
     0.0938   0.0938   0.0938   0.0938   0.0937   0.0937   0.0937   0.0937
     0.0874   0.0868   0.0831   0.0662   0.0631   0.0292   0.0002   0.0000
     0.0000   0.0000   0.0000   0.0000   0.0000   0.0000

          k = 0.4942-0.2853-0.4107 (  2202 PWs)   bands (ev):

   -19.6959 -19.6398  -7.0709  -6.3631  -6.1464  -5.8438  -5.4144  -5.1479
    -3.1498  -3.0878  -2.9882  -2.5870  -2.4109  -2.1570   5.9394   6.5092
     6.6048   7.2196   7.2365   7.3245   8.0755   8.1462   8.2565   8.3690
     8.7135   8.8379   8.8577   9.5438   9.7784  10.1556  10.1803  10.5983
    11.1942  11.8747  11.9988  12.2282  12.3666  12.4420  12.8591  13.2484
    14.0413  15.4114  17.0864  17.3369  17.5661  17.6328

     occupation numbers 
     0.0469   0.0469   0.0469   0.0469   0.0469   0.0469   0.0469   0.0469
     0.0469   0.0469   0.0469   0.0469   0.0469   0.0469   0.0469   0.0469
     0.0469   0.0469   0.0469   0.0469   0.0469   0.0469   0.0469   0.0469
     0.0469   0.0469   0.0469   0.0469   0.0469   0.0469   0.0469   0.0469
     0.0469   0.0433   0.0394   0.0272   0.0184   0.0139   0.0011   0.0000
     0.0000   0.0000   0.0000   0.0000   0.0000   0.0000

          k = 0.0000 0.0000 0.3080 (  2187 PWs)   bands (ev):

   -19.7335 -19.6114  -6.5115  -5.8743  -5.8156  -5.8156  -5.7270  -5.7270
    -3.1474  -3.0362  -3.0362  -2.9269  -2.8333  -2.8333   5.6630   7.2055
     7.3164   7.3164   7.5500   7.5500   7.6833   8.0482   8.0482   9.0454
     9.0454   9.5799   9.5804   9.8528   9.8528  10.0613  10.2926  10.2926
    11.6361  11.6361  11.6548  12.3345  12.3345  12.5098  13.1252  13.1252
    14.8777  14.8777  15.9760  15.9760  16.9120  17.5367

     occupation numbers 
     0.0313   0.0313   0.0313   0.0313   0.0313   0.0313   0.0313   0.0313
     0.0313   0.0313   0.0313   0.0313   0.0313   0.0313   0.0313   0.0313
     0.0313   0.0313   0.0313   0.0313   0.0313   0.0313   0.0313   0.0313
     0.0313   0.0313   0.0313   0.0313   0.0313   0.0312   0.0312   0.0312
     0.0309   0.0309   0.0308   0.0136   0.0136   0.0069   0.0001   0.0001
     0.0000   0.0000   0.0000   0.0000   0.0000   0.0000

          k = 0.7412 0.4280 0.0000 (  2204 PWs)   bands (ev):

   -19.6986 -19.6412  -6.6333  -6.5035  -6.0443  -5.7205  -5.5580  -5.4229
    -3.1127  -3.0345  -2.9954  -2.6124  -2.5973  -2.5137   6.0232   6.6088
     7.2599   7.4216   7.4316   7.5325   7.5690   7.8555   8.1979   8.3534
     8.6755   8.9792   9.6350   9.6603   9.7613   9.8299  10.0320  10.3763
    11.8509  11.8751  12.0016  12.1457  12.2013  12.3933  13.0918  13.8793
    14.0246  14.8153  16.7602  16.7692  17.6362  17.8527

     occupation numbers 
     0.0938   0.0938   0.0938   0.0938   0.0938   0.0938   0.0938   0.0938
     0.0938   0.0938   0.0938   0.0938   0.0938   0.0938   0.0938   0.0938
     0.0938   0.0938   0.0938   0.0938   0.0938   0.0938   0.0938   0.0938
     0.0938   0.0938   0.0938   0.0938   0.0938   0.0938   0.0937   0.0937
     0.0876   0.0866   0.0786   0.0645   0.0579   0.0334   0.0002   0.0000
     0.0000   0.0000   0.0000   0.0000   0.0000   0.0000

          k = 0.4942 0.2853 0.1027 (  2211 PWs)   bands (ev):

   -19.6892 -19.6490  -6.8753  -6.4453  -6.2253  -5.5788  -5.5086  -5.2205
    -3.2722  -3.1209  -2.9705  -2.5423  -2.4946  -2.3114   6.0461   6.3745
     7.0000   7.2981   7.3361   7.4479   7.7255   8.0360   8.1952   8.2225
     8.5829   9.2020   9.3363   9.5692   9.7238   9.8270  10.1863  10.5332
    11.5920  12.0296  12.1239  12.2009  12.2581  12.2766  13.0958  13.4977
    14.1600  14.9671  16.9450  16.9819  17.6472  17.9840

     occupation numbers 
     0.0938   0.0938   0.0938   0.0938   0.0938   0.0938   0.0938   0.0938
     0.0938   0.0938   0.0938   0.0938   0.0938   0.0938   0.0938   0.0938
     0.0938   0.0938   0.0938   0.0938   0.0938   0.0938   0.0938   0.0938
     0.0938   0.0938   0.0938   0.0938   0.0938   0.0938   0.0937   0.0937
     0.0930   0.0763   0.0670   0.0579   0.0507   0.0483   0.0002   0.0000
     0.0000   0.0000   0.0000   0.0000   0.0000   0.0000

          k = 0.7412-0.4280-0.3080 (  2210 PWs)   bands (ev):

   -19.6890 -19.6488  -6.8110  -6.3516  -6.2027  -5.6871  -5.6421  -5.3534
    -3.0188  -2.9931  -2.9172  -2.6692  -2.5503  -2.3633   6.1092   6.5312
     7.0833   7.2816   7.3872   7.4015   7.7436   8.0804   8.2182   8.2615
     8.5796   9.1681   9.1844   9.6725   9.7065   9.7663   9.8303  10.3722
    11.6427  12.0335  12.1115  12.1867  12.2948  12.3474  13.0576  13.4567
    14.1121  14.9335  17.1182  17.1290  17.6145  17.9539

     occupation numbers 
     0.0938   0.0938   0.0938   0.0938   0.0938   0.0938   0.0938   0.0938
     0.0938   0.0938   0.0938   0.0938   0.0938   0.0938   0.0938   0.0938
     0.0938   0.0938   0.0938   0.0938   0.0938   0.0938   0.0938   0.0938
     0.0938   0.0938   0.0938   0.0938   0.0938   0.0938   0.0938   0.0937
     0.0926   0.0760   0.0683   0.0597   0.0459   0.0392   0.0004   0.0000
     0.0000   0.0000   0.0000   0.0000   0.0000   0.0000

          k = 0.4942-0.5706-0.2053 (  2206 PWs)   bands (ev):

   -19.6680 -19.6680  -6.7892  -6.7816  -5.9352  -5.9336  -5.2945  -5.2932
    -3.1113  -3.1110  -2.7516  -2.7510  -2.3180  -2.3153   6.2148   6.2539
     7.1641   7.1720   7.3356   7.3501   7.5698   7.5885   8.4111   8.4639
     8.9272   8.9302   9.2302   9.2312   9.7023   9.7111  10.2689  10.2733
    11.8465  11.8589  12.0157  12.0708  12.3363  12.3675  13.1156  13.1402
    14.6438  14.6637  17.4971  17.4978  17.9118  17.9139

     occupation numbers 
     0.0938   0.0938   0.0938   0.0938   0.0938   0.0938   0.0938   0.0938
     0.0938   0.0938   0.0938   0.0938   0.0938   0.0938   0.0938   0.0938
     0.0938   0.0938   0.0938   0.0938   0.0938   0.0938   0.0938   0.0938
     0.0938   0.0938   0.0938   0.0938   0.0938   0.0938   0.0937   0.0937
     0.0878   0.0873   0.0775   0.0725   0.0406   0.0366   0.0002   0.0001
     0.0000   0.0000   0.0000   0.0000   0.0000   0.0000

          k = 0.0000 0.0000-0.6160 (  2186 PWs)   bands (ev):

   -19.6701 -19.6697  -6.4136  -6.4003  -5.8287  -5.8287  -5.8265  -5.8265
    -2.8218  -2.8218  -2.8189  -2.8189  -2.6623  -2.6618   6.3768   6.3775
     7.4145   7.4145   7.4743   7.4743   7.9904   8.0234   8.2995   8.2995
     8.3430   8.3430   9.8119   9.8119   9.8179   9.8179   9.8609   9.8687
    12.0617  12.0915  12.0915  12.1381  12.1615  12.1615  13.8552  13.8552
    13.9908  13.9908  17.1789  17.1789  17.1839  17.1839

     occupation numbers 
     0.0156   0.0156   0.0156   0.0156   0.0156   0.0156   0.0156   0.0156
     0.0156   0.0156   0.0156   0.0156   0.0156   0.0156   0.0156   0.0156
     0.0156   0.0156   0.0156   0.0156   0.0156   0.0156   0.0156   0.0156
     0.0156   0.0156   0.0156   0.0156   0.0156   0.0156   0.0156   0.0156
     0.0122   0.0117   0.0117   0.0109   0.0104   0.0104   0.0000   0.0000
     0.0000   0.0000   0.0000   0.0000   0.0000   0.0000

          k = 0.4942-0.5706 0.1027 (  2198 PWs)   bands (ev):

   -19.6892 -19.6490  -6.8595  -6.5489  -6.0303  -5.7829  -5.3860  -5.2479
    -3.2594  -3.2088  -2.8176  -2.6434  -2.4624  -2.3196   6.0172   6.4058
     7.0286   7.3028   7.4126   7.4520   7.7155   7.9952   8.0937   8.2941
     8.5326   9.0833   9.3283   9.5121   9.8499   9.9729  10.1297  10.5186
    11.5910  12.0127  12.0577  12.1787  12.3148  12.3311  13.1293  13.4876
    14.1158  14.9840  16.9586  17.1760  17.3671  18.0687

     occupation numbers 
     0.0938   0.0938   0.0938   0.0938   0.0938   0.0938   0.0938   0.0938
     0.0938   0.0938   0.0938   0.0938   0.0938   0.0938   0.0938   0.0938
     0.0938   0.0938   0.0938   0.0938   0.0938   0.0938   0.0938   0.0938
     0.0938   0.0938   0.0938   0.0938   0.0938   0.0937   0.0937   0.0937
     0.0930   0.0778   0.0738   0.0606   0.0433   0.0412   0.0002   0.0000
     0.0000   0.0000   0.0000   0.0000   0.0000   0.0000

     the Fermi energy is    12.2874 ev

!    total energy              =    -538.38462626 Ry
     Harris-Foulkes estimate   =    -538.38462501 Ry
     estimated scf accuracy    <          4.0E-09 Ry

     The total energy is the sum of the following terms:

     one-electron contribution =     -32.75222743 Ry
     hartree contribution      =      83.53390603 Ry
     xc contribution           =    -199.65429626 Ry
     ewald contribution        =    -389.44315552 Ry
     Hubbard energy            =      -0.02922378 Ry
     smearing contrib. (-TS)   =      -0.03962929 Ry

     total magnetization       =     3.53 Bohr mag/cell
     absolute magnetization    =     3.68 Bohr mag/cell

     convergence has been achieved in  15 iterations

     init_run     :      8.14s CPU      8.24s WALL (       1 calls)
     electrons    :    377.95s CPU    380.45s WALL (       1 calls)

     Called by init_run:
     wfcinit      :      0.00s CPU      0.00s WALL (       1 calls)
     potinit      :      0.80s CPU      0.83s WALL (       1 calls)

     Called by electrons:
     c_bands      :    258.26s CPU    259.13s WALL (      15 calls)
     sum_band     :     76.87s CPU     77.36s WALL (      15 calls)
     v_of_rho     :     11.40s CPU     11.51s WALL (      16 calls)
     v_h          :      0.22s CPU      0.22s WALL (      16 calls)
     v_xc         :     11.18s CPU     11.28s WALL (      16 calls)
     newd         :     32.21s CPU     32.26s WALL (      16 calls)
     mix_rho      :      0.79s CPU      0.79s WALL (      15 calls)

     Called by c_bands:
     init_us_2    :      2.94s CPU      2.96s WALL (     840 calls)
     cegterg      :    250.04s CPU    250.56s WALL (     420 calls)

     Called by sum_band:
     sum_band:bec :      0.32s CPU      0.31s WALL (     420 calls)
     addusdens    :     31.25s CPU     31.32s WALL (      15 calls)

     Called by *egterg:
     h_psi        :    187.99s CPU    188.37s WALL (    1657 calls)
     s_psi        :     11.06s CPU     11.07s WALL (    1657 calls)
     g_psi        :      0.92s CPU      0.92s WALL (    1237 calls)
     cdiaghg      :     18.29s CPU     18.35s WALL (    1629 calls)
     cegterg:over :     11.95s CPU     11.95s WALL (    1237 calls)
     cegterg:upda :      8.03s CPU      8.02s WALL (    1237 calls)
     cegterg:last :      4.74s CPU      4.75s WALL (     442 calls)

     Called by h_psi:
     h_psi:vloc   :    152.19s CPU    152.53s WALL (    1657 calls)
     h_psi:vnl    :     22.53s CPU     22.54s WALL (    1657 calls)
     add_vuspsi   :     11.09s CPU     11.08s WALL (    1657 calls)
     vhpsi        :     12.87s CPU     12.91s WALL (    1657 calls)

     General routines
     calbec       :     24.22s CPU     24.29s WALL (    4154 calls)
     fft          :      4.79s CPU      4.81s WALL (     484 calls)
     ffts         :      0.16s CPU      0.15s WALL (      62 calls)
     fftw         :    148.86s CPU    149.23s WALL (  113628 calls)
     interpolate  :      0.85s CPU      0.85s WALL (      62 calls)
     davcio       :      0.01s CPU      0.65s WALL (     868 calls)

     Parallel routines
     fft_scatter  :     36.84s CPU     36.89s WALL (  114174 calls)
     Hubbard U routines
     new_ns       :      2.39s CPU      2.72s WALL (      15 calls)
     vhpsi        :     12.87s CPU     12.91s WALL (    1657 calls)

     PWSCF        :  6m26.55s CPU     6m29.17s WALL


   This run was terminated on:  12:24:42  13Nov2012            

=------------------------------------------------------------------------------=
