   JOB DONE.
=------------------------------------------------------------------------------=

     Program PWSCF v.5.0.1 starts on 13Nov2012 at 12: 3:22 

     This program is part of the open-source Quantum ESPRESSO suite
     for quantum simulation of materials; please cite
         "P. Giannozzi et al., J. Phys.:Condens. Matter 21 395502 (2009);
          URL http://www.quantum-espresso.org", 
     in publications or presentations arising from this work. More details at
     http://www.quantum-espresso.org/quote.php

     Parallel version (MPI), running on     2 processors
     R & G space division:  proc/pool =    2

     Current dimensions of program PWSCF are:
     Max number of different atomic species (ntypx) = 10
     Max number of k-points (npk) =  40000
     Max angular momentum in pseudopotentials (lmaxx) =  3
     Reading input from CoLaO_U0_a-15.in
               file Co.pbe-nd-rrkjus.UPF: wavefunction(s)  4S 3D renormalized
               file Co.pbe-nd-rrkjus.UPF: wavefunction(s)  4S 3D renormalized
               file O.pbe-rrkjus.UPF: wavefunction(s)  2S renormalized

     Subspace diagonalization in iterative solution of the eigenvalue problem:
     a serial algorithm will be used


     Parallelization info
     --------------------
     sticks:   dense  smooth     PW     G-vecs:    dense   smooth      PW
     Min        1112     444    131                34808     8786    1448
     Max        1113     445    132                34809     8787    1449
     Sum        2225     889    263                69617    17573    2897


     Title: 
     GGA + U, U = 1D-40, alpha = -0.150                                         


     bravais-lattice index     =            5
     lattice parameter (alat)  =      10.3292  a.u.
     unit-cell volume          =     793.0599 (a.u.)^3
     number of atoms/cell      =           10
     number of atomic types    =            4
     number of electrons       =        76.00
     number of Kohn-Sham states=           46
     kinetic-energy cutoff     =      30.0000  Ry
     charge density cutoff     =     300.0000  Ry
     convergence threshold     =      1.0E-08
     mixing beta               =       0.2000
     number of iterations used =            8  plain     mixing
     Exchange-correlation      =  SLA  PW   PBE  PBE ( 1 4 3 4 0)
     EXX-fraction              =        0.00

     celldm(1)=  10.329242  celldm(2)=   0.000000  celldm(3)=   0.000000
     celldm(4)=   0.488100  celldm(5)=   0.000000  celldm(6)=   0.000000

     crystal axes: (cart. coord. in units of alat)
               a(1) = (   0.505915  -0.292090   0.811624 )  
               a(2) = (   0.000000   0.584180   0.811624 )  
               a(3) = (  -0.505915  -0.292090   0.811624 )  

     reciprocal axes: (cart. coord. in units 2 pi/alat)
               b(1) = (  0.988308 -0.570600  0.410699 )  
               b(2) = (  0.000000  1.141200  0.410699 )  
               b(3) = ( -0.988308 -0.570600  0.410699 )  


     PseudoPot. # 1 for Co read from file:
     /home/mcurnan/dft-course/Project1/example_LaCoO3/Co.pbe-nd-rrkjus.UPF
     MD5 check sum: 3e47a84addf5e975e0edeaeee2a73f59
     Pseudo is Ultrasoft + core correction, Zval =  9.0
     Generated by new atomic code, or converted to UPF format
     Using radial grid of  961 points,  6 beta functions with: 
                l(1) =   0
                l(2) =   0
                l(3) =   1
                l(4) =   1
                l(5) =   2
                l(6) =   2
     Q(r) pseudized with 0 coefficients 


     PseudoPot. # 2 for Co read from file:
     /home/mcurnan/dft-course/Project1/example_LaCoO3/Co.pbe-nd-rrkjus.UPF
     MD5 check sum: 3e47a84addf5e975e0edeaeee2a73f59
     Pseudo is Ultrasoft + core correction, Zval =  9.0
     Generated by new atomic code, or converted to UPF format
     Using radial grid of  961 points,  6 beta functions with: 
                l(1) =   0
                l(2) =   0
                l(3) =   1
                l(4) =   1
                l(5) =   2
                l(6) =   2
     Q(r) pseudized with 0 coefficients 


     PseudoPot. # 3 for La read from file:
     /home/mcurnan/dft-course/Project1/example_LaCoO3/La.pbe-nsp-van.UPF
     MD5 check sum: b2f11743f52dde65f77d1302becd7929
     Pseudo is Ultrasoft + core correction, Zval = 11.0
     Generated by new atomic code, or converted to UPF format
     Using radial grid of  907 points,  6 beta functions with: 
                l(1) =   0
                l(2) =   0
                l(3) =   1
                l(4) =   1
                l(5) =   2
                l(6) =   2
     Q(r) pseudized with  6 coefficients,  rinner =    1.200   1.200   1.200
                                                       1.200   1.200

     PseudoPot. # 4 for O  read from file:
     /home/mcurnan/dft-course/Project1/example_LaCoO3/O.pbe-rrkjus.UPF
     MD5 check sum: 390ba29e75625707450f3bd3f0eb6be9
     Pseudo is Ultrasoft, Zval =  6.0
     Generated by new atomic code, or converted to UPF format
     Using radial grid of 1269 points,  4 beta functions with: 
                l(1) =   0
                l(2) =   0
                l(3) =   1
                l(4) =   1
     Q(r) pseudized with 0 coefficients 


     atomic species   valence    mass     pseudopotential
        Co1            9.00     1.00000     Co( 1.00)
        Co2            9.00     1.00000     Co( 1.00)
        La1           11.00     1.00000     La( 1.00)
        O1             6.00     1.00000     O ( 1.00)

     Starting magnetic structure 
     atomic species   magnetization
        Co1          1.000
        Co2          1.000
        La1          0.000
        O1           0.000
 -----
     simplified LDA+U calculation, Hubbard_lmax = 2
     atomic species  L   Hubbard U  Hubbard alpha
        Co1          2    0.000000   -0.150000
        Co2          2    0.000000    0.000000
        La1          2    0.000000    0.000000
        O1           1    0.000000    0.000000
 -----

      6 Sym. Ops., with inversion, found


                                    s                        frac. trans.

      isym =  1     identity                                     

 cryst.   s( 1) = (     1          0          0      )
                  (     0          1          0      )
                  (     0          0          1      )

 cart.    s( 1) = (  1.0000000  0.0000000  0.0000000 )
                  (  0.0000000  1.0000000  0.0000000 )
                  (  0.0000000  0.0000000  1.0000000 )


      isym =  2     120 deg rotation - cryst. axis [0,0,1]       

 cryst.   s( 2) = (     0          1          0      )
                  (     0          0          1      )
                  (     1          0          0      )

 cart.    s( 2) = ( -0.5000000 -0.8660254  0.0000000 )
                  (  0.8660254 -0.5000000  0.0000000 )
                  (  0.0000000  0.0000000  1.0000000 )


      isym =  3     120 deg rotation - cryst. axis [0,0,-1]      

 cryst.   s( 3) = (     0          0          1      )
                  (     1          0          0      )
                  (     0          1          0      )

 cart.    s( 3) = ( -0.5000000  0.8660254  0.0000000 )
                  ( -0.8660254 -0.5000000  0.0000000 )
                  (  0.0000000  0.0000000  1.0000000 )


      isym =  4     inversion                                    

 cryst.   s( 4) = (    -1          0          0      )
                  (     0         -1          0      )
                  (     0          0         -1      )

 cart.    s( 4) = ( -1.0000000  0.0000000  0.0000000 )
                  (  0.0000000 -1.0000000  0.0000000 )
                  (  0.0000000  0.0000000 -1.0000000 )


      isym =  5     inv. 180 deg rotation - cart. axis [0,1,0]   

 cryst.   s( 5) = (     0         -1          0      )
                  (     0          0         -1      )
                  (    -1          0          0      )

 cart.    s( 5) = (  0.5000000  0.8660254  0.0000000 )
                  ( -0.8660254  0.5000000  0.0000000 )
                  (  0.0000000  0.0000000 -1.0000000 )


      isym =  6     inv. 180 deg rotation - cart. axis [1,0,0]   

 cryst.   s( 6) = (     0          0         -1      )
                  (    -1          0          0      )
                  (     0         -1          0      )

 cart.    s( 6) = (  0.5000000 -0.8660254  0.0000000 )
                  (  0.8660254  0.5000000  0.0000000 )
                  (  0.0000000  0.0000000 -1.0000000 )


     point group S_6 (-3)   
     there are  6 classes
     the character table:

       E     C3    C3^2  i     S6^5  S6   
A_g    1.00  1.00  1.00  1.00  1.00  1.00
E_g    1.00 -0.50 -0.50  1.00 -0.50 -0.50
E_g*   1.00 -0.50 -0.50  1.00 -0.50 -0.50
A_u    1.00  1.00  1.00 -1.00 -1.00 -1.00
E_u    1.00 -0.50 -0.50 -1.00  0.50  0.50
E_u*   1.00 -0.50 -0.50 -1.00  0.50  0.50
     imaginary part
A_g    0.00  0.00  0.00  0.00  0.00  0.00
E_g    0.00  0.87 -0.87  0.00  0.87 -0.87
E_g*   0.00 -0.87  0.87  0.00 -0.87  0.87
A_u    0.00  0.00  0.00  0.00  0.00  0.00
E_u    0.00  0.87 -0.87  0.00 -0.87  0.87
E_u*   0.00 -0.87  0.87  0.00  0.87 -0.87

     the symmetry operations in each class:
     E        1
     C3       2
     C3^2     3
     i        4
     S6^5     5
     S6       6

   Cartesian axes

     site n.     atom                  positions (alat units)
         1           Co1 tau(   1) = (   0.0000000   0.0000000   0.0000000  )
         2           Co2 tau(   2) = (   0.0000000   0.0000000   1.2174358  )
         3           La1 tau(   3) = (   0.0000000   0.0000000   0.6087179  )
         4           La1 tau(   4) = (   0.0000000   0.0000000   1.8261537  )
         5           O1  tau(   5) = (  -0.2839701  -0.0933228   1.0141240  )
         6           O1  tau(   6) = (   0.0611651   0.2925867   1.0141240  )
         7           O1  tau(   7) = (   0.2228050  -0.1992639   1.0141240  )
         8           O1  tau(   8) = (  -0.0611651  -0.2925867   1.4207476  )
         9           O1  tau(   9) = (   0.2839701   0.0933228   1.4207476  )
        10           O1  tau(  10) = (  -0.2228050   0.1992639   1.4207476  )

   Crystallographic axes

     site n.     atom                  positions (cryst. coord.)
         1           Co1 tau(   1) = (  0.0000000  0.0000000  0.0000000  )
         2           Co2 tau(   2) = (  0.5000000  0.5000000  0.5000000  )
         3           La1 tau(   3) = (  0.2500000  0.2500000  0.2500000  )
         4           La1 tau(   4) = (  0.7500000  0.7500000  0.7500000  )
         5           O1  tau(   5) = (  0.1891000  0.3100000  0.7504000  )
         6           O1  tau(   6) = (  0.3100000  0.7504000  0.1891000  )
         7           O1  tau(   7) = (  0.7504000  0.1891000  0.3100000  )
         8           O1  tau(   8) = (  0.6900000  0.2496000  0.8109000  )
         9           O1  tau(   9) = (  0.8109000  0.6900000  0.2496000  )
        10           O1  tau(  10) = (  0.2496000  0.8109000  0.6900000  )

     number of k points=    28  gaussian smearing, width (Ry)=  0.0300
                       cart. coord. in units 2pi/alat
        k(    1) = (   0.0000000   0.0000000   0.0000000), wk =   0.0156250
        k(    2) = (  -0.2470771  -0.1426500   0.1026748), wk =   0.0937500
        k(    3) = (   0.4941541   0.2853000  -0.2053496), wk =   0.0468750
        k(    4) = (  -0.2470771   0.1426500   0.2053496), wk =   0.0937500
        k(    5) = (   0.4941541   0.5706001  -0.1026748), wk =   0.0937500
        k(    6) = (   0.2470771   0.4279500   0.0000000), wk =   0.0937500
        k(    7) = (   0.4941541  -0.2853000  -0.4106993), wk =   0.0468750
        k(    8) = (   0.0000000   0.0000000   0.3080244), wk =   0.0312500
        k(    9) = (   0.7412312   0.4279500   0.0000000), wk =   0.0937500
        k(   10) = (   0.4941541   0.2853000   0.1026748), wk =   0.0937500
        k(   11) = (   0.7412312  -0.4279500  -0.3080244), wk =   0.0937500
        k(   12) = (   0.4941541  -0.5706001  -0.2053496), wk =   0.0937500
        k(   13) = (   0.0000000   0.0000000  -0.6160489), wk =   0.0156250
        k(   14) = (   0.4941541  -0.5706001   0.1026748), wk =   0.0937500
        k(   15) = (   0.0000000   0.0000000   0.0000000), wk =   0.0156250
        k(   16) = (  -0.2470771  -0.1426500   0.1026748), wk =   0.0937500
        k(   17) = (   0.4941541   0.2853000  -0.2053496), wk =   0.0468750
        k(   18) = (  -0.2470771   0.1426500   0.2053496), wk =   0.0937500
        k(   19) = (   0.4941541   0.5706001  -0.1026748), wk =   0.0937500
        k(   20) = (   0.2470771   0.4279500   0.0000000), wk =   0.0937500
        k(   21) = (   0.4941541  -0.2853000  -0.4106993), wk =   0.0468750
        k(   22) = (   0.0000000   0.0000000   0.3080244), wk =   0.0312500
        k(   23) = (   0.7412312   0.4279500   0.0000000), wk =   0.0937500
        k(   24) = (   0.4941541   0.2853000   0.1026748), wk =   0.0937500
        k(   25) = (   0.7412312  -0.4279500  -0.3080244), wk =   0.0937500
        k(   26) = (   0.4941541  -0.5706001  -0.2053496), wk =   0.0937500
        k(   27) = (   0.0000000   0.0000000  -0.6160489), wk =   0.0156250
        k(   28) = (   0.4941541  -0.5706001   0.1026748), wk =   0.0937500

                       cryst. coord.
        k(    1) = (   0.0000000   0.0000000   0.0000000), wk =   0.0156250
        k(    2) = (   0.0000000   0.0000000   0.2500000), wk =   0.0937500
        k(    3) = (   0.0000000   0.0000000  -0.5000000), wk =   0.0468750
        k(    4) = (   0.0000000   0.2500000   0.2500000), wk =   0.0937500
        k(    5) = (   0.0000000   0.2500000  -0.5000000), wk =   0.0937500
        k(    6) = (   0.0000000   0.2500000  -0.2500000), wk =   0.0937500
        k(    7) = (   0.0000000  -0.5000000  -0.5000000), wk =   0.0468750
        k(    8) = (   0.2500000   0.2500000   0.2500000), wk =   0.0312500
        k(    9) = (   0.2500000   0.2500000  -0.5000000), wk =   0.0937500
        k(   10) = (   0.2500000   0.2500000  -0.2500000), wk =   0.0937500
        k(   11) = (   0.2500000  -0.5000000  -0.5000000), wk =   0.0937500
        k(   12) = (   0.2500000  -0.5000000  -0.2500000), wk =   0.0937500
        k(   13) = (  -0.5000000  -0.5000000  -0.5000000), wk =   0.0156250
        k(   14) = (   0.5000000  -0.2500000   0.0000000), wk =   0.0937500
        k(   15) = (   0.0000000   0.0000000   0.0000000), wk =   0.0156250
        k(   16) = (   0.0000000   0.0000000   0.2500000), wk =   0.0937500
        k(   17) = (   0.0000000   0.0000000  -0.5000000), wk =   0.0468750
        k(   18) = (   0.0000000   0.2500000   0.2500000), wk =   0.0937500
        k(   19) = (   0.0000000   0.2500000  -0.5000000), wk =   0.0937500
        k(   20) = (   0.0000000   0.2500000  -0.2500000), wk =   0.0937500
        k(   21) = (   0.0000000  -0.5000000  -0.5000000), wk =   0.0468750
        k(   22) = (   0.2500000   0.2500000   0.2500000), wk =   0.0312500
        k(   23) = (   0.2500000   0.2500000  -0.5000000), wk =   0.0937500
        k(   24) = (   0.2500000   0.2500000  -0.2500000), wk =   0.0937500
        k(   25) = (   0.2500000  -0.5000000  -0.5000000), wk =   0.0937500
        k(   26) = (   0.2500000  -0.5000000  -0.2500000), wk =   0.0937500
        k(   27) = (  -0.5000000  -0.5000000  -0.5000000), wk =   0.0156250
        k(   28) = (   0.5000000  -0.2500000   0.0000000), wk =   0.0937500

     Dense  grid:    69617 G-vectors     FFT dimensions: (  60,  60,  60)

     Smooth grid:    17573 G-vectors     FFT dimensions: (  40,  40,  40)

     Largest allocated arrays     est. size (Mb)     dimensions
        Kohn-Sham Wavefunctions         0.78 Mb     (   1117,   46)
        Atomic wavefunctions            1.06 Mb     (   1117,   62)
        NL pseudopotentials             2.05 Mb     (   1117,  120)
        Each V/rho on FFT grid          3.30 Mb     ( 108000,   2)
        Each G-vector array             0.27 Mb     (  34808)
        G-vector shells                 0.04 Mb     (   4682)
     Largest temporary arrays     est. size (Mb)     dimensions
        Auxiliary wavefunctions         3.14 Mb     (   1117,  184)
        Each subspace H/S matrix        0.52 Mb     ( 184, 184)
        Each <psi_i|beta_j> matrix      0.08 Mb     (    120,   46)
        Arrays for rho mixing          13.18 Mb     ( 108000,   8)

     Check: negative/imaginary core charge=   -0.000028    0.000000

     The initial density is read from file :
     /home/mcurnan/dft-course/Project1/example_LaCoO3/0/Co/alpha/CoLaO_U0.save/charge-density.dat

 --- in v_hubbard ---
Hubbard energy   -0.0875
 -------
     Number of +U iterations with fixed ns =  0
     Starting occupations:
 --- enter write_ns ---
 LDA+U parameters:
U( 1)     =  0.00000000
alpha( 1) = -0.15000000
U( 2)     =  0.00000000
alpha( 2) =  0.00000000
U( 3)     =  0.00000000
alpha( 3) =  0.00000000
U( 4)     =  0.00000000
alpha( 4) =  0.00000000
atom    1   Tr[ns(na)] (up, down, total) =   4.56612  3.37352  7.93963
   spin  1
    eigenvalues: 
  0.785  0.785  0.999  0.999  0.999
    eigenvectors:
  0.000  0.000  0.000  0.000  1.000
  0.422  0.224  0.056  0.298  0.000
  0.224  0.422  0.298  0.056  0.000
  0.346  0.008  0.556  0.090  0.000
  0.008  0.346  0.090  0.556  0.000
    occupations:
  0.999  0.000  0.000  0.000  0.000
  0.000  0.861  0.000 -0.073  0.072
  0.000  0.000  0.861  0.072  0.073
  0.000 -0.073  0.072  0.923  0.000
  0.000  0.072  0.073  0.000  0.923
   spin  2
    eigenvalues: 
  0.474  0.474  0.773  0.826  0.826
    eigenvectors:
  0.000  0.000  1.000  0.000  0.000
  0.276  0.363  0.000  0.034  0.327
  0.363  0.276  0.000  0.327  0.034
  0.279  0.082  0.000  0.476  0.163
  0.082  0.279  0.000  0.163  0.476
    occupations:
  0.773  0.000  0.000  0.000  0.000
  0.000  0.601  0.000 -0.037  0.165
  0.000  0.000  0.601  0.165  0.037
  0.000 -0.037  0.165  0.699  0.000
  0.000  0.165  0.037  0.000  0.699
atomic mag. moment =     1.192598
atom    2   Tr[ns(na)] (up, down, total) =   4.67274  3.22494  7.89767
   spin  1
    eigenvalues: 
  0.838  0.838  0.999  0.999  0.999
    eigenvectors:
  0.000  0.000  0.000  0.000  1.000
  0.643  0.003  0.325  0.029  0.000
  0.003  0.643  0.029  0.325  0.000
  0.153  0.201  0.499  0.147  0.000
  0.201  0.153  0.147  0.499  0.000
    occupations:
  0.999  0.000  0.000  0.000  0.000
  0.000  0.895  0.000  0.054  0.054
  0.000  0.000  0.895  0.054 -0.054
  0.000  0.054  0.054  0.942  0.000
  0.000  0.054 -0.054  0.000  0.942
   spin  2
    eigenvalues: 
  0.459  0.459  0.730  0.788  0.788
    eigenvectors:
  0.000  0.000  1.000  0.000  0.000
  0.510  0.125  0.000  0.190  0.175
  0.125  0.510  0.000  0.175  0.190
  0.019  0.346  0.000  0.447  0.189
  0.346  0.019  0.000  0.189  0.447
    occupations:
  0.730  0.000  0.000  0.000  0.000
  0.000  0.579  0.000  0.036  0.154
  0.000  0.000  0.579  0.154 -0.036
  0.000  0.036  0.154  0.668  0.000
  0.000  0.154 -0.036  0.000  0.668
atomic mag. moment =     1.447801
atom    3   Tr[ns(na)] (up, down, total) =   1.91460  1.90025  3.81485
   spin  1
    eigenvalues: 
  0.357  0.357  0.387  0.407  0.407
    eigenvectors:
  0.000  0.000  1.000  0.000  0.000
  0.786  0.138  0.000  0.011  0.065
  0.138  0.786  0.000  0.065  0.011
  0.012  0.064  0.000  0.785  0.139
  0.064  0.012  0.000  0.139  0.785
    occupations:
  0.387  0.000  0.000  0.000  0.000
  0.000  0.361  0.000  0.000  0.013
  0.000  0.000  0.361  0.013  0.000
  0.000  0.000  0.013  0.403  0.000
  0.000  0.013  0.000  0.000  0.403
   spin  2
    eigenvalues: 
  0.353  0.353  0.387  0.404  0.404
    eigenvectors:
  0.000  0.000  1.000  0.000  0.000
  0.766  0.145  0.000  0.013  0.077
  0.145  0.766  0.000  0.077  0.013
  0.015  0.075  0.000  0.767  0.143
  0.075  0.015  0.000  0.143  0.767
    occupations:
  0.387  0.000  0.000  0.000  0.000
  0.000  0.358  0.000  0.000  0.015
  0.000  0.000  0.358  0.015  0.000
  0.000  0.000  0.015  0.399  0.000
  0.000  0.015  0.000  0.000  0.399
atomic mag. moment =     0.014350
atom    4   Tr[ns(na)] (up, down, total) =   1.91460  1.90025  3.81485
   spin  1
    eigenvalues: 
  0.357  0.357  0.387  0.407  0.407
    eigenvectors:
  0.000  0.000  1.000  0.000  0.000
  0.786  0.138  0.000  0.011  0.065
  0.138  0.786  0.000  0.065  0.011
  0.012  0.064  0.000  0.785  0.139
  0.064  0.012  0.000  0.139  0.785
    occupations:
  0.387  0.000  0.000  0.000  0.000
  0.000  0.361  0.000  0.000  0.013
  0.000  0.000  0.361  0.013  0.000
  0.000  0.000  0.013  0.403  0.000
  0.000  0.013  0.000  0.000  0.403
   spin  2
    eigenvalues: 
  0.353  0.353  0.387  0.404  0.404
    eigenvectors:
  0.000  0.000  1.000  0.000  0.000
  0.766  0.145  0.000  0.013  0.077
  0.145  0.766  0.000  0.077  0.013
  0.015  0.074  0.000  0.767  0.143
  0.074  0.015  0.000  0.143  0.767
    occupations:
  0.387  0.000  0.000  0.000  0.000
  0.000  0.358  0.000  0.000  0.015
  0.000  0.000  0.358  0.015  0.000
  0.000  0.000  0.015  0.399  0.000
  0.000  0.015  0.000  0.000  0.399
atomic mag. moment =     0.014350
atom    5   Tr[ns(na)] (up, down, total) =   2.74224  2.70309  5.44533
   spin  1
    eigenvalues: 
  0.844  0.947  0.951
    eigenvectors:
  0.337  0.000  0.663
  0.487  0.256  0.257
  0.176  0.744  0.080
    occupations:
  0.915  0.044  0.026
  0.044  0.898 -0.030
  0.026 -0.030  0.929
   spin  2
    eigenvalues: 
  0.864  0.920  0.920
    eigenvectors:
  0.333  0.051  0.615
  0.486  0.406  0.108
  0.181  0.543  0.276
    occupations:
  0.901  0.022  0.014
  0.022  0.893 -0.016
  0.014 -0.016  0.910
atomic mag. moment =     0.039149
atom    6   Tr[ns(na)] (up, down, total) =   2.74224  2.70309  5.44533
   spin  1
    eigenvalues: 
  0.844  0.947  0.951
    eigenvectors:
  0.337  0.000  0.663
  0.000  1.000  0.000
  0.663  0.000  0.337
    occupations:
  0.915  0.001 -0.051
  0.001  0.947  0.001
 -0.051  0.001  0.880
   spin  2
    eigenvalues: 
  0.864  0.920  0.920
    eigenvectors:
  0.333  0.051  0.615
  0.000  0.915  0.085
  0.666  0.034  0.300
    occupations:
  0.901  0.001 -0.026
  0.001  0.920  0.001
 -0.026  0.001  0.883
atomic mag. moment =     0.039149
atom    7   Tr[ns(na)] (up, down, total) =   2.74224  2.70309  5.44533
   spin  1
    eigenvalues: 
  0.844  0.947  0.951
    eigenvectors:
  0.337  0.000  0.663
  0.508  0.244  0.248
  0.155  0.756  0.089
    occupations:
  0.915 -0.044  0.025
 -0.044  0.896  0.029
  0.025  0.029  0.932
   spin  2
    eigenvalues: 
  0.864  0.920  0.920
    eigenvectors:
  0.333  0.051  0.615
  0.514  0.102  0.384
  0.153  0.846  0.000
    occupations:
  0.901 -0.023  0.013
 -0.023  0.891  0.016
  0.013  0.016  0.911
atomic mag. moment =     0.039149
atom    8   Tr[ns(na)] (up, down, total) =   2.74224  2.70309  5.44533
   spin  1
    eigenvalues: 
  0.844  0.947  0.951
    eigenvectors:
  0.337  0.000  0.663
  0.000  1.000  0.000
  0.663  0.000  0.337
    occupations:
  0.915  0.001 -0.051
  0.001  0.947  0.001
 -0.051  0.001  0.880
   spin  2
    eigenvalues: 
  0.864  0.920  0.920
    eigenvectors:
  0.333  0.051  0.615
  0.000  0.915  0.085
  0.666  0.034  0.300
    occupations:
  0.901  0.001 -0.026
  0.001  0.920  0.001
 -0.026  0.001  0.883
atomic mag. moment =     0.039149
atom    9   Tr[ns(na)] (up, down, total) =   2.74224  2.70309  5.44533
   spin  1
    eigenvalues: 
  0.844  0.947  0.951
    eigenvectors:
  0.337  0.000  0.663
  0.487  0.256  0.257
  0.176  0.744  0.080
    occupations:
  0.915  0.044  0.026
  0.044  0.898 -0.030
  0.026 -0.030  0.929
   spin  2
    eigenvalues: 
  0.864  0.920  0.920
    eigenvectors:
  0.333  0.051  0.615
  0.486  0.406  0.108
  0.181  0.543  0.276
    occupations:
  0.901  0.022  0.014
  0.022  0.893 -0.016
  0.014 -0.016  0.910
atomic mag. moment =     0.039149
atom   10   Tr[ns(na)] (up, down, total) =   2.74224  2.70309  5.44533
   spin  1
    eigenvalues: 
  0.844  0.947  0.951
    eigenvectors:
  0.337  0.000  0.663
  0.508  0.244  0.248
  0.155  0.756  0.089
    occupations:
  0.915 -0.044  0.025
 -0.044  0.896  0.029
  0.025  0.029  0.932
   spin  2
    eigenvalues: 
  0.864  0.920  0.920
    eigenvectors:
  0.333  0.051  0.615
  0.514  0.102  0.384
  0.153  0.846  0.000
    occupations:
  0.901 -0.023  0.013
 -0.023  0.891  0.016
  0.013  0.016  0.911
atomic mag. moment =     0.039149
N of occupied +U levels =  56.1389605
 --- exit write_ns ---
 LDA+U Projector read from file 
     Starting wfc from file

     total cpu time spent up to now is        8.8 secs

     per-process dynamical memory:    66.8 Mb

     Self-consistent Calculation

     iteration #  1     ecut=    30.00 Ry     beta=0.20
     Davidson diagonalization with overlap
     c_bands:  1 eigenvalues not converged
     c_bands:  1 eigenvalues not converged
     c_bands:  1 eigenvalues not converged
     c_bands:  1 eigenvalues not converged
     c_bands:  1 eigenvalues not converged
     c_bands:  1 eigenvalues not converged
     c_bands:  1 eigenvalues not converged
     c_bands:  1 eigenvalues not converged
     c_bands:  1 eigenvalues not converged
     c_bands:  1 eigenvalues not converged
     c_bands:  1 eigenvalues not converged
     ethr =  1.00E-10,  avg # of iterations = 13.7
 --- enter write_ns ---
 LDA+U parameters:
U( 1)     =  0.00000000
alpha( 1) = -0.15000000
U( 2)     =  0.00000000
alpha( 2) =  0.00000000
U( 3)     =  0.00000000
alpha( 3) =  0.00000000
U( 4)     =  0.00000000
alpha( 4) =  0.00000000
atom    1   Tr[ns(na)] (up, down, total) =   4.59023  3.50929  8.09952
   spin  1
    eigenvalues: 
  0.797  0.797  0.999  0.999  0.999
    eigenvectors:
  0.000  0.000  0.000  0.000  1.000
  0.422  0.224  0.055  0.298  0.000
  0.224  0.422  0.298  0.055  0.000
  0.346  0.008  0.556  0.090  0.000
  0.008  0.346  0.090  0.556  0.000
    occupations:
  0.999  0.000  0.000  0.000  0.000
  0.000  0.868  0.000 -0.068  0.068
  0.000  0.000  0.868  0.068  0.068
  0.000 -0.068  0.068  0.927  0.000
  0.000  0.068  0.068  0.000  0.927
   spin  2
    eigenvalues: 
  0.487  0.487  0.814  0.861  0.861
    eigenvectors:
  0.000  0.000  1.000  0.000  0.000
  0.280  0.360  0.000  0.029  0.331
  0.360  0.280  0.000  0.331  0.029
  0.281  0.079  0.000  0.479  0.161
  0.079  0.281  0.000  0.161  0.479
    occupations:
  0.814  0.000  0.000  0.000  0.000
  0.000  0.621  0.000 -0.042  0.175
  0.000  0.000  0.621  0.175  0.042
  0.000 -0.042  0.175  0.726  0.000
  0.000  0.175  0.042  0.000  0.726
atomic mag. moment =     1.080942
atom    2   Tr[ns(na)] (up, down, total) =   4.65618  3.13204  7.78821
   spin  1
    eigenvalues: 
  0.830  0.830  0.999  0.999  0.999
    eigenvectors:
  0.000  0.000  0.000  0.000  1.000
  0.643  0.003  0.325  0.029  0.000
  0.003  0.643  0.029  0.325  0.000
  0.152  0.202  0.499  0.147  0.000
  0.202  0.152  0.147  0.499  0.000
    occupations:
  0.999  0.000  0.000  0.000  0.000
  0.000  0.890  0.000  0.057  0.057
  0.000  0.000  0.890  0.057 -0.057
  0.000  0.057  0.057  0.939  0.000
  0.000  0.057 -0.057  0.000  0.939
   spin  2
    eigenvalues: 
  0.458  0.458  0.697  0.759  0.759
    eigenvectors:
  0.000  0.000  1.000  0.000  0.000
  0.455  0.178  0.000  0.180  0.186
  0.178  0.455  0.000  0.186  0.180
  0.045  0.321  0.000  0.445  0.188
  0.321  0.045  0.000  0.188  0.445
    occupations:
  0.697  0.000  0.000  0.000  0.000
  0.000  0.569  0.000  0.029  0.142
  0.000  0.000  0.569  0.142 -0.029
  0.000  0.029  0.142  0.649  0.000
  0.000  0.142 -0.029  0.000  0.649
atomic mag. moment =     1.524142
atom    3   Tr[ns(na)] (up, down, total) =   1.91423  1.89943  3.81367
   spin  1
    eigenvalues: 
  0.357  0.357  0.387  0.407  0.407
    eigenvectors:
  0.000  0.000  1.000  0.000  0.000
  0.786  0.138  0.000  0.011  0.065
  0.138  0.786  0.000  0.065  0.011
  0.012  0.064  0.000  0.785  0.139
  0.064  0.012  0.000  0.139  0.785
    occupations:
  0.387  0.000  0.000  0.000  0.000
  0.000  0.361  0.000  0.000  0.013
  0.000  0.000  0.361  0.013  0.000
  0.000  0.000  0.013  0.403  0.000
  0.000  0.013  0.000  0.000  0.403
   spin  2
    eigenvalues: 
  0.353  0.353  0.387  0.404  0.404
    eigenvectors:
  0.000  0.000  1.000  0.000  0.000
  0.764  0.145  0.000  0.012  0.078
  0.145  0.764  0.000  0.078  0.012
  0.016  0.074  0.000  0.767  0.143
  0.074  0.016  0.000  0.143  0.767
    occupations:
  0.387  0.000  0.000  0.000  0.000
  0.000  0.357  0.000  0.000  0.015
  0.000  0.000  0.357  0.015  0.000
  0.000  0.000  0.015  0.399  0.000
  0.000  0.015  0.000  0.000  0.399
atomic mag. moment =     0.014801
atom    4   Tr[ns(na)] (up, down, total) =   1.91423  1.89943  3.81367
   spin  1
    eigenvalues: 
  0.357  0.357  0.387  0.407  0.407
    eigenvectors:
  0.000  0.000  1.000  0.000  0.000
  0.786  0.138  0.000  0.011  0.065
  0.138  0.786  0.000  0.065  0.011
  0.012  0.064  0.000  0.785  0.139
  0.064  0.012  0.000  0.139  0.785
    occupations:
  0.387  0.000  0.000  0.000  0.000
  0.000  0.361  0.000  0.000  0.013
  0.000  0.000  0.361  0.013  0.000
  0.000  0.000  0.013  0.403  0.000
  0.000  0.013  0.000  0.000  0.403
   spin  2
    eigenvalues: 
  0.353  0.353  0.387  0.404  0.404
    eigenvectors:
  0.000  0.000  1.000  0.000  0.000
  0.764  0.146  0.000  0.012  0.078
  0.146  0.764  0.000  0.078  0.012
  0.016  0.074  0.000  0.767  0.143
  0.074  0.016  0.000  0.143  0.767
    occupations:
  0.387  0.000  0.000  0.000  0.000
  0.000  0.357  0.000  0.000  0.015
  0.000  0.000  0.357  0.015  0.000
  0.000  0.000  0.015  0.399  0.000
  0.000  0.015  0.000  0.000  0.399
atomic mag. moment =     0.014801
atom    5   Tr[ns(na)] (up, down, total) =   2.73923  2.69956  5.43879
   spin  1
    eigenvalues: 
  0.841  0.947  0.951
    eigenvectors:
  0.337  0.000  0.663
  0.490  0.254  0.256
  0.173  0.746  0.081
    occupations:
  0.914  0.045  0.027
  0.045  0.896 -0.030
  0.027 -0.030  0.929
   spin  2
    eigenvalues: 
  0.862  0.919  0.919
    eigenvectors:
  0.334  0.044  0.622
  0.469  0.422  0.108
  0.197  0.534  0.269
    occupations:
  0.900  0.023  0.015
  0.023  0.892 -0.017
  0.015 -0.017  0.908
atomic mag. moment =     0.039667
atom    6   Tr[ns(na)] (up, down, total) =   2.73923  2.69956  5.43879
   spin  1
    eigenvalues: 
  0.841  0.947  0.951
    eigenvectors:
  0.337  0.000  0.663
  0.000  1.000  0.000
  0.663  0.000  0.337
    occupations:
  0.914  0.001 -0.052
  0.001  0.947  0.001
 -0.052  0.001  0.878
   spin  2
    eigenvalues: 
  0.862  0.919  0.919
    eigenvectors:
  0.334  0.044  0.622
  0.002  0.917  0.081
  0.665  0.039  0.296
    occupations:
  0.900  0.001 -0.027
  0.001  0.919  0.002
 -0.027  0.002  0.881
atomic mag. moment =     0.039667
atom    7   Tr[ns(na)] (up, down, total) =   2.73923  2.69956  5.43879
   spin  1
    eigenvalues: 
  0.841  0.947  0.951
    eigenvectors:
  0.337  0.000  0.663
  0.504  0.246  0.250
  0.159  0.754  0.087
    occupations:
  0.914 -0.045  0.025
 -0.045  0.895  0.029
  0.025  0.029  0.931
   spin  2
    eigenvalues: 
  0.862  0.919  0.919
    eigenvectors:
  0.334  0.044  0.622
  0.528  0.095  0.377
  0.138  0.861  0.001
    occupations:
  0.900 -0.024  0.012
 -0.024  0.889  0.015
  0.012  0.015  0.911
atomic mag. moment =     0.039667
atom    8   Tr[ns(na)] (up, down, total) =   2.73923  2.69956  5.43879
   spin  1
    eigenvalues: 
  0.841  0.947  0.951
    eigenvectors:
  0.337  0.000  0.663
  0.000  1.000  0.000
  0.663  0.000  0.337
    occupations:
  0.914  0.001 -0.052
  0.001  0.947  0.001
 -0.052  0.001  0.878
   spin  2
    eigenvalues: 
  0.862  0.919  0.919
    eigenvectors:
  0.334  0.044  0.622
  0.002  0.917  0.081
  0.665  0.039  0.296
    occupations:
  0.900  0.001 -0.027
  0.001  0.919  0.002
 -0.027  0.002  0.881
atomic mag. moment =     0.039667
atom    9   Tr[ns(na)] (up, down, total) =   2.73923  2.69956  5.43879
   spin  1
    eigenvalues: 
  0.841  0.947  0.951
    eigenvectors:
  0.337  0.000  0.663
  0.490  0.254  0.256
  0.173  0.746  0.081
    occupations:
  0.914  0.045  0.027
  0.045  0.896 -0.030
  0.027 -0.030  0.929
   spin  2
    eigenvalues: 
  0.862  0.919  0.919
    eigenvectors:
  0.334  0.044  0.622
  0.469  0.422  0.108
  0.197  0.534  0.269
    occupations:
  0.900  0.023  0.015
  0.023  0.892 -0.017
  0.015 -0.017  0.908
atomic mag. moment =     0.039667
atom   10   Tr[ns(na)] (up, down, total) =   2.73923  2.69956  5.43879
   spin  1
    eigenvalues: 
  0.841  0.947  0.951
    eigenvectors:
  0.337  0.000  0.663
  0.504  0.246  0.250
  0.159  0.754  0.087
    occupations:
  0.914 -0.045  0.025
 -0.045  0.895  0.029
  0.025  0.029  0.931
   spin  2
    eigenvalues: 
  0.862  0.919  0.919
    eigenvectors:
  0.334  0.044  0.622
  0.528  0.095  0.377
  0.138  0.861  0.001
    occupations:
  0.900 -0.024  0.012
 -0.024  0.889  0.015
  0.012  0.015  0.911
atomic mag. moment =     0.039667
N of occupied +U levels =  56.1478223
 --- exit write_ns ---
 --- in v_hubbard ---
Hubbard energy   -0.0879
 -------

     total cpu time spent up to now is       61.8 secs

     total energy              =    -538.43349099 Ry
     Harris-Foulkes estimate   =    -538.44385151 Ry
     estimated scf accuracy    <       0.03138630 Ry

     total magnetization       =     3.51 Bohr mag/cell
     absolute magnetization    =     3.66 Bohr mag/cell

     iteration #  2     ecut=    30.00 Ry     beta=0.20
     Davidson diagonalization with overlap
     ethr =  4.13E-05,  avg # of iterations =  2.0
 --- enter write_ns ---
 LDA+U parameters:
U( 1)     =  0.00000000
alpha( 1) = -0.15000000
U( 2)     =  0.00000000
alpha( 2) =  0.00000000
U( 3)     =  0.00000000
alpha( 3) =  0.00000000
U( 4)     =  0.00000000
alpha( 4) =  0.00000000
atom    1   Tr[ns(na)] (up, down, total) =   4.41168  2.65773  7.06941
   spin  1
    eigenvalues: 
  0.709  0.709  0.998  0.998  0.998
    eigenvectors:
  0.000  0.000  0.000  0.000  1.000
  0.422  0.225  0.054  0.299  0.000
  0.225  0.422  0.299  0.054  0.000
  0.345  0.008  0.556  0.091  0.000
  0.008  0.345  0.091  0.556  0.000
    occupations:
  0.998  0.000  0.000  0.000  0.000
  0.000  0.811  0.000 -0.098  0.098
  0.000  0.000  0.811  0.098  0.098
  0.000 -0.098  0.098  0.896  0.000
  0.000  0.098  0.098  0.000  0.896
   spin  2
    eigenvalues: 
  0.439  0.439  0.542  0.619  0.619
    eigenvectors:
  0.000  0.000  1.000  0.000  0.000
  0.234  0.387  0.000  0.134  0.246
  0.387  0.234  0.000  0.246  0.134
  0.219  0.160  0.000  0.429  0.192
  0.160  0.219  0.000  0.192  0.429
    occupations:
  0.542  0.000  0.000  0.000  0.000
  0.000  0.507  0.000  0.004  0.087
  0.000  0.000  0.507  0.087 -0.004
  0.000  0.004  0.087  0.550  0.000
  0.000  0.087 -0.004  0.000  0.550
atomic mag. moment =     1.753948
atom    2   Tr[ns(na)] (up, down, total) =   4.81927  3.83363  8.65290
   spin  1
    eigenvalues: 
  0.911  0.911  0.999  0.999  0.999
    eigenvectors:
  0.000  0.000  1.000  0.000  0.000
  0.642  0.004  0.000  0.329  0.025
  0.004  0.642  0.000  0.025  0.329
  0.159  0.195  0.000  0.502  0.144
  0.195  0.159  0.000  0.144  0.502
    occupations:
  0.999  0.000  0.000  0.000  0.000
  0.000  0.942  0.000  0.031  0.029
  0.000  0.000  0.942  0.029 -0.031
  0.000  0.031  0.029  0.968  0.000
  0.000  0.029 -0.031  0.000  0.968
   spin  2
    eigenvalues: 
  0.503  0.503  0.928  0.950  0.950
    eigenvectors:
  0.000  0.000  1.000  0.000  0.000
  0.608  0.031  0.000  0.215  0.145
  0.031  0.608  0.000  0.145  0.215
  0.003  0.358  0.000  0.451  0.189
  0.358  0.003  0.000  0.189  0.451
    occupations:
  0.928  0.000  0.000  0.000  0.000
  0.000  0.664  0.000  0.065  0.205
  0.000  0.000  0.664  0.205 -0.065
  0.000  0.065  0.205  0.789  0.000
  0.000  0.205 -0.065  0.000  0.789
atomic mag. moment =     0.985640
atom    3   Tr[ns(na)] (up, down, total) =   1.91509  1.89892  3.81401
   spin  1
    eigenvalues: 
  0.357  0.357  0.387  0.407  0.407
    eigenvectors:
  0.000  0.000  1.000  0.000  0.000
  0.787  0.138  0.000  0.010  0.065
  0.138  0.787  0.000  0.065  0.010
  0.012  0.063  0.000  0.785  0.139
  0.063  0.012  0.000  0.139  0.785
    occupations:
  0.387  0.000  0.000  0.000  0.000
  0.000  0.361  0.000  0.000  0.013
  0.000  0.000  0.361  0.013  0.000
  0.000  0.000  0.013  0.403  0.000
  0.000  0.013  0.000  0.000  0.403
   spin  2
    eigenvalues: 
  0.352  0.352  0.387  0.404  0.404
    eigenvectors:
  0.000  0.000  1.000  0.000  0.000
  0.767  0.141  0.000  0.019  0.073
  0.141  0.767  0.000  0.073  0.019
  0.011  0.081  0.000  0.765  0.143
  0.081  0.011  0.000  0.143  0.765
    occupations:
  0.387  0.000  0.000  0.000  0.000
  0.000  0.357  0.000  0.001  0.015
  0.000  0.000  0.357  0.015 -0.001
  0.000  0.001  0.015  0.399  0.000
  0.000  0.015 -0.001  0.000  0.399
atomic mag. moment =     0.016171
atom    4   Tr[ns(na)] (up, down, total) =   1.91509  1.89892  3.81401
   spin  1
    eigenvalues: 
  0.357  0.357  0.387  0.407  0.407
    eigenvectors:
  0.000  0.000  1.000  0.000  0.000
  0.787  0.137  0.000  0.010  0.065
  0.137  0.787  0.000  0.065  0.010
  0.012  0.063  0.000  0.786  0.139
  0.063  0.012  0.000  0.139  0.786
    occupations:
  0.387  0.000  0.000  0.000  0.000
  0.000  0.361  0.000  0.000  0.013
  0.000  0.000  0.361  0.013  0.000
  0.000  0.000  0.013  0.403  0.000
  0.000  0.013  0.000  0.000  0.403
   spin  2
    eigenvalues: 
  0.352  0.352  0.387  0.404  0.404
    eigenvectors:
  0.000  0.000  1.000  0.000  0.000
  0.767  0.141  0.000  0.019  0.073
  0.141  0.767  0.000  0.073  0.019
  0.011  0.081  0.000  0.764  0.144
  0.081  0.011  0.000  0.144  0.764
    occupations:
  0.387  0.000  0.000  0.000  0.000
  0.000  0.357  0.000  0.001  0.015
  0.000  0.000  0.357  0.015 -0.001
  0.000  0.001  0.015  0.399  0.000
  0.000  0.015 -0.001  0.000  0.399
atomic mag. moment =     0.016171
atom    5   Tr[ns(na)] (up, down, total) =   2.75462  2.70491  5.45953
   spin  1
    eigenvalues: 
  0.854  0.949  0.952
    eigenvectors:
  0.334  0.003  0.663
  0.455  0.279  0.266
  0.212  0.717  0.071
    occupations:
  0.919  0.038  0.026
  0.038  0.907 -0.029
  0.026 -0.029  0.929
   spin  2
    eigenvalues: 
  0.863  0.920  0.922
    eigenvectors:
  0.331  0.007  0.662
  0.571  0.106  0.322
  0.098  0.886  0.015
    occupations:
  0.902  0.026  0.010
  0.026  0.888 -0.013
  0.010 -0.013  0.915
atomic mag. moment =     0.049713
atom    6   Tr[ns(na)] (up, down, total) =   2.75462  2.70491  5.45953
   spin  1
    eigenvalues: 
  0.854  0.949  0.952
    eigenvectors:
  0.334  0.003  0.663
  0.004  0.996  0.001
  0.663  0.001  0.336
    occupations:
  0.919  0.003 -0.046
  0.003  0.948  0.005
 -0.046  0.005  0.887
   spin  2
    eigenvalues: 
  0.863  0.920  0.922
    eigenvectors:
  0.331  0.007  0.662
  0.011  0.958  0.031
  0.658  0.035  0.307
    occupations:
  0.902 -0.004 -0.027
 -0.004  0.920 -0.005
 -0.027 -0.005  0.883
atomic mag. moment =     0.049713
atom    7   Tr[ns(na)] (up, down, total) =   2.75462  2.70491  5.45953
   spin  1
    eigenvalues: 
  0.854  0.949  0.952
    eigenvectors:
  0.334  0.003  0.663
  0.541  0.220  0.239
  0.125  0.777  0.098
    occupations:
  0.919 -0.041  0.020
 -0.041  0.898  0.024
  0.020  0.024  0.937
   spin  2
    eigenvalues: 
  0.863  0.920  0.922
    eigenvectors:
  0.331  0.007  0.662
  0.421  0.425  0.153
  0.248  0.568  0.185
    occupations:
  0.902 -0.022  0.017
 -0.022  0.896  0.018
  0.017  0.018  0.906
atomic mag. moment =     0.049713
atom    8   Tr[ns(na)] (up, down, total) =   2.75462  2.70491  5.45953
   spin  1
    eigenvalues: 
  0.854  0.949  0.952
    eigenvectors:
  0.334  0.003  0.663
  0.004  0.996  0.001
  0.663  0.001  0.336
    occupations:
  0.919  0.003 -0.046
  0.003  0.948  0.005
 -0.046  0.005  0.887
   spin  2
    eigenvalues: 
  0.863  0.920  0.922
    eigenvectors:
  0.331  0.007  0.662
  0.011  0.958  0.031
  0.658  0.035  0.307
    occupations:
  0.902 -0.004 -0.027
 -0.004  0.920 -0.005
 -0.027 -0.005  0.883
atomic mag. moment =     0.049713
atom    9   Tr[ns(na)] (up, down, total) =   2.75462  2.70491  5.45953
   spin  1
    eigenvalues: 
  0.854  0.949  0.952
    eigenvectors:
  0.334  0.003  0.663
  0.455  0.279  0.266
  0.212  0.717  0.071
    occupations:
  0.919  0.038  0.026
  0.038  0.907 -0.029
  0.026 -0.029  0.929
   spin  2
    eigenvalues: 
  0.863  0.920  0.922
    eigenvectors:
  0.331  0.007  0.662
  0.571  0.106  0.322
  0.098  0.886  0.015
    occupations:
  0.902  0.026  0.010
  0.026  0.888 -0.013
  0.010 -0.013  0.915
atomic mag. moment =     0.049713
atom   10   Tr[ns(na)] (up, down, total) =   2.75462  2.70491  5.45953
   spin  1
    eigenvalues: 
  0.854  0.949  0.952
    eigenvectors:
  0.334  0.003  0.663
  0.541  0.220  0.239
  0.125  0.777  0.098
    occupations:
  0.919 -0.041  0.020
 -0.041  0.898  0.024
  0.020  0.024  0.937
   spin  2
    eigenvalues: 
  0.863  0.920  0.922
    eigenvectors:
  0.331  0.007  0.662
  0.421  0.425  0.153
  0.248  0.568  0.185
    occupations:
  0.902 -0.022  0.017
 -0.022  0.896  0.018
  0.017  0.018  0.906
atomic mag. moment =     0.049713
N of occupied +U levels =  56.1075173
 --- exit write_ns ---
 --- in v_hubbard ---
Hubbard energy   -0.0876
 -------

     total cpu time spent up to now is       85.4 secs

     total energy              =    -538.41245508 Ry
     Harris-Foulkes estimate   =    -538.47812887 Ry
     estimated scf accuracy    <       1.35518387 Ry

     total magnetization       =     3.74 Bohr mag/cell
     absolute magnetization    =     3.86 Bohr mag/cell

     iteration #  3     ecut=    30.00 Ry     beta=0.20
     Davidson diagonalization with overlap
     ethr =  4.13E-05,  avg # of iterations =  2.0
 --- enter write_ns ---
 LDA+U parameters:
U( 1)     =  0.00000000
alpha( 1) = -0.15000000
U( 2)     =  0.00000000
alpha( 2) =  0.00000000
U( 3)     =  0.00000000
alpha( 3) =  0.00000000
U( 4)     =  0.00000000
alpha( 4) =  0.00000000
atom    1   Tr[ns(na)] (up, down, total) =   4.56283  3.39926  7.96209
   spin  1
    eigenvalues: 
  0.783  0.783  0.999  0.999  0.999
    eigenvectors:
  0.000  0.000  0.000  0.000  1.000
  0.422  0.225  0.055  0.299  0.000
  0.225  0.422  0.299  0.055  0.000
  0.345  0.008  0.556  0.090  0.000
  0.008  0.345  0.090  0.556  0.000
    occupations:
  0.999  0.000  0.000  0.000  0.000
  0.000  0.859  0.000 -0.073  0.073
  0.000  0.000  0.859  0.073  0.073
  0.000 -0.073  0.073  0.923  0.000
  0.000  0.073  0.073  0.000  0.923
   spin  2
    eigenvalues: 
  0.478  0.478  0.780  0.832  0.832
    eigenvectors:
  0.000  0.000  1.000  0.000  0.000
  0.277  0.362  0.000  0.033  0.328
  0.362  0.277  0.000  0.328  0.033
  0.279  0.082  0.000  0.477  0.163
  0.082  0.279  0.000  0.163  0.477
    occupations:
  0.780  0.000  0.000  0.000  0.000
  0.000  0.606  0.000 -0.037  0.165
  0.000  0.000  0.606  0.165  0.037
  0.000 -0.037  0.165  0.704  0.000
  0.000  0.165  0.037  0.000  0.704
atomic mag. moment =     1.163562
atom    2   Tr[ns(na)] (up, down, total) =   4.67532  3.22303  7.89834
   spin  1
    eigenvalues: 
  0.839  0.839  0.999  0.999  0.999
    eigenvectors:
  0.000  0.000  0.000  0.000  1.000
  0.643  0.003  0.325  0.029  0.000
  0.003  0.643  0.029  0.325  0.000
  0.152  0.202  0.499  0.147  0.000
  0.202  0.152  0.147  0.499  0.000
    occupations:
  0.999  0.000  0.000  0.000  0.000
  0.000  0.896  0.000  0.054  0.054
  0.000  0.000  0.896  0.054 -0.054
  0.000  0.054  0.054  0.942  0.000
  0.000  0.054 -0.054  0.000  0.942
   spin  2
    eigenvalues: 
  0.461  0.461  0.728  0.787  0.787
    eigenvectors:
  0.000  0.000  1.000  0.000  0.000
  0.506  0.129  0.000  0.188  0.176
  0.129  0.506  0.000  0.176  0.188
  0.021  0.344  0.000  0.447  0.188
  0.344  0.021  0.000  0.188  0.447
    occupations:
  0.728  0.000  0.000  0.000  0.000
  0.000  0.580  0.000  0.035  0.153
  0.000  0.000  0.580  0.153 -0.035
  0.000  0.035  0.153  0.668  0.000
  0.000  0.153 -0.035  0.000  0.668
atomic mag. moment =     1.452290
atom    3   Tr[ns(na)] (up, down, total) =   1.91393  1.89935  3.81327
   spin  1
    eigenvalues: 
  0.357  0.357  0.387  0.407  0.407
    eigenvectors:
  0.000  0.000  1.000  0.000  0.000
  0.787  0.137  0.000  0.011  0.065
  0.137  0.787  0.000  0.065  0.011
  0.012  0.064  0.000  0.785  0.139
  0.064  0.012  0.000  0.139  0.785
    occupations:
  0.387  0.000  0.000  0.000  0.000
  0.000  0.361  0.000  0.000  0.013
  0.000  0.000  0.361  0.013  0.000
  0.000  0.000  0.013  0.403  0.000
  0.000  0.013  0.000  0.000  0.403
   spin  2
    eigenvalues: 
  0.353  0.353  0.387  0.404  0.404
    eigenvectors:
  0.000  0.000  1.000  0.000  0.000
  0.765  0.145  0.000  0.013  0.077
  0.145  0.765  0.000  0.077  0.013
  0.015  0.075  0.000  0.767  0.143
  0.075  0.015  0.000  0.143  0.767
    occupations:
  0.387  0.000  0.000  0.000  0.000
  0.000  0.357  0.000  0.000  0.015
  0.000  0.000  0.357  0.015  0.000
  0.000  0.000  0.015  0.399  0.000
  0.000  0.015  0.000  0.000  0.399
atomic mag. moment =     0.014578
atom    4   Tr[ns(na)] (up, down, total) =   1.91393  1.89935  3.81327
   spin  1
    eigenvalues: 
  0.357  0.357  0.387  0.407  0.407
    eigenvectors:
  0.000  0.000  1.000  0.000  0.000
  0.787  0.137  0.000  0.011  0.065
  0.137  0.787  0.000  0.065  0.011
  0.012  0.064  0.000  0.785  0.139
  0.064  0.012  0.000  0.139  0.785
    occupations:
  0.387  0.000  0.000  0.000  0.000
  0.000  0.361  0.000  0.000  0.013
  0.000  0.000  0.361  0.013  0.000
  0.000  0.000  0.013  0.403  0.000
  0.000  0.013  0.000  0.000  0.403
   spin  2
    eigenvalues: 
  0.353  0.353  0.387  0.404  0.404
    eigenvectors:
  0.000  0.000  1.000  0.000  0.000
  0.765  0.145  0.000  0.013  0.077
  0.145  0.765  0.000  0.077  0.013
  0.015  0.075  0.000  0.767  0.143
  0.075  0.015  0.000  0.143  0.767
    occupations:
  0.387  0.000  0.000  0.000  0.000
  0.000  0.357  0.000  0.000  0.015
  0.000  0.000  0.357  0.015  0.000
  0.000  0.000  0.015  0.399  0.000
  0.000  0.015  0.000  0.000  0.399
atomic mag. moment =     0.014578
atom    5   Tr[ns(na)] (up, down, total) =   2.74152  2.70163  5.44315
   spin  1
    eigenvalues: 
  0.843  0.947  0.951
    eigenvectors:
  0.337  0.000  0.663
  0.486  0.257  0.257
  0.177  0.743  0.080
    occupations:
  0.915  0.044  0.026
  0.044  0.898 -0.030
  0.026 -0.030  0.929
   spin  2
    eigenvalues: 
  0.863  0.919  0.919
    eigenvectors:
  0.334  0.118  0.548
  0.484  0.465  0.051
  0.182  0.417  0.401
    occupations:
  0.901  0.023  0.014
  0.023  0.892 -0.017
  0.014 -0.017  0.909
atomic mag. moment =     0.039887
atom    6   Tr[ns(na)] (up, down, total) =   2.74152  2.70163  5.44315
   spin  1
    eigenvalues: 
  0.843  0.947  0.951
    eigenvectors:
  0.337  0.000  0.663
  0.000  1.000  0.000
  0.663  0.000  0.337
    occupations:
  0.915  0.001 -0.051
  0.001  0.947  0.001
 -0.051  0.001  0.879
   spin  2
    eigenvalues: 
  0.863  0.919  0.919
    eigenvectors:
  0.334  0.118  0.548
  0.000  0.810  0.189
  0.666  0.071  0.263
    occupations:
  0.901  0.001 -0.026
  0.001  0.919  0.001
 -0.026  0.001  0.882
atomic mag. moment =     0.039887
atom    7   Tr[ns(na)] (up, down, total) =   2.74152  2.70163  5.44315
   spin  1
    eigenvalues: 
  0.843  0.947  0.951
    eigenvectors:
  0.337  0.000  0.663
  0.509  0.243  0.248
  0.154  0.757  0.089
    occupations:
  0.915 -0.045  0.025
 -0.045  0.895  0.029
  0.025  0.029  0.932
   spin  2
    eigenvalues: 
  0.863  0.919  0.919
    eigenvectors:
  0.334  0.118  0.548
  0.515  0.048  0.437
  0.151  0.834  0.015
    occupations:
  0.901 -0.023  0.013
 -0.023  0.890  0.016
  0.013  0.016  0.911
atomic mag. moment =     0.039887
atom    8   Tr[ns(na)] (up, down, total) =   2.74152  2.70163  5.44315
   spin  1
    eigenvalues: 
  0.843  0.947  0.951
    eigenvectors:
  0.337  0.000  0.663
  0.000  1.000  0.000
  0.663  0.000  0.337
    occupations:
  0.915  0.001 -0.051
  0.001  0.947  0.001
 -0.051  0.001  0.879
   spin  2
    eigenvalues: 
  0.863  0.919  0.919
    eigenvectors:
  0.334  0.118  0.548
  0.000  0.810  0.189
  0.666  0.071  0.263
    occupations:
  0.901  0.001 -0.026
  0.001  0.919  0.001
 -0.026  0.001  0.882
atomic mag. moment =     0.039887
atom    9   Tr[ns(na)] (up, down, total) =   2.74152  2.70163  5.44315
   spin  1
    eigenvalues: 
  0.843  0.947  0.951
    eigenvectors:
  0.337  0.000  0.663
  0.486  0.257  0.257
  0.177  0.743  0.080
    occupations:
  0.915  0.044  0.026
  0.044  0.898 -0.030
  0.026 -0.030  0.929
   spin  2
    eigenvalues: 
  0.863  0.919  0.919
    eigenvectors:
  0.334  0.118  0.548
  0.484  0.465  0.051
  0.182  0.417  0.401
    occupations:
  0.901  0.023  0.014
  0.023  0.892 -0.017
  0.014 -0.017  0.909
atomic mag. moment =     0.039887
atom   10   Tr[ns(na)] (up, down, total) =   2.74152  2.70163  5.44315
   spin  1
    eigenvalues: 
  0.843  0.947  0.951
    eigenvectors:
  0.337  0.000  0.663
  0.509  0.243  0.248
  0.154  0.757  0.089
    occupations:
  0.915 -0.045  0.025
 -0.045  0.895  0.029
  0.025  0.029  0.932
   spin  2
    eigenvalues: 
  0.863  0.919  0.919
    eigenvectors:
  0.334  0.118  0.548
  0.515  0.048  0.437
  0.151  0.834  0.015
    occupations:
  0.901 -0.023  0.013
 -0.023  0.890  0.016
  0.013  0.016  0.911
atomic mag. moment =     0.039887
N of occupied +U levels =  56.1458701
 --- exit write_ns ---
 --- in v_hubbard ---
Hubbard energy   -0.0877
 -------

     total cpu time spent up to now is      108.6 secs

     total energy              =    -538.44289986 Ry
     Harris-Foulkes estimate   =    -538.44281270 Ry
     estimated scf accuracy    <       0.00004119 Ry

     total magnetization       =     3.52 Bohr mag/cell
     absolute magnetization    =     3.67 Bohr mag/cell

     iteration #  4     ecut=    30.00 Ry     beta=0.20
     Davidson diagonalization with overlap
     ethr =  5.42E-08,  avg # of iterations =  4.0
 --- enter write_ns ---
 LDA+U parameters:
U( 1)     =  0.00000000
alpha( 1) = -0.15000000
U( 2)     =  0.00000000
alpha( 2) =  0.00000000
U( 3)     =  0.00000000
alpha( 3) =  0.00000000
U( 4)     =  0.00000000
alpha( 4) =  0.00000000
atom    1   Tr[ns(na)] (up, down, total) =   4.56255  3.40703  7.96958
   spin  1
    eigenvalues: 
  0.783  0.783  0.999  0.999  0.999
    eigenvectors:
  0.000  0.000  0.000  0.000  1.000
  0.422  0.225  0.055  0.298  0.000
  0.225  0.422  0.298  0.055  0.000
  0.346  0.008  0.556  0.090  0.000
  0.008  0.346  0.090  0.556  0.000
    occupations:
  0.999  0.000  0.000  0.000  0.000
  0.000  0.859  0.000 -0.073  0.073
  0.000  0.000  0.859  0.073  0.073
  0.000 -0.073  0.073  0.922  0.000
  0.000  0.073  0.073  0.000  0.922
   spin  2
    eigenvalues: 
  0.478  0.478  0.782  0.834  0.834
    eigenvectors:
  0.000  0.000  1.000  0.000  0.000
  0.278  0.362  0.000  0.032  0.328
  0.362  0.278  0.000  0.328  0.032
  0.279  0.082  0.000  0.477  0.163
  0.082  0.279  0.000  0.163  0.477
    occupations:
  0.782  0.000  0.000  0.000  0.000
  0.000  0.607  0.000 -0.038  0.166
  0.000  0.000  0.607  0.166  0.038
  0.000 -0.038  0.166  0.706  0.000
  0.000  0.166  0.038  0.000  0.706
atomic mag. moment =     1.155524
atom    2   Tr[ns(na)] (up, down, total) =   4.67432  3.21332  7.88763
   spin  1
    eigenvalues: 
  0.839  0.839  0.999  0.999  0.999
    eigenvectors:
  0.000  0.000  0.000  0.000  1.000
  0.643  0.003  0.325  0.029  0.000
  0.003  0.643  0.029  0.325  0.000
  0.153  0.201  0.499  0.147  0.000
  0.201  0.153  0.147  0.499  0.000
    occupations:
  0.999  0.000  0.000  0.000  0.000
  0.000  0.895  0.000  0.054  0.054
  0.000  0.000  0.895  0.054 -0.054
  0.000  0.054  0.054  0.942  0.000
  0.000  0.054 -0.054  0.000  0.942
   spin  2
    eigenvalues: 
  0.460  0.460  0.725  0.784  0.784
    eigenvectors:
  0.000  0.000  1.000  0.000  0.000
  0.504  0.131  0.000  0.188  0.177
  0.131  0.504  0.000  0.177  0.188
  0.022  0.343  0.000  0.447  0.188
  0.343  0.022  0.000  0.188  0.447
    occupations:
  0.725  0.000  0.000  0.000  0.000
  0.000  0.578  0.000  0.035  0.152
  0.000  0.000  0.578  0.152 -0.035
  0.000  0.035  0.152  0.666  0.000
  0.000  0.152 -0.035  0.000  0.666
atomic mag. moment =     1.460996
atom    3   Tr[ns(na)] (up, down, total) =   1.91396  1.89948  3.81344
   spin  1
    eigenvalues: 
  0.357  0.357  0.387  0.407  0.407
    eigenvectors:
  0.000  0.000  1.000  0.000  0.000
  0.787  0.137  0.000  0.011  0.065
  0.137  0.787  0.000  0.065  0.011
  0.012  0.064  0.000  0.785  0.139
  0.064  0.012  0.000  0.139  0.785
    occupations:
  0.387  0.000  0.000  0.000  0.000
  0.000  0.361  0.000  0.000  0.013
  0.000  0.000  0.361  0.013  0.000
  0.000  0.000  0.013  0.403  0.000
  0.000  0.013  0.000  0.000  0.403
   spin  2
    eigenvalues: 
  0.353  0.353  0.387  0.404  0.404
    eigenvectors:
  0.000  0.000  1.000  0.000  0.000
  0.766  0.145  0.000  0.013  0.077
  0.145  0.766  0.000  0.077  0.013
  0.015  0.074  0.000  0.767  0.143
  0.074  0.015  0.000  0.143  0.767
    occupations:
  0.387  0.000  0.000  0.000  0.000
  0.000  0.357  0.000  0.000  0.015
  0.000  0.000  0.357  0.015  0.000
  0.000  0.000  0.015  0.399  0.000
  0.000  0.015  0.000  0.000  0.399
atomic mag. moment =     0.014484
atom    4   Tr[ns(na)] (up, down, total) =   1.91396  1.89948  3.81344
   spin  1
    eigenvalues: 
  0.357  0.357  0.387  0.407  0.407
    eigenvectors:
  0.000  0.000  1.000  0.000  0.000
  0.787  0.137  0.000  0.011  0.065
  0.137  0.787  0.000  0.065  0.011
  0.012  0.064  0.000  0.785  0.139
  0.064  0.012  0.000  0.139  0.785
    occupations:
  0.387  0.000  0.000  0.000  0.000
  0.000  0.361  0.000  0.000  0.013
  0.000  0.000  0.361  0.013  0.000
  0.000  0.000  0.013  0.403  0.000
  0.000  0.013  0.000  0.000  0.403
   spin  2
    eigenvalues: 
  0.353  0.353  0.387  0.404  0.404
    eigenvectors:
  0.000  0.000  1.000  0.000  0.000
  0.765  0.145  0.000  0.013  0.077
  0.145  0.765  0.000  0.077  0.013
  0.016  0.074  0.000  0.767  0.143
  0.074  0.016  0.000  0.143  0.767
    occupations:
  0.387  0.000  0.000  0.000  0.000
  0.000  0.357  0.000  0.000  0.015
  0.000  0.000  0.357  0.015  0.000
  0.000  0.000  0.015  0.399  0.000
  0.000  0.015  0.000  0.000  0.399
atomic mag. moment =     0.014484
atom    5   Tr[ns(na)] (up, down, total) =   2.74170  2.70192  5.44361
   spin  1
    eigenvalues: 
  0.843  0.947  0.951
    eigenvectors:
  0.337  0.000  0.663
  0.486  0.257  0.257
  0.177  0.743  0.080
    occupations:
  0.915  0.044  0.026
  0.044  0.898 -0.030
  0.026 -0.030  0.929
   spin  2
    eigenvalues: 
  0.863  0.919  0.919
    eigenvectors:
  0.333  0.089  0.577
  0.483  0.447  0.070
  0.184  0.464  0.352
    occupations:
  0.901  0.022  0.014
  0.022  0.892 -0.017
  0.014 -0.017  0.909
atomic mag. moment =     0.039779
atom    6   Tr[ns(na)] (up, down, total) =   2.74170  2.70192  5.44361
   spin  1
    eigenvalues: 
  0.843  0.947  0.951
    eigenvectors:
  0.337  0.000  0.663
  0.000  1.000  0.000
  0.663  0.000  0.337
    occupations:
  0.915  0.001 -0.051
  0.001  0.947  0.001
 -0.051  0.001  0.880
   spin  2
    eigenvalues: 
  0.863  0.919  0.919
    eigenvectors:
  0.333  0.089  0.577
  0.001  0.854  0.146
  0.666  0.057  0.277
    occupations:
  0.901  0.001 -0.026
  0.001  0.919  0.001
 -0.026  0.001  0.882
atomic mag. moment =     0.039779
atom    7   Tr[ns(na)] (up, down, total) =   2.74170  2.70192  5.44361
   spin  1
    eigenvalues: 
  0.843  0.947  0.951
    eigenvectors:
  0.337  0.000  0.663
  0.509  0.243  0.248
  0.154  0.757  0.089
    occupations:
  0.915 -0.045  0.025
 -0.045  0.895  0.029
  0.025  0.029  0.932
   spin  2
    eigenvalues: 
  0.863  0.919  0.919
    eigenvectors:
  0.333  0.089  0.577
  0.517  0.065  0.418
  0.150  0.845  0.005
    occupations:
  0.901 -0.023  0.013
 -0.023  0.890  0.016
  0.013  0.016  0.911
atomic mag. moment =     0.039779
atom    8   Tr[ns(na)] (up, down, total) =   2.74170  2.70192  5.44361
   spin  1
    eigenvalues: 
  0.843  0.947  0.951
    eigenvectors:
  0.337  0.000  0.663
  0.000  1.000  0.000
  0.663  0.000  0.337
    occupations:
  0.915  0.001 -0.051
  0.001  0.947  0.001
 -0.051  0.001  0.880
   spin  2
    eigenvalues: 
  0.863  0.919  0.919
    eigenvectors:
  0.333  0.089  0.577
  0.001  0.854  0.146
  0.666  0.057  0.277
    occupations:
  0.901  0.001 -0.026
  0.001  0.919  0.001
 -0.026  0.001  0.882
atomic mag. moment =     0.039779
atom    9   Tr[ns(na)] (up, down, total) =   2.74170  2.70192  5.44361
   spin  1
    eigenvalues: 
  0.843  0.947  0.951
    eigenvectors:
  0.337  0.000  0.663
  0.486  0.257  0.257
  0.177  0.743  0.080
    occupations:
  0.915  0.044  0.026
  0.044  0.898 -0.030
  0.026 -0.030  0.929
   spin  2
    eigenvalues: 
  0.863  0.919  0.919
    eigenvectors:
  0.333  0.089  0.577
  0.483  0.447  0.070
  0.184  0.464  0.352
    occupations:
  0.901  0.022  0.014
  0.022  0.892 -0.017
  0.014 -0.017  0.909
atomic mag. moment =     0.039779
atom   10   Tr[ns(na)] (up, down, total) =   2.74170  2.70192  5.44361
   spin  1
    eigenvalues: 
  0.843  0.947  0.951
    eigenvectors:
  0.337  0.000  0.663
  0.509  0.243  0.248
  0.154  0.757  0.089
    occupations:
  0.915 -0.045  0.025
 -0.045  0.895  0.029
  0.025  0.029  0.932
   spin  2
    eigenvalues: 
  0.863  0.919  0.919
    eigenvectors:
  0.333  0.089  0.577
  0.517  0.065  0.418
  0.150  0.845  0.005
    occupations:
  0.901 -0.023  0.013
 -0.023  0.890  0.016
  0.013  0.016  0.911
atomic mag. moment =     0.039779
N of occupied +U levels =  56.1457613
 --- exit write_ns ---
 --- in v_hubbard ---
Hubbard energy   -0.0877
 -------

     total cpu time spent up to now is      142.6 secs

     total energy              =    -538.44298944 Ry
     Harris-Foulkes estimate   =    -538.44293537 Ry
     estimated scf accuracy    <       0.00017013 Ry

     total magnetization       =     3.52 Bohr mag/cell
     absolute magnetization    =     3.67 Bohr mag/cell

     iteration #  5     ecut=    30.00 Ry     beta=0.20
     Davidson diagonalization with overlap
     ethr =  5.42E-08,  avg # of iterations =  1.4
 --- enter write_ns ---
 LDA+U parameters:
U( 1)     =  0.00000000
alpha( 1) = -0.15000000
U( 2)     =  0.00000000
alpha( 2) =  0.00000000
U( 3)     =  0.00000000
alpha( 3) =  0.00000000
U( 4)     =  0.00000000
alpha( 4) =  0.00000000
atom    1   Tr[ns(na)] (up, down, total) =   4.55931  3.40174  7.96105
   spin  1
    eigenvalues: 
  0.782  0.782  0.999  0.999  0.999
    eigenvectors:
  0.000  0.000  0.000  0.000  1.000
  0.422  0.225  0.055  0.299  0.000
  0.225  0.422  0.299  0.055  0.000
  0.345  0.008  0.556  0.090  0.000
  0.008  0.345  0.090  0.556  0.000
    occupations:
  0.999  0.000  0.000  0.000  0.000
  0.000  0.858  0.000 -0.074  0.073
  0.000  0.000  0.858  0.073  0.074
  0.000 -0.074  0.073  0.922  0.000
  0.000  0.073  0.074  0.000  0.922
   spin  2
    eigenvalues: 
  0.479  0.479  0.780  0.832  0.832
    eigenvectors:
  0.000  0.000  1.000  0.000  0.000
  0.278  0.362  0.000  0.033  0.327
  0.362  0.278  0.000  0.327  0.033
  0.278  0.082  0.000  0.477  0.163
  0.082  0.278  0.000  0.163  0.477
    occupations:
  0.780  0.000  0.000  0.000  0.000
  0.000  0.606  0.000 -0.037  0.165
  0.000  0.000  0.606  0.165  0.037
  0.000 -0.037  0.165  0.705  0.000
  0.000  0.165  0.037  0.000  0.705
atomic mag. moment =     1.157565
atom    2   Tr[ns(na)] (up, down, total) =   4.67732  3.22446  7.90178
   spin  1
    eigenvalues: 
  0.840  0.840  0.999  0.999  0.999
    eigenvectors:
  0.000  0.000  0.000  0.000  1.000
  0.643  0.003  0.325  0.029  0.000
  0.003  0.643  0.029  0.325  0.000
  0.153  0.201  0.499  0.147  0.000
  0.201  0.153  0.147  0.499  0.000
    occupations:
  0.999  0.000  0.000  0.000  0.000
  0.000  0.896  0.000  0.054  0.054
  0.000  0.000  0.896  0.054 -0.054
  0.000  0.054  0.054  0.943  0.000
  0.000  0.054 -0.054  0.000  0.943
   spin  2
    eigenvalues: 
  0.461  0.461  0.729  0.787  0.787
    eigenvectors:
  0.000  0.000  1.000  0.000  0.000
  0.506  0.129  0.000  0.188  0.176
  0.129  0.506  0.000  0.176  0.188
  0.021  0.344  0.000  0.447  0.188
  0.344  0.021  0.000  0.188  0.447
    occupations:
  0.729  0.000  0.000  0.000  0.000
  0.000  0.580  0.000  0.035  0.153
  0.000  0.000  0.580  0.153 -0.035
  0.000  0.035  0.153  0.668  0.000
  0.000  0.153 -0.035  0.000  0.668
atomic mag. moment =     1.452858
atom    3   Tr[ns(na)] (up, down, total) =   1.91408  1.89956  3.81364
   spin  1
    eigenvalues: 
  0.357  0.357  0.387  0.407  0.407
    eigenvectors:
  0.000  0.000  1.000  0.000  0.000
  0.787  0.137  0.000  0.011  0.065
  0.137  0.787  0.000  0.065  0.011
  0.012  0.064  0.000  0.785  0.139
  0.064  0.012  0.000  0.139  0.785
    occupations:
  0.387  0.000  0.000  0.000  0.000
  0.000  0.361  0.000  0.000  0.013
  0.000  0.000  0.361  0.013  0.000
  0.000  0.000  0.013  0.403  0.000
  0.000  0.013  0.000  0.000  0.403
   spin  2
    eigenvalues: 
  0.353  0.353  0.387  0.404  0.404
    eigenvectors:
  0.000  0.000  1.000  0.000  0.000
  0.766  0.144  0.000  0.013  0.077
  0.144  0.766  0.000  0.077  0.013
  0.015  0.074  0.000  0.767  0.143
  0.074  0.015  0.000  0.143  0.767
    occupations:
  0.387  0.000  0.000  0.000  0.000
  0.000  0.357  0.000  0.000  0.015
  0.000  0.000  0.357  0.015  0.000
  0.000  0.000  0.015  0.399  0.000
  0.000  0.015  0.000  0.000  0.399
atomic mag. moment =     0.014524
atom    4   Tr[ns(na)] (up, down, total) =   1.91408  1.89956  3.81364
   spin  1
    eigenvalues: 
  0.357  0.357  0.387  0.407  0.407
    eigenvectors:
  0.000  0.000  1.000  0.000  0.000
  0.787  0.137  0.000  0.011  0.065
  0.137  0.787  0.000  0.065  0.011
  0.012  0.064  0.000  0.785  0.139
  0.064  0.012  0.000  0.139  0.785
    occupations:
  0.387  0.000  0.000  0.000  0.000
  0.000  0.361  0.000  0.000  0.013
  0.000  0.000  0.361  0.013  0.000
  0.000  0.000  0.013  0.403  0.000
  0.000  0.013  0.000  0.000  0.403
   spin  2
    eigenvalues: 
  0.353  0.353  0.387  0.404  0.404
    eigenvectors:
  0.000  0.000  1.000  0.000  0.000
  0.766  0.144  0.000  0.013  0.077
  0.144  0.766  0.000  0.077  0.013
  0.015  0.074  0.000  0.768  0.143
  0.074  0.015  0.000  0.143  0.768
    occupations:
  0.387  0.000  0.000  0.000  0.000
  0.000  0.357  0.000  0.000  0.015
  0.000  0.000  0.357  0.015  0.000
  0.000  0.000  0.015  0.399  0.000
  0.000  0.015  0.000  0.000  0.399
atomic mag. moment =     0.014524
atom    5   Tr[ns(na)] (up, down, total) =   2.74139  2.70139  5.44278
   spin  1
    eigenvalues: 
  0.843  0.947  0.951
    eigenvectors:
  0.337  0.000  0.663
  0.485  0.257  0.258
  0.178  0.742  0.079
    occupations:
  0.915  0.044  0.026
  0.044  0.898 -0.030
  0.026 -0.030  0.929
   spin  2
    eigenvalues: 
  0.863  0.919  0.919
    eigenvectors:
  0.334  0.077  0.589
  0.484  0.435  0.081
  0.183  0.487  0.330
    occupations:
  0.900  0.023  0.014
  0.023  0.892 -0.017
  0.014 -0.017  0.909
atomic mag. moment =     0.040000
atom    6   Tr[ns(na)] (up, down, total) =   2.74139  2.70139  5.44278
   spin  1
    eigenvalues: 
  0.843  0.947  0.951
    eigenvectors:
  0.337  0.000  0.663
  0.000  1.000  0.000
  0.663  0.000  0.337
    occupations:
  0.915  0.001 -0.051
  0.001  0.947  0.001
 -0.051  0.001  0.879
   spin  2
    eigenvalues: 
  0.863  0.919  0.919
    eigenvectors:
  0.334  0.077  0.589
  0.001  0.873  0.126
  0.666  0.049  0.285
    occupations:
  0.900  0.001 -0.026
  0.001  0.919  0.001
 -0.026  0.001  0.882
atomic mag. moment =     0.040000
atom    7   Tr[ns(na)] (up, down, total) =   2.74139  2.70139  5.44278
   spin  1
    eigenvalues: 
  0.843  0.947  0.951
    eigenvectors:
  0.337  0.000  0.663
  0.509  0.243  0.248
  0.154  0.757  0.089
    occupations:
  0.915 -0.045  0.025
 -0.045  0.895  0.029
  0.025  0.029  0.932
   spin  2
    eigenvalues: 
  0.863  0.919  0.919
    eigenvectors:
  0.334  0.077  0.589
  0.515  0.075  0.409
  0.151  0.847  0.002
    occupations:
  0.900 -0.023  0.013
 -0.023  0.890  0.016
  0.013  0.016  0.911
atomic mag. moment =     0.040000
atom    8   Tr[ns(na)] (up, down, total) =   2.74139  2.70139  5.44278
   spin  1
    eigenvalues: 
  0.843  0.947  0.951
    eigenvectors:
  0.337  0.000  0.663
  0.000  1.000  0.000
  0.663  0.000  0.337
    occupations:
  0.915  0.001 -0.051
  0.001  0.947  0.001
 -0.051  0.001  0.879
   spin  2
    eigenvalues: 
  0.863  0.919  0.919
    eigenvectors:
  0.334  0.077  0.589
  0.001  0.873  0.126
  0.666  0.049  0.285
    occupations:
  0.900  0.001 -0.026
  0.001  0.919  0.001
 -0.026  0.001  0.882
atomic mag. moment =     0.040000
atom    9   Tr[ns(na)] (up, down, total) =   2.74139  2.70139  5.44278
   spin  1
    eigenvalues: 
  0.843  0.947  0.951
    eigenvectors:
  0.337  0.000  0.663
  0.485  0.257  0.258
  0.178  0.742  0.079
    occupations:
  0.915  0.044  0.026
  0.044  0.898 -0.030
  0.026 -0.030  0.929
   spin  2
    eigenvalues: 
  0.863  0.919  0.919
    eigenvectors:
  0.334  0.077  0.589
  0.484  0.435  0.081
  0.183  0.487  0.330
    occupations:
  0.900  0.023  0.014
  0.023  0.892 -0.017
  0.014 -0.017  0.909
atomic mag. moment =     0.040000
atom   10   Tr[ns(na)] (up, down, total) =   2.74139  2.70139  5.44278
   spin  1
    eigenvalues: 
  0.843  0.947  0.951
    eigenvectors:
  0.337  0.000  0.663
  0.509  0.243  0.248
  0.154  0.757  0.089
    occupations:
  0.915 -0.045  0.025
 -0.045  0.895  0.029
  0.025  0.029  0.932
   spin  2
    eigenvalues: 
  0.863  0.919  0.919
    eigenvectors:
  0.334  0.077  0.589
  0.515  0.075  0.409
  0.151  0.847  0.002
    occupations:
  0.900 -0.023  0.013
 -0.023  0.890  0.016
  0.013  0.016  0.911
atomic mag. moment =     0.040000
N of occupied +U levels =  56.1467492
 --- exit write_ns ---
 --- in v_hubbard ---
Hubbard energy   -0.0878
 -------

     total cpu time spent up to now is      170.2 secs

     total energy              =    -538.44303293 Ry
     Harris-Foulkes estimate   =    -538.44299836 Ry
     estimated scf accuracy    <       0.00005089 Ry

     total magnetization       =     3.51 Bohr mag/cell
     absolute magnetization    =     3.67 Bohr mag/cell

     iteration #  6     ecut=    30.00 Ry     beta=0.20
     Davidson diagonalization with overlap
     ethr =  5.42E-08,  avg # of iterations =  1.5
 --- enter write_ns ---
 LDA+U parameters:
U( 1)     =  0.00000000
alpha( 1) = -0.15000000
U( 2)     =  0.00000000
alpha( 2) =  0.00000000
U( 3)     =  0.00000000
alpha( 3) =  0.00000000
U( 4)     =  0.00000000
alpha( 4) =  0.00000000
atom    1   Tr[ns(na)] (up, down, total) =   4.55464  3.40872  7.96336
   spin  1
    eigenvalues: 
  0.779  0.779  0.999  0.999  0.999
    eigenvectors:
  0.000  0.000  0.000  0.000  1.000
  0.422  0.225  0.055  0.299  0.000
  0.225  0.422  0.299  0.055  0.000
  0.345  0.008  0.556  0.090  0.000
  0.008  0.345  0.090  0.556  0.000
    occupations:
  0.999  0.000  0.000  0.000  0.000
  0.000  0.857  0.000 -0.074  0.074
  0.000  0.000  0.857  0.074  0.074
  0.000 -0.074  0.074  0.921  0.000
  0.000  0.074  0.074  0.000  0.921
   spin  2
    eigenvalues: 
  0.479  0.479  0.783  0.834  0.834
    eigenvectors:
  0.000  0.000  1.000  0.000  0.000
  0.278  0.362  0.000  0.033  0.327
  0.362  0.278  0.000  0.327  0.033
  0.279  0.082  0.000  0.477  0.163
  0.082  0.279  0.000  0.163  0.477
    occupations:
  0.783  0.000  0.000  0.000  0.000
  0.000  0.607  0.000 -0.038  0.166
  0.000  0.000  0.607  0.166  0.038
  0.000 -0.038  0.166  0.706  0.000
  0.000  0.166  0.038  0.000  0.706
atomic mag. moment =     1.145925
atom    2   Tr[ns(na)] (up, down, total) =   4.67867  3.21755  7.89622
   spin  1
    eigenvalues: 
  0.841  0.841  0.999  0.999  0.999
    eigenvectors:
  0.000  0.000  0.000  0.000  1.000
  0.643  0.003  0.325  0.029  0.000
  0.003  0.643  0.029  0.325  0.000
  0.153  0.201  0.499  0.147  0.000
  0.201  0.153  0.147  0.499  0.000
    occupations:
  0.999  0.000  0.000  0.000  0.000
  0.000  0.897  0.000  0.053  0.053
  0.000  0.000  0.897  0.053 -0.053
  0.000  0.053  0.053  0.943  0.000
  0.000  0.053 -0.053  0.000  0.943
   spin  2
    eigenvalues: 
  0.460  0.460  0.727  0.785  0.785
    eigenvectors:
  0.000  0.000  1.000  0.000  0.000
  0.503  0.132  0.000  0.188  0.177
  0.132  0.503  0.000  0.177  0.188
  0.022  0.343  0.000  0.447  0.188
  0.343  0.022  0.000  0.188  0.447
    occupations:
  0.727  0.000  0.000  0.000  0.000
  0.000  0.579  0.000  0.035  0.153
  0.000  0.000  0.579  0.153 -0.035
  0.000  0.035  0.153  0.667  0.000
  0.000  0.153 -0.035  0.000  0.667
atomic mag. moment =     1.461124
atom    3   Tr[ns(na)] (up, down, total) =   1.91415  1.89974  3.81389
   spin  1
    eigenvalues: 
  0.357  0.357  0.387  0.407  0.407
    eigenvectors:
  0.000  0.000  1.000  0.000  0.000
  0.787  0.137  0.000  0.011  0.065
  0.137  0.787  0.000  0.065  0.011
  0.012  0.064  0.000  0.785  0.139
  0.064  0.012  0.000  0.139  0.785
    occupations:
  0.387  0.000  0.000  0.000  0.000
  0.000  0.361  0.000  0.000  0.013
  0.000  0.000  0.361  0.013  0.000
  0.000  0.000  0.013  0.403  0.000
  0.000  0.013  0.000  0.000  0.403
   spin  2
    eigenvalues: 
  0.353  0.353  0.387  0.404  0.404
    eigenvectors:
  0.000  0.000  1.000  0.000  0.000
  0.765  0.145  0.000  0.013  0.077
  0.145  0.765  0.000  0.077  0.013
  0.015  0.074  0.000  0.767  0.143
  0.074  0.015  0.000  0.143  0.767
    occupations:
  0.387  0.000  0.000  0.000  0.000
  0.000  0.357  0.000  0.000  0.015
  0.000  0.000  0.357  0.015  0.000
  0.000  0.000  0.015  0.399  0.000
  0.000  0.015  0.000  0.000  0.399
atomic mag. moment =     0.014413
atom    4   Tr[ns(na)] (up, down, total) =   1.91415  1.89974  3.81389
   spin  1
    eigenvalues: 
  0.357  0.357  0.387  0.407  0.407
    eigenvectors:
  0.000  0.000  1.000  0.000  0.000
  0.787  0.137  0.000  0.011  0.065
  0.137  0.787  0.000  0.065  0.011
  0.012  0.064  0.000  0.785  0.139
  0.064  0.012  0.000  0.139  0.785
    occupations:
  0.387  0.000  0.000  0.000  0.000
  0.000  0.361  0.000  0.000  0.013
  0.000  0.000  0.361  0.013  0.000
  0.000  0.000  0.013  0.403  0.000
  0.000  0.013  0.000  0.000  0.403
   spin  2
    eigenvalues: 
  0.353  0.353  0.387  0.404  0.404
    eigenvectors:
  0.000  0.000  1.000  0.000  0.000
  0.766  0.145  0.000  0.013  0.077
  0.145  0.766  0.000  0.077  0.013
  0.015  0.074  0.000  0.767  0.143
  0.074  0.015  0.000  0.143  0.767
    occupations:
  0.387  0.000  0.000  0.000  0.000
  0.000  0.357  0.000  0.000  0.015
  0.000  0.000  0.357  0.015  0.000
  0.000  0.000  0.015  0.399  0.000
  0.000  0.015  0.000  0.000  0.399
atomic mag. moment =     0.014413
atom    5   Tr[ns(na)] (up, down, total) =   2.74164  2.70163  5.44327
   spin  1
    eigenvalues: 
  0.843  0.947  0.951
    eigenvectors:
  0.337  0.000  0.663
  0.485  0.257  0.258
  0.179  0.742  0.079
    occupations:
  0.915  0.044  0.026
  0.044  0.898 -0.030
  0.026 -0.030  0.929
   spin  2
    eigenvalues: 
  0.863  0.919  0.919
    eigenvectors:
  0.334  0.050  0.617
  0.483  0.409  0.108
  0.184  0.541  0.275
    occupations:
  0.901  0.023  0.014
  0.023  0.892 -0.017
  0.014 -0.017  0.909
atomic mag. moment =     0.040006
atom    6   Tr[ns(na)] (up, down, total) =   2.74164  2.70163  5.44327
   spin  1
    eigenvalues: 
  0.843  0.947  0.951
    eigenvectors:
  0.337  0.000  0.663
  0.000  1.000  0.000
  0.663  0.000  0.337
    occupations:
  0.915  0.001 -0.051
  0.001  0.947  0.002
 -0.051  0.002  0.880
   spin  2
    eigenvalues: 
  0.863  0.919  0.919
    eigenvectors:
  0.334  0.050  0.617
  0.001  0.916  0.084
  0.666  0.035  0.299
    occupations:
  0.901  0.001 -0.026
  0.001  0.919  0.001
 -0.026  0.001  0.882
atomic mag. moment =     0.040006
atom    7   Tr[ns(na)] (up, down, total) =   2.74164  2.70163  5.44327
   spin  1
    eigenvalues: 
  0.843  0.947  0.951
    eigenvectors:
  0.337  0.000  0.663
  0.510  0.242  0.248
  0.153  0.757  0.089
    occupations:
  0.915 -0.045  0.025
 -0.045  0.895  0.029
  0.025  0.029  0.932
   spin  2
    eigenvalues: 
  0.863  0.919  0.919
    eigenvectors:
  0.334  0.050  0.617
  0.516  0.101  0.383
  0.150  0.849  0.001
    occupations:
  0.901 -0.023  0.013
 -0.023  0.890  0.016
  0.013  0.016  0.911
atomic mag. moment =     0.040006
atom    8   Tr[ns(na)] (up, down, total) =   2.74164  2.70163  5.44327
   spin  1
    eigenvalues: 
  0.843  0.947  0.951
    eigenvectors:
  0.337  0.000  0.663
  0.000  1.000  0.000
  0.663  0.000  0.337
    occupations:
  0.915  0.001 -0.051
  0.001  0.947  0.002
 -0.051  0.002  0.880
   spin  2
    eigenvalues: 
  0.863  0.919  0.919
    eigenvectors:
  0.334  0.050  0.617
  0.001  0.916  0.084
  0.666  0.035  0.299
    occupations:
  0.901  0.001 -0.026
  0.001  0.919  0.001
 -0.026  0.001  0.882
atomic mag. moment =     0.040006
atom    9   Tr[ns(na)] (up, down, total) =   2.74164  2.70163  5.44327
   spin  1
    eigenvalues: 
  0.843  0.947  0.951
    eigenvectors:
  0.337  0.000  0.663
  0.485  0.257  0.258
  0.179  0.742  0.079
    occupations:
  0.915  0.044  0.026
  0.044  0.898 -0.030
  0.026 -0.030  0.929
   spin  2
    eigenvalues: 
  0.863  0.919  0.919
    eigenvectors:
  0.334  0.050  0.617
  0.483  0.409  0.108
  0.184  0.541  0.275
    occupations:
  0.901  0.023  0.014
  0.023  0.892 -0.017
  0.014 -0.017  0.909
atomic mag. moment =     0.040006
atom   10   Tr[ns(na)] (up, down, total) =   2.74164  2.70163  5.44327
   spin  1
    eigenvalues: 
  0.843  0.947  0.951
    eigenvectors:
  0.337  0.000  0.663
  0.510  0.242  0.248
  0.153  0.757  0.089
    occupations:
  0.915 -0.045  0.025
 -0.045  0.895  0.029
  0.025  0.029  0.932
   spin  2
    eigenvalues: 
  0.863  0.919  0.919
    eigenvectors:
  0.334  0.050  0.617
  0.516  0.101  0.383
  0.150  0.849  0.001
    occupations:
  0.901 -0.023  0.013
 -0.023  0.890  0.016
  0.013  0.016  0.911
atomic mag. moment =     0.040006
N of occupied +U levels =  56.1469989
 --- exit write_ns ---
 --- in v_hubbard ---
Hubbard energy   -0.0879
 -------

     total cpu time spent up to now is      196.0 secs

     total energy              =    -538.44306598 Ry
     Harris-Foulkes estimate   =    -538.44304036 Ry
     estimated scf accuracy    <       0.00001331 Ry

     total magnetization       =     3.51 Bohr mag/cell
     absolute magnetization    =     3.66 Bohr mag/cell

     iteration #  7     ecut=    30.00 Ry     beta=0.20
     Davidson diagonalization with overlap
     ethr =  1.75E-08,  avg # of iterations =  2.0
 --- enter write_ns ---
 LDA+U parameters:
U( 1)     =  0.00000000
alpha( 1) = -0.15000000
U( 2)     =  0.00000000
alpha( 2) =  0.00000000
U( 3)     =  0.00000000
alpha( 3) =  0.00000000
U( 4)     =  0.00000000
alpha( 4) =  0.00000000
atom    1   Tr[ns(na)] (up, down, total) =   4.55079  3.41717  7.96796
   spin  1
    eigenvalues: 
  0.777  0.777  0.999  0.999  0.999
    eigenvectors:
  0.000  0.000  0.000  0.000  1.000
  0.422  0.225  0.055  0.299  0.000
  0.225  0.422  0.299  0.055  0.000
  0.345  0.008  0.556  0.090  0.000
  0.008  0.345  0.090  0.556  0.000
    occupations:
  0.999  0.000  0.000  0.000  0.000
  0.000  0.856  0.000 -0.075  0.075
  0.000  0.000  0.856  0.075  0.075
  0.000 -0.075  0.075  0.920  0.000
  0.000  0.075  0.075  0.000  0.920
   spin  2
    eigenvalues: 
  0.480  0.480  0.785  0.836  0.836
    eigenvectors:
  0.000  0.000  1.000  0.000  0.000
  0.278  0.362  0.000  0.033  0.327
  0.362  0.278  0.000  0.327  0.033
  0.278  0.082  0.000  0.477  0.163
  0.082  0.278  0.000  0.163  0.477
    occupations:
  0.785  0.000  0.000  0.000  0.000
  0.000  0.608  0.000 -0.038  0.167
  0.000  0.000  0.608  0.167  0.038
  0.000 -0.038  0.167  0.708  0.000
  0.000  0.167  0.038  0.000  0.708
atomic mag. moment =     1.133620
atom    2   Tr[ns(na)] (up, down, total) =   4.68017  3.21114  7.89131
   spin  1
    eigenvalues: 
  0.842  0.842  0.999  0.999  0.999
    eigenvectors:
  0.000  0.000  0.000  0.000  1.000
  0.643  0.003  0.325  0.029  0.000
  0.003  0.643  0.029  0.325  0.000
  0.153  0.201  0.499  0.147  0.000
  0.201  0.153  0.147  0.499  0.000
    occupations:
  0.999  0.000  0.000  0.000  0.000
  0.000  0.897  0.000  0.053  0.053
  0.000  0.000  0.897  0.053 -0.053
  0.000  0.053  0.053  0.943  0.000
  0.000  0.053 -0.053  0.000  0.943
   spin  2
    eigenvalues: 
  0.460  0.460  0.724  0.783  0.783
    eigenvectors:
  0.000  0.000  1.000  0.000  0.000
  0.498  0.137  0.000  0.188  0.178
  0.137  0.498  0.000  0.178  0.188
  0.024  0.341  0.000  0.446  0.189
  0.341  0.024  0.000  0.189  0.446
    occupations:
  0.724  0.000  0.000  0.000  0.000
  0.000  0.578  0.000  0.034  0.152
  0.000  0.000  0.578  0.152 -0.034
  0.000  0.034  0.152  0.665  0.000
  0.000  0.152 -0.034  0.000  0.665
atomic mag. moment =     1.469029
atom    3   Tr[ns(na)] (up, down, total) =   1.91415  1.89979  3.81394
   spin  1
    eigenvalues: 
  0.357  0.357  0.387  0.407  0.407
    eigenvectors:
  0.000  0.000  1.000  0.000  0.000
  0.787  0.137  0.000  0.011  0.065
  0.137  0.787  0.000  0.065  0.011
  0.012  0.064  0.000  0.785  0.139
  0.064  0.012  0.000  0.139  0.785
    occupations:
  0.387  0.000  0.000  0.000  0.000
  0.000  0.361  0.000  0.000  0.013
  0.000  0.000  0.361  0.013  0.000
  0.000  0.000  0.013  0.403  0.000
  0.000  0.013  0.000  0.000  0.403
   spin  2
    eigenvalues: 
  0.353  0.353  0.387  0.404  0.404
    eigenvectors:
  0.000  0.000  1.000  0.000  0.000
  0.765  0.145  0.000  0.013  0.077
  0.145  0.765  0.000  0.077  0.013
  0.016  0.074  0.000  0.768  0.143
  0.074  0.016  0.000  0.143  0.768
    occupations:
  0.387  0.000  0.000  0.000  0.000
  0.000  0.357  0.000  0.000  0.015
  0.000  0.000  0.357  0.015  0.000
  0.000  0.000  0.015  0.399  0.000
  0.000  0.015  0.000  0.000  0.399
atomic mag. moment =     0.014361
atom    4   Tr[ns(na)] (up, down, total) =   1.91415  1.89979  3.81394
   spin  1
    eigenvalues: 
  0.357  0.357  0.387  0.407  0.407
    eigenvectors:
  0.000  0.000  1.000  0.000  0.000
  0.787  0.137  0.000  0.011  0.065
  0.137  0.787  0.000  0.065  0.011
  0.012  0.064  0.000  0.785  0.139
  0.064  0.012  0.000  0.139  0.785
    occupations:
  0.387  0.000  0.000  0.000  0.000
  0.000  0.361  0.000  0.000  0.013
  0.000  0.000  0.361  0.013  0.000
  0.000  0.000  0.013  0.403  0.000
  0.000  0.013  0.000  0.000  0.403
   spin  2
    eigenvalues: 
  0.353  0.353  0.387  0.404  0.404
    eigenvectors:
  0.000  0.000  1.000  0.000  0.000
  0.765  0.145  0.000  0.013  0.077
  0.145  0.765  0.000  0.077  0.013
  0.016  0.074  0.000  0.767  0.143
  0.074  0.016  0.000  0.143  0.767
    occupations:
  0.387  0.000  0.000  0.000  0.000
  0.000  0.357  0.000  0.000  0.015
  0.000  0.000  0.357  0.015  0.000
  0.000  0.000  0.015  0.399  0.000
  0.000  0.015  0.000  0.000  0.399
atomic mag. moment =     0.014361
atom    5   Tr[ns(na)] (up, down, total) =   2.74173  2.70164  5.44337
   spin  1
    eigenvalues: 
  0.843  0.947  0.951
    eigenvectors:
  0.337  0.000  0.663
  0.485  0.258  0.258
  0.179  0.742  0.079
    occupations:
  0.915  0.044  0.026
  0.044  0.898 -0.030
  0.026 -0.030  0.929
   spin  2
    eigenvalues: 
  0.863  0.919  0.919
    eigenvectors:
  0.334  0.038  0.629
  0.481  0.395  0.123
  0.185  0.567  0.248
    occupations:
  0.901  0.023  0.014
  0.023  0.892 -0.017
  0.014 -0.017  0.909
atomic mag. moment =     0.040090
atom    6   Tr[ns(na)] (up, down, total) =   2.74173  2.70164  5.44337
   spin  1
    eigenvalues: 
  0.843  0.947  0.951
    eigenvectors:
  0.337  0.000  0.663
  0.000  1.000  0.000
  0.663  0.000  0.337
    occupations:
  0.915  0.001 -0.051
  0.001  0.947  0.002
 -0.051  0.002  0.880
   spin  2
    eigenvalues: 
  0.863  0.919  0.919
    eigenvectors:
  0.334  0.038  0.629
  0.001  0.934  0.066
  0.666  0.028  0.306
    occupations:
  0.901  0.001 -0.027
  0.001  0.919  0.001
 -0.027  0.001  0.882
atomic mag. moment =     0.040090
atom    7   Tr[ns(na)] (up, down, total) =   2.74173  2.70164  5.44337
   spin  1
    eigenvalues: 
  0.843  0.947  0.951
    eigenvectors:
  0.337  0.000  0.663
  0.510  0.242  0.247
  0.153  0.757  0.090
    occupations:
  0.915 -0.045  0.025
 -0.045  0.895  0.029
  0.025  0.029  0.932
   spin  2
    eigenvalues: 
[...]
     0.0937   0.0937   0.0937   0.0937   0.0937   0.0937   0.0936   0.0868
     0.0057   0.0000   0.0000   0.0000   0.0000   0.0000

          k = 0.4942-0.5706-0.2053 (  2206 PWs)   bands (ev):

   -19.6777 -19.6777  -6.8673  -6.8663  -6.0165  -6.0146  -5.4141  -5.4104
    -3.1231  -3.1227  -2.7813  -2.7810  -2.3557  -2.3540   5.9093   5.9449
     6.7767   6.8341   6.8735   6.8934   7.3515   7.3532   7.8572   7.9387
     8.7474   8.7597   8.8648   8.8749   9.4684   9.4952   9.9618   9.9923
    10.5862  10.6610  10.7692  10.9022  11.0807  11.1600  11.4188  11.4958
    13.3050  13.3725  17.4290  17.4299  17.8786  17.8806

     occupation numbers 
     0.0938   0.0938   0.0938   0.0938   0.0938   0.0938   0.0938   0.0938
     0.0938   0.0938   0.0938   0.0938   0.0938   0.0938   0.0938   0.0938
     0.0938   0.0938   0.0938   0.0938   0.0938   0.0938   0.0938   0.0938
     0.0938   0.0938   0.0938   0.0938   0.0938   0.0938   0.0937   0.0937
     0.0937   0.0937   0.0937   0.0937   0.0937   0.0937   0.0936   0.0934
     0.0000   0.0000   0.0000   0.0000   0.0000   0.0000

          k = 0.0000 0.0000-0.6160 (  2186 PWs)   bands (ev):

   -19.6801 -19.6788  -6.4954  -6.4862  -5.9247  -5.9247  -5.9159  -5.9159
    -2.8597  -2.8597  -2.8559  -2.8559  -2.6827  -2.6826   6.2781   6.2929
     6.8837   6.8837   6.9883   6.9883   7.6405   7.6953   7.8156   7.8156
     7.8793   7.8793   9.5330   9.5330   9.5802   9.5802   9.6664   9.6955
    10.6259  10.8010  10.8010  10.9394  11.0784  11.0784  12.3805  12.3805
    12.6886  12.6886  17.1175  17.1175  17.1201  17.1201

     occupation numbers 
     0.0156   0.0156   0.0156   0.0156   0.0156   0.0156   0.0156   0.0156
     0.0156   0.0156   0.0156   0.0156   0.0156   0.0156   0.0156   0.0156
     0.0156   0.0156   0.0156   0.0156   0.0156   0.0156   0.0156   0.0156
     0.0156   0.0156   0.0156   0.0156   0.0156   0.0156   0.0156   0.0156
     0.0156   0.0156   0.0156   0.0156   0.0156   0.0156   0.0056   0.0056
     0.0012   0.0012   0.0000   0.0000   0.0000   0.0000

          k = 0.4942-0.5706 0.1027 (  2198 PWs)   bands (ev):

   -19.6986 -19.6588  -6.9423  -6.6293  -6.1098  -5.8709  -5.4973  -5.3703
    -3.2717  -3.2232  -2.8461  -2.6768  -2.4972  -2.3573   5.8155   6.1243
     6.5994   6.7047   7.0626   7.2572   7.3968   7.5937   7.6941   7.8370
     8.1597   8.7134   8.9834   9.2075   9.4977   9.7335   9.8488  10.2811
    10.3770  10.7125  10.8803  10.9792  11.0981  11.2114  11.5379  11.8954
    12.7285  13.7184  16.9148  17.1131  17.3171  18.0250

     occupation numbers 
     0.0938   0.0938   0.0938   0.0938   0.0938   0.0938   0.0938   0.0938
     0.0938   0.0938   0.0938   0.0938   0.0938   0.0938   0.0938   0.0938
     0.0938   0.0938   0.0938   0.0938   0.0938   0.0938   0.0938   0.0938
     0.0938   0.0938   0.0938   0.0938   0.0938   0.0938   0.0938   0.0937
     0.0937   0.0937   0.0937   0.0937   0.0937   0.0937   0.0932   0.0849
     0.0054   0.0000   0.0000   0.0000   0.0000   0.0000

 ------ SPIN DOWN ----------


          k = 0.0000 0.0000 0.0000 (  2175 PWs)   bands (ev):

   -19.7654 -19.5923  -6.4407  -5.7196  -5.7196  -5.7196  -5.7196  -5.3681
    -3.7254  -3.2354  -3.1314  -3.1314  -2.9787  -2.9787   5.2483   7.2252
     7.2252   7.5828   7.5828   7.7757   7.9987   7.9987   8.0432   9.4306
     9.7402   9.7402  10.0506  10.1065  10.1065  10.5864  10.5864  10.7836
    11.1647  11.1647  11.2563  12.1074  12.1074  12.6653  12.9856  12.9856
    15.3448  15.3448  15.4935  15.4935  16.2170  16.8201

     occupation numbers 
     0.0156   0.0156   0.0156   0.0156   0.0156   0.0156   0.0156   0.0156
     0.0156   0.0156   0.0156   0.0156   0.0156   0.0156   0.0156   0.0156
     0.0156   0.0156   0.0156   0.0156   0.0156   0.0156   0.0156   0.0156
     0.0156   0.0156   0.0156   0.0156   0.0156   0.0156   0.0156   0.0156
     0.0156   0.0156   0.0156   0.0112   0.0112   0.0014   0.0001   0.0001
     0.0000   0.0000   0.0000   0.0000   0.0000   0.0000

          k =-0.2471-0.1427 0.1027 (  2181 PWs)   bands (ev):

   -19.7376 -19.6158  -6.6275  -6.1909  -5.8344  -5.7427  -5.4976  -5.3609
    -3.5402  -3.3461  -2.8700  -2.8479  -2.7806  -2.7070   5.6138   6.9499
     7.2953   7.3120   7.4530   7.6666   7.6758   8.0036   8.0234   8.7977
     8.8651   9.5078   9.7946   9.9889  10.0478  10.1791  10.5280  10.5372
    11.4991  11.5432  11.6001  12.3035  12.3470  12.4789  13.1285  13.1753
    14.9077  14.9217  15.8848  16.1261  17.0093  17.3119

     occupation numbers 
     0.0938   0.0938   0.0938   0.0938   0.0938   0.0938   0.0938   0.0938
     0.0938   0.0938   0.0938   0.0938   0.0938   0.0938   0.0938   0.0938
     0.0938   0.0938   0.0938   0.0938   0.0938   0.0938   0.0938   0.0938
     0.0938   0.0938   0.0938   0.0937   0.0937   0.0937   0.0937   0.0937
     0.0934   0.0932   0.0928   0.0430   0.0375   0.0224   0.0001   0.0001
     0.0000   0.0000   0.0000   0.0000   0.0000   0.0000

          k = 0.4942 0.2853-0.2053 (  2202 PWs)   bands (ev):

   -19.6751 -19.6739  -6.6304  -6.6220  -5.8621  -5.8494  -5.4104  -5.3981
    -3.3369  -3.3319  -2.7273  -2.7225  -2.4541  -2.4521   6.1614   6.1616
     7.3739   7.4439   7.4480   7.5312   7.8148   7.8730   8.1129   8.1661
     8.3690   8.4302   9.6937   9.7238  10.0223  10.0238  10.4415  10.4421
    11.8797  11.9769  11.9941  12.0874  12.1343  12.2287  13.8848  13.9547
    14.0641  14.1334  16.8856  16.8911  17.1832  17.1874

     occupation numbers 
     0.0469   0.0469   0.0469   0.0469   0.0469   0.0469   0.0469   0.0469
     0.0469   0.0469   0.0469   0.0469   0.0469   0.0469   0.0469   0.0469
     0.0469   0.0469   0.0469   0.0469   0.0469   0.0469   0.0469   0.0469
     0.0469   0.0469   0.0469   0.0469   0.0469   0.0469   0.0469   0.0469
     0.0428   0.0398   0.0391   0.0347   0.0321   0.0264   0.0000   0.0000
     0.0000   0.0000   0.0000   0.0000   0.0000   0.0000

          k =-0.2471 0.1427 0.2053 (  2195 PWs)   bands (ev):

   -19.7328 -19.6186  -6.7564  -6.1341  -5.9658  -5.7194  -5.5431  -5.3366
    -3.3643  -3.2258  -3.0434  -2.8283  -2.7470  -2.5015   5.6625   6.9729
     7.2217   7.2657   7.3774   7.5582   7.6373   8.0351   8.0578   8.8267
     9.0885   9.0936   9.4589   9.9533  10.1205  10.2502  10.3305  10.4518
    11.1846  11.8216  11.9246  11.9971  12.3656  12.4877  12.9063  13.4631
    14.2848  15.3821  16.0370  16.2469  17.0789  17.5770

     occupation numbers 
     0.0938   0.0938   0.0938   0.0938   0.0938   0.0938   0.0938   0.0938
     0.0938   0.0938   0.0938   0.0938   0.0938   0.0938   0.0938   0.0938
     0.0938   0.0938   0.0938   0.0938   0.0938   0.0938   0.0938   0.0938
     0.0938   0.0938   0.0938   0.0937   0.0937   0.0937   0.0937   0.0937
     0.0937   0.0883   0.0831   0.0779   0.0352   0.0215   0.0013   0.0000
     0.0000   0.0000   0.0000   0.0000   0.0000   0.0000

          k = 0.4942 0.5706-0.1027 (  2198 PWs)   bands (ev):

   -19.6932 -19.6535  -6.8627  -6.5515  -6.0351  -5.7911  -5.3903  -5.2550
    -3.2626  -3.2131  -2.8221  -2.6486  -2.4651  -2.3235   6.0181   6.3937
     7.0219   7.2742   7.3720   7.4700   7.7245   7.9851   8.1212   8.2362
     8.5291   9.0662   9.3250   9.5101   9.8479   9.9645  10.1247  10.5149
    11.5721  11.9477  12.0780  12.1603  12.3011  12.3242  13.1143  13.4663
    14.1094  14.9741  16.9530  17.1751  17.3638  18.0653

     occupation numbers 
     0.0938   0.0938   0.0938   0.0938   0.0938   0.0938   0.0938   0.0938
     0.0938   0.0938   0.0938   0.0938   0.0938   0.0938   0.0938   0.0938
     0.0938   0.0938   0.0938   0.0938   0.0938   0.0938   0.0938   0.0938
     0.0938   0.0938   0.0938   0.0938   0.0938   0.0937   0.0937   0.0937
     0.0930   0.0816   0.0704   0.0612   0.0433   0.0404   0.0002   0.0000
     0.0000   0.0000   0.0000   0.0000   0.0000   0.0000

          k = 0.2471 0.4280 0.0000 (  2203 PWs)   bands (ev):

   -19.7029 -19.6458  -6.7519  -6.5440  -5.9516  -5.8784  -5.3162  -5.2427
    -3.4695  -3.2568  -2.7441  -2.6508  -2.5094  -2.4937   5.9760   6.4189
     7.2366   7.3669   7.4188   7.5141   7.5620   7.8897   7.9984   8.3638
     8.6203   9.0989   9.5570   9.6644   9.9346   9.9444  10.2079  10.5262
    11.8334  11.8504  11.9168  12.1140  12.1504  12.4181  13.0804  13.9198
    14.1092  14.7809  16.4953  17.0443  17.4623  17.9677

     occupation numbers 
     0.0938   0.0938   0.0938   0.0938   0.0938   0.0938   0.0938   0.0938
     0.0938   0.0938   0.0938   0.0938   0.0938   0.0938   0.0938   0.0938
     0.0938   0.0938   0.0938   0.0938   0.0938   0.0938   0.0938   0.0938
     0.0938   0.0938   0.0938   0.0938   0.0937   0.0937   0.0937   0.0937
     0.0878   0.0871   0.0836   0.0666   0.0624   0.0289   0.0002   0.0000
     0.0000   0.0000   0.0000   0.0000   0.0000   0.0000

          k = 0.4942-0.2853-0.4107 (  2202 PWs)   bands (ev):

   -19.6997 -19.6446  -7.0764  -6.3654  -6.1486  -5.8516  -5.4162  -5.1587
    -3.1541  -3.0915  -2.9926  -2.5903  -2.4141  -2.1608   5.9335   6.4985
     6.5876   7.2141   7.2194   7.3242   8.0603   8.1306   8.2541   8.3698
     8.7110   8.8236   8.8433   9.5413   9.7763  10.1532  10.1786  10.5940
    11.1660  11.8518  11.9746  12.2162  12.3501  12.4330  12.8416  13.2262
    14.0330  15.4043  17.0832  17.3336  17.5636  17.6301

     occupation numbers 
     0.0469   0.0469   0.0469   0.0469   0.0469   0.0469   0.0469   0.0469
     0.0469   0.0469   0.0469   0.0469   0.0469   0.0469   0.0469   0.0469
     0.0469   0.0469   0.0469   0.0469   0.0469   0.0469   0.0469   0.0469
     0.0469   0.0469   0.0469   0.0469   0.0469   0.0469   0.0469   0.0469
     0.0469   0.0435   0.0399   0.0271   0.0186   0.0136   0.0012   0.0000
     0.0000   0.0000   0.0000   0.0000   0.0000   0.0000

          k = 0.0000 0.0000 0.3080 (  2187 PWs)   bands (ev):

   -19.7374 -19.6156  -6.5131  -5.8765  -5.8214  -5.8214  -5.7338  -5.7338
    -3.1514  -3.0413  -3.0413  -2.9306  -2.8377  -2.8377   5.6653   7.2051
     7.2950   7.2950   7.5480   7.5480   7.6666   8.0321   8.0321   9.0372
     9.0372   9.5750   9.5770   9.8468   9.8468  10.0544  10.2883  10.2883
    11.6146  11.6146  11.6351  12.3199  12.3199  12.4978  13.1073  13.1073
    14.8699  14.8699  15.9726  15.9726  16.9100  17.5342

     occupation numbers 
     0.0313   0.0313   0.0313   0.0313   0.0313   0.0313   0.0313   0.0313
     0.0313   0.0313   0.0313   0.0313   0.0313   0.0313   0.0313   0.0313
     0.0313   0.0313   0.0313   0.0313   0.0313   0.0313   0.0313   0.0313
     0.0313   0.0313   0.0313   0.0313   0.0313   0.0312   0.0312   0.0312
     0.0309   0.0309   0.0308   0.0136   0.0136   0.0068   0.0001   0.0001
     0.0000   0.0000   0.0000   0.0000   0.0000   0.0000

          k = 0.7412 0.4280 0.0000 (  2204 PWs)   bands (ev):

   -19.7027 -19.6456  -6.6358  -6.5075  -6.0487  -5.7247  -5.5663  -5.4293
    -3.1174  -3.0391  -2.9992  -2.6159  -2.6011  -2.5178   6.0216   6.6056
     7.2437   7.4064   7.4181   7.5261   7.5648   7.8425   8.1823   8.3415
     8.6642   8.9746   9.6312   9.6511   9.7568   9.8261  10.0271  10.3723
    11.8302  11.8525  11.9811  12.1283  12.1945  12.3813  13.0729  13.8434
    14.0338  14.8072  16.7571  16.7660  17.6338  17.8494

     occupation numbers 
     0.0938   0.0938   0.0938   0.0938   0.0938   0.0938   0.0938   0.0938
     0.0938   0.0938   0.0938   0.0938   0.0938   0.0938   0.0938   0.0938
     0.0938   0.0938   0.0938   0.0938   0.0938   0.0938   0.0938   0.0938
     0.0938   0.0938   0.0938   0.0938   0.0938   0.0938   0.0937   0.0937
     0.0879   0.0870   0.0792   0.0650   0.0570   0.0333   0.0003   0.0000
     0.0000   0.0000   0.0000   0.0000   0.0000   0.0000

          k = 0.4942 0.2853 0.1027 (  2211 PWs)   bands (ev):

   -19.6932 -19.6535  -6.8793  -6.4483  -6.2291  -5.5858  -5.5120  -5.2298
    -3.2765  -3.1248  -2.9751  -2.5457  -2.4982  -2.3153   6.0426   6.3694
     6.9853   7.2773   7.3335   7.4397   7.7185   8.0242   8.1778   8.2159
     8.5727   9.1956   9.3290   9.5635   9.7176   9.8229  10.1820  10.5295
    11.5692  12.0079  12.0971  12.1908  12.2460  12.2698  13.0769  13.4759
    14.1533  14.9593  16.9419  16.9789  17.6444  17.9810

     occupation numbers 
     0.0938   0.0938   0.0938   0.0938   0.0938   0.0938   0.0938   0.0938
     0.0938   0.0938   0.0938   0.0938   0.0938   0.0938   0.0938   0.0938
     0.0938   0.0938   0.0938   0.0938   0.0938   0.0938   0.0938   0.0938
     0.0938   0.0938   0.0938   0.0938   0.0938   0.0938   0.0937   0.0937
     0.0931   0.0770   0.0684   0.0575   0.0505   0.0474   0.0003   0.0000
     0.0000   0.0000   0.0000   0.0000   0.0000   0.0000

          k = 0.7412-0.4280-0.3080 (  2210 PWs)   bands (ev):

   -19.6930 -19.6533  -6.8153  -6.3548  -6.2064  -5.6902  -5.6487  -5.3622
    -3.0231  -2.9976  -2.9210  -2.6728  -2.5542  -2.3670   6.1054   6.5251
     7.0680   7.2606   7.3861   7.3937   7.7371   8.0678   8.2029   8.2532
     8.5691   9.1618   9.1774   9.6685   9.7015   9.7594   9.8255  10.3683
    11.6208  12.0107  12.0876  12.1773  12.2846  12.3368  13.0382  13.4343
    14.1054  14.9258  17.1150  17.1259  17.6117  17.9511

     occupation numbers 
     0.0938   0.0938   0.0938   0.0938   0.0938   0.0938   0.0938   0.0938
     0.0938   0.0938   0.0938   0.0938   0.0938   0.0938   0.0938   0.0938
     0.0938   0.0938   0.0938   0.0938   0.0938   0.0938   0.0938   0.0938
     0.0938   0.0938   0.0938   0.0938   0.0938   0.0938   0.0938   0.0937
     0.0926   0.0768   0.0694   0.0592   0.0455   0.0388   0.0004   0.0000
     0.0000   0.0000   0.0000   0.0000   0.0000   0.0000

          k = 0.4942-0.5706-0.2053 (  2206 PWs)   bands (ev):

   -19.6724 -19.6724  -6.7907  -6.7889  -5.9380  -5.9360  -5.3046  -5.2996
    -3.1153  -3.1150  -2.7553  -2.7549  -2.3213  -2.3190   6.1986   6.2586
     7.1472   7.1608   7.3210   7.3430   7.5599   7.5853   8.3865   8.4594
     8.9226   8.9271   9.2227   9.2245   9.6965   9.7082  10.2637  10.2698
    11.8218  11.8390  11.9884  12.0654  12.3181  12.3610  13.0915  13.1252
    14.6319  14.6589  17.4938  17.4946  17.9087  17.9107

     occupation numbers 
     0.0938   0.0938   0.0938   0.0938   0.0938   0.0938   0.0938   0.0938
     0.0938   0.0938   0.0938   0.0938   0.0938   0.0938   0.0938   0.0938
     0.0938   0.0938   0.0938   0.0938   0.0938   0.0938   0.0938   0.0938
     0.0938   0.0938   0.0938   0.0938   0.0938   0.0938   0.0937   0.0937
     0.0883   0.0876   0.0786   0.0717   0.0412   0.0358   0.0002   0.0001
     0.0000   0.0000   0.0000   0.0000   0.0000   0.0000

          k = 0.0000 0.0000-0.6160 (  2186 PWs)   bands (ev):

   -19.6748 -19.6735  -6.4144  -6.4032  -5.8397  -5.8397  -5.8283  -5.8283
    -2.8275  -2.8275  -2.8223  -2.8223  -2.6657  -2.6652   6.3764   6.3766
     7.3882   7.3882   7.4768   7.4768   7.9735   8.0192   8.2772   8.2772
     8.3392   8.3392   9.8033   9.8033   9.8160   9.8160   9.8586   9.8639
    12.0298  12.0606  12.0606  12.1376  12.1605  12.1605  13.8176  13.8176
    14.0013  14.0013  17.1757  17.1757  17.1812  17.1812

     occupation numbers 
     0.0156   0.0156   0.0156   0.0156   0.0156   0.0156   0.0156   0.0156
     0.0156   0.0156   0.0156   0.0156   0.0156   0.0156   0.0156   0.0156
     0.0156   0.0156   0.0156   0.0156   0.0156   0.0156   0.0156   0.0156
     0.0156   0.0156   0.0156   0.0156   0.0156   0.0156   0.0156   0.0156
     0.0125   0.0120   0.0120   0.0107   0.0102   0.0102   0.0000   0.0000
     0.0000   0.0000   0.0000   0.0000   0.0000   0.0000

          k = 0.4942-0.5706 0.1027 (  2198 PWs)   bands (ev):

   -19.6932 -19.6535  -6.8638  -6.5527  -6.0329  -5.7853  -5.3929  -5.2584
    -3.2639  -3.2128  -2.8213  -2.6470  -2.4658  -2.3236   6.0126   6.4028
     7.0122   7.2858   7.4081   7.4468   7.7041   7.9834   8.0743   8.2900
     8.5210   9.0781   9.3209   9.5065   9.8438   9.9696  10.1250  10.5143
    11.5674  11.9965  12.0323  12.1654  12.2996  12.3247  13.1102  13.4650
    14.1092  14.9767  16.9553  17.1730  17.3640  18.0663

     occupation numbers 
     0.0938   0.0938   0.0938   0.0938   0.0938   0.0938   0.0938   0.0938
     0.0938   0.0938   0.0938   0.0938   0.0938   0.0938   0.0938   0.0938
     0.0938   0.0938   0.0938   0.0938   0.0938   0.0938   0.0938   0.0938
     0.0938   0.0938   0.0938   0.0938   0.0938   0.0937   0.0937   0.0937
     0.0931   0.0780   0.0749   0.0606   0.0435   0.0403   0.0002   0.0000
     0.0000   0.0000   0.0000   0.0000   0.0000   0.0000

     the Fermi energy is    12.2739 ev

!    total energy              =    -538.44315722 Ry
     Harris-Foulkes estimate   =    -538.44315374 Ry
     estimated scf accuracy    <          4.8E-09 Ry

     The total energy is the sum of the following terms:

     one-electron contribution =     -32.76546456 Ry
     hartree contribution      =      83.54941935 Ry
     xc contribution           =    -199.65695484 Ry
     ewald contribution        =    -389.44315552 Ry
     Hubbard energy            =      -0.08791554 Ry
     smearing contrib. (-TS)   =      -0.03908611 Ry

     total magnetization       =     3.52 Bohr mag/cell
     absolute magnetization    =     3.66 Bohr mag/cell

     convergence has been achieved in  17 iterations

     init_run     :      8.26s CPU      8.36s WALL (       1 calls)
     electrons    :    460.97s CPU    464.36s WALL (       1 calls)

     Called by init_run:
     wfcinit      :      0.00s CPU      0.00s WALL (       1 calls)
     potinit      :      0.81s CPU      0.84s WALL (       1 calls)

     Called by electrons:
     c_bands      :    306.16s CPU    307.35s WALL (      17 calls)
     sum_band     :     95.74s CPU     96.38s WALL (      17 calls)
     v_of_rho     :     12.92s CPU     13.03s WALL (      18 calls)
     v_h          :      0.30s CPU      0.30s WALL (      18 calls)
     v_xc         :     12.62s CPU     12.73s WALL (      18 calls)
     newd         :     46.35s CPU     46.41s WALL (      18 calls)
     mix_rho      :      1.06s CPU      1.07s WALL (      17 calls)

     Called by c_bands:
     init_us_2    :      3.75s CPU      3.75s WALL (     952 calls)
     cegterg      :    296.09s CPU    296.74s WALL (     476 calls)

     Called by sum_band:
     sum_band:bec :      0.36s CPU      0.36s WALL (     476 calls)
     addusdens    :     37.75s CPU     37.83s WALL (      17 calls)

     Called by *egterg:
     h_psi        :    223.78s CPU    224.31s WALL (    1813 calls)
     s_psi        :     12.91s CPU     12.92s WALL (    1813 calls)
     g_psi        :      1.01s CPU      1.01s WALL (    1337 calls)
     cdiaghg      :     20.68s CPU     20.70s WALL (    1785 calls)
     cegterg:over :     13.74s CPU     13.74s WALL (    1337 calls)
     cegterg:upda :      9.23s CPU      9.25s WALL (    1337 calls)
     cegterg:last :      5.76s CPU      5.75s WALL (     503 calls)

     Called by h_psi:
     h_psi:vloc   :    181.38s CPU    181.84s WALL (    1813 calls)
     h_psi:vnl    :     27.01s CPU     27.08s WALL (    1813 calls)
     add_vuspsi   :     13.17s CPU     13.22s WALL (    1813 calls)
     vhpsi        :     14.81s CPU     14.81s WALL (    1813 calls)

     General routines
     calbec       :     29.21s CPU     29.24s WALL (    4578 calls)
     fft          :      5.72s CPU      5.85s WALL (     546 calls)
     ffts         :      0.19s CPU      0.27s WALL (      70 calls)
     fftw         :    172.72s CPU    173.22s WALL (  126736 calls)
     interpolate  :      1.13s CPU      1.28s WALL (      70 calls)
     davcio       :      0.02s CPU      1.03s WALL (     980 calls)

     Parallel routines
     fft_scatter  :     42.58s CPU     43.12s WALL (  127352 calls)
     Hubbard U routines
     new_ns       :      3.12s CPU      3.57s WALL (      17 calls)
     vhpsi        :     14.81s CPU     14.81s WALL (    1813 calls)

     PWSCF        :  7m49.69s CPU     7m53.21s WALL


   This run was terminated on:  12:11:15  13Nov2012            

=------------------------------------------------------------------------------=
