   JOB DONE.
=------------------------------------------------------------------------------=

     Program PWSCF v.5.0.1 starts on 13Nov2012 at  6:17:40 

     This program is part of the open-source Quantum ESPRESSO suite
     for quantum simulation of materials; please cite
         "P. Giannozzi et al., J. Phys.:Condens. Matter 21 395502 (2009);
          URL http://www.quantum-espresso.org", 
     in publications or presentations arising from this work. More details at
     http://www.quantum-espresso.org/quote.php

     Parallel version (MPI), running on     2 processors
     R & G space division:  proc/pool =    2

     Current dimensions of program PWSCF are:
     Max number of different atomic species (ntypx) = 10
     Max number of k-points (npk) =  40000
     Max angular momentum in pseudopotentials (lmaxx) =  3
     Reading input from CoLaO_U600_a15.in
               file Co.pbe-nd-rrkjus.UPF: wavefunction(s)  4S 3D renormalized
               file O.pbe-rrkjus.UPF: wavefunction(s)  2S renormalized
               file O.pbe-rrkjus.UPF: wavefunction(s)  2S renormalized

     Subspace diagonalization in iterative solution of the eigenvalue problem:
     a serial algorithm will be used


     Parallelization info
     --------------------
     sticks:   dense  smooth     PW     G-vecs:    dense   smooth      PW
     Min        1112     444    131                34808     8786    1448
     Max        1113     445    132                34809     8787    1449
     Sum        2225     889    263                69617    17573    2897


     Title: 
     GGA + U, U = 6.000, alpha = 0.150                                          


     bravais-lattice index     =            5
     lattice parameter (alat)  =      10.3292  a.u.
     unit-cell volume          =     793.0599 (a.u.)^3
     number of atoms/cell      =           10
     number of atomic types    =            4
     number of electrons       =        76.00
     number of Kohn-Sham states=           46
     kinetic-energy cutoff     =      30.0000  Ry
     charge density cutoff     =     300.0000  Ry
     convergence threshold     =      1.0E-08
     mixing beta               =       0.2000
     number of iterations used =            8  plain     mixing
     Exchange-correlation      =  SLA  PW   PBE  PBE ( 1 4 3 4 0)
     EXX-fraction              =        0.00

     celldm(1)=  10.329242  celldm(2)=   0.000000  celldm(3)=   0.000000
     celldm(4)=   0.488100  celldm(5)=   0.000000  celldm(6)=   0.000000

     crystal axes: (cart. coord. in units of alat)
               a(1) = (   0.505915  -0.292090   0.811624 )  
               a(2) = (   0.000000   0.584180   0.811624 )  
               a(3) = (  -0.505915  -0.292090   0.811624 )  

     reciprocal axes: (cart. coord. in units 2 pi/alat)
               b(1) = (  0.988308 -0.570600  0.410699 )  
               b(2) = (  0.000000  1.141200  0.410699 )  
               b(3) = ( -0.988308 -0.570600  0.410699 )  


     PseudoPot. # 1 for Co read from file:
     /home/mcurnan/dft-course/Project1/example_LaCoO3/Co.pbe-nd-rrkjus.UPF
     MD5 check sum: 3e47a84addf5e975e0edeaeee2a73f59
     Pseudo is Ultrasoft + core correction, Zval =  9.0
     Generated by new atomic code, or converted to UPF format
     Using radial grid of  961 points,  6 beta functions with: 
                l(1) =   0
                l(2) =   0
                l(3) =   1
                l(4) =   1
                l(5) =   2
                l(6) =   2
     Q(r) pseudized with 0 coefficients 


     PseudoPot. # 2 for La read from file:
     /home/mcurnan/dft-course/Project1/example_LaCoO3/La.pbe-nsp-van.UPF
     MD5 check sum: b2f11743f52dde65f77d1302becd7929
     Pseudo is Ultrasoft + core correction, Zval = 11.0
     Generated by new atomic code, or converted to UPF format
     Using radial grid of  907 points,  6 beta functions with: 
                l(1) =   0
                l(2) =   0
                l(3) =   1
                l(4) =   1
                l(5) =   2
                l(6) =   2
     Q(r) pseudized with  6 coefficients,  rinner =    1.200   1.200   1.200
                                                       1.200   1.200

     PseudoPot. # 3 for O  read from file:
     /home/mcurnan/dft-course/Project1/example_LaCoO3/O.pbe-rrkjus.UPF
     MD5 check sum: 390ba29e75625707450f3bd3f0eb6be9
     Pseudo is Ultrasoft, Zval =  6.0
     Generated by new atomic code, or converted to UPF format
     Using radial grid of 1269 points,  4 beta functions with: 
                l(1) =   0
                l(2) =   0
                l(3) =   1
                l(4) =   1
     Q(r) pseudized with 0 coefficients 


     PseudoPot. # 4 for O  read from file:
     /home/mcurnan/dft-course/Project1/example_LaCoO3/O.pbe-rrkjus.UPF
     MD5 check sum: 390ba29e75625707450f3bd3f0eb6be9
     Pseudo is Ultrasoft, Zval =  6.0
     Generated by new atomic code, or converted to UPF format
     Using radial grid of 1269 points,  4 beta functions with: 
                l(1) =   0
                l(2) =   0
                l(3) =   1
                l(4) =   1
     Q(r) pseudized with 0 coefficients 


     atomic species   valence    mass     pseudopotential
        Co1            9.00     1.00000     Co( 1.00)
        La1           11.00     1.00000     La( 1.00)
        O1             6.00     1.00000     O ( 1.00)
        O2             6.00     1.00000     O ( 1.00)
 -----
     simplified LDA+U calculation, Hubbard_lmax = 2
     atomic species  L   Hubbard U  Hubbard alpha
        Co1          2    6.000000    0.000000
        La1          2    0.000000    0.000000
        O1           1    0.000000    0.150000
        O2           1    0.000000    0.000000
 -----

     No symmetry found


                                    s                        frac. trans.

      isym =  1     identity                                     

 cryst.   s( 1) = (     1          0          0      )
                  (     0          1          0      )
                  (     0          0          1      )

 cart.    s( 1) = (  1.0000000  0.0000000  0.0000000 )
                  (  0.0000000  1.0000000  0.0000000 )
                  (  0.0000000  0.0000000  1.0000000 )


     point group C_1 (1)    
     there are  1 classes
     the character table:

       E    
A      1.00

     the symmetry operations in each class:
     E        1

   Cartesian axes

     site n.     atom                  positions (alat units)
         1           Co1 tau(   1) = (   0.2228050  -0.1992639   1.0141240  )
         2           Co1 tau(   2) = (  -0.2831100   0.0928263   1.4199360  )
         3           La1 tau(   3) = (  -0.2831100   0.0928263   0.8112181  )
         4           La1 tau(   4) = (   0.2228050   0.3849164   1.2170300  )
         5           O1  tau(   5) = (   0.0000000   0.0000000   0.0000000  )
         6           O2  tau(   6) = (   0.0008601   0.1861491   1.6232478  )
         7           O2  tau(   7) = (   0.1616398   0.0923297   0.8116239  )
         8           O2  tau(   8) = (  -0.0603051  -0.1064377   1.2166242  )
         9           O2  tau(   9) = (   0.4447499  -0.0004966   1.2166242  )
        10           O2  tau(  10) = (  -0.2219449   0.3854130   1.2166242  )

   Crystallographic axes

     site n.     atom                  positions (cryst. coord.)
         1           Co1 tau(   1) = (  0.7504000  0.1891000  0.3100000  )
         2           Co1 tau(   2) = (  0.2504000  0.6891000  0.8100000  )
         3           La1 tau(   3) = (  0.0004000  0.4391000  0.5600000  )
         4           La1 tau(   4) = (  0.5004000  0.9391000  0.0600000  )
         5           O1  tau(   5) = (  0.0000000  0.0000000  0.0000000  )
         6           O2  tau(   6) = (  0.5613000  0.8791000  0.5596000  )
         7           O2  tau(   7) = (  0.4404000  0.4387000  0.1209000  )
         8           O2  tau(   8) = (  0.5008000  0.3782000  0.6200000  )
         9           O2  tau(   9) = (  0.9395000  0.4991000  0.0604000  )
        10           O2  tau(  10) = (  0.0604000  0.9395000  0.4991000  )

     number of k points=    36  gaussian smearing, width (Ry)=  0.0300
                       cart. coord. in units 2pi/alat
        k(    1) = (   0.0000000   0.0000000   0.0000000), wk =   0.0312500
        k(    2) = (  -0.2470771  -0.1426500   0.1026748), wk =   0.0625000
        k(    3) = (   0.4941541   0.2853000  -0.2053496), wk =   0.0312500
        k(    4) = (  -0.2470771   0.1426500   0.2053496), wk =   0.0625000
        k(    5) = (   0.4941541   0.5706001  -0.1026748), wk =   0.0625000
        k(    6) = (   0.2470771   0.4279500   0.0000000), wk =   0.0625000
        k(    7) = (   0.4941541  -0.2853000  -0.4106993), wk =   0.0312500
        k(    8) = (   0.0000000   0.0000000   0.3080244), wk =   0.0625000
        k(    9) = (   0.7412312   0.4279500   0.0000000), wk =   0.0625000
        k(   10) = (   0.4941541   0.2853000   0.1026748), wk =   0.0625000
        k(   11) = (   0.7412312  -0.4279500  -0.3080244), wk =   0.0625000
        k(   12) = (   0.4941541  -0.5706001  -0.2053496), wk =   0.0625000
        k(   13) = (   0.0000000   0.0000000  -0.6160489), wk =   0.0312500
        k(   14) = (  -0.2470771   0.1426500  -0.1026748), wk =   0.0625000
        k(   15) = (   0.0000000   0.2853000   0.1026748), wk =   0.0625000
        k(   16) = (   0.4941541  -0.2853000   0.2053496), wk =   0.0312500
        k(   17) = (   0.0000000  -0.5706001  -0.2053496), wk =   0.0312500
        k(   18) = (  -0.2470771  -0.1426500  -0.2053496), wk =   0.0625000
        k(   19) = (   0.0000000  -0.2853000   0.2053496), wk =   0.0625000
        k(   20) = (   0.4941541  -0.5706001   0.1026748), wk =   0.0625000
        k(   21) = (  -0.7412312   0.1426500  -0.1026748), wk =   0.0625000
        k(   22) = (   0.2470771  -0.7132501  -0.1026748), wk =   0.0625000
        k(   23) = (  -0.7412312  -0.1426500   0.1026748), wk =   0.0625000
        k(   24) = (   0.2470771   0.7132501   0.1026748), wk =   0.0625000
        k(   25) = (   0.2470771  -0.4279500   0.0000000), wk =   0.0625000
        k(   26) = (  -0.4941541   0.0000000   0.0000000), wk =   0.0625000
        k(   27) = (   0.4941541   0.2853000   0.4106993), wk =   0.0312500
        k(   28) = (   0.0000000   0.5706001  -0.4106993), wk =   0.0312500
        k(   29) = (   0.7412312  -0.4279500   0.0000000), wk =   0.0625000
        k(   30) = (   0.0000000  -0.8559001   0.0000000), wk =   0.0625000
        k(   31) = (   0.4941541  -0.2853000  -0.1026748), wk =   0.0625000
        k(   32) = (   0.0000000  -0.5706001   0.1026748), wk =   0.0625000
        k(   33) = (   0.7412312   0.4279500   0.3080244), wk =   0.0625000
        k(   34) = (   0.0000000   0.8559001  -0.3080244), wk =   0.0625000
        k(   35) = (   0.2470771   0.7132501  -0.2053496), wk =   0.0625000
        k(   36) = (  -0.7412312  -0.1426500  -0.2053496), wk =   0.0625000

                       cryst. coord.
        k(    1) = (   0.0000000   0.0000000   0.0000000), wk =   0.0312500
        k(    2) = (   0.0000000   0.0000000   0.2500000), wk =   0.0625000
        k(    3) = (   0.0000000   0.0000000  -0.5000000), wk =   0.0312500
        k(    4) = (   0.0000000   0.2500000   0.2500000), wk =   0.0625000
        k(    5) = (   0.0000000   0.2500000  -0.5000000), wk =   0.0625000
        k(    6) = (   0.0000000   0.2500000  -0.2500000), wk =   0.0625000
        k(    7) = (   0.0000000  -0.5000000  -0.5000000), wk =   0.0312500
        k(    8) = (   0.2500000   0.2500000   0.2500000), wk =   0.0625000
        k(    9) = (   0.2500000   0.2500000  -0.5000000), wk =   0.0625000
        k(   10) = (   0.2500000   0.2500000  -0.2500000), wk =   0.0625000
        k(   11) = (   0.2500000  -0.5000000  -0.5000000), wk =   0.0625000
        k(   12) = (   0.2500000  -0.5000000  -0.2500000), wk =   0.0625000
        k(   13) = (  -0.5000000  -0.5000000  -0.5000000), wk =   0.0312500
        k(   14) = (  -0.2500000   0.0000000   0.0000000), wk =   0.0625000
        k(   15) = (   0.0000000   0.2500000   0.0000000), wk =   0.0625000
        k(   16) = (   0.5000000   0.0000000   0.0000000), wk =   0.0312500
        k(   17) = (   0.0000000  -0.5000000   0.0000000), wk =   0.0312500
        k(   18) = (  -0.2500000  -0.2500000   0.0000000), wk =   0.0625000
        k(   19) = (   0.2500000   0.0000000   0.2500000), wk =   0.0625000
        k(   20) = (   0.5000000  -0.2500000   0.0000000), wk =   0.0625000
        k(   21) = (  -0.5000000   0.0000000   0.2500000), wk =   0.0625000
        k(   22) = (   0.2500000  -0.5000000   0.0000000), wk =   0.0625000
        k(   23) = (  -0.2500000   0.0000000   0.5000000), wk =   0.0625000
        k(   24) = (   0.0000000   0.5000000  -0.2500000), wk =   0.0625000
        k(   25) = (   0.2500000  -0.2500000   0.0000000), wk =   0.0625000
        k(   26) = (  -0.2500000   0.0000000   0.2500000), wk =   0.0625000
        k(   27) = (   0.5000000   0.5000000   0.0000000), wk =   0.0312500
        k(   28) = (  -0.5000000   0.0000000  -0.5000000), wk =   0.0312500
        k(   29) = (   0.5000000  -0.2500000  -0.2500000), wk =   0.0625000
        k(   30) = (   0.2500000  -0.5000000   0.2500000), wk =   0.0625000
        k(   31) = (   0.2500000  -0.2500000  -0.2500000), wk =   0.0625000
        k(   32) = (   0.2500000  -0.2500000   0.2500000), wk =   0.0625000
        k(   33) = (   0.5000000   0.5000000  -0.2500000), wk =   0.0625000
        k(   34) = (  -0.5000000   0.2500000  -0.5000000), wk =   0.0625000
        k(   35) = (  -0.2500000   0.2500000  -0.5000000), wk =   0.0625000
        k(   36) = (  -0.5000000  -0.2500000   0.2500000), wk =   0.0625000

     Dense  grid:    69617 G-vectors     FFT dimensions: (  60,  60,  60)

     Smooth grid:    17573 G-vectors     FFT dimensions: (  40,  40,  40)

     Largest allocated arrays     est. size (Mb)     dimensions
        Kohn-Sham Wavefunctions         0.79 Mb     (   1119,   46)
        Atomic wavefunctions            1.06 Mb     (   1119,   62)
        NL pseudopotentials             2.05 Mb     (   1119,  120)
        Each V/rho on FFT grid          1.65 Mb     ( 108000)
        Each G-vector array             0.27 Mb     (  34808)
        G-vector shells                 0.04 Mb     (   4682)
     Largest temporary arrays     est. size (Mb)     dimensions
        Auxiliary wavefunctions         3.14 Mb     (   1119,  184)
        Each subspace H/S matrix        0.52 Mb     ( 184, 184)
        Each <psi_i|beta_j> matrix      0.08 Mb     (    120,   46)
        Arrays for rho mixing          13.18 Mb     ( 108000,   8)

     Check: negative/imaginary core charge=   -0.000028    0.000000

     The initial density is read from file :
     /home/mcurnan/dft-course/Project1/example_LaCoO3/600/O/alpha/CoLaO_U600.save/charge-density.dat

 --- in v_hubbard ---
Hubbard energy    0.6341
 -------
     Number of +U iterations with fixed ns =  0
     Starting occupations:
 --- enter write_ns ---
 LDA+U parameters:
U( 1)     =  6.00000000
alpha( 1) =  0.00000000
U( 2)     =  0.00000000
alpha( 2) =  0.00000000
U( 3)     =  0.00000000
alpha( 3) =  0.15000000
U( 4)     =  0.00000000
alpha( 4) =  0.00000000
atom    1   Tr[ns(na)] =   8.02205
    eigenvalues: 
  0.596  0.596  0.938  0.941  0.941
    eigenvectors:
  0.000  0.000  1.000  0.000  0.000
  0.057  0.598  0.000  0.178  0.167
  0.598  0.057  0.000  0.167  0.178
  0.210  0.135  0.000  0.095  0.560
  0.135  0.210  0.000  0.560  0.095
    occupations:
  0.938  0.000  0.000  0.000  0.000
  0.000  0.715  0.000 -0.060  0.152
  0.000  0.000  0.715  0.152  0.060
  0.000 -0.060  0.152  0.822  0.000
  0.000  0.152  0.060  0.000  0.822
atom    2   Tr[ns(na)] =   8.02142
    eigenvalues: 
  0.595  0.595  0.938  0.941  0.941
    eigenvectors:
  0.000  0.000  1.000  0.000  0.000
  0.332  0.323  0.000  0.023  0.322
  0.323  0.332  0.000  0.322  0.023
  0.288  0.057  0.000  0.647  0.008
  0.057  0.288  0.000  0.008  0.647
    occupations:
  0.938  0.000  0.000  0.000  0.000
  0.000  0.715  0.000  0.060  0.153
  0.000  0.000  0.715  0.153 -0.060
  0.000  0.060  0.153  0.822  0.000
  0.000  0.153 -0.060  0.000  0.822
atom    3   Tr[ns(na)] =   3.80282
    eigenvalues: 
  0.355  0.355  0.384  0.403  0.403
    eigenvectors:
  0.000  0.000  1.000  0.000  0.000
  0.065  0.856  0.000  0.058  0.021
  0.856  0.065  0.000  0.021  0.058
  0.073  0.006  0.000  0.250  0.670
  0.006  0.073  0.000  0.670  0.250
    occupations:
  0.384  0.000  0.000  0.000  0.000
  0.000  0.359  0.000  0.000  0.013
  0.000  0.000  0.359  0.013  0.000
  0.000  0.000  0.013  0.399  0.000
  0.000  0.013  0.000  0.000  0.399
atom    4   Tr[ns(na)] =   3.80282
    eigenvalues: 
  0.355  0.355  0.384  0.403  0.403
    eigenvectors:
  0.000  0.000  1.000  0.000  0.000
  0.729  0.192  0.000  0.048  0.032
  0.192  0.729  0.000  0.032  0.048
  0.017  0.062  0.000  0.359  0.562
  0.062  0.017  0.000  0.562  0.359
    occupations:
  0.384  0.000  0.000  0.000  0.000
  0.000  0.359  0.000  0.000  0.013
  0.000  0.000  0.359  0.013  0.000
  0.000  0.000  0.013  0.399  0.000
  0.000  0.013  0.000  0.000  0.399
atom    5   Tr[ns(na)] =   5.43357
    eigenvalues: 
  0.846  0.929  0.941
    eigenvectors:
  0.340  0.000  0.660
  0.496  0.250  0.255
  0.164  0.750  0.086
    occupations:
  0.909 -0.039  0.022
 -0.039  0.891  0.022
  0.022  0.022  0.917
atom    6   Tr[ns(na)] =   5.43358
    eigenvalues: 
  0.846  0.929  0.941
    eigenvectors:
  0.340  0.000  0.660
  0.494  0.250  0.256
  0.166  0.750  0.085
    occupations:
  0.909  0.039  0.022
  0.039  0.891 -0.022
  0.022 -0.022  0.917
atom    7   Tr[ns(na)] =   5.43358
    eigenvalues: 
  0.846  0.929  0.941
    eigenvectors:
  0.340  0.000  0.660
  0.000  1.000  0.000
  0.660  0.000  0.340
    occupations:
  0.909  0.000 -0.045
  0.000  0.929  0.000
 -0.045  0.000  0.879
atom    8   Tr[ns(na)] =   5.43357
    eigenvalues: 
  0.846  0.929  0.941
    eigenvectors:
  0.340  0.000  0.660
  0.496  0.250  0.255
  0.164  0.750  0.086
    occupations:
  0.909 -0.039  0.022
 -0.039  0.891  0.022
  0.022  0.022  0.917
atom    9   Tr[ns(na)] =   5.43358
    eigenvalues: 
  0.846  0.929  0.941
    eigenvectors:
  0.340  0.000  0.660
  0.494  0.250  0.256
  0.166  0.750  0.085
    occupations:
  0.909  0.039  0.022
  0.039  0.891 -0.022
  0.022 -0.022  0.917
atom   10   Tr[ns(na)] =   5.43358
    eigenvalues: 
  0.846  0.929  0.941
    eigenvectors:
  0.340  0.000  0.660
  0.000  1.000  0.000
  0.660  0.000  0.340
    occupations:
  0.909  0.000 -0.045
  0.000  0.929  0.000
 -0.045  0.000  0.879
N of occupied +U levels =  56.2505796
 --- exit write_ns ---
 LDA+U Projector read from file 
     Starting wfc from file

     total cpu time spent up to now is        7.5 secs

     per-process dynamical memory:    62.8 Mb

     Self-consistent Calculation

     iteration #  1     ecut=    30.00 Ry     beta=0.20
     Davidson diagonalization with overlap
     c_bands:  1 eigenvalues not converged
     c_bands:  1 eigenvalues not converged
     c_bands:  1 eigenvalues not converged
     c_bands:  1 eigenvalues not converged
     c_bands:  1 eigenvalues not converged
     c_bands:  1 eigenvalues not converged
     c_bands:  1 eigenvalues not converged
     c_bands:  1 eigenvalues not converged
     c_bands:  1 eigenvalues not converged
     c_bands:  1 eigenvalues not converged
     c_bands:  1 eigenvalues not converged
     c_bands:  1 eigenvalues not converged
     c_bands:  1 eigenvalues not converged
     c_bands:  1 eigenvalues not converged
     c_bands:  1 eigenvalues not converged
     c_bands:  1 eigenvalues not converged
     c_bands:  1 eigenvalues not converged
     c_bands:  1 eigenvalues not converged
     c_bands:  1 eigenvalues not converged
     c_bands:  1 eigenvalues not converged
     ethr =  1.00E-10,  avg # of iterations = 17.8
 --- enter write_ns ---
 LDA+U parameters:
U( 1)     =  6.00000000
alpha( 1) =  0.00000000
U( 2)     =  0.00000000
alpha( 2) =  0.00000000
U( 3)     =  0.00000000
alpha( 3) =  0.15000000
U( 4)     =  0.00000000
alpha( 4) =  0.00000000
atom    1   Tr[ns(na)] =   8.26227
    eigenvalues: 
  0.573  0.576  0.993  0.993  0.996
    eigenvectors:
  0.000  0.000  0.002  0.006  0.993
  0.098  0.556  0.221  0.123  0.002
  0.557  0.098  0.125  0.220  0.000
  0.178  0.167  0.047  0.605  0.002
  0.168  0.178  0.606  0.046  0.002
    occupations:
  0.996  0.000  0.000  0.000  0.000
  0.000  0.720 -0.001 -0.072  0.185
  0.000 -0.001  0.718  0.186  0.073
  0.000 -0.072  0.186  0.849 -0.001
  0.000  0.185  0.073 -0.001  0.848
atom    2   Tr[ns(na)] =   8.25276
    eigenvalues: 
  0.570  0.573  0.993  0.993  0.996
    eigenvectors:
  0.000  0.000  0.002  0.006  0.993
  0.239  0.415  0.004  0.339  0.002
  0.415  0.239  0.341  0.004  0.001
  0.319  0.027  0.611  0.042  0.000
  0.026  0.319  0.041  0.609  0.004
    occupations:
  0.996  0.000  0.000  0.000  0.000
  0.000  0.718 -0.001  0.073  0.187
  0.000 -0.001  0.717  0.187 -0.072
  0.000  0.073  0.187  0.847  0.000
  0.000  0.187 -0.072  0.000  0.848
atom    3   Tr[ns(na)] =   3.79386
    eigenvalues: 
  0.356  0.357  0.381  0.401  0.402
    eigenvectors:
  0.000  0.000  1.000  0.000  0.000
  0.689  0.229  0.000  0.020  0.062
  0.230  0.689  0.000  0.063  0.019
  0.021  0.061  0.000  0.692  0.226
  0.060  0.021  0.000  0.226  0.693
    occupations:
  0.381  0.000  0.000  0.000  0.000
  0.000  0.360  0.000  0.000  0.012
  0.000  0.000  0.360  0.012  0.000
  0.000  0.000  0.012  0.398  0.000
  0.000  0.012  0.000  0.000  0.398
atom    4   Tr[ns(na)] =   3.79382
    eigenvalues: 
  0.356  0.357  0.381  0.401  0.401
    eigenvectors:
  0.000  0.000  1.000  0.000  0.000
  0.232  0.681  0.000  0.020  0.067
  0.685  0.230  0.000  0.063  0.022
  0.062  0.023  0.000  0.684  0.231
  0.022  0.066  0.000  0.232  0.680
    occupations:
  0.381  0.000  0.000  0.000  0.000
  0.000  0.361  0.000  0.000  0.013
  0.000  0.000  0.360  0.012  0.000
  0.000  0.000  0.012  0.397  0.000
  0.000  0.013  0.000  0.000  0.397
atom    5   Tr[ns(na)] =   5.34683
    eigenvalues: 
  0.815  0.918  0.941
    eigenvectors:
  0.343  0.000  0.657
  0.493  0.250  0.256
  0.164  0.750  0.086
    occupations:
  0.898 -0.052  0.030
 -0.052  0.873  0.026
  0.030  0.026  0.903
atom    6   Tr[ns(na)] =   5.37744
    eigenvalues: 
  0.822  0.922  0.944
    eigenvectors:
  0.341  0.000  0.659
  0.493  0.251  0.255
  0.165  0.749  0.086
    occupations:
  0.903  0.050  0.029
  0.050  0.878 -0.025
  0.029 -0.025  0.908
atom    7   Tr[ns(na)] =   5.37744
    eigenvalues: 
  0.822  0.922  0.944
    eigenvectors:
  0.341  0.000  0.659
  0.000  1.000  0.000
  0.659  0.000  0.341
    occupations:
  0.903  0.000 -0.058
  0.000  0.922  0.000
 -0.058  0.000  0.864
atom    8   Tr[ns(na)] =   5.37740
    eigenvalues: 
  0.822  0.923  0.944
    eigenvectors:
  0.341  0.000  0.659
  0.494  0.250  0.256
  0.164  0.750  0.086
    occupations:
  0.902 -0.050  0.029
 -0.050  0.878  0.025
  0.029  0.025  0.908
atom    9   Tr[ns(na)] =   5.37730
    eigenvalues: 
  0.822  0.922  0.944
    eigenvectors:
  0.342  0.000  0.658
  0.494  0.250  0.256
  0.165  0.750  0.086
    occupations:
  0.903  0.050  0.029
  0.050  0.878 -0.025
  0.029 -0.025  0.908
atom   10   Tr[ns(na)] =   5.37730
    eigenvalues: 
  0.822  0.922  0.944
    eigenvectors:
  0.342  0.000  0.658
  0.000  1.000  0.000
  0.658  0.000  0.342
    occupations:
  0.903  0.000 -0.058
  0.000  0.922  0.000
 -0.058  0.000  0.864
N of occupied +U levels =  56.3364398
 --- exit write_ns ---
 --- in v_hubbard ---
Hubbard energy    0.6098
 -------

     total cpu time spent up to now is       91.1 secs

     total energy              =    -537.76346300 Ry
     Harris-Foulkes estimate   =    -537.78036531 Ry
     estimated scf accuracy    <       0.07239310 Ry

     iteration #  2     ecut=    30.00 Ry     beta=0.20
     Davidson diagonalization with overlap
     ethr =  9.53E-05,  avg # of iterations =  2.0
 --- enter write_ns ---
 LDA+U parameters:
U( 1)     =  6.00000000
alpha( 1) =  0.00000000
U( 2)     =  0.00000000
alpha( 2) =  0.00000000
U( 3)     =  0.00000000
alpha( 3) =  0.15000000
U( 4)     =  0.00000000
alpha( 4) =  0.00000000
atom    1   Tr[ns(na)] =   8.02029
    eigenvalues: 
  0.511  0.513  0.994  0.994  0.997
    eigenvectors:
  0.000  0.000  0.000  0.000  1.000
  0.098  0.557  0.119  0.225  0.000
  0.557  0.098  0.225  0.119  0.000
  0.174  0.170  0.185  0.471  0.000
  0.170  0.175  0.470  0.185  0.000
    occupations:
  0.997  0.000  0.000  0.000  0.000
  0.000  0.679  0.000 -0.085  0.212
  0.000  0.000  0.678  0.213  0.086
  0.000 -0.085  0.213  0.828  0.000
  0.000  0.212  0.086  0.000  0.828
atom    2   Tr[ns(na)] =   8.02079
    eigenvalues: 
  0.511  0.512  0.995  0.995  0.998
    eigenvectors:
  0.000  0.000  0.000  0.000  1.000
  0.240  0.416  0.063  0.282  0.000
  0.416  0.240  0.282  0.063  0.000
  0.320  0.025  0.653  0.003  0.000
  0.025  0.320  0.003  0.653  0.000
    occupations:
  0.998  0.000  0.000  0.000  0.000
  0.000  0.678 -0.001  0.085  0.213
  0.000 -0.001  0.678  0.214 -0.085
  0.000  0.085  0.214  0.828  0.000
  0.000  0.213 -0.085  0.000  0.829
atom    3   Tr[ns(na)] =   3.78776
    eigenvalues: 
  0.355  0.355  0.381  0.401  0.401
    eigenvectors:
  0.000  0.000  1.000  0.000  0.000
  0.691  0.230  0.000  0.023  0.056
  0.229  0.691  0.000  0.056  0.023
  0.020  0.059  0.000  0.647  0.274
  0.059  0.020  0.000  0.274  0.647
    occupations:
  0.381  0.000  0.000  0.000  0.000
  0.000  0.359  0.000  0.000  0.012
  0.000  0.000  0.359  0.012  0.000
  0.000  0.000  0.012  0.398  0.000
  0.000  0.012  0.000  0.000  0.398
atom    4   Tr[ns(na)] =   3.78787
    eigenvalues: 
  0.355  0.355  0.381  0.401  0.401
    eigenvectors:
  0.000  0.000  1.000  0.000  0.000
  0.239  0.680  0.000  0.021  0.060
  0.681  0.239  0.000  0.059  0.021
  0.058  0.022  0.000  0.674  0.247
  0.021  0.059  0.000  0.247  0.672
    occupations:
  0.381  0.000  0.000  0.000  0.000
  0.000  0.359  0.000  0.000  0.013
  0.000  0.000  0.359  0.012  0.000
  0.000  0.000  0.012  0.398  0.000
  0.000  0.013  0.000  0.000  0.398
atom    5   Tr[ns(na)] =   5.44275
    eigenvalues: 
  0.841  0.931  0.949
    eigenvectors:
  0.335  0.000  0.665
  0.497  0.252  0.251
  0.167  0.748  0.084
    occupations:
  0.913 -0.044  0.026
 -0.044  0.891  0.023
  0.026  0.023  0.918
atom    6   Tr[ns(na)] =   5.44974
    eigenvalues: 
  0.843  0.932  0.950
    eigenvectors:
  0.336  0.000  0.664
  0.499  0.249  0.252
  0.165  0.751  0.084
    occupations:
  0.914  0.044  0.025
  0.044  0.892 -0.023
  0.025 -0.023  0.919
atom    7   Tr[ns(na)] =   5.44975
    eigenvalues: 
  0.843  0.932  0.950
    eigenvectors:
  0.336  0.000  0.664
  0.000  1.000  0.000
  0.664  0.000  0.336
    occupations:
  0.914  0.000 -0.050
  0.000  0.932  0.000
 -0.050  0.000  0.879
atom    8   Tr[ns(na)] =   5.44844
    eigenvalues: 
  0.843  0.932  0.949
    eigenvectors:
  0.335  0.000  0.665
  0.497  0.252  0.251
  0.167  0.748  0.084
    occupations:
  0.914 -0.044  0.025
 -0.044  0.892  0.023
  0.025  0.023  0.919
atom    9   Tr[ns(na)] =   5.44999
    eigenvalues: 
  0.843  0.932  0.950
    eigenvectors:
  0.335  0.000  0.665
  0.500  0.248  0.251
  0.165  0.752  0.084
    occupations:
  0.914  0.044  0.025
  0.044  0.892 -0.023
  0.025 -0.023  0.919
atom   10   Tr[ns(na)] =   5.45000
    eigenvalues: 
  0.843  0.932  0.950
    eigenvectors:
  0.335  0.000  0.665
  0.000  1.000  0.000
  0.665  0.000  0.335
    occupations:
  0.914  0.000 -0.050
  0.000  0.932  0.000
 -0.050  0.000  0.879
N of occupied +U levels =  56.3073752
 --- exit write_ns ---
 --- in v_hubbard ---
Hubbard energy    0.5998
 -------

     total cpu time spent up to now is      114.5 secs

     total energy              =    -537.77865316 Ry
     Harris-Foulkes estimate   =    -537.77879813 Ry
     estimated scf accuracy    <       0.04314067 Ry

     iteration #  3     ecut=    30.00 Ry     beta=0.20
     Davidson diagonalization with overlap
     ethr =  5.68E-05,  avg # of iterations =  1.0
 --- enter write_ns ---
 LDA+U parameters:
U( 1)     =  6.00000000
alpha( 1) =  0.00000000
U( 2)     =  0.00000000
alpha( 2) =  0.00000000
U( 3)     =  0.00000000
alpha( 3) =  0.15000000
U( 4)     =  0.00000000
alpha( 4) =  0.00000000
atom    1   Tr[ns(na)] =   8.07020
    eigenvalues: 
  0.524  0.525  0.994  0.994  0.997
    eigenvectors:
  0.000  0.000  0.000  0.001  0.999
  0.099  0.557  0.127  0.217  0.000
  0.557  0.099  0.217  0.127  0.000
  0.174  0.170  0.171  0.484  0.000
  0.170  0.174  0.484  0.171  0.000
    occupations:
  0.997  0.000  0.000  0.000  0.000
  0.000  0.687  0.000 -0.083  0.207
  0.000  0.000  0.686  0.207  0.083
  0.000 -0.083  0.207  0.833  0.000
  0.000  0.207  0.083  0.000  0.832
atom    2   Tr[ns(na)] =   8.06723
    eigenvalues: 
  0.522  0.524  0.995  0.995  0.998
    eigenvectors:
  0.000  0.000  0.000  0.000  1.000
  0.240  0.416  0.053  0.291  0.000
  0.416  0.239  0.292  0.053  0.000
  0.320  0.025  0.655  0.000  0.000
  0.025  0.320  0.000  0.655  0.000
    occupations:
  0.998  0.000  0.000  0.000  0.000
  0.000  0.686 -0.001  0.083  0.208
  0.000 -0.001  0.685  0.209 -0.082
  0.000  0.083  0.209  0.832  0.000
  0.000  0.208 -0.082  0.000  0.833
atom    3   Tr[ns(na)] =   3.78869
    eigenvalues: 
  0.356  0.356  0.381  0.401  0.401
    eigenvectors:
  0.000  0.000  1.000  0.000  0.000
  0.691  0.230  0.000  0.017  0.062
  0.230  0.691  0.000  0.062  0.017
  0.020  0.059  0.000  0.714  0.207
  0.059  0.020  0.000  0.207  0.714
    occupations:
  0.381  0.000  0.000  0.000  0.000
  0.000  0.359  0.000  0.000  0.012
  0.000  0.000  0.359  0.012  0.000
  0.000  0.000  0.012  0.398  0.000
  0.000  0.012  0.000  0.000  0.398
atom    4   Tr[ns(na)] =   3.78873
    eigenvalues: 
  0.356  0.356  0.381  0.401  0.401
    eigenvectors:
  0.000  0.000  1.000  0.000  0.000
  0.240  0.679  0.000  0.019  0.061
  0.681  0.240  0.000  0.060  0.020
  0.058  0.022  0.000  0.689  0.232
  0.021  0.059  0.000  0.232  0.688
    occupations:
  0.381  0.000  0.000  0.000  0.000
  0.000  0.359  0.000  0.000  0.012
  0.000  0.000  0.359  0.012  0.000
  0.000  0.000  0.012  0.398  0.000
  0.000  0.012  0.000  0.000  0.398
atom    5   Tr[ns(na)] =   5.42610
    eigenvalues: 
  0.836  0.929  0.948
    eigenvectors:
  0.337  0.000  0.663
  0.497  0.251  0.252
  0.167  0.749  0.085
    occupations:
  0.910 -0.046  0.027
 -0.046  0.888  0.024
  0.027  0.024  0.915
atom    6   Tr[ns(na)] =   5.43469
    eigenvalues: 
  0.838  0.930  0.949
    eigenvectors:
  0.337  0.000  0.663
  0.498  0.250  0.253
  0.165  0.750  0.084
    occupations:
  0.911  0.045  0.026
  0.045  0.889 -0.024
  0.026 -0.024  0.917
atom    7   Tr[ns(na)] =   5.43470
    eigenvalues: 
  0.838  0.930  0.949
    eigenvectors:
  0.337  0.000  0.663
  0.000  1.000  0.000
  0.663  0.000  0.337
    occupations:
  0.911  0.000 -0.052
  0.000  0.930  0.000
 -0.052  0.000  0.876
atom    8   Tr[ns(na)] =   5.43361
    eigenvalues: 
  0.838  0.930  0.948
    eigenvectors:
  0.337  0.000  0.663
  0.497  0.251  0.252
  0.167  0.749  0.085
    occupations:
  0.911 -0.045  0.026
 -0.045  0.889  0.024
  0.026  0.024  0.916
atom    9   Tr[ns(na)] =   5.43485
    eigenvalues: 
  0.838  0.930  0.949
    eigenvectors:
  0.336  0.000  0.664
  0.499  0.249  0.252
  0.165  0.751  0.084
    occupations:
  0.912  0.045  0.026
  0.045  0.889 -0.024
  0.026 -0.024  0.917
atom   10   Tr[ns(na)] =   5.43485
    eigenvalues: 
  0.838  0.930  0.949
    eigenvectors:
  0.336  0.000  0.664
  0.000  1.000  0.000
  0.664  0.000  0.336
    occupations:
  0.912  0.000 -0.052
  0.000  0.930  0.000
 -0.052  0.000  0.875
N of occupied +U levels =  56.3136504
 --- exit write_ns ---
 --- in v_hubbard ---
Hubbard energy    0.5074
 -------

     total cpu time spent up to now is      137.1 secs

     total energy              =    -537.78629525 Ry
     Harris-Foulkes estimate   =    -537.77958977 Ry
     estimated scf accuracy    <       0.01882923 Ry

     iteration #  4     ecut=    30.00 Ry     beta=0.20
     Davidson diagonalization with overlap
     ethr =  2.48E-05,  avg # of iterations =  2.0
 --- enter write_ns ---
 LDA+U parameters:
U( 1)     =  6.00000000
alpha( 1) =  0.00000000
U( 2)     =  0.00000000
alpha( 2) =  0.00000000
U( 3)     =  0.00000000
alpha( 3) =  0.15000000
U( 4)     =  0.00000000
alpha( 4) =  0.00000000
atom    1   Tr[ns(na)] =   8.08339
    eigenvalues: 
  0.524  0.526  0.996  0.996  0.999
    eigenvectors:
  0.000  0.000  0.000  0.001  0.999
  0.099  0.560  0.137  0.205  0.000
  0.560  0.099  0.205  0.137  0.000
  0.171  0.170  0.151  0.508  0.000
  0.170  0.171  0.508  0.150  0.000
    occupations:
  0.999  0.000  0.000  0.000  0.000
  0.000  0.687  0.000 -0.084  0.207
  0.000  0.000  0.685  0.207  0.085
  0.000 -0.084  0.207  0.835  0.000
  0.000  0.207  0.085  0.000  0.835
atom    2   Tr[ns(na)] =   8.08523
    eigenvalues: 
  0.524  0.526  0.997  0.997  0.999
    eigenvectors:
  0.000  0.000  0.000  0.001  0.999
  0.242  0.417  0.040  0.301  0.000
  0.417  0.241  0.301  0.040  0.000
  0.318  0.024  0.658  0.001  0.000
  0.024  0.318  0.001  0.657  0.000
    occupations:
  0.999  0.000  0.000  0.000  0.000
  0.000  0.686 -0.001  0.084  0.207
  0.000 -0.001  0.686  0.208 -0.083
  0.000  0.084  0.208  0.835  0.000
  0.000  0.207 -0.083  0.000  0.836
atom    3   Tr[ns(na)] =   3.79956
    eigenvalues: 
  0.357  0.357  0.381  0.402  0.402
    eigenvectors:
  0.000  0.000  1.000  0.000  0.000
  0.694  0.230  0.000  0.017  0.060
  0.230  0.694  0.000  0.060  0.016
  0.020  0.057  0.000  0.717  0.207
  0.057  0.020  0.000  0.206  0.717
    occupations:
  0.381  0.000  0.000  0.000  0.000
  0.000  0.360  0.000  0.000  0.012
  0.000  0.000  0.361  0.012  0.000
  0.000  0.000  0.012  0.399  0.000
  0.000  0.012  0.000  0.000  0.399
atom    4   Tr[ns(na)] =   3.79955
    eigenvalues: 
  0.357  0.357  0.382  0.402  0.402
    eigenvectors:
  0.000  0.000  1.000  0.000  0.000
  0.243  0.678  0.000  0.018  0.061
  0.680  0.242  0.000  0.059  0.018
  0.056  0.021  0.000  0.705  0.218
  0.021  0.058  0.000  0.218  0.703
    occupations:
  0.382  0.000  0.000  0.000  0.000
  0.000  0.361  0.000  0.000  0.012
  0.000  0.000  0.361  0.012  0.000
  0.000  0.000  0.012  0.398  0.000
  0.000  0.012  0.000  0.000  0.398
atom    5   Tr[ns(na)] =   5.41196
    eigenvalues: 
  0.832  0.927  0.946
    eigenvectors:
  0.338  0.000  0.662
  0.495  0.252  0.253
  0.167  0.748  0.085
    occupations:
  0.908 -0.047  0.027
 -0.047  0.885  0.025
  0.027  0.025  0.913
atom    6   Tr[ns(na)] =   5.42434
    eigenvalues: 
  0.835  0.929  0.947
    eigenvectors:
  0.337  0.000  0.663
  0.498  0.249  0.253
  0.165  0.751  0.085
    occupations:
  0.910  0.046  0.026
  0.046  0.887 -0.024
  0.026 -0.024  0.915
atom    7   Tr[ns(na)] =   5.42432
    eigenvalues: 
  0.835  0.929  0.947
    eigenvectors:
  0.337  0.000  0.663
  0.000  1.000  0.000
  0.663  0.000  0.337
    occupations:
  0.910  0.000 -0.053
  0.000  0.929  0.000
 -0.053  0.000  0.873
atom    8   Tr[ns(na)] =   5.42471
    eigenvalues: 
  0.836  0.929  0.947
    eigenvectors:
  0.337  0.000  0.663
  0.496  0.252  0.252
  0.167  0.748  0.085
    occupations:
  0.910 -0.046  0.027
 -0.046  0.887  0.024
  0.027  0.024  0.915
atom    9   Tr[ns(na)] =   5.42406
    eigenvalues: 
  0.835  0.929  0.947
    eigenvectors:
  0.337  0.000  0.663
  0.499  0.248  0.253
  0.164  0.752  0.084
    occupations:
  0.910  0.046  0.026
  0.046  0.887 -0.024
  0.026 -0.024  0.915
atom   10   Tr[ns(na)] =   5.42405
    eigenvalues: 
  0.835  0.929  0.947
    eigenvectors:
  0.337  0.000  0.663
  0.000  1.000  0.000
  0.663  0.000  0.337
    occupations:
  0.910  0.000 -0.053
  0.000  0.929  0.000
 -0.053  0.000  0.873
N of occupied +U levels =  56.3011595
 --- exit write_ns ---
 --- in v_hubbard ---
Hubbard energy    0.5032
 -------

     total cpu time spent up to now is      161.3 secs

     total energy              =    -537.78780760 Ry
     Harris-Foulkes estimate   =    -537.78804003 Ry
     estimated scf accuracy    <       0.00210426 Ry

     iteration #  5     ecut=    30.00 Ry     beta=0.20
     Davidson diagonalization with overlap
     ethr =  2.77E-06,  avg # of iterations =  1.7
 --- enter write_ns ---
 LDA+U parameters:
U( 1)     =  6.00000000
alpha( 1) =  0.00000000
U( 2)     =  0.00000000
alpha( 2) =  0.00000000
U( 3)     =  0.00000000
alpha( 3) =  0.15000000
U( 4)     =  0.00000000
alpha( 4) =  0.00000000
atom    1   Tr[ns(na)] =   8.06230
    eigenvalues: 
  0.518  0.520  0.997  0.997  0.999
    eigenvectors:
  0.000  0.000  0.000  0.000  1.000
  0.098  0.560  0.130  0.212  0.000
  0.560  0.098  0.212  0.129  0.000
  0.171  0.170  0.162  0.496  0.000
  0.171  0.171  0.496  0.162  0.000
    occupations:
  0.999  0.000  0.000  0.000  0.000
  0.000  0.683  0.000 -0.085  0.209
  0.000  0.000  0.682  0.210  0.086
  0.000 -0.085  0.210  0.834  0.000
  0.000  0.209  0.086  0.000  0.834
atom    2   Tr[ns(na)] =   8.05618
    eigenvalues: 
  0.516  0.518  0.997  0.997  0.999
    eigenvectors:
  0.000  0.000  0.000  0.000  1.000
  0.242  0.417  0.047  0.294  0.000
  0.417  0.242  0.295  0.047  0.000
  0.318  0.024  0.658  0.000  0.000
  0.023  0.318  0.000  0.658  0.000
    occupations:
  0.999  0.000  0.000  0.000  0.000
  0.000  0.681 -0.001  0.086  0.210
  0.000 -0.001  0.681  0.211 -0.085
  0.000  0.086  0.211  0.833  0.000
  0.000  0.210 -0.085  0.000  0.834
atom    3   Tr[ns(na)] =   3.79865
    eigenvalues: 
  0.357  0.357  0.381  0.402  0.402
    eigenvectors:
  0.000  0.000  1.000  0.000  0.000
  0.694  0.229  0.000  0.017  0.060
  0.229  0.694  0.000  0.060  0.017
  0.020  0.057  0.000  0.708  0.215
  0.057  0.020  0.000  0.215  0.708
    occupations:
  0.381  0.000  0.000  0.000  0.000
  0.000  0.360  0.000  0.000  0.012
  0.000  0.000  0.360  0.012  0.000
  0.000  0.000  0.012  0.399  0.000
  0.000  0.012  0.000  0.000  0.399
atom    4   Tr[ns(na)] =   3.79862
    eigenvalues: 
  0.357  0.357  0.382  0.402  0.402
    eigenvectors:
  0.000  0.000  1.000  0.000  0.000
  0.258  0.664  0.000  0.018  0.060
  0.665  0.257  0.000  0.059  0.019
  0.055  0.023  0.000  0.695  0.227
  0.022  0.057  0.000  0.228  0.694
    occupations:
  0.382  0.000  0.000  0.000  0.000
  0.000  0.360  0.000  0.000  0.012
  0.000  0.000  0.360  0.012  0.000
  0.000  0.000  0.012  0.398  0.000
  0.000  0.012  0.000  0.000  0.398
atom    5   Tr[ns(na)] =   5.42149
    eigenvalues: 
  0.835  0.929  0.947
    eigenvectors:
  0.337  0.000  0.663
  0.497  0.251  0.252
  0.166  0.749  0.085
    occupations:
  0.909 -0.046  0.027
 -0.046  0.887  0.024
  0.027  0.024  0.915
atom    6   Tr[ns(na)] =   5.43174
    eigenvalues: 
  0.838  0.930  0.948
    eigenvectors:
  0.337  0.000  0.663
  0.497  0.250  0.252
  0.166  0.750  0.085
    occupations:
  0.911  0.045  0.026
  0.045  0.889 -0.024
  0.026 -0.024  0.916
atom    7   Tr[ns(na)] =   5.43173
    eigenvalues: 
  0.838  0.930  0.948
    eigenvectors:
  0.337  0.000  0.663
  0.000  1.000  0.000
  0.663  0.000  0.337
    occupations:
  0.911  0.000 -0.052
  0.000  0.930  0.000
 -0.052  0.000  0.875
atom    8   Tr[ns(na)] =   5.43132
    eigenvalues: 
  0.838  0.930  0.948
    eigenvectors:
  0.337  0.000  0.663
  0.497  0.251  0.252
  0.166  0.749  0.085
    occupations:
  0.911 -0.045  0.026
 -0.045  0.889  0.024
  0.026  0.024  0.916
atom    9   Tr[ns(na)] =   5.43172
    eigenvalues: 
  0.838  0.930  0.948
    eigenvectors:
  0.336  0.000  0.664
  0.498  0.250  0.252
  0.165  0.750  0.084
    occupations:
  0.911  0.045  0.026
  0.045  0.889 -0.024
  0.026 -0.024  0.916
atom   10   Tr[ns(na)] =   5.43171
    eigenvalues: 
  0.838  0.930  0.948
    eigenvectors:
  0.336  0.000  0.664
  0.000  1.000  0.000
  0.664  0.000  0.336
    occupations:
  0.911  0.000 -0.052
  0.000  0.930  0.000
 -0.052  0.000  0.875
N of occupied +U levels =  56.2954576
 --- exit write_ns ---
 --- in v_hubbard ---
Hubbard energy    0.5030
 -------

     total cpu time spent up to now is      184.2 secs

     total energy              =    -537.78813292 Ry
     Harris-Foulkes estimate   =    -537.78802647 Ry
     estimated scf accuracy    <       0.00023149 Ry

     iteration #  6     ecut=    30.00 Ry     beta=0.20
     Davidson diagonalization with overlap
     ethr =  3.05E-07,  avg # of iterations =  1.9
 --- enter write_ns ---
 LDA+U parameters:
U( 1)     =  6.00000000
alpha( 1) =  0.00000000
U( 2)     =  0.00000000
alpha( 2) =  0.00000000
U( 3)     =  0.00000000
alpha( 3) =  0.15000000
U( 4)     =  0.00000000
alpha( 4) =  0.00000000
atom    1   Tr[ns(na)] =   8.05214
    eigenvalues: 
  0.516  0.518  0.997  0.997  0.999
    eigenvectors:
  0.000  0.000  0.000  0.000  1.000
  0.097  0.561  0.130  0.211  0.000
  0.561  0.098  0.211  0.130  0.000
  0.171  0.170  0.160  0.498  0.000
  0.171  0.171  0.498  0.160  0.000
    occupations:
  0.999  0.000  0.000  0.000  0.000
  0.000  0.681  0.000 -0.086  0.210
  0.000  0.000  0.680  0.211  0.087
  0.000 -0.086  0.211  0.833  0.000
  0.000  0.210  0.087  0.000  0.833
atom    2   Tr[ns(na)] =   8.05353
    eigenvalues: 
  0.516  0.518  0.997  0.997  0.999
    eigenvectors:
  0.000  0.000  0.000  0.000  1.000
  0.242  0.417  0.047  0.295  0.000
  0.417  0.242  0.295  0.047  0.000
  0.318  0.023  0.658  0.000  0.000
  0.023  0.318  0.000  0.658  0.000
    occupations:
  0.999  0.000  0.000  0.000  0.000
  0.000  0.681 -0.001  0.086  0.211
  0.000 -0.001  0.681  0.211 -0.086
  0.000  0.086  0.211  0.833  0.000
  0.000  0.211 -0.086  0.000  0.833
atom    3   Tr[ns(na)] =   3.79623
    eigenvalues: 
  0.356  0.357  0.381  0.402  0.402
    eigenvectors:
  0.000  0.000  1.000  0.000  0.000
  0.693  0.230  0.000  0.020  0.057
  0.230  0.693  0.000  0.057  0.020
  0.020  0.058  0.000  0.673  0.249
  0.058  0.020  0.000  0.249  0.673
    occupations:
  0.381  0.000  0.000  0.000  0.000
  0.000  0.360  0.000  0.000  0.012
  0.000  0.000  0.360  0.012  0.000
  0.000  0.000  0.012  0.398  0.000
  0.000  0.012  0.000  0.000  0.398
atom    4   Tr[ns(na)] =   3.79620
    eigenvalues: 
  0.357  0.357  0.381  0.402  0.402
    eigenvectors:
  0.000  0.000  1.000  0.000  0.000
  0.281  0.640  0.000  0.019  0.060
  0.641  0.281  0.000  0.059  0.020
  0.053  0.025  0.000  0.689  0.233
  0.024  0.055  0.000  0.233  0.688
    occupations:
  0.381  0.000  0.000  0.000  0.000
  0.000  0.360  0.000  0.000  0.012
  0.000  0.000  0.360  0.012  0.000
  0.000  0.000  0.012  0.398  0.000
  0.000  0.012  0.000  0.000  0.398
atom    5   Tr[ns(na)] =   5.42478
    eigenvalues: 
  0.836  0.929  0.947
    eigenvectors:
  0.337  0.000  0.663
  0.496  0.252  0.252
  0.167  0.748  0.085
    occupations:
  0.910 -0.046  0.027
 -0.046  0.887  0.024
  0.027  0.024  0.915
atom    6   Tr[ns(na)] =   5.43405
    eigenvalues: 
  0.838  0.930  0.948
    eigenvectors:
  0.337  0.000  0.663
  0.498  0.249  0.252
  0.165  0.751  0.084
    occupations:
  0.911  0.045  0.026
  0.045  0.889 -0.024
  0.026 -0.024  0.917
atom    7   Tr[ns(na)] =   5.43405
    eigenvalues: 
  0.838  0.930  0.948
    eigenvectors:
  0.337  0.000  0.663
  0.000  1.000  0.000
  0.663  0.000  0.337
    occupations:
  0.911  0.000 -0.052
  0.000  0.930  0.000
 -0.052  0.000  0.875
atom    8   Tr[ns(na)] =   5.43325
    eigenvalues: 
  0.838  0.930  0.948
    eigenvectors:
  0.337  0.000  0.663
  0.496  0.252  0.252
  0.167  0.748  0.085
    occupations:
  0.911 -0.045  0.026
 -0.045  0.889  0.024
  0.026  0.024  0.916
atom    9   Tr[ns(na)] =   5.43414
    eigenvalues: 
  0.838  0.930  0.948
    eigenvectors:
  0.336  0.000  0.664
  0.499  0.248  0.252
  0.164  0.752  0.084
    occupations:
  0.911  0.045  0.026
  0.045  0.889 -0.024
  0.026 -0.024  0.917
atom   10   Tr[ns(na)] =   5.43414
    eigenvalues: 
  0.838  0.930  0.948
    eigenvectors:
  0.336  0.000  0.664
  0.000  1.000  0.000
  0.664  0.000  0.336
    occupations:
  0.911  0.000 -0.052
  0.000  0.930  0.000
 -0.052  0.000  0.875
N of occupied +U levels =  56.2925126
 --- exit write_ns ---
 --- in v_hubbard ---
Hubbard energy    0.5040
 -------

     total cpu time spent up to now is      208.3 secs

     total energy              =    -537.78824461 Ry
     Harris-Foulkes estimate   =    -537.78816085 Ry
     estimated scf accuracy    <       0.00010641 Ry

     iteration #  7     ecut=    30.00 Ry     beta=0.20
     Davidson diagonalization with overlap
     ethr =  1.40E-07,  avg # of iterations =  2.0
 --- enter write_ns ---
 LDA+U parameters:
U( 1)     =  6.00000000
alpha( 1) =  0.00000000
U( 2)     =  0.00000000
alpha( 2) =  0.00000000
U( 3)     =  0.00000000
alpha( 3) =  0.15000000
U( 4)     =  0.00000000
alpha( 4) =  0.00000000
atom    1   Tr[ns(na)] =   8.04963
    eigenvalues: 
  0.515  0.517  0.997  0.997  0.999
    eigenvectors:
  0.000  0.000  0.000  0.000  1.000
  0.097  0.561  0.125  0.217  0.000
  0.561  0.097  0.217  0.125  0.000
  0.171  0.171  0.168  0.490  0.000
  0.171  0.171  0.490  0.168  0.000
    occupations:
  0.999  0.000  0.000  0.000  0.000
  0.000  0.681  0.000 -0.086  0.211
  0.000  0.000  0.680  0.211  0.087
  0.000 -0.086  0.211  0.833  0.000
  0.000  0.211  0.087  0.000  0.832
atom    2   Tr[ns(na)] =   8.04657
    eigenvalues: 
  0.514  0.516  0.997  0.997  0.999
    eigenvectors:
  0.000  0.000  0.000  0.000  1.000
  0.242  0.416  0.051  0.290  0.000
  0.416  0.242  0.291  0.051  0.000
  0.319  0.023  0.658  0.000  0.000
  0.023  0.319  0.000  0.658  0.000
    occupations:
  0.999  0.000  0.000  0.000  0.000
  0.000  0.680 -0.001  0.087  0.211
  0.000 -0.001  0.680  0.212 -0.086
  0.000  0.087  0.212  0.832  0.000
  0.000  0.211 -0.086  0.000  0.833
atom    3   Tr[ns(na)] =   3.79234
    eigenvalues: 
  0.356  0.356  0.381  0.402  0.402
    eigenvectors:
  0.000  0.000  1.000  0.000  0.000
  0.691  0.230  0.000  0.006  0.073
  0.230  0.691  0.000  0.073  0.006
  0.020  0.058  0.000  0.850  0.071
  0.058  0.020  0.000  0.071  0.850
    occupations:
  0.381  0.000  0.000  0.000  0.000
  0.000  0.360  0.000  0.000  0.012
  0.000  0.000  0.360  0.012  0.000
  0.000  0.000  0.012  0.398  0.000
  0.000  0.012  0.000  0.000  0.398
atom    4   Tr[ns(na)] =   3.79230
    eigenvalues: 
  0.356  0.356  0.381  0.401  0.401
    eigenvectors:
  0.000  0.000  1.000  0.000  0.000
  0.655  0.265  0.000  0.019  0.061
  0.266  0.655  0.000  0.059  0.019
  0.022  0.057  0.000  0.691  0.230
  0.057  0.023  0.000  0.230  0.690
    occupations:
  0.381  0.000  0.000  0.000  0.000
  0.000  0.360  0.000  0.000  0.012
  0.000  0.000  0.360  0.012  0.000
  0.000  0.000  0.012  0.398  0.000
  0.000  0.012  0.000  0.000  0.398
atom    5   Tr[ns(na)] =   5.42713
    eigenvalues: 
  0.836  0.929  0.948
    eigenvectors:
  0.337  0.000  0.663
  0.496  0.251  0.252
  0.167  0.749  0.085
    occupations:
  0.910 -0.046  0.026
 -0.046  0.888  0.024
  0.026  0.024  0.915
atom    6   Tr[ns(na)] =   5.43622
    eigenvalues: 
  0.839  0.931  0.948
    eigenvectors:
  0.337  0.000  0.663
  0.498  0.250  0.252
  0.165  0.750  0.085
    occupations:
  0.912  0.045  0.026
  0.045  0.890 -0.024
  0.026 -0.024  0.917
atom    7   Tr[ns(na)] =   5.43623
    eigenvalues: 
  0.839  0.931  0.948
    eigenvectors:
  0.337  0.000  0.663
  0.000  1.000  0.000
  0.663  0.000  0.337
    occupations:
  0.912  0.000 -0.052
  0.000  0.931  0.000
 -0.052  0.000  0.876
atom    8   Tr[ns(na)] =   5.43524
    eigenvalues: 
  0.839  0.931  0.948
    eigenvectors:
  0.337  0.000  0.663
  0.497  0.251  0.252
  0.167  0.749  0.085
    occupations:
  0.911 -0.045  0.026
 -0.045  0.889  0.024
  0.026  0.024  0.917
atom    9   Tr[ns(na)] =   5.43634
    eigenvalues: 
  0.839  0.931  0.948
    eigenvectors:
  0.336  0.000  0.664
  0.499  0.249  0.252
  0.165  0.751  0.084
    occupations:
  0.912  0.045  0.026
  0.045  0.889 -0.024
  0.026 -0.024  0.917
atom   10   Tr[ns(na)] =   5.43635
    eigenvalues: 
  0.839  0.931  0.948
    eigenvectors:
  0.336  0.000  0.664
  0.000  1.000  0.000
  0.664  0.000  0.336
    occupations:
  0.912  0.000 -0.052
  0.000  0.931  0.000
 -0.052  0.000  0.876
N of occupied +U levels =  56.2883681
 --- exit write_ns ---
 --- in v_hubbard ---
Hubbard energy    0.5051
 -------

     total cpu time spent up to now is      235.1 secs

     total energy              =    -537.78832473 Ry
     Harris-Foulkes estimate   =    -537.78826255 Ry
     estimated scf accuracy    <       0.00007729 Ry

     iteration #  8     ecut=    30.00 Ry     beta=0.20
     Davidson diagonalization with overlap
     ethr =  1.02E-07,  avg # of iterations =  1.1
 --- enter write_ns ---
 LDA+U parameters:
U( 1)     =  6.00000000
alpha( 1) =  0.00000000
U( 2)     =  0.00000000
alpha( 2) =  0.00000000
U( 3)     =  0.00000000
alpha( 3) =  0.15000000
U( 4)     =  0.00000000
alpha( 4) =  0.00000000
atom    1   Tr[ns(na)] =   8.05283
    eigenvalues: 
  0.516  0.518  0.997  0.997  0.999
    eigenvectors:
  0.000  0.000  0.000  0.000  1.000
  0.097  0.561  0.126  0.216  0.000
  0.561  0.097  0.216  0.126  0.000
  0.171  0.171  0.166  0.492  0.000
  0.171  0.171  0.492  0.166  0.000
    occupations:
  0.999  0.000  0.000  0.000  0.000
  0.000  0.681  0.000 -0.086  0.210
  0.000  0.000  0.680  0.211  0.087
  0.000 -0.086  0.211  0.833  0.000
  0.000  0.210  0.087  0.000  0.833
atom    2   Tr[ns(na)] =   8.05003
    eigenvalues: 
  0.515  0.517  0.997  0.997  0.999
    eigenvectors:
  0.000  0.000  0.000  0.000  1.000
  0.243  0.416  0.050  0.291  0.000
  0.415  0.243  0.291  0.051  0.000
  0.319  0.023  0.658  0.000  0.000
  0.023  0.319  0.000  0.658  0.000
    occupations:
  0.999  0.000  0.000  0.000  0.000
  0.000  0.680 -0.001  0.087  0.211
  0.000 -0.001  0.680  0.212 -0.086
  0.000  0.087  0.212  0.832  0.000
  0.000  0.211 -0.086  0.000  0.833
atom    3   Tr[ns(na)] =   3.79422
    eigenvalues: 
  0.356  0.356  0.381  0.402  0.402
    eigenvectors:
  0.000  0.000  1.000  0.000  0.000
  0.691  0.231  0.000  0.014  0.064
  0.231  0.691  0.000  0.064  0.014
  0.020  0.058  0.000  0.753  0.169
  0.058  0.020  0.000  0.169  0.753
    occupations:
  0.381  0.000  0.000  0.000  0.000
  0.000  0.360  0.000  0.000  0.012
  0.000  0.000  0.360  0.012  0.000
  0.000  0.000  0.012  0.398  0.000
  0.000  0.012  0.000  0.000  0.398
atom    4   Tr[ns(na)] =   3.79418
    eigenvalues: 
  0.356  0.356  0.381  0.402  0.402
    eigenvectors:
  0.000  0.000  1.000  0.000  0.000
  0.240  0.680  0.000  0.019  0.060
  0.682  0.240  0.000  0.059  0.019
  0.057  0.021  0.000  0.690  0.231
  0.021  0.058  0.000  0.232  0.689
    occupations:
  0.381  0.000  0.000  0.000  0.000
  0.000  0.360  0.000  0.000  0.012
  0.000  0.000  0.360  0.012  0.000
  0.000  0.000  0.012  0.398  0.000
  0.000  0.012  0.000  0.000  0.398
atom    5   Tr[ns(na)] =   5.42531
    eigenvalues: 
  0.836  0.929  0.948
    eigenvectors:
  0.337  0.000  0.663
  0.496  0.251  0.252
  0.167  0.749  0.085
    occupations:
  0.910 -0.046  0.026
 -0.046  0.888  0.024
  0.026  0.024  0.915
atom    6   Tr[ns(na)] =   5.43481
    eigenvalues: 
  0.839  0.931  0.948
    eigenvectors:
  0.337  0.000  0.663
  0.498  0.250  0.252
  0.165  0.750  0.085
    occupations:
  0.911  0.045  0.026
  0.045  0.889 -0.024
  0.026 -0.024  0.917
atom    7   Tr[ns(na)] =   5.43481
    eigenvalues: 
  0.839  0.931  0.948
    eigenvectors:
  0.337  0.000  0.663
  0.000  1.000  0.000
  0.663  0.000  0.337
    occupations:
  0.911  0.000 -0.052
  0.000  0.931  0.000
 -0.052  0.000  0.876
atom    8   Tr[ns(na)] =   5.43406
    eigenvalues: 
  0.838  0.930  0.948
    eigenvectors:
  0.337  0.000  0.663
  0.497  0.251  0.252
  0.167  0.749  0.085
    occupations:
  0.911 -0.045  0.026
 -0.045  0.889  0.024
  0.026  0.024  0.917
atom    9   Tr[ns(na)] =   5.43488
    eigenvalues: 
  0.839  0.931  0.948
    eigenvectors:
  0.337  0.000  0.663
  0.499  0.249  0.252
  0.165  0.751  0.084
    occupations:
  0.911  0.045  0.026
  0.045  0.889 -0.024
  0.026 -0.024  0.917
atom   10   Tr[ns(na)] =   5.43488
    eigenvalues: 
  0.839  0.931  0.948
    eigenvectors:
  0.337  0.000  0.663
  0.000  1.000  0.000
  0.663  0.000  0.337
    occupations:
  0.911  0.000 -0.052
  0.000  0.931  0.000
 -0.052  0.000  0.875
N of occupied +U levels =  56.2900188
 --- exit write_ns ---
 --- in v_hubbard ---
Hubbard energy    0.5059
 -------

     total cpu time spent up to now is      259.1 secs

     total energy              =    -537.78837365 Ry
     Harris-Foulkes estimate   =    -537.78833114 Ry
     estimated scf accuracy    <       0.00001075 Ry

     iteration #  9     ecut=    30.00 Ry     beta=0.20
     Davidson diagonalization with overlap
     ethr =  1.41E-08,  avg # of iterations =  2.0
 --- enter write_ns ---
 LDA+U parameters:
U( 1)     =  6.00000000
alpha( 1) =  0.00000000
U( 2)     =  0.00000000
alpha( 2) =  0.00000000
U( 3)     =  0.00000000
alpha( 3) =  0.15000000
U( 4)     =  0.00000000
alpha( 4) =  0.00000000
atom    1   Tr[ns(na)] =   8.05249
    eigenvalues: 
  0.516  0.518  0.997  0.997  0.999
    eigenvectors:
  0.000  0.000  0.000  0.000  1.000
  0.097  0.561  0.124  0.218  0.000
  0.562  0.097  0.218  0.124  0.000
  0.170  0.171  0.169  0.489  0.000
  0.171  0.171  0.489  0.169  0.000
    occupations:
  0.999  0.000  0.000  0.000  0.000
  0.000  0.681  0.000 -0.087  0.210
  0.000  0.000  0.680  0.210  0.088
  0.000 -0.087  0.210  0.833  0.000
  0.000  0.210  0.088  0.000  0.833
atom    2   Tr[ns(na)] =   8.04944
    eigenvalues: 
  0.514  0.517  0.997  0.997  0.999
    eigenvectors:
  0.000  0.000  0.000  0.000  1.000
  0.243  0.415  0.052  0.290  0.000
  0.415  0.243  0.290  0.052  0.000
  0.319  0.023  0.658  0.000  0.000
  0.023  0.319  0.000  0.658  0.000
    occupations:
  0.999  0.000  0.000  0.000  0.000
  0.000  0.680 -0.001  0.087  0.211
  0.000 -0.001  0.680  0.212 -0.087
  0.000  0.087  0.212  0.832  0.000
  0.000  0.211 -0.087  0.000  0.833
atom    3   Tr[ns(na)] =   3.79482
    eigenvalues: 
  0.356  0.357  0.381  0.402  0.402
    eigenvectors:
  0.000  0.000  1.000  0.000  0.000
  0.692  0.230  0.000  0.017  0.061
  0.230  0.692  0.000  0.061  0.017
  0.020  0.058  0.000  0.718  0.204
  0.058  0.020  0.000  0.204  0.718
    occupations:
  0.381  0.000  0.000  0.000  0.000
  0.000  0.360  0.000  0.000  0.012
  0.000  0.000  0.360  0.012  0.000
  0.000  0.000  0.012  0.398  0.000
  0.000  0.012  0.000  0.000  0.398
atom    4   Tr[ns(na)] =   3.79478
    eigenvalues: 
  0.356  0.356  0.381  0.402  0.402
    eigenvectors:
  0.000  0.000  1.000  0.000  0.000
  0.247  0.673  0.000  0.019  0.060
  0.674  0.247  0.000  0.059  0.020
  0.057  0.022  0.000  0.689  0.233
  0.022  0.058  0.000  0.233  0.687
    occupations:
  0.381  0.000  0.000  0.000  0.000
  0.000  0.360  0.000  0.000  0.012
  0.000  0.000  0.360  0.012  0.000
  0.000  0.000  0.012  0.398  0.000
  0.000  0.012  0.000  0.000  0.398
atom    5   Tr[ns(na)] =   5.42516
    eigenvalues: 
  0.836  0.929  0.948
    eigenvectors:
  0.337  0.000  0.663
  0.496  0.251  0.252
  0.167  0.749  0.085
    occupations:
  0.910 -0.046  0.026
 -0.046  0.887  0.024
  0.026  0.024  0.915
atom    6   Tr[ns(na)] =   5.43474
    eigenvalues: 
  0.839  0.931  0.948
    eigenvectors:
  0.337  0.000  0.663
  0.498  0.250  0.252
  0.165  0.750  0.085
    occupations:
  0.911  0.045  0.026
  0.045  0.889 -0.024
  0.026 -0.024  0.917
atom    7   Tr[ns(na)] =   5.43474
    eigenvalues: 
  0.839  0.931  0.948
    eigenvectors:
  0.337  0.000  0.663
  0.000  1.000  0.000
  0.663  0.000  0.337
    occupations:
  0.911  0.000 -0.052
  0.000  0.931  0.000
 -0.052  0.000  0.876
atom    8   Tr[ns(na)] =   5.43398
    eigenvalues: 
  0.838  0.930  0.948
    eigenvectors:
  0.337  0.000  0.663
  0.497  0.251  0.252
  0.167  0.749  0.085
    occupations:
  0.911 -0.045  0.026
 -0.045  0.889  0.024
  0.026  0.024  0.917
atom    9   Tr[ns(na)] =   5.43480
    eigenvalues: 
  0.839  0.931  0.948
    eigenvectors:
  0.337  0.000  0.663
  0.499  0.249  0.252
  0.165  0.751  0.084
    occupations:
  0.911  0.045  0.026
  0.045  0.889 -0.024
  0.026 -0.024  0.917
atom   10   Tr[ns(na)] =   5.43480
    eigenvalues: 
  0.839  0.931  0.948
    eigenvectors:
  0.337  0.000  0.663
  0.000  1.000  0.000
  0.663  0.000  0.337
    occupations:
  0.911  0.000 -0.052
  0.000  0.931  0.000
 -0.052  0.000  0.875
N of occupied +U levels =  56.2897662
 --- exit write_ns ---
 --- in v_hubbard ---
Hubbard energy    0.5064
 -------

     total cpu time spent up to now is      285.9 secs

     total energy              =    -537.78840813 Ry
     Harris-Foulkes estimate   =    -537.78837551 Ry
     estimated scf accuracy    <       0.00000301 Ry

     iteration # 10     ecut=    30.00 Ry     beta=0.20
     Davidson diagonalization with overlap
     ethr =  3.96E-09,  avg # of iterations =  2.0
 --- enter write_ns ---
 LDA+U parameters:
U( 1)     =  6.00000000
alpha( 1) =  0.00000000
U( 2)     =  0.00000000
alpha( 2) =  0.00000000
U( 3)     =  0.00000000
alpha( 3) =  0.15000000
U( 4)     =  0.00000000
alpha( 4) =  0.00000000
atom    1   Tr[ns(na)] =   8.05386
    eigenvalues: 
  0.516  0.518  0.997  0.997  0.999
    eigenvectors:
  0.000  0.000  0.000  0.000  1.000
  0.096  0.562  0.124  0.218  0.000
  0.562  0.096  0.218  0.123  0.000
  0.170  0.171  0.169  0.489  0.000
  0.172  0.170  0.489  0.169  0.000
    occupations:
  0.999  0.000  0.000  0.000  0.000
  0.000  0.682  0.000 -0.087  0.210
  0.000  0.000  0.680  0.210  0.088
  0.000 -0.087  0.210  0.833  0.000
  0.000  0.210  0.088  0.000  0.833
atom    2   Tr[ns(na)] =   8.05074
    eigenvalues: 
  0.515  0.517  0.997  0.997  0.999
    eigenvectors:
  0.000  0.000  0.000  0.000  1.000
  0.243  0.415  0.052  0.290  0.000
  0.415  0.243  0.290  0.052  0.000
  0.319  0.023  0.658  0.000  0.000
  0.023  0.319  0.000  0.658  0.000
    occupations:
  0.999  0.000  0.000  0.000  0.000
  0.000  0.680 -0.001  0.088  0.211
  0.000 -0.001  0.680  0.211 -0.087
  0.000  0.088  0.211  0.832  0.000
  0.000  0.211 -0.087  0.000  0.833
atom    3   Tr[ns(na)] =   3.79419
    eigenvalues: 
  0.356  0.356  0.381  0.402  0.402
    eigenvectors:
  0.000  0.000  1.000  0.000  0.000
  0.691  0.230  0.000  0.016  0.062
  0.230  0.691  0.000  0.062  0.016
  0.020  0.058  0.000  0.723  0.199
  0.058  0.020  0.000  0.199  0.723
    occupations:
  0.381  0.000  0.000  0.000  0.000
  0.000  0.360  0.000  0.000  0.012
  0.000  0.000  0.360  0.012  0.000
  0.000  0.000  0.012  0.398  0.000
  0.000  0.012  0.000  0.000  0.398
atom    4   Tr[ns(na)] =   3.79415
    eigenvalues: 
  0.356  0.356  0.381  0.402  0.402
    eigenvectors:
  0.000  0.000  1.000  0.000  0.000
  0.257  0.663  0.000  0.019  0.060
  0.664  0.257  0.000  0.059  0.020
  0.056  0.023  0.000  0.689  0.232
  0.023  0.057  0.000  0.232  0.688
    occupations:
  0.381  0.000  0.000  0.000  0.000
  0.000  0.360  0.000  0.000  0.012
  0.000  0.000  0.360  0.012  0.000
  0.000  0.000  0.012  0.398  0.000
  0.000  0.012  0.000  0.000  0.398
atom    5   Tr[ns(na)] =   5.42498
    eigenvalues: 
  0.836  0.929  0.948
    eigenvectors:
  0.337  0.000  0.663
  0.496  0.251  0.252
  0.167  0.749  0.085
    occupations:
  0.910 -0.046  0.027
 -0.046  0.887  0.024
  0.027  0.024  0.915
atom    6   Tr[ns(na)] =   5.43445
    eigenvalues: 
  0.838  0.931  0.948
    eigenvectors:
  0.337  0.000  0.663
  0.498  0.250  0.252
  0.165  0.750  0.085
    occupations:
  0.911  0.045  0.026
  0.045  0.889 -0.024
  0.026 -0.024  0.917
atom    7   Tr[ns(na)] =   5.43445
    eigenvalues: 
  0.838  0.931  0.948
    eigenvectors:
  0.337  0.000  0.663
  0.000  1.000  0.000
  0.663  0.000  0.337
    occupations:
  0.911  0.000 -0.052
  0.000  0.931  0.000
 -0.052  0.000  0.875
atom    8   Tr[ns(na)] =   5.43362
    eigenvalues: 
  0.838  0.930  0.948
    eigenvectors:
  0.337  0.000  0.663
  0.497  0.251  0.252
  0.167  0.749  0.085
    occupations:
  0.911 -0.045  0.026
 -0.045  0.889  0.024
  0.026  0.024  0.917
atom    9   Tr[ns(na)] =   5.43452
    eigenvalues: 
  0.838  0.931  0.948
    eigenvectors:
  0.337  0.000  0.663
  0.499  0.249  0.252
  0.165  0.751  0.084
    occupations:
  0.911  0.045  0.026
  0.045  0.889 -0.024
  0.026 -0.024  0.917
atom   10   Tr[ns(na)] =   5.43453
    eigenvalues: 
  0.838  0.931  0.948
    eigenvectors:
  0.337  0.000  0.663
  0.000  1.000  0.000
  0.663  0.000  0.337
    occupations:
  0.911  0.000 -0.052
  0.000  0.931  0.000
 -0.052  0.000  0.875
N of occupied +U levels =  56.2895119
 --- exit write_ns ---
 --- in v_hubbard ---
Hubbard energy    0.5065
 -------

     total cpu time spent up to now is      314.2 secs

     total energy              =    -537.78842600 Ry
     Harris-Foulkes estimate   =    -537.78840956 Ry
     estimated scf accuracy    <       0.00000581 Ry

     iteration # 11     ecut=    30.00 Ry     beta=0.20
     Davidson diagonalization with overlap
     ethr =  3.96E-09,  avg # of iterations =  1.7
 --- enter write_ns ---
 LDA+U parameters:
U( 1)     =  6.00000000
alpha( 1) =  0.00000000
U( 2)     =  0.00000000
alpha( 2) =  0.00000000
U( 3)     =  0.00000000
alpha( 3) =  0.15000000
U( 4)     =  0.00000000
alpha( 4) =  0.00000000
atom    1   Tr[ns(na)] =   8.05203
    eigenvalues: 
  0.515  0.518  0.997  0.997  0.999
    eigenvectors:
  0.000  0.000  0.000  0.000  1.000
  0.096  0.562  0.122  0.219  0.000
  0.562  0.096  0.219  0.122  0.000
  0.170  0.172  0.171  0.488  0.000
  0.172  0.170  0.488  0.170  0.000
    occupations:
  0.999  0.000  0.000  0.000  0.000
  0.000  0.681  0.000 -0.087  0.210
  0.000  0.000  0.680  0.210  0.088
  0.000 -0.087  0.210  0.833  0.000
  0.000  0.210  0.088  0.000  0.833
atom    2   Tr[ns(na)] =   8.04891
    eigenvalues: 
  0.514  0.516  0.997  0.997  0.999
    eigenvectors:
  0.000  0.000  0.000  0.000  1.000
  0.244  0.415  0.053  0.289  0.000
  0.414  0.244  0.289  0.053  0.000
  0.319  0.023  0.658  0.000  0.000
  0.023  0.319  0.000  0.658  0.000
    occupations:
  0.999  0.000  0.000  0.000  0.000
  0.000  0.680 -0.001  0.088  0.211
  0.000 -0.001  0.680  0.211 -0.087
  0.000  0.088  0.211  0.832  0.000
  0.000  0.211 -0.087  0.000  0.833
atom    3   Tr[ns(na)] =   3.79453
    eigenvalues: 
  0.356  0.356  0.381  0.402  0.402
    eigenvectors:
  0.000  0.000  1.000  0.000  0.000
  0.692  0.230  0.000  0.016  0.062
  0.230  0.692  0.000  0.062  0.016
  0.020  0.058  0.000  0.721  0.201
  0.058  0.020  0.000  0.201  0.721
    occupations:
  0.381  0.000  0.000  0.000  0.000
  0.000  0.360  0.000  0.000  0.012
  0.000  0.000  0.360  0.012  0.000
  0.000  0.000  0.012  0.398  0.000
  0.000  0.012  0.000  0.000  0.398
atom    4   Tr[ns(na)] =   3.79449
    eigenvalues: 
  0.356  0.356  0.381  0.402  0.402
    eigenvectors:
  0.000  0.000  1.000  0.000  0.000
  0.250  0.671  0.000  0.019  0.060
  0.672  0.249  0.000  0.059  0.020
  0.056  0.022  0.000  0.689  0.233
  0.022  0.058  0.000  0.233  0.687
    occupations:
  0.381  0.000  0.000  0.000  0.000
  0.000  0.360  0.000  0.000  0.012
  0.000  0.000  0.360  0.012  0.000
  0.000  0.000  0.012  0.398  0.000
  0.000  0.012  0.000  0.000  0.398
atom    5   Tr[ns(na)] =   5.42542
    eigenvalues: 
  0.836  0.929  0.948
    eigenvectors:
  0.337  0.000  0.663
  0.496  0.251  0.252
  0.167  0.749  0.085
    occupations:
  0.910 -0.046  0.026
 -0.046  0.888  0.024
  0.026  0.024  0.915
atom    6   Tr[ns(na)] =   5.43493
    eigenvalues: 
  0.839  0.931  0.948
    eigenvectors:
  0.337  0.000  0.663
  0.498  0.250  0.252
  0.165  0.750  0.085
    occupations:
  0.911  0.045  0.026
  0.045  0.889 -0.024
  0.026 -0.024  0.917
atom    7   Tr[ns(na)] =   5.43493
    eigenvalues: 
  0.839  0.931  0.948
    eigenvectors:
  0.337  0.000  0.663
  0.000  1.000  0.000
  0.663  0.000  0.337
    occupations:
  0.911  0.000 -0.052
  0.000  0.931  0.000
 -0.052  0.000  0.876
atom    8   Tr[ns(na)] =   5.43413
    eigenvalues: 
  0.838  0.931  0.948
    eigenvectors:
  0.337  0.000  0.663
  0.497  0.251  0.252
  0.167  0.749  0.085
    occupations:
  0.911 -0.045  0.026
 -0.045  0.889  0.024
  0.026  0.024  0.917
atom    9   Tr[ns(na)] =   5.43500
    eigenvalues: 
  0.839  0.931  0.948
    eigenvectors:
  0.337  0.000  0.663
  0.499  0.249  0.252
  0.165  0.751  0.084
    occupations:
  0.911  0.045  0.026
  0.045  0.889 -0.024
  0.026 -0.024  0.917
atom   10   Tr[ns(na)] =   5.43499
    eigenvalues: 
  0.839  0.931  0.948
    eigenvectors:
  0.337  0.000  0.663
  0.000  1.000  0.000
  0.663  0.000  0.336
    occupations:
  0.911  0.000 -0.052
  0.000  0.931  0.000
 -0.052  0.000  0.875
N of occupied +U levels =  56.2893429
 --- exit write_ns ---
 --- in v_hubbard ---
Hubbard energy    0.5065
 -------

     total cpu time spent up to now is      338.4 secs

     total energy              =    -537.78844059 Ry
     Harris-Foulkes estimate   =    -537.78842707 Ry
     estimated scf accuracy    <       0.00000063 Ry

     iteration # 12     ecut=    30.00 Ry     beta=0.20
     Davidson diagonalization with overlap
     ethr =  8.26E-10,  avg # of iterations =  1.0
 --- enter write_ns ---
 LDA+U parameters:
U( 1)     =  6.00000000
alpha( 1) =  0.00000000
U( 2)     =  0.00000000
alpha( 2) =  0.00000000
U( 3)     =  0.00000000
alpha( 3) =  0.15000000
U( 4)     =  0.00000000
alpha( 4) =  0.00000000
atom    1   Tr[ns(na)] =   8.05239
    eigenvalues: 
  0.516  0.518  0.997  0.997  0.999
    eigenvectors:
  0.000  0.000  0.000  0.000  1.000
  0.096  0.562  0.122  0.220  0.000
  0.562  0.096  0.220  0.122  0.000
  0.170  0.172  0.171  0.488  0.000
  0.172  0.170  0.487  0.171  0.000
    occupations:
  0.999  0.000  0.000  0.000  0.000
  0.000  0.681  0.000 -0.087  0.210
  0.000  0.000  0.680  0.210  0.088
  0.000 -0.087  0.210  0.833  0.000
  0.000  0.210  0.088  0.000  0.833
atom    2   Tr[ns(na)] =   8.04930
    eigenvalues: 
  0.514  0.517  0.997  0.997  0.999
    eigenvectors:
  0.000  0.000  0.000  0.000  1.000
  0.244  0.415  0.053  0.288  0.000
  0.414  0.244  0.289  0.053  0.000
  0.319  0.023  0.658  0.000  0.000
  0.023  0.319  0.000  0.658  0.000
    occupations:
  0.999  0.000  0.000  0.000  0.000
  0.000  0.680 -0.001  0.088  0.211
  0.000 -0.001  0.680  0.211 -0.087
  0.000  0.088  0.211  0.832  0.000
  0.000  0.211 -0.087  0.000  0.833
atom    3   Tr[ns(na)] =   3.79464
    eigenvalues: 
  0.356  0.357  0.381  0.402  0.402
    eigenvectors:
  0.000  0.000  1.000  0.000  0.000
  0.692  0.230  0.000  0.017  0.061
  0.230  0.692  0.000  0.061  0.017
  0.020  0.058  0.000  0.718  0.204
  0.058  0.020  0.000  0.204  0.718
    occupations:
  0.381  0.000  0.000  0.000  0.000
  0.000  0.360  0.000  0.000  0.012
  0.000  0.000  0.360  0.012  0.000
  0.000  0.000  0.012  0.398  0.000
  0.000  0.012  0.000  0.000  0.398
atom    4   Tr[ns(na)] =   3.79460
    eigenvalues: 
  0.356  0.356  0.381  0.402  0.402
    eigenvectors:
  0.000  0.000  1.000  0.000  0.000
  0.249  0.672  0.000  0.019  0.060
  0.673  0.248  0.000  0.059  0.020
  0.057  0.022  0.000  0.688  0.233
  0.022  0.058  0.000  0.233  0.687
    occupations:
  0.381  0.000  0.000  0.000  0.000
  0.000  0.360  0.000  0.000  0.012
  0.000  0.000  0.360  0.012  0.000
  0.000  0.000  0.012  0.398  0.000
  0.000  0.012  0.000  0.000  0.398
atom    5   Tr[ns(na)] =   5.42526
    eigenvalues: 
  0.836  0.929  0.948
    eigenvectors:
  0.337  0.000  0.663
  0.496  0.251  0.252
  0.167  0.749  0.085
    occupations:
  0.910 -0.046  0.026
 -0.046  0.887  0.024
  0.026  0.024  0.915
atom    6   Tr[ns(na)] =   5.43479
    eigenvalues: 
  0.839  0.931  0.948
    eigenvectors:
  0.337  0.000  0.663
  0.498  0.250  0.252
  0.165  0.750  0.085
    occupations:
  0.911  0.045  0.026
  0.045  0.889 -0.024
  0.026 -0.024  0.917
atom    7   Tr[ns(na)] =   5.43479
    eigenvalues: 
  0.838  0.931  0.948
    eigenvectors:
  0.337  0.000  0.663
  0.000  1.000  0.000
  0.663  0.000  0.337
    occupations:
  0.911  0.000 -0.052
  0.000  0.931  0.000
 -0.052  0.000  0.875
atom    8   Tr[ns(na)] =   5.43400
    eigenvalues: 
  0.838  0.931  0.948
    eigenvectors:
  0.337  0.000  0.663
  0.497  0.251  0.252
  0.167  0.749  0.085
    occupations:
  0.911 -0.045  0.026
 -0.045  0.889  0.024
  0.026  0.024  0.917
atom    9   Tr[ns(na)] =   5.43486
    eigenvalues: 
  0.839  0.931  0.948
    eigenvectors:
  0.337  0.000  0.663
  0.499  0.249  0.252
  0.165  0.751  0.084
    occupations:
  0.911  0.045  0.026
  0.045  0.889 -0.024
  0.026 -0.024  0.917
atom   10   Tr[ns(na)] =   5.43486
    eigenvalues: 
  0.839  0.931  0.948
    eigenvectors:
  0.337  0.000  0.663
  0.000  1.000  0.000
  0.663  0.000  0.337
    occupations:
  0.911  0.000 -0.052
  0.000  0.931  0.000
 -0.052  0.000  0.875
N of occupied +U levels =  56.2894861
 --- exit write_ns ---
 --- in v_hubbard ---
Hubbard energy    0.5063
 -------

     total cpu time spent up to now is      361.0 secs

     total energy              =    -537.78844893 Ry
     Harris-Foulkes estimate   =    -537.78844069 Ry
     estimated scf accuracy    <       0.00000037 Ry

     iteration # 13     ecut=    30.00 Ry     beta=0.20
     Davidson diagonalization with overlap
     ethr =  4.85E-10,  avg # of iterations =  1.8
 --- enter write_ns ---
 LDA+U parameters:
U( 1)     =  6.00000000
alpha( 1) =  0.00000000
U( 2)     =  0.00000000
alpha( 2) =  0.00000000
U( 3)     =  0.00000000
alpha( 3) =  0.15000000
U( 4)     =  0.00000000
alpha( 4) =  0.00000000
atom    1   Tr[ns(na)] =   8.05227
    eigenvalues: 
  0.516  0.518  0.997  0.997  0.999
    eigenvectors:
  0.000  0.000  0.000  0.000  1.000
  0.096  0.562  0.122  0.220  0.000
  0.562  0.096  0.220  0.121  0.000
  0.170  0.172  0.172  0.487  0.000
  0.172  0.170  0.487  0.171  0.000
    occupations:
  0.999  0.000  0.000  0.000  0.000
  0.000  0.681  0.000 -0.088  0.210
  0.000  0.000  0.680  0.210  0.088
  0.000 -0.088  0.210  0.833  0.000
  0.000  0.210  0.088  0.000  0.833
atom    2   Tr[ns(na)] =   8.04921
    eigenvalues: 
  0.514  0.517  0.997  0.997  0.999
    eigenvectors:
  0.000  0.000  0.000  0.000  1.000
  0.244  0.414  0.054  0.288  0.000
  0.414  0.244  0.288  0.054  0.000
  0.319  0.023  0.658  0.000  0.000
  0.023  0.319  0.000  0.658  0.000
    occupations:
  0.999  0.000  0.000  0.000  0.000
  0.000  0.680 -0.001  0.088  0.211
  0.000 -0.001  0.680  0.211 -0.087
  0.000  0.088  0.211  0.832  0.000
  0.000  0.211 -0.087  0.000  0.833
atom    3   Tr[ns(na)] =   3.79461
    eigenvalues: 
  0.356  0.357  0.381  0.402  0.402
    eigenvectors:
  0.000  0.000  1.000  0.000  0.000
  0.692  0.230  0.000  0.017  0.061
  0.230  0.692  0.000  0.061  0.017
  0.020  0.058  0.000  0.717  0.205
  0.058  0.020  0.000  0.205  0.717
    occupations:
  0.381  0.000  0.000  0.000  0.000
  0.000  0.360  0.000  0.000  0.012
  0.000  0.000  0.360  0.012  0.000
  0.000  0.000  0.012  0.398  0.000
  0.000  0.012  0.000  0.000  0.398
atom    4   Tr[ns(na)] =   3.79457
    eigenvalues: 
  0.356  0.356  0.381  0.402  0.402
    eigenvectors:
  0.000  0.000  1.000  0.000  0.000
  0.249  0.671  0.000  0.019  0.060
  0.673  0.249  0.000  0.059  0.020
  0.056  0.022  0.000  0.688  0.233
  0.022  0.058  0.000  0.234  0.687
    occupations:
  0.381  0.000  0.000  0.000  0.000
  0.000  0.360  0.000  0.000  0.012
  0.000  0.000  0.360  0.012  0.000
  0.000  0.000  0.012  0.398  0.000
  0.000  0.012  0.000  0.000  0.398
atom    5   Tr[ns(na)] =   5.42531
    eigenvalues: 
  0.836  0.929  0.948
    eigenvectors:
  0.337  0.000  0.663
  0.496  0.251  0.252
  0.167  0.749  0.085
    occupations:
  0.910 -0.046  0.026
 -0.046  0.887  0.024
  0.026  0.024  0.915
atom    6   Tr[ns(na)] =   5.43483
    eigenvalues: 
  0.839  0.931  0.948
    eigenvectors:
  0.337  0.000  0.663
  0.498  0.250  0.252
  0.165  0.750  0.085
    occupations:
  0.911  0.045  0.026
  0.045  0.889 -0.024
  0.026 -0.024  0.917
atom    7   Tr[ns(na)] =   5.43483
    eigenvalues: 
  0.839  0.931  0.948
    eigenvectors:
  0.337  0.000  0.663
  0.000  1.000  0.000
  0.663  0.000  0.337
    occupations:
  0.911  0.000 -0.052
  0.000  0.931  0.000
 -0.052  0.000  0.876
atom    8   Tr[ns(na)] =   5.43403
    eigenvalues: 
  0.838  0.931  0.948
    eigenvectors:
  0.337  0.000  0.663
  0.497  0.251  0.252
  0.167  0.749  0.085
    occupations:
  0.911 -0.045  0.026
 -0.045  0.889  0.024
  0.026  0.024  0.917
atom    9   Tr[ns(na)] =   5.43490
    eigenvalues: 
  0.839  0.931  0.948
    eigenvectors:
  0.337  0.000  0.663
  0.499  0.249  0.252
  0.165  0.751  0.084
    occupations:
  0.911  0.045  0.026
  0.045  0.889 -0.024
  0.026 -0.024  0.917
atom   10   Tr[ns(na)] =   5.43490
    eigenvalues: 
  0.839  0.931  0.948
    eigenvectors:
  0.337  0.000  0.663
  0.000  1.000  0.000
  0.663  0.000  0.337
    occupations:
  0.911  0.000 -0.052
  0.000  0.931  0.000
 -0.052  0.000  0.875
N of occupied +U levels =  56.2894858
 --- exit write_ns ---
 --- in v_hubbard ---
Hubbard energy    0.5062
 -------

     total cpu time spent up to now is      383.0 secs

     End of self-consistent calculation

          k = 0.0000 0.0000 0.0000 (  2175 PWs)   bands (ev):

   -19.7906 -19.6170  -6.5575  -5.9029  -5.8749  -5.8339  -5.8187  -5.4901
    -3.8966  -3.2864  -3.2833  -3.2514  -3.0182  -3.0174   5.1919   6.1897
     6.1962   6.2429   6.6535   6.6609   7.5211   7.5379   7.7277   7.7299
     8.0587   8.0609   9.3125   9.6339   9.6475   9.9894   9.9930  10.1674
    10.4690  10.4736  10.6868  10.7209  10.7271  11.0268  11.8496  11.8502
    14.7174  14.7196  15.4314  15.4336  16.2018  16.7862

     occupation numbers 
     0.0313   0.0313   0.0313   0.0313   0.0313   0.0313   0.0313   0.0313
     0.0313   0.0313   0.0313   0.0313   0.0313   0.0313   0.0313   0.0313
     0.0313   0.0313   0.0313   0.0313   0.0313   0.0313   0.0313   0.0313
     0.0313   0.0313   0.0312   0.0312   0.0312   0.0312   0.0312   0.0312
     0.0312   0.0312   0.0311   0.0310   0.0310   0.0288   0.0023   0.0023
     0.0000   0.0000   0.0000   0.0000   0.0000   0.0000

          k =-0.2471-0.1427 0.1027 (  2181 PWs)   bands (ev):

   -19.7661 -19.6610  -6.7345  -6.3103  -5.9775  -5.8648  -5.6223  -5.4916
    -3.6647  -3.4233  -2.9487  -2.9083  -2.8766  -2.7673   5.4809   5.9626
     6.2386   6.2996   6.6190   6.6484   6.9183   7.3082   7.4599   7.5919
     7.6568   7.9327   9.3537   9.5097   9.7149   9.8613   9.8944   9.9891
    10.2064  10.3767  10.4138  10.6876  10.8045  10.8449  12.2743  12.3488
    14.2677  14.2780  15.8199  16.0720  16.9739  17.2679

     occupation numbers 
     0.0625   0.0625   0.0625   0.0625   0.0625   0.0625   0.0625   0.0625
     0.0625   0.0625   0.0625   0.0625   0.0625   0.0625   0.0625   0.0625
     0.0625   0.0625   0.0625   0.0625   0.0625   0.0625   0.0625   0.0625
     0.0625   0.0625   0.0625   0.0625   0.0625   0.0625   0.0625   0.0625
     0.0625   0.0625   0.0625   0.0622   0.0616   0.0612   0.0001   0.0000
     0.0000   0.0000   0.0000   0.0000   0.0000   0.0000

          k = 0.4942 0.2853-0.2053 (  2202 PWs)   bands (ev):

   -19.7245 -19.7226  -6.7401  -6.7126  -5.9892  -5.9665  -5.5423  -5.5209
    -3.4144  -3.4074  -2.8071  -2.8041  -2.5067  -2.5008   5.6518   5.6758
     6.3710   6.3891   6.5595   6.5789   6.8830   6.9107   7.2876   7.3071
     7.4270   7.4394   9.3396   9.3473   9.7676   9.7824  10.0239  10.0406
    10.1241  10.1495  10.3766  10.3884  10.5992  10.6314  13.2531  13.3008
    13.3373  13.3833  16.8347  16.8380  17.1282  17.1316

     occupation numbers 
     0.0313   0.0313   0.0313   0.0313   0.0313   0.0313   0.0313   0.0313
     0.0313   0.0313   0.0313   0.0313   0.0313   0.0313   0.0313   0.0313
     0.0313   0.0313   0.0313   0.0313   0.0313   0.0313   0.0313   0.0313
     0.0313   0.0313   0.0312   0.0312   0.0312   0.0312   0.0312   0.0312
     0.0312   0.0312   0.0312   0.0312   0.0312   0.0312   0.0000   0.0000
     0.0000   0.0000   0.0000   0.0000   0.0000   0.0000

          k =-0.2471 0.1427 0.2053 (  2195 PWs)   bands (ev):

   -19.7580 -19.6768  -6.8501  -6.2557  -6.0772  -5.8655  -5.6717  -5.4724
    -3.4595  -3.2756  -3.1217  -2.9117  -2.8443  -2.5553   5.5257   5.6452
     6.1158   6.3146   6.5991   6.9680   7.0685   7.3000   7.3108   7.5337
     7.7267   8.0078   8.7266   9.2931   9.7047   9.8433   9.9652   9.9809
    10.2540  10.4500  10.5958  10.6719  10.7466  10.7561  11.7889  12.7040
    13.5999  14.7366  15.9971  16.1987  17.0354  17.5387

     occupation numbers 
     0.0625   0.0625   0.0625   0.0625   0.0625   0.0625   0.0625   0.0625
     0.0625   0.0625   0.0625   0.0625   0.0625   0.0625   0.0625   0.0625
     0.0625   0.0625   0.0625   0.0625   0.0625   0.0625   0.0625   0.0625
     0.0625   0.0625   0.0625   0.0625   0.0625   0.0625   0.0625   0.0625
     0.0625   0.0625   0.0624   0.0622   0.0620   0.0619   0.0068   0.0000
     0.0000   0.0000   0.0000   0.0000   0.0000   0.0000

          k = 0.4942 0.5706-0.1027 (  2198 PWs)   bands (ev):

   -19.7320 -19.7221  -6.9501  -6.6562  -6.1274  -5.9191  -5.5322  -5.3882
    -3.3336  -3.2686  -2.8846  -2.7118  -2.5288  -2.3832   5.3944   5.8088
     5.9635   6.4494   6.4686   6.6118   6.6847   7.0556   7.2801   7.3763
     7.8232   7.9437   8.7990   9.1269   9.4587   9.6923   9.7063  10.0274
    10.2352  10.3423  10.3491  10.4701  10.6547  10.8485  12.2689  12.7054
    13.3982  14.3188  16.9060  17.1151  17.3074  18.0169

     occupation numbers 
     0.0625   0.0625   0.0625   0.0625   0.0625   0.0625   0.0625   0.0625
     0.0625   0.0625   0.0625   0.0625   0.0625   0.0625   0.0625   0.0625
     0.0625   0.0625   0.0625   0.0625   0.0625   0.0625   0.0625   0.0625
     0.0625   0.0625   0.0625   0.0625   0.0625   0.0625   0.0625   0.0625
     0.0625   0.0625   0.0625   0.0625   0.0623   0.0612   0.0001   0.0000
     0.0000   0.0000   0.0000   0.0000   0.0000   0.0000

          k = 0.2471 0.4280 0.0000 (  2203 PWs)   bands (ev):

   -19.7443 -19.7020  -6.8577  -6.6406  -6.0812  -5.9768  -5.4425  -5.3869
    -3.5730  -3.3039  -2.8023  -2.7120  -2.5819  -2.5665   5.5827   5.7706
     6.1852   6.3018   6.5094   6.5910   6.8248   6.9601   7.2576   7.4015
     7.4295   8.2056   8.8900   9.3102   9.6634   9.7177   9.8870  10.0903
    10.2063  10.2648  10.3587  10.4392  10.5055  10.9243  12.1720  13.2845
    13.3672  14.1168  16.4351  16.9950  17.4192  17.9278

     occupation numbers 
     0.0625   0.0625   0.0625   0.0625   0.0625   0.0625   0.0625   0.0625
     0.0625   0.0625   0.0625   0.0625   0.0625   0.0625   0.0625   0.0625
     0.0625   0.0625   0.0625   0.0625   0.0625   0.0625   0.0625   0.0625
     0.0625   0.0625   0.0625   0.0625   0.0625   0.0625   0.0625   0.0625
     0.0625   0.0625   0.0625   0.0625   0.0625   0.0601   0.0003   0.0000
     0.0000   0.0000   0.0000   0.0000   0.0000   0.0000

          k = 0.4942-0.2853-0.4107 (  2202 PWs)   bands (ev):

   -19.7361 -19.7248  -7.1592  -6.4514  -6.2295  -6.0048  -5.5516  -5.2962
    -3.2197  -3.1116  -3.0651  -2.6418  -2.4749  -2.2179   5.0039   5.6769
     5.7910   6.4028   6.5179   6.9596   7.0583   7.1314   7.1521   7.2584
     8.0210   8.1808   8.3383   8.6072   9.4514   9.6959  10.0478  10.0713
    10.1060  10.2396  10.3401  10.5797  10.6092  10.9604  11.7473  12.3707
    13.3022  14.7521  17.0458  17.2700  17.5182  17.6141

     occupation numbers 
     0.0313   0.0313   0.0313   0.0313   0.0313   0.0313   0.0313   0.0313
     0.0313   0.0313   0.0313   0.0313   0.0313   0.0313   0.0313   0.0313
     0.0313   0.0313   0.0313   0.0313   0.0313   0.0313   0.0313   0.0313
     0.0313   0.0313   0.0313   0.0313   0.0312   0.0312   0.0312   0.0312
     0.0312   0.0312   0.0312   0.0312   0.0312   0.0297   0.0043   0.0000
     0.0000   0.0000   0.0000   0.0000   0.0000   0.0000

          k = 0.0000 0.0000 0.3080 (  2187 PWs)   bands (ev):

   -19.7657 -19.6633  -6.6227  -6.0080  -5.9664  -5.9506  -5.8581  -5.8416
    -3.2374  -3.1643  -3.1605  -2.9747  -2.8992  -2.8961   5.6145   5.9435
[...]
     0.0625   0.0625   0.0625   0.0625   0.0625   0.0625   0.0625   0.0625
     0.0625   0.0625   0.0625   0.0625   0.0625   0.0625   0.0625   0.0625
     0.0625   0.0625   0.0624   0.0623   0.0620   0.0619   0.0069   0.0000
     0.0000   0.0000   0.0000   0.0000   0.0000   0.0000

          k = 0.4942-0.5706 0.1027 (  2198 PWs)   bands (ev):

   -19.7308 -19.7214  -6.9656  -6.6507  -6.1421  -5.8894  -5.5224  -5.4029
    -3.3358  -3.2690  -2.8826  -2.7151  -2.5306  -2.3865   5.4076   5.8210
     5.9538   6.4462   6.4778   6.6105   6.6866   7.0489   7.2873   7.3897
     7.8108   7.9359   8.7967   9.1272   9.4615   9.6829   9.7125  10.0205
    10.2404  10.3284  10.3677  10.4842  10.6540  10.8255  12.2677  12.7080
    13.3947  14.3200  16.9079  17.1151  17.3088  18.0177

     occupation numbers 
     0.0625   0.0625   0.0625   0.0625   0.0625   0.0625   0.0625   0.0625
     0.0625   0.0625   0.0625   0.0625   0.0625   0.0625   0.0625   0.0625
     0.0625   0.0625   0.0625   0.0625   0.0625   0.0625   0.0625   0.0625
     0.0625   0.0625   0.0625   0.0625   0.0625   0.0625   0.0625   0.0625
     0.0625   0.0625   0.0625   0.0625   0.0623   0.0614   0.0001   0.0000
     0.0000   0.0000   0.0000   0.0000   0.0000   0.0000

          k =-0.7412 0.1427-0.1027 (  2198 PWs)   bands (ev):

   -19.7308 -19.7214  -6.9652  -6.6515  -6.1411  -5.8905  -5.5214  -5.4036
    -3.3350  -3.2691  -2.8824  -2.7161  -2.5300  -2.3869   5.4092   5.8182
     5.9562   6.4527   6.4706   6.6176   6.6769   7.0497   7.2852   7.3949
     7.8095   7.9337   8.7964   9.1278   9.4634   9.6865   9.7107  10.0224
    10.2349  10.3324  10.3684  10.4837  10.6471  10.8291  12.2678  12.7083
    13.3948  14.3203  16.9061  17.1180  17.3082  18.0173

     occupation numbers 
     0.0625   0.0625   0.0625   0.0625   0.0625   0.0625   0.0625   0.0625
     0.0625   0.0625   0.0625   0.0625   0.0625   0.0625   0.0625   0.0625
     0.0625   0.0625   0.0625   0.0625   0.0625   0.0625   0.0625   0.0625
     0.0625   0.0625   0.0625   0.0625   0.0625   0.0625   0.0625   0.0625
     0.0625   0.0625   0.0625   0.0625   0.0623   0.0614   0.0001   0.0000
     0.0000   0.0000   0.0000   0.0000   0.0000   0.0000

          k = 0.2471-0.7133-0.1027 (  2198 PWs)   bands (ev):

   -19.7307 -19.7214  -6.9656  -6.6507  -6.1427  -5.8888  -5.5201  -5.4056
    -3.3349  -3.2689  -2.8829  -2.7146  -2.5303  -2.3872   5.4090   5.8164
     5.9557   6.4536   6.4714   6.6126   6.6813   7.0513   7.2866   7.3890
     7.8135   7.9351   8.7997   9.1244   9.4591   9.6955   9.7043  10.0245
    10.2459  10.3382  10.3504  10.4679  10.6607  10.8315  12.2677  12.7083
    13.3949  14.3203  16.9082  17.1147  17.3081  18.0158

     occupation numbers 
     0.0625   0.0625   0.0625   0.0625   0.0625   0.0625   0.0625   0.0625
     0.0625   0.0625   0.0625   0.0625   0.0625   0.0625   0.0625   0.0625
     0.0625   0.0625   0.0625   0.0625   0.0625   0.0625   0.0625   0.0625
     0.0625   0.0625   0.0625   0.0625   0.0625   0.0625   0.0625   0.0625
     0.0625   0.0625   0.0625   0.0625   0.0623   0.0613   0.0001   0.0000
     0.0000   0.0000   0.0000   0.0000   0.0000   0.0000

          k =-0.7412-0.1427 0.1027 (  2198 PWs)   bands (ev):

   -19.7307 -19.7214  -6.9660  -6.6500  -6.1436  -5.8877  -5.5212  -5.4049
    -3.3357  -3.2688  -2.8830  -2.7136  -2.5309  -2.3869   5.4075   5.8190
     5.9534   6.4484   6.4769   6.6058   6.6912   7.0499   7.2882   7.3848
     7.8148   7.9369   8.7998   9.1241   9.4573   9.6925   9.7052  10.0226
    10.2517  10.3325  10.3514  10.4686  10.6672  10.8280  12.2675  12.7081
    13.3948  14.3200  16.9101  17.1119  17.3086  18.0164

     occupation numbers 
     0.0625   0.0625   0.0625   0.0625   0.0625   0.0625   0.0625   0.0625
     0.0625   0.0625   0.0625   0.0625   0.0625   0.0625   0.0625   0.0625
     0.0625   0.0625   0.0625   0.0625   0.0625   0.0625   0.0625   0.0625
     0.0625   0.0625   0.0625   0.0625   0.0625   0.0625   0.0625   0.0625
     0.0625   0.0625   0.0625   0.0625   0.0623   0.0614   0.0001   0.0000
     0.0000   0.0000   0.0000   0.0000   0.0000   0.0000

          k = 0.2471 0.7133 0.1027 (  2198 PWs)   bands (ev):

   -19.7319 -19.7221  -6.9505  -6.6554  -6.1285  -5.9179  -5.5331  -5.3876
    -3.3343  -3.2685  -2.8847  -2.7108  -2.5293  -2.3829   5.3928   5.8107
     5.9623   6.4454   6.4733   6.6047   6.6939   7.0547   7.2821   7.3716
     7.8239   7.9464   8.7991   9.1265   9.4567   9.6886   9.7080  10.0259
    10.2408  10.3369  10.3495  10.4707  10.6616  10.8450  12.2687  12.7051
    13.3981  14.3185  16.9078  17.1123  17.3080  18.0173

     occupation numbers 
     0.0625   0.0625   0.0625   0.0625   0.0625   0.0625   0.0625   0.0625
     0.0625   0.0625   0.0625   0.0625   0.0625   0.0625   0.0625   0.0625
     0.0625   0.0625   0.0625   0.0625   0.0625   0.0625   0.0625   0.0625
     0.0625   0.0625   0.0625   0.0625   0.0625   0.0625   0.0625   0.0625
     0.0625   0.0625   0.0625   0.0625   0.0623   0.0612   0.0001   0.0000
     0.0000   0.0000   0.0000   0.0000   0.0000   0.0000

          k = 0.2471-0.4280 0.0000 (  2203 PWs)   bands (ev):

   -19.7444 -19.7018  -6.8506  -6.6548  -6.0513  -5.9939  -5.4581  -5.3768
    -3.5755  -3.3039  -2.8055  -2.7053  -2.5801  -2.5695   5.5759   5.7580
     6.1952   6.2950   6.5117   6.6003   6.8330   6.9692   7.2556   7.4066
     7.4430   8.1842   8.8738   9.2860   9.6672   9.7274   9.8975  10.0893
    10.2066  10.2739  10.3647  10.4458  10.5082  10.9061  12.1754  13.2850
    13.3682  14.1138  16.4343  16.9978  17.4224  17.9278

     occupation numbers 
     0.0625   0.0625   0.0625   0.0625   0.0625   0.0625   0.0625   0.0625
     0.0625   0.0625   0.0625   0.0625   0.0625   0.0625   0.0625   0.0625
     0.0625   0.0625   0.0625   0.0625   0.0625   0.0625   0.0625   0.0625
     0.0625   0.0625   0.0625   0.0625   0.0625   0.0625   0.0625   0.0625
     0.0625   0.0625   0.0625   0.0625   0.0625   0.0604   0.0003   0.0000
     0.0000   0.0000   0.0000   0.0000   0.0000   0.0000

          k =-0.4942 0.0000 0.0000 (  2203 PWs)   bands (ev):

   -19.7444 -19.7018  -6.8506  -6.6549  -6.0511  -5.9940  -5.4581  -5.3768
    -3.5755  -3.3039  -2.8055  -2.7053  -2.5799  -2.5698   5.5759   5.7580
     6.1951   6.2950   6.5114   6.6003   6.8334   6.9691   7.2555   7.4109
     7.4388   8.1842   8.8739   9.2860   9.6680   9.7268   9.8975  10.0896
    10.2062  10.2734  10.3637  10.4470  10.5088  10.9060  12.1754  13.2849
    13.3683  14.1138  16.4344  16.9978  17.4224  17.9275

     occupation numbers 
     0.0625   0.0625   0.0625   0.0625   0.0625   0.0625   0.0625   0.0625
     0.0625   0.0625   0.0625   0.0625   0.0625   0.0625   0.0625   0.0625
     0.0625   0.0625   0.0625   0.0625   0.0625   0.0625   0.0625   0.0625
     0.0625   0.0625   0.0625   0.0625   0.0625   0.0625   0.0625   0.0625
     0.0625   0.0625   0.0625   0.0625   0.0625   0.0604   0.0003   0.0000
     0.0000   0.0000   0.0000   0.0000   0.0000   0.0000

          k = 0.4942 0.2853 0.4107 (  2202 PWs)   bands (ev):

   -19.7345 -19.7226  -7.1764  -6.4581  -6.2465  -5.9668  -5.5304  -5.3151
    -3.2210  -3.1128  -3.0657  -2.6479  -2.4785  -2.2226   5.0221   5.6993
     5.7788   6.4115   6.5164   6.9508   7.0477   7.1241   7.1715   7.2810
     8.0237   8.1823   8.3056   8.6331   9.4209   9.6894  10.0440  10.0799
    10.1131  10.2483  10.3382  10.5906  10.6035  10.9399  11.7448  12.3747
    13.2978  14.7538  17.0476  17.2710  17.5216  17.6168

     occupation numbers 
     0.0313   0.0313   0.0313   0.0313   0.0313   0.0313   0.0313   0.0313
     0.0313   0.0313   0.0313   0.0313   0.0313   0.0313   0.0313   0.0313
     0.0313   0.0313   0.0313   0.0313   0.0313   0.0313   0.0313   0.0313
     0.0313   0.0313   0.0313   0.0313   0.0312   0.0312   0.0312   0.0312
     0.0312   0.0312   0.0312   0.0312   0.0312   0.0299   0.0044   0.0000
     0.0000   0.0000   0.0000   0.0000   0.0000   0.0000

          k = 0.0000 0.5706-0.4107 (  2202 PWs)   bands (ev):

   -19.7345 -19.7226  -7.1764  -6.4582  -6.2463  -5.9668  -5.5304  -5.3151
    -3.2210  -3.1128  -3.0656  -2.6479  -2.4785  -2.2226   5.0221   5.6993
     5.7788   6.4114   6.5164   6.9507   7.0483   7.1237   7.1715   7.2810
     8.0237   8.1826   8.3053   8.6332   9.4210   9.6894  10.0442  10.0798
    10.1128  10.2487  10.3384  10.5856  10.6081  10.9399  11.7448  12.3747
    13.2978  14.7538  17.0475  17.2710  17.5217  17.6168

     occupation numbers 
     0.0313   0.0313   0.0313   0.0313   0.0313   0.0313   0.0313   0.0313
     0.0313   0.0313   0.0313   0.0313   0.0313   0.0313   0.0313   0.0313
     0.0313   0.0313   0.0313   0.0313   0.0313   0.0313   0.0313   0.0313
     0.0313   0.0313   0.0313   0.0313   0.0312   0.0312   0.0312   0.0312
     0.0312   0.0312   0.0312   0.0312   0.0312   0.0299   0.0044   0.0000
     0.0000   0.0000   0.0000   0.0000   0.0000   0.0000

          k = 0.7412-0.4280 0.0000 (  2204 PWs)   bands (ev):

   -19.7433 -19.7049  -6.7434  -6.6063  -6.1545  -5.8466  -5.7120  -5.5486
    -3.2118  -3.1058  -3.0470  -2.6832  -2.6696  -2.5848   5.6801   5.8420
     6.0644   6.4388   6.4675   6.7232   6.8035   6.9591   7.3071   7.3738
     7.5462   8.0295   8.8741   9.3938   9.4247   9.6620   9.8298  10.0861
    10.2348  10.2510  10.4770  10.4838  10.5510  10.6219  12.1695  13.2044
    13.2832  14.1461  16.6880  16.7273  17.5898  17.7959

     occupation numbers 
     0.0625   0.0625   0.0625   0.0625   0.0625   0.0625   0.0625   0.0625
     0.0625   0.0625   0.0625   0.0625   0.0625   0.0625   0.0625   0.0625
     0.0625   0.0625   0.0625   0.0625   0.0625   0.0625   0.0625   0.0625
     0.0625   0.0625   0.0625   0.0625   0.0625   0.0625   0.0625   0.0625
     0.0625   0.0625   0.0625   0.0625   0.0624   0.0623   0.0003   0.0000
     0.0000   0.0000   0.0000   0.0000   0.0000   0.0000

          k = 0.0000-0.8559 0.0000 (  2204 PWs)   bands (ev):

   -19.7435 -19.7047  -6.7366  -6.6189  -6.1466  -5.8406  -5.7062  -5.5634
    -3.2137  -3.1054  -3.0471  -2.6781  -2.6680  -2.5882   5.6674   5.8235
     6.0724   6.4454   6.4707   6.7293   6.8162   6.9610   7.3147   7.3846
     7.5534   8.0081   8.8500   9.3986   9.4074   9.6701   9.8313  10.0929
    10.2421  10.2615  10.4755  10.4908  10.5360  10.6204  12.1725  13.2047
    13.2841  14.1433  16.6858  16.7288  17.5919  17.7964

     occupation numbers 
     0.0625   0.0625   0.0625   0.0625   0.0625   0.0625   0.0625   0.0625
     0.0625   0.0625   0.0625   0.0625   0.0625   0.0625   0.0625   0.0625
     0.0625   0.0625   0.0625   0.0625   0.0625   0.0625   0.0625   0.0625
     0.0625   0.0625   0.0625   0.0625   0.0625   0.0625   0.0625   0.0625
     0.0625   0.0625   0.0625   0.0625   0.0624   0.0623   0.0003   0.0000
     0.0000   0.0000   0.0000   0.0000   0.0000   0.0000

          k = 0.4942-0.2853-0.1027 (  2211 PWs)   bands (ev):

   -19.7333 -19.7207  -6.9672  -6.5516  -6.3283  -5.7258  -5.6358  -5.3615
    -3.3495  -3.1701  -3.0517  -2.5999  -2.5669  -2.3744   5.4110   5.8670
     5.8831   6.2696   6.5214   6.7564   6.8627   6.8739   7.2614   7.2960
     7.9025   7.9644   8.7696   9.2662   9.3380   9.6208   9.8550   9.9155
    10.2977  10.3139  10.4844  10.5599  10.6157  10.6639  12.2248  12.7189
    13.4456  14.3003  16.8869  16.9365  17.5797  17.9283

     occupation numbers 
     0.0625   0.0625   0.0625   0.0625   0.0625   0.0625   0.0625   0.0625
     0.0625   0.0625   0.0625   0.0625   0.0625   0.0625   0.0625   0.0625
     0.0625   0.0625   0.0625   0.0625   0.0625   0.0625   0.0625   0.0625
     0.0625   0.0625   0.0625   0.0625   0.0625   0.0625   0.0625   0.0625
     0.0625   0.0625   0.0625   0.0624   0.0624   0.0623   0.0002   0.0000
     0.0000   0.0000   0.0000   0.0000   0.0000   0.0000

          k = 0.0000-0.5706 0.1027 (  2211 PWs)   bands (ev):

   -19.7321 -19.7200  -6.9817  -6.5472  -6.3304  -5.7111  -5.6247  -5.3759
    -3.3496  -3.1704  -3.0521  -2.6028  -2.5671  -2.3783   5.4250   5.8599
     5.8941   6.2631   6.5243   6.7599   6.8571   6.8784   7.2742   7.2974
     7.8758   7.9761   8.7662   9.2831   9.3431   9.5969   9.8618   9.9063
    10.3036  10.3225  10.4877  10.5565  10.6078  10.6564  12.2235  12.7217
    13.4423  14.3019  16.8876  16.9361  17.5790  17.9287

     occupation numbers 
     0.0625   0.0625   0.0625   0.0625   0.0625   0.0625   0.0625   0.0625
     0.0625   0.0625   0.0625   0.0625   0.0625   0.0625   0.0625   0.0625
     0.0625   0.0625   0.0625   0.0625   0.0625   0.0625   0.0625   0.0625
     0.0625   0.0625   0.0625   0.0625   0.0625   0.0625   0.0625   0.0625
     0.0625   0.0625   0.0625   0.0624   0.0624   0.0623   0.0002   0.0000
     0.0000   0.0000   0.0000   0.0000   0.0000   0.0000

          k = 0.7412 0.4280 0.3080 (  2210 PWs)   bands (ev):

   -19.7318 -19.7224  -6.9185  -6.4588  -6.3092  -5.7968  -5.7695  -5.5098
    -3.0838  -3.0672  -2.9711  -2.7374  -2.6282  -2.4290   5.4816   5.9377
     5.9695   6.2835   6.5346   6.6492   6.8653   6.9748   7.3107   7.3530
     7.8586   7.9483   8.7097   9.2138   9.3986   9.4720   9.6466  10.0343
    10.2450  10.2834  10.4023  10.5385  10.6552  10.6898  12.1840  12.6760
    13.3916  14.2720  17.0620  17.0722  17.5468  17.9036

     occupation numbers 
     0.0625   0.0625   0.0625   0.0625   0.0625   0.0625   0.0625   0.0625
     0.0625   0.0625   0.0625   0.0625   0.0625   0.0625   0.0625   0.0625
     0.0625   0.0625   0.0625   0.0625   0.0625   0.0625   0.0625   0.0625
     0.0625   0.0625   0.0625   0.0625   0.0625   0.0625   0.0625   0.0625
     0.0625   0.0625   0.0625   0.0624   0.0623   0.0622   0.0003   0.0000
     0.0000   0.0000   0.0000   0.0000   0.0000   0.0000

          k = 0.0000 0.8559-0.3080 (  2210 PWs)   bands (ev):

   -19.7318 -19.7224  -6.9185  -6.4588  -6.3093  -5.7967  -5.7696  -5.5098
    -3.0838  -3.0672  -2.9711  -2.7374  -2.6282  -2.4290   5.4816   5.9376
     5.9697   6.2834   6.5344   6.6495   6.8648   6.9752   7.3114   7.3521
     7.8586   7.9484   8.7098   9.2137   9.3984   9.4722   9.6466  10.0347
    10.2447  10.2839  10.4010  10.5391  10.6557  10.6894  12.1840  12.6760
    13.3916  14.2720  17.0620  17.0721  17.5468  17.9036

     occupation numbers 
     0.0625   0.0625   0.0625   0.0625   0.0625   0.0625   0.0625   0.0625
     0.0625   0.0625   0.0625   0.0625   0.0625   0.0625   0.0625   0.0625
     0.0625   0.0625   0.0625   0.0625   0.0625   0.0625   0.0625   0.0625
     0.0625   0.0625   0.0625   0.0625   0.0625   0.0625   0.0625   0.0625
     0.0625   0.0625   0.0625   0.0624   0.0623   0.0622   0.0003   0.0000
     0.0000   0.0000   0.0000   0.0000   0.0000   0.0000

          k = 0.2471 0.7133-0.2053 (  2206 PWs)   bands (ev):

   -19.7303 -19.7298  -6.8905  -6.8723  -6.0600  -6.0276  -5.4494  -5.4288
    -3.1614  -3.1610  -2.8272  -2.8221  -2.3808  -2.3777   5.6761   5.6878
     5.8893   5.9089   6.6094   6.6152   6.8118   6.8253   7.2736   7.2795
     8.1644   8.1906   8.7741   8.7976   9.4275   9.4429   9.9030   9.9138
    10.2237  10.2309  10.3659  10.3861  10.7155  10.7375  12.2263  12.2334
    13.9665  13.9785  17.4258  17.4288  17.8716  17.8727

     occupation numbers 
     0.0625   0.0625   0.0625   0.0625   0.0625   0.0625   0.0625   0.0625
     0.0625   0.0625   0.0625   0.0625   0.0625   0.0625   0.0625   0.0625
     0.0625   0.0625   0.0625   0.0625   0.0625   0.0625   0.0625   0.0625
     0.0625   0.0625   0.0625   0.0625   0.0625   0.0625   0.0625   0.0625
     0.0625   0.0625   0.0625   0.0625   0.0621   0.0620   0.0002   0.0002
     0.0000   0.0000   0.0000   0.0000   0.0000   0.0000

          k =-0.7412-0.1427-0.2053 (  2206 PWs)   bands (ev):

   -19.7292 -19.7290  -6.9078  -6.8732  -6.0306  -6.0289  -5.4607  -5.4288
    -3.1633  -3.1613  -2.8233  -2.8221  -2.3907  -2.3770   5.6817   5.6939
     5.8905   5.8966   6.6181   6.6329   6.8119   6.8339   7.2765   7.2936
     8.1636   8.1650   8.7708   8.7742   9.4251   9.4257   9.9173   9.9327
    10.2307  10.2414  10.3692  10.3779  10.7133  10.7191  12.2278  12.2354
    13.9651  13.9779  17.4260  17.4268  17.8726  17.8752

     occupation numbers 
     0.0625   0.0625   0.0625   0.0625   0.0625   0.0625   0.0625   0.0625
     0.0625   0.0625   0.0625   0.0625   0.0625   0.0625   0.0625   0.0625
     0.0625   0.0625   0.0625   0.0625   0.0625   0.0625   0.0625   0.0625
     0.0625   0.0625   0.0625   0.0625   0.0625   0.0625   0.0625   0.0625
     0.0625   0.0625   0.0625   0.0625   0.0621   0.0621   0.0002   0.0002
     0.0000   0.0000   0.0000   0.0000   0.0000   0.0000

     the Fermi energy is    11.4339 ev

!    total energy              =    -537.78846449 Ry
     Harris-Foulkes estimate   =    -537.78844919 Ry
     estimated scf accuracy    <          7.9E-09 Ry

     The total energy is the sum of the following terms:

     one-electron contribution =     -32.88211652 Ry
     hartree contribution      =      83.65457140 Ry
     xc contribution           =    -199.61982737 Ry
     ewald contribution        =    -389.44315552 Ry
     Hubbard energy            =       0.50622349 Ry
     smearing contrib. (-TS)   =      -0.00415996 Ry

     convergence has been achieved in  13 iterations

     init_run     :      6.91s CPU      7.00s WALL (       1 calls)
     electrons    :    373.92s CPU    375.60s WALL (       1 calls)

     Called by init_run:
     wfcinit      :      0.00s CPU      0.00s WALL (       1 calls)
     potinit      :      0.28s CPU      0.30s WALL (       1 calls)

     Called by electrons:
     c_bands      :    288.47s CPU    289.33s WALL (      13 calls)
     sum_band     :     61.65s CPU     62.13s WALL (      13 calls)
     v_of_rho     :      3.27s CPU      3.29s WALL (      14 calls)
     v_h          :      0.17s CPU      0.17s WALL (      14 calls)
     v_xc         :      3.10s CPU      3.11s WALL (      14 calls)
     newd         :     21.57s CPU     21.58s WALL (      14 calls)
     mix_rho      :      0.32s CPU      0.32s WALL (      13 calls)

     Called by c_bands:
     init_us_2    :      3.09s CPU      3.11s WALL (     936 calls)
     cegterg      :    279.46s CPU    279.89s WALL (     468 calls)

     Called by sum_band:
     sum_band:bec :      0.35s CPU      0.35s WALL (     468 calls)
     addusdens    :     14.14s CPU     14.15s WALL (      13 calls)

     Called by *egterg:
     h_psi        :    208.58s CPU    208.96s WALL (    1838 calls)
     s_psi        :     12.17s CPU     12.20s WALL (    1838 calls)
     g_psi        :      1.12s CPU      1.10s WALL (    1370 calls)
     cdiaghg      :     20.30s CPU     20.30s WALL (    1802 calls)
     cegterg:over :     13.84s CPU     13.86s WALL (    1370 calls)
     cegterg:upda :      8.73s CPU      8.77s WALL (    1370 calls)
     cegterg:last :      6.75s CPU      6.76s WALL (     539 calls)

     Called by h_psi:
     h_psi:vloc   :    169.15s CPU    169.50s WALL (    1838 calls)
     h_psi:vnl    :     24.96s CPU     24.99s WALL (    1838 calls)
     add_vuspsi   :     12.24s CPU     12.25s WALL (    1838 calls)
     vhpsi        :     14.00s CPU     14.01s WALL (    1838 calls)

     General routines
     calbec       :     26.37s CPU     26.40s WALL (    4612 calls)
     fft          :      2.07s CPU      2.08s WALL (     219 calls)
     ffts         :      0.06s CPU      0.06s WALL (      27 calls)
     fftw         :    167.33s CPU    167.65s WALL (  131672 calls)
     interpolate  :      0.35s CPU      0.35s WALL (      27 calls)
     davcio       :      0.01s CPU      0.79s WALL (     972 calls)

     Parallel routines
     fft_scatter  :     37.57s CPU     37.36s WALL (  131918 calls)
     Hubbard U routines
     new_ns       :      2.57s CPU      2.94s WALL (      13 calls)
     vhpsi        :     14.00s CPU     14.01s WALL (    1838 calls)

     PWSCF        :  6m21.26s CPU     6m23.06s WALL


   This run was terminated on:   6:24: 3  13Nov2012            

=------------------------------------------------------------------------------=
