   JOB DONE.
=------------------------------------------------------------------------------=

     Program PWSCF v.5.0.1 starts on 13Nov2012 at  5:28:29 

     This program is part of the open-source Quantum ESPRESSO suite
     for quantum simulation of materials; please cite
         "P. Giannozzi et al., J. Phys.:Condens. Matter 21 395502 (2009);
          URL http://www.quantum-espresso.org", 
     in publications or presentations arising from this work. More details at
     http://www.quantum-espresso.org/quote.php

     Parallel version (MPI), running on     2 processors
     R & G space division:  proc/pool =    2

     Current dimensions of program PWSCF are:
     Max number of different atomic species (ntypx) = 10
     Max number of k-points (npk) =  40000
     Max angular momentum in pseudopotentials (lmaxx) =  3
     Reading input from CoLaO_U600_a-15.in
               file Co.pbe-nd-rrkjus.UPF: wavefunction(s)  4S 3D renormalized
               file O.pbe-rrkjus.UPF: wavefunction(s)  2S renormalized
               file O.pbe-rrkjus.UPF: wavefunction(s)  2S renormalized

     Subspace diagonalization in iterative solution of the eigenvalue problem:
     a serial algorithm will be used


     Parallelization info
     --------------------
     sticks:   dense  smooth     PW     G-vecs:    dense   smooth      PW
     Min        1112     444    131                34808     8786    1448
     Max        1113     445    132                34809     8787    1449
     Sum        2225     889    263                69617    17573    2897


     Title: 
     GGA + U, U = 6.000, alpha = -0.150                                         


     bravais-lattice index     =            5
     lattice parameter (alat)  =      10.3292  a.u.
     unit-cell volume          =     793.0599 (a.u.)^3
     number of atoms/cell      =           10
     number of atomic types    =            4
     number of electrons       =        76.00
     number of Kohn-Sham states=           46
     kinetic-energy cutoff     =      30.0000  Ry
     charge density cutoff     =     300.0000  Ry
     convergence threshold     =      1.0E-08
     mixing beta               =       0.2000
     number of iterations used =            8  plain     mixing
     Exchange-correlation      =  SLA  PW   PBE  PBE ( 1 4 3 4 0)
     EXX-fraction              =        0.00

     celldm(1)=  10.329242  celldm(2)=   0.000000  celldm(3)=   0.000000
     celldm(4)=   0.488100  celldm(5)=   0.000000  celldm(6)=   0.000000

     crystal axes: (cart. coord. in units of alat)
               a(1) = (   0.505915  -0.292090   0.811624 )  
               a(2) = (   0.000000   0.584180   0.811624 )  
               a(3) = (  -0.505915  -0.292090   0.811624 )  

     reciprocal axes: (cart. coord. in units 2 pi/alat)
               b(1) = (  0.988308 -0.570600  0.410699 )  
               b(2) = (  0.000000  1.141200  0.410699 )  
               b(3) = ( -0.988308 -0.570600  0.410699 )  


     PseudoPot. # 1 for Co read from file:
     /home/mcurnan/dft-course/Project1/example_LaCoO3/Co.pbe-nd-rrkjus.UPF
     MD5 check sum: 3e47a84addf5e975e0edeaeee2a73f59
     Pseudo is Ultrasoft + core correction, Zval =  9.0
     Generated by new atomic code, or converted to UPF format
     Using radial grid of  961 points,  6 beta functions with: 
                l(1) =   0
                l(2) =   0
                l(3) =   1
                l(4) =   1
                l(5) =   2
                l(6) =   2
     Q(r) pseudized with 0 coefficients 


     PseudoPot. # 2 for La read from file:
     /home/mcurnan/dft-course/Project1/example_LaCoO3/La.pbe-nsp-van.UPF
     MD5 check sum: b2f11743f52dde65f77d1302becd7929
     Pseudo is Ultrasoft + core correction, Zval = 11.0
     Generated by new atomic code, or converted to UPF format
     Using radial grid of  907 points,  6 beta functions with: 
                l(1) =   0
                l(2) =   0
                l(3) =   1
                l(4) =   1
                l(5) =   2
                l(6) =   2
     Q(r) pseudized with  6 coefficients,  rinner =    1.200   1.200   1.200
                                                       1.200   1.200

     PseudoPot. # 3 for O  read from file:
     /home/mcurnan/dft-course/Project1/example_LaCoO3/O.pbe-rrkjus.UPF
     MD5 check sum: 390ba29e75625707450f3bd3f0eb6be9
     Pseudo is Ultrasoft, Zval =  6.0
     Generated by new atomic code, or converted to UPF format
     Using radial grid of 1269 points,  4 beta functions with: 
                l(1) =   0
                l(2) =   0
                l(3) =   1
                l(4) =   1
     Q(r) pseudized with 0 coefficients 


     PseudoPot. # 4 for O  read from file:
     /home/mcurnan/dft-course/Project1/example_LaCoO3/O.pbe-rrkjus.UPF
     MD5 check sum: 390ba29e75625707450f3bd3f0eb6be9
     Pseudo is Ultrasoft, Zval =  6.0
     Generated by new atomic code, or converted to UPF format
     Using radial grid of 1269 points,  4 beta functions with: 
                l(1) =   0
                l(2) =   0
                l(3) =   1
                l(4) =   1
     Q(r) pseudized with 0 coefficients 


     atomic species   valence    mass     pseudopotential
        Co1            9.00     1.00000     Co( 1.00)
        La1           11.00     1.00000     La( 1.00)
        O1             6.00     1.00000     O ( 1.00)
        O2             6.00     1.00000     O ( 1.00)
 -----
     simplified LDA+U calculation, Hubbard_lmax = 2
     atomic species  L   Hubbard U  Hubbard alpha
        Co1          2    6.000000    0.000000
        La1          2    0.000000    0.000000
        O1           1    0.000000   -0.150000
        O2           1    0.000000    0.000000
 -----

     No symmetry found


                                    s                        frac. trans.

      isym =  1     identity                                     

 cryst.   s( 1) = (     1          0          0      )
                  (     0          1          0      )
                  (     0          0          1      )

 cart.    s( 1) = (  1.0000000  0.0000000  0.0000000 )
                  (  0.0000000  1.0000000  0.0000000 )
                  (  0.0000000  0.0000000  1.0000000 )


     point group C_1 (1)    
     there are  1 classes
     the character table:

       E    
A      1.00

     the symmetry operations in each class:
     E        1

   Cartesian axes

     site n.     atom                  positions (alat units)
         1           Co1 tau(   1) = (   0.2228050  -0.1992639   1.0141240  )
         2           Co1 tau(   2) = (  -0.2831100   0.0928263   1.4199360  )
         3           La1 tau(   3) = (  -0.2831100   0.0928263   0.8112181  )
         4           La1 tau(   4) = (   0.2228050   0.3849164   1.2170300  )
         5           O1  tau(   5) = (   0.0000000   0.0000000   0.0000000  )
         6           O2  tau(   6) = (   0.0008601   0.1861491   1.6232478  )
         7           O2  tau(   7) = (   0.1616398   0.0923297   0.8116239  )
         8           O2  tau(   8) = (  -0.0603051  -0.1064377   1.2166242  )
         9           O2  tau(   9) = (   0.4447499  -0.0004966   1.2166242  )
        10           O2  tau(  10) = (  -0.2219449   0.3854130   1.2166242  )

   Crystallographic axes

     site n.     atom                  positions (cryst. coord.)
         1           Co1 tau(   1) = (  0.7504000  0.1891000  0.3100000  )
         2           Co1 tau(   2) = (  0.2504000  0.6891000  0.8100000  )
         3           La1 tau(   3) = (  0.0004000  0.4391000  0.5600000  )
         4           La1 tau(   4) = (  0.5004000  0.9391000  0.0600000  )
         5           O1  tau(   5) = (  0.0000000  0.0000000  0.0000000  )
         6           O2  tau(   6) = (  0.5613000  0.8791000  0.5596000  )
         7           O2  tau(   7) = (  0.4404000  0.4387000  0.1209000  )
         8           O2  tau(   8) = (  0.5008000  0.3782000  0.6200000  )
         9           O2  tau(   9) = (  0.9395000  0.4991000  0.0604000  )
        10           O2  tau(  10) = (  0.0604000  0.9395000  0.4991000  )

     number of k points=    36  gaussian smearing, width (Ry)=  0.0300
                       cart. coord. in units 2pi/alat
        k(    1) = (   0.0000000   0.0000000   0.0000000), wk =   0.0312500
        k(    2) = (  -0.2470771  -0.1426500   0.1026748), wk =   0.0625000
        k(    3) = (   0.4941541   0.2853000  -0.2053496), wk =   0.0312500
        k(    4) = (  -0.2470771   0.1426500   0.2053496), wk =   0.0625000
        k(    5) = (   0.4941541   0.5706001  -0.1026748), wk =   0.0625000
        k(    6) = (   0.2470771   0.4279500   0.0000000), wk =   0.0625000
        k(    7) = (   0.4941541  -0.2853000  -0.4106993), wk =   0.0312500
        k(    8) = (   0.0000000   0.0000000   0.3080244), wk =   0.0625000
        k(    9) = (   0.7412312   0.4279500   0.0000000), wk =   0.0625000
        k(   10) = (   0.4941541   0.2853000   0.1026748), wk =   0.0625000
        k(   11) = (   0.7412312  -0.4279500  -0.3080244), wk =   0.0625000
        k(   12) = (   0.4941541  -0.5706001  -0.2053496), wk =   0.0625000
        k(   13) = (   0.0000000   0.0000000  -0.6160489), wk =   0.0312500
        k(   14) = (  -0.2470771   0.1426500  -0.1026748), wk =   0.0625000
        k(   15) = (   0.0000000   0.2853000   0.1026748), wk =   0.0625000
        k(   16) = (   0.4941541  -0.2853000   0.2053496), wk =   0.0312500
        k(   17) = (   0.0000000  -0.5706001  -0.2053496), wk =   0.0312500
        k(   18) = (  -0.2470771  -0.1426500  -0.2053496), wk =   0.0625000
        k(   19) = (   0.0000000  -0.2853000   0.2053496), wk =   0.0625000
        k(   20) = (   0.4941541  -0.5706001   0.1026748), wk =   0.0625000
        k(   21) = (  -0.7412312   0.1426500  -0.1026748), wk =   0.0625000
        k(   22) = (   0.2470771  -0.7132501  -0.1026748), wk =   0.0625000
        k(   23) = (  -0.7412312  -0.1426500   0.1026748), wk =   0.0625000
        k(   24) = (   0.2470771   0.7132501   0.1026748), wk =   0.0625000
        k(   25) = (   0.2470771  -0.4279500   0.0000000), wk =   0.0625000
        k(   26) = (  -0.4941541   0.0000000   0.0000000), wk =   0.0625000
        k(   27) = (   0.4941541   0.2853000   0.4106993), wk =   0.0312500
        k(   28) = (   0.0000000   0.5706001  -0.4106993), wk =   0.0312500
        k(   29) = (   0.7412312  -0.4279500   0.0000000), wk =   0.0625000
        k(   30) = (   0.0000000  -0.8559001   0.0000000), wk =   0.0625000
        k(   31) = (   0.4941541  -0.2853000  -0.1026748), wk =   0.0625000
        k(   32) = (   0.0000000  -0.5706001   0.1026748), wk =   0.0625000
        k(   33) = (   0.7412312   0.4279500   0.3080244), wk =   0.0625000
        k(   34) = (   0.0000000   0.8559001  -0.3080244), wk =   0.0625000
        k(   35) = (   0.2470771   0.7132501  -0.2053496), wk =   0.0625000
        k(   36) = (  -0.7412312  -0.1426500  -0.2053496), wk =   0.0625000

                       cryst. coord.
        k(    1) = (   0.0000000   0.0000000   0.0000000), wk =   0.0312500
        k(    2) = (   0.0000000   0.0000000   0.2500000), wk =   0.0625000
        k(    3) = (   0.0000000   0.0000000  -0.5000000), wk =   0.0312500
        k(    4) = (   0.0000000   0.2500000   0.2500000), wk =   0.0625000
        k(    5) = (   0.0000000   0.2500000  -0.5000000), wk =   0.0625000
        k(    6) = (   0.0000000   0.2500000  -0.2500000), wk =   0.0625000
        k(    7) = (   0.0000000  -0.5000000  -0.5000000), wk =   0.0312500
        k(    8) = (   0.2500000   0.2500000   0.2500000), wk =   0.0625000
        k(    9) = (   0.2500000   0.2500000  -0.5000000), wk =   0.0625000
        k(   10) = (   0.2500000   0.2500000  -0.2500000), wk =   0.0625000
        k(   11) = (   0.2500000  -0.5000000  -0.5000000), wk =   0.0625000
        k(   12) = (   0.2500000  -0.5000000  -0.2500000), wk =   0.0625000
        k(   13) = (  -0.5000000  -0.5000000  -0.5000000), wk =   0.0312500
        k(   14) = (  -0.2500000   0.0000000   0.0000000), wk =   0.0625000
        k(   15) = (   0.0000000   0.2500000   0.0000000), wk =   0.0625000
        k(   16) = (   0.5000000   0.0000000   0.0000000), wk =   0.0312500
        k(   17) = (   0.0000000  -0.5000000   0.0000000), wk =   0.0312500
        k(   18) = (  -0.2500000  -0.2500000   0.0000000), wk =   0.0625000
        k(   19) = (   0.2500000   0.0000000   0.2500000), wk =   0.0625000
        k(   20) = (   0.5000000  -0.2500000   0.0000000), wk =   0.0625000
        k(   21) = (  -0.5000000   0.0000000   0.2500000), wk =   0.0625000
        k(   22) = (   0.2500000  -0.5000000   0.0000000), wk =   0.0625000
        k(   23) = (  -0.2500000   0.0000000   0.5000000), wk =   0.0625000
        k(   24) = (   0.0000000   0.5000000  -0.2500000), wk =   0.0625000
        k(   25) = (   0.2500000  -0.2500000   0.0000000), wk =   0.0625000
        k(   26) = (  -0.2500000   0.0000000   0.2500000), wk =   0.0625000
        k(   27) = (   0.5000000   0.5000000   0.0000000), wk =   0.0312500
        k(   28) = (  -0.5000000   0.0000000  -0.5000000), wk =   0.0312500
        k(   29) = (   0.5000000  -0.2500000  -0.2500000), wk =   0.0625000
        k(   30) = (   0.2500000  -0.5000000   0.2500000), wk =   0.0625000
        k(   31) = (   0.2500000  -0.2500000  -0.2500000), wk =   0.0625000
        k(   32) = (   0.2500000  -0.2500000   0.2500000), wk =   0.0625000
        k(   33) = (   0.5000000   0.5000000  -0.2500000), wk =   0.0625000
        k(   34) = (  -0.5000000   0.2500000  -0.5000000), wk =   0.0625000
        k(   35) = (  -0.2500000   0.2500000  -0.5000000), wk =   0.0625000
        k(   36) = (  -0.5000000  -0.2500000   0.2500000), wk =   0.0625000

     Dense  grid:    69617 G-vectors     FFT dimensions: (  60,  60,  60)

     Smooth grid:    17573 G-vectors     FFT dimensions: (  40,  40,  40)

     Largest allocated arrays     est. size (Mb)     dimensions
        Kohn-Sham Wavefunctions         0.79 Mb     (   1119,   46)
        Atomic wavefunctions            1.06 Mb     (   1119,   62)
        NL pseudopotentials             2.05 Mb     (   1119,  120)
        Each V/rho on FFT grid          1.65 Mb     ( 108000)
        Each G-vector array             0.27 Mb     (  34808)
        G-vector shells                 0.04 Mb     (   4682)
     Largest temporary arrays     est. size (Mb)     dimensions
        Auxiliary wavefunctions         3.14 Mb     (   1119,  184)
        Each subspace H/S matrix        0.52 Mb     ( 184, 184)
        Each <psi_i|beta_j> matrix      0.08 Mb     (    120,   46)
        Arrays for rho mixing          13.18 Mb     ( 108000,   8)

     Check: negative/imaginary core charge=   -0.000028    0.000000

     The initial density is read from file :
     /home/mcurnan/dft-course/Project1/example_LaCoO3/600/O/alpha/CoLaO_U600.save/charge-density.dat

 --- in v_hubbard ---
Hubbard energy    0.5142
 -------
     Number of +U iterations with fixed ns =  0
     Starting occupations:
 --- enter write_ns ---
 LDA+U parameters:
U( 1)     =  6.00000000
alpha( 1) =  0.00000000
U( 2)     =  0.00000000
alpha( 2) =  0.00000000
U( 3)     =  0.00000000
alpha( 3) = -0.15000000
U( 4)     =  0.00000000
alpha( 4) =  0.00000000
atom    1   Tr[ns(na)] =   8.02205
    eigenvalues: 
  0.596  0.596  0.938  0.941  0.941
    eigenvectors:
  0.000  0.000  1.000  0.000  0.000
  0.057  0.598  0.000  0.178  0.167
  0.598  0.057  0.000  0.167  0.178
  0.210  0.135  0.000  0.095  0.560
  0.135  0.210  0.000  0.560  0.095
    occupations:
  0.938  0.000  0.000  0.000  0.000
  0.000  0.715  0.000 -0.060  0.152
  0.000  0.000  0.715  0.152  0.060
  0.000 -0.060  0.152  0.822  0.000
  0.000  0.152  0.060  0.000  0.822
atom    2   Tr[ns(na)] =   8.02142
    eigenvalues: 
  0.595  0.595  0.938  0.941  0.941
    eigenvectors:
  0.000  0.000  1.000  0.000  0.000
  0.332  0.323  0.000  0.023  0.322
  0.323  0.332  0.000  0.322  0.023
  0.288  0.057  0.000  0.647  0.008
  0.057  0.288  0.000  0.008  0.647
    occupations:
  0.938  0.000  0.000  0.000  0.000
  0.000  0.715  0.000  0.060  0.153
  0.000  0.000  0.715  0.153 -0.060
  0.000  0.060  0.153  0.822  0.000
  0.000  0.153 -0.060  0.000  0.822
atom    3   Tr[ns(na)] =   3.80282
    eigenvalues: 
  0.355  0.355  0.384  0.403  0.403
    eigenvectors:
  0.000  0.000  1.000  0.000  0.000
  0.065  0.856  0.000  0.058  0.021
  0.856  0.065  0.000  0.021  0.058
  0.073  0.006  0.000  0.250  0.670
  0.006  0.073  0.000  0.670  0.250
    occupations:
  0.384  0.000  0.000  0.000  0.000
  0.000  0.359  0.000  0.000  0.013
  0.000  0.000  0.359  0.013  0.000
  0.000  0.000  0.013  0.399  0.000
  0.000  0.013  0.000  0.000  0.399
atom    4   Tr[ns(na)] =   3.80282
    eigenvalues: 
  0.355  0.355  0.384  0.403  0.403
    eigenvectors:
  0.000  0.000  1.000  0.000  0.000
  0.729  0.192  0.000  0.048  0.032
  0.192  0.729  0.000  0.032  0.048
  0.017  0.062  0.000  0.359  0.562
  0.062  0.017  0.000  0.562  0.359
    occupations:
  0.384  0.000  0.000  0.000  0.000
  0.000  0.359  0.000  0.000  0.013
  0.000  0.000  0.359  0.013  0.000
  0.000  0.000  0.013  0.399  0.000
  0.000  0.013  0.000  0.000  0.399
atom    5   Tr[ns(na)] =   5.43357
    eigenvalues: 
  0.846  0.929  0.941
    eigenvectors:
  0.340  0.000  0.660
  0.496  0.250  0.255
  0.164  0.750  0.086
    occupations:
  0.909 -0.039  0.022
 -0.039  0.891  0.022
  0.022  0.022  0.917
atom    6   Tr[ns(na)] =   5.43358
    eigenvalues: 
  0.846  0.929  0.941
    eigenvectors:
  0.340  0.000  0.660
  0.494  0.250  0.256
  0.166  0.750  0.085
    occupations:
  0.909  0.039  0.022
  0.039  0.891 -0.022
  0.022 -0.022  0.917
atom    7   Tr[ns(na)] =   5.43358
    eigenvalues: 
  0.846  0.929  0.941
    eigenvectors:
  0.340  0.000  0.660
  0.000  1.000  0.000
  0.660  0.000  0.340
    occupations:
  0.909  0.000 -0.045
  0.000  0.929  0.000
 -0.045  0.000  0.879
atom    8   Tr[ns(na)] =   5.43357
    eigenvalues: 
  0.846  0.929  0.941
    eigenvectors:
  0.340  0.000  0.660
  0.496  0.250  0.255
  0.164  0.750  0.086
    occupations:
  0.909 -0.039  0.022
 -0.039  0.891  0.022
  0.022  0.022  0.917
atom    9   Tr[ns(na)] =   5.43358
    eigenvalues: 
  0.846  0.929  0.941
    eigenvectors:
  0.340  0.000  0.660
  0.494  0.250  0.256
  0.166  0.750  0.085
    occupations:
  0.909  0.039  0.022
  0.039  0.891 -0.022
  0.022 -0.022  0.917
atom   10   Tr[ns(na)] =   5.43358
    eigenvalues: 
  0.846  0.929  0.941
    eigenvectors:
  0.340  0.000  0.660
  0.000  1.000  0.000
  0.660  0.000  0.340
    occupations:
  0.909  0.000 -0.045
  0.000  0.929  0.000
 -0.045  0.000  0.879
N of occupied +U levels =  56.2505796
 --- exit write_ns ---
 LDA+U Projector read from file 
     Starting wfc from file

     total cpu time spent up to now is        7.6 secs

     per-process dynamical memory:    62.8 Mb

     Self-consistent Calculation

     iteration #  1     ecut=    30.00 Ry     beta=0.20
     Davidson diagonalization with overlap
     c_bands:  1 eigenvalues not converged
     c_bands:  1 eigenvalues not converged
     c_bands:  1 eigenvalues not converged
     c_bands:  1 eigenvalues not converged
     c_bands:  1 eigenvalues not converged
     c_bands:  1 eigenvalues not converged
     c_bands:  1 eigenvalues not converged
     c_bands:  1 eigenvalues not converged
     c_bands:  1 eigenvalues not converged
     c_bands:  1 eigenvalues not converged
     c_bands:  1 eigenvalues not converged
     c_bands:  1 eigenvalues not converged
     c_bands:  1 eigenvalues not converged
     c_bands:  1 eigenvalues not converged
     c_bands:  1 eigenvalues not converged
     c_bands:  1 eigenvalues not converged
     c_bands:  1 eigenvalues not converged
     c_bands:  1 eigenvalues not converged
     c_bands:  1 eigenvalues not converged
     ethr =  1.00E-10,  avg # of iterations = 17.9
 --- enter write_ns ---
 LDA+U parameters:
U( 1)     =  6.00000000
alpha( 1) =  0.00000000
U( 2)     =  0.00000000
alpha( 2) =  0.00000000
U( 3)     =  0.00000000
alpha( 3) = -0.15000000
U( 4)     =  0.00000000
alpha( 4) =  0.00000000
atom    1   Tr[ns(na)] =   8.24600
    eigenvalues: 
  0.569  0.572  0.993  0.993  0.996
    eigenvectors:
  0.000  0.000  0.004  0.001  0.995
  0.556  0.098  0.169  0.175  0.001
  0.098  0.556  0.175  0.171  0.000
  0.168  0.178  0.551  0.102  0.001
  0.178  0.168  0.101  0.552  0.001
    occupations:
  0.996  0.000  0.000  0.000  0.000
  0.000  0.716  0.001 -0.074  0.188
  0.000  0.001  0.717  0.187  0.073
  0.000 -0.074  0.187  0.847  0.001
  0.000  0.188  0.073  0.001  0.847
atom    2   Tr[ns(na)] =   8.23619
    eigenvalues: 
  0.566  0.569  0.993  0.993  0.996
    eigenvectors:
  0.000  0.000  0.004  0.001  0.995
  0.415  0.239  0.324  0.022  0.001
  0.239  0.416  0.021  0.324  0.001
  0.026  0.319  0.009  0.645  0.000
  0.320  0.026  0.642  0.009  0.003
    occupations:
  0.996  0.000  0.000  0.000  0.000
  0.000  0.715  0.001  0.073  0.189
  0.000  0.001  0.715  0.188 -0.074
  0.000  0.073  0.188  0.847  0.000
  0.000  0.189 -0.074  0.000  0.846
atom    3   Tr[ns(na)] =   3.78709
    eigenvalues: 
  0.355  0.356  0.381  0.401  0.401
    eigenvectors:
  0.000  0.000  1.000  0.000  0.000
  0.228  0.685  0.000  0.067  0.021
  0.686  0.227  0.000  0.021  0.066
  0.064  0.022  0.000  0.225  0.689
  0.022  0.065  0.000  0.688  0.225
    occupations:
  0.381  0.000  0.000  0.000  0.000
  0.000  0.360  0.000  0.000  0.013
  0.000  0.000  0.359  0.013  0.000
  0.000  0.000  0.013  0.397  0.000
  0.000  0.013  0.000  0.000  0.397
atom    4   Tr[ns(na)] =   3.78719
    eigenvalues: 
  0.355  0.356  0.381  0.401  0.401
    eigenvectors:
  0.000  0.000  1.000  0.000  0.000
  0.688  0.231  0.000  0.060  0.021
  0.232  0.684  0.000  0.019  0.064
  0.021  0.063  0.000  0.233  0.683
  0.059  0.022  0.000  0.687  0.232
    occupations:
  0.381  0.000  0.000  0.000  0.000
  0.000  0.359  0.000  0.000  0.012
  0.000  0.000  0.359  0.013  0.000
  0.000  0.000  0.013  0.397  0.000
  0.000  0.012  0.000  0.000  0.397
atom    5   Tr[ns(na)] =   5.40203
    eigenvalues: 
  0.828  0.926  0.947
    eigenvectors:
  0.340  0.000  0.660
  0.495  0.250  0.255
  0.165  0.750  0.086
    occupations:
  0.906 -0.049  0.028
 -0.049  0.883  0.025
  0.028  0.025  0.912
atom    6   Tr[ns(na)] =   5.37468
    eigenvalues: 
  0.821  0.922  0.944
    eigenvectors:
  0.342  0.000  0.658
  0.494  0.248  0.258
  0.165  0.752  0.084
    occupations:
  0.902  0.050  0.029
  0.050  0.878 -0.025
  0.029 -0.025  0.907
atom    7   Tr[ns(na)] =   5.37469
    eigenvalues: 
  0.821  0.922  0.944
    eigenvectors:
  0.342  0.000  0.658
  0.000  1.000  0.000
  0.658  0.000  0.342
    occupations:
  0.902  0.000 -0.058
  0.000  0.922  0.000
 -0.058  0.000  0.863
atom    8   Tr[ns(na)] =   5.37459
    eigenvalues: 
  0.821  0.922  0.944
    eigenvectors:
  0.341  0.000  0.659
  0.494  0.250  0.256
  0.164  0.750  0.086
    occupations:
  0.902 -0.051  0.029
 -0.051  0.878  0.025
  0.029  0.025  0.907
atom    9   Tr[ns(na)] =   5.37479
    eigenvalues: 
  0.821  0.922  0.944
    eigenvectors:
  0.341  0.000  0.659
  0.494  0.249  0.257
  0.165  0.751  0.084
    occupations:
  0.902  0.050  0.029
  0.050  0.878 -0.026
  0.029 -0.026  0.907
atom   10   Tr[ns(na)] =   5.37479
    eigenvalues: 
  0.821  0.922  0.944
    eigenvectors:
  0.341  0.000  0.659
  0.000  1.000  0.000
  0.659  0.000  0.341
    occupations:
  0.902  0.000 -0.058
  0.000  0.922  0.000
 -0.058  0.000  0.863
N of occupied +U levels =  56.3320492
 --- exit write_ns ---
 --- in v_hubbard ---
Hubbard energy    0.4905
 -------

     total cpu time spent up to now is       96.2 secs

     total energy              =    -537.88533765 Ry
     Harris-Foulkes estimate   =    -537.89889161 Ry
     estimated scf accuracy    <       0.06365370 Ry

     iteration #  2     ecut=    30.00 Ry     beta=0.20
     Davidson diagonalization with overlap
     ethr =  8.38E-05,  avg # of iterations =  1.8
 --- enter write_ns ---
 LDA+U parameters:
U( 1)     =  6.00000000
alpha( 1) =  0.00000000
U( 2)     =  0.00000000
alpha( 2) =  0.00000000
U( 3)     =  0.00000000
alpha( 3) = -0.15000000
U( 4)     =  0.00000000
alpha( 4) =  0.00000000
atom    1   Tr[ns(na)] =   8.02304
    eigenvalues: 
  0.512  0.514  0.994  0.994  0.997
    eigenvectors:
  0.000  0.000  0.000  0.000  1.000
  0.557  0.098  0.214  0.130  0.000
  0.098  0.557  0.130  0.214  0.000
  0.170  0.175  0.489  0.166  0.000
  0.174  0.170  0.166  0.490  0.000
    occupations:
  0.997  0.000  0.000  0.000  0.000
  0.000  0.678  0.000 -0.086  0.212
  0.000  0.000  0.679  0.212  0.085
  0.000 -0.086  0.212  0.828  0.000
  0.000  0.212  0.085  0.000  0.828
atom    2   Tr[ns(na)] =   8.02395
    eigenvalues: 
  0.511  0.513  0.995  0.995  0.998
    eigenvectors:
  0.000  0.000  0.000  0.000  1.000
  0.416  0.239  0.295  0.050  0.000
  0.239  0.416  0.049  0.295  0.000
  0.024  0.320  0.000  0.655  0.000
  0.320  0.024  0.655  0.000  0.000
    occupations:
  0.998  0.000  0.000  0.000  0.000
  0.000  0.679  0.001  0.085  0.213
  0.000  0.001  0.679  0.213 -0.085
  0.000  0.085  0.213  0.829  0.000
  0.000  0.213 -0.085  0.000  0.828
atom    3   Tr[ns(na)] =   3.78306
    eigenvalues: 
  0.355  0.355  0.380  0.401  0.401
    eigenvectors:
  0.000  0.000  1.000  0.000  0.000
  0.220  0.699  0.000  0.066  0.015
  0.699  0.220  0.000  0.015  0.066
  0.061  0.020  0.000  0.180  0.739
  0.020  0.061  0.000  0.739  0.180
    occupations:
  0.380  0.000  0.000  0.000  0.000
  0.000  0.359  0.000  0.000  0.013
  0.000  0.000  0.358  0.013  0.000
  0.000  0.000  0.013  0.397  0.000
  0.000  0.013  0.000  0.000  0.397
atom    4   Tr[ns(na)] =   3.78324
    eigenvalues: 
  0.355  0.355  0.380  0.401  0.401
    eigenvectors:
  0.000  0.000  1.000  0.000  0.000
  0.668  0.253  0.000  0.061  0.018
  0.254  0.666  0.000  0.017  0.063
  0.022  0.058  0.000  0.212  0.708
  0.056  0.023  0.000  0.710  0.211
    occupations:
  0.380  0.000  0.000  0.000  0.000
  0.000  0.358  0.000  0.000  0.012
  0.000  0.000  0.358  0.013  0.000
  0.000  0.000  0.013  0.397  0.000
  0.000  0.012  0.000  0.000  0.397
atom    5   Tr[ns(na)] =   5.45548
    eigenvalues: 
  0.844  0.933  0.950
    eigenvectors:
  0.335  0.000  0.665
  0.497  0.252  0.251
  0.167  0.748  0.084
    occupations:
  0.915 -0.043  0.025
 -0.043  0.893  0.023
  0.025  0.023  0.920
atom    6   Tr[ns(na)] =   5.44712
    eigenvalues: 
  0.842  0.932  0.949
    eigenvectors:
  0.335  0.000  0.665
  0.500  0.247  0.253
  0.165  0.753  0.083
    occupations:
  0.913  0.044  0.025
  0.044  0.891 -0.023
  0.025 -0.023  0.919
atom    7   Tr[ns(na)] =   5.44712
    eigenvalues: 
  0.842  0.932  0.949
    eigenvectors:
  0.335  0.000  0.665
  0.000  1.000  0.000
  0.665  0.000  0.335
    occupations:
  0.913  0.000 -0.051
  0.000  0.932  0.000
 -0.051  0.000  0.878
atom    8   Tr[ns(na)] =   5.44834
    eigenvalues: 
  0.842  0.932  0.950
    eigenvectors:
  0.335  0.000  0.665
  0.497  0.252  0.251
  0.167  0.748  0.084
    occupations:
  0.914 -0.044  0.025
 -0.044  0.892  0.023
  0.025  0.023  0.919
atom    9   Tr[ns(na)] =   5.44688
    eigenvalues: 
  0.842  0.932  0.949
    eigenvectors:
  0.336  0.000  0.664
  0.499  0.248  0.253
  0.165  0.752  0.083
    occupations:
  0.913  0.044  0.025
  0.044  0.892 -0.023
  0.025 -0.023  0.919
atom   10   Tr[ns(na)] =   5.44688
    eigenvalues: 
  0.842  0.932  0.949
    eigenvectors:
  0.336  0.000  0.664
  0.000  1.000  0.000
  0.664  0.000  0.336
    occupations:
  0.913  0.000 -0.051
  0.000  0.932  0.000
 -0.051  0.000  0.878
N of occupied +U levels =  56.3051194
 --- exit write_ns ---
 --- in v_hubbard ---
Hubbard energy    0.4803
 -------

     total cpu time spent up to now is      120.0 secs

     total energy              =    -537.89853956 Ry
     Harris-Foulkes estimate   =    -537.89818623 Ry
     estimated scf accuracy    <       0.03982853 Ry

     iteration #  3     ecut=    30.00 Ry     beta=0.20
     Davidson diagonalization with overlap
     ethr =  5.24E-05,  avg # of iterations =  1.0
 --- enter write_ns ---
 LDA+U parameters:
U( 1)     =  6.00000000
alpha( 1) =  0.00000000
U( 2)     =  0.00000000
alpha( 2) =  0.00000000
U( 3)     =  0.00000000
alpha( 3) = -0.15000000
U( 4)     =  0.00000000
alpha( 4) =  0.00000000
atom    1   Tr[ns(na)] =   8.06717
    eigenvalues: 
  0.523  0.524  0.994  0.995  0.998
    eigenvectors:
  0.000  0.000  0.000  0.000  1.000
  0.557  0.099  0.210  0.134  0.000
  0.099  0.557  0.135  0.210  0.000
  0.170  0.174  0.497  0.159  0.000
  0.174  0.170  0.159  0.497  0.000
    occupations:
  0.998  0.000  0.000  0.000  0.000
  0.000  0.685  0.000 -0.084  0.208
  0.000  0.000  0.686  0.208  0.083
  0.000 -0.084  0.208  0.832  0.000
  0.000  0.208  0.083  0.000  0.832
atom    2   Tr[ns(na)] =   8.06431
    eigenvalues: 
  0.521  0.523  0.995  0.995  0.998
    eigenvectors:
  0.000  0.000  0.000  0.000  1.000
  0.417  0.239  0.298  0.046  0.000
  0.239  0.417  0.046  0.298  0.000
  0.024  0.320  0.000  0.656  0.000
  0.320  0.025  0.655  0.000  0.000
    occupations:
  0.998  0.000  0.000  0.000  0.000
  0.000  0.685  0.001  0.083  0.209
  0.000  0.001  0.685  0.209 -0.083
  0.000  0.083  0.209  0.832  0.000
  0.000  0.209 -0.083  0.000  0.832
atom    3   Tr[ns(na)] =   3.78447
    eigenvalues: 
  0.355  0.355  0.380  0.401  0.401
    eigenvectors:
  0.000  0.000  1.000  0.000  0.000
  0.226  0.694  0.000  0.065  0.016
  0.693  0.226  0.000  0.016  0.065
  0.060  0.020  0.000  0.183  0.736
  0.020  0.060  0.000  0.736  0.183
    occupations:
  0.380  0.000  0.000  0.000  0.000
  0.000  0.359  0.000  0.000  0.012
  0.000  0.000  0.359  0.012  0.000
  0.000  0.000  0.012  0.397  0.000
  0.000  0.012  0.000  0.000  0.397
atom    4   Tr[ns(na)] =   3.78455
    eigenvalues: 
  0.355  0.355  0.380  0.401  0.401
    eigenvectors:
  0.000  0.000  1.000  0.000  0.000
  0.676  0.245  0.000  0.061  0.019
  0.245  0.675  0.000  0.018  0.062
  0.022  0.058  0.000  0.219  0.701
  0.057  0.022  0.000  0.702  0.219
    occupations:
  0.380  0.000  0.000  0.000  0.000
  0.000  0.359  0.000  0.000  0.012
  0.000  0.000  0.359  0.012  0.000
  0.000  0.000  0.012  0.397  0.000
  0.000  0.012  0.000  0.000  0.397
atom    5   Tr[ns(na)] =   5.44230
    eigenvalues: 
  0.840  0.932  0.949
    eigenvectors:
  0.336  0.000  0.664
  0.497  0.251  0.252
  0.167  0.749  0.085
    occupations:
  0.913 -0.045  0.026
 -0.045  0.891  0.024
  0.026  0.024  0.918
atom    6   Tr[ns(na)] =   5.43344
    eigenvalues: 
  0.838  0.930  0.949
    eigenvectors:
  0.336  0.000  0.664
  0.499  0.248  0.254
  0.165  0.752  0.083
    occupations:
  0.911  0.045  0.026
  0.045  0.889 -0.024
  0.026 -0.024  0.917
atom    7   Tr[ns(na)] =   5.43344
    eigenvalues: 
  0.838  0.930  0.949
    eigenvectors:
  0.336  0.000  0.664
  0.000  1.000  0.000
  0.664  0.000  0.336
    occupations:
  0.911  0.000 -0.052
  0.000  0.930  0.000
 -0.052  0.000  0.875
atom    8   Tr[ns(na)] =   5.43451
    eigenvalues: 
  0.838  0.930  0.949
    eigenvectors:
  0.337  0.000  0.663
  0.497  0.251  0.252
  0.167  0.749  0.085
    occupations:
  0.912 -0.045  0.026
 -0.045  0.889  0.024
  0.026  0.024  0.917
atom    9   Tr[ns(na)] =   5.43328
    eigenvalues: 
  0.838  0.930  0.949
    eigenvectors:
  0.337  0.000  0.663
  0.498  0.249  0.254
  0.165  0.751  0.083
    occupations:
  0.911  0.045  0.026
  0.045  0.889 -0.024
  0.026 -0.024  0.916
atom   10   Tr[ns(na)] =   5.43328
    eigenvalues: 
  0.838  0.930  0.949
    eigenvectors:
  0.337  0.000  0.663
  0.000  1.000  0.000
  0.663  0.000  0.337
    occupations:
  0.911  0.000 -0.052
  0.000  0.930  0.000
 -0.052  0.000  0.875
N of occupied +U levels =  56.3107510
 --- exit write_ns ---
 --- in v_hubbard ---
Hubbard energy    0.3884
 -------

     total cpu time spent up to now is      143.0 secs

     total energy              =    -537.90618353 Ry
     Harris-Foulkes estimate   =    -537.89930353 Ry
     estimated scf accuracy    <       0.01878933 Ry

     iteration #  4     ecut=    30.00 Ry     beta=0.20
     Davidson diagonalization with overlap
     ethr =  2.47E-05,  avg # of iterations =  1.9
 --- enter write_ns ---
 LDA+U parameters:
U( 1)     =  6.00000000
alpha( 1) =  0.00000000
U( 2)     =  0.00000000
alpha( 2) =  0.00000000
U( 3)     =  0.00000000
alpha( 3) = -0.15000000
U( 4)     =  0.00000000
alpha( 4) =  0.00000000
atom    1   Tr[ns(na)] =   8.07462
    eigenvalues: 
  0.522  0.524  0.996  0.997  0.999
    eigenvectors:
  0.000  0.000  0.000  0.000  1.000
  0.560  0.098  0.218  0.124  0.000
  0.098  0.560  0.124  0.218  0.000
  0.170  0.172  0.485  0.173  0.000
  0.171  0.170  0.173  0.486  0.000
    occupations:
  0.999  0.000  0.000  0.000  0.000
  0.000  0.684  0.000 -0.085  0.208
  0.000  0.000  0.685  0.208  0.084
  0.000 -0.085  0.208  0.834  0.000
  0.000  0.208  0.084  0.000  0.835
atom    2   Tr[ns(na)] =   8.07693
    eigenvalues: 
  0.522  0.524  0.997  0.997  0.999
    eigenvectors:
  0.000  0.000  0.000  0.000  1.000
  0.417  0.241  0.292  0.050  0.000
  0.241  0.417  0.050  0.292  0.000
  0.024  0.318  0.000  0.658  0.000
  0.318  0.024  0.658  0.000  0.000
    occupations:
  0.999  0.000  0.000  0.000  0.000
  0.000  0.685  0.001  0.084  0.209
  0.000  0.001  0.685  0.208 -0.085
  0.000  0.084  0.208  0.835  0.000
  0.000  0.209 -0.085  0.000  0.835
atom    3   Tr[ns(na)] =   3.79685
    eigenvalues: 
  0.357  0.357  0.381  0.402  0.402
    eigenvectors:
  0.000  0.000  1.000  0.000  0.000
  0.232  0.689  0.000  0.060  0.018
  0.690  0.232  0.000  0.018  0.060
  0.058  0.020  0.000  0.224  0.698
  0.020  0.058  0.000  0.698  0.224
    occupations:
  0.381  0.000  0.000  0.000  0.000
  0.000  0.360  0.000  0.000  0.012
  0.000  0.000  0.360  0.012  0.000
  0.000  0.000  0.012  0.398  0.000
  0.000  0.012  0.000  0.000  0.398
atom    4   Tr[ns(na)] =   3.79691
    eigenvalues: 
  0.357  0.357  0.381  0.402  0.402
    eigenvectors:
  0.000  0.000  1.000  0.000  0.000
  0.693  0.231  0.000  0.056  0.020
  0.231  0.692  0.000  0.019  0.058
  0.019  0.058  0.000  0.242  0.680
  0.056  0.020  0.000  0.682  0.242
    occupations:
  0.381  0.000  0.000  0.000  0.000
  0.000  0.360  0.000  0.000  0.012
  0.000  0.000  0.360  0.012  0.000
  0.000  0.000  0.012  0.398  0.000
  0.000  0.012  0.000  0.000  0.398
atom    5   Tr[ns(na)] =   5.43478
    eigenvalues: 
  0.838  0.931  0.948
    eigenvectors:
  0.337  0.000  0.663
  0.496  0.252  0.252
  0.167  0.748  0.085
    occupations:
  0.911 -0.045  0.026
 -0.045  0.889  0.024
  0.026  0.024  0.917
atom    6   Tr[ns(na)] =   5.42375
    eigenvalues: 
  0.835  0.929  0.947
    eigenvectors:
  0.337  0.000  0.663
  0.499  0.247  0.254
  0.164  0.753  0.083
    occupations:
  0.910  0.046  0.026
  0.046  0.887 -0.024
  0.026 -0.024  0.915
atom    7   Tr[ns(na)] =   5.42375
    eigenvalues: 
  0.835  0.929  0.947
    eigenvectors:
  0.337  0.000  0.663
  0.000  1.000  0.000
  0.663  0.000  0.337
    occupations:
  0.910  0.000 -0.053
  0.000  0.929  0.000
 -0.053  0.000  0.873
atom    8   Tr[ns(na)] =   5.42325
    eigenvalues: 
  0.835  0.929  0.947
    eigenvectors:
  0.337  0.000  0.663
  0.496  0.252  0.252
  0.167  0.748  0.085
    occupations:
  0.910 -0.046  0.027
 -0.046  0.887  0.024
  0.027  0.024  0.915
atom    9   Tr[ns(na)] =   5.42396
    eigenvalues: 
  0.835  0.929  0.947
    eigenvectors:
  0.337  0.000  0.663
  0.498  0.248  0.254
  0.165  0.752  0.083
    occupations:
  0.910  0.046  0.026
  0.046  0.887 -0.024
  0.026 -0.024  0.915
atom   10   Tr[ns(na)] =   5.42396
    eigenvalues: 
  0.835  0.929  0.947
    eigenvectors:
  0.337  0.000  0.663
  0.000  1.000  0.000
  0.663  0.000  0.337
    occupations:
  0.910  0.000 -0.053
  0.000  0.929  0.000
 -0.053  0.000  0.873
N of occupied +U levels =  56.2987650
 --- exit write_ns ---
 --- in v_hubbard ---
Hubbard energy    0.3840
 -------

     total cpu time spent up to now is      167.8 secs

     total energy              =    -537.90764355 Ry
     Harris-Foulkes estimate   =    -537.90777540 Ry
     estimated scf accuracy    <       0.00154888 Ry

     iteration #  5     ecut=    30.00 Ry     beta=0.20
     Davidson diagonalization with overlap
     ethr =  2.04E-06,  avg # of iterations =  2.0
 --- enter write_ns ---
 LDA+U parameters:
U( 1)     =  6.00000000
alpha( 1) =  0.00000000
U( 2)     =  0.00000000
alpha( 2) =  0.00000000
U( 3)     =  0.00000000
alpha( 3) = -0.15000000
U( 4)     =  0.00000000
alpha( 4) =  0.00000000
atom    1   Tr[ns(na)] =   8.05672
    eigenvalues: 
  0.517  0.519  0.997  0.997  0.999
    eigenvectors:
  0.000  0.000  0.000  0.000  1.000
  0.560  0.098  0.221  0.120  0.000
  0.098  0.560  0.120  0.221  0.000
  0.171  0.171  0.480  0.178  0.000
  0.171  0.171  0.178  0.481  0.000
    occupations:
  0.999  0.000  0.000  0.000  0.000
  0.000  0.681  0.000 -0.087  0.210
  0.000  0.000  0.682  0.210  0.086
  0.000 -0.087  0.210  0.833  0.000
  0.000  0.210  0.086  0.000  0.833
atom    2   Tr[ns(na)] =   8.05010
    eigenvalues: 
  0.515  0.517  0.997  0.997  0.999
    eigenvectors:
  0.000  0.000  0.000  0.000  1.000
  0.417  0.241  0.288  0.053  0.000
  0.241  0.417  0.053  0.288  0.000
  0.023  0.318  0.000  0.658  0.000
  0.318  0.023  0.658  0.000  0.000
    occupations:
  0.999  0.000  0.000  0.000  0.000
  0.000  0.680  0.001  0.085  0.212
  0.000  0.001  0.680  0.211 -0.086
  0.000  0.085  0.211  0.833  0.000
  0.000  0.212 -0.086  0.000  0.832
atom    3   Tr[ns(na)] =   3.79572
    eigenvalues: 
  0.356  0.357  0.381  0.402  0.402
    eigenvectors:
  0.000  0.000  1.000  0.000  0.000
  0.230  0.691  0.000  0.062  0.016
  0.691  0.230  0.000  0.016  0.062
  0.058  0.020  0.000  0.200  0.722
  0.020  0.058  0.000  0.722  0.200
    occupations:
  0.381  0.000  0.000  0.000  0.000
  0.000  0.360  0.000  0.000  0.012
  0.000  0.000  0.360  0.012  0.000
  0.000  0.000  0.012  0.398  0.000
  0.000  0.012  0.000  0.000  0.398
atom    4   Tr[ns(na)] =   3.79578
    eigenvalues: 
  0.356  0.357  0.381  0.402  0.402
    eigenvectors:
  0.000  0.000  1.000  0.000  0.000
  0.683  0.240  0.000  0.058  0.019
  0.240  0.682  0.000  0.018  0.060
  0.021  0.057  0.000  0.229  0.693
  0.056  0.021  0.000  0.695  0.228
    occupations:
  0.381  0.000  0.000  0.000  0.000
  0.000  0.360  0.000  0.000  0.012
  0.000  0.000  0.360  0.012  0.000
  0.000  0.000  0.012  0.398  0.000
  0.000  0.012  0.000  0.000  0.398
atom    5   Tr[ns(na)] =   5.44038
    eigenvalues: 
  0.840  0.931  0.949
    eigenvectors:
  0.336  0.000  0.664
  0.498  0.251  0.252
  0.166  0.749  0.085
    occupations:
  0.912 -0.044  0.026
 -0.044  0.890  0.024
  0.026  0.024  0.918
atom    6   Tr[ns(na)] =   5.43080
    eigenvalues: 
  0.837  0.930  0.948
    eigenvectors:
  0.336  0.000  0.664
  0.498  0.248  0.254
  0.165  0.752  0.083
    occupations:
  0.911  0.045  0.026
  0.045  0.888 -0.024
  0.026 -0.024  0.916
atom    7   Tr[ns(na)] =   5.43080
    eigenvalues: 
  0.837  0.930  0.948
    eigenvectors:
  0.336  0.000  0.664
  0.000  1.000  0.000
  0.664  0.000  0.336
    occupations:
  0.911  0.000 -0.052
  0.000  0.930  0.000
 -0.052  0.000  0.875
atom    8   Tr[ns(na)] =   5.43116
    eigenvalues: 
  0.837  0.930  0.948
    eigenvectors:
  0.337  0.000  0.663
  0.497  0.251  0.252
  0.166  0.749  0.085
    occupations:
  0.911 -0.045  0.026
 -0.045  0.889  0.024
  0.026  0.024  0.916
atom    9   Tr[ns(na)] =   5.43079
    eigenvalues: 
  0.837  0.930  0.948
    eigenvectors:
  0.337  0.000  0.663
  0.497  0.249  0.254
  0.166  0.751  0.083
    occupations:
  0.911  0.045  0.026
  0.045  0.889 -0.024
  0.026 -0.024  0.916
atom   10   Tr[ns(na)] =   5.43079
    eigenvalues: 
  0.837  0.930  0.948
    eigenvectors:
  0.337  0.000  0.663
  0.000  1.000  0.000
  0.663  0.000  0.337
    occupations:
  0.911  0.000 -0.052
  0.000  0.930  0.000
 -0.052  0.000  0.875
N of occupied +U levels =  56.2930439
 --- exit write_ns ---
 --- in v_hubbard ---
Hubbard energy    0.3832
 -------

     total cpu time spent up to now is      202.9 secs

     total energy              =    -537.90794595 Ry
     Harris-Foulkes estimate   =    -537.90784468 Ry
     estimated scf accuracy    <       0.00022695 Ry

     iteration #  6     ecut=    30.00 Ry     beta=0.20
     Davidson diagonalization with overlap
     ethr =  2.99E-07,  avg # of iterations =  1.9
 --- enter write_ns ---
 LDA+U parameters:
U( 1)     =  6.00000000
alpha( 1) =  0.00000000
U( 2)     =  0.00000000
alpha( 2) =  0.00000000
U( 3)     =  0.00000000
alpha( 3) = -0.15000000
U( 4)     =  0.00000000
alpha( 4) =  0.00000000
atom    1   Tr[ns(na)] =   8.04497
    eigenvalues: 
  0.514  0.516  0.997  0.997  0.999
    eigenvectors:
  0.000  0.000  0.000  0.000  1.000
  0.561  0.098  0.221  0.120  0.000
  0.098  0.560  0.120  0.222  0.000
  0.171  0.171  0.480  0.178  0.000
  0.171  0.171  0.178  0.481  0.000
    occupations:
  0.999  0.000  0.000  0.000  0.000
  0.000  0.679  0.000 -0.087  0.212
  0.000  0.000  0.680  0.211  0.086
  0.000 -0.087  0.211  0.832  0.000
  0.000  0.212  0.086  0.000  0.832
atom    2   Tr[ns(na)] =   8.04687
    eigenvalues: 
  0.514  0.516  0.997  0.997  0.999
    eigenvectors:
  0.000  0.000  0.000  0.000  1.000
  0.417  0.242  0.287  0.054  0.000
  0.242  0.417  0.054  0.287  0.000
  0.023  0.318  0.000  0.658  0.000
  0.318  0.023  0.658  0.000  0.000
    occupations:
  0.999  0.000  0.000  0.000  0.000
  0.000  0.680  0.001  0.086  0.212
  0.000  0.001  0.680  0.211 -0.087
  0.000  0.086  0.211  0.833  0.000
  0.000  0.212 -0.087  0.000  0.832
atom    3   Tr[ns(na)] =   3.79292
    eigenvalues: 
  0.356  0.356  0.381  0.402  0.402
    eigenvectors:
  0.000  0.000  1.000  0.000  0.000
  0.228  0.693  0.000  0.064  0.016
  0.693  0.228  0.000  0.016  0.064
  0.059  0.020  0.000  0.187  0.734
  0.020  0.059  0.000  0.734  0.187
    occupations:
  0.381  0.000  0.000  0.000  0.000
  0.000  0.360  0.000  0.000  0.012
  0.000  0.000  0.360  0.012  0.000
  0.000  0.000  0.012  0.398  0.000
  0.000  0.012  0.000  0.000  0.398
atom    4   Tr[ns(na)] =   3.79296
    eigenvalues: 
  0.356  0.356  0.381  0.402  0.402
    eigenvectors:
  0.000  0.000  1.000  0.000  0.000
  0.655  0.267  0.000  0.059  0.019
  0.267  0.654  0.000  0.018  0.060
  0.023  0.056  0.000  0.224  0.698
  0.054  0.023  0.000  0.699  0.223
    occupations:
  0.381  0.000  0.000  0.000  0.000
  0.000  0.360  0.000  0.000  0.012
  0.000  0.000  0.360  0.012  0.000
  0.000  0.000  0.012  0.398  0.000
  0.000  0.012  0.000  0.000  0.398
atom    5   Tr[ns(na)] =   5.44266
    eigenvalues: 
  0.841  0.932  0.949
    eigenvectors:
  0.336  0.000  0.664
  0.497  0.252  0.252
  0.167  0.748  0.085
    occupations:
  0.913 -0.044  0.026
 -0.044  0.891  0.024
  0.026  0.024  0.918
atom    6   Tr[ns(na)] =   5.43370
    eigenvalues: 
  0.838  0.930  0.948
    eigenvectors:
  0.336  0.000  0.664
  0.499  0.247  0.254
  0.164  0.753  0.083
    occupations:
  0.911  0.045  0.026
  0.045  0.889 -0.024
  0.026 -0.024  0.917
atom    7   Tr[ns(na)] =   5.43370
    eigenvalues: 
  0.838  0.930  0.948
    eigenvectors:
  0.336  0.000  0.664
  0.000  1.000  0.000
  0.664  0.000  0.336
    occupations:
  0.911  0.000 -0.052
  0.000  0.930  0.000
 -0.052  0.000  0.875
atom    8   Tr[ns(na)] =   5.43455
    eigenvalues: 
  0.838  0.931  0.948
    eigenvectors:
  0.337  0.000  0.663
  0.496  0.252  0.252
  0.167  0.748  0.085
    occupations:
  0.911 -0.045  0.026
 -0.045  0.889  0.024
  0.026  0.024  0.917
atom    9   Tr[ns(na)] =   5.43359
    eigenvalues: 
  0.838  0.930  0.948
    eigenvectors:
  0.337  0.000  0.663
  0.498  0.248  0.254
  0.165  0.752  0.083
    occupations:
  0.911  0.045  0.026
  0.045  0.889 -0.024
  0.026 -0.024  0.917
atom   10   Tr[ns(na)] =   5.43359
    eigenvalues: 
  0.838  0.930  0.948
    eigenvectors:
  0.337  0.000  0.663
  0.000  1.000  0.000
  0.663  0.000  0.337
    occupations:
  0.911  0.000 -0.052
  0.000  0.930  0.000
 -0.052  0.000  0.875
N of occupied +U levels =  56.2895204
 --- exit write_ns ---
 --- in v_hubbard ---
Hubbard energy    0.3840
 -------

     total cpu time spent up to now is      237.7 secs

     total energy              =    -537.90806628 Ry
     Harris-Foulkes estimate   =    -537.90797650 Ry
     estimated scf accuracy    <       0.00013510 Ry

     iteration #  7     ecut=    30.00 Ry     beta=0.20
     Davidson diagonalization with overlap
     ethr =  1.78E-07,  avg # of iterations =  1.6
 --- enter write_ns ---
 LDA+U parameters:
U( 1)     =  6.00000000
alpha( 1) =  0.00000000
U( 2)     =  0.00000000
alpha( 2) =  0.00000000
U( 3)     =  0.00000000
alpha( 3) = -0.15000000
U( 4)     =  0.00000000
alpha( 4) =  0.00000000
atom    1   Tr[ns(na)] =   8.04690
    eigenvalues: 
  0.514  0.516  0.997  0.997  0.999
    eigenvectors:
  0.000  0.000  0.000  0.000  1.000
  0.561  0.098  0.223  0.118  0.000
  0.097  0.561  0.118  0.224  0.000
  0.171  0.171  0.478  0.180  0.000
  0.170  0.171  0.180  0.478  0.000
    occupations:
  0.999  0.000  0.000  0.000  0.000
  0.000  0.679  0.000 -0.088  0.211
  0.000  0.000  0.680  0.211  0.087
  0.000 -0.088  0.211  0.832  0.000
  0.000  0.211  0.087  0.000  0.832
atom    2   Tr[ns(na)] =   8.04355
    eigenvalues: 
  0.513  0.515  0.997  0.997  0.999
    eigenvectors:
  0.000  0.000  0.000  0.000  1.000
  0.416  0.242  0.286  0.056  0.000
  0.242  0.416  0.055  0.286  0.000
  0.023  0.319  0.000  0.658  0.000
  0.319  0.023  0.658  0.000  0.000
    occupations:
  0.999  0.000  0.000  0.000  0.000
  0.000  0.679  0.001  0.086  0.212
  0.000  0.001  0.679  0.212 -0.087
  0.000  0.086  0.212  0.832  0.000
  0.000  0.212 -0.087  0.000  0.832
atom    3   Tr[ns(na)] =   3.79002
    eigenvalues: 
  0.356  0.356  0.381  0.401  0.401
    eigenvectors:
  0.000  0.000  1.000  0.000  0.000
  0.226  0.694  0.000  0.065  0.015
  0.694  0.226  0.000  0.015  0.065
  0.060  0.020  0.000  0.182  0.738
  0.020  0.060  0.000  0.738  0.182
    occupations:
  0.381  0.000  0.000  0.000  0.000
  0.000  0.359  0.000  0.000  0.012
  0.000  0.000  0.359  0.012  0.000
  0.000  0.000  0.012  0.398  0.000
  0.000  0.012  0.000  0.000  0.398
atom    4   Tr[ns(na)] =   3.79006
    eigenvalues: 
  0.356  0.356  0.381  0.401  0.401
    eigenvectors:
  0.000  0.000  1.000  0.000  0.000
  0.632  0.290  0.000  0.060  0.019
  0.290  0.631  0.000  0.018  0.061
  0.025  0.054  0.000  0.223  0.697
  0.053  0.026  0.000  0.699  0.223
    occupations:
  0.381  0.000  0.000  0.000  0.000
  0.000  0.359  0.000  0.000  0.012
  0.000  0.000  0.359  0.012  0.000
  0.000  0.000  0.012  0.398  0.000
  0.000  0.012  0.000  0.000  0.398
atom    5   Tr[ns(na)] =   5.44347
    eigenvalues: 
  0.841  0.932  0.949
    eigenvectors:
  0.336  0.000  0.664
  0.497  0.251  0.252
  0.167  0.749  0.085
    occupations:
  0.913 -0.044  0.026
 -0.044  0.891  0.024
  0.026  0.024  0.918
atom    6   Tr[ns(na)] =   5.43442
    eigenvalues: 
  0.838  0.931  0.948
    eigenvectors:
  0.336  0.000  0.663
  0.499  0.248  0.254
  0.165  0.752  0.083
    occupations:
  0.911  0.045  0.026
  0.045  0.889 -0.024
  0.026 -0.024  0.917
atom    7   Tr[ns(na)] =   5.43442
    eigenvalues: 
  0.838  0.931  0.948
    eigenvectors:
  0.336  0.000  0.664
  0.000  1.000  0.000
  0.664  0.000  0.336
    occupations:
  0.911  0.000 -0.052
  0.000  0.931  0.000
 -0.052  0.000  0.875
atom    8   Tr[ns(na)] =   5.43531
    eigenvalues: 
  0.838  0.931  0.949
    eigenvectors:
  0.337  0.000  0.663
  0.497  0.251  0.252
  0.167  0.749  0.085
    occupations:
  0.911 -0.045  0.026
 -0.045  0.889  0.024
  0.026  0.024  0.917
atom    9   Tr[ns(na)] =   5.43432
    eigenvalues: 
  0.838  0.931  0.948
    eigenvectors:
  0.337  0.000  0.663
  0.498  0.248  0.254
  0.165  0.752  0.083
    occupations:
  0.911  0.045  0.026
  0.045  0.889 -0.024
  0.026 -0.024  0.917
atom   10   Tr[ns(na)] =   5.43432
    eigenvalues: 
  0.838  0.931  0.948
    eigenvectors:
  0.337  0.000  0.663
  0.000  1.000  0.000
  0.663  0.000  0.337
    occupations:
  0.911  0.000 -0.052
  0.000  0.931  0.000
 -0.052  0.000  0.875
N of occupied +U levels =  56.2867726
 --- exit write_ns ---
 --- in v_hubbard ---
Hubbard energy    0.3856
 -------

     total cpu time spent up to now is      277.3 secs

     total energy              =    -537.90814433 Ry
     Harris-Foulkes estimate   =    -537.90807643 Ry
     estimated scf accuracy    <       0.00005184 Ry

     iteration #  8     ecut=    30.00 Ry     beta=0.20
     Davidson diagonalization with overlap
     ethr =  6.82E-08,  avg # of iterations =  2.0
 --- enter write_ns ---
 LDA+U parameters:
U( 1)     =  6.00000000
alpha( 1) =  0.00000000
U( 2)     =  0.00000000
alpha( 2) =  0.00000000
U( 3)     =  0.00000000
alpha( 3) = -0.15000000
U( 4)     =  0.00000000
alpha( 4) =  0.00000000
atom    1   Tr[ns(na)] =   8.04989
    eigenvalues: 
  0.515  0.517  0.997  0.997  0.999
    eigenvectors:
  0.000  0.000  0.000  0.000  1.000
  0.561  0.097  0.224  0.118  0.000
  0.097  0.561  0.118  0.224  0.000
  0.172  0.171  0.478  0.180  0.000
  0.170  0.171  0.180  0.478  0.000
    occupations:
  0.999  0.000  0.000  0.000  0.000
  0.000  0.680  0.000 -0.088  0.211
  0.000  0.000  0.681  0.211  0.087
  0.000 -0.088  0.211  0.832  0.000
  0.000  0.211  0.087  0.000  0.833
atom    2   Tr[ns(na)] =   8.04681
    eigenvalues: 
  0.514  0.516  0.997  0.997  0.999
    eigenvectors:
  0.000  0.000  0.000  0.000  1.000
  0.416  0.242  0.286  0.056  0.000
  0.243  0.416  0.056  0.285  0.000
  0.023  0.319  0.001  0.658  0.000
  0.319  0.023  0.657  0.001  0.000
    occupations:
  0.999  0.000  0.000  0.000  0.000
  0.000  0.680  0.001  0.087  0.212
  0.000  0.001  0.680  0.211 -0.087
  0.000  0.087  0.211  0.833  0.000
  0.000  0.212 -0.087  0.000  0.832
atom    3   Tr[ns(na)] =   3.79130
    eigenvalues: 
  0.356  0.356  0.381  0.401  0.401
    eigenvectors:
  0.000  0.000  1.000  0.000  0.000
  0.228  0.692  0.000  0.061  0.018
  0.692  0.228  0.000  0.018  0.061
  0.059  0.020  0.000  0.219  0.701
  0.020  0.059  0.000  0.701  0.219
    occupations:
  0.381  0.000  0.000  0.000  0.000
  0.000  0.360  0.000  0.000  0.012
  0.000  0.000  0.360  0.012  0.000
  0.000  0.000  0.012  0.398  0.000
  0.000  0.012  0.000  0.000  0.398
atom    4   Tr[ns(na)] =   3.79135
    eigenvalues: 
  0.356  0.356  0.381  0.401  0.401
    eigenvectors:
  0.000  0.000  1.000  0.000  0.000
  0.676  0.246  0.000  0.059  0.020
  0.246  0.675  0.000  0.019  0.060
  0.021  0.058  0.000  0.235  0.686
  0.056  0.022  0.000  0.687  0.235
    occupations:
  0.381  0.000  0.000  0.000  0.000
  0.000  0.360  0.000  0.000  0.012
  0.000  0.000  0.360  0.012  0.000
  0.000  0.000  0.012  0.398  0.000
  0.000  0.012  0.000  0.000  0.398
atom    5   Tr[ns(na)] =   5.44243
    eigenvalues: 
  0.841  0.932  0.949
    eigenvectors:
  0.336  0.000  0.664
  0.497  0.251  0.252
  0.167  0.749  0.085
    occupations:
  0.912 -0.044  0.026
 -0.044  0.891  0.024
  0.026  0.024  0.918
atom    6   Tr[ns(na)] =   5.43310
    eigenvalues: 
  0.838  0.930  0.948
    eigenvectors:
  0.337  0.000  0.663
  0.499  0.248  0.254
  0.165  0.752  0.083
    occupations:
  0.911  0.045  0.026
  0.045  0.889 -0.024
  0.026 -0.024  0.917
atom    7   Tr[ns(na)] =   5.43310
    eigenvalues: 
  0.838  0.930  0.948
    eigenvectors:
  0.337  0.000  0.663
  0.000  1.000  0.000
  0.663  0.000  0.337
    occupations:
  0.911  0.000 -0.052
  0.000  0.930  0.000
 -0.052  0.000  0.875
atom    8   Tr[ns(na)] =   5.43373
    eigenvalues: 
  0.838  0.930  0.948
    eigenvectors:
  0.337  0.000  0.663
  0.497  0.251  0.252
  0.167  0.749  0.085
    occupations:
  0.911 -0.045  0.026
 -0.045  0.889  0.024
  0.026  0.024  0.917
atom    9   Tr[ns(na)] =   5.43304
    eigenvalues: 
  0.838  0.930  0.948
    eigenvectors:
  0.337  0.000  0.663
  0.498  0.248  0.254
  0.165  0.752  0.083
    occupations:
  0.911  0.045  0.026
  0.045  0.889 -0.024
  0.026 -0.024  0.917
atom   10   Tr[ns(na)] =   5.43304
    eigenvalues: 
  0.838  0.930  0.948
    eigenvectors:
  0.337  0.000  0.663
  0.000  1.000  0.000
  0.663  0.000  0.337
    occupations:
  0.911  0.000 -0.052
  0.000  0.930  0.000
 -0.052  0.000  0.875
N of occupied +U levels =  56.2877820
 --- exit write_ns ---
 --- in v_hubbard ---
Hubbard energy    0.3860
 -------

     total cpu time spent up to now is      313.5 secs

     total energy              =    -537.90819232 Ry
     Harris-Foulkes estimate   =    -537.90815077 Ry
     estimated scf accuracy    <       0.00000875 Ry

     iteration #  9     ecut=    30.00 Ry     beta=0.20
     Davidson diagonalization with overlap
     ethr =  1.15E-08,  avg # of iterations =  1.4
 --- enter write_ns ---
 LDA+U parameters:
U( 1)     =  6.00000000
alpha( 1) =  0.00000000
U( 2)     =  0.00000000
alpha( 2) =  0.00000000
U( 3)     =  0.00000000
alpha( 3) = -0.15000000
U( 4)     =  0.00000000
alpha( 4) =  0.00000000
atom    1   Tr[ns(na)] =   8.04818
    eigenvalues: 
  0.514  0.517  0.997  0.997  0.999
    eigenvectors:
  0.000  0.000  0.000  0.000  1.000
  0.561  0.097  0.226  0.116  0.000
  0.097  0.561  0.116  0.226  0.000
  0.172  0.170  0.475  0.182  0.000
  0.170  0.172  0.183  0.476  0.000
    occupations:
  0.999  0.000  0.000  0.000  0.000
  0.000  0.680  0.000 -0.088  0.211
  0.000  0.000  0.681  0.211  0.087
  0.000 -0.088  0.211  0.832  0.000
  0.000  0.211  0.087  0.000  0.832
atom    2   Tr[ns(na)] =   8.04507
    eigenvalues: 
  0.513  0.515  0.997  0.997  0.999
    eigenvectors:
  0.000  0.000  0.000  0.000  1.000
  0.415  0.243  0.284  0.058  0.000
  0.243  0.416  0.058  0.284  0.000
  0.023  0.319  0.001  0.658  0.000
  0.319  0.023  0.657  0.001  0.000
    occupations:
  0.999  0.000  0.000  0.000  0.000
  0.000  0.679  0.001  0.087  0.212
  0.000  0.001  0.679  0.211 -0.088
  0.000  0.087  0.211  0.833  0.000
  0.000  0.212 -0.088  0.000  0.832
atom    3   Tr[ns(na)] =   3.79125
    eigenvalues: 
  0.356  0.356  0.381  0.401  0.401
    eigenvectors:
  0.000  0.000  1.000  0.000  0.000
  0.228  0.692  0.000  0.061  0.018
  0.692  0.228  0.000  0.018  0.061
  0.059  0.020  0.000  0.219  0.701
  0.020  0.059  0.000  0.701  0.219
    occupations:
  0.381  0.000  0.000  0.000  0.000
  0.000  0.360  0.000  0.000  0.012
  0.000  0.000  0.360  0.012  0.000
  0.000  0.000  0.012  0.398  0.000
  0.000  0.012  0.000  0.000  0.398
atom    4   Tr[ns(na)] =   3.79130
    eigenvalues: 
  0.356  0.356  0.381  0.401  0.402
    eigenvectors:
  0.000  0.000  1.000  0.000  0.000
  0.676  0.246  0.000  0.059  0.020
  0.246  0.675  0.000  0.019  0.060
  0.021  0.058  0.000  0.234  0.687
  0.056  0.022  0.000  0.688  0.234
    occupations:
  0.381  0.000  0.000  0.000  0.000
  0.000  0.360  0.000  0.000  0.012
  0.000  0.000  0.360  0.012  0.000
  0.000  0.000  0.012  0.398  0.000
  0.000  0.012  0.000  0.000  0.398
atom    5   Tr[ns(na)] =   5.44283
    eigenvalues: 
  0.841  0.932  0.949
    eigenvectors:
  0.336  0.000  0.664
  0.497  0.251  0.252
  0.167  0.749  0.085
    occupations:
  0.913 -0.044  0.026
 -0.044  0.891  0.024
  0.026  0.024  0.918
atom    6   Tr[ns(na)] =   5.43357
    eigenvalues: 
  0.838  0.930  0.948
    eigenvectors:
  0.337  0.000  0.663
  0.499  0.247  0.254
  0.165  0.753  0.083
    occupations:
  0.911  0.045  0.026
  0.045  0.889 -0.024
  0.026 -0.024  0.917
atom    7   Tr[ns(na)] =   5.43357
    eigenvalues: 
  0.838  0.930  0.948
    eigenvectors:
  0.337  0.000  0.663
  0.000  1.000  0.000
  0.663  0.000  0.337
    occupations:
  0.911  0.000 -0.052
  0.000  0.930  0.000
 -0.052  0.000  0.875
atom    8   Tr[ns(na)] =   5.43429
    eigenvalues: 
  0.838  0.930  0.948
    eigenvectors:
  0.337  0.000  0.663
  0.497  0.251  0.252
  0.167  0.749  0.085
    occupations:
  0.911 -0.045  0.026
 -0.045  0.889  0.024
  0.026  0.024  0.917
atom    9   Tr[ns(na)] =   5.43350
    eigenvalues: 
  0.838  0.930  0.948
    eigenvectors:
  0.337  0.000  0.663
  0.498  0.248  0.254
  0.165  0.752  0.083
    occupations:
  0.911  0.045  0.026
  0.045  0.889 -0.024
  0.026 -0.024  0.917
atom   10   Tr[ns(na)] =   5.43350
    eigenvalues: 
  0.838  0.930  0.948
    eigenvectors:
  0.337  0.000  0.663
  0.000  1.000  0.000
  0.663  0.000  0.337
    occupations:
  0.911  0.000 -0.052
  0.000  0.930  0.000
 -0.052  0.000  0.875
N of occupied +U levels =  56.2870504
 --- exit write_ns ---
 --- in v_hubbard ---
Hubbard energy    0.3868
 -------

     total cpu time spent up to now is      344.8 secs

     total energy              =    -537.90822737 Ry
     Harris-Foulkes estimate   =    -537.90819388 Ry
     estimated scf accuracy    <       0.00000280 Ry

     iteration # 10     ecut=    30.00 Ry     beta=0.20
     Davidson diagonalization with overlap
     ethr =  3.69E-09,  avg # of iterations =  2.0
 --- enter write_ns ---
 LDA+U parameters:
U( 1)     =  6.00000000
alpha( 1) =  0.00000000
U( 2)     =  0.00000000
alpha( 2) =  0.00000000
U( 3)     =  0.00000000
alpha( 3) = -0.15000000
U( 4)     =  0.00000000
alpha( 4) =  0.00000000
atom    1   Tr[ns(na)] =   8.04904
    eigenvalues: 
  0.515  0.517  0.997  0.997  0.999
    eigenvectors:
  0.000  0.000  0.000  0.000  1.000
  0.562  0.097  0.226  0.115  0.000
  0.097  0.561  0.116  0.226  0.000
  0.172  0.170  0.475  0.183  0.000
  0.170  0.172  0.183  0.476  0.000
    occupations:
  0.999  0.000  0.000  0.000  0.000
  0.000  0.680  0.000 -0.088  0.211
  0.000  0.000  0.681  0.210  0.087
  0.000 -0.088  0.210  0.832  0.000
  0.000  0.211  0.087  0.000  0.833
atom    2   Tr[ns(na)] =   8.04609
    eigenvalues: 
  0.514  0.516  0.997  0.997  0.999
    eigenvectors:
  0.000  0.000  0.000  0.000  1.000
  0.415  0.243  0.283  0.059  0.000
  0.243  0.415  0.058  0.283  0.000
  0.023  0.319  0.001  0.658  0.000
  0.319  0.023  0.657  0.001  0.000
    occupations:
  0.999  0.000  0.000  0.000  0.000
  0.000  0.679  0.001  0.087  0.212
  0.000  0.001  0.680  0.211 -0.088
  0.000  0.087  0.211  0.833  0.000
  0.000  0.212 -0.088  0.000  0.832
atom    3   Tr[ns(na)] =   3.79119
    eigenvalues: 
  0.356  0.356  0.381  0.401  0.401
    eigenvectors:
  0.000  0.000  1.000  0.000  0.000
  0.229  0.692  0.000  0.062  0.018
  0.692  0.229  0.000  0.018  0.062
  0.059  0.020  0.000  0.213  0.708
  0.020  0.059  0.000  0.708  0.213
    occupations:
  0.381  0.000  0.000  0.000  0.000
  0.000  0.360  0.000  0.000  0.012
  0.000  0.000  0.360  0.012  0.000
  0.000  0.000  0.012  0.398  0.000
  0.000  0.012  0.000  0.000  0.398
atom    4   Tr[ns(na)] =   3.79124
    eigenvalues: 
  0.356  0.356  0.381  0.401  0.401
    eigenvectors:
  0.000  0.000  1.000  0.000  0.000
  0.676  0.246  0.000  0.059  0.020
  0.246  0.675  0.000  0.019  0.060
  0.021  0.058  0.000  0.233  0.688
  0.056  0.022  0.000  0.689  0.233
    occupations:
  0.381  0.000  0.000  0.000  0.000
  0.000  0.360  0.000  0.000  0.012
  0.000  0.000  0.360  0.012  0.000
  0.000  0.000  0.012  0.398  0.000
  0.000  0.012  0.000  0.000  0.398
atom    5   Tr[ns(na)] =   5.44249
    eigenvalues: 
  0.841  0.932  0.949
    eigenvectors:
  0.336  0.000  0.664
  0.497  0.251  0.252
  0.167  0.749  0.085
    occupations:
  0.912 -0.044  0.026
 -0.044  0.891  0.024
  0.026  0.024  0.918
atom    6   Tr[ns(na)] =   5.43328
    eigenvalues: 
  0.838  0.930  0.948
    eigenvectors:
  0.337  0.000  0.663
  0.499  0.247  0.254
  0.165  0.753  0.083
    occupations:
  0.911  0.045  0.026
  0.045  0.889 -0.024
  0.026 -0.024  0.917
atom    7   Tr[ns(na)] =   5.43328
    eigenvalues: 
  0.838  0.930  0.948
    eigenvectors:
  0.337  0.000  0.663
  0.000  1.000  0.000
  0.663  0.000  0.337
    occupations:
  0.911  0.000 -0.052
  0.000  0.930  0.000
 -0.052  0.000  0.875
atom    8   Tr[ns(na)] =   5.43408
    eigenvalues: 
  0.838  0.930  0.948
    eigenvectors:
  0.337  0.000  0.663
  0.497  0.251  0.252
  0.167  0.749  0.085
    occupations:
  0.911 -0.045  0.026
 -0.045  0.889  0.024
  0.026  0.024  0.917
atom    9   Tr[ns(na)] =   5.43320
    eigenvalues: 
  0.838  0.930  0.948
    eigenvectors:
  0.337  0.000  0.663
  0.498  0.248  0.254
  0.165  0.752  0.083
    occupations:
  0.911  0.045  0.026
  0.045  0.889 -0.024
  0.026 -0.024  0.917
atom   10   Tr[ns(na)] =   5.43320
    eigenvalues: 
  0.838  0.930  0.948
    eigenvectors:
  0.337  0.000  0.663
  0.000  1.000  0.000
  0.663  0.000  0.337
    occupations:
  0.911  0.000 -0.052
  0.000  0.930  0.000
 -0.052  0.000  0.875
N of occupied +U levels =  56.2870928
 --- exit write_ns ---
 --- in v_hubbard ---
Hubbard energy    0.3866
 -------

     total cpu time spent up to now is      372.1 secs

     total energy              =    -537.90824594 Ry
     Harris-Foulkes estimate   =    -537.90822838 Ry
     estimated scf accuracy    <       0.00000256 Ry

     iteration # 11     ecut=    30.00 Ry     beta=0.20
     Davidson diagonalization with overlap
     ethr =  3.37E-09,  avg # of iterations =  1.0
 --- enter write_ns ---
 LDA+U parameters:
U( 1)     =  6.00000000
alpha( 1) =  0.00000000
U( 2)     =  0.00000000
alpha( 2) =  0.00000000
U( 3)     =  0.00000000
alpha( 3) = -0.15000000
U( 4)     =  0.00000000
alpha( 4) =  0.00000000
atom    1   Tr[ns(na)] =   8.04774
    eigenvalues: 
  0.514  0.516  0.997  0.997  0.999
    eigenvectors:
  0.000  0.000  0.000  0.000  1.000
  0.562  0.097  0.227  0.114  0.000
  0.096  0.562  0.115  0.227  0.000
  0.172  0.170  0.474  0.184  0.000
  0.169  0.172  0.184  0.474  0.000
    occupations:
  0.999  0.000  0.000  0.000  0.000
  0.000  0.679  0.000 -0.089  0.211
  0.000  0.000  0.681  0.210  0.088
  0.000 -0.089  0.210  0.832  0.000
  0.000  0.211  0.088  0.000  0.832
atom    2   Tr[ns(na)] =   8.04458
    eigenvalues: 
  0.513  0.515  0.997  0.997  0.999
    eigenvectors:
  0.000  0.000  0.000  0.000  1.000
  0.415  0.243  0.282  0.059  0.000
  0.244  0.415  0.059  0.282  0.000
  0.023  0.319  0.001  0.658  0.000
  0.319  0.023  0.657  0.001  0.000
    occupations:
  0.999  0.000  0.000  0.000  0.000
  0.000  0.679  0.001  0.088  0.212
  0.000  0.001  0.679  0.211 -0.088
  0.000  0.088  0.211  0.833  0.000
  0.000  0.212 -0.088  0.000  0.832
atom    3   Tr[ns(na)] =   3.79122
    eigenvalues: 
  0.356  0.356  0.381  0.401  0.401
    eigenvectors:
  0.000  0.000  1.000  0.000  0.000
  0.229  0.691  0.000  0.062  0.018
  0.691  0.229  0.000  0.018  0.062
  0.059  0.020  0.000  0.212  0.708
  0.020  0.059  0.000  0.708  0.212
    occupations:
  0.381  0.000  0.000  0.000  0.000
  0.000  0.360  0.000  0.000  0.012
  0.000  0.000  0.360  0.012  0.000
  0.000  0.000  0.012  0.398  0.000
  0.000  0.012  0.000  0.000  0.398
atom    4   Tr[ns(na)] =   3.79127
    eigenvalues: 
  0.356  0.356  0.381  0.401  0.402
    eigenvectors:
  0.000  0.000  1.000  0.000  0.000
  0.678  0.244  0.000  0.059  0.019
  0.244  0.677  0.000  0.019  0.060
  0.021  0.058  0.000  0.233  0.688
  0.057  0.022  0.000  0.689  0.233
    occupations:
  0.381  0.000  0.000  0.000  0.000
  0.000  0.359  0.000  0.000  0.012
  0.000  0.000  0.360  0.012  0.000
  0.000  0.000  0.012  0.398  0.000
  0.000  0.012  0.000  0.000  0.398
atom    5   Tr[ns(na)] =   5.44291
    eigenvalues: 
  0.841  0.932  0.949
    eigenvectors:
  0.336  0.000  0.664
  0.497  0.251  0.252
  0.167  0.749  0.085
    occupations:
  0.913 -0.044  0.026
 -0.044  0.891  0.024
  0.026  0.024  0.918
atom    6   Tr[ns(na)] =   5.43369
    eigenvalues: 
  0.838  0.930  0.948
    eigenvectors:
  0.337  0.000  0.663
  0.499  0.247  0.254
  0.165  0.753  0.083
    occupations:
  0.911  0.045  0.026
  0.045  0.889 -0.024
  0.026 -0.024  0.917
atom    7   Tr[ns(na)] =   5.43369
    eigenvalues: 
  0.838  0.930  0.948
    eigenvectors:
  0.337  0.000  0.663
  0.000  1.000  0.000
  0.663  0.000  0.337
    occupations:
  0.911  0.000 -0.052
  0.000  0.930  0.000
 -0.052  0.000  0.875
atom    8   Tr[ns(na)] =   5.43445
    eigenvalues: 
  0.838  0.931  0.948
    eigenvectors:
  0.337  0.000  0.663
  0.497  0.251  0.252
  0.167  0.749  0.085
    occupations:
  0.911 -0.045  0.026
 -0.045  0.889  0.024
  0.026  0.024  0.917
atom    9   Tr[ns(na)] =   5.43361
    eigenvalues: 
  0.838  0.930  0.948
    eigenvectors:
  0.337  0.000  0.663
  0.498  0.248  0.254
  0.165  0.752  0.083
    occupations:
  0.911  0.045  0.026
  0.045  0.889 -0.024
  0.026 -0.024  0.917
atom   10   Tr[ns(na)] =   5.43361
    eigenvalues: 
  0.838  0.930  0.948
    eigenvectors:
  0.337  0.000  0.663
  0.000  1.000  0.000
  0.663  0.000  0.337
    occupations:
  0.911  0.000 -0.052
  0.000  0.930  0.000
 -0.052  0.000  0.875
N of occupied +U levels =  56.2867746
 --- exit write_ns ---
 --- in v_hubbard ---
Hubbard energy    0.3865
 -------

     total cpu time spent up to now is      397.4 secs

     total energy              =    -537.90826014 Ry
     Harris-Foulkes estimate   =    -537.90824668 Ry
     estimated scf accuracy    <       0.00000067 Ry

     iteration # 12     ecut=    30.00 Ry     beta=0.20
     Davidson diagonalization with overlap
     ethr =  8.77E-10,  avg # of iterations =  1.0
 --- enter write_ns ---
 LDA+U parameters:
U( 1)     =  6.00000000
alpha( 1) =  0.00000000
U( 2)     =  0.00000000
alpha( 2) =  0.00000000
U( 3)     =  0.00000000
alpha( 3) = -0.15000000
U( 4)     =  0.00000000
alpha( 4) =  0.00000000
atom    1   Tr[ns(na)] =   8.04798
    eigenvalues: 
  0.514  0.517  0.997  0.997  0.999
    eigenvectors:
  0.000  0.000  0.000  0.000  1.000
  0.562  0.097  0.227  0.114  0.000
  0.096  0.562  0.114  0.228  0.000
  0.172  0.170  0.473  0.184  0.000
  0.169  0.172  0.184  0.474  0.000
    occupations:
  0.999  0.000  0.000  0.000  0.000
  0.000  0.679  0.000 -0.089  0.211
  0.000  0.000  0.681  0.210  0.088
  0.000 -0.089  0.210  0.832  0.000
  0.000  0.211  0.088  0.000  0.832
atom    2   Tr[ns(na)] =   8.04484
    eigenvalues: 
  0.513  0.515  0.997  0.997  0.999
    eigenvectors:
  0.000  0.000  0.000  0.000  1.000
  0.415  0.243  0.282  0.060  0.000
  0.244  0.415  0.059  0.282  0.000
  0.022  0.319  0.001  0.658  0.000
  0.319  0.023  0.657  0.001  0.000
    occupations:
  0.999  0.000  0.000  0.000  0.000
  0.000  0.679  0.001  0.088  0.212
  0.000  0.001  0.679  0.211 -0.088
  0.000  0.088  0.211  0.833  0.000
  0.000  0.212 -0.088  0.000  0.832
atom    3   Tr[ns(na)] =   3.79132
    eigenvalues: 
  0.356  0.356  0.381  0.401  0.401
    eigenvectors:
  0.000  0.000  1.000  0.000  0.000
  0.229  0.691  0.000  0.062  0.018
  0.691  0.229  0.000  0.018  0.062
  0.059  0.020  0.000  0.212  0.709
  0.020  0.059  0.000  0.709  0.212
    occupations:
  0.381  0.000  0.000  0.000  0.000
  0.000  0.360  0.000  0.000  0.012
  0.000  0.000  0.360  0.012  0.000
  0.000  0.000  0.012  0.398  0.000
  0.000  0.012  0.000  0.000  0.398
atom    4   Tr[ns(na)] =   3.79137
    eigenvalues: 
  0.356  0.356  0.381  0.401  0.402
    eigenvectors:
  0.000  0.000  1.000  0.000  0.000
  0.680  0.242  0.000  0.059  0.019
  0.243  0.678  0.000  0.019  0.060
  0.021  0.058  0.000  0.233  0.688
  0.057  0.021  0.000  0.689  0.232
    occupations:
  0.381  0.000  0.000  0.000  0.000
  0.000  0.360  0.000  0.000  0.012
  0.000  0.000  0.360  0.012  0.000
  0.000  0.000  0.012  0.398  0.000
  0.000  0.012  0.000  0.000  0.398
atom    5   Tr[ns(na)] =   5.44286
    eigenvalues: 
  0.841  0.932  0.949
    eigenvectors:
  0.336  0.000  0.664
  0.497  0.251  0.252
  0.167  0.749  0.085
    occupations:
  0.913 -0.044  0.026
 -0.044  0.891  0.024
  0.026  0.024  0.918
atom    6   Tr[ns(na)] =   5.43359
    eigenvalues: 
  0.838  0.930  0.948
    eigenvectors:
  0.337  0.000  0.663
  0.499  0.247  0.254
  0.165  0.753  0.083
    occupations:
  0.911  0.045  0.026
  0.045  0.889 -0.024
  0.026 -0.024  0.917
atom    7   Tr[ns(na)] =   5.43359
    eigenvalues: 
  0.838  0.930  0.948
    eigenvectors:
  0.337  0.000  0.663
  0.000  1.000  0.000
  0.663  0.000  0.337
    occupations:
  0.911  0.000 -0.052
  0.000  0.930  0.000
 -0.052  0.000  0.875
atom    8   Tr[ns(na)] =   5.43431
    eigenvalues: 
  0.838  0.931  0.948
    eigenvectors:
  0.337  0.000  0.663
  0.497  0.251  0.252
  0.167  0.749  0.085
    occupations:
  0.911 -0.045  0.026
 -0.045  0.889  0.024
  0.026  0.024  0.917
atom    9   Tr[ns(na)] =   5.43352
    eigenvalues: 
  0.838  0.930  0.948
    eigenvectors:
  0.337  0.000  0.663
  0.498  0.248  0.254
  0.165  0.752  0.083
    occupations:
  0.911  0.045  0.026
  0.045  0.889 -0.024
  0.026 -0.024  0.917
atom   10   Tr[ns(na)] =   5.43352
    eigenvalues: 
  0.838  0.930  0.948
    eigenvectors:
  0.337  0.000  0.663
  0.000  1.000  0.000
  0.663  0.000  0.337
    occupations:
  0.911  0.000 -0.052
  0.000  0.930  0.000
 -0.052  0.000  0.875
N of occupied +U levels =  56.2868947
 --- exit write_ns ---
 --- in v_hubbard ---
Hubbard energy    0.3864
 -------

     total cpu time spent up to now is      426.2 secs

     total energy              =    -537.90826889 Ry
     Harris-Foulkes estimate   =    -537.90826024 Ry
     estimated scf accuracy    <       0.00000021 Ry

     iteration # 13     ecut=    30.00 Ry     beta=0.20
     Davidson diagonalization with overlap
     ethr =  2.70E-10,  avg # of iterations =  1.3
 --- enter write_ns ---
 LDA+U parameters:
U( 1)     =  6.00000000
alpha( 1) =  0.00000000
U( 2)     =  0.00000000
alpha( 2) =  0.00000000
U( 3)     =  0.00000000
alpha( 3) = -0.15000000
U( 4)     =  0.00000000
alpha( 4) =  0.00000000
atom    1   Tr[ns(na)] =   8.04805
    eigenvalues: 
  0.514  0.517  0.997  0.997  0.999
    eigenvectors:
  0.000  0.000  0.000  0.000  1.000
  0.562  0.096  0.228  0.114  0.000
  0.096  0.562  0.114  0.228  0.000
  0.173  0.169  0.473  0.185  0.000
  0.169  0.172  0.185  0.474  0.000
    occupations:
  0.999  0.000  0.000  0.000  0.000
  0.000  0.679  0.000 -0.089  0.211
  0.000  0.000  0.681  0.210  0.088
  0.000 -0.089  0.210  0.832  0.000
  0.000  0.211  0.088  0.000  0.832
atom    2   Tr[ns(na)] =   8.04495
    eigenvalues: 
  0.513  0.515  0.997  0.997  0.999
    eigenvectors:
  0.000  0.000  0.000  0.000  1.000
  0.414  0.244  0.282  0.060  0.000
  0.244  0.415  0.060  0.282  0.000
  0.022  0.319  0.001  0.658  0.000
  0.319  0.023  0.657  0.001  0.000
    occupations:
  0.999  0.000  0.000  0.000  0.000
  0.000  0.679  0.001  0.088  0.212
  0.000  0.001  0.679  0.211 -0.088
  0.000  0.088  0.211  0.833  0.000
  0.000  0.212 -0.088  0.000  0.832
atom    3   Tr[ns(na)] =   3.79126
    eigenvalues: 
  0.356  0.356  0.381  0.401  0.401
    eigenvectors:
  0.000  0.000  1.000  0.000  0.000
  0.229  0.691  0.000  0.062  0.018
  0.691  0.229  0.000  0.018  0.062
  0.059  0.020  0.000  0.212  0.709
  0.020  0.059  0.000  0.709  0.212
    occupations:
  0.381  0.000  0.000  0.000  0.000
  0.000  0.360  0.000  0.000  0.012
  0.000  0.000  0.360  0.012  0.000
  0.000  0.000  0.012  0.398  0.000
  0.000  0.012  0.000  0.000  0.398
atom    4   Tr[ns(na)] =   3.79131
    eigenvalues: 
  0.356  0.356  0.381  0.401  0.402
    eigenvectors:
  0.000  0.000  1.000  0.000  0.000
  0.679  0.242  0.000  0.059  0.019
  0.243  0.678  0.000  0.019  0.060
  0.021  0.058  0.000  0.233  0.688
  0.057  0.022  0.000  0.690  0.232
    occupations:
  0.381  0.000  0.000  0.000  0.000
  0.000  0.360  0.000  0.000  0.012
  0.000  0.000  0.360  0.012  0.000
  0.000  0.000  0.012  0.398  0.000
  0.000  0.012  0.000  0.000  0.398
atom    5   Tr[ns(na)] =   5.44283
    eigenvalues: 
  0.841  0.932  0.949
    eigenvectors:
  0.336  0.000  0.664
  0.497  0.251  0.252
  0.167  0.749  0.085
    occupations:
  0.913 -0.044  0.026
 -0.044  0.891  0.024
  0.026  0.024  0.918
atom    6   Tr[ns(na)] =   5.43358
    eigenvalues: 
  0.838  0.930  0.948
    eigenvectors:
  0.337  0.000  0.663
  0.499  0.247  0.254
  0.165  0.753  0.083
    occupations:
  0.911  0.045  0.026
  0.045  0.889 -0.024
  0.026 -0.024  0.917
atom    7   Tr[ns(na)] =   5.43358
    eigenvalues: 
  0.838  0.930  0.948
    eigenvectors:
  0.337  0.000  0.663
  0.000  1.000  0.000
  0.663  0.000  0.337
    occupations:
  0.911  0.000 -0.052
  0.000  0.930  0.000
 -0.052  0.000  0.875
atom    8   Tr[ns(na)] =   5.43434
    eigenvalues: 
  0.838  0.931  0.948
    eigenvectors:
  0.337  0.000  0.663
  0.497  0.251  0.252
  0.167  0.749  0.085
    occupations:
  0.911 -0.045  0.026
 -0.045  0.889  0.024
  0.026  0.024  0.917
atom    9   Tr[ns(na)] =   5.43350
    eigenvalues: 
  0.838  0.930  0.948
    eigenvectors:
  0.337  0.000  0.663
  0.498  0.248  0.254
  0.165  0.752  0.083
    occupations:
  0.911  0.045  0.026
  0.045  0.889 -0.024
  0.026 -0.024  0.917
atom   10   Tr[ns(na)] =   5.43350
    eigenvalues: 
  0.838  0.930  0.948
    eigenvectors:
  0.337  0.000  0.663
  0.000  1.000  0.000
  0.663  0.000  0.337
    occupations:
  0.911  0.000 -0.052
  0.000  0.930  0.000
 -0.052  0.000  0.875
N of occupied +U levels =  56.2868951
 --- exit write_ns ---
 --- in v_hubbard ---
Hubbard energy    0.3864
 -------

     total cpu time spent up to now is      458.0 secs

     total energy              =    -537.90827467 Ry
     Harris-Foulkes estimate   =    -537.90826901 Ry
     estimated scf accuracy    <       0.00000002 Ry

     iteration # 14     ecut=    30.00 Ry     beta=0.20
     Davidson diagonalization with overlap
     ethr =  2.65E-11,  avg # of iterations =  2.8
 --- enter write_ns ---
 LDA+U parameters:
U( 1)     =  6.00000000
alpha( 1) =  0.00000000
U( 2)     =  0.00000000
alpha( 2) =  0.00000000
U( 3)     =  0.00000000
alpha( 3) = -0.15000000
U( 4)     =  0.00000000
alpha( 4) =  0.00000000
atom    1   Tr[ns(na)] =   8.04816
    eigenvalues: 
  0.514  0.517  0.997  0.997  0.999
    eigenvectors:
  0.000  0.000  0.000  0.000  1.000
  0.562  0.096  0.228  0.114  0.000
  0.096  0.562  0.114  0.228  0.000
  0.173  0.169  0.473  0.185  0.000
  0.169  0.172  0.185  0.474  0.000
    occupations:
  0.999  0.000  0.000  0.000  0.000
  0.000  0.679  0.000 -0.089  0.211
  0.000  0.000  0.681  0.210  0.088
  0.000 -0.089  0.210  0.832  0.000
  0.000  0.211  0.088  0.000  0.833
atom    2   Tr[ns(na)] =   8.04507
    eigenvalues: 
  0.513  0.515  0.997  0.997  0.999
    eigenvectors:
  0.000  0.000  0.000  0.000  1.000
  0.414  0.244  0.282  0.060  0.000
  0.244  0.415  0.060  0.282  0.000
  0.022  0.319  0.001  0.658  0.000
  0.319  0.023  0.657  0.001  0.000
    occupations:
  0.999  0.000  0.000  0.000  0.000
  0.000  0.679  0.001  0.088  0.212
  0.000  0.001  0.679  0.211 -0.088
  0.000  0.088  0.211  0.833  0.000
  0.000  0.212 -0.088  0.000  0.832
atom    3   Tr[ns(na)] =   3.79126
    eigenvalues: 
  0.356  0.356  0.381  0.401  0.401
    eigenvectors:
  0.000  0.000  1.000  0.000  0.000
  0.229  0.691  0.000  0.062  0.018
  0.691  0.229  0.000  0.018  0.062
  0.059  0.020  0.000  0.213  0.707
  0.020  0.059  0.000  0.707  0.213
    occupations:
  0.381  0.000  0.000  0.000  0.000
  0.000  0.360  0.000  0.000  0.012
  0.000  0.000  0.360  0.012  0.000
  0.000  0.000  0.012  0.398  0.000
  0.000  0.012  0.000  0.000  0.398
atom    4   Tr[ns(na)] =   3.79131
    eigenvalues: 
  0.356  0.356  0.381  0.401  0.402
    eigenvectors:
  0.000  0.000  1.000  0.000  0.000
  0.680  0.242  0.000  0.059  0.019
  0.243  0.678  0.000  0.019  0.060
  0.021  0.058  0.000  0.233  0.688
  0.057  0.021  0.000  0.690  0.232
    occupations:
  0.381  0.000  0.000  0.000  0.000
  0.000  0.360  0.000  0.000  0.012
  0.000  0.000  0.360  0.012  0.000
  0.000  0.000  0.012  0.398  0.000
  0.000  0.012  0.000  0.000  0.398
atom    5   Tr[ns(na)] =   5.44279
    eigenvalues: 
  0.841  0.932  0.949
    eigenvectors:
  0.336  0.000  0.664
  0.497  0.251  0.252
  0.167  0.749  0.085
    occupations:
  0.913 -0.044  0.026
 -0.044  0.891  0.024
  0.026  0.024  0.918
atom    6   Tr[ns(na)] =   5.43355
    eigenvalues: 
  0.838  0.930  0.948
    eigenvectors:
  0.337  0.000  0.663
  0.499  0.247  0.254
  0.165  0.753  0.083
    occupations:
  0.911  0.045  0.026
  0.045  0.889 -0.024
  0.026 -0.024  0.917
atom    7   Tr[ns(na)] =   5.43355
    eigenvalues: 
  0.838  0.930  0.948
    eigenvectors:
  0.337  0.000  0.663
  0.000  1.000  0.000
  0.663  0.000  0.337
    occupations:
  0.911  0.000 -0.052
  0.000  0.930  0.000
 -0.052  0.000  0.875
atom    8   Tr[ns(na)] =   5.43430
    eigenvalues: 
  0.838  0.931  0.948
    eigenvectors:
  0.337  0.000  0.663
  0.497  0.251  0.252
  0.167  0.749  0.085
    occupations:
  0.911 -0.045  0.026
 -0.045  0.889  0.024
  0.026  0.024  0.917
atom    9   Tr[ns(na)] =   5.43347
    eigenvalues: 
  0.838  0.930  0.948
    eigenvectors:
  0.337  0.000  0.663
  0.498  0.248  0.254
  0.165  0.752  0.083
    occupations:
  0.911  0.045  0.026
  0.045  0.889 -0.024
  0.026 -0.024  0.917
atom   10   Tr[ns(na)] =   5.43347
    eigenvalues: 
  0.838  0.930  0.948
    eigenvectors:
  0.337  0.000  0.663
  0.000  1.000  0.000
  0.663  0.000  0.337
    occupations:
  0.911  0.000 -0.052
  0.000  0.930  0.000
 -0.052  0.000  0.875
N of occupied +U levels =  56.2869249
 --- exit write_ns ---
 --- in v_hubbard ---
Hubbard energy    0.3864
 -------

     total cpu time spent up to now is      488.3 secs

     End of self-consistent calculation

          k = 0.0000 0.0000 0.0000 (  2175 PWs)   bands (ev):

   -19.7955 -19.6226  -6.5460  -5.8866  -5.8738  -5.8294  -5.8022  -5.4770
    -3.9098  -3.2943  -3.2911  -3.2592  -3.0258  -3.0249   5.1369   6.1600
     6.1653   6.2120   6.6269   6.6349   7.4787   7.4960   7.6860   7.7073
     8.0359   8.0380   9.2787   9.6005   9.6156   9.9629   9.9654  10.1383
    10.4408  10.4446  10.6581  10.6946  10.6989  10.9956  11.8279  11.8286
    14.6956  14.6980  15.4302  15.4323  16.2019  16.7865

     occupation numbers 
     0.0313   0.0313   0.0313   0.0313   0.0313   0.0313   0.0313   0.0313
     0.0313   0.0313   0.0313   0.0313   0.0313   0.0313   0.0313   0.0313
     0.0313   0.0313   0.0313   0.0313   0.0313   0.0313   0.0313   0.0313
     0.0313   0.0313   0.0312   0.0312   0.0312   0.0312   0.0312   0.0312
     0.0312   0.0312   0.0311   0.0310   0.0310   0.0289   0.0023   0.0023
     0.0000   0.0000   0.0000   0.0000   0.0000   0.0000

          k =-0.2471-0.1427 0.1027 (  2181 PWs)   bands (ev):

   -19.7721 -19.6674  -6.7248  -6.3023  -5.9684  -5.8585  -5.6111  -5.4768
    -3.6764  -3.4320  -2.9546  -2.9128  -2.8815  -2.7726   5.4331   5.9260
     6.2108   6.2674   6.5829   6.6223   6.8832   7.2795   7.4154   7.5646
     7.6301   7.9021   9.3210   9.4843   9.6788   9.8311   9.8702   9.9572
    10.1818  10.3541  10.3811  10.6589  10.7702  10.8134  12.2537  12.3273
    14.2450  14.2578  15.8175  16.0725  16.9737  17.2683

     occupation numbers 
     0.0625   0.0625   0.0625   0.0625   0.0625   0.0625   0.0625   0.0625
     0.0625   0.0625   0.0625   0.0625   0.0625   0.0625   0.0625   0.0625
     0.0625   0.0625   0.0625   0.0625   0.0625   0.0625   0.0625   0.0625
     0.0625   0.0625   0.0625   0.0625   0.0625   0.0625   0.0625   0.0625
     0.0625   0.0625   0.0625   0.0622   0.0617   0.0613   0.0001   0.0000
     0.0000   0.0000   0.0000   0.0000   0.0000   0.0000

          k = 0.4942 0.2853-0.2053 (  2202 PWs)   bands (ev):

   -19.7317 -19.7297  -6.7305  -6.7068  -5.9788  -5.9606  -5.5338  -5.5060
    -3.4200  -3.4185  -2.8125  -2.8063  -2.5089  -2.5035   5.6078   5.6361
     6.3470   6.3577   6.5321   6.5455   6.8472   6.8698   7.2451   7.2739
     7.3960   7.4180   9.3029   9.3214   9.7303   9.7498   9.9971  10.0227
    10.1095  10.1197  10.3361  10.3597  10.5777  10.5869  13.2316  13.2783
    13.3156  13.3629  16.8307  16.8392  17.1272  17.1329

     occupation numbers 
     0.0313   0.0313   0.0313   0.0313   0.0313   0.0313   0.0313   0.0313
     0.0313   0.0313   0.0313   0.0313   0.0313   0.0313   0.0313   0.0313
     0.0313   0.0313   0.0313   0.0313   0.0313   0.0313   0.0313   0.0313
     0.0313   0.0313   0.0312   0.0312   0.0312   0.0312   0.0312   0.0312
     0.0312   0.0312   0.0312   0.0312   0.0312   0.0312   0.0000   0.0000
     0.0000   0.0000   0.0000   0.0000   0.0000   0.0000

[...]
     0.0625   0.0625   0.0625   0.0625   0.0625   0.0625   0.0625   0.0625
     0.0625   0.0625   0.0625   0.0625   0.0625   0.0625   0.0625   0.0625
     0.0625   0.0625   0.0624   0.0623   0.0620   0.0619   0.0067   0.0000
     0.0000   0.0000   0.0000   0.0000   0.0000   0.0000

          k = 0.4942-0.5706 0.1027 (  2198 PWs)   bands (ev):

   -19.7391 -19.7294  -6.9495  -6.6462  -6.1269  -5.8974  -5.5181  -5.3802
    -3.3423  -3.2754  -2.8890  -2.7143  -2.5327  -2.3861   5.3593   5.7717
     5.9217   6.4173   6.4435   6.5712   6.6623   7.0245   7.2527   7.3376
     7.7898   7.9124   8.7684   9.0924   9.4244   9.6607   9.6762   9.9957
    10.2187  10.3056  10.3184  10.4366  10.6382  10.8105  12.2475  12.6853
    13.3755  14.2971  16.9085  17.1097  17.3069  18.0154

     occupation numbers 
     0.0625   0.0625   0.0625   0.0625   0.0625   0.0625   0.0625   0.0625
     0.0625   0.0625   0.0625   0.0625   0.0625   0.0625   0.0625   0.0625
     0.0625   0.0625   0.0625   0.0625   0.0625   0.0625   0.0625   0.0625
     0.0625   0.0625   0.0625   0.0625   0.0625   0.0625   0.0625   0.0625
     0.0625   0.0625   0.0625   0.0625   0.0623   0.0613   0.0001   0.0000
     0.0000   0.0000   0.0000   0.0000   0.0000   0.0000

          k =-0.7412 0.1427-0.1027 (  2198 PWs)   bands (ev):

   -19.7391 -19.7294  -6.9491  -6.6469  -6.1259  -5.8985  -5.5171  -5.3808
    -3.3416  -3.2755  -2.8888  -2.7153  -2.5322  -2.3864   5.3608   5.7696
     5.9231   6.4212   6.4392   6.5781   6.6528   7.0258   7.2507   7.3421
     7.7887   7.9103   8.7683   9.0927   9.4262   9.6634   9.6757   9.9974
    10.2128  10.3131  10.3160  10.4360  10.6314  10.8141  12.2476  12.6856
    13.3756  14.2974  16.9066  17.1125  17.3063  18.0148

     occupation numbers 
     0.0625   0.0625   0.0625   0.0625   0.0625   0.0625   0.0625   0.0625
     0.0625   0.0625   0.0625   0.0625   0.0625   0.0625   0.0625   0.0625
     0.0625   0.0625   0.0625   0.0625   0.0625   0.0625   0.0625   0.0625
     0.0625   0.0625   0.0625   0.0625   0.0625   0.0625   0.0625   0.0625
     0.0625   0.0625   0.0625   0.0625   0.0623   0.0613   0.0001   0.0000
     0.0000   0.0000   0.0000   0.0000   0.0000   0.0000

          k = 0.2471-0.7133-0.1027 (  2198 PWs)   bands (ev):

   -19.7390 -19.7294  -6.9487  -6.6477  -6.1243  -5.9001  -5.5184  -5.3790
    -3.3417  -3.2757  -2.8884  -2.7167  -2.5319  -2.3860   5.3611   5.7715
     5.9235   6.4208   6.4386   6.5817   6.6490   7.0241   7.2496   7.3477
     7.7848   7.9092   8.7648   9.0964   9.4300   9.6558   9.6809   9.9950
    10.2032  10.3085  10.3313  10.4506  10.6190  10.8118  12.2477  12.6856
    13.3755  14.2974  16.9046  17.1157  17.3065  18.0162

     occupation numbers 
     0.0625   0.0625   0.0625   0.0625   0.0625   0.0625   0.0625   0.0625
     0.0625   0.0625   0.0625   0.0625   0.0625   0.0625   0.0625   0.0625
     0.0625   0.0625   0.0625   0.0625   0.0625   0.0625   0.0625   0.0625
     0.0625   0.0625   0.0625   0.0625   0.0625   0.0625   0.0625   0.0625
     0.0625   0.0625   0.0625   0.0625   0.0623   0.0613   0.0001   0.0000
     0.0000   0.0000   0.0000   0.0000   0.0000   0.0000

          k =-0.7412-0.1427 0.1027 (  2198 PWs)   bands (ev):

   -19.7390 -19.7294  -6.9491  -6.6469  -6.1253  -5.8990  -5.5193  -5.3783
    -3.3424  -3.2756  -2.8885  -2.7157  -2.5325  -2.3856   5.3595   5.7738
     5.9219   6.4149   6.4453   6.5744   6.6583   7.0234   7.2519   7.3423
     7.7858   7.9117   8.7651   9.0958   9.4281   9.6522   9.6828   9.9933
    10.2086  10.3043  10.3306  10.4511  10.6261  10.8083  12.2476  12.6853
    13.3754  14.2971  16.9064  17.1128  17.3071  18.0166

     occupation numbers 
     0.0625   0.0625   0.0625   0.0625   0.0625   0.0625   0.0625   0.0625
     0.0625   0.0625   0.0625   0.0625   0.0625   0.0625   0.0625   0.0625
     0.0625   0.0625   0.0625   0.0625   0.0625   0.0625   0.0625   0.0625
     0.0625   0.0625   0.0625   0.0625   0.0625   0.0625   0.0625   0.0625
     0.0625   0.0625   0.0625   0.0625   0.0623   0.0613   0.0001   0.0000
     0.0000   0.0000   0.0000   0.0000   0.0000   0.0000

          k = 0.2471 0.7133 0.1027 (  2198 PWs)   bands (ev):

   -19.7378 -19.7287  -6.9625  -6.6433  -6.1402  -5.8719  -5.5027  -5.3979
    -3.3439  -3.2758  -2.8869  -2.7184  -2.5340  -2.3899   5.3749   5.7823
     5.9131   6.4179   6.4494   6.5762   6.6543   7.0184   7.2582   7.3552
     7.7740   7.9050   8.7662   9.0921   9.4289   9.6573   9.6791   9.9901
    10.2190  10.2998  10.3326  10.4490  10.6311  10.7923  12.2465  12.6880
    13.3721  14.2987  16.9085  17.1124  17.3077  18.0160

     occupation numbers 
     0.0625   0.0625   0.0625   0.0625   0.0625   0.0625   0.0625   0.0625
     0.0625   0.0625   0.0625   0.0625   0.0625   0.0625   0.0625   0.0625
     0.0625   0.0625   0.0625   0.0625   0.0625   0.0625   0.0625   0.0625
     0.0625   0.0625   0.0625   0.0625   0.0625   0.0625   0.0625   0.0625
     0.0625   0.0625   0.0625   0.0625   0.0623   0.0615   0.0001   0.0000
     0.0000   0.0000   0.0000   0.0000   0.0000   0.0000

          k = 0.2471-0.4280 0.0000 (  2203 PWs)   bands (ev):

   -19.7514 -19.7092  -6.8473  -6.6391  -6.0629  -5.9744  -5.4360  -5.3688
    -3.5839  -3.3116  -2.8077  -2.7126  -2.5850  -2.5702   5.5436   5.7223
     6.1530   6.2688   6.4791   6.5558   6.7988   6.9310   7.2239   7.3753
     7.4018   8.1672   8.8534   9.2700   9.6347   9.6901   9.8598  10.0615
    10.1771  10.2375  10.3305  10.4133  10.4786  10.8884  12.1524  13.2632
    13.3461  14.0941  16.4335  16.9950  17.4194  17.9263

     occupation numbers 
     0.0625   0.0625   0.0625   0.0625   0.0625   0.0625   0.0625   0.0625
     0.0625   0.0625   0.0625   0.0625   0.0625   0.0625   0.0625   0.0625
     0.0625   0.0625   0.0625   0.0625   0.0625   0.0625   0.0625   0.0625
     0.0625   0.0625   0.0625   0.0625   0.0625   0.0625   0.0625   0.0625
     0.0625   0.0625   0.0625   0.0625   0.0625   0.0603   0.0003   0.0000
     0.0000   0.0000   0.0000   0.0000   0.0000   0.0000

          k =-0.4942 0.0000 0.0000 (  2203 PWs)   bands (ev):

   -19.7514 -19.7092  -6.8474  -6.6390  -6.0630  -5.9744  -5.4360  -5.3687
    -3.5839  -3.3116  -2.8077  -2.7126  -2.5852  -2.5700   5.5435   5.7222
     6.1530   6.2688   6.4796   6.5555   6.7984   6.9311   7.2240   7.3710
     7.4060   8.1673   8.8534   9.2701   9.6339   9.6908   9.8599  10.0612
    10.1776  10.2383  10.3309  10.4123  10.4781  10.8885  12.1524  13.2633
    13.3460  14.0941  16.4335  16.9950  17.4194  17.9269

     occupation numbers 
     0.0625   0.0625   0.0625   0.0625   0.0625   0.0625   0.0625   0.0625
     0.0625   0.0625   0.0625   0.0625   0.0625   0.0625   0.0625   0.0625
     0.0625   0.0625   0.0625   0.0625   0.0625   0.0625   0.0625   0.0625
     0.0625   0.0625   0.0625   0.0625   0.0625   0.0625   0.0625   0.0625
     0.0625   0.0625   0.0625   0.0625   0.0625   0.0603   0.0003   0.0000
     0.0000   0.0000   0.0000   0.0000   0.0000   0.0000

          k = 0.4942 0.2853 0.4107 (  2202 PWs)   bands (ev):

   -19.7434 -19.7319  -7.1589  -6.4476  -6.2287  -5.9802  -5.5349  -5.2882
    -3.2265  -3.1171  -3.0721  -2.6459  -2.4783  -2.2201   4.9711   5.6407
     5.7528   6.3770   6.4900   6.9274   7.0276   7.1004   7.1183   7.2254
     7.9989   8.1469   8.2901   8.5770   9.4084   9.6614  10.0149  10.0439
    10.0824  10.2154  10.3114  10.5517  10.5813  10.9240  11.7263  12.3516
    13.2793  14.7305  17.0462  17.2687  17.5187  17.6132

     occupation numbers 
     0.0313   0.0313   0.0313   0.0313   0.0313   0.0313   0.0313   0.0313
     0.0313   0.0313   0.0313   0.0313   0.0313   0.0313   0.0313   0.0313
     0.0313   0.0313   0.0313   0.0313   0.0313   0.0313   0.0313   0.0313
     0.0313   0.0313   0.0313   0.0313   0.0312   0.0312   0.0312   0.0312
     0.0312   0.0312   0.0312   0.0312   0.0312   0.0298   0.0042   0.0000
     0.0000   0.0000   0.0000   0.0000   0.0000   0.0000

          k = 0.0000 0.5706-0.4107 (  2202 PWs)   bands (ev):

   -19.7434 -19.7319  -7.1589  -6.4475  -6.2289  -5.9802  -5.5349  -5.2882
    -3.2265  -3.1171  -3.0721  -2.6459  -2.4783  -2.2201   4.9711   5.6407
     5.7527   6.3772   6.4900   6.9276   7.0268   7.1011   7.1182   7.2254
     7.9989   8.1467   8.2904   8.5769   9.4083   9.6614  10.0145  10.0444
    10.0825  10.2150  10.3111  10.5552  10.5783  10.9240  11.7263  12.3516
    13.2793  14.7305  17.0463  17.2687  17.5187  17.6132

     occupation numbers 
     0.0313   0.0313   0.0313   0.0313   0.0313   0.0313   0.0313   0.0313
     0.0313   0.0313   0.0313   0.0313   0.0313   0.0313   0.0313   0.0313
     0.0313   0.0313   0.0313   0.0313   0.0313   0.0313   0.0313   0.0313
     0.0313   0.0313   0.0313   0.0313   0.0312   0.0312   0.0312   0.0312
     0.0312   0.0312   0.0312   0.0312   0.0312   0.0298   0.0042   0.0000
     0.0000   0.0000   0.0000   0.0000   0.0000   0.0000

          k = 0.7412-0.4280 0.0000 (  2204 PWs)   bands (ev):

   -19.7507 -19.7119  -6.7258  -6.6174  -6.1371  -5.8305  -5.6910  -5.5581
    -3.2216  -3.1114  -3.0515  -2.6821  -2.6686  -2.5921   5.6273   5.7751
     6.0381   6.4185   6.4412   6.6970   6.7876   6.9279   7.2888   7.3535
     7.5275   7.9693   8.8086   9.3578   9.3816   9.6421   9.8024  10.0655
    10.2176  10.2318  10.4456  10.4629  10.5025  10.5916  12.1528  13.1838
    13.2630  14.1206  16.6835  16.7285  17.5914  17.7950

     occupation numbers 
     0.0625   0.0625   0.0625   0.0625   0.0625   0.0625   0.0625   0.0625
     0.0625   0.0625   0.0625   0.0625   0.0625   0.0625   0.0625   0.0625
     0.0625   0.0625   0.0625   0.0625   0.0625   0.0625   0.0625   0.0625
     0.0625   0.0625   0.0625   0.0625   0.0625   0.0625   0.0625   0.0625
     0.0625   0.0625   0.0625   0.0625   0.0624   0.0624   0.0003   0.0000
     0.0000   0.0000   0.0000   0.0000   0.0000   0.0000

          k = 0.0000-0.8559 0.0000 (  2204 PWs)   bands (ev):

   -19.7505 -19.7121  -6.7332  -6.6047  -6.1434  -5.8358  -5.7015  -5.5404
    -3.2196  -3.1118  -3.0514  -2.6843  -2.6734  -2.5885   5.6403   5.7942
     6.0302   6.4100   6.4392   6.6869   6.7761   6.9274   7.2787   7.3457
     7.5216   7.9899   8.8335   9.3677   9.3845   9.6330   9.8001  10.0586
    10.2052  10.2268  10.4485  10.4569  10.5160  10.5932  12.1499  13.1830
    13.2622  14.1235  16.6857  16.7270  17.5894  17.7946

     occupation numbers 
     0.0625   0.0625   0.0625   0.0625   0.0625   0.0625   0.0625   0.0625
     0.0625   0.0625   0.0625   0.0625   0.0625   0.0625   0.0625   0.0625
     0.0625   0.0625   0.0625   0.0625   0.0625   0.0625   0.0625   0.0625
     0.0625   0.0625   0.0625   0.0625   0.0625   0.0625   0.0625   0.0625
     0.0625   0.0625   0.0625   0.0625   0.0624   0.0624   0.0003   0.0000
     0.0000   0.0000   0.0000   0.0000   0.0000   0.0000

          k = 0.4942-0.2853-0.1027 (  2211 PWs)   bands (ev):

   -19.7392 -19.7273  -6.9784  -6.5399  -6.3248  -5.7007  -5.6048  -5.3679
    -3.3571  -3.1763  -3.0588  -2.6060  -2.5701  -2.3815   5.3921   5.8169
     5.8597   6.2289   6.4954   6.7305   6.8303   6.8426   7.2402   7.2675
     7.8343   7.9500   8.7334   9.2552   9.3147   9.5561   9.8355   9.8724
    10.2810  10.2915  10.4592  10.5271  10.5763  10.6252  12.2024  12.7017
    13.4196  14.2806  16.8864  16.9352  17.5773  17.9280

     occupation numbers 
     0.0625   0.0625   0.0625   0.0625   0.0625   0.0625   0.0625   0.0625
     0.0625   0.0625   0.0625   0.0625   0.0625   0.0625   0.0625   0.0625
     0.0625   0.0625   0.0625   0.0625   0.0625   0.0625   0.0625   0.0625
     0.0625   0.0625   0.0625   0.0625   0.0625   0.0625   0.0625   0.0625
     0.0625   0.0625   0.0625   0.0624   0.0624   0.0623   0.0002   0.0000
     0.0000   0.0000   0.0000   0.0000   0.0000   0.0000

          k = 0.0000-0.5706 0.1027 (  2211 PWs)   bands (ev):

   -19.7404 -19.7280  -6.9657  -6.5425  -6.3222  -5.7075  -5.6250  -5.3526
    -3.3570  -3.1759  -3.0584  -2.6035  -2.5696  -2.3773   5.3774   5.8282
     5.8440   6.2361   6.4921   6.7265   6.8319   6.8428   7.2274   7.2667
     7.8598   7.9392   8.7368   9.2373   9.3103   9.5813   9.8269   9.8832
    10.2686  10.2899  10.4556  10.5318  10.5836  10.6314  12.2036  12.6991
    13.4229  14.2789  16.8856  16.9356  17.5780  17.9274

     occupation numbers 
     0.0625   0.0625   0.0625   0.0625   0.0625   0.0625   0.0625   0.0625
     0.0625   0.0625   0.0625   0.0625   0.0625   0.0625   0.0625   0.0625
     0.0625   0.0625   0.0625   0.0625   0.0625   0.0625   0.0625   0.0625
     0.0625   0.0625   0.0625   0.0625   0.0625   0.0625   0.0625   0.0625
     0.0625   0.0625   0.0625   0.0624   0.0624   0.0623   0.0002   0.0000
     0.0000   0.0000   0.0000   0.0000   0.0000   0.0000

          k = 0.7412 0.4280 0.3080 (  2210 PWs)   bands (ev):

   -19.7401 -19.7304  -6.9018  -6.4547  -6.2997  -5.8001  -5.7684  -5.4858
    -3.0903  -3.0731  -2.9761  -2.7374  -2.6299  -2.4284   5.4343   5.8835
     5.9430   6.2585   6.5024   6.6088   6.8388   6.9510   7.2625   7.3162
     7.8443   7.9132   8.6799   9.1719   9.3652   9.4475   9.6196  10.0042
    10.2121  10.2527  10.3704  10.5069  10.6336  10.6668  12.1647  12.6534
    13.3722  14.2491  17.0596  17.0711  17.5461  17.9022

     occupation numbers 
     0.0625   0.0625   0.0625   0.0625   0.0625   0.0625   0.0625   0.0625
     0.0625   0.0625   0.0625   0.0625   0.0625   0.0625   0.0625   0.0625
     0.0625   0.0625   0.0625   0.0625   0.0625   0.0625   0.0625   0.0625
     0.0625   0.0625   0.0625   0.0625   0.0625   0.0625   0.0625   0.0625
     0.0625   0.0625   0.0625   0.0624   0.0623   0.0622   0.0003   0.0000
     0.0000   0.0000   0.0000   0.0000   0.0000   0.0000

          k = 0.0000 0.8559-0.3080 (  2210 PWs)   bands (ev):

   -19.7401 -19.7304  -6.9018  -6.4547  -6.2996  -5.8001  -5.7683  -5.4858
    -3.0903  -3.0731  -2.9761  -2.7375  -2.6299  -2.4284   5.4343   5.8835
     5.9430   6.2585   6.5026   6.6086   6.8393   6.9505   7.2621   7.3168
     7.8442   7.9131   8.6799   9.1719   9.3654   9.4473   9.6196  10.0037
    10.2126  10.2522  10.3715  10.5063  10.6331  10.6672  12.1647  12.6534
    13.3722  14.2491  17.0595  17.0712  17.5461  17.9021

     occupation numbers 
     0.0625   0.0625   0.0625   0.0625   0.0625   0.0625   0.0625   0.0625
     0.0625   0.0625   0.0625   0.0625   0.0625   0.0625   0.0625   0.0625
     0.0625   0.0625   0.0625   0.0625   0.0625   0.0625   0.0625   0.0625
     0.0625   0.0625   0.0625   0.0625   0.0625   0.0625   0.0625   0.0625
     0.0625   0.0625   0.0625   0.0624   0.0623   0.0622   0.0003   0.0000
     0.0000   0.0000   0.0000   0.0000   0.0000   0.0000

          k = 0.2471 0.7133-0.2053 (  2206 PWs)   bands (ev):

   -19.7375 -19.7370  -6.8897  -6.8726  -6.0421  -6.0117  -5.4410  -5.4187
    -3.1679  -3.1673  -2.8300  -2.8251  -2.3861  -2.3820   5.6431   5.6562
     5.8496   5.8666   6.5886   6.5906   6.7838   6.7951   7.2471   7.2563
     8.1236   8.1473   8.7324   8.7536   9.3890   9.4041   9.8854   9.8931
    10.1971  10.2113  10.3450  10.3472  10.6820  10.6996  12.2069  12.2141
    13.9440  13.9561  17.4239  17.4262  17.8700  17.8746

     occupation numbers 
     0.0625   0.0625   0.0625   0.0625   0.0625   0.0625   0.0625   0.0625
     0.0625   0.0625   0.0625   0.0625   0.0625   0.0625   0.0625   0.0625
     0.0625   0.0625   0.0625   0.0625   0.0625   0.0625   0.0625   0.0625
     0.0625   0.0625   0.0625   0.0625   0.0625   0.0625   0.0625   0.0625
     0.0625   0.0625   0.0625   0.0625   0.0621   0.0621   0.0002   0.0002
     0.0000   0.0000   0.0000   0.0000   0.0000   0.0000

          k =-0.7412-0.1427-0.2053 (  2206 PWs)   bands (ev):

   -19.7383 -19.7381  -6.8886  -6.8560  -6.0406  -6.0389  -5.4412  -5.4089
    -3.1675  -3.1656  -2.8300  -2.8289  -2.3864  -2.3726   5.6372   5.6495
     5.8608   5.8669   6.5657   6.5837   6.7760   6.7965   7.2362   7.2519
     8.1477   8.1491   8.7554   8.7587   9.4058   9.4063   9.8638   9.8793
    10.1913  10.2015  10.3447  10.3532  10.6978  10.7035  12.2050  12.2126
    13.9447  13.9574  17.4255  17.4263  17.8693  17.8719

     occupation numbers 
     0.0625   0.0625   0.0625   0.0625   0.0625   0.0625   0.0625   0.0625
     0.0625   0.0625   0.0625   0.0625   0.0625   0.0625   0.0625   0.0625
     0.0625   0.0625   0.0625   0.0625   0.0625   0.0625   0.0625   0.0625
     0.0625   0.0625   0.0625   0.0625   0.0625   0.0625   0.0625   0.0625
     0.0625   0.0625   0.0625   0.0625   0.0621   0.0620   0.0002   0.0002
     0.0000   0.0000   0.0000   0.0000   0.0000   0.0000

     the Fermi energy is    11.4082 ev

!    total energy              =    -537.90828457 Ry
     Harris-Foulkes estimate   =    -537.90827468 Ry
     estimated scf accuracy    <          3.4E-09 Ry

     The total energy is the sum of the following terms:

     one-electron contribution =     -32.88980458 Ry
     hartree contribution      =      83.66492939 Ry
     xc contribution           =    -199.62255902 Ry
     ewald contribution        =    -389.44315552 Ry
     Hubbard energy            =       0.38635051 Ry
     smearing contrib. (-TS)   =      -0.00404535 Ry

     convergence has been achieved in  14 iterations

     init_run     :      6.96s CPU      7.05s WALL (       1 calls)
     electrons    :    478.09s CPU    480.66s WALL (       1 calls)

     Called by init_run:
     wfcinit      :      0.00s CPU      0.00s WALL (       1 calls)
     potinit      :      0.29s CPU      0.31s WALL (       1 calls)

     Called by electrons:
     c_bands      :    358.38s CPU    359.65s WALL (      14 calls)
     sum_band     :     86.87s CPU     87.60s WALL (      14 calls)
     v_of_rho     :      4.15s CPU      4.17s WALL (      15 calls)
     v_h          :      0.25s CPU      0.26s WALL (      15 calls)
     v_xc         :      3.90s CPU      3.91s WALL (      15 calls)
     newd         :     29.48s CPU     29.56s WALL (      15 calls)
     mix_rho      :      0.47s CPU      0.47s WALL (      14 calls)

     Called by c_bands:
     init_us_2    :      3.98s CPU      3.98s WALL (    1008 calls)
     cegterg      :    347.44s CPU    348.06s WALL (     504 calls)

     Called by sum_band:
     sum_band:bec :      0.38s CPU      0.38s WALL (     504 calls)
     addusdens    :     17.80s CPU     17.81s WALL (      14 calls)

     Called by *egterg:
     h_psi        :    265.12s CPU    265.69s WALL (    1923 calls)
     s_psi        :     14.95s CPU     14.99s WALL (    1923 calls)
     g_psi        :      1.15s CPU      1.14s WALL (    1419 calls)
     cdiaghg      :     21.42s CPU     21.40s WALL (    1887 calls)
     cegterg:over :     15.77s CPU     15.80s WALL (    1419 calls)
     cegterg:upda :     10.09s CPU     10.11s WALL (    1419 calls)
     cegterg:last :      7.85s CPU      7.86s WALL (     575 calls)

     Called by h_psi:
     h_psi:vloc   :    216.93s CPU    217.41s WALL (    1923 calls)
     h_psi:vnl    :     30.46s CPU     30.51s WALL (    1923 calls)
     add_vuspsi   :     15.01s CPU     15.03s WALL (    1923 calls)
     vhpsi        :     17.03s CPU     17.07s WALL (    1923 calls)

     General routines
     calbec       :     32.45s CPU     32.51s WALL (    4854 calls)
     fft          :      2.92s CPU      2.98s WALL (     235 calls)
     ffts         :      0.08s CPU      0.15s WALL (      29 calls)
     fftw         :    203.54s CPU    203.77s WALL (  137604 calls)
     interpolate  :      0.48s CPU      0.59s WALL (      29 calls)
     davcio       :      0.01s CPU      1.26s WALL (    1044 calls)

     Parallel routines
     fft_scatter  :     57.23s CPU     57.40s WALL (  137868 calls)
     Hubbard U routines
     new_ns       :      3.44s CPU      4.05s WALL (      14 calls)
     vhpsi        :     17.03s CPU     17.07s WALL (    1923 calls)

     PWSCF        :  8m 5.46s CPU     8m 8.28s WALL


   This run was terminated on:   5:36:38  13Nov2012            

=------------------------------------------------------------------------------=
