   JOB DONE.
=------------------------------------------------------------------------------=

     Program PWSCF v.5.0.1 starts on 13Nov2012 at  6: 3: 9 

     This program is part of the open-source Quantum ESPRESSO suite
     for quantum simulation of materials; please cite
         "P. Giannozzi et al., J. Phys.:Condens. Matter 21 395502 (2009);
          URL http://www.quantum-espresso.org", 
     in publications or presentations arising from this work. More details at
     http://www.quantum-espresso.org/quote.php

     Parallel version (MPI), running on     2 processors
     R & G space division:  proc/pool =    2

     Current dimensions of program PWSCF are:
     Max number of different atomic species (ntypx) = 10
     Max number of k-points (npk) =  40000
     Max angular momentum in pseudopotentials (lmaxx) =  3
     Reading input from CoLaO_U600_a5.in
               file Co.pbe-nd-rrkjus.UPF: wavefunction(s)  4S 3D renormalized
               file O.pbe-rrkjus.UPF: wavefunction(s)  2S renormalized
               file O.pbe-rrkjus.UPF: wavefunction(s)  2S renormalized

     Subspace diagonalization in iterative solution of the eigenvalue problem:
     a serial algorithm will be used


     Parallelization info
     --------------------
     sticks:   dense  smooth     PW     G-vecs:    dense   smooth      PW
     Min        1112     444    131                34808     8786    1448
     Max        1113     445    132                34809     8787    1449
     Sum        2225     889    263                69617    17573    2897


     Title: 
     GGA + U, U = 6.000, alpha = 0.050                                          


     bravais-lattice index     =            5
     lattice parameter (alat)  =      10.3292  a.u.
     unit-cell volume          =     793.0599 (a.u.)^3
     number of atoms/cell      =           10
     number of atomic types    =            4
     number of electrons       =        76.00
     number of Kohn-Sham states=           46
     kinetic-energy cutoff     =      30.0000  Ry
     charge density cutoff     =     300.0000  Ry
     convergence threshold     =      1.0E-08
     mixing beta               =       0.2000
     number of iterations used =            8  plain     mixing
     Exchange-correlation      =  SLA  PW   PBE  PBE ( 1 4 3 4 0)
     EXX-fraction              =        0.00

     celldm(1)=  10.329242  celldm(2)=   0.000000  celldm(3)=   0.000000
     celldm(4)=   0.488100  celldm(5)=   0.000000  celldm(6)=   0.000000

     crystal axes: (cart. coord. in units of alat)
               a(1) = (   0.505915  -0.292090   0.811624 )  
               a(2) = (   0.000000   0.584180   0.811624 )  
               a(3) = (  -0.505915  -0.292090   0.811624 )  

     reciprocal axes: (cart. coord. in units 2 pi/alat)
               b(1) = (  0.988308 -0.570600  0.410699 )  
               b(2) = (  0.000000  1.141200  0.410699 )  
               b(3) = ( -0.988308 -0.570600  0.410699 )  


     PseudoPot. # 1 for Co read from file:
     /home/mcurnan/dft-course/Project1/example_LaCoO3/Co.pbe-nd-rrkjus.UPF
     MD5 check sum: 3e47a84addf5e975e0edeaeee2a73f59
     Pseudo is Ultrasoft + core correction, Zval =  9.0
     Generated by new atomic code, or converted to UPF format
     Using radial grid of  961 points,  6 beta functions with: 
                l(1) =   0
                l(2) =   0
                l(3) =   1
                l(4) =   1
                l(5) =   2
                l(6) =   2
     Q(r) pseudized with 0 coefficients 


     PseudoPot. # 2 for La read from file:
     /home/mcurnan/dft-course/Project1/example_LaCoO3/La.pbe-nsp-van.UPF
     MD5 check sum: b2f11743f52dde65f77d1302becd7929
     Pseudo is Ultrasoft + core correction, Zval = 11.0
     Generated by new atomic code, or converted to UPF format
     Using radial grid of  907 points,  6 beta functions with: 
                l(1) =   0
                l(2) =   0
                l(3) =   1
                l(4) =   1
                l(5) =   2
                l(6) =   2
     Q(r) pseudized with  6 coefficients,  rinner =    1.200   1.200   1.200
                                                       1.200   1.200

     PseudoPot. # 3 for O  read from file:
     /home/mcurnan/dft-course/Project1/example_LaCoO3/O.pbe-rrkjus.UPF
     MD5 check sum: 390ba29e75625707450f3bd3f0eb6be9
     Pseudo is Ultrasoft, Zval =  6.0
     Generated by new atomic code, or converted to UPF format
     Using radial grid of 1269 points,  4 beta functions with: 
                l(1) =   0
                l(2) =   0
                l(3) =   1
                l(4) =   1
     Q(r) pseudized with 0 coefficients 


     PseudoPot. # 4 for O  read from file:
     /home/mcurnan/dft-course/Project1/example_LaCoO3/O.pbe-rrkjus.UPF
     MD5 check sum: 390ba29e75625707450f3bd3f0eb6be9
     Pseudo is Ultrasoft, Zval =  6.0
     Generated by new atomic code, or converted to UPF format
     Using radial grid of 1269 points,  4 beta functions with: 
                l(1) =   0
                l(2) =   0
                l(3) =   1
                l(4) =   1
     Q(r) pseudized with 0 coefficients 


     atomic species   valence    mass     pseudopotential
        Co1            9.00     1.00000     Co( 1.00)
        La1           11.00     1.00000     La( 1.00)
        O1             6.00     1.00000     O ( 1.00)
        O2             6.00     1.00000     O ( 1.00)
 -----
     simplified LDA+U calculation, Hubbard_lmax = 2
     atomic species  L   Hubbard U  Hubbard alpha
        Co1          2    6.000000    0.000000
        La1          2    0.000000    0.000000
        O1           1    0.000000    0.050000
        O2           1    0.000000    0.000000
 -----

     No symmetry found


                                    s                        frac. trans.

      isym =  1     identity                                     

 cryst.   s( 1) = (     1          0          0      )
                  (     0          1          0      )
                  (     0          0          1      )

 cart.    s( 1) = (  1.0000000  0.0000000  0.0000000 )
                  (  0.0000000  1.0000000  0.0000000 )
                  (  0.0000000  0.0000000  1.0000000 )


     point group C_1 (1)    
     there are  1 classes
     the character table:

       E    
A      1.00

     the symmetry operations in each class:
     E        1

   Cartesian axes

     site n.     atom                  positions (alat units)
         1           Co1 tau(   1) = (   0.2228050  -0.1992639   1.0141240  )
         2           Co1 tau(   2) = (  -0.2831100   0.0928263   1.4199360  )
         3           La1 tau(   3) = (  -0.2831100   0.0928263   0.8112181  )
         4           La1 tau(   4) = (   0.2228050   0.3849164   1.2170300  )
         5           O1  tau(   5) = (   0.0000000   0.0000000   0.0000000  )
         6           O2  tau(   6) = (   0.0008601   0.1861491   1.6232478  )
         7           O2  tau(   7) = (   0.1616398   0.0923297   0.8116239  )
         8           O2  tau(   8) = (  -0.0603051  -0.1064377   1.2166242  )
         9           O2  tau(   9) = (   0.4447499  -0.0004966   1.2166242  )
        10           O2  tau(  10) = (  -0.2219449   0.3854130   1.2166242  )

   Crystallographic axes

     site n.     atom                  positions (cryst. coord.)
         1           Co1 tau(   1) = (  0.7504000  0.1891000  0.3100000  )
         2           Co1 tau(   2) = (  0.2504000  0.6891000  0.8100000  )
         3           La1 tau(   3) = (  0.0004000  0.4391000  0.5600000  )
         4           La1 tau(   4) = (  0.5004000  0.9391000  0.0600000  )
         5           O1  tau(   5) = (  0.0000000  0.0000000  0.0000000  )
         6           O2  tau(   6) = (  0.5613000  0.8791000  0.5596000  )
         7           O2  tau(   7) = (  0.4404000  0.4387000  0.1209000  )
         8           O2  tau(   8) = (  0.5008000  0.3782000  0.6200000  )
         9           O2  tau(   9) = (  0.9395000  0.4991000  0.0604000  )
        10           O2  tau(  10) = (  0.0604000  0.9395000  0.4991000  )

     number of k points=    36  gaussian smearing, width (Ry)=  0.0300
                       cart. coord. in units 2pi/alat
        k(    1) = (   0.0000000   0.0000000   0.0000000), wk =   0.0312500
        k(    2) = (  -0.2470771  -0.1426500   0.1026748), wk =   0.0625000
        k(    3) = (   0.4941541   0.2853000  -0.2053496), wk =   0.0312500
        k(    4) = (  -0.2470771   0.1426500   0.2053496), wk =   0.0625000
        k(    5) = (   0.4941541   0.5706001  -0.1026748), wk =   0.0625000
        k(    6) = (   0.2470771   0.4279500   0.0000000), wk =   0.0625000
        k(    7) = (   0.4941541  -0.2853000  -0.4106993), wk =   0.0312500
        k(    8) = (   0.0000000   0.0000000   0.3080244), wk =   0.0625000
        k(    9) = (   0.7412312   0.4279500   0.0000000), wk =   0.0625000
        k(   10) = (   0.4941541   0.2853000   0.1026748), wk =   0.0625000
        k(   11) = (   0.7412312  -0.4279500  -0.3080244), wk =   0.0625000
        k(   12) = (   0.4941541  -0.5706001  -0.2053496), wk =   0.0625000
        k(   13) = (   0.0000000   0.0000000  -0.6160489), wk =   0.0312500
        k(   14) = (  -0.2470771   0.1426500  -0.1026748), wk =   0.0625000
        k(   15) = (   0.0000000   0.2853000   0.1026748), wk =   0.0625000
        k(   16) = (   0.4941541  -0.2853000   0.2053496), wk =   0.0312500
        k(   17) = (   0.0000000  -0.5706001  -0.2053496), wk =   0.0312500
        k(   18) = (  -0.2470771  -0.1426500  -0.2053496), wk =   0.0625000
        k(   19) = (   0.0000000  -0.2853000   0.2053496), wk =   0.0625000
        k(   20) = (   0.4941541  -0.5706001   0.1026748), wk =   0.0625000
        k(   21) = (  -0.7412312   0.1426500  -0.1026748), wk =   0.0625000
        k(   22) = (   0.2470771  -0.7132501  -0.1026748), wk =   0.0625000
        k(   23) = (  -0.7412312  -0.1426500   0.1026748), wk =   0.0625000
        k(   24) = (   0.2470771   0.7132501   0.1026748), wk =   0.0625000
        k(   25) = (   0.2470771  -0.4279500   0.0000000), wk =   0.0625000
        k(   26) = (  -0.4941541   0.0000000   0.0000000), wk =   0.0625000
        k(   27) = (   0.4941541   0.2853000   0.4106993), wk =   0.0312500
        k(   28) = (   0.0000000   0.5706001  -0.4106993), wk =   0.0312500
        k(   29) = (   0.7412312  -0.4279500   0.0000000), wk =   0.0625000
        k(   30) = (   0.0000000  -0.8559001   0.0000000), wk =   0.0625000
        k(   31) = (   0.4941541  -0.2853000  -0.1026748), wk =   0.0625000
        k(   32) = (   0.0000000  -0.5706001   0.1026748), wk =   0.0625000
        k(   33) = (   0.7412312   0.4279500   0.3080244), wk =   0.0625000
        k(   34) = (   0.0000000   0.8559001  -0.3080244), wk =   0.0625000
        k(   35) = (   0.2470771   0.7132501  -0.2053496), wk =   0.0625000
        k(   36) = (  -0.7412312  -0.1426500  -0.2053496), wk =   0.0625000

                       cryst. coord.
        k(    1) = (   0.0000000   0.0000000   0.0000000), wk =   0.0312500
        k(    2) = (   0.0000000   0.0000000   0.2500000), wk =   0.0625000
        k(    3) = (   0.0000000   0.0000000  -0.5000000), wk =   0.0312500
        k(    4) = (   0.0000000   0.2500000   0.2500000), wk =   0.0625000
        k(    5) = (   0.0000000   0.2500000  -0.5000000), wk =   0.0625000
        k(    6) = (   0.0000000   0.2500000  -0.2500000), wk =   0.0625000
        k(    7) = (   0.0000000  -0.5000000  -0.5000000), wk =   0.0312500
        k(    8) = (   0.2500000   0.2500000   0.2500000), wk =   0.0625000
        k(    9) = (   0.2500000   0.2500000  -0.5000000), wk =   0.0625000
        k(   10) = (   0.2500000   0.2500000  -0.2500000), wk =   0.0625000
        k(   11) = (   0.2500000  -0.5000000  -0.5000000), wk =   0.0625000
        k(   12) = (   0.2500000  -0.5000000  -0.2500000), wk =   0.0625000
        k(   13) = (  -0.5000000  -0.5000000  -0.5000000), wk =   0.0312500
        k(   14) = (  -0.2500000   0.0000000   0.0000000), wk =   0.0625000
        k(   15) = (   0.0000000   0.2500000   0.0000000), wk =   0.0625000
        k(   16) = (   0.5000000   0.0000000   0.0000000), wk =   0.0312500
        k(   17) = (   0.0000000  -0.5000000   0.0000000), wk =   0.0312500
        k(   18) = (  -0.2500000  -0.2500000   0.0000000), wk =   0.0625000
        k(   19) = (   0.2500000   0.0000000   0.2500000), wk =   0.0625000
        k(   20) = (   0.5000000  -0.2500000   0.0000000), wk =   0.0625000
        k(   21) = (  -0.5000000   0.0000000   0.2500000), wk =   0.0625000
        k(   22) = (   0.2500000  -0.5000000   0.0000000), wk =   0.0625000
        k(   23) = (  -0.2500000   0.0000000   0.5000000), wk =   0.0625000
        k(   24) = (   0.0000000   0.5000000  -0.2500000), wk =   0.0625000
        k(   25) = (   0.2500000  -0.2500000   0.0000000), wk =   0.0625000
        k(   26) = (  -0.2500000   0.0000000   0.2500000), wk =   0.0625000
        k(   27) = (   0.5000000   0.5000000   0.0000000), wk =   0.0312500
        k(   28) = (  -0.5000000   0.0000000  -0.5000000), wk =   0.0312500
        k(   29) = (   0.5000000  -0.2500000  -0.2500000), wk =   0.0625000
        k(   30) = (   0.2500000  -0.5000000   0.2500000), wk =   0.0625000
        k(   31) = (   0.2500000  -0.2500000  -0.2500000), wk =   0.0625000
        k(   32) = (   0.2500000  -0.2500000   0.2500000), wk =   0.0625000
        k(   33) = (   0.5000000   0.5000000  -0.2500000), wk =   0.0625000
        k(   34) = (  -0.5000000   0.2500000  -0.5000000), wk =   0.0625000
        k(   35) = (  -0.2500000   0.2500000  -0.5000000), wk =   0.0625000
        k(   36) = (  -0.5000000  -0.2500000   0.2500000), wk =   0.0625000

     Dense  grid:    69617 G-vectors     FFT dimensions: (  60,  60,  60)

     Smooth grid:    17573 G-vectors     FFT dimensions: (  40,  40,  40)

     Largest allocated arrays     est. size (Mb)     dimensions
        Kohn-Sham Wavefunctions         0.79 Mb     (   1119,   46)
        Atomic wavefunctions            1.06 Mb     (   1119,   62)
        NL pseudopotentials             2.05 Mb     (   1119,  120)
        Each V/rho on FFT grid          1.65 Mb     ( 108000)
        Each G-vector array             0.27 Mb     (  34808)
        G-vector shells                 0.04 Mb     (   4682)
     Largest temporary arrays     est. size (Mb)     dimensions
        Auxiliary wavefunctions         3.14 Mb     (   1119,  184)
        Each subspace H/S matrix        0.52 Mb     ( 184, 184)
        Each <psi_i|beta_j> matrix      0.08 Mb     (    120,   46)
        Arrays for rho mixing          13.18 Mb     ( 108000,   8)

     Check: negative/imaginary core charge=   -0.000028    0.000000

     The initial density is read from file :
     /home/mcurnan/dft-course/Project1/example_LaCoO3/600/O/alpha/CoLaO_U600.save/charge-density.dat

 --- in v_hubbard ---
Hubbard energy    0.5941
 -------
     Number of +U iterations with fixed ns =  0
     Starting occupations:
 --- enter write_ns ---
 LDA+U parameters:
U( 1)     =  6.00000000
alpha( 1) =  0.00000000
U( 2)     =  0.00000000
alpha( 2) =  0.00000000
U( 3)     =  0.00000000
alpha( 3) =  0.05000000
U( 4)     =  0.00000000
alpha( 4) =  0.00000000
atom    1   Tr[ns(na)] =   8.02205
    eigenvalues: 
  0.596  0.596  0.938  0.941  0.941
    eigenvectors:
  0.000  0.000  1.000  0.000  0.000
  0.057  0.598  0.000  0.178  0.167
  0.598  0.057  0.000  0.167  0.178
  0.210  0.135  0.000  0.095  0.560
  0.135  0.210  0.000  0.560  0.095
    occupations:
  0.938  0.000  0.000  0.000  0.000
  0.000  0.715  0.000 -0.060  0.152
  0.000  0.000  0.715  0.152  0.060
  0.000 -0.060  0.152  0.822  0.000
  0.000  0.152  0.060  0.000  0.822
atom    2   Tr[ns(na)] =   8.02142
    eigenvalues: 
  0.595  0.595  0.938  0.941  0.941
    eigenvectors:
  0.000  0.000  1.000  0.000  0.000
  0.332  0.323  0.000  0.023  0.322
  0.323  0.332  0.000  0.322  0.023
  0.288  0.057  0.000  0.647  0.008
  0.057  0.288  0.000  0.008  0.647
    occupations:
  0.938  0.000  0.000  0.000  0.000
  0.000  0.715  0.000  0.060  0.153
  0.000  0.000  0.715  0.153 -0.060
  0.000  0.060  0.153  0.822  0.000
  0.000  0.153 -0.060  0.000  0.822
atom    3   Tr[ns(na)] =   3.80282
    eigenvalues: 
  0.355  0.355  0.384  0.403  0.403
    eigenvectors:
  0.000  0.000  1.000  0.000  0.000
  0.065  0.856  0.000  0.058  0.021
  0.856  0.065  0.000  0.021  0.058
  0.073  0.006  0.000  0.250  0.670
  0.006  0.073  0.000  0.670  0.250
    occupations:
  0.384  0.000  0.000  0.000  0.000
  0.000  0.359  0.000  0.000  0.013
  0.000  0.000  0.359  0.013  0.000
  0.000  0.000  0.013  0.399  0.000
  0.000  0.013  0.000  0.000  0.399
atom    4   Tr[ns(na)] =   3.80282
    eigenvalues: 
  0.355  0.355  0.384  0.403  0.403
    eigenvectors:
  0.000  0.000  1.000  0.000  0.000
  0.729  0.192  0.000  0.048  0.032
  0.192  0.729  0.000  0.032  0.048
  0.017  0.062  0.000  0.359  0.562
  0.062  0.017  0.000  0.562  0.359
    occupations:
  0.384  0.000  0.000  0.000  0.000
  0.000  0.359  0.000  0.000  0.013
  0.000  0.000  0.359  0.013  0.000
  0.000  0.000  0.013  0.399  0.000
  0.000  0.013  0.000  0.000  0.399
atom    5   Tr[ns(na)] =   5.43357
    eigenvalues: 
  0.846  0.929  0.941
    eigenvectors:
  0.340  0.000  0.660
  0.496  0.250  0.255
  0.164  0.750  0.086
    occupations:
  0.909 -0.039  0.022
 -0.039  0.891  0.022
  0.022  0.022  0.917
atom    6   Tr[ns(na)] =   5.43358
    eigenvalues: 
  0.846  0.929  0.941
    eigenvectors:
  0.340  0.000  0.660
  0.494  0.250  0.256
  0.166  0.750  0.085
    occupations:
  0.909  0.039  0.022
  0.039  0.891 -0.022
  0.022 -0.022  0.917
atom    7   Tr[ns(na)] =   5.43358
    eigenvalues: 
  0.846  0.929  0.941
    eigenvectors:
  0.340  0.000  0.660
  0.000  1.000  0.000
  0.660  0.000  0.340
    occupations:
  0.909  0.000 -0.045
  0.000  0.929  0.000
 -0.045  0.000  0.879
atom    8   Tr[ns(na)] =   5.43357
    eigenvalues: 
  0.846  0.929  0.941
    eigenvectors:
  0.340  0.000  0.660
  0.496  0.250  0.255
  0.164  0.750  0.086
    occupations:
  0.909 -0.039  0.022
 -0.039  0.891  0.022
  0.022  0.022  0.917
atom    9   Tr[ns(na)] =   5.43358
    eigenvalues: 
  0.846  0.929  0.941
    eigenvectors:
  0.340  0.000  0.660
  0.494  0.250  0.256
  0.166  0.750  0.085
    occupations:
  0.909  0.039  0.022
  0.039  0.891 -0.022
  0.022 -0.022  0.917
atom   10   Tr[ns(na)] =   5.43358
    eigenvalues: 
  0.846  0.929  0.941
    eigenvectors:
  0.340  0.000  0.660
  0.000  1.000  0.000
  0.660  0.000  0.340
    occupations:
  0.909  0.000 -0.045
  0.000  0.929  0.000
 -0.045  0.000  0.879
N of occupied +U levels =  56.2505796
 --- exit write_ns ---
 LDA+U Projector read from file 
     Starting wfc from file

     total cpu time spent up to now is        7.5 secs

     per-process dynamical memory:    62.8 Mb

     Self-consistent Calculation

     iteration #  1     ecut=    30.00 Ry     beta=0.20
     Davidson diagonalization with overlap
     c_bands:  1 eigenvalues not converged
     c_bands:  1 eigenvalues not converged
     c_bands:  1 eigenvalues not converged
     c_bands:  1 eigenvalues not converged
     c_bands:  1 eigenvalues not converged
     c_bands:  1 eigenvalues not converged
     c_bands:  1 eigenvalues not converged
     c_bands:  1 eigenvalues not converged
     c_bands:  1 eigenvalues not converged
     c_bands:  1 eigenvalues not converged
     c_bands:  1 eigenvalues not converged
     c_bands:  1 eigenvalues not converged
     c_bands:  1 eigenvalues not converged
     c_bands:  1 eigenvalues not converged
     c_bands:  1 eigenvalues not converged
     c_bands:  1 eigenvalues not converged
     c_bands:  1 eigenvalues not converged
     ethr =  1.00E-10,  avg # of iterations = 17.3
 --- enter write_ns ---
 LDA+U parameters:
U( 1)     =  6.00000000
alpha( 1) =  0.00000000
U( 2)     =  0.00000000
alpha( 2) =  0.00000000
U( 3)     =  0.00000000
alpha( 3) =  0.05000000
U( 4)     =  0.00000000
alpha( 4) =  0.00000000
atom    1   Tr[ns(na)] =   8.25645
    eigenvalues: 
  0.572  0.573  0.993  0.993  0.996
    eigenvectors:
  0.000  0.000  0.000  0.001  0.999
  0.097  0.557  0.202  0.144  0.000
  0.557  0.098  0.144  0.202  0.000
  0.178  0.167  0.068  0.586  0.000
  0.168  0.178  0.586  0.068  0.000
    occupations:
  0.996  0.000  0.000  0.000  0.000
  0.000  0.719  0.000 -0.073  0.186
  0.000  0.000  0.718  0.186  0.073
  0.000 -0.073  0.186  0.848  0.000
  0.000  0.186  0.073  0.000  0.848
atom    2   Tr[ns(na)] =   8.24683
    eigenvalues: 
  0.570  0.571  0.993  0.993  0.996
    eigenvectors:
  0.000  0.000  0.000  0.001  0.999
  0.239  0.415  0.010  0.335  0.000
  0.415  0.239  0.336  0.010  0.000
  0.319  0.027  0.629  0.025  0.000
  0.026  0.319  0.025  0.629  0.000
    occupations:
  0.996  0.000  0.000  0.000  0.000
  0.000  0.717  0.000  0.073  0.188
  0.000  0.000  0.716  0.188 -0.072
  0.000  0.073  0.188  0.847  0.000
  0.000  0.188 -0.072  0.000  0.847
atom    3   Tr[ns(na)] =   3.79160
    eigenvalues: 
  0.356  0.356  0.381  0.401  0.401
    eigenvectors:
  0.000  0.000  1.000  0.000  0.000
  0.687  0.229  0.000  0.020  0.063
  0.229  0.687  0.000  0.064  0.020
  0.021  0.062  0.000  0.691  0.225
  0.062  0.022  0.000  0.225  0.692
    occupations:
  0.381  0.000  0.000  0.000  0.000
  0.000  0.360  0.000  0.000  0.012
  0.000  0.000  0.360  0.012  0.000
  0.000  0.000  0.012  0.397  0.000
  0.000  0.012  0.000  0.000  0.398
atom    4   Tr[ns(na)] =   3.79158
    eigenvalues: 
  0.356  0.356  0.381  0.401  0.401
    eigenvectors:
  0.000  0.000  1.000  0.000  0.000
  0.232  0.683  0.000  0.021  0.065
  0.685  0.231  0.000  0.063  0.021
  0.062  0.022  0.000  0.684  0.232
  0.022  0.063  0.000  0.232  0.682
    occupations:
  0.381  0.000  0.000  0.000  0.000
  0.000  0.360  0.000  0.000  0.013
  0.000  0.000  0.360  0.013  0.000
  0.000  0.000  0.013  0.397  0.000
  0.000  0.013  0.000  0.000  0.397
atom    5   Tr[ns(na)] =   5.36661
    eigenvalues: 
  0.819  0.921  0.943
    eigenvectors:
  0.342  0.000  0.658
  0.494  0.250  0.256
  0.164  0.750  0.086
    occupations:
  0.901 -0.051  0.029
 -0.051  0.876  0.026
  0.029  0.026  0.906
atom    6   Tr[ns(na)] =   5.37643
    eigenvalues: 
  0.822  0.922  0.944
    eigenvectors:
  0.341  0.000  0.659
  0.494  0.250  0.256
  0.165  0.750  0.085
    occupations:
  0.902  0.050  0.029
  0.050  0.878 -0.025
  0.029 -0.025  0.908
atom    7   Tr[ns(na)] =   5.37643
    eigenvalues: 
  0.822  0.922  0.944
    eigenvectors:
  0.341  0.000  0.659
  0.000  1.000  0.000
  0.659  0.000  0.341
    occupations:
  0.902  0.000 -0.058
  0.000  0.922  0.000
 -0.058  0.000  0.864
atom    8   Tr[ns(na)] =   5.37642
    eigenvalues: 
  0.822  0.922  0.944
    eigenvectors:
  0.341  0.000  0.659
  0.494  0.250  0.256
  0.164  0.750  0.086
    occupations:
  0.902 -0.050  0.029
 -0.050  0.878  0.025
  0.029  0.025  0.908
atom    9   Tr[ns(na)] =   5.37638
    eigenvalues: 
  0.822  0.922  0.944
    eigenvectors:
  0.341  0.000  0.659
  0.494  0.250  0.256
  0.165  0.750  0.085
    occupations:
  0.902  0.050  0.029
  0.050  0.878 -0.025
  0.029 -0.025  0.908
atom   10   Tr[ns(na)] =   5.37638
    eigenvalues: 
  0.822  0.922  0.944
    eigenvectors:
  0.341  0.000  0.659
  0.000  1.000  0.000
  0.659  0.000  0.341
    occupations:
  0.902  0.000 -0.058
  0.000  0.922  0.000
 -0.058  0.000  0.864
N of occupied +U levels =  56.3351045
 --- exit write_ns ---
 --- in v_hubbard ---
Hubbard energy    0.5701
 -------

     total cpu time spent up to now is       98.7 secs

     total energy              =    -537.80421224 Ry
     Harris-Foulkes estimate   =    -537.81973743 Ry
     estimated scf accuracy    <       0.06870569 Ry

     iteration #  2     ecut=    30.00 Ry     beta=0.20
     Davidson diagonalization with overlap
     ethr =  9.04E-05,  avg # of iterations =  2.0
 --- enter write_ns ---
 LDA+U parameters:
U( 1)     =  6.00000000
alpha( 1) =  0.00000000
U( 2)     =  0.00000000
alpha( 2) =  0.00000000
U( 3)     =  0.00000000
alpha( 3) =  0.05000000
U( 4)     =  0.00000000
alpha( 4) =  0.00000000
atom    1   Tr[ns(na)] =   8.02159
    eigenvalues: 
  0.512  0.513  0.994  0.994  0.997
    eigenvectors:
  0.000  0.000  0.000  0.000  1.000
  0.098  0.558  0.111  0.234  0.000
  0.558  0.098  0.234  0.111  0.000
  0.175  0.170  0.200  0.455  0.000
  0.170  0.175  0.455  0.200  0.000
    occupations:
  0.997  0.000  0.000  0.000  0.000
  0.000  0.679  0.000 -0.085  0.212
  0.000  0.000  0.678  0.213  0.085
  0.000 -0.085  0.213  0.828  0.000
  0.000  0.212  0.085  0.000  0.828
atom    2   Tr[ns(na)] =   8.02225
    eigenvalues: 
  0.512  0.512  0.995  0.995  0.998
    eigenvectors:
  0.000  0.000  0.000  0.000  1.000
  0.240  0.415  0.064  0.281  0.000
  0.415  0.240  0.281  0.064  0.000
  0.320  0.025  0.652  0.003  0.000
  0.025  0.320  0.003  0.652  0.000
    occupations:
  0.998  0.000  0.000  0.000  0.000
  0.000  0.678  0.000  0.085  0.213
  0.000  0.000  0.678  0.213 -0.085
  0.000  0.085  0.213  0.828  0.000
  0.000  0.213 -0.085  0.000  0.828
atom    3   Tr[ns(na)] =   3.78636
    eigenvalues: 
  0.355  0.355  0.381  0.401  0.401
    eigenvectors:
  0.000  0.000  1.000  0.000  0.000
  0.684  0.237  0.000  0.056  0.023
  0.237  0.684  0.000  0.023  0.056
  0.021  0.059  0.000  0.264  0.657
  0.059  0.021  0.000  0.657  0.264
    occupations:
  0.381  0.000  0.000  0.000  0.000
  0.000  0.359  0.000  0.000  0.013
  0.000  0.000  0.359  0.013  0.000
  0.000  0.000  0.013  0.398  0.000
  0.000  0.013  0.000  0.000  0.398
atom    4   Tr[ns(na)] =   3.78640
    eigenvalues: 
  0.355  0.355  0.381  0.401  0.401
    eigenvectors:
  0.000  0.000  1.000  0.000  0.000
  0.207  0.713  0.000  0.025  0.055
  0.713  0.207  0.000  0.055  0.025
  0.061  0.019  0.000  0.622  0.298
  0.018  0.062  0.000  0.298  0.622
    occupations:
  0.381  0.000  0.000  0.000  0.000
  0.000  0.359  0.000  0.000  0.013
  0.000  0.000  0.359  0.013  0.000
  0.000  0.000  0.013  0.398  0.000
  0.000  0.013  0.000  0.000  0.398
atom    5   Tr[ns(na)] =   5.44631
    eigenvalues: 
  0.842  0.932  0.949
    eigenvectors:
  0.335  0.000  0.665
  0.497  0.252  0.251
  0.167  0.748  0.084
    occupations:
  0.913 -0.044  0.025
 -0.044  0.892  0.023
  0.025  0.023  0.918
atom    6   Tr[ns(na)] =   5.44884
    eigenvalues: 
  0.843  0.932  0.950
    eigenvectors:
  0.336  0.000  0.664
  0.499  0.249  0.252
  0.165  0.751  0.083
    occupations:
  0.914  0.044  0.025
  0.044  0.892 -0.023
  0.025 -0.023  0.919
atom    7   Tr[ns(na)] =   5.44884
    eigenvalues: 
  0.843  0.932  0.950
    eigenvectors:
  0.336  0.000  0.664
  0.000  1.000  0.000
  0.664  0.000  0.336
    occupations:
  0.914  0.000 -0.050
  0.000  0.932  0.000
 -0.050  0.000  0.879
atom    8   Tr[ns(na)] =   5.44841
    eigenvalues: 
  0.843  0.932  0.949
    eigenvectors:
  0.335  0.000  0.665
  0.497  0.252  0.251
  0.167  0.748  0.084
    occupations:
  0.914 -0.044  0.025
 -0.044  0.892  0.023
  0.025  0.023  0.919
atom    9   Tr[ns(na)] =   5.44892
    eigenvalues: 
  0.843  0.932  0.950
    eigenvectors:
  0.335  0.000  0.665
  0.500  0.248  0.252
  0.165  0.752  0.083
    occupations:
  0.914  0.044  0.025
  0.044  0.892 -0.023
  0.025 -0.023  0.919
atom   10   Tr[ns(na)] =   5.44892
    eigenvalues: 
  0.843  0.932  0.950
    eigenvectors:
  0.335  0.000  0.665
  0.000  1.000  0.000
  0.665  0.000  0.335
    occupations:
  0.914  0.000 -0.050
  0.000  0.932  0.000
 -0.050  0.000  0.879
N of occupied +U levels =  56.3068409
 --- exit write_ns ---
 --- in v_hubbard ---
Hubbard energy    0.5600
 -------

     total cpu time spent up to now is      122.7 secs

     total energy              =    -537.81858481 Ry
     Harris-Foulkes estimate   =    -537.81853764 Ry
     estimated scf accuracy    <       0.04182721 Ry

     iteration #  3     ecut=    30.00 Ry     beta=0.20
     Davidson diagonalization with overlap
     ethr =  5.50E-05,  avg # of iterations =  1.0
 --- enter write_ns ---
 LDA+U parameters:
U( 1)     =  6.00000000
alpha( 1) =  0.00000000
U( 2)     =  0.00000000
alpha( 2) =  0.00000000
U( 3)     =  0.00000000
alpha( 3) =  0.05000000
U( 4)     =  0.00000000
alpha( 4) =  0.00000000
atom    1   Tr[ns(na)] =   8.06931
    eigenvalues: 
  0.524  0.524  0.994  0.994  0.997
    eigenvectors:
  0.000  0.000  0.000  0.000  1.000
  0.098  0.558  0.120  0.224  0.000
  0.558  0.098  0.224  0.120  0.000
  0.175  0.169  0.184  0.472  0.000
  0.169  0.175  0.472  0.184  0.000
    occupations:
  0.997  0.000  0.000  0.000  0.000
  0.000  0.686  0.000 -0.083  0.207
  0.000  0.000  0.686  0.208  0.083
  0.000 -0.083  0.208  0.833  0.000
  0.000  0.207  0.083  0.000  0.832
atom    2   Tr[ns(na)] =   8.06632
    eigenvalues: 
  0.523  0.523  0.995  0.995  0.998
    eigenvectors:
  0.000  0.000  0.000  0.000  1.000
  0.240  0.416  0.056  0.288  0.000
  0.416  0.240  0.289  0.056  0.000
  0.319  0.025  0.655  0.001  0.000
  0.025  0.319  0.001  0.655  0.000
    occupations:
  0.998  0.000  0.000  0.000  0.000
  0.000  0.685  0.000  0.083  0.208
  0.000  0.000  0.685  0.209 -0.083
  0.000  0.083  0.209  0.832  0.000
  0.000  0.208 -0.083  0.000  0.832
atom    3   Tr[ns(na)] =   3.78734
    eigenvalues: 
  0.355  0.355  0.381  0.401  0.401
    eigenvectors:
  0.000  0.000  1.000  0.000  0.000
  0.689  0.232  0.000  0.022  0.057
  0.232  0.689  0.000  0.057  0.022
  0.021  0.059  0.000  0.655  0.265
  0.059  0.021  0.000  0.265  0.655
    occupations:
  0.381  0.000  0.000  0.000  0.000
  0.000  0.359  0.000  0.000  0.012
  0.000  0.000  0.359  0.012  0.000
  0.000  0.000  0.012  0.397  0.000
  0.000  0.012  0.000  0.000  0.397
atom    4   Tr[ns(na)] =   3.78735
    eigenvalues: 
  0.355  0.355  0.381  0.401  0.401
    eigenvectors:
  0.000  0.000  1.000  0.000  0.000
  0.236  0.684  0.000  0.021  0.059
  0.684  0.236  0.000  0.059  0.021
  0.059  0.021  0.000  0.672  0.249
  0.021  0.059  0.000  0.249  0.671
    occupations:
  0.381  0.000  0.000  0.000  0.000
  0.000  0.359  0.000  0.000  0.012
  0.000  0.000  0.359  0.012  0.000
  0.000  0.000  0.012  0.397  0.000
  0.000  0.012  0.000  0.000  0.397
atom    5   Tr[ns(na)] =   5.43134
    eigenvalues: 
  0.837  0.930  0.948
    eigenvectors:
  0.337  0.000  0.663
  0.497  0.251  0.252
  0.167  0.749  0.085
    occupations:
  0.911 -0.045  0.026
 -0.045  0.889  0.024
  0.026  0.024  0.916
atom    6   Tr[ns(na)] =   5.43428
    eigenvalues: 
  0.838  0.930  0.949
    eigenvectors:
  0.337  0.000  0.663
  0.498  0.249  0.253
  0.165  0.751  0.084
    occupations:
  0.911  0.045  0.026
  0.045  0.889 -0.024
  0.026 -0.024  0.917
atom    7   Tr[ns(na)] =   5.43428
    eigenvalues: 
  0.838  0.930  0.949
    eigenvectors:
  0.337  0.000  0.663
  0.000  1.000  0.000
  0.663  0.000  0.337
    occupations:
  0.911  0.000 -0.052
  0.000  0.930  0.000
 -0.052  0.000  0.875
atom    8   Tr[ns(na)] =   5.43391
    eigenvalues: 
  0.838  0.930  0.949
    eigenvectors:
  0.337  0.000  0.663
  0.497  0.251  0.252
  0.167  0.749  0.085
    occupations:
  0.911 -0.045  0.026
 -0.045  0.889  0.024
  0.026  0.024  0.916
atom    9   Tr[ns(na)] =   5.43433
    eigenvalues: 
  0.838  0.930  0.949
    eigenvectors:
  0.337  0.000  0.663
  0.498  0.249  0.253
  0.165  0.751  0.084
    occupations:
  0.911  0.045  0.026
  0.045  0.889 -0.024
  0.026 -0.024  0.917
atom   10   Tr[ns(na)] =   5.43433
    eigenvalues: 
  0.838  0.930  0.949
    eigenvectors:
  0.337  0.000  0.663
  0.000  1.000  0.000
  0.663  0.000  0.337
    occupations:
  0.911  0.000 -0.052
  0.000  0.930  0.000
 -0.052  0.000  0.875
N of occupied +U levels =  56.3127862
 --- exit write_ns ---
 --- in v_hubbard ---
Hubbard energy    0.4650
 -------

     total cpu time spent up to now is      145.8 secs

     total energy              =    -537.82613997 Ry
     Harris-Foulkes estimate   =    -537.81944733 Ry
     estimated scf accuracy    <       0.01880610 Ry

     iteration #  4     ecut=    30.00 Ry     beta=0.20
     Davidson diagonalization with overlap
     ethr =  2.47E-05,  avg # of iterations =  2.0
 --- enter write_ns ---
 LDA+U parameters:
U( 1)     =  6.00000000
alpha( 1) =  0.00000000
U( 2)     =  0.00000000
alpha( 2) =  0.00000000
U( 3)     =  0.00000000
alpha( 3) =  0.05000000
U( 4)     =  0.00000000
alpha( 4) =  0.00000000
atom    1   Tr[ns(na)] =   8.08044
    eigenvalues: 
  0.524  0.524  0.996  0.997  0.999
    eigenvectors:
  0.000  0.000  0.000  0.000  1.000
  0.097  0.561  0.129  0.213  0.000
  0.561  0.097  0.213  0.128  0.000
  0.172  0.169  0.165  0.494  0.000
  0.169  0.172  0.494  0.165  0.000
    occupations:
  0.999  0.000  0.000  0.000  0.000
  0.000  0.686  0.000 -0.084  0.207
  0.000  0.000  0.685  0.208  0.085
  0.000 -0.084  0.208  0.835  0.000
  0.000  0.207  0.085  0.000  0.835
atom    2   Tr[ns(na)] =   8.08301
    eigenvalues: 
  0.524  0.525  0.997  0.997  0.999
    eigenvectors:
  0.000  0.000  0.000  0.000  1.000
  0.243  0.416  0.041  0.301  0.000
  0.416  0.243  0.301  0.041  0.000
  0.318  0.024  0.658  0.001  0.000
  0.024  0.318  0.001  0.658  0.000
    occupations:
  0.999  0.000  0.000  0.000  0.000
  0.000  0.686  0.000  0.084  0.208
  0.000  0.000  0.686  0.208 -0.084
  0.000  0.084  0.208  0.835  0.000
  0.000  0.208 -0.084  0.000  0.836
atom    3   Tr[ns(na)] =   3.79903
    eigenvalues: 
  0.357  0.357  0.381  0.402  0.402
    eigenvectors:
  0.000  0.000  1.000  0.000  0.000
  0.695  0.228  0.000  0.011  0.066
  0.228  0.695  0.000  0.066  0.011
  0.020  0.057  0.000  0.780  0.143
  0.057  0.020  0.000  0.143  0.780
    occupations:
  0.381  0.000  0.000  0.000  0.000
  0.000  0.361  0.000  0.000  0.012
  0.000  0.000  0.361  0.012  0.000
  0.000  0.000  0.012  0.399  0.000
  0.000  0.012  0.000  0.000  0.399
atom    4   Tr[ns(na)] =   3.79903
    eigenvalues: 
  0.357  0.357  0.381  0.402  0.402
    eigenvectors:
  0.000  0.000  1.000  0.000  0.000
  0.262  0.660  0.000  0.015  0.063
  0.661  0.262  0.000  0.062  0.015
  0.055  0.023  0.000  0.740  0.182
  0.023  0.055  0.000  0.183  0.740
    occupations:
  0.381  0.000  0.000  0.000  0.000
  0.000  0.361  0.000  0.000  0.012
  0.000  0.000  0.361  0.012  0.000
  0.000  0.000  0.012  0.398  0.000
  0.000  0.012  0.000  0.000  0.398
atom    5   Tr[ns(na)] =   5.41990
    eigenvalues: 
  0.834  0.929  0.947
    eigenvectors:
  0.337  0.000  0.663
  0.496  0.252  0.252
  0.167  0.748  0.085
    occupations:
  0.909 -0.046  0.027
 -0.046  0.887  0.024
  0.027  0.024  0.914
atom    6   Tr[ns(na)] =   5.42373
    eigenvalues: 
  0.835  0.929  0.947
    eigenvectors:
  0.337  0.000  0.663
  0.498  0.248  0.253
  0.164  0.752  0.084
    occupations:
  0.910  0.046  0.026
  0.046  0.887 -0.024
  0.026 -0.024  0.915
atom    7   Tr[ns(na)] =   5.42373
    eigenvalues: 
  0.835  0.929  0.947
    eigenvectors:
  0.337  0.000  0.663
  0.000  1.000  0.000
  0.663  0.000  0.337
    occupations:
  0.910  0.000 -0.053
  0.000  0.929  0.000
 -0.053  0.000  0.873
atom    8   Tr[ns(na)] =   5.42384
    eigenvalues: 
  0.835  0.929  0.947
    eigenvectors:
  0.337  0.000  0.663
  0.496  0.252  0.252
  0.167  0.748  0.085
    occupations:
  0.910 -0.046  0.027
 -0.046  0.887  0.024
  0.027  0.024  0.915
atom    9   Tr[ns(na)] =   5.42364
    eigenvalues: 
  0.835  0.929  0.947
    eigenvectors:
  0.337  0.000  0.663
  0.499  0.248  0.253
  0.164  0.752  0.084
    occupations:
  0.910  0.046  0.026
  0.046  0.887 -0.024
  0.026 -0.024  0.915
atom   10   Tr[ns(na)] =   5.42364
    eigenvalues: 
  0.835  0.929  0.947
    eigenvectors:
  0.337  0.000  0.663
  0.000  1.000  0.000
  0.663  0.000  0.337
    occupations:
  0.910  0.000 -0.053
  0.000  0.929  0.000
 -0.053  0.000  0.873
N of occupied +U levels =  56.2999987
 --- exit write_ns ---
 --- in v_hubbard ---
Hubbard energy    0.4633
 -------

     total cpu time spent up to now is      170.2 secs

     total energy              =    -537.82778631 Ry
     Harris-Foulkes estimate   =    -537.82793089 Ry
     estimated scf accuracy    <       0.00213092 Ry

     iteration #  5     ecut=    30.00 Ry     beta=0.20
     Davidson diagonalization with overlap
     ethr =  2.80E-06,  avg # of iterations =  1.6
 --- enter write_ns ---
 LDA+U parameters:
U( 1)     =  6.00000000
alpha( 1) =  0.00000000
U( 2)     =  0.00000000
alpha( 2) =  0.00000000
U( 3)     =  0.00000000
alpha( 3) =  0.05000000
U( 4)     =  0.00000000
alpha( 4) =  0.00000000
atom    1   Tr[ns(na)] =   8.06423
    eigenvalues: 
  0.519  0.520  0.997  0.997  0.999
    eigenvectors:
  0.000  0.000  0.000  0.000  1.000
  0.097  0.561  0.127  0.214  0.000
  0.561  0.097  0.214  0.127  0.000
  0.172  0.170  0.166  0.492  0.000
  0.170  0.172  0.492  0.166  0.000
    occupations:
  0.999  0.000  0.000  0.000  0.000
  0.000  0.683  0.000 -0.085  0.209
  0.000  0.000  0.683  0.209  0.086
  0.000 -0.085  0.209  0.834  0.000
  0.000  0.209  0.086  0.000  0.834
atom    2   Tr[ns(na)] =   8.05929
    eigenvalues: 
  0.518  0.519  0.997  0.997  0.999
    eigenvectors:
  0.000  0.000  0.000  0.000  1.000
  0.243  0.416  0.048  0.294  0.000
  0.415  0.243  0.294  0.048  0.000
  0.318  0.024  0.658  0.000  0.000
  0.024  0.318  0.000  0.658  0.000
    occupations:
  0.999  0.000  0.000  0.000  0.000
  0.000  0.682  0.000  0.085  0.210
  0.000  0.000  0.682  0.211 -0.085
  0.000  0.085  0.211  0.833  0.000
  0.000  0.210 -0.085  0.000  0.834
atom    3   Tr[ns(na)] =   3.79833
    eigenvalues: 
  0.357  0.357  0.381  0.402  0.402
    eigenvectors:
  0.000  0.000  1.000  0.000  0.000
  0.692  0.231  0.000  0.014  0.063
  0.231  0.692  0.000  0.063  0.014
  0.020  0.057  0.000  0.743  0.179
  0.057  0.020  0.000  0.179  0.743
    occupations:
  0.381  0.000  0.000  0.000  0.000
  0.000  0.360  0.000  0.000  0.012
  0.000  0.000  0.360  0.012  0.000
  0.000  0.000  0.012  0.399  0.000
  0.000  0.012  0.000  0.000  0.399
atom    4   Tr[ns(na)] =   3.79832
    eigenvalues: 
  0.357  0.357  0.381  0.402  0.402
    eigenvectors:
  0.000  0.000  1.000  0.000  0.000
  0.254  0.668  0.000  0.018  0.060
  0.668  0.254  0.000  0.059  0.018
  0.056  0.022  0.000  0.700  0.222
  0.022  0.056  0.000  0.223  0.699
    occupations:
  0.381  0.000  0.000  0.000  0.000
  0.000  0.360  0.000  0.000  0.012
  0.000  0.000  0.360  0.012  0.000
  0.000  0.000  0.012  0.398  0.000
  0.000  0.012  0.000  0.000  0.398
atom    5   Tr[ns(na)] =   5.42646
    eigenvalues: 
  0.836  0.929  0.948
    eigenvectors:
  0.337  0.000  0.663
  0.497  0.251  0.252
  0.166  0.749  0.085
    occupations:
  0.910 -0.046  0.026
 -0.046  0.888  0.024
  0.026  0.024  0.915
atom    6   Tr[ns(na)] =   5.42985
    eigenvalues: 
  0.837  0.930  0.948
    eigenvectors:
  0.337  0.000  0.663
  0.498  0.249  0.253
  0.165  0.751  0.084
    occupations:
  0.911  0.045  0.026
  0.045  0.888 -0.024
  0.026 -0.024  0.916
atom    7   Tr[ns(na)] =   5.42985
    eigenvalues: 
  0.837  0.930  0.948
    eigenvectors:
  0.337  0.000  0.663
  0.000  1.000  0.000
  0.663  0.000  0.337
    occupations:
  0.911  0.000 -0.052
  0.000  0.930  0.000
 -0.052  0.000  0.874
atom    8   Tr[ns(na)] =   5.42976
    eigenvalues: 
  0.837  0.930  0.948
    eigenvectors:
  0.337  0.000  0.663
  0.497  0.251  0.252
  0.166  0.749  0.085
    occupations:
  0.911 -0.045  0.026
 -0.045  0.888  0.024
  0.026  0.024  0.916
atom    9   Tr[ns(na)] =   5.42983
    eigenvalues: 
  0.837  0.930  0.948
    eigenvectors:
  0.337  0.000  0.663
  0.498  0.249  0.253
  0.165  0.751  0.084
    occupations:
  0.911  0.045  0.026
  0.045  0.888 -0.024
  0.026 -0.024  0.916
atom   10   Tr[ns(na)] =   5.42983
    eigenvalues: 
  0.837  0.930  0.948
    eigenvectors:
  0.337  0.000  0.663
  0.000  1.000  0.000
  0.663  0.000  0.337
    occupations:
  0.911  0.000 -0.052
  0.000  0.930  0.000
 -0.052  0.000  0.874
N of occupied +U levels =  56.2957470
 --- exit write_ns ---
 --- in v_hubbard ---
Hubbard energy    0.4632
 -------

     total cpu time spent up to now is      193.3 secs

     total energy              =    -537.82801354 Ry
     Harris-Foulkes estimate   =    -537.82794912 Ry
     estimated scf accuracy    <       0.00036567 Ry

     iteration #  6     ecut=    30.00 Ry     beta=0.20
     Davidson diagonalization with overlap
     ethr =  4.81E-07,  avg # of iterations =  1.7
 --- enter write_ns ---
 LDA+U parameters:
U( 1)     =  6.00000000
alpha( 1) =  0.00000000
U( 2)     =  0.00000000
alpha( 2) =  0.00000000
U( 3)     =  0.00000000
alpha( 3) =  0.05000000
U( 4)     =  0.00000000
alpha( 4) =  0.00000000
atom    1   Tr[ns(na)] =   8.05100
    eigenvalues: 
  0.516  0.517  0.997  0.997  0.999
    eigenvectors:
  0.000  0.000  0.000  0.000  1.000
  0.097  0.562  0.127  0.214  0.000
  0.562  0.097  0.214  0.127  0.000
  0.172  0.170  0.165  0.493  0.000
  0.170  0.172  0.493  0.165  0.000
    occupations:
  0.999  0.000  0.000  0.000  0.000
  0.000  0.681  0.000 -0.086  0.211
  0.000  0.000  0.680  0.211  0.087
  0.000 -0.086  0.211  0.833  0.000
  0.000  0.211  0.087  0.000  0.833
atom    2   Tr[ns(na)] =   8.05217
    eigenvalues: 
  0.516  0.517  0.997  0.997  0.999
    eigenvectors:
  0.000  0.000  0.000  0.000  1.000
  0.243  0.416  0.047  0.295  0.000
  0.416  0.243  0.295  0.047  0.000
  0.318  0.024  0.658  0.000  0.000
  0.024  0.318  0.000  0.658  0.000
    occupations:
  0.999  0.000  0.000  0.000  0.000
  0.000  0.681  0.000  0.086  0.211
  0.000  0.000  0.680  0.211 -0.086
  0.000  0.086  0.211  0.833  0.000
  0.000  0.211 -0.086  0.000  0.833
atom    3   Tr[ns(na)] =   3.79548
    eigenvalues: 
  0.356  0.356  0.381  0.402  0.402
    eigenvectors:
  0.000  0.000  1.000  0.000  0.000
  0.691  0.231  0.000  0.021  0.057
  0.231  0.691  0.000  0.057  0.021
  0.020  0.058  0.000  0.662  0.259
  0.058  0.020  0.000  0.259  0.662
    occupations:
  0.381  0.000  0.000  0.000  0.000
  0.000  0.360  0.000  0.000  0.012
  0.000  0.000  0.360  0.012  0.000
  0.000  0.000  0.012  0.398  0.000
  0.000  0.012  0.000  0.000  0.398
atom    4   Tr[ns(na)] =   3.79548
    eigenvalues: 
  0.356  0.356  0.381  0.402  0.402
    eigenvectors:
  0.000  0.000  1.000  0.000  0.000
  0.256  0.665  0.000  0.020  0.059
  0.665  0.256  0.000  0.058  0.020
  0.056  0.023  0.000  0.678  0.244
  0.022  0.056  0.000  0.244  0.677
    occupations:
  0.381  0.000  0.000  0.000  0.000
  0.000  0.360  0.000  0.000  0.012
  0.000  0.000  0.360  0.012  0.000
  0.000  0.000  0.012  0.398  0.000
  0.000  0.012  0.000  0.000  0.398
atom    5   Tr[ns(na)] =   5.43042
    eigenvalues: 
  0.837  0.930  0.948
    eigenvectors:
  0.337  0.000  0.663
  0.496  0.252  0.252
  0.167  0.748  0.085
    occupations:
  0.911 -0.045  0.026
 -0.045  0.889  0.024
  0.026  0.024  0.916
atom    6   Tr[ns(na)] =   5.43352
    eigenvalues: 
  0.838  0.930  0.948
    eigenvectors:
  0.337  0.000  0.663
  0.499  0.249  0.253
  0.165  0.751  0.084
    occupations:
  0.911  0.045  0.026
  0.045  0.889 -0.024
  0.026 -0.024  0.917
atom    7   Tr[ns(na)] =   5.43352
    eigenvalues: 
  0.838  0.930  0.948
    eigenvectors:
  0.337  0.000  0.663
  0.000  1.000  0.000
  0.663  0.000  0.337
    occupations:
  0.911  0.000 -0.052
  0.000  0.930  0.000
 -0.052  0.000  0.875
atom    8   Tr[ns(na)] =   5.43325
    eigenvalues: 
  0.838  0.930  0.948
    eigenvectors:
  0.337  0.000  0.663
  0.496  0.252  0.252
  0.167  0.748  0.085
    occupations:
  0.911 -0.045  0.026
 -0.045  0.889  0.024
  0.026  0.024  0.916
atom    9   Tr[ns(na)] =   5.43354
    eigenvalues: 
  0.838  0.930  0.948
    eigenvectors:
  0.337  0.000  0.663
  0.499  0.248  0.253
  0.164  0.752  0.084
    occupations:
  0.911  0.045  0.026
  0.045  0.889 -0.024
  0.026 -0.024  0.917
atom   10   Tr[ns(na)] =   5.43354
    eigenvalues: 
  0.838  0.930  0.948
    eigenvectors:
  0.337  0.000  0.663
  0.000  1.000  0.000
  0.663  0.000  0.337
    occupations:
  0.911  0.000 -0.052
  0.000  0.930  0.000
 -0.052  0.000  0.875
N of occupied +U levels =  56.2919350
 --- exit write_ns ---
 --- in v_hubbard ---
Hubbard energy    0.4641
 -------

     total cpu time spent up to now is      216.6 secs

     total energy              =    -537.82813714 Ry
     Harris-Foulkes estimate   =    -537.82805622 Ry
     estimated scf accuracy    <       0.00011089 Ry

     iteration #  7     ecut=    30.00 Ry     beta=0.20
     Davidson diagonalization with overlap
     ethr =  1.46E-07,  avg # of iterations =  2.0
 --- enter write_ns ---
 LDA+U parameters:
U( 1)     =  6.00000000
alpha( 1) =  0.00000000
U( 2)     =  0.00000000
alpha( 2) =  0.00000000
U( 3)     =  0.00000000
alpha( 3) =  0.05000000
U( 4)     =  0.00000000
alpha( 4) =  0.00000000
atom    1   Tr[ns(na)] =   8.04728
    eigenvalues: 
  0.515  0.516  0.997  0.997  0.999
    eigenvectors:
  0.000  0.000  0.000  0.000  1.000
  0.096  0.562  0.123  0.219  0.000
  0.562  0.096  0.219  0.123  0.000
  0.171  0.170  0.172  0.486  0.000
  0.170  0.171  0.486  0.172  0.000
    occupations:
  0.999  0.000  0.000  0.000  0.000
  0.000  0.680  0.000 -0.087  0.211
  0.000  0.000  0.680  0.211  0.087
  0.000 -0.087  0.211  0.832  0.000
  0.000  0.211  0.087  0.000  0.832
atom    2   Tr[ns(na)] =   8.04433
    eigenvalues: 
  0.514  0.515  0.997  0.997  0.999
    eigenvectors:
  0.000  0.000  0.000  0.000  1.000
  0.243  0.415  0.052  0.289  0.000
  0.415  0.243  0.290  0.052  0.000
  0.318  0.023  0.658  0.000  0.000
  0.023  0.318  0.000  0.658  0.000
    occupations:
  0.999  0.000  0.000  0.000  0.000
  0.000  0.679  0.000  0.087  0.212
  0.000  0.000  0.679  0.212 -0.087
  0.000  0.087  0.212  0.832  0.000
  0.000  0.212 -0.087  0.000  0.832
atom    3   Tr[ns(na)] =   3.79061
    eigenvalues: 
  0.356  0.356  0.381  0.401  0.401
    eigenvectors:
  0.000  0.000  1.000  0.000  0.000
  0.692  0.229  0.000  0.016  0.062
  0.229  0.692  0.000  0.062  0.016
  0.020  0.059  0.000  0.722  0.199
  0.059  0.020  0.000  0.199  0.722
    occupations:
  0.381  0.000  0.000  0.000  0.000
  0.000  0.359  0.000  0.000  0.012
  0.000  0.000  0.360  0.012  0.000
  0.000  0.000  0.012  0.398  0.000
  0.000  0.012  0.000  0.000  0.398
atom    4   Tr[ns(na)] =   3.79059
    eigenvalues: 
  0.356  0.356  0.381  0.401  0.401
    eigenvectors:
  0.000  0.000  1.000  0.000  0.000
  0.741  0.180  0.000  0.019  0.060
  0.180  0.741  0.000  0.059  0.020
  0.015  0.064  0.000  0.687  0.234
  0.064  0.015  0.000  0.234  0.687
    occupations:
  0.381  0.000  0.000  0.000  0.000
  0.000  0.360  0.000  0.000  0.012
  0.000  0.000  0.360  0.012  0.000
  0.000  0.000  0.012  0.398  0.000
  0.000  0.012  0.000  0.000  0.398
atom    5   Tr[ns(na)] =   5.43322
    eigenvalues: 
  0.838  0.930  0.948
    eigenvectors:
  0.337  0.000  0.663
  0.497  0.251  0.252
  0.167  0.749  0.085
    occupations:
  0.911 -0.045  0.026
 -0.045  0.889  0.024
  0.026  0.024  0.916
atom    6   Tr[ns(na)] =   5.43625
    eigenvalues: 
  0.839  0.931  0.949
    eigenvectors:
  0.337  0.000  0.663
  0.498  0.249  0.253
  0.165  0.751  0.084
    occupations:
  0.912  0.045  0.026
  0.045  0.889 -0.024
  0.026 -0.024  0.917
atom    7   Tr[ns(na)] =   5.43626
    eigenvalues: 
  0.839  0.931  0.949
    eigenvectors:
  0.337  0.000  0.663
  0.000  1.000  0.000
  0.663  0.000  0.337
    occupations:
  0.912  0.000 -0.052
  0.000  0.931  0.000
 -0.052  0.000  0.876
atom    8   Tr[ns(na)] =   5.43590
    eigenvalues: 
  0.839  0.931  0.948
    eigenvectors:
  0.337  0.000  0.663
  0.497  0.251  0.252
  0.167  0.749  0.085
    occupations:
  0.912 -0.045  0.026
 -0.045  0.890  0.024
  0.026  0.024  0.917
atom    9   Tr[ns(na)] =   5.43630
    eigenvalues: 
  0.839  0.931  0.949
    eigenvectors:
  0.337  0.000  0.663
  0.498  0.249  0.253
  0.165  0.751  0.084
    occupations:
  0.912  0.045  0.026
  0.045  0.889 -0.024
  0.026 -0.024  0.917
atom   10   Tr[ns(na)] =   5.43630
    eigenvalues: 
  0.839  0.931  0.949
    eigenvectors:
  0.337  0.000  0.663
  0.000  1.000  0.000
  0.663  0.000  0.337
    occupations:
  0.912  0.000 -0.052
  0.000  0.931  0.000
 -0.052  0.000  0.876
N of occupied +U levels =  56.2870382
 --- exit write_ns ---
 --- in v_hubbard ---
Hubbard energy    0.4655
 -------

     total cpu time spent up to now is      243.7 secs

     total energy              =    -537.82822228 Ry
     Harris-Foulkes estimate   =    -537.82816233 Ry
     estimated scf accuracy    <       0.00010730 Ry

     iteration #  8     ecut=    30.00 Ry     beta=0.20
     Davidson diagonalization with overlap
     ethr =  1.41E-07,  avg # of iterations =  1.3
 --- enter write_ns ---
 LDA+U parameters:
U( 1)     =  6.00000000
alpha( 1) =  0.00000000
U( 2)     =  0.00000000
alpha( 2) =  0.00000000
U( 3)     =  0.00000000
alpha( 3) =  0.05000000
U( 4)     =  0.00000000
alpha( 4) =  0.00000000
atom    1   Tr[ns(na)] =   8.04946
    eigenvalues: 
  0.516  0.516  0.997  0.997  0.999
    eigenvectors:
  0.000  0.000  0.000  0.000  1.000
  0.096  0.562  0.122  0.220  0.000
  0.562  0.097  0.220  0.122  0.000
  0.171  0.171  0.173  0.486  0.000
  0.171  0.171  0.485  0.173  0.000
    occupations:
  0.999  0.000  0.000  0.000  0.000
  0.000  0.680  0.000 -0.087  0.211
  0.000  0.000  0.680  0.211  0.087
  0.000 -0.087  0.211  0.832  0.000
  0.000  0.211  0.087  0.000  0.832
atom    2   Tr[ns(na)] =   8.04647
    eigenvalues: 
  0.514  0.515  0.997  0.997  0.999
    eigenvectors:
  0.000  0.000  0.000  0.000  1.000
  0.244  0.415  0.053  0.289  0.000
  0.415  0.244  0.289  0.053  0.000
  0.318  0.023  0.658  0.000  0.000
  0.023  0.318  0.000  0.658  0.000
    occupations:
  0.999  0.000  0.000  0.000  0.000
  0.000  0.680  0.000  0.087  0.212
  0.000  0.000  0.680  0.212 -0.087
  0.000  0.087  0.212  0.832  0.000
  0.000  0.212 -0.087  0.000  0.832
atom    3   Tr[ns(na)] =   3.79342
    eigenvalues: 
  0.356  0.356  0.381  0.402  0.402
    eigenvectors:
  0.000  0.000  1.000  0.000  0.000
  0.691  0.231  0.000  0.015  0.064
  0.231  0.691  0.000  0.064  0.015
  0.020  0.058  0.000  0.744  0.177
  0.058  0.020  0.000  0.177  0.744
    occupations:
  0.381  0.000  0.000  0.000  0.000
  0.000  0.360  0.000  0.000  0.012
  0.000  0.000  0.360  0.012  0.000
  0.000  0.000  0.012  0.398  0.000
  0.000  0.012  0.000  0.000  0.398
atom    4   Tr[ns(na)] =   3.79340
    eigenvalues: 
  0.356  0.356  0.381  0.402  0.402
    eigenvectors:
  0.000  0.000  1.000  0.000  0.000
  0.273  0.648  0.000  0.019  0.060
  0.648  0.273  0.000  0.060  0.019
  0.055  0.024  0.000  0.694  0.228
  0.024  0.055  0.000  0.228  0.693
    occupations:
  0.381  0.000  0.000  0.000  0.000
  0.000  0.360  0.000  0.000  0.012
  0.000  0.000  0.360  0.012  0.000
  0.000  0.000  0.012  0.398  0.000
  0.000  0.012  0.000  0.000  0.398
atom    5   Tr[ns(na)] =   5.43185
    eigenvalues: 
  0.838  0.930  0.948
    eigenvectors:
  0.337  0.000  0.663
  0.497  0.251  0.252
  0.167  0.749  0.085
    occupations:
  0.911 -0.045  0.026
 -0.045  0.889  0.024
  0.026  0.024  0.916
atom    6   Tr[ns(na)] =   5.43494
    eigenvalues: 
  0.839  0.931  0.948
    eigenvectors:
  0.337  0.000  0.663
  0.498  0.249  0.253
  0.165  0.751  0.084
    occupations:
  0.911  0.045  0.026
  0.045  0.889 -0.024
  0.026 -0.024  0.917
atom    7   Tr[ns(na)] =   5.43494
    eigenvalues: 
  0.839  0.931  0.948
    eigenvectors:
  0.337  0.000  0.663
  0.000  1.000  0.000
  0.663  0.000  0.337
    occupations:
  0.911  0.000 -0.052
  0.000  0.931  0.000
 -0.052  0.000  0.876
atom    8   Tr[ns(na)] =   5.43468
    eigenvalues: 
  0.838  0.931  0.948
    eigenvectors:
  0.337  0.000  0.663
  0.497  0.251  0.252
  0.167  0.749  0.085
    occupations:
  0.911 -0.045  0.026
 -0.045  0.889  0.024
  0.026  0.024  0.917
atom    9   Tr[ns(na)] =   5.43496
    eigenvalues: 
  0.839  0.931  0.948
    eigenvectors:
  0.337  0.000  0.663
  0.498  0.249  0.253
  0.165  0.751  0.084
    occupations:
  0.911  0.045  0.026
  0.045  0.889 -0.024
  0.026 -0.024  0.917
atom   10   Tr[ns(na)] =   5.43496
    eigenvalues: 
  0.839  0.931  0.948
    eigenvectors:
  0.337  0.000  0.663
  0.000  1.000  0.000
  0.663  0.000  0.337
    occupations:
  0.911  0.000 -0.052
  0.000  0.931  0.000
 -0.052  0.000  0.876
N of occupied +U levels =  56.2890878
 --- exit write_ns ---
 --- in v_hubbard ---
Hubbard energy    0.4661
 -------

     total cpu time spent up to now is      266.6 secs

     total energy              =    -537.82826942 Ry
     Harris-Foulkes estimate   =    -537.82822973 Ry
     estimated scf accuracy    <       0.00002730 Ry

     iteration #  9     ecut=    30.00 Ry     beta=0.20
     Davidson diagonalization with overlap
     ethr =  3.59E-08,  avg # of iterations =  2.0
 --- enter write_ns ---
 LDA+U parameters:
U( 1)     =  6.00000000
alpha( 1) =  0.00000000
U( 2)     =  0.00000000
alpha( 2) =  0.00000000
U( 3)     =  0.00000000
alpha( 3) =  0.05000000
U( 4)     =  0.00000000
alpha( 4) =  0.00000000
atom    1   Tr[ns(na)] =   8.05118
    eigenvalues: 
  0.516  0.517  0.997  0.997  0.999
    eigenvectors:
  0.000  0.000  0.000  0.000  1.000
  0.096  0.562  0.121  0.221  0.000
  0.562  0.096  0.221  0.121  0.000
  0.171  0.171  0.174  0.484  0.000
  0.171  0.171  0.484  0.174  0.000
    occupations:
  0.999  0.000  0.000  0.000  0.000
  0.000  0.681  0.000 -0.087  0.210
  0.000  0.000  0.680  0.211  0.088
  0.000 -0.087  0.211  0.833  0.000
  0.000  0.210  0.088  0.000  0.833
atom    2   Tr[ns(na)] =   8.04821
    eigenvalues: 
  0.515  0.516  0.997  0.997  0.999
    eigenvectors:
  0.000  0.000  0.000  0.000  1.000
  0.244  0.414  0.053  0.289  0.000
  0.414  0.244  0.289  0.053  0.000
  0.319  0.023  0.658  0.000  0.000
  0.023  0.319  0.000  0.658  0.000
    occupations:
  0.999  0.000  0.000  0.000  0.000
  0.000  0.680  0.000  0.087  0.211
  0.000  0.000  0.680  0.211 -0.087
  0.000  0.087  0.211  0.832  0.000
  0.000  0.211 -0.087  0.000  0.833
atom    3   Tr[ns(na)] =   3.79349
    eigenvalues: 
  0.356  0.356  0.381  0.402  0.402
    eigenvectors:
  0.000  0.000  1.000  0.000  0.000
  0.690  0.231  0.000  0.014  0.064
  0.231  0.690  0.000  0.064  0.014
  0.020  0.058  0.000  0.749  0.172
  0.058  0.020  0.000  0.172  0.749
    occupations:
  0.381  0.000  0.000  0.000  0.000
  0.000  0.360  0.000  0.000  0.012
  0.000  0.000  0.360  0.012  0.000
  0.000  0.000  0.012  0.398  0.000
  0.000  0.012  0.000  0.000  0.398
atom    4   Tr[ns(na)] =   3.79347
    eigenvalues: 
  0.356  0.356  0.381  0.402  0.402
    eigenvectors:
  0.000  0.000  1.000  0.000  0.000
  0.252  0.669  0.000  0.019  0.060
  0.670  0.252  0.000  0.060  0.019
  0.057  0.022  0.000  0.693  0.228
  0.022  0.057  0.000  0.228  0.693
    occupations:
  0.381  0.000  0.000  0.000  0.000
  0.000  0.360  0.000  0.000  0.012
  0.000  0.000  0.360  0.012  0.000
  0.000  0.000  0.012  0.398  0.000
  0.000  0.012  0.000  0.000  0.398
atom    5   Tr[ns(na)] =   5.43115
    eigenvalues: 
  0.837  0.930  0.948
    eigenvectors:
  0.337  0.000  0.663
  0.497  0.251  0.252
  0.167  0.749  0.085
    occupations:
  0.911 -0.045  0.026
 -0.045  0.889  0.024
  0.026  0.024  0.916
atom    6   Tr[ns(na)] =   5.43432
    eigenvalues: 
  0.838  0.931  0.948
    eigenvectors:
  0.337  0.000  0.663
  0.498  0.249  0.253
  0.165  0.751  0.084
    occupations:
  0.911  0.045  0.026
  0.045  0.889 -0.024
  0.026 -0.024  0.917
atom    7   Tr[ns(na)] =   5.43432
    eigenvalues: 
  0.838  0.931  0.948
    eigenvectors:
  0.337  0.000  0.663
  0.000  1.000  0.000
  0.663  0.000  0.337
    occupations:
  0.911  0.000 -0.052
  0.000  0.931  0.000
 -0.052  0.000  0.875
atom    8   Tr[ns(na)] =   5.43406
    eigenvalues: 
  0.838  0.930  0.948
    eigenvectors:
  0.337  0.000  0.663
  0.497  0.251  0.252
  0.167  0.749  0.085
    occupations:
  0.911 -0.045  0.026
 -0.045  0.889  0.024
  0.026  0.024  0.917
atom    9   Tr[ns(na)] =   5.43434
    eigenvalues: 
  0.838  0.931  0.948
    eigenvectors:
  0.337  0.000  0.663
  0.498  0.249  0.253
  0.165  0.751  0.084
    occupations:
  0.911  0.045  0.026
  0.045  0.889 -0.024
  0.026 -0.024  0.917
atom   10   Tr[ns(na)] =   5.43434
    eigenvalues: 
  0.838  0.931  0.948
    eigenvectors:
  0.337  0.000  0.663
  0.000  1.000  0.000
  0.663  0.000  0.337
    occupations:
  0.911  0.000 -0.052
  0.000  0.931  0.000
 -0.052  0.000  0.875
N of occupied +U levels =  56.2888871
 --- exit write_ns ---
 --- in v_hubbard ---
Hubbard energy    0.4665
 -------

     total cpu time spent up to now is      290.2 secs

     total energy              =    -537.82830529 Ry
     Harris-Foulkes estimate   =    -537.82827219 Ry
     estimated scf accuracy    <       0.00000288 Ry

     iteration # 10     ecut=    30.00 Ry     beta=0.20
     Davidson diagonalization with overlap
     ethr =  3.79E-09,  avg # of iterations =  3.0
 --- enter write_ns ---
 LDA+U parameters:
U( 1)     =  6.00000000
alpha( 1) =  0.00000000
U( 2)     =  0.00000000
alpha( 2) =  0.00000000
U( 3)     =  0.00000000
alpha( 3) =  0.05000000
U( 4)     =  0.00000000
alpha( 4) =  0.00000000
atom    1   Tr[ns(na)] =   8.05302
    eigenvalues: 
  0.516  0.517  0.997  0.997  0.999
    eigenvectors:
  0.000  0.000  0.000  0.000  1.000
  0.096  0.562  0.122  0.220  0.000
  0.562  0.096  0.220  0.121  0.000
  0.170  0.171  0.172  0.486  0.000
  0.171  0.171  0.486  0.172  0.000
    occupations:
  0.999  0.000  0.000  0.000  0.000
  0.000  0.681  0.000 -0.087  0.210
  0.000  0.000  0.681  0.210  0.088
  0.000 -0.087  0.210  0.833  0.000
  0.000  0.210  0.088  0.000  0.833
atom    2   Tr[ns(na)] =   8.04963
    eigenvalues: 
  0.515  0.516  0.997  0.997  0.999
    eigenvectors:
  0.000  0.000  0.000  0.000  1.000
  0.244  0.414  0.054  0.288  0.000
  0.414  0.244  0.288  0.054  0.000
  0.319  0.023  0.658  0.000  0.000
  0.023  0.319  0.000  0.658  0.000
    occupations:
  0.999  0.000  0.000  0.000  0.000
  0.000  0.680  0.000  0.087  0.211
  0.000  0.000  0.680  0.211 -0.087
  0.000  0.087  0.211  0.832  0.000
  0.000  0.211 -0.087  0.000  0.833
atom    3   Tr[ns(na)] =   3.79390
    eigenvalues: 
  0.356  0.356  0.381  0.402  0.402
    eigenvectors:
  0.000  0.000  1.000  0.000  0.000
  0.690  0.231  0.000  0.017  0.061
  0.231  0.690  0.000  0.061  0.017
  0.020  0.058  0.000  0.710  0.211
  0.058  0.020  0.000  0.211  0.710
    occupations:
  0.381  0.000  0.000  0.000  0.000
  0.000  0.360  0.000  0.000  0.012
  0.000  0.000  0.360  0.012  0.000
  0.000  0.000  0.012  0.398  0.000
  0.000  0.012  0.000  0.000  0.398
atom    4   Tr[ns(na)] =   3.79388
    eigenvalues: 
  0.356  0.356  0.381  0.402  0.402
    eigenvectors:
  0.000  0.000  1.000  0.000  0.000
  0.256  0.665  0.000  0.020  0.060
  0.666  0.256  0.000  0.059  0.020
  0.056  0.023  0.000  0.685  0.236
  0.022  0.057  0.000  0.236  0.685
    occupations:
  0.381  0.000  0.000  0.000  0.000
  0.000  0.360  0.000  0.000  0.012
  0.000  0.000  0.360  0.012  0.000
  0.000  0.000  0.012  0.398  0.000
  0.000  0.012  0.000  0.000  0.398
atom    5   Tr[ns(na)] =   5.43054
    eigenvalues: 
  0.837  0.930  0.948
    eigenvectors:
  0.337  0.000  0.663
  0.497  0.251  0.252
  0.166  0.749  0.085
    occupations:
  0.911 -0.045  0.026
 -0.045  0.888  0.024
  0.026  0.024  0.916
atom    6   Tr[ns(na)] =   5.43371
    eigenvalues: 
  0.838  0.930  0.948
    eigenvectors:
  0.337  0.000  0.663
  0.498  0.249  0.253
  0.165  0.751  0.084
    occupations:
  0.911  0.045  0.026
  0.045  0.889 -0.024
  0.026 -0.024  0.917
atom    7   Tr[ns(na)] =   5.43371
    eigenvalues: 
  0.838  0.930  0.948
    eigenvectors:
  0.337  0.000  0.663
  0.000  1.000  0.000
  0.663  0.000  0.337
    occupations:
  0.911  0.000 -0.052
  0.000  0.930  0.000
 -0.052  0.000  0.875
atom    8   Tr[ns(na)] =   5.43345
    eigenvalues: 
  0.838  0.930  0.948
    eigenvectors:
  0.337  0.000  0.663
  0.497  0.251  0.252
  0.166  0.749  0.085
    occupations:
  0.911 -0.045  0.026
 -0.045  0.889  0.024
  0.026  0.024  0.917
atom    9   Tr[ns(na)] =   5.43373
    eigenvalues: 
  0.838  0.930  0.948
    eigenvectors:
  0.337  0.000  0.663
  0.498  0.249  0.253
  0.165  0.751  0.084
    occupations:
  0.911  0.045  0.026
  0.045  0.889 -0.024
  0.026 -0.024  0.917
atom   10   Tr[ns(na)] =   5.43373
    eigenvalues: 
  0.838  0.930  0.948
    eigenvectors:
  0.337  0.000  0.663
  0.000  1.000  0.000
  0.663  0.000  0.337
    occupations:
  0.911  0.000 -0.052
  0.000  0.930  0.000
 -0.052  0.000  0.875
N of occupied +U levels =  56.2892791
 --- exit write_ns ---
 --- in v_hubbard ---
Hubbard energy    0.4666
 -------

     total cpu time spent up to now is      319.4 secs

     total energy              =    -537.82832166 Ry
     Harris-Foulkes estimate   =    -537.82830699 Ry
     estimated scf accuracy    <       0.00000978 Ry

     iteration # 11     ecut=    30.00 Ry     beta=0.20
     Davidson diagonalization with overlap
     ethr =  3.79E-09,  avg # of iterations =  2.0
 --- enter write_ns ---
 LDA+U parameters:
U( 1)     =  6.00000000
alpha( 1) =  0.00000000
U( 2)     =  0.00000000
alpha( 2) =  0.00000000
U( 3)     =  0.00000000
alpha( 3) =  0.05000000
U( 4)     =  0.00000000
alpha( 4) =  0.00000000
atom    1   Tr[ns(na)] =   8.05059
    eigenvalues: 
  0.516  0.517  0.997  0.997  0.999
    eigenvectors:
  0.000  0.000  0.000  0.000  1.000
  0.096  0.562  0.120  0.222  0.000
  0.562  0.096  0.222  0.120  0.000
  0.170  0.171  0.175  0.483  0.000
  0.172  0.170  0.483  0.175  0.000
    occupations:
  0.999  0.000  0.000  0.000  0.000
  0.000  0.681  0.000 -0.088  0.210
  0.000  0.000  0.680  0.210  0.088
  0.000 -0.088  0.210  0.833  0.000
  0.000  0.210  0.088  0.000  0.833
atom    2   Tr[ns(na)] =   8.04755
    eigenvalues: 
  0.515  0.515  0.997  0.997  0.999
    eigenvectors:
  0.000  0.000  0.000  0.000  1.000
  0.244  0.414  0.055  0.287  0.000
  0.414  0.244  0.287  0.055  0.000
  0.319  0.023  0.658  0.000  0.000
  0.023  0.319  0.000  0.658  0.000
    occupations:
  0.999  0.000  0.000  0.000  0.000
  0.000  0.680  0.000  0.088  0.211
  0.000  0.000  0.680  0.211 -0.088
  0.000  0.088  0.211  0.832  0.000
  0.000  0.211 -0.088  0.000  0.833
atom    3   Tr[ns(na)] =   3.79340
    eigenvalues: 
  0.356  0.356  0.381  0.402  0.402
    eigenvectors:
  0.000  0.000  1.000  0.000  0.000
  0.690  0.231  0.000  0.017  0.062
  0.231  0.690  0.000  0.062  0.017
  0.020  0.058  0.000  0.715  0.207
  0.058  0.020  0.000  0.207  0.715
    occupations:
  0.381  0.000  0.000  0.000  0.000
  0.000  0.360  0.000  0.000  0.012
  0.000  0.000  0.360  0.012  0.000
  0.000  0.000  0.012  0.398  0.000
  0.000  0.012  0.000  0.000  0.398
atom    4   Tr[ns(na)] =   3.79338
    eigenvalues: 
  0.356  0.356  0.381  0.402  0.402
    eigenvectors:
  0.000  0.000  1.000  0.000  0.000
  0.249  0.671  0.000  0.019  0.060
  0.672  0.249  0.000  0.059  0.020
  0.057  0.022  0.000  0.687  0.234
  0.022  0.057  0.000  0.235  0.686
    occupations:
  0.381  0.000  0.000  0.000  0.000
  0.000  0.360  0.000  0.000  0.012
  0.000  0.000  0.360  0.012  0.000
  0.000  0.000  0.012  0.398  0.000
  0.000  0.012  0.000  0.000  0.398
atom    5   Tr[ns(na)] =   5.43132
    eigenvalues: 
  0.837  0.930  0.948
    eigenvectors:
  0.337  0.000  0.663
  0.497  0.251  0.252
  0.167  0.749  0.085
    occupations:
  0.911 -0.045  0.026
 -0.045  0.889  0.024
  0.026  0.024  0.916
atom    6   Tr[ns(na)] =   5.43449
    eigenvalues: 
  0.838  0.931  0.948
    eigenvectors:
  0.337  0.000  0.663
  0.498  0.249  0.253
  0.165  0.751  0.084
    occupations:
  0.911  0.045  0.026
  0.045  0.889 -0.024
  0.026 -0.024  0.917
atom    7   Tr[ns(na)] =   5.43449
    eigenvalues: 
  0.838  0.931  0.948
    eigenvectors:
  0.337  0.000  0.663
  0.000  1.000  0.000
  0.663  0.000  0.337
    occupations:
  0.911  0.000 -0.052
  0.000  0.931  0.000
 -0.052  0.000  0.875
atom    8   Tr[ns(na)] =   5.43422
    eigenvalues: 
  0.838  0.931  0.948
    eigenvectors:
  0.337  0.000  0.663
  0.497  0.251  0.252
  0.167  0.749  0.085
    occupations:
  0.911 -0.045  0.026
 -0.045  0.889  0.024
  0.026  0.024  0.917
atom    9   Tr[ns(na)] =   5.43451
    eigenvalues: 
  0.838  0.931  0.948
    eigenvectors:
  0.337  0.000  0.663
  0.498  0.249  0.253
  0.165  0.751  0.084
    occupations:
  0.911  0.045  0.026
  0.045  0.889 -0.024
  0.026 -0.024  0.917
atom   10   Tr[ns(na)] =   5.43451
    eigenvalues: 
  0.838  0.931  0.948
    eigenvectors:
  0.337  0.000  0.663
  0.000  1.000  0.000
  0.663  0.000  0.337
    occupations:
  0.911  0.000 -0.052
  0.000  0.931  0.000
 -0.052  0.000  0.875
N of occupied +U levels =  56.2884579
 --- exit write_ns ---
 --- in v_hubbard ---
Hubbard energy    0.4666
 -------

     total cpu time spent up to now is      345.4 secs

     total energy              =    -537.82833812 Ry
     Harris-Foulkes estimate   =    -537.82832340 Ry
     estimated scf accuracy    <       0.00000057 Ry

     iteration # 12     ecut=    30.00 Ry     beta=0.20
     Davidson diagonalization with overlap
     ethr =  7.46E-10,  avg # of iterations =  2.0
 --- enter write_ns ---
 LDA+U parameters:
U( 1)     =  6.00000000
alpha( 1) =  0.00000000
U( 2)     =  0.00000000
alpha( 2) =  0.00000000
U( 3)     =  0.00000000
alpha( 3) =  0.05000000
U( 4)     =  0.00000000
alpha( 4) =  0.00000000
atom    1   Tr[ns(na)] =   8.05152
    eigenvalues: 
  0.516  0.517  0.997  0.997  0.999
    eigenvectors:
  0.000  0.000  0.000  0.000  1.000
  0.096  0.562  0.120  0.222  0.000
  0.562  0.096  0.222  0.120  0.000
  0.170  0.172  0.175  0.483  0.000
  0.172  0.170  0.483  0.175  0.000
    occupations:
  0.999  0.000  0.000  0.000  0.000
  0.000  0.681  0.000 -0.088  0.210
  0.000  0.000  0.680  0.210  0.088
  0.000 -0.088  0.210  0.833  0.000
  0.000  0.210  0.088  0.000  0.833
atom    2   Tr[ns(na)] =   8.04833
    eigenvalues: 
  0.515  0.516  0.997  0.997  0.999
    eigenvectors:
  0.000  0.000  0.000  0.000  1.000
  0.244  0.414  0.055  0.287  0.000
  0.414  0.244  0.287  0.055  0.000
  0.319  0.023  0.658  0.000  0.000
  0.023  0.319  0.000  0.658  0.000
    occupations:
  0.999  0.000  0.000  0.000  0.000
  0.000  0.680  0.000  0.088  0.211
  0.000  0.000  0.680  0.211 -0.088
  0.000  0.088  0.211  0.832  0.000
  0.000  0.211 -0.088  0.000  0.833
atom    3   Tr[ns(na)] =   3.79362
    eigenvalues: 
  0.356  0.356  0.381  0.402  0.402
    eigenvectors:
  0.000  0.000  1.000  0.000  0.000
  0.690  0.231  0.000  0.017  0.062
  0.231  0.690  0.000  0.062  0.017
  0.020  0.058  0.000  0.719  0.202
  0.058  0.020  0.000  0.202  0.719
    occupations:
  0.381  0.000  0.000  0.000  0.000
  0.000  0.360  0.000  0.000  0.012
  0.000  0.000  0.360  0.012  0.000
  0.000  0.000  0.012  0.398  0.000
  0.000  0.012  0.000  0.000  0.398
atom    4   Tr[ns(na)] =   3.79360
    eigenvalues: 
  0.356  0.356  0.381  0.402  0.402
    eigenvectors:
  0.000  0.000  1.000  0.000  0.000
  0.255  0.666  0.000  0.019  0.060
  0.666  0.255  0.000  0.059  0.020
  0.056  0.023  0.000  0.687  0.234
  0.022  0.057  0.000  0.234  0.687
    occupations:
  0.381  0.000  0.000  0.000  0.000
  0.000  0.360  0.000  0.000  0.012
  0.000  0.000  0.360  0.012  0.000
  0.000  0.000  0.012  0.398  0.000
  0.000  0.012  0.000  0.000  0.398
atom    5   Tr[ns(na)] =   5.43105
    eigenvalues: 
  0.837  0.930  0.948
    eigenvectors:
  0.337  0.000  0.663
  0.497  0.251  0.252
  0.167  0.749  0.085
    occupations:
  0.911 -0.045  0.026
 -0.045  0.889  0.024
  0.026  0.024  0.916
atom    6   Tr[ns(na)] =   5.43419
    eigenvalues: 
  0.838  0.931  0.948
    eigenvectors:
  0.337  0.000  0.663
  0.498  0.249  0.253
  0.165  0.751  0.084
    occupations:
  0.911  0.045  0.026
  0.045  0.889 -0.024
  0.026 -0.024  0.917
atom    7   Tr[ns(na)] =   5.43419
    eigenvalues: 
  0.838  0.931  0.948
    eigenvectors:
  0.337  0.000  0.663
  0.000  1.000  0.000
  0.663  0.000  0.337
    occupations:
  0.911  0.000 -0.052
  0.000  0.931  0.000
 -0.052  0.000  0.875
atom    8   Tr[ns(na)] =   5.43392
    eigenvalues: 
  0.838  0.931  0.948
    eigenvectors:
  0.337  0.000  0.663
  0.497  0.251  0.252
  0.167  0.749  0.085
    occupations:
  0.911 -0.045  0.026
 -0.045  0.889  0.024
  0.026  0.024  0.917
atom    9   Tr[ns(na)] =   5.43421
    eigenvalues: 
  0.838  0.931  0.948
    eigenvectors:
  0.337  0.000  0.663
  0.498  0.249  0.253
  0.165  0.751  0.084
    occupations:
  0.911  0.045  0.026
  0.045  0.889 -0.024
  0.026 -0.024  0.917
atom   10   Tr[ns(na)] =   5.43421
    eigenvalues: 
  0.838  0.931  0.948
    eigenvectors:
  0.337  0.000  0.663
  0.000  1.000  0.000
  0.663  0.000  0.337
    occupations:
  0.911  0.000 -0.052
  0.000  0.931  0.000
 -0.052  0.000  0.875
N of occupied +U levels =  56.2888346
 --- exit write_ns ---
 --- in v_hubbard ---
Hubbard energy    0.4664
 -------

     total cpu time spent up to now is      370.3 secs

     total energy              =    -537.82834595 Ry
     Harris-Foulkes estimate   =    -537.82833835 Ry
     estimated scf accuracy    <       0.00000097 Ry

     iteration # 13     ecut=    30.00 Ry     beta=0.20
     Davidson diagonalization with overlap
     ethr =  7.46E-10,  avg # of iterations =  1.0
 --- enter write_ns ---
 LDA+U parameters:
U( 1)     =  6.00000000
alpha( 1) =  0.00000000
U( 2)     =  0.00000000
alpha( 2) =  0.00000000
U( 3)     =  0.00000000
alpha( 3) =  0.05000000
U( 4)     =  0.00000000
alpha( 4) =  0.00000000
atom    1   Tr[ns(na)] =   8.05104
    eigenvalues: 
  0.516  0.517  0.997  0.997  0.999
    eigenvectors:
  0.000  0.000  0.000  0.000  1.000
  0.096  0.562  0.119  0.223  0.000
  0.563  0.096  0.223  0.119  0.000
  0.170  0.172  0.176  0.482  0.000
  0.172  0.170  0.482  0.176  0.000
    occupations:
  0.999  0.000  0.000  0.000  0.000
  0.000  0.681  0.000 -0.088  0.210
  0.000  0.000  0.680  0.210  0.088
  0.000 -0.088  0.210  0.833  0.000
  0.000  0.210  0.088  0.000  0.833
atom    2   Tr[ns(na)] =   8.04793
    eigenvalues: 
  0.515  0.515  0.997  0.997  0.999
    eigenvectors:
  0.000  0.000  0.000  0.000  1.000
  0.245  0.414  0.055  0.286  0.000
  0.414  0.245  0.286  0.055  0.000
  0.319  0.023  0.658  0.000  0.000
  0.023  0.319  0.000  0.658  0.000
    occupations:
  0.999  0.000  0.000  0.000  0.000
  0.000  0.680  0.000  0.088  0.211
  0.000  0.000  0.680  0.211 -0.088
  0.000  0.088  0.211  0.832  0.000
  0.000  0.211 -0.088  0.000  0.833
atom    3   Tr[ns(na)] =   3.79358
    eigenvalues: 
  0.356  0.356  0.381  0.402  0.402
    eigenvectors:
  0.000  0.000  1.000  0.000  0.000
  0.690  0.231  0.000  0.017  0.062
  0.231  0.690  0.000  0.062  0.017
  0.020  0.058  0.000  0.715  0.206
  0.058  0.020  0.000  0.206  0.715
    occupations:
  0.381  0.000  0.000  0.000  0.000
  0.000  0.360  0.000  0.000  0.012
  0.000  0.000  0.360  0.012  0.000
  0.000  0.000  0.012  0.398  0.000
  0.000  0.012  0.000  0.000  0.398
atom    4   Tr[ns(na)] =   3.79357
    eigenvalues: 
  0.356  0.356  0.381  0.402  0.402
    eigenvectors:
  0.000  0.000  1.000  0.000  0.000
  0.253  0.668  0.000  0.019  0.060
  0.668  0.253  0.000  0.059  0.020
  0.056  0.022  0.000  0.686  0.235
  0.022  0.057  0.000  0.235  0.686
    occupations:
  0.381  0.000  0.000  0.000  0.000
  0.000  0.360  0.000  0.000  0.012
  0.000  0.000  0.360  0.012  0.000
  0.000  0.000  0.012  0.398  0.000
  0.000  0.012  0.000  0.000  0.398
atom    5   Tr[ns(na)] =   5.43118
    eigenvalues: 
  0.837  0.930  0.948
    eigenvectors:
  0.337  0.000  0.663
  0.497  0.251  0.252
  0.167  0.749  0.085
    occupations:
  0.911 -0.045  0.026
 -0.045  0.889  0.024
  0.026  0.024  0.916
atom    6   Tr[ns(na)] =   5.43433
    eigenvalues: 
  0.838  0.931  0.948
    eigenvectors:
  0.337  0.000  0.663
  0.498  0.249  0.253
  0.165  0.751  0.084
    occupations:
  0.911  0.045  0.026
  0.045  0.889 -0.024
  0.026 -0.024  0.917
atom    7   Tr[ns(na)] =   5.43433
    eigenvalues: 
  0.838  0.931  0.948
    eigenvectors:
  0.337  0.000  0.663
  0.000  1.000  0.000
  0.663  0.000  0.337
    occupations:
  0.911  0.000 -0.052
  0.000  0.931  0.000
 -0.052  0.000  0.875
atom    8   Tr[ns(na)] =   5.43406
    eigenvalues: 
  0.838  0.931  0.948
    eigenvectors:
  0.337  0.000  0.663
  0.497  0.251  0.252
  0.167  0.749  0.085
    occupations:
  0.911 -0.045  0.026
 -0.045  0.889  0.024
  0.026  0.024  0.917
atom    9   Tr[ns(na)] =   5.43435
    eigenvalues: 
  0.838  0.931  0.948
    eigenvectors:
  0.337  0.000  0.663
  0.498  0.249  0.253
  0.165  0.751  0.084
    occupations:
  0.911  0.045  0.026
  0.045  0.889 -0.024
  0.026 -0.024  0.917
atom   10   Tr[ns(na)] =   5.43435
    eigenvalues: 
  0.838  0.931  0.948
    eigenvectors:
  0.337  0.000  0.663
  0.000  1.000  0.000
  0.663  0.000  0.337
    occupations:
  0.911  0.000 -0.052
  0.000  0.931  0.000
 -0.052  0.000  0.875
N of occupied +U levels =  56.2887361
 --- exit write_ns ---
 --- in v_hubbard ---
Hubbard energy    0.4664
 -------

     total cpu time spent up to now is      393.6 secs

     total energy              =    -537.82835153 Ry
     Harris-Foulkes estimate   =    -537.82834620 Ry
     estimated scf accuracy    <       0.00000006 Ry

     iteration # 14     ecut=    30.00 Ry     beta=0.20
     Davidson diagonalization with overlap
     ethr =  8.42E-11,  avg # of iterations =  2.0
 --- enter write_ns ---
 LDA+U parameters:
U( 1)     =  6.00000000
alpha( 1) =  0.00000000
U( 2)     =  0.00000000
alpha( 2) =  0.00000000
U( 3)     =  0.00000000
alpha( 3) =  0.05000000
U( 4)     =  0.00000000
alpha( 4) =  0.00000000
atom    1   Tr[ns(na)] =   8.05084
    eigenvalues: 
  0.516  0.517  0.997  0.997  0.999
    eigenvectors:
  0.000  0.000  0.000  0.000  1.000
  0.096  0.563  0.119  0.223  0.000
  0.563  0.096  0.223  0.119  0.000
  0.170  0.172  0.176  0.482  0.000
  0.172  0.170  0.482  0.176  0.000
    occupations:
  0.999  0.000  0.000  0.000  0.000
  0.000  0.681  0.000 -0.088  0.210
  0.000  0.000  0.680  0.210  0.088
  0.000 -0.088  0.210  0.833  0.000
  0.000  0.210  0.088  0.000  0.833
atom    2   Tr[ns(na)] =   8.04777
    eigenvalues: 
  0.515  0.515  0.997  0.997  0.999
    eigenvectors:
  0.000  0.000  0.000  0.000  1.000
  0.245  0.414  0.055  0.286  0.000
  0.414  0.245  0.286  0.055  0.000
  0.319  0.023  0.658  0.000  0.000
  0.023  0.319  0.000  0.658  0.000
    occupations:
  0.999  0.000  0.000  0.000  0.000
  0.000  0.680  0.000  0.088  0.211
  0.000  0.000  0.680  0.211 -0.088
  0.000  0.088  0.211  0.832  0.000
  0.000  0.211 -0.088  0.000  0.833
atom    3   Tr[ns(na)] =   3.79345
    eigenvalues: 
  0.356  0.356  0.381  0.402  0.402
    eigenvectors:
  0.000  0.000  1.000  0.000  0.000
  0.690  0.231  0.000  0.017  0.062
  0.231  0.690  0.000  0.062  0.017
  0.020  0.058  0.000  0.718  0.203
  0.058  0.020  0.000  0.203  0.718
    occupations:
  0.381  0.000  0.000  0.000  0.000
  0.000  0.360  0.000  0.000  0.012
  0.000  0.000  0.360  0.012  0.000
  0.000  0.000  0.012  0.398  0.000
  0.000  0.012  0.000  0.000  0.398
atom    4   Tr[ns(na)] =   3.79343
    eigenvalues: 
  0.356  0.356  0.381  0.402  0.402
    eigenvectors:
  0.000  0.000  1.000  0.000  0.000
  0.252  0.669  0.000  0.019  0.060
  0.669  0.252  0.000  0.059  0.020
  0.057  0.022  0.000  0.687  0.234
  0.022  0.057  0.000  0.234  0.687
    occupations:
  0.381  0.000  0.000  0.000  0.000
  0.000  0.360  0.000  0.000  0.012
  0.000  0.000  0.360  0.012  0.000
  0.000  0.000  0.012  0.398  0.000
  0.000  0.012  0.000  0.000  0.398
atom    5   Tr[ns(na)] =   5.43126
    eigenvalues: 
  0.837  0.930  0.948
    eigenvectors:
  0.337  0.000  0.663
  0.497  0.251  0.252
  0.167  0.749  0.085
    occupations:
  0.911 -0.045  0.026
 -0.045  0.889  0.024
  0.026  0.024  0.916
atom    6   Tr[ns(na)] =   5.43442
    eigenvalues: 
  0.838  0.931  0.948
    eigenvectors:
  0.337  0.000  0.663
  0.498  0.249  0.253
  0.165  0.751  0.084
    occupations:
  0.911  0.045  0.026
  0.045  0.889 -0.024
  0.026 -0.024  0.917
atom    7   Tr[ns(na)] =   5.43442
    eigenvalues: 
  0.838  0.931  0.948
    eigenvectors:
  0.337  0.000  0.663
  0.000  1.000  0.000
  0.663  0.000  0.337
    occupations:
  0.911  0.000 -0.052
  0.000  0.931  0.000
 -0.052  0.000  0.875
atom    8   Tr[ns(na)] =   5.43415
    eigenvalues: 
  0.838  0.931  0.948
    eigenvectors:
  0.337  0.000  0.663
  0.497  0.251  0.252
  0.167  0.749  0.085
    occupations:
  0.911 -0.045  0.026
 -0.045  0.889  0.024
  0.026  0.024  0.917
atom    9   Tr[ns(na)] =   5.43444
    eigenvalues: 
  0.838  0.931  0.948
    eigenvectors:
  0.337  0.000  0.663
  0.498  0.249  0.253
  0.165  0.751  0.084
    occupations:
  0.911  0.045  0.026
  0.045  0.889 -0.024
  0.026 -0.024  0.917
atom   10   Tr[ns(na)] =   5.43444
    eigenvalues: 
  0.838  0.931  0.948
    eigenvectors:
  0.337  0.000  0.663
  0.000  1.000  0.000
  0.663  0.000  0.337
    occupations:
  0.911  0.000 -0.052
  0.000  0.931  0.000
 -0.052  0.000  0.875
N of occupied +U levels =  56.2886085
 --- exit write_ns ---
 --- in v_hubbard ---
Hubbard energy    0.4664
 -------

     total cpu time spent up to now is      422.0 secs

     total energy              =    -537.82835519 Ry
     Harris-Foulkes estimate   =    -537.82835155 Ry
     estimated scf accuracy    <       0.00000001 Ry

     iteration # 15     ecut=    30.00 Ry     beta=0.20
     Davidson diagonalization with overlap
     ethr =  1.79E-11,  avg # of iterations =  2.0
 --- enter write_ns ---
 LDA+U parameters:
U( 1)     =  6.00000000
alpha( 1) =  0.00000000
U( 2)     =  0.00000000
alpha( 2) =  0.00000000
U( 3)     =  0.00000000
alpha( 3) =  0.05000000
U( 4)     =  0.00000000
alpha( 4) =  0.00000000
atom    1   Tr[ns(na)] =   8.05093
    eigenvalues: 
  0.516  0.517  0.997  0.997  0.999
    eigenvectors:
  0.000  0.000  0.000  0.000  1.000
  0.096  0.563  0.119  0.223  0.000
  0.563  0.096  0.223  0.119  0.000
  0.170  0.172  0.176  0.482  0.000
  0.172  0.170  0.482  0.176  0.000
    occupations:
  0.999  0.000  0.000  0.000  0.000
  0.000  0.681  0.000 -0.088  0.210
  0.000  0.000  0.680  0.210  0.088
  0.000 -0.088  0.210  0.833  0.000
  0.000  0.210  0.088  0.000  0.833
atom    2   Tr[ns(na)] =   8.04784
    eigenvalues: 
  0.515  0.515  0.997  0.997  0.999
    eigenvectors:
  0.000  0.000  0.000  0.000  1.000
  0.245  0.414  0.055  0.286  0.000
  0.414  0.245  0.286  0.055  0.000
  0.319  0.023  0.658  0.000  0.000
  0.023  0.319  0.000  0.658  0.000
    occupations:
  0.999  0.000  0.000  0.000  0.000
  0.000  0.680  0.000  0.088  0.211
  0.000  0.000  0.680  0.211 -0.088
  0.000  0.088  0.211  0.832  0.000
  0.000  0.211 -0.088  0.000  0.833
atom    3   Tr[ns(na)] =   3.79350
    eigenvalues: 
  0.356  0.356  0.381  0.402  0.402
    eigenvectors:
  0.000  0.000  1.000  0.000  0.000
  0.690  0.231  0.000  0.017  0.062
  0.231  0.690  0.000  0.062  0.017
  0.020  0.058  0.000  0.718  0.204
  0.058  0.020  0.000  0.204  0.718
    occupations:
  0.381  0.000  0.000  0.000  0.000
  0.000  0.360  0.000  0.000  0.012
  0.000  0.000  0.360  0.012  0.000
  0.000  0.000  0.012  0.398  0.000
  0.000  0.012  0.000  0.000  0.398
atom    4   Tr[ns(na)] =   3.79348
    eigenvalues: 
  0.356  0.356  0.381  0.402  0.402
    eigenvectors:
  0.000  0.000  1.000  0.000  0.000
  0.252  0.669  0.000  0.019  0.060
  0.669  0.252  0.000  0.059  0.020
  0.056  0.022  0.000  0.687  0.234
  0.022  0.057  0.000  0.234  0.687
    occupations:
  0.381  0.000  0.000  0.000  0.000
  0.000  0.360  0.000  0.000  0.012
  0.000  0.000  0.360  0.012  0.000
  0.000  0.000  0.012  0.398  0.000
  0.000  0.012  0.000  0.000  0.398
atom    5   Tr[ns(na)] =   5.43123
    eigenvalues: 
  0.837  0.930  0.948
    eigenvectors:
  0.337  0.000  0.663
  0.497  0.251  0.252
  0.167  0.749  0.085
    occupations:
  0.911 -0.045  0.026
 -0.045  0.889  0.024
  0.026  0.024  0.916
atom    6   Tr[ns(na)] =   5.43438
    eigenvalues: 
  0.838  0.931  0.948
    eigenvectors:
  0.337  0.000  0.663
  0.498  0.249  0.253
  0.165  0.751  0.084
    occupations:
  0.911  0.045  0.026
  0.045  0.889 -0.024
  0.026 -0.024  0.917
atom    7   Tr[ns(na)] =   5.43438
[...]
     0.0625   0.0625   0.0625   0.0625   0.0625   0.0625   0.0625   0.0625
     0.0625   0.0625   0.0625   0.0625   0.0625   0.0625   0.0625   0.0625
     0.0625   0.0625   0.0624   0.0623   0.0620   0.0619   0.0068   0.0000
     0.0000   0.0000   0.0000   0.0000   0.0000   0.0000

          k = 0.4942-0.5706 0.1027 (  2198 PWs)   bands (ev):

   -19.7335 -19.7241  -6.9593  -6.6492  -6.1368  -5.8921  -5.5203  -5.3968
    -3.3379  -3.2711  -2.8847  -2.7148  -2.5313  -2.3865   5.3918   5.8053
     5.9430   6.4368   6.4668   6.5970   6.6782   7.0406   7.2759   7.3721
     7.8037   7.9276   8.7876   9.1157   9.4491   9.6767   9.6995  10.0122
    10.2335  10.3218  10.3493  10.4677  10.6486  10.8204  12.2608  12.7003
    13.3881  14.3122  16.9081  17.1133  17.3082  18.0169

     occupation numbers 
     0.0625   0.0625   0.0625   0.0625   0.0625   0.0625   0.0625   0.0625
     0.0625   0.0625   0.0625   0.0625   0.0625   0.0625   0.0625   0.0625
     0.0625   0.0625   0.0625   0.0625   0.0625   0.0625   0.0625   0.0625
     0.0625   0.0625   0.0625   0.0625   0.0625   0.0625   0.0625   0.0625
     0.0625   0.0625   0.0625   0.0625   0.0623   0.0614   0.0001   0.0000
     0.0000   0.0000   0.0000   0.0000   0.0000   0.0000

          k =-0.7412 0.1427-0.1027 (  2198 PWs)   bands (ev):

   -19.7335 -19.7241  -6.9589  -6.6500  -6.1358  -5.8932  -5.5192  -5.3974
    -3.3372  -3.2712  -2.8846  -2.7158  -2.5307  -2.3868   5.3934   5.8027
     5.9451   6.4428   6.4602   6.6041   6.6686   7.0416   7.2739   7.3770
     7.8025   7.9255   8.7874   9.1162   9.4509   9.6804   9.6977  10.0140
    10.2279  10.3263  10.3496  10.4672  10.6417  10.8240  12.2609  12.7006
    13.3883  14.3126  16.9063  17.1162  17.3076  18.0165

     occupation numbers 
     0.0625   0.0625   0.0625   0.0625   0.0625   0.0625   0.0625   0.0625
     0.0625   0.0625   0.0625   0.0625   0.0625   0.0625   0.0625   0.0625
     0.0625   0.0625   0.0625   0.0625   0.0625   0.0625   0.0625   0.0625
     0.0625   0.0625   0.0625   0.0625   0.0625   0.0625   0.0625   0.0625
     0.0625   0.0625   0.0625   0.0625   0.0623   0.0613   0.0001   0.0000
     0.0000   0.0000   0.0000   0.0000   0.0000   0.0000

          k = 0.2471-0.7133-0.1027 (  2198 PWs)   bands (ev):

   -19.7335 -19.7241  -6.9590  -6.6497  -6.1363  -5.8926  -5.5188  -5.3981
    -3.3371  -3.2711  -2.8847  -2.7153  -2.5308  -2.3870   5.3933   5.8020
     5.9449   6.4430   6.4604   6.6026   6.6700   7.0421   7.2743   7.3751
     7.8039   7.9259   8.7885   9.1150   9.4496   9.6838   9.6951  10.0147
    10.2314  10.3282  10.3438  10.4621  10.6461  10.8248  12.2609  12.7006
    13.3883  14.3125  16.9070  17.1151  17.3076  18.0160

     occupation numbers 
     0.0625   0.0625   0.0625   0.0625   0.0625   0.0625   0.0625   0.0625
     0.0625   0.0625   0.0625   0.0625   0.0625   0.0625   0.0625   0.0625
     0.0625   0.0625   0.0625   0.0625   0.0625   0.0625   0.0625   0.0625
     0.0625   0.0625   0.0625   0.0625   0.0625   0.0625   0.0625   0.0625
     0.0625   0.0625   0.0625   0.0625   0.0623   0.0613   0.0001   0.0000
     0.0000   0.0000   0.0000   0.0000   0.0000   0.0000

          k =-0.7412-0.1427 0.1027 (  2198 PWs)   bands (ev):

   -19.7335 -19.7241  -6.9595  -6.6490  -6.1373  -5.8915  -5.5198  -5.3975
    -3.3379  -3.2711  -2.8848  -2.7143  -2.5314  -2.3867   5.3918   5.8046
     5.9429   6.4376   6.4664   6.5956   6.6797   7.0410   7.2762   7.3704
     7.8051   7.9279   8.7887   9.1146   9.4477   9.6800   9.6969  10.0129
    10.2372  10.3230  10.3441  10.4626  10.6528  10.8212  12.2607  12.7003
    13.3882  14.3122  16.9088  17.1122  17.3081  18.0165

     occupation numbers 
     0.0625   0.0625   0.0625   0.0625   0.0625   0.0625   0.0625   0.0625
     0.0625   0.0625   0.0625   0.0625   0.0625   0.0625   0.0625   0.0625
     0.0625   0.0625   0.0625   0.0625   0.0625   0.0625   0.0625   0.0625
     0.0625   0.0625   0.0625   0.0625   0.0625   0.0625   0.0625   0.0625
     0.0625   0.0625   0.0625   0.0625   0.0623   0.0614   0.0001   0.0000
     0.0000   0.0000   0.0000   0.0000   0.0000   0.0000

          k = 0.2471 0.7133 0.1027 (  2198 PWs)   bands (ev):

   -19.7339 -19.7243  -6.9545  -6.6506  -6.1322  -5.9015  -5.5245  -5.3913
    -3.3375  -3.2710  -2.8854  -2.7133  -2.5309  -2.3852   5.3868   5.8018
     5.9459   6.4365   6.4651   6.5951   6.6807   7.0426   7.2741   7.3661
     7.8084   7.9308   8.7884   9.1155   9.4475   9.6785   9.6980  10.0140
    10.2336  10.3245  10.3434  10.4633  10.6510  10.8268  12.2611  12.6993
    13.3893  14.3117  16.9081  17.1123  17.3079  18.0167

     occupation numbers 
     0.0625   0.0625   0.0625   0.0625   0.0625   0.0625   0.0625   0.0625
     0.0625   0.0625   0.0625   0.0625   0.0625   0.0625   0.0625   0.0625
     0.0625   0.0625   0.0625   0.0625   0.0625   0.0625   0.0625   0.0625
     0.0625   0.0625   0.0625   0.0625   0.0625   0.0625   0.0625   0.0625
     0.0625   0.0625   0.0625   0.0625   0.0623   0.0613   0.0001   0.0000
     0.0000   0.0000   0.0000   0.0000   0.0000   0.0000

          k = 0.2471-0.4280 0.0000 (  2203 PWs)   bands (ev):

   -19.7468 -19.7043  -6.8486  -6.6495  -6.0551  -5.9871  -5.4494  -5.3764
    -3.5783  -3.3064  -2.8062  -2.7077  -2.5814  -2.5702   5.5655   5.7462
     6.1813   6.2862   6.5009   6.5862   6.8219   6.9557   7.2453   7.3978
     7.4264   8.1784   8.8671   9.2808   9.6572   9.7151   9.8852  10.0803
    10.1967  10.2620  10.3527  10.4340  10.4976  10.9000  12.1675  13.2777
    13.3606  14.1071  16.4341  16.9968  17.4214  17.9271

     occupation numbers 
     0.0625   0.0625   0.0625   0.0625   0.0625   0.0625   0.0625   0.0625
     0.0625   0.0625   0.0625   0.0625   0.0625   0.0625   0.0625   0.0625
     0.0625   0.0625   0.0625   0.0625   0.0625   0.0625   0.0625   0.0625
     0.0625   0.0625   0.0625   0.0625   0.0625   0.0625   0.0625   0.0625
     0.0625   0.0625   0.0625   0.0625   0.0625   0.0603   0.0003   0.0000
     0.0000   0.0000   0.0000   0.0000   0.0000   0.0000

          k =-0.4942 0.0000 0.0000 (  2203 PWs)   bands (ev):

   -19.7468 -19.7043  -6.8486  -6.6495  -6.0550  -5.9871  -5.4494  -5.3764
    -3.5783  -3.3064  -2.8062  -2.7077  -2.5813  -2.5703   5.5655   5.7462
     6.1812   6.2862   6.5008   6.5862   6.8220   6.9557   7.2453   7.3995
     7.4248   8.1784   8.8671   9.2808   9.6575   9.7149   9.8851  10.0804
    10.1966  10.2618  10.3524  10.4344  10.4977  10.9000  12.1675  13.2777
    13.3606  14.1071  16.4341  16.9969  17.4214  17.9269

     occupation numbers 
     0.0625   0.0625   0.0625   0.0625   0.0625   0.0625   0.0625   0.0625
     0.0625   0.0625   0.0625   0.0625   0.0625   0.0625   0.0625   0.0625
     0.0625   0.0625   0.0625   0.0625   0.0625   0.0625   0.0625   0.0625
     0.0625   0.0625   0.0625   0.0625   0.0625   0.0625   0.0625   0.0625
     0.0625   0.0625   0.0625   0.0625   0.0625   0.0603   0.0003   0.0000
     0.0000   0.0000   0.0000   0.0000   0.0000   0.0000

          k = 0.4942 0.2853 0.4107 (  2202 PWs)   bands (ev):

   -19.7375 -19.7257  -7.1699  -6.4539  -6.2409  -5.9713  -5.5317  -5.3068
    -3.2228  -3.1142  -3.0678  -2.6471  -2.4785  -2.2219   5.0052   5.6804
     5.7702   6.4001   6.5077   6.9429   7.0410   7.1172   7.1526   7.2621
     8.0152   8.1712   8.3004   8.6139   9.4167   9.6801  10.0351  10.0689
    10.1018  10.2364  10.3292  10.5790  10.5940  10.9345  11.7384  12.3668
    13.2915  14.7459  17.0472  17.2702  17.5207  17.6156

     occupation numbers 
     0.0313   0.0313   0.0313   0.0313   0.0313   0.0313   0.0313   0.0313
     0.0313   0.0313   0.0313   0.0313   0.0313   0.0313   0.0313   0.0313
     0.0313   0.0313   0.0313   0.0313   0.0313   0.0313   0.0313   0.0313
     0.0313   0.0313   0.0313   0.0313   0.0312   0.0312   0.0312   0.0312
     0.0312   0.0312   0.0312   0.0312   0.0312   0.0299   0.0043   0.0000
     0.0000   0.0000   0.0000   0.0000   0.0000   0.0000

          k = 0.0000 0.5706-0.4107 (  2202 PWs)   bands (ev):

   -19.7375 -19.7257  -7.1699  -6.4540  -6.2408  -5.9713  -5.5317  -5.3068
    -3.2228  -3.1142  -3.0678  -2.6471  -2.4785  -2.2219   5.0052   5.6804
     5.7702   6.4000   6.5077   6.9429   7.0412   7.1171   7.1526   7.2621
     8.0152   8.1713   8.3003   8.6139   9.4168   9.6801  10.0352  10.0688
    10.1017  10.2366  10.3293  10.5772  10.5956  10.9345  11.7384  12.3668
    13.2915  14.7459  17.0471  17.2702  17.5207  17.6156

     occupation numbers 
     0.0313   0.0313   0.0313   0.0313   0.0313   0.0313   0.0313   0.0313
     0.0313   0.0313   0.0313   0.0313   0.0313   0.0313   0.0313   0.0313
     0.0313   0.0313   0.0313   0.0313   0.0313   0.0313   0.0313   0.0313
     0.0313   0.0313   0.0313   0.0313   0.0312   0.0312   0.0312   0.0312
     0.0312   0.0312   0.0312   0.0312   0.0312   0.0299   0.0043   0.0000
     0.0000   0.0000   0.0000   0.0000   0.0000   0.0000

          k = 0.7412-0.4280 0.0000 (  2204 PWs)   bands (ev):

   -19.7457 -19.7072  -6.7365  -6.6101  -6.1478  -5.8404  -5.7070  -5.5520
    -3.2150  -3.1076  -3.0485  -2.6815  -2.6707  -2.5873   5.6628   5.8203
     6.0557   6.4320   6.4586   6.7144   6.7981   6.9486   7.3009   7.3670
     7.5399   8.0090   8.8526   9.3891   9.4038   9.6553   9.8204  10.0792
    10.2293  10.2443  10.4671  10.4765  10.5338  10.6113  12.1638  13.1974
    13.2763  14.1375  16.6865  16.7277  17.5903  17.7956

     occupation numbers 
     0.0625   0.0625   0.0625   0.0625   0.0625   0.0625   0.0625   0.0625
     0.0625   0.0625   0.0625   0.0625   0.0625   0.0625   0.0625   0.0625
     0.0625   0.0625   0.0625   0.0625   0.0625   0.0625   0.0625   0.0625
     0.0625   0.0625   0.0625   0.0625   0.0625   0.0625   0.0625   0.0625
     0.0625   0.0625   0.0625   0.0625   0.0624   0.0623   0.0003   0.0000
     0.0000   0.0000   0.0000   0.0000   0.0000   0.0000

          k = 0.0000-0.8559 0.0000 (  2204 PWs)   bands (ev):

   -19.7458 -19.7072  -6.7341  -6.6144  -6.1453  -5.8384  -5.7045  -5.5574
    -3.2157  -3.1075  -3.0485  -2.6801  -2.6698  -2.5885   5.6585   5.8141
     6.0583   6.4344   6.4595   6.7168   6.8023   6.9491   7.3038   7.3702
     7.5422   8.0020   8.8445   9.3912   9.3974   9.6581   9.8210  10.0815
    10.2323  10.2472  10.4663  10.4789  10.5289  10.6108  12.1648  13.1975
    13.2765  14.1365  16.6858  16.7282  17.5911  17.7958

     occupation numbers 
     0.0625   0.0625   0.0625   0.0625   0.0625   0.0625   0.0625   0.0625
     0.0625   0.0625   0.0625   0.0625   0.0625   0.0625   0.0625   0.0625
     0.0625   0.0625   0.0625   0.0625   0.0625   0.0625   0.0625   0.0625
     0.0625   0.0625   0.0625   0.0625   0.0625   0.0625   0.0625   0.0625
     0.0625   0.0625   0.0625   0.0625   0.0624   0.0624   0.0003   0.0000
     0.0000   0.0000   0.0000   0.0000   0.0000   0.0000

          k = 0.4942-0.2853-0.1027 (  2211 PWs)   bands (ev):

   -19.7353 -19.7229  -6.9708  -6.5466  -6.3270  -5.7134  -5.6299  -5.3641
    -3.3520  -3.1721  -3.0541  -2.6018  -2.5681  -2.3768   5.4047   5.8546
     5.8715   6.2562   6.5127   6.7480   6.8536   6.8615   7.2546   7.2861
     7.8793   7.9595   8.7578   9.2626   9.3303   9.5998   9.8483   9.9012
    10.2922  10.3064  10.4762  10.5493  10.6019  10.6496  12.2171  12.7131
    13.4368  14.2936  16.8868  16.9361  17.5789  17.9281

     occupation numbers 
     0.0625   0.0625   0.0625   0.0625   0.0625   0.0625   0.0625   0.0625
     0.0625   0.0625   0.0625   0.0625   0.0625   0.0625   0.0625   0.0625
     0.0625   0.0625   0.0625   0.0625   0.0625   0.0625   0.0625   0.0625
     0.0625   0.0625   0.0625   0.0625   0.0625   0.0625   0.0625   0.0625
     0.0625   0.0625   0.0625   0.0624   0.0624   0.0623   0.0002   0.0000
     0.0000   0.0000   0.0000   0.0000   0.0000   0.0000

          k = 0.0000-0.5706 0.1027 (  2211 PWs)   bands (ev):

   -19.7349 -19.7227  -6.9755  -6.5453  -6.3278  -5.7093  -5.6251  -5.3691
    -3.3521  -3.1722  -3.0542  -2.6028  -2.5681  -2.3781   5.4094   5.8509
     5.8766   6.2540   6.5137   6.7492   6.8515   6.8631   7.2590   7.2864
     7.8704   7.9633   8.7567   9.2684   9.3319   9.5917   9.8508   9.8980
    10.2949  10.3085  10.4773  10.5481  10.5993  10.6472  12.2167  12.7140
    13.4357  14.2941  16.8870  16.9359  17.5787  17.9283

     occupation numbers 
     0.0625   0.0625   0.0625   0.0625   0.0625   0.0625   0.0625   0.0625
     0.0625   0.0625   0.0625   0.0625   0.0625   0.0625   0.0625   0.0625
     0.0625   0.0625   0.0625   0.0625   0.0625   0.0625   0.0625   0.0625
     0.0625   0.0625   0.0625   0.0625   0.0625   0.0625   0.0625   0.0625
     0.0625   0.0625   0.0625   0.0624   0.0624   0.0623   0.0002   0.0000
     0.0000   0.0000   0.0000   0.0000   0.0000   0.0000

          k = 0.7412 0.4280 0.3080 (  2210 PWs)   bands (ev):

   -19.7345 -19.7251  -6.9120  -6.4569  -6.3063  -5.7969  -5.7699  -5.5028
    -3.0859  -3.0692  -2.9727  -2.7373  -2.6288  -2.4289   5.4661   5.9206
     5.9605   6.2750   6.5240   6.6360   6.8564   6.9665   7.2954   7.3398
     7.8538   7.9361   8.7001   9.2001   9.3877   9.4639   9.6372  10.0245
    10.2354  10.2714  10.3915  10.5276  10.6477  10.6817  12.1774  12.6683
    13.3849  14.2642  17.0616  17.0715  17.5466  17.9031

     occupation numbers 
     0.0625   0.0625   0.0625   0.0625   0.0625   0.0625   0.0625   0.0625
     0.0625   0.0625   0.0625   0.0625   0.0625   0.0625   0.0625   0.0625
     0.0625   0.0625   0.0625   0.0625   0.0625   0.0625   0.0625   0.0625
     0.0625   0.0625   0.0625   0.0625   0.0625   0.0625   0.0625   0.0625
     0.0625   0.0625   0.0625   0.0624   0.0623   0.0622   0.0003   0.0000
     0.0000   0.0000   0.0000   0.0000   0.0000   0.0000

          k = 0.0000 0.8559-0.3080 (  2210 PWs)   bands (ev):

   -19.7345 -19.7251  -6.9120  -6.4569  -6.3063  -5.7969  -5.7699  -5.5028
    -3.0859  -3.0692  -2.9727  -2.7373  -2.6288  -2.4289   5.4661   5.9206
     5.9606   6.2749   6.5239   6.6361   6.8562   6.9666   7.2956   7.3395
     7.8538   7.9361   8.7002   9.2000   9.3876   9.4640   9.6373  10.0247
    10.2353  10.2715  10.3910  10.5278  10.6478  10.6816  12.1774  12.6683
    13.3850  14.2642  17.0616  17.0715  17.5466  17.9031

     occupation numbers 
     0.0625   0.0625   0.0625   0.0625   0.0625   0.0625   0.0625   0.0625
     0.0625   0.0625   0.0625   0.0625   0.0625   0.0625   0.0625   0.0625
     0.0625   0.0625   0.0625   0.0625   0.0625   0.0625   0.0625   0.0625
     0.0625   0.0625   0.0625   0.0625   0.0625   0.0625   0.0625   0.0625
     0.0625   0.0625   0.0625   0.0624   0.0623   0.0622   0.0003   0.0000
     0.0000   0.0000   0.0000   0.0000   0.0000   0.0000

          k = 0.2471 0.7133-0.2053 (  2206 PWs)   bands (ev):

   -19.7325 -19.7324  -6.8869  -6.8750  -6.0432  -6.0324  -5.4401  -5.4329
    -3.1635  -3.1632  -2.8266  -2.8246  -2.3821  -2.3796   5.6691   5.6736
     5.8809   5.8903   6.6030   6.6064   6.8034   6.8142   7.2657   7.2707
     8.1586   8.1680   8.7673   8.7765   9.4196   9.4251   9.8978   9.9061
    10.2157  10.2235  10.3596  10.3719  10.7093  10.7192  12.2201  12.2263
    13.9590  13.9707  17.4260  17.4272  17.8714  17.8731

     occupation numbers 
     0.0625   0.0625   0.0625   0.0625   0.0625   0.0625   0.0625   0.0625
     0.0625   0.0625   0.0625   0.0625   0.0625   0.0625   0.0625   0.0625
     0.0625   0.0625   0.0625   0.0625   0.0625   0.0625   0.0625   0.0625
     0.0625   0.0625   0.0625   0.0625   0.0625   0.0625   0.0625   0.0625
     0.0625   0.0625   0.0625   0.0625   0.0621   0.0620   0.0002   0.0002
     0.0000   0.0000   0.0000   0.0000   0.0000   0.0000

          k =-0.7412-0.1427-0.2053 (  2206 PWs)   bands (ev):

   -19.7322 -19.7321  -6.8917  -6.8763  -6.0339  -6.0324  -5.4437  -5.4330
    -3.1641  -3.1633  -2.8253  -2.8245  -2.3851  -2.3799   5.6709   5.6759
     5.8807   5.8867   6.6064   6.6122   6.8042   6.8160   7.2671   7.2748
     8.1583   8.1596   8.7659   8.7688   9.4189   9.4194   9.9032   9.9119
    10.2178  10.2271  10.3605  10.3691  10.7080  10.7138  12.2206  12.2270
    13.9586  13.9704  17.4260  17.4265  17.8716  17.8740

     occupation numbers 
     0.0625   0.0625   0.0625   0.0625   0.0625   0.0625   0.0625   0.0625
     0.0625   0.0625   0.0625   0.0625   0.0625   0.0625   0.0625   0.0625
     0.0625   0.0625   0.0625   0.0625   0.0625   0.0625   0.0625   0.0625
     0.0625   0.0625   0.0625   0.0625   0.0625   0.0625   0.0625   0.0625
     0.0625   0.0625   0.0625   0.0625   0.0621   0.0621   0.0002   0.0002
     0.0000   0.0000   0.0000   0.0000   0.0000   0.0000

     the Fermi energy is    11.4250 ev

!    total energy              =    -537.82836154 Ry
     Harris-Foulkes estimate   =    -537.82835520 Ry
     estimated scf accuracy    <          1.5E-09 Ry

     The total energy is the sum of the following terms:

     one-electron contribution =     -32.88463927 Ry
     hartree contribution      =      83.65793364 Ry
     xc contribution           =    -199.62073461 Ry
     ewald contribution        =    -389.44315552 Ry
     Hubbard energy            =       0.46635210 Ry
     smearing contrib. (-TS)   =      -0.00411788 Ry

     convergence has been achieved in  15 iterations

     init_run     :      6.97s CPU      7.06s WALL (       1 calls)
     electrons    :    440.51s CPU    442.67s WALL (       1 calls)

     Called by init_run:
     wfcinit      :      0.00s CPU      0.00s WALL (       1 calls)
     potinit      :      0.29s CPU      0.31s WALL (       1 calls)

     Called by electrons:
     c_bands      :    341.90s CPU    343.13s WALL (      15 calls)
     sum_band     :     71.74s CPU     72.21s WALL (      15 calls)
     v_of_rho     :      3.73s CPU      3.74s WALL (      16 calls)
     v_h          :      0.19s CPU      0.19s WALL (      16 calls)
     v_xc         :      3.54s CPU      3.55s WALL (      16 calls)
     newd         :     24.05s CPU     24.07s WALL (      16 calls)
     mix_rho      :      0.36s CPU      0.37s WALL (      15 calls)

     Called by c_bands:
     init_us_2    :      3.53s CPU      3.53s WALL (    1080 calls)
     cegterg      :    331.56s CPU    332.28s WALL (     540 calls)

     Called by sum_band:
     sum_band:bec :      0.39s CPU      0.41s WALL (     540 calls)
     addusdens    :     16.29s CPU     16.29s WALL (      15 calls)

     Called by *egterg:
     h_psi        :    249.02s CPU    249.56s WALL (    2080 calls)
     s_psi        :     14.14s CPU     14.15s WALL (    2080 calls)
     g_psi        :      1.29s CPU      1.28s WALL (    1540 calls)
     cdiaghg      :     23.77s CPU     23.80s WALL (    2044 calls)
     cegterg:over :     16.37s CPU     16.41s WALL (    1540 calls)
     cegterg:upda :     10.34s CPU     10.37s WALL (    1540 calls)
     cegterg:last :      7.69s CPU      7.70s WALL (     610 calls)

     Called by h_psi:
     h_psi:vloc   :    203.02s CPU    203.50s WALL (    2080 calls)
     h_psi:vnl    :     29.01s CPU     29.03s WALL (    2080 calls)
     add_vuspsi   :     14.24s CPU     14.25s WALL (    2080 calls)
     vhpsi        :     16.47s CPU     16.52s WALL (    2080 calls)

     General routines
     calbec       :     30.66s CPU     30.68s WALL (    5240 calls)
     fft          :      2.39s CPU      2.40s WALL (     251 calls)
     ffts         :      0.08s CPU      0.08s WALL (      31 calls)
     fftw         :    201.75s CPU    201.85s WALL (  152400 calls)
     interpolate  :      0.41s CPU      0.41s WALL (      31 calls)
     davcio       :      0.01s CPU      0.82s WALL (    1116 calls)

     Parallel routines
     fft_scatter  :     46.14s CPU     46.13s WALL (  152682 calls)
     Hubbard U routines
     new_ns       :      3.07s CPU      3.41s WALL (      15 calls)
     vhpsi        :     16.47s CPU     16.52s WALL (    2080 calls)

     PWSCF        :  7m27.90s CPU     7m30.18s WALL


   This run was terminated on:   6:10:39  13Nov2012            

=------------------------------------------------------------------------------=
