   JOB DONE.
=------------------------------------------------------------------------------=

     Program PWSCF v.5.0.1 starts on 13Nov2012 at  5:44:58 

     This program is part of the open-source Quantum ESPRESSO suite
     for quantum simulation of materials; please cite
         "P. Giannozzi et al., J. Phys.:Condens. Matter 21 395502 (2009);
          URL http://www.quantum-espresso.org", 
     in publications or presentations arising from this work. More details at
     http://www.quantum-espresso.org/quote.php

     Parallel version (MPI), running on     2 processors
     R & G space division:  proc/pool =    2

     Current dimensions of program PWSCF are:
     Max number of different atomic species (ntypx) = 10
     Max number of k-points (npk) =  40000
     Max angular momentum in pseudopotentials (lmaxx) =  3
     Reading input from CoLaO_U600_a-5.in
               file Co.pbe-nd-rrkjus.UPF: wavefunction(s)  4S 3D renormalized
               file O.pbe-rrkjus.UPF: wavefunction(s)  2S renormalized
               file O.pbe-rrkjus.UPF: wavefunction(s)  2S renormalized

     Subspace diagonalization in iterative solution of the eigenvalue problem:
     a serial algorithm will be used


     Parallelization info
     --------------------
     sticks:   dense  smooth     PW     G-vecs:    dense   smooth      PW
     Min        1112     444    131                34808     8786    1448
     Max        1113     445    132                34809     8787    1449
     Sum        2225     889    263                69617    17573    2897


     Title: 
     GGA + U, U = 6.000, alpha = -0.050                                         


     bravais-lattice index     =            5
     lattice parameter (alat)  =      10.3292  a.u.
     unit-cell volume          =     793.0599 (a.u.)^3
     number of atoms/cell      =           10
     number of atomic types    =            4
     number of electrons       =        76.00
     number of Kohn-Sham states=           46
     kinetic-energy cutoff     =      30.0000  Ry
     charge density cutoff     =     300.0000  Ry
     convergence threshold     =      1.0E-08
     mixing beta               =       0.2000
     number of iterations used =            8  plain     mixing
     Exchange-correlation      =  SLA  PW   PBE  PBE ( 1 4 3 4 0)
     EXX-fraction              =        0.00

     celldm(1)=  10.329242  celldm(2)=   0.000000  celldm(3)=   0.000000
     celldm(4)=   0.488100  celldm(5)=   0.000000  celldm(6)=   0.000000

     crystal axes: (cart. coord. in units of alat)
               a(1) = (   0.505915  -0.292090   0.811624 )  
               a(2) = (   0.000000   0.584180   0.811624 )  
               a(3) = (  -0.505915  -0.292090   0.811624 )  

     reciprocal axes: (cart. coord. in units 2 pi/alat)
               b(1) = (  0.988308 -0.570600  0.410699 )  
               b(2) = (  0.000000  1.141200  0.410699 )  
               b(3) = ( -0.988308 -0.570600  0.410699 )  


     PseudoPot. # 1 for Co read from file:
     /home/mcurnan/dft-course/Project1/example_LaCoO3/Co.pbe-nd-rrkjus.UPF
     MD5 check sum: 3e47a84addf5e975e0edeaeee2a73f59
     Pseudo is Ultrasoft + core correction, Zval =  9.0
     Generated by new atomic code, or converted to UPF format
     Using radial grid of  961 points,  6 beta functions with: 
                l(1) =   0
                l(2) =   0
                l(3) =   1
                l(4) =   1
                l(5) =   2
                l(6) =   2
     Q(r) pseudized with 0 coefficients 


     PseudoPot. # 2 for La read from file:
     /home/mcurnan/dft-course/Project1/example_LaCoO3/La.pbe-nsp-van.UPF
     MD5 check sum: b2f11743f52dde65f77d1302becd7929
     Pseudo is Ultrasoft + core correction, Zval = 11.0
     Generated by new atomic code, or converted to UPF format
     Using radial grid of  907 points,  6 beta functions with: 
                l(1) =   0
                l(2) =   0
                l(3) =   1
                l(4) =   1
                l(5) =   2
                l(6) =   2
     Q(r) pseudized with  6 coefficients,  rinner =    1.200   1.200   1.200
                                                       1.200   1.200

     PseudoPot. # 3 for O  read from file:
     /home/mcurnan/dft-course/Project1/example_LaCoO3/O.pbe-rrkjus.UPF
     MD5 check sum: 390ba29e75625707450f3bd3f0eb6be9
     Pseudo is Ultrasoft, Zval =  6.0
     Generated by new atomic code, or converted to UPF format
     Using radial grid of 1269 points,  4 beta functions with: 
                l(1) =   0
                l(2) =   0
                l(3) =   1
                l(4) =   1
     Q(r) pseudized with 0 coefficients 


     PseudoPot. # 4 for O  read from file:
     /home/mcurnan/dft-course/Project1/example_LaCoO3/O.pbe-rrkjus.UPF
     MD5 check sum: 390ba29e75625707450f3bd3f0eb6be9
     Pseudo is Ultrasoft, Zval =  6.0
     Generated by new atomic code, or converted to UPF format
     Using radial grid of 1269 points,  4 beta functions with: 
                l(1) =   0
                l(2) =   0
                l(3) =   1
                l(4) =   1
     Q(r) pseudized with 0 coefficients 


     atomic species   valence    mass     pseudopotential
        Co1            9.00     1.00000     Co( 1.00)
        La1           11.00     1.00000     La( 1.00)
        O1             6.00     1.00000     O ( 1.00)
        O2             6.00     1.00000     O ( 1.00)
 -----
     simplified LDA+U calculation, Hubbard_lmax = 2
     atomic species  L   Hubbard U  Hubbard alpha
        Co1          2    6.000000    0.000000
        La1          2    0.000000    0.000000
        O1           1    0.000000   -0.050000
        O2           1    0.000000    0.000000
 -----

     No symmetry found


                                    s                        frac. trans.

      isym =  1     identity                                     

 cryst.   s( 1) = (     1          0          0      )
                  (     0          1          0      )
                  (     0          0          1      )

 cart.    s( 1) = (  1.0000000  0.0000000  0.0000000 )
                  (  0.0000000  1.0000000  0.0000000 )
                  (  0.0000000  0.0000000  1.0000000 )


     point group C_1 (1)    
     there are  1 classes
     the character table:

       E    
A      1.00

     the symmetry operations in each class:
     E        1

   Cartesian axes

     site n.     atom                  positions (alat units)
         1           Co1 tau(   1) = (   0.2228050  -0.1992639   1.0141240  )
         2           Co1 tau(   2) = (  -0.2831100   0.0928263   1.4199360  )
         3           La1 tau(   3) = (  -0.2831100   0.0928263   0.8112181  )
         4           La1 tau(   4) = (   0.2228050   0.3849164   1.2170300  )
         5           O1  tau(   5) = (   0.0000000   0.0000000   0.0000000  )
         6           O2  tau(   6) = (   0.0008601   0.1861491   1.6232478  )
         7           O2  tau(   7) = (   0.1616398   0.0923297   0.8116239  )
         8           O2  tau(   8) = (  -0.0603051  -0.1064377   1.2166242  )
         9           O2  tau(   9) = (   0.4447499  -0.0004966   1.2166242  )
        10           O2  tau(  10) = (  -0.2219449   0.3854130   1.2166242  )

   Crystallographic axes

     site n.     atom                  positions (cryst. coord.)
         1           Co1 tau(   1) = (  0.7504000  0.1891000  0.3100000  )
         2           Co1 tau(   2) = (  0.2504000  0.6891000  0.8100000  )
         3           La1 tau(   3) = (  0.0004000  0.4391000  0.5600000  )
         4           La1 tau(   4) = (  0.5004000  0.9391000  0.0600000  )
         5           O1  tau(   5) = (  0.0000000  0.0000000  0.0000000  )
         6           O2  tau(   6) = (  0.5613000  0.8791000  0.5596000  )
         7           O2  tau(   7) = (  0.4404000  0.4387000  0.1209000  )
         8           O2  tau(   8) = (  0.5008000  0.3782000  0.6200000  )
         9           O2  tau(   9) = (  0.9395000  0.4991000  0.0604000  )
        10           O2  tau(  10) = (  0.0604000  0.9395000  0.4991000  )

     number of k points=    36  gaussian smearing, width (Ry)=  0.0300
                       cart. coord. in units 2pi/alat
        k(    1) = (   0.0000000   0.0000000   0.0000000), wk =   0.0312500
        k(    2) = (  -0.2470771  -0.1426500   0.1026748), wk =   0.0625000
        k(    3) = (   0.4941541   0.2853000  -0.2053496), wk =   0.0312500
        k(    4) = (  -0.2470771   0.1426500   0.2053496), wk =   0.0625000
        k(    5) = (   0.4941541   0.5706001  -0.1026748), wk =   0.0625000
        k(    6) = (   0.2470771   0.4279500   0.0000000), wk =   0.0625000
        k(    7) = (   0.4941541  -0.2853000  -0.4106993), wk =   0.0312500
        k(    8) = (   0.0000000   0.0000000   0.3080244), wk =   0.0625000
        k(    9) = (   0.7412312   0.4279500   0.0000000), wk =   0.0625000
        k(   10) = (   0.4941541   0.2853000   0.1026748), wk =   0.0625000
        k(   11) = (   0.7412312  -0.4279500  -0.3080244), wk =   0.0625000
        k(   12) = (   0.4941541  -0.5706001  -0.2053496), wk =   0.0625000
        k(   13) = (   0.0000000   0.0000000  -0.6160489), wk =   0.0312500
        k(   14) = (  -0.2470771   0.1426500  -0.1026748), wk =   0.0625000
        k(   15) = (   0.0000000   0.2853000   0.1026748), wk =   0.0625000
        k(   16) = (   0.4941541  -0.2853000   0.2053496), wk =   0.0312500
        k(   17) = (   0.0000000  -0.5706001  -0.2053496), wk =   0.0312500
        k(   18) = (  -0.2470771  -0.1426500  -0.2053496), wk =   0.0625000
        k(   19) = (   0.0000000  -0.2853000   0.2053496), wk =   0.0625000
        k(   20) = (   0.4941541  -0.5706001   0.1026748), wk =   0.0625000
        k(   21) = (  -0.7412312   0.1426500  -0.1026748), wk =   0.0625000
        k(   22) = (   0.2470771  -0.7132501  -0.1026748), wk =   0.0625000
        k(   23) = (  -0.7412312  -0.1426500   0.1026748), wk =   0.0625000
        k(   24) = (   0.2470771   0.7132501   0.1026748), wk =   0.0625000
        k(   25) = (   0.2470771  -0.4279500   0.0000000), wk =   0.0625000
        k(   26) = (  -0.4941541   0.0000000   0.0000000), wk =   0.0625000
        k(   27) = (   0.4941541   0.2853000   0.4106993), wk =   0.0312500
        k(   28) = (   0.0000000   0.5706001  -0.4106993), wk =   0.0312500
        k(   29) = (   0.7412312  -0.4279500   0.0000000), wk =   0.0625000
        k(   30) = (   0.0000000  -0.8559001   0.0000000), wk =   0.0625000
        k(   31) = (   0.4941541  -0.2853000  -0.1026748), wk =   0.0625000
        k(   32) = (   0.0000000  -0.5706001   0.1026748), wk =   0.0625000
        k(   33) = (   0.7412312   0.4279500   0.3080244), wk =   0.0625000
        k(   34) = (   0.0000000   0.8559001  -0.3080244), wk =   0.0625000
        k(   35) = (   0.2470771   0.7132501  -0.2053496), wk =   0.0625000
        k(   36) = (  -0.7412312  -0.1426500  -0.2053496), wk =   0.0625000

                       cryst. coord.
        k(    1) = (   0.0000000   0.0000000   0.0000000), wk =   0.0312500
        k(    2) = (   0.0000000   0.0000000   0.2500000), wk =   0.0625000
        k(    3) = (   0.0000000   0.0000000  -0.5000000), wk =   0.0312500
        k(    4) = (   0.0000000   0.2500000   0.2500000), wk =   0.0625000
        k(    5) = (   0.0000000   0.2500000  -0.5000000), wk =   0.0625000
        k(    6) = (   0.0000000   0.2500000  -0.2500000), wk =   0.0625000
        k(    7) = (   0.0000000  -0.5000000  -0.5000000), wk =   0.0312500
        k(    8) = (   0.2500000   0.2500000   0.2500000), wk =   0.0625000
        k(    9) = (   0.2500000   0.2500000  -0.5000000), wk =   0.0625000
        k(   10) = (   0.2500000   0.2500000  -0.2500000), wk =   0.0625000
        k(   11) = (   0.2500000  -0.5000000  -0.5000000), wk =   0.0625000
        k(   12) = (   0.2500000  -0.5000000  -0.2500000), wk =   0.0625000
        k(   13) = (  -0.5000000  -0.5000000  -0.5000000), wk =   0.0312500
        k(   14) = (  -0.2500000   0.0000000   0.0000000), wk =   0.0625000
        k(   15) = (   0.0000000   0.2500000   0.0000000), wk =   0.0625000
        k(   16) = (   0.5000000   0.0000000   0.0000000), wk =   0.0312500
        k(   17) = (   0.0000000  -0.5000000   0.0000000), wk =   0.0312500
        k(   18) = (  -0.2500000  -0.2500000   0.0000000), wk =   0.0625000
        k(   19) = (   0.2500000   0.0000000   0.2500000), wk =   0.0625000
        k(   20) = (   0.5000000  -0.2500000   0.0000000), wk =   0.0625000
        k(   21) = (  -0.5000000   0.0000000   0.2500000), wk =   0.0625000
        k(   22) = (   0.2500000  -0.5000000   0.0000000), wk =   0.0625000
        k(   23) = (  -0.2500000   0.0000000   0.5000000), wk =   0.0625000
        k(   24) = (   0.0000000   0.5000000  -0.2500000), wk =   0.0625000
        k(   25) = (   0.2500000  -0.2500000   0.0000000), wk =   0.0625000
        k(   26) = (  -0.2500000   0.0000000   0.2500000), wk =   0.0625000
        k(   27) = (   0.5000000   0.5000000   0.0000000), wk =   0.0312500
        k(   28) = (  -0.5000000   0.0000000  -0.5000000), wk =   0.0312500
        k(   29) = (   0.5000000  -0.2500000  -0.2500000), wk =   0.0625000
        k(   30) = (   0.2500000  -0.5000000   0.2500000), wk =   0.0625000
        k(   31) = (   0.2500000  -0.2500000  -0.2500000), wk =   0.0625000
        k(   32) = (   0.2500000  -0.2500000   0.2500000), wk =   0.0625000
        k(   33) = (   0.5000000   0.5000000  -0.2500000), wk =   0.0625000
        k(   34) = (  -0.5000000   0.2500000  -0.5000000), wk =   0.0625000
        k(   35) = (  -0.2500000   0.2500000  -0.5000000), wk =   0.0625000
        k(   36) = (  -0.5000000  -0.2500000   0.2500000), wk =   0.0625000

     Dense  grid:    69617 G-vectors     FFT dimensions: (  60,  60,  60)

     Smooth grid:    17573 G-vectors     FFT dimensions: (  40,  40,  40)

     Largest allocated arrays     est. size (Mb)     dimensions
        Kohn-Sham Wavefunctions         0.79 Mb     (   1119,   46)
        Atomic wavefunctions            1.06 Mb     (   1119,   62)
        NL pseudopotentials             2.05 Mb     (   1119,  120)
        Each V/rho on FFT grid          1.65 Mb     ( 108000)
        Each G-vector array             0.27 Mb     (  34808)
        G-vector shells                 0.04 Mb     (   4682)
     Largest temporary arrays     est. size (Mb)     dimensions
        Auxiliary wavefunctions         3.14 Mb     (   1119,  184)
        Each subspace H/S matrix        0.52 Mb     ( 184, 184)
        Each <psi_i|beta_j> matrix      0.08 Mb     (    120,   46)
        Arrays for rho mixing          13.18 Mb     ( 108000,   8)

     Check: negative/imaginary core charge=   -0.000028    0.000000

     The initial density is read from file :
     /home/mcurnan/dft-course/Project1/example_LaCoO3/600/O/alpha/CoLaO_U600.save/charge-density.dat

 --- in v_hubbard ---
Hubbard energy    0.5542
 -------
     Number of +U iterations with fixed ns =  0
     Starting occupations:
 --- enter write_ns ---
 LDA+U parameters:
U( 1)     =  6.00000000
alpha( 1) =  0.00000000
U( 2)     =  0.00000000
alpha( 2) =  0.00000000
U( 3)     =  0.00000000
alpha( 3) = -0.05000000
U( 4)     =  0.00000000
alpha( 4) =  0.00000000
atom    1   Tr[ns(na)] =   8.02205
    eigenvalues: 
  0.596  0.596  0.938  0.941  0.941
    eigenvectors:
  0.000  0.000  1.000  0.000  0.000
  0.057  0.598  0.000  0.178  0.167
  0.598  0.057  0.000  0.167  0.178
  0.210  0.135  0.000  0.095  0.560
  0.135  0.210  0.000  0.560  0.095
    occupations:
  0.938  0.000  0.000  0.000  0.000
  0.000  0.715  0.000 -0.060  0.152
  0.000  0.000  0.715  0.152  0.060
  0.000 -0.060  0.152  0.822  0.000
  0.000  0.152  0.060  0.000  0.822
atom    2   Tr[ns(na)] =   8.02142
    eigenvalues: 
  0.595  0.595  0.938  0.941  0.941
    eigenvectors:
  0.000  0.000  1.000  0.000  0.000
  0.332  0.323  0.000  0.023  0.322
  0.323  0.332  0.000  0.322  0.023
  0.288  0.057  0.000  0.647  0.008
  0.057  0.288  0.000  0.008  0.647
    occupations:
  0.938  0.000  0.000  0.000  0.000
  0.000  0.715  0.000  0.060  0.153
  0.000  0.000  0.715  0.153 -0.060
  0.000  0.060  0.153  0.822  0.000
  0.000  0.153 -0.060  0.000  0.822
atom    3   Tr[ns(na)] =   3.80282
    eigenvalues: 
  0.355  0.355  0.384  0.403  0.403
    eigenvectors:
  0.000  0.000  1.000  0.000  0.000
  0.065  0.856  0.000  0.058  0.021
  0.856  0.065  0.000  0.021  0.058
  0.073  0.006  0.000  0.250  0.670
  0.006  0.073  0.000  0.670  0.250
    occupations:
  0.384  0.000  0.000  0.000  0.000
  0.000  0.359  0.000  0.000  0.013
  0.000  0.000  0.359  0.013  0.000
  0.000  0.000  0.013  0.399  0.000
  0.000  0.013  0.000  0.000  0.399
atom    4   Tr[ns(na)] =   3.80282
    eigenvalues: 
  0.355  0.355  0.384  0.403  0.403
    eigenvectors:
  0.000  0.000  1.000  0.000  0.000
  0.729  0.192  0.000  0.048  0.032
  0.192  0.729  0.000  0.032  0.048
  0.017  0.062  0.000  0.359  0.562
  0.062  0.017  0.000  0.562  0.359
    occupations:
  0.384  0.000  0.000  0.000  0.000
  0.000  0.359  0.000  0.000  0.013
  0.000  0.000  0.359  0.013  0.000
  0.000  0.000  0.013  0.399  0.000
  0.000  0.013  0.000  0.000  0.399
atom    5   Tr[ns(na)] =   5.43357
    eigenvalues: 
  0.846  0.929  0.941
    eigenvectors:
  0.340  0.000  0.660
  0.496  0.250  0.255
  0.164  0.750  0.086
    occupations:
  0.909 -0.039  0.022
 -0.039  0.891  0.022
  0.022  0.022  0.917
atom    6   Tr[ns(na)] =   5.43358
    eigenvalues: 
  0.846  0.929  0.941
    eigenvectors:
  0.340  0.000  0.660
  0.494  0.250  0.256
  0.166  0.750  0.085
    occupations:
  0.909  0.039  0.022
  0.039  0.891 -0.022
  0.022 -0.022  0.917
atom    7   Tr[ns(na)] =   5.43358
    eigenvalues: 
  0.846  0.929  0.941
    eigenvectors:
  0.340  0.000  0.660
  0.000  1.000  0.000
  0.660  0.000  0.340
    occupations:
  0.909  0.000 -0.045
  0.000  0.929  0.000
 -0.045  0.000  0.879
atom    8   Tr[ns(na)] =   5.43357
    eigenvalues: 
  0.846  0.929  0.941
    eigenvectors:
  0.340  0.000  0.660
  0.496  0.250  0.255
  0.164  0.750  0.086
    occupations:
  0.909 -0.039  0.022
 -0.039  0.891  0.022
  0.022  0.022  0.917
atom    9   Tr[ns(na)] =   5.43358
    eigenvalues: 
  0.846  0.929  0.941
    eigenvectors:
  0.340  0.000  0.660
  0.494  0.250  0.256
  0.166  0.750  0.085
    occupations:
  0.909  0.039  0.022
  0.039  0.891 -0.022
  0.022 -0.022  0.917
atom   10   Tr[ns(na)] =   5.43358
    eigenvalues: 
  0.846  0.929  0.941
    eigenvectors:
  0.340  0.000  0.660
  0.000  1.000  0.000
  0.660  0.000  0.340
    occupations:
  0.909  0.000 -0.045
  0.000  0.929  0.000
 -0.045  0.000  0.879
N of occupied +U levels =  56.2505796
 --- exit write_ns ---
 LDA+U Projector read from file 
     Starting wfc from file

     total cpu time spent up to now is        7.8 secs

     per-process dynamical memory:    62.8 Mb

     Self-consistent Calculation

     iteration #  1     ecut=    30.00 Ry     beta=0.20
     Davidson diagonalization with overlap
     c_bands:  1 eigenvalues not converged
     c_bands:  1 eigenvalues not converged
     c_bands:  1 eigenvalues not converged
     c_bands:  1 eigenvalues not converged
     c_bands:  1 eigenvalues not converged
     c_bands:  1 eigenvalues not converged
     c_bands:  1 eigenvalues not converged
     c_bands:  1 eigenvalues not converged
     c_bands:  1 eigenvalues not converged
     c_bands:  1 eigenvalues not converged
     c_bands:  1 eigenvalues not converged
     c_bands:  1 eigenvalues not converged
     c_bands:  1 eigenvalues not converged
     c_bands:  1 eigenvalues not converged
     c_bands:  1 eigenvalues not converged
     ethr =  1.00E-10,  avg # of iterations = 17.4
 --- enter write_ns ---
 LDA+U parameters:
U( 1)     =  6.00000000
alpha( 1) =  0.00000000
U( 2)     =  0.00000000
alpha( 2) =  0.00000000
U( 3)     =  0.00000000
alpha( 3) = -0.05000000
U( 4)     =  0.00000000
alpha( 4) =  0.00000000
atom    1   Tr[ns(na)] =   8.25105
    eigenvalues: 
  0.571  0.572  0.993  0.993  0.996
    eigenvectors:
  0.000  0.000  0.001  0.000  0.999
  0.556  0.098  0.158  0.187  0.000
  0.098  0.556  0.187  0.159  0.000
  0.168  0.178  0.568  0.086  0.000
  0.178  0.168  0.086  0.568  0.000
    occupations:
  0.996  0.000  0.000  0.000  0.000
  0.000  0.717  0.000 -0.073  0.187
  0.000  0.000  0.718  0.187  0.073
  0.000 -0.073  0.187  0.847  0.000
  0.000  0.187  0.073  0.000  0.847
atom    2   Tr[ns(na)] =   8.24133
    eigenvalues: 
  0.568  0.569  0.993  0.993  0.996
    eigenvectors:
  0.000  0.000  0.001  0.000  0.999
  0.416  0.238  0.330  0.016  0.000
  0.239  0.416  0.016  0.330  0.000
  0.026  0.319  0.015  0.639  0.000
  0.320  0.026  0.639  0.015  0.000
    occupations:
  0.996  0.000  0.000  0.000  0.000
  0.000  0.716  0.000  0.073  0.188
  0.000  0.000  0.716  0.188 -0.073
  0.000  0.073  0.188  0.847  0.000
  0.000  0.188 -0.073  0.000  0.846
atom    3   Tr[ns(na)] =   3.78934
    eigenvalues: 
  0.356  0.356  0.381  0.401  0.401
    eigenvectors:
  0.000  0.000  1.000  0.000  0.000
  0.228  0.687  0.000  0.065  0.020
  0.687  0.228  0.000  0.020  0.065
  0.063  0.022  0.000  0.226  0.689
  0.022  0.063  0.000  0.689  0.226
    occupations:
  0.381  0.000  0.000  0.000  0.000
  0.000  0.360  0.000  0.000  0.013
  0.000  0.000  0.360  0.013  0.000
  0.000  0.000  0.013  0.397  0.000
  0.000  0.013  0.000  0.000  0.397
atom    4   Tr[ns(na)] =   3.78937
    eigenvalues: 
  0.356  0.356  0.381  0.401  0.401
    eigenvectors:
  0.000  0.000  1.000  0.000  0.000
  0.686  0.231  0.000  0.062  0.021
  0.232  0.685  0.000  0.020  0.064
  0.021  0.062  0.000  0.233  0.684
  0.061  0.022  0.000  0.685  0.232
    occupations:
  0.381  0.000  0.000  0.000  0.000
  0.000  0.360  0.000  0.000  0.012
  0.000  0.000  0.360  0.013  0.000
  0.000  0.000  0.013  0.397  0.000
  0.000  0.012  0.000  0.000  0.397
atom    5   Tr[ns(na)] =   5.38494
    eigenvalues: 
  0.824  0.924  0.945
    eigenvectors:
  0.341  0.000  0.659
  0.495  0.250  0.255
  0.164  0.750  0.086
    occupations:
  0.904 -0.050  0.029
 -0.050  0.880  0.025
  0.029  0.025  0.909
atom    6   Tr[ns(na)] =   5.37551
    eigenvalues: 
  0.822  0.922  0.944
    eigenvectors:
  0.341  0.000  0.659
  0.494  0.249  0.257
  0.165  0.751  0.085
    occupations:
  0.902  0.050  0.029
  0.050  0.878 -0.025
  0.029 -0.025  0.907
atom    7   Tr[ns(na)] =   5.37551
    eigenvalues: 
  0.822  0.922  0.944
    eigenvectors:
  0.341  0.000  0.659
  0.000  1.000  0.000
  0.659  0.000  0.341
    occupations:
  0.902  0.000 -0.058
  0.000  0.922  0.000
 -0.058  0.000  0.863
atom    8   Tr[ns(na)] =   5.37549
    eigenvalues: 
  0.821  0.922  0.944
    eigenvectors:
  0.341  0.000  0.659
  0.494  0.250  0.256
  0.164  0.750  0.086
    occupations:
  0.902 -0.050  0.029
 -0.050  0.878  0.025
  0.029  0.025  0.907
atom    9   Tr[ns(na)] =   5.37555
    eigenvalues: 
  0.822  0.922  0.944
    eigenvectors:
  0.341  0.000  0.659
  0.494  0.250  0.257
  0.165  0.750  0.085
    occupations:
  0.902  0.050  0.029
  0.050  0.878 -0.025
  0.029 -0.025  0.907
atom   10   Tr[ns(na)] =   5.37555
    eigenvalues: 
  0.822  0.922  0.944
    eigenvectors:
  0.341  0.000  0.659
  0.000  1.000  0.000
  0.659  0.000  0.341
    occupations:
  0.902  0.000 -0.058
  0.000  0.922  0.000
 -0.058  0.000  0.863
N of occupied +U levels =  56.3336317
 --- exit write_ns ---
 --- in v_hubbard ---
Hubbard energy    0.5303
 -------

     total cpu time spent up to now is      118.9 secs

     total energy              =    -537.84482526 Ry
     Harris-Foulkes estimate   =    -537.85924948 Ry
     estimated scf accuracy    <       0.06583771 Ry

     iteration #  2     ecut=    30.00 Ry     beta=0.20
     Davidson diagonalization with overlap
     ethr =  8.66E-05,  avg # of iterations =  1.9
 --- enter write_ns ---
 LDA+U parameters:
U( 1)     =  6.00000000
alpha( 1) =  0.00000000
U( 2)     =  0.00000000
alpha( 2) =  0.00000000
U( 3)     =  0.00000000
alpha( 3) = -0.05000000
U( 4)     =  0.00000000
alpha( 4) =  0.00000000
atom    1   Tr[ns(na)] =   8.02249
    eigenvalues: 
  0.512  0.513  0.994  0.994  0.997
    eigenvectors:
  0.000  0.000  0.000  0.000  1.000
  0.557  0.099  0.233  0.112  0.000
  0.099  0.557  0.112  0.233  0.000
  0.170  0.174  0.456  0.199  0.000
  0.174  0.170  0.199  0.456  0.000
    occupations:
  0.997  0.000  0.000  0.000  0.000
  0.000  0.679  0.000 -0.085  0.212
  0.000  0.000  0.679  0.212  0.085
  0.000 -0.085  0.212  0.828  0.000
  0.000  0.212  0.085  0.000  0.828
atom    2   Tr[ns(na)] =   8.02328
    eigenvalues: 
  0.512  0.512  0.995  0.995  0.998
    eigenvectors:
  0.000  0.000  0.000  0.000  1.000
  0.417  0.239  0.284  0.061  0.000
  0.239  0.417  0.061  0.284  0.000
  0.024  0.320  0.002  0.653  0.000
  0.320  0.024  0.653  0.002  0.000
    occupations:
  0.998  0.000  0.000  0.000  0.000
  0.000  0.678  0.000  0.085  0.213
  0.000  0.000  0.678  0.213 -0.085
  0.000  0.085  0.213  0.829  0.000
  0.000  0.213 -0.085  0.000  0.828
atom    3   Tr[ns(na)] =   3.78482
    eigenvalues: 
  0.355  0.355  0.381  0.401  0.401
    eigenvectors:
  0.000  0.000  1.000  0.000  0.000
  0.218  0.701  0.000  0.073  0.008
  0.701  0.218  0.000  0.008  0.073
  0.061  0.020  0.000  0.095  0.825
  0.020  0.061  0.000  0.825  0.095
    occupations:
  0.381  0.000  0.000  0.000  0.000
  0.000  0.359  0.000  0.000  0.013
  0.000  0.000  0.359  0.013  0.000
  0.000  0.000  0.013  0.397  0.000
  0.000  0.013  0.000  0.000  0.397
atom    4   Tr[ns(na)] =   3.78484
    eigenvalues: 
  0.355  0.355  0.380  0.401  0.401
    eigenvectors:
  0.000  0.000  1.000  0.000  0.000
  0.665  0.255  0.000  0.065  0.015
  0.255  0.664  0.000  0.015  0.065
  0.023  0.057  0.000  0.179  0.740
  0.057  0.023  0.000  0.741  0.179
    occupations:
  0.380  0.000  0.000  0.000  0.000
  0.000  0.359  0.000  0.000  0.013
  0.000  0.000  0.359  0.013  0.000
  0.000  0.000  0.013  0.397  0.000
  0.000  0.013  0.000  0.000  0.397
atom    5   Tr[ns(na)] =   5.45062
    eigenvalues: 
  0.843  0.932  0.950
    eigenvectors:
  0.335  0.000  0.665
  0.497  0.252  0.251
  0.167  0.748  0.084
    occupations:
  0.914 -0.044  0.025
 -0.044  0.892  0.023
  0.025  0.023  0.919
atom    6   Tr[ns(na)] =   5.44797
    eigenvalues: 
  0.842  0.932  0.949
    eigenvectors:
  0.335  0.000  0.665
  0.500  0.248  0.252
  0.165  0.752  0.083
    occupations:
  0.914  0.044  0.025
  0.044  0.892 -0.023
  0.025 -0.023  0.919
atom    7   Tr[ns(na)] =   5.44796
    eigenvalues: 
  0.842  0.932  0.949
    eigenvectors:
  0.335  0.000  0.665
  0.000  1.000  0.000
  0.665  0.000  0.335
    occupations:
  0.914  0.000 -0.051
  0.000  0.932  0.000
 -0.051  0.000  0.878
atom    8   Tr[ns(na)] =   5.44835
    eigenvalues: 
  0.843  0.932  0.950
    eigenvectors:
  0.335  0.000  0.665
  0.497  0.252  0.251
  0.167  0.748  0.084
    occupations:
  0.914 -0.044  0.025
 -0.044  0.892  0.023
  0.025  0.023  0.919
atom    9   Tr[ns(na)] =   5.44788
    eigenvalues: 
  0.842  0.932  0.949
    eigenvectors:
  0.336  0.000  0.664
  0.499  0.248  0.252
  0.165  0.752  0.083
    occupations:
  0.914  0.044  0.025
  0.044  0.892 -0.023
  0.025 -0.023  0.919
atom   10   Tr[ns(na)] =   5.44788
    eigenvalues: 
  0.842  0.932  0.949
    eigenvectors:
  0.336  0.000  0.664
  0.000  1.000  0.000
  0.664  0.000  0.336
    occupations:
  0.914  0.000 -0.051
  0.000  0.932  0.000
 -0.051  0.000  0.878
N of occupied +U levels =  56.3060953
 --- exit write_ns ---
 --- in v_hubbard ---
Hubbard energy    0.5202
 -------

     total cpu time spent up to now is      151.2 secs

     total energy              =    -537.85854682 Ry
     Harris-Foulkes estimate   =    -537.85833499 Ry
     estimated scf accuracy    <       0.04073470 Ry

     iteration #  3     ecut=    30.00 Ry     beta=0.20
     Davidson diagonalization with overlap
     ethr =  5.36E-05,  avg # of iterations =  1.0
 --- enter write_ns ---
 LDA+U parameters:
U( 1)     =  6.00000000
alpha( 1) =  0.00000000
U( 2)     =  0.00000000
alpha( 2) =  0.00000000
U( 3)     =  0.00000000
alpha( 3) = -0.05000000
U( 4)     =  0.00000000
alpha( 4) =  0.00000000
atom    1   Tr[ns(na)] =   8.06826
    eigenvalues: 
  0.524  0.524  0.994  0.994  0.998
    eigenvectors:
  0.000  0.000  0.000  0.000  1.000
  0.557  0.099  0.221  0.124  0.000
  0.099  0.557  0.124  0.221  0.000
  0.170  0.174  0.478  0.178  0.000
  0.174  0.170  0.178  0.478  0.000
    occupations:
  0.998  0.000  0.000  0.000  0.000
  0.000  0.686  0.000 -0.083  0.208
  0.000  0.000  0.686  0.208  0.083
  0.000 -0.083  0.208  0.832  0.000
  0.000  0.208  0.083  0.000  0.832
atom    2   Tr[ns(na)] =   8.06537
    eigenvalues: 
  0.522  0.523  0.995  0.995  0.998
    eigenvectors:
  0.000  0.000  0.000  0.000  1.000
  0.417  0.239  0.293  0.052  0.000
  0.239  0.417  0.052  0.293  0.000
  0.024  0.320  0.000  0.655  0.000
  0.320  0.024  0.655  0.000  0.000
    occupations:
  0.998  0.000  0.000  0.000  0.000
  0.000  0.685  0.000  0.083  0.209
  0.000  0.000  0.685  0.209 -0.083
  0.000  0.083  0.209  0.832  0.000
  0.000  0.209 -0.083  0.000  0.832
atom    3   Tr[ns(na)] =   3.78593
    eigenvalues: 
  0.355  0.355  0.381  0.401  0.401
    eigenvectors:
  0.000  0.000  1.000  0.000  0.000
  0.228  0.692  0.000  0.068  0.012
  0.692  0.228  0.000  0.012  0.068
  0.060  0.020  0.000  0.142  0.778
  0.020  0.060  0.000  0.778  0.142
    occupations:
  0.381  0.000  0.000  0.000  0.000
  0.000  0.359  0.000  0.000  0.012
  0.000  0.000  0.359  0.012  0.000
  0.000  0.000  0.012  0.397  0.000
  0.000  0.012  0.000  0.000  0.397
atom    4   Tr[ns(na)] =   3.78594
    eigenvalues: 
  0.355  0.355  0.380  0.401  0.401
    eigenvectors:
  0.000  0.000  1.000  0.000  0.000
  0.688  0.232  0.000  0.062  0.017
  0.232  0.688  0.000  0.017  0.063
  0.021  0.059  0.000  0.206  0.714
  0.059  0.021  0.000  0.714  0.206
    occupations:
  0.380  0.000  0.000  0.000  0.000
  0.000  0.359  0.000  0.000  0.012
  0.000  0.000  0.359  0.012  0.000
  0.000  0.000  0.012  0.397  0.000
  0.000  0.012  0.000  0.000  0.397
atom    5   Tr[ns(na)] =   5.43681
    eigenvalues: 
  0.839  0.931  0.949
    eigenvectors:
  0.337  0.000  0.663
  0.497  0.251  0.252
  0.167  0.749  0.085
    occupations:
  0.912 -0.045  0.026
 -0.045  0.890  0.024
  0.026  0.024  0.917
atom    6   Tr[ns(na)] =   5.43386
    eigenvalues: 
  0.838  0.930  0.949
    eigenvectors:
  0.337  0.000  0.663
  0.498  0.248  0.253
  0.165  0.752  0.083
    occupations:
  0.911  0.045  0.026
  0.045  0.889 -0.024
  0.026 -0.024  0.917
atom    7   Tr[ns(na)] =   5.43386
    eigenvalues: 
  0.838  0.930  0.949
    eigenvectors:
  0.337  0.000  0.663
  0.000  1.000  0.000
  0.663  0.000  0.337
    occupations:
  0.911  0.000 -0.052
  0.000  0.930  0.000
 -0.052  0.000  0.875
atom    8   Tr[ns(na)] =   5.43420
    eigenvalues: 
  0.838  0.930  0.949
    eigenvectors:
  0.337  0.000  0.663
  0.497  0.251  0.252
  0.167  0.749  0.085
    occupations:
  0.911 -0.045  0.026
 -0.045  0.889  0.024
  0.026  0.024  0.917
atom    9   Tr[ns(na)] =   5.43380
    eigenvalues: 
  0.838  0.930  0.949
    eigenvectors:
  0.337  0.000  0.663
  0.498  0.249  0.253
  0.165  0.751  0.083
    occupations:
  0.911  0.045  0.026
  0.045  0.889 -0.024
  0.026 -0.024  0.917
atom   10   Tr[ns(na)] =   5.43380
    eigenvalues: 
  0.838  0.930  0.949
    eigenvectors:
  0.337  0.000  0.663
  0.000  1.000  0.000
  0.663  0.000  0.337
    occupations:
  0.911  0.000 -0.052
  0.000  0.930  0.000
 -0.052  0.000  0.875
N of occupied +U levels =  56.3118369
 --- exit write_ns ---
 --- in v_hubbard ---
Hubbard energy    0.4251
 -------

     total cpu time spent up to now is      183.2 secs

     total energy              =    -537.86609603 Ry
     Harris-Foulkes estimate   =    -537.85935237 Ry
     estimated scf accuracy    <       0.01879774 Ry

     iteration #  4     ecut=    30.00 Ry     beta=0.20
     Davidson diagonalization with overlap
     ethr =  2.47E-05,  avg # of iterations =  2.0
 --- enter write_ns ---
 LDA+U parameters:
U( 1)     =  6.00000000
alpha( 1) =  0.00000000
U( 2)     =  0.00000000
alpha( 2) =  0.00000000
U( 3)     =  0.00000000
alpha( 3) = -0.05000000
U( 4)     =  0.00000000
alpha( 4) =  0.00000000
atom    1   Tr[ns(na)] =   8.07781
    eigenvalues: 
  0.523  0.524  0.997  0.997  0.999
    eigenvectors:
  0.000  0.000  0.000  0.000  1.000
  0.560  0.098  0.224  0.118  0.000
  0.098  0.560  0.118  0.224  0.000
  0.170  0.172  0.475  0.184  0.000
  0.172  0.170  0.184  0.475  0.000
    occupations:
  0.999  0.000  0.000  0.000  0.000
  0.000  0.685  0.000 -0.085  0.208
  0.000  0.000  0.685  0.208  0.085
  0.000 -0.085  0.208  0.835  0.000
  0.000  0.208  0.085  0.000  0.835
atom    2   Tr[ns(na)] =   8.08012
    eigenvalues: 
  0.523  0.524  0.997  0.997  0.999
    eigenvectors:
  0.000  0.000  0.000  0.000  1.000
  0.417  0.241  0.290  0.051  0.000
  0.242  0.417  0.051  0.290  0.000
  0.024  0.318  0.000  0.658  0.000
  0.318  0.024  0.658  0.000  0.000
    occupations:
  0.999  0.000  0.000  0.000  0.000
  0.000  0.685  0.000  0.084  0.208
  0.000  0.000  0.685  0.208 -0.084
  0.000  0.084  0.208  0.835  0.000
  0.000  0.208 -0.084  0.000  0.835
atom    3   Tr[ns(na)] =   3.79825
    eigenvalues: 
  0.357  0.357  0.381  0.402  0.402
    eigenvectors:
  0.000  0.000  1.000  0.000  0.000
  0.233  0.690  0.000  0.056  0.022
  0.690  0.233  0.000  0.022  0.056
  0.057  0.020  0.000  0.267  0.656
  0.020  0.057  0.000  0.656  0.267
    occupations:
  0.381  0.000  0.000  0.000  0.000
  0.000  0.360  0.000  0.000  0.012
  0.000  0.000  0.360  0.012  0.000
  0.000  0.000  0.012  0.398  0.000
  0.000  0.012  0.000  0.000  0.398
atom    4   Tr[ns(na)] =   3.79824
    eigenvalues: 
  0.357  0.357  0.381  0.402  0.402
    eigenvectors:
  0.000  0.000  1.000  0.000  0.000
  0.694  0.229  0.000  0.054  0.023
  0.229  0.693  0.000  0.022  0.055
  0.020  0.058  0.000  0.276  0.646
  0.057  0.020  0.000  0.647  0.276
    occupations:
  0.381  0.000  0.000  0.000  0.000
  0.000  0.360  0.000  0.000  0.012
  0.000  0.000  0.360  0.012  0.000
  0.000  0.000  0.012  0.398  0.000
  0.000  0.012  0.000  0.000  0.398
atom    5   Tr[ns(na)] =   5.42715
    eigenvalues: 
  0.836  0.930  0.948
    eigenvectors:
  0.337  0.000  0.663
  0.496  0.252  0.252
  0.167  0.748  0.085
    occupations:
  0.910 -0.046  0.026
 -0.046  0.888  0.024
  0.026  0.024  0.916
atom    6   Tr[ns(na)] =   5.42352
    eigenvalues: 
  0.835  0.929  0.947
    eigenvectors:
  0.337  0.000  0.663
  0.499  0.248  0.254
  0.164  0.752  0.083
    occupations:
  0.910  0.046  0.026
  0.046  0.887 -0.024
  0.026 -0.024  0.915
atom    7   Tr[ns(na)] =   5.42352
    eigenvalues: 
  0.835  0.929  0.947
    eigenvectors:
  0.337  0.000  0.663
  0.000  1.000  0.000
  0.663  0.000  0.337
    occupations:
  0.910  0.000 -0.053
  0.000  0.929  0.000
 -0.053  0.000  0.873
atom    8   Tr[ns(na)] =   5.42338
    eigenvalues: 
  0.835  0.929  0.947
    eigenvectors:
  0.337  0.000  0.663
  0.496  0.252  0.252
  0.167  0.748  0.085
    occupations:
  0.910 -0.046  0.027
 -0.046  0.887  0.024
  0.027  0.024  0.915
atom    9   Tr[ns(na)] =   5.42361
    eigenvalues: 
  0.835  0.929  0.947
    eigenvectors:
  0.337  0.000  0.663
  0.498  0.248  0.254
  0.164  0.752  0.083
    occupations:
  0.910  0.046  0.026
  0.046  0.887 -0.024
  0.026 -0.024  0.915
atom   10   Tr[ns(na)] =   5.42361
    eigenvalues: 
  0.835  0.929  0.947
    eigenvectors:
  0.337  0.000  0.663
  0.000  1.000  0.000
  0.663  0.000  0.337
    occupations:
  0.910  0.000 -0.053
  0.000  0.929  0.000
 -0.053  0.000  0.873
N of occupied +U levels =  56.2992062
 --- exit write_ns ---
 --- in v_hubbard ---
Hubbard energy    0.4236
 -------

     total cpu time spent up to now is      212.8 secs

     total energy              =    -537.86773295 Ry
     Harris-Foulkes estimate   =    -537.86784879 Ry
     estimated scf accuracy    <       0.00196665 Ry

     iteration #  5     ecut=    30.00 Ry     beta=0.20
     Davidson diagonalization with overlap
     ethr =  2.59E-06,  avg # of iterations =  1.8
 --- enter write_ns ---
 LDA+U parameters:
U( 1)     =  6.00000000
alpha( 1) =  0.00000000
U( 2)     =  0.00000000
alpha( 2) =  0.00000000
U( 3)     =  0.00000000
alpha( 3) = -0.05000000
U( 4)     =  0.00000000
alpha( 4) =  0.00000000
atom    1   Tr[ns(na)] =   8.06235
    eigenvalues: 
  0.519  0.520  0.997  0.997  0.999
    eigenvectors:
  0.000  0.000  0.000  0.000  1.000
  0.560  0.098  0.221  0.121  0.000
  0.098  0.560  0.121  0.221  0.000
  0.170  0.171  0.481  0.177  0.000
  0.171  0.170  0.177  0.481  0.000
    occupations:
  0.999  0.000  0.000  0.000  0.000
  0.000  0.682  0.000 -0.086  0.210
  0.000  0.000  0.683  0.209  0.086
  0.000 -0.086  0.209  0.834  0.000
  0.000  0.210  0.086  0.000  0.834
atom    2   Tr[ns(na)] =   8.05749
    eigenvalues: 
  0.517  0.518  0.997  0.997  0.999
    eigenvectors:
  0.000  0.000  0.000  0.000  1.000
  0.417  0.242  0.289  0.053  0.000
  0.242  0.417  0.053  0.289  0.000
  0.024  0.318  0.000  0.658  0.000
  0.318  0.024  0.658  0.000  0.000
    occupations:
  0.999  0.000  0.000  0.000  0.000
  0.000  0.681  0.000  0.085  0.211
  0.000  0.000  0.681  0.210 -0.086
  0.000  0.085  0.210  0.833  0.000
  0.000  0.211 -0.086  0.000  0.833
atom    3   Tr[ns(na)] =   3.79751
    eigenvalues: 
  0.357  0.357  0.381  0.402  0.402
    eigenvectors:
  0.000  0.000  1.000  0.000  0.000
  0.231  0.691  0.000  0.059  0.019
  0.691  0.231  0.000  0.019  0.059
  0.058  0.020  0.000  0.230  0.692
  0.020  0.058  0.000  0.692  0.230
    occupations:
  0.381  0.000  0.000  0.000  0.000
  0.000  0.360  0.000  0.000  0.012
  0.000  0.000  0.360  0.012  0.000
  0.000  0.000  0.012  0.398  0.000
  0.000  0.012  0.000  0.000  0.398
atom    4   Tr[ns(na)] =   3.79751
    eigenvalues: 
  0.357  0.357  0.381  0.402  0.402
    eigenvectors:
  0.000  0.000  1.000  0.000  0.000
  0.693  0.229  0.000  0.057  0.020
  0.229  0.693  0.000  0.020  0.058
  0.020  0.058  0.000  0.244  0.678
  0.057  0.020  0.000  0.678  0.244
    occupations:
  0.381  0.000  0.000  0.000  0.000
  0.000  0.360  0.000  0.000  0.012
  0.000  0.000  0.360  0.012  0.000
  0.000  0.000  0.012  0.398  0.000
  0.000  0.012  0.000  0.000  0.398
atom    5   Tr[ns(na)] =   5.43275
    eigenvalues: 
  0.838  0.930  0.948
    eigenvectors:
  0.337  0.000  0.663
  0.497  0.251  0.252
  0.166  0.749  0.085
    occupations:
  0.911 -0.045  0.026
 -0.045  0.889  0.024
  0.026  0.024  0.916
atom    6   Tr[ns(na)] =   5.42946
    eigenvalues: 
  0.837  0.930  0.948
    eigenvectors:
  0.337  0.000  0.663
  0.498  0.249  0.253
  0.165  0.751  0.083
    occupations:
  0.911  0.045  0.026
  0.045  0.888 -0.024
  0.026 -0.024  0.916
atom    7   Tr[ns(na)] =   5.42947
    eigenvalues: 
  0.837  0.930  0.948
    eigenvectors:
  0.337  0.000  0.663
  0.000  1.000  0.000
  0.663  0.000  0.337
    occupations:
  0.911  0.000 -0.052
  0.000  0.930  0.000
 -0.052  0.000  0.874
atom    8   Tr[ns(na)] =   5.42953
    eigenvalues: 
  0.837  0.930  0.948
    eigenvectors:
  0.337  0.000  0.663
  0.497  0.251  0.252
  0.166  0.749  0.085
    occupations:
  0.911 -0.045  0.026
 -0.045  0.888  0.024
  0.026  0.024  0.916
atom    9   Tr[ns(na)] =   5.42948
    eigenvalues: 
  0.837  0.930  0.948
    eigenvectors:
  0.337  0.000  0.663
  0.498  0.249  0.253
  0.165  0.751  0.083
    occupations:
  0.911  0.045  0.026
  0.045  0.888 -0.024
  0.026 -0.024  0.916
atom   10   Tr[ns(na)] =   5.42948
    eigenvalues: 
  0.837  0.930  0.948
    eigenvectors:
  0.337  0.000  0.663
  0.000  1.000  0.000
  0.663  0.000  0.337
    occupations:
  0.911  0.000 -0.052
  0.000  0.930  0.000
 -0.052  0.000  0.874
N of occupied +U levels =  56.2950155
 --- exit write_ns ---
 --- in v_hubbard ---
Hubbard energy    0.4233
 -------

     total cpu time spent up to now is      243.9 secs

     total energy              =    -537.86794427 Ry
     Harris-Foulkes estimate   =    -537.86788965 Ry
     estimated scf accuracy    <       0.00036504 Ry

     iteration #  6     ecut=    30.00 Ry     beta=0.20
     Davidson diagonalization with overlap
     ethr =  4.80E-07,  avg # of iterations =  1.8
 --- enter write_ns ---
 LDA+U parameters:
U( 1)     =  6.00000000
alpha( 1) =  0.00000000
U( 2)     =  0.00000000
alpha( 2) =  0.00000000
U( 3)     =  0.00000000
alpha( 3) = -0.05000000
U( 4)     =  0.00000000
alpha( 4) =  0.00000000
atom    1   Tr[ns(na)] =   8.04788
    eigenvalues: 
  0.515  0.516  0.997  0.997  0.999
    eigenvectors:
  0.000  0.000  0.000  0.000  1.000
  0.561  0.097  0.218  0.123  0.000
  0.097  0.561  0.124  0.218  0.000
  0.171  0.171  0.486  0.172  0.000
  0.171  0.170  0.172  0.486  0.000
    occupations:
  0.999  0.000  0.000  0.000  0.000
  0.000  0.680  0.000 -0.087  0.211
  0.000  0.000  0.680  0.211  0.086
  0.000 -0.087  0.211  0.832  0.000
  0.000  0.211  0.086  0.000  0.832
atom    2   Tr[ns(na)] =   8.04953
    eigenvalues: 
  0.515  0.516  0.997  0.997  0.999
    eigenvectors:
  0.000  0.000  0.000  0.000  1.000
  0.417  0.242  0.289  0.052  0.000
  0.242  0.417  0.052  0.289  0.000
  0.023  0.318  0.000  0.658  0.000
  0.318  0.023  0.658  0.000  0.000
    occupations:
  0.999  0.000  0.000  0.000  0.000
  0.000  0.680  0.000  0.086  0.212
  0.000  0.000  0.680  0.211 -0.086
  0.000  0.086  0.211  0.833  0.000
  0.000  0.212 -0.086  0.000  0.832
atom    3   Tr[ns(na)] =   3.79420
    eigenvalues: 
  0.356  0.356  0.381  0.402  0.402
    eigenvectors:
  0.000  0.000  1.000  0.000  0.000
  0.228  0.693  0.000  0.065  0.014
  0.693  0.228  0.000  0.014  0.065
  0.059  0.020  0.000  0.170  0.751
  0.020  0.059  0.000  0.751  0.170
    occupations:
  0.381  0.000  0.000  0.000  0.000
  0.000  0.360  0.000  0.000  0.012
  0.000  0.000  0.360  0.012  0.000
  0.000  0.000  0.012  0.398  0.000
  0.000  0.012  0.000  0.000  0.398
atom    4   Tr[ns(na)] =   3.79421
    eigenvalues: 
  0.356  0.356  0.381  0.402  0.402
    eigenvectors:
  0.000  0.000  1.000  0.000  0.000
  0.668  0.253  0.000  0.060  0.018
  0.253  0.668  0.000  0.018  0.061
  0.022  0.056  0.000  0.217  0.705
  0.056  0.022  0.000  0.705  0.216
    occupations:
  0.381  0.000  0.000  0.000  0.000
  0.000  0.360  0.000  0.000  0.012
  0.000  0.000  0.360  0.012  0.000
  0.000  0.000  0.012  0.398  0.000
  0.000  0.012  0.000  0.000  0.398
atom    5   Tr[ns(na)] =   5.43664
    eigenvalues: 
  0.839  0.931  0.948
    eigenvectors:
  0.336  0.000  0.664
  0.496  0.252  0.252
  0.167  0.748  0.085
    occupations:
  0.912 -0.045  0.026
 -0.045  0.890  0.024
  0.026  0.024  0.917
atom    6   Tr[ns(na)] =   5.43362
    eigenvalues: 
  0.838  0.930  0.948
    eigenvectors:
  0.337  0.000  0.663
  0.499  0.248  0.253
  0.164  0.752  0.083
    occupations:
  0.911  0.045  0.026
  0.045  0.889 -0.024
  0.026 -0.024  0.917
atom    7   Tr[ns(na)] =   5.43361
    eigenvalues: 
  0.838  0.930  0.948
    eigenvectors:
  0.337  0.000  0.663
  0.000  1.000  0.000
  0.663  0.000  0.337
    occupations:
  0.911  0.000 -0.052
  0.000  0.930  0.000
 -0.052  0.000  0.875
atom    8   Tr[ns(na)] =   5.43388
    eigenvalues: 
  0.838  0.930  0.948
    eigenvectors:
  0.337  0.000  0.663
  0.496  0.252  0.252
  0.167  0.748  0.085
    occupations:
  0.911 -0.045  0.026
 -0.045  0.889  0.024
  0.026  0.024  0.917
atom    9   Tr[ns(na)] =   5.43358
    eigenvalues: 
  0.838  0.930  0.948
    eigenvectors:
  0.337  0.000  0.663
  0.499  0.248  0.253
  0.165  0.752  0.083
    occupations:
  0.911  0.045  0.026
  0.045  0.889 -0.024
  0.026 -0.024  0.917
atom   10   Tr[ns(na)] =   5.43357
    eigenvalues: 
  0.838  0.930  0.948
    eigenvectors:
  0.337  0.000  0.663
  0.000  1.000  0.000
  0.663  0.000  0.337
    occupations:
  0.911  0.000 -0.052
  0.000  0.930  0.000
 -0.052  0.000  0.875
N of occupied +U levels =  56.2907197
 --- exit write_ns ---
 --- in v_hubbard ---
Hubbard energy    0.4241
 -------

     total cpu time spent up to now is      276.6 secs

     total energy              =    -537.86808204 Ry
     Harris-Foulkes estimate   =    -537.86799420 Ry
     estimated scf accuracy    <       0.00011801 Ry

     iteration #  7     ecut=    30.00 Ry     beta=0.20
     Davidson diagonalization with overlap
     ethr =  1.55E-07,  avg # of iterations =  2.0
 --- enter write_ns ---
 LDA+U parameters:
U( 1)     =  6.00000000
alpha( 1) =  0.00000000
U( 2)     =  0.00000000
alpha( 2) =  0.00000000
U( 3)     =  0.00000000
alpha( 3) = -0.05000000
U( 4)     =  0.00000000
alpha( 4) =  0.00000000
atom    1   Tr[ns(na)] =   8.04655
    eigenvalues: 
  0.515  0.516  0.997  0.997  0.999
    eigenvectors:
  0.000  0.000  0.000  0.000  1.000
  0.561  0.097  0.221  0.120  0.000
  0.097  0.561  0.120  0.221  0.000
  0.171  0.171  0.482  0.176  0.000
  0.171  0.171  0.176  0.482  0.000
    occupations:
  0.999  0.000  0.000  0.000  0.000
  0.000  0.680  0.000 -0.087  0.211
  0.000  0.000  0.680  0.211  0.087
  0.000 -0.087  0.211  0.832  0.000
  0.000  0.211  0.087  0.000  0.832
atom    2   Tr[ns(na)] =   8.04357
    eigenvalues: 
  0.514  0.514  0.997  0.997  0.999
    eigenvectors:
  0.000  0.000  0.000  0.000  1.000
  0.416  0.242  0.287  0.054  0.000
  0.242  0.416  0.054  0.287  0.000
  0.023  0.319  0.000  0.658  0.000
  0.319  0.023  0.658  0.000  0.000
    occupations:
  0.999  0.000  0.000  0.000  0.000
  0.000  0.679  0.000  0.087  0.212
  0.000  0.000  0.679  0.212 -0.087
  0.000  0.087  0.212  0.832  0.000
  0.000  0.212 -0.087  0.000  0.832
atom    3   Tr[ns(na)] =   3.78972
    eigenvalues: 
  0.356  0.356  0.381  0.401  0.401
    eigenvectors:
  0.000  0.000  1.000  0.000  0.000
  0.229  0.692  0.000  0.061  0.018
  0.692  0.229  0.000  0.018  0.061
  0.059  0.020  0.000  0.217  0.704
  0.020  0.059  0.000  0.704  0.217
    occupations:
  0.381  0.000  0.000  0.000  0.000
  0.000  0.359  0.000  0.000  0.012
  0.000  0.000  0.359  0.012  0.000
  0.000  0.000  0.012  0.398  0.000
  0.000  0.012  0.000  0.000  0.398
atom    4   Tr[ns(na)] =   3.78974
    eigenvalues: 
  0.356  0.356  0.381  0.401  0.401
    eigenvectors:
  0.000  0.000  1.000  0.000  0.000
  0.699  0.222  0.000  0.060  0.019
  0.222  0.699  0.000  0.019  0.060
  0.020  0.059  0.000  0.231  0.690
  0.059  0.020  0.000  0.690  0.231
    occupations:
  0.381  0.000  0.000  0.000  0.000
  0.000  0.359  0.000  0.000  0.012
  0.000  0.000  0.359  0.012  0.000
  0.000  0.000  0.012  0.398  0.000
  0.000  0.012  0.000  0.000  0.398
atom    5   Tr[ns(na)] =   5.43861
    eigenvalues: 
  0.839  0.931  0.949
    eigenvectors:
  0.337  0.000  0.663
  0.497  0.251  0.252
  0.167  0.749  0.085
    occupations:
  0.912 -0.045  0.026
 -0.045  0.890  0.024
  0.026  0.024  0.917
atom    6   Tr[ns(na)] =   5.43560
    eigenvalues: 
  0.839  0.931  0.949
    eigenvectors:
  0.337  0.000  0.663
  0.498  0.248  0.253
  0.165  0.752  0.083
    occupations:
  0.912  0.045  0.026
  0.045  0.889 -0.024
  0.026 -0.024  0.917
atom    7   Tr[ns(na)] =   5.43559
    eigenvalues: 
  0.839  0.931  0.949
    eigenvectors:
  0.337  0.000  0.663
  0.000  1.000  0.000
  0.663  0.000  0.337
    occupations:
  0.912  0.000 -0.052
  0.000  0.931  0.000
 -0.052  0.000  0.876
atom    8   Tr[ns(na)] =   5.43593
    eigenvalues: 
  0.839  0.931  0.949
    eigenvectors:
  0.337  0.000  0.663
  0.497  0.251  0.252
  0.167  0.749  0.085
    occupations:
  0.912 -0.045  0.026
 -0.045  0.889  0.024
  0.026  0.024  0.917
atom    9   Tr[ns(na)] =   5.43555
    eigenvalues: 
  0.839  0.931  0.949
    eigenvectors:
  0.337  0.000  0.663
  0.498  0.249  0.253
  0.165  0.751  0.083
    occupations:
  0.911  0.045  0.026
  0.045  0.889 -0.024
  0.026 -0.024  0.917
atom   10   Tr[ns(na)] =   5.43555
    eigenvalues: 
  0.839  0.931  0.949
    eigenvectors:
  0.337  0.000  0.663
  0.000  1.000  0.000
  0.663  0.000  0.337
    occupations:
  0.911  0.000 -0.052
  0.000  0.931  0.000
 -0.052  0.000  0.876
N of occupied +U levels =  56.2864084
 --- exit write_ns ---
 --- in v_hubbard ---
Hubbard energy    0.4256
 -------

     total cpu time spent up to now is      311.6 secs

     total energy              =    -537.86816351 Ry
     Harris-Foulkes estimate   =    -537.86810006 Ry
     estimated scf accuracy    <       0.00009032 Ry

     iteration #  8     ecut=    30.00 Ry     beta=0.20
     Davidson diagonalization with overlap
     ethr =  1.19E-07,  avg # of iterations =  1.2
 --- enter write_ns ---
 LDA+U parameters:
U( 1)     =  6.00000000
alpha( 1) =  0.00000000
U( 2)     =  0.00000000
alpha( 2) =  0.00000000
U( 3)     =  0.00000000
alpha( 3) = -0.05000000
U( 4)     =  0.00000000
alpha( 4) =  0.00000000
atom    1   Tr[ns(na)] =   8.04772
    eigenvalues: 
  0.515  0.516  0.997  0.997  0.999
    eigenvectors:
  0.000  0.000  0.000  0.000  1.000
  0.561  0.098  0.223  0.119  0.000
  0.098  0.561  0.119  0.223  0.000
  0.172  0.170  0.480  0.178  0.000
  0.170  0.172  0.178  0.480  0.000
    occupations:
  0.999  0.000  0.000  0.000  0.000
  0.000  0.680  0.000 -0.087  0.211
  0.000  0.000  0.680  0.211  0.087
  0.000 -0.087  0.211  0.832  0.000
  0.000  0.211  0.087  0.000  0.832
atom    2   Tr[ns(na)] =   8.04469
    eigenvalues: 
  0.514  0.515  0.997  0.997  0.999
    eigenvectors:
  0.000  0.000  0.000  0.000  1.000
  0.416  0.243  0.286  0.056  0.000
  0.243  0.416  0.056  0.286  0.000
  0.023  0.319  0.000  0.658  0.000
  0.319  0.023  0.658  0.000  0.000
    occupations:
  0.999  0.000  0.000  0.000  0.000
  0.000  0.679  0.000  0.087  0.212
  0.000  0.000  0.679  0.212 -0.087
  0.000  0.087  0.212  0.832  0.000
  0.000  0.212 -0.087  0.000  0.832
atom    3   Tr[ns(na)] =   3.79228
    eigenvalues: 
  0.356  0.356  0.381  0.401  0.401
    eigenvectors:
  0.000  0.000  1.000  0.000  0.000
  0.230  0.691  0.000  0.059  0.020
  0.691  0.230  0.000  0.020  0.059
  0.059  0.020  0.000  0.241  0.680
  0.020  0.059  0.000  0.680  0.241
    occupations:
  0.381  0.000  0.000  0.000  0.000
  0.000  0.360  0.000  0.000  0.012
  0.000  0.000  0.360  0.012  0.000
  0.000  0.000  0.012  0.398  0.000
  0.000  0.012  0.000  0.000  0.398
atom    4   Tr[ns(na)] =   3.79230
    eigenvalues: 
  0.356  0.356  0.381  0.401  0.402
    eigenvectors:
  0.000  0.000  1.000  0.000  0.000
  0.700  0.221  0.000  0.058  0.020
  0.221  0.700  0.000  0.020  0.059
  0.019  0.059  0.000  0.241  0.680
  0.059  0.020  0.000  0.680  0.241
    occupations:
  0.381  0.000  0.000  0.000  0.000
  0.000  0.360  0.000  0.000  0.012
  0.000  0.000  0.360  0.012  0.000
  0.000  0.000  0.012  0.398  0.000
  0.000  0.012  0.000  0.000  0.398
atom    5   Tr[ns(na)] =   5.43770
    eigenvalues: 
  0.839  0.931  0.949
    eigenvectors:
  0.337  0.000  0.663
  0.497  0.251  0.252
  0.167  0.749  0.085
    occupations:
  0.912 -0.045  0.026
 -0.045  0.890  0.024
  0.026  0.024  0.917
atom    6   Tr[ns(na)] =   5.43466
    eigenvalues: 
  0.838  0.931  0.948
    eigenvectors:
  0.337  0.000  0.663
  0.498  0.248  0.253
  0.165  0.752  0.083
    occupations:
  0.911  0.045  0.026
  0.045  0.889 -0.024
  0.026 -0.024  0.917
atom    7   Tr[ns(na)] =   5.43466
    eigenvalues: 
  0.838  0.931  0.948
    eigenvectors:
  0.337  0.000  0.663
  0.000  1.000  0.000
  0.663  0.000  0.337
    occupations:
  0.911  0.000 -0.052
  0.000  0.931  0.000
 -0.052  0.000  0.875
atom    8   Tr[ns(na)] =   5.43489
    eigenvalues: 
  0.838  0.931  0.948
    eigenvectors:
  0.337  0.000  0.663
  0.497  0.251  0.252
  0.167  0.749  0.085
    occupations:
  0.911 -0.045  0.026
 -0.045  0.889  0.024
  0.026  0.024  0.917
atom    9   Tr[ns(na)] =   5.43462
    eigenvalues: 
  0.838  0.931  0.948
    eigenvectors:
  0.337  0.000  0.663
  0.498  0.249  0.253
  0.165  0.751  0.083
    occupations:
  0.911  0.045  0.026
  0.045  0.889 -0.024
  0.026 -0.024  0.917
atom   10   Tr[ns(na)] =   5.43462
    eigenvalues: 
  0.838  0.931  0.948
    eigenvectors:
  0.337  0.000  0.663
  0.000  1.000  0.000
  0.663  0.000  0.337
    occupations:
  0.911  0.000 -0.052
  0.000  0.931  0.000
 -0.052  0.000  0.875
N of occupied +U levels =  56.2881513
 --- exit write_ns ---
 --- in v_hubbard ---
Hubbard energy    0.4262
 -------

     total cpu time spent up to now is      343.0 secs

     total energy              =    -537.86820914 Ry
     Harris-Foulkes estimate   =    -537.86816940 Ry
     estimated scf accuracy    <       0.00003103 Ry

     iteration #  9     ecut=    30.00 Ry     beta=0.20
     Davidson diagonalization with overlap
     ethr =  4.08E-08,  avg # of iterations =  1.8
 --- enter write_ns ---
 LDA+U parameters:
U( 1)     =  6.00000000
alpha( 1) =  0.00000000
U( 2)     =  0.00000000
alpha( 2) =  0.00000000
U( 3)     =  0.00000000
alpha( 3) = -0.05000000
U( 4)     =  0.00000000
alpha( 4) =  0.00000000
atom    1   Tr[ns(na)] =   8.04995
    eigenvalues: 
  0.516  0.516  0.997  0.997  0.999
    eigenvectors:
  0.000  0.000  0.000  0.000  1.000
  0.561  0.097  0.223  0.119  0.000
  0.097  0.561  0.119  0.223  0.000
  0.172  0.170  0.480  0.178  0.000
  0.170  0.172  0.178  0.480  0.000
    occupations:
  0.999  0.000  0.000  0.000  0.000
  0.000  0.680  0.000 -0.088  0.211
  0.000  0.000  0.681  0.211  0.087
  0.000 -0.088  0.211  0.832  0.000
  0.000  0.211  0.087  0.000  0.833
atom    2   Tr[ns(na)] =   8.04693
    eigenvalues: 
  0.514  0.515  0.997  0.997  0.999
    eigenvectors:
  0.000  0.000  0.000  0.000  1.000
  0.416  0.242  0.285  0.057  0.000
  0.243  0.416  0.057  0.285  0.000
  0.023  0.319  0.001  0.658  0.000
  0.319  0.023  0.658  0.001  0.000
    occupations:
  0.999  0.000  0.000  0.000  0.000
  0.000  0.680  0.000  0.087  0.212
  0.000  0.000  0.680  0.211 -0.087
  0.000  0.087  0.211  0.832  0.000
  0.000  0.212 -0.087  0.000  0.832
atom    3   Tr[ns(na)] =   3.79233
    eigenvalues: 
  0.356  0.356  0.381  0.401  0.401
    eigenvectors:
  0.000  0.000  1.000  0.000  0.000
  0.230  0.691  0.000  0.061  0.019
  0.691  0.230  0.000  0.019  0.061
  0.059  0.020  0.000  0.223  0.698
  0.020  0.059  0.000  0.698  0.223
    occupations:
  0.381  0.000  0.000  0.000  0.000
  0.000  0.360  0.000  0.000  0.012
  0.000  0.000  0.360  0.012  0.000
  0.000  0.000  0.012  0.398  0.000
  0.000  0.012  0.000  0.000  0.398
atom    4   Tr[ns(na)] =   3.79235
    eigenvalues: 
  0.356  0.356  0.381  0.401  0.402
    eigenvectors:
  0.000  0.000  1.000  0.000  0.000
  0.691  0.230  0.000  0.059  0.020
  0.231  0.691  0.000  0.020  0.059
  0.020  0.059  0.000  0.236  0.685
  0.058  0.020  0.000  0.685  0.236
    occupations:
  0.381  0.000  0.000  0.000  0.000
  0.000  0.360  0.000  0.000  0.012
  0.000  0.000  0.360  0.012  0.000
  0.000  0.000  0.012  0.398  0.000
  0.000  0.012  0.000  0.000  0.398
atom    5   Tr[ns(na)] =   5.43697
    eigenvalues: 
  0.839  0.931  0.949
    eigenvectors:
  0.337  0.000  0.663
  0.497  0.251  0.252
  0.167  0.749  0.085
    occupations:
  0.912 -0.045  0.026
 -0.045  0.890  0.024
  0.026  0.024  0.917
atom    6   Tr[ns(na)] =   5.43386
    eigenvalues: 
  0.838  0.930  0.948
    eigenvectors:
  0.337  0.000  0.663
  0.498  0.248  0.253
  0.165  0.752  0.083
    occupations:
  0.911  0.045  0.026
  0.045  0.889 -0.024
  0.026 -0.024  0.917
atom    7   Tr[ns(na)] =   5.43386
    eigenvalues: 
  0.838  0.930  0.948
    eigenvectors:
  0.337  0.000  0.663
  0.000  1.000  0.000
  0.663  0.000  0.337
    occupations:
  0.911  0.000 -0.052
  0.000  0.930  0.000
 -0.052  0.000  0.875
atom    8   Tr[ns(na)] =   5.43410
    eigenvalues: 
  0.838  0.930  0.948
    eigenvectors:
  0.337  0.000  0.663
  0.497  0.251  0.252
  0.167  0.749  0.085
    occupations:
  0.911 -0.045  0.026
 -0.045  0.889  0.024
  0.026  0.024  0.917
atom    9   Tr[ns(na)] =   5.43384
    eigenvalues: 
  0.838  0.930  0.948
    eigenvectors:
  0.337  0.000  0.663
  0.498  0.249  0.254
  0.165  0.751  0.083
    occupations:
  0.911  0.045  0.026
  0.045  0.889 -0.024
  0.026 -0.024  0.917
atom   10   Tr[ns(na)] =   5.43384
    eigenvalues: 
  0.838  0.930  0.948
    eigenvectors:
  0.337  0.000  0.663
  0.000  1.000  0.000
  0.663  0.000  0.337
    occupations:
  0.911  0.000 -0.052
  0.000  0.930  0.000
 -0.052  0.000  0.875
N of occupied +U levels =  56.2880350
 --- exit write_ns ---
 --- in v_hubbard ---
Hubbard energy    0.4265
 -------

     total cpu time spent up to now is      375.7 secs

     total energy              =    -537.86824471 Ry
     Harris-Foulkes estimate   =    -537.86821235 Ry
     estimated scf accuracy    <       0.00000287 Ry

     iteration # 10     ecut=    30.00 Ry     beta=0.20
     Davidson diagonalization with overlap
     ethr =  3.78E-09,  avg # of iterations =  2.5
 --- enter write_ns ---
 LDA+U parameters:
U( 1)     =  6.00000000
alpha( 1) =  0.00000000
U( 2)     =  0.00000000
alpha( 2) =  0.00000000
U( 3)     =  0.00000000
alpha( 3) = -0.05000000
U( 4)     =  0.00000000
alpha( 4) =  0.00000000
atom    1   Tr[ns(na)] =   8.05097
    eigenvalues: 
  0.516  0.517  0.997  0.997  0.999
    eigenvectors:
  0.000  0.000  0.000  0.000  1.000
  0.561  0.097  0.224  0.118  0.000
  0.097  0.561  0.118  0.224  0.000
  0.172  0.170  0.479  0.179  0.000
  0.170  0.172  0.179  0.480  0.000
    occupations:
  0.999  0.000  0.000  0.000  0.000
  0.000  0.680  0.000 -0.088  0.210
  0.000  0.000  0.681  0.210  0.088
  0.000 -0.088  0.210  0.833  0.000
  0.000  0.210  0.088  0.000  0.833
atom    2   Tr[ns(na)] =   8.04763
    eigenvalues: 
  0.515  0.515  0.997  0.997  0.999
    eigenvectors:
  0.000  0.000  0.000  0.000  1.000
  0.416  0.242  0.285  0.057  0.000
  0.242  0.416  0.057  0.285  0.000
  0.023  0.319  0.001  0.658  0.000
  0.319  0.023  0.658  0.000  0.000
    occupations:
  0.999  0.000  0.000  0.000  0.000
  0.000  0.680  0.000  0.087  0.211
  0.000  0.000  0.680  0.211 -0.088
  0.000  0.087  0.211  0.833  0.000
  0.000  0.211 -0.088  0.000  0.832
atom    3   Tr[ns(na)] =   3.79268
    eigenvalues: 
  0.356  0.356  0.381  0.402  0.402
    eigenvectors:
  0.000  0.000  1.000  0.000  0.000
  0.229  0.692  0.000  0.061  0.018
  0.692  0.229  0.000  0.018  0.061
  0.059  0.020  0.000  0.216  0.705
  0.020  0.059  0.000  0.705  0.216
    occupations:
  0.381  0.000  0.000  0.000  0.000
  0.000  0.360  0.000  0.000  0.012
  0.000  0.000  0.360  0.012  0.000
  0.000  0.000  0.012  0.398  0.000
  0.000  0.012  0.000  0.000  0.398
atom    4   Tr[ns(na)] =   3.79269
    eigenvalues: 
  0.356  0.356  0.381  0.402  0.402
    eigenvectors:
  0.000  0.000  1.000  0.000  0.000
  0.682  0.240  0.000  0.059  0.019
  0.240  0.681  0.000  0.019  0.060
  0.021  0.058  0.000  0.232  0.689
  0.057  0.021  0.000  0.689  0.232
    occupations:
  0.381  0.000  0.000  0.000  0.000
  0.000  0.360  0.000  0.000  0.012
  0.000  0.000  0.360  0.012  0.000
  0.000  0.000  0.012  0.398  0.000
  0.000  0.012  0.000  0.000  0.398
atom    5   Tr[ns(na)] =   5.43660
    eigenvalues: 
  0.839  0.931  0.948
    eigenvectors:
  0.337  0.000  0.663
  0.497  0.251  0.252
  0.167  0.749  0.085
    occupations:
  0.912 -0.045  0.026
 -0.045  0.890  0.024
  0.026  0.024  0.917
atom    6   Tr[ns(na)] =   5.43350
    eigenvalues: 
  0.838  0.930  0.948
    eigenvectors:
  0.337  0.000  0.663
  0.498  0.248  0.253
  0.165  0.752  0.083
    occupations:
  0.911  0.045  0.026
  0.045  0.889 -0.024
  0.026 -0.024  0.917
atom    7   Tr[ns(na)] =   5.43350
    eigenvalues: 
  0.838  0.930  0.948
    eigenvectors:
  0.337  0.000  0.663
  0.000  1.000  0.000
  0.663  0.000  0.337
    occupations:
  0.911  0.000 -0.052
  0.000  0.930  0.000
 -0.052  0.000  0.875
atom    8   Tr[ns(na)] =   5.43374
    eigenvalues: 
  0.838  0.930  0.948
    eigenvectors:
  0.337  0.000  0.663
  0.497  0.251  0.252
  0.167  0.749  0.085
    occupations:
  0.911 -0.045  0.026
 -0.045  0.889  0.024
  0.026  0.024  0.917
atom    9   Tr[ns(na)] =   5.43347
    eigenvalues: 
  0.838  0.930  0.948
    eigenvectors:
  0.337  0.000  0.663
  0.498  0.249  0.253
  0.165  0.751  0.083
    occupations:
  0.911  0.045  0.026
  0.045  0.889 -0.024
  0.026 -0.024  0.917
atom   10   Tr[ns(na)] =   5.43347
    eigenvalues: 
  0.838  0.930  0.948
    eigenvectors:
  0.337  0.000  0.663
  0.000  1.000  0.000
  0.663  0.000  0.337
    occupations:
  0.911  0.000 -0.052
  0.000  0.930  0.000
 -0.052  0.000  0.875
N of occupied +U levels =  56.2882447
 --- exit write_ns ---
 --- in v_hubbard ---
Hubbard energy    0.4267
 -------

     total cpu time spent up to now is      413.0 secs

     total energy              =    -537.86826304 Ry
     Harris-Foulkes estimate   =    -537.86824597 Ry
     estimated scf accuracy    <       0.00000507 Ry

     iteration # 11     ecut=    30.00 Ry     beta=0.20
     Davidson diagonalization with overlap
     ethr =  3.78E-09,  avg # of iterations =  1.0
 --- enter write_ns ---
 LDA+U parameters:
U( 1)     =  6.00000000
alpha( 1) =  0.00000000
U( 2)     =  0.00000000
alpha( 2) =  0.00000000
U( 3)     =  0.00000000
alpha( 3) = -0.05000000
U( 4)     =  0.00000000
alpha( 4) =  0.00000000
atom    1   Tr[ns(na)] =   8.04942
    eigenvalues: 
  0.516  0.516  0.997  0.997  0.999
    eigenvectors:
  0.000  0.000  0.000  0.000  1.000
  0.561  0.097  0.225  0.117  0.000
  0.097  0.561  0.117  0.225  0.000
  0.173  0.169  0.478  0.180  0.000
  0.169  0.172  0.180  0.478  0.000
    occupations:
  0.999  0.000  0.000  0.000  0.000
  0.000  0.680  0.000 -0.088  0.211
  0.000  0.000  0.680  0.210  0.088
  0.000 -0.088  0.210  0.832  0.000
  0.000  0.211  0.088  0.000  0.833
atom    2   Tr[ns(na)] =   8.04636
    eigenvalues: 
  0.514  0.515  0.997  0.997  0.999
    eigenvectors:
  0.000  0.000  0.000  0.000  1.000
  0.415  0.243  0.284  0.058  0.000
  0.243  0.416  0.058  0.284  0.000
  0.022  0.319  0.001  0.658  0.000
  0.319  0.022  0.658  0.001  0.000
    occupations:
  0.999  0.000  0.000  0.000  0.000
  0.000  0.680  0.000  0.088  0.211
  0.000  0.000  0.680  0.211 -0.088
  0.000  0.088  0.211  0.832  0.000
  0.000  0.211 -0.088  0.000  0.832
atom    3   Tr[ns(na)] =   3.79238
    eigenvalues: 
  0.356  0.356  0.381  0.401  0.402
    eigenvectors:
  0.000  0.000  1.000  0.000  0.000
  0.228  0.693  0.000  0.062  0.017
  0.693  0.228  0.000  0.017  0.062
  0.059  0.020  0.000  0.206  0.715
  0.020  0.059  0.000  0.715  0.206
    occupations:
  0.381  0.000  0.000  0.000  0.000
  0.000  0.360  0.000  0.000  0.012
  0.000  0.000  0.360  0.012  0.000
  0.000  0.000  0.012  0.398  0.000
  0.000  0.012  0.000  0.000  0.398
atom    4   Tr[ns(na)] =   3.79240
    eigenvalues: 
  0.356  0.356  0.381  0.402  0.402
    eigenvectors:
  0.000  0.000  1.000  0.000  0.000
  0.681  0.241  0.000  0.060  0.019
  0.241  0.680  0.000  0.019  0.060
  0.021  0.058  0.000  0.230  0.691
  0.057  0.021  0.000  0.692  0.230
    occupations:
  0.381  0.000  0.000  0.000  0.000
  0.000  0.360  0.000  0.000  0.012
  0.000  0.000  0.360  0.012  0.000
  0.000  0.000  0.012  0.398  0.000
  0.000  0.012  0.000  0.000  0.398
atom    5   Tr[ns(na)] =   5.43708
    eigenvalues: 
  0.839  0.931  0.949
    eigenvectors:
  0.337  0.000  0.663
  0.497  0.251  0.252
  0.167  0.749  0.085
    occupations:
  0.912 -0.045  0.026
 -0.045  0.890  0.024
  0.026  0.024  0.917
atom    6   Tr[ns(na)] =   5.43398
    eigenvalues: 
  0.838  0.931  0.948
    eigenvectors:
  0.337  0.000  0.663
  0.498  0.248  0.253
  0.165  0.752  0.083
    occupations:
  0.911  0.045  0.026
  0.045  0.889 -0.024
  0.026 -0.024  0.917
atom    7   Tr[ns(na)] =   5.43398
    eigenvalues: 
  0.838  0.931  0.948
    eigenvectors:
  0.337  0.000  0.663
  0.000  1.000  0.000
  0.663  0.000  0.337
    occupations:
  0.911  0.000 -0.052
  0.000  0.931  0.000
 -0.052  0.000  0.875
atom    8   Tr[ns(na)] =   5.43422
    eigenvalues: 
  0.838  0.931  0.948
    eigenvectors:
  0.337  0.000  0.663
  0.497  0.251  0.252
  0.167  0.749  0.085
    occupations:
  0.911 -0.045  0.026
 -0.045  0.889  0.024
  0.026  0.024  0.917
atom    9   Tr[ns(na)] =   5.43395
    eigenvalues: 
  0.838  0.931  0.948
    eigenvectors:
  0.337  0.000  0.663
  0.498  0.249  0.253
  0.165  0.751  0.083
    occupations:
  0.911  0.045  0.026
  0.045  0.889 -0.024
  0.026 -0.024  0.917
atom   10   Tr[ns(na)] =   5.43395
    eigenvalues: 
  0.838  0.931  0.948
    eigenvectors:
  0.337  0.000  0.663
  0.000  1.000  0.000
  0.663  0.000  0.337
    occupations:
  0.911  0.000 -0.052
  0.000  0.931  0.000
 -0.052  0.000  0.875
N of occupied +U levels =  56.2876965
 --- exit write_ns ---
 --- in v_hubbard ---
Hubbard energy    0.4266
 -------

     total cpu time spent up to now is      444.1 secs

     total energy              =    -537.86827840 Ry
     Harris-Foulkes estimate   =    -537.86826390 Ry
     estimated scf accuracy    <       0.00000050 Ry

     iteration # 12     ecut=    30.00 Ry     beta=0.20
     Davidson diagonalization with overlap
     ethr =  6.53E-10,  avg # of iterations =  1.4
 --- enter write_ns ---
 LDA+U parameters:
U( 1)     =  6.00000000
alpha( 1) =  0.00000000
U( 2)     =  0.00000000
alpha( 2) =  0.00000000
U( 3)     =  0.00000000
alpha( 3) = -0.05000000
U( 4)     =  0.00000000
alpha( 4) =  0.00000000
atom    1   Tr[ns(na)] =   8.05010
    eigenvalues: 
  0.516  0.516  0.997  0.997  0.999
    eigenvectors:
  0.000  0.000  0.000  0.000  1.000
  0.561  0.097  0.225  0.117  0.000
  0.097  0.561  0.117  0.225  0.000
  0.173  0.169  0.478  0.180  0.000
  0.169  0.173  0.180  0.478  0.000
    occupations:
  0.999  0.000  0.000  0.000  0.000
  0.000  0.680  0.000 -0.088  0.210
  0.000  0.000  0.681  0.210  0.088
  0.000 -0.088  0.210  0.832  0.000
  0.000  0.210  0.088  0.000  0.833
atom    2   Tr[ns(na)] =   8.04696
    eigenvalues: 
  0.514  0.515  0.997  0.997  0.999
    eigenvectors:
  0.000  0.000  0.000  0.000  1.000
  0.415  0.243  0.284  0.058  0.000
  0.243  0.415  0.058  0.284  0.000
  0.022  0.319  0.001  0.658  0.000
  0.319  0.022  0.658  0.001  0.000
    occupations:
  0.999  0.000  0.000  0.000  0.000
  0.000  0.680  0.000  0.088  0.211
  0.000  0.000  0.680  0.211 -0.088
  0.000  0.088  0.211  0.832  0.000
  0.000  0.211 -0.088  0.000  0.832
atom    3   Tr[ns(na)] =   3.79250
    eigenvalues: 
  0.356  0.356  0.381  0.402  0.402
    eigenvectors:
  0.000  0.000  1.000  0.000  0.000
  0.228  0.693  0.000  0.061  0.018
  0.693  0.228  0.000  0.018  0.061
  0.059  0.020  0.000  0.215  0.706
  0.020  0.059  0.000  0.706  0.215
    occupations:
  0.381  0.000  0.000  0.000  0.000
  0.000  0.360  0.000  0.000  0.012
  0.000  0.000  0.360  0.012  0.000
  0.000  0.000  0.012  0.398  0.000
  0.000  0.012  0.000  0.000  0.398
atom    4   Tr[ns(na)] =   3.79251
    eigenvalues: 
  0.356  0.356  0.381  0.402  0.402
    eigenvectors:
  0.000  0.000  1.000  0.000  0.000
  0.681  0.241  0.000  0.059  0.019
  0.241  0.680  0.000  0.019  0.060
  0.021  0.058  0.000  0.232  0.689
  0.057  0.021  0.000  0.690  0.232
    occupations:
  0.381  0.000  0.000  0.000  0.000
  0.000  0.360  0.000  0.000  0.012
  0.000  0.000  0.360  0.012  0.000
  0.000  0.000  0.012  0.398  0.000
  0.000  0.012  0.000  0.000  0.398
atom    5   Tr[ns(na)] =   5.43687
    eigenvalues: 
  0.839  0.931  0.948
    eigenvectors:
  0.337  0.000  0.663
  0.497  0.251  0.252
  0.167  0.749  0.085
    occupations:
  0.912 -0.045  0.026
 -0.045  0.890  0.024
  0.026  0.024  0.917
atom    6   Tr[ns(na)] =   5.43377
    eigenvalues: 
  0.838  0.930  0.948
    eigenvectors:
  0.337  0.000  0.663
  0.498  0.248  0.253
  0.165  0.752  0.083
    occupations:
  0.911  0.045  0.026
  0.045  0.889 -0.024
  0.026 -0.024  0.917
atom    7   Tr[ns(na)] =   5.43377
    eigenvalues: 
  0.838  0.930  0.948
    eigenvectors:
  0.337  0.000  0.663
  0.000  1.000  0.000
  0.663  0.000  0.337
    occupations:
  0.911  0.000 -0.052
  0.000  0.930  0.000
 -0.052  0.000  0.875
atom    8   Tr[ns(na)] =   5.43402
    eigenvalues: 
  0.838  0.931  0.948
    eigenvectors:
  0.337  0.000  0.663
  0.497  0.251  0.252
  0.167  0.749  0.085
    occupations:
  0.911 -0.045  0.026
 -0.045  0.889  0.024
  0.026  0.024  0.917
atom    9   Tr[ns(na)] =   5.43374
    eigenvalues: 
  0.838  0.930  0.948
    eigenvectors:
  0.337  0.000  0.663
  0.498  0.249  0.253
  0.165  0.751  0.083
    occupations:
  0.911  0.045  0.026
  0.045  0.889 -0.024
  0.026 -0.024  0.917
atom   10   Tr[ns(na)] =   5.43374
    eigenvalues: 
  0.838  0.930  0.948
    eigenvectors:
  0.337  0.000  0.663
  0.000  1.000  0.000
  0.663  0.000  0.337
    occupations:
  0.911  0.000 -0.052
  0.000  0.930  0.000
 -0.052  0.000  0.875
N of occupied +U levels =  56.2879950
 --- exit write_ns ---
 --- in v_hubbard ---
Hubbard energy    0.4265
 -------

     total cpu time spent up to now is      470.2 secs

     total energy              =    -537.86828629 Ry
     Harris-Foulkes estimate   =    -537.86827863 Ry
     estimated scf accuracy    <       0.00000081 Ry

     iteration # 13     ecut=    30.00 Ry     beta=0.20
     Davidson diagonalization with overlap
     ethr =  6.53E-10,  avg # of iterations =  1.0
 --- enter write_ns ---
 LDA+U parameters:
U( 1)     =  6.00000000
alpha( 1) =  0.00000000
U( 2)     =  0.00000000
alpha( 2) =  0.00000000
U( 3)     =  0.00000000
alpha( 3) = -0.05000000
U( 4)     =  0.00000000
alpha( 4) =  0.00000000
atom    1   Tr[ns(na)] =   8.04958
    eigenvalues: 
  0.516  0.516  0.997  0.997  0.999
    eigenvectors:
  0.000  0.000  0.000  0.000  1.000
  0.561  0.097  0.226  0.116  0.000
  0.097  0.561  0.116  0.226  0.000
  0.173  0.169  0.477  0.181  0.000
  0.169  0.173  0.181  0.477  0.000
    occupations:
  0.999  0.000  0.000  0.000  0.000
  0.000  0.680  0.000 -0.088  0.210
  0.000  0.000  0.680  0.210  0.088
  0.000 -0.088  0.210  0.832  0.000
  0.000  0.210  0.088  0.000  0.833
atom    2   Tr[ns(na)] =   8.04649
    eigenvalues: 
  0.514  0.515  0.997  0.997  0.999
    eigenvectors:
  0.000  0.000  0.000  0.000  1.000
  0.415  0.243  0.283  0.058  0.000
  0.243  0.415  0.058  0.283  0.000
  0.022  0.319  0.001  0.658  0.000
  0.319  0.022  0.658  0.001  0.000
    occupations:
  0.999  0.000  0.000  0.000  0.000
  0.000  0.680  0.000  0.088  0.211
  0.000  0.000  0.680  0.211 -0.088
  0.000  0.088  0.211  0.832  0.000
  0.000  0.211 -0.088  0.000  0.832
atom    3   Tr[ns(na)] =   3.79241
    eigenvalues: 
  0.356  0.356  0.381  0.401  0.402
    eigenvectors:
  0.000  0.000  1.000  0.000  0.000
  0.228  0.693  0.000  0.061  0.018
  0.693  0.228  0.000  0.018  0.061
  0.059  0.020  0.000  0.213  0.708
  0.020  0.059  0.000  0.708  0.213
    occupations:
  0.381  0.000  0.000  0.000  0.000
  0.000  0.360  0.000  0.000  0.012
  0.000  0.000  0.360  0.012  0.000
  0.000  0.000  0.012  0.398  0.000
  0.000  0.012  0.000  0.000  0.398
atom    4   Tr[ns(na)] =   3.79243
    eigenvalues: 
  0.356  0.356  0.381  0.402  0.402
    eigenvectors:
  0.000  0.000  1.000  0.000  0.000
  0.681  0.241  0.000  0.059  0.019
  0.241  0.680  0.000  0.019  0.060
  0.021  0.058  0.000  0.232  0.689
  0.057  0.021  0.000  0.690  0.231
    occupations:
  0.381  0.000  0.000  0.000  0.000
  0.000  0.360  0.000  0.000  0.012
  0.000  0.000  0.360  0.012  0.000
  0.000  0.000  0.012  0.398  0.000
  0.000  0.012  0.000  0.000  0.398
atom    5   Tr[ns(na)] =   5.43704
    eigenvalues: 
  0.839  0.931  0.949
    eigenvectors:
  0.337  0.000  0.663
  0.497  0.251  0.252
  0.167  0.749  0.085
    occupations:
  0.912 -0.045  0.026
 -0.045  0.890  0.024
  0.026  0.024  0.917
atom    6   Tr[ns(na)] =   5.43394
    eigenvalues: 
  0.838  0.931  0.948
    eigenvectors:
  0.337  0.000  0.663
  0.498  0.248  0.253
  0.165  0.752  0.083
    occupations:
  0.911  0.045  0.026
  0.045  0.889 -0.024
  0.026 -0.024  0.917
atom    7   Tr[ns(na)] =   5.43394
    eigenvalues: 
  0.838  0.931  0.948
    eigenvectors:
  0.337  0.000  0.663
  0.000  1.000  0.000
  0.663  0.000  0.337
    occupations:
  0.911  0.000 -0.052
  0.000  0.931  0.000
 -0.052  0.000  0.875
atom    8   Tr[ns(na)] =   5.43419
    eigenvalues: 
  0.838  0.931  0.948
    eigenvectors:
  0.337  0.000  0.663
  0.497  0.251  0.252
  0.167  0.749  0.085
    occupations:
  0.911 -0.045  0.026
 -0.045  0.889  0.024
  0.026  0.024  0.917
atom    9   Tr[ns(na)] =   5.43391
    eigenvalues: 
  0.838  0.931  0.948
    eigenvectors:
  0.337  0.000  0.663
  0.498  0.249  0.253
  0.165  0.751  0.083
    occupations:
  0.911  0.045  0.026
  0.045  0.889 -0.024
  0.026 -0.024  0.917
atom   10   Tr[ns(na)] =   5.43391
    eigenvalues: 
  0.838  0.931  0.948
    eigenvectors:
  0.337  0.000  0.663
  0.000  1.000  0.000
  0.663  0.000  0.337
    occupations:
  0.911  0.000 -0.052
  0.000  0.931  0.000
 -0.052  0.000  0.875
N of occupied +U levels =  56.2878315
 --- exit write_ns ---
 --- in v_hubbard ---
Hubbard energy    0.4264
 -------

     total cpu time spent up to now is      494.8 secs

     total energy              =    -537.86829188 Ry
     Harris-Foulkes estimate   =    -537.86828644 Ry
     estimated scf accuracy    <       0.00000002 Ry

     iteration # 14     ecut=    30.00 Ry     beta=0.20
     Davidson diagonalization with overlap
     ethr =  2.53E-11,  avg # of iterations =  3.0
 --- enter write_ns ---
 LDA+U parameters:
U( 1)     =  6.00000000
alpha( 1) =  0.00000000
U( 2)     =  0.00000000
alpha( 2) =  0.00000000
U( 3)     =  0.00000000
alpha( 3) = -0.05000000
U( 4)     =  0.00000000
alpha( 4) =  0.00000000
atom    1   Tr[ns(na)] =   8.04952
    eigenvalues: 
  0.516  0.516  0.997  0.997  0.999
    eigenvectors:
  0.000  0.000  0.000  0.000  1.000
  0.561  0.097  0.226  0.116  0.000
  0.097  0.561  0.116  0.226  0.000
  0.173  0.169  0.477  0.181  0.000
  0.169  0.173  0.181  0.477  0.000
    occupations:
  0.999  0.000  0.000  0.000  0.000
  0.000  0.680  0.000 -0.088  0.210
  0.000  0.000  0.680  0.210  0.088
  0.000 -0.088  0.210  0.832  0.000
  0.000  0.210  0.088  0.000  0.833
atom    2   Tr[ns(na)] =   8.04643
    eigenvalues: 
  0.514  0.515  0.997  0.997  0.999
    eigenvectors:
  0.000  0.000  0.000  0.000  1.000
  0.415  0.243  0.283  0.058  0.000
  0.243  0.415  0.058  0.283  0.000
  0.022  0.319  0.001  0.658  0.000
  0.319  0.022  0.658  0.001  0.000
    occupations:
  0.999  0.000  0.000  0.000  0.000
  0.000  0.680  0.000  0.088  0.211
  0.000  0.000  0.680  0.211 -0.088
  0.000  0.088  0.211  0.832  0.000
  0.000  0.211 -0.088  0.000  0.832
atom    3   Tr[ns(na)] =   3.79235
    eigenvalues: 
  0.356  0.356  0.381  0.401  0.401
    eigenvectors:
  0.000  0.000  1.000  0.000  0.000
  0.228  0.693  0.000  0.061  0.018
  0.693  0.228  0.000  0.018  0.061
  0.059  0.020  0.000  0.213  0.708
  0.020  0.059  0.000  0.708  0.213
    occupations:
  0.381  0.000  0.000  0.000  0.000
  0.000  0.360  0.000  0.000  0.012
  0.000  0.000  0.360  0.012  0.000
  0.000  0.000  0.012  0.398  0.000
  0.000  0.012  0.000  0.000  0.398
atom    4   Tr[ns(na)] =   3.79237
    eigenvalues: 
  0.356  0.356  0.381  0.402  0.402
    eigenvectors:
  0.000  0.000  1.000  0.000  0.000
  0.682  0.239  0.000  0.059  0.019
  0.239  0.682  0.000  0.019  0.060
  0.021  0.058  0.000  0.232  0.690
  0.057  0.021  0.000  0.690  0.231
    occupations:
  0.381  0.000  0.000  0.000  0.000
  0.000  0.360  0.000  0.000  0.012
  0.000  0.000  0.360  0.012  0.000
  0.000  0.000  0.012  0.398  0.000
  0.000  0.012  0.000  0.000  0.398
atom    5   Tr[ns(na)] =   5.43707
    eigenvalues: 
  0.839  0.931  0.949
    eigenvectors:
  0.337  0.000  0.663
  0.497  0.251  0.252
  0.167  0.749  0.085
    occupations:
  0.912 -0.045  0.026
 -0.045  0.890  0.024
  0.026  0.024  0.917
atom    6   Tr[ns(na)] =   5.43397
    eigenvalues: 
  0.838  0.931  0.948
    eigenvectors:
  0.337  0.000  0.663
  0.498  0.248  0.253
  0.165  0.752  0.083
    occupations:
  0.911  0.045  0.026
  0.045  0.889 -0.024
  0.026 -0.024  0.917
atom    7   Tr[ns(na)] =   5.43397
    eigenvalues: 
  0.838  0.931  0.948
    eigenvectors:
  0.337  0.000  0.663
  0.000  1.000  0.000
  0.663  0.000  0.337
    occupations:
  0.911  0.000 -0.052
  0.000  0.931  0.000
 -0.052  0.000  0.875
atom    8   Tr[ns(na)] =   5.43422
    eigenvalues: 
  0.838  0.931  0.948
    eigenvectors:
  0.337  0.000  0.663
  0.497  0.251  0.252
  0.167  0.749  0.085
    occupations:
  0.911 -0.045  0.026
 -0.045  0.889  0.024
  0.026  0.024  0.917
atom    9   Tr[ns(na)] =   5.43394
    eigenvalues: 
  0.838  0.931  0.948
    eigenvectors:
  0.337  0.000  0.663
  0.498  0.249  0.253
  0.165  0.751  0.083
    occupations:
  0.911  0.045  0.026
  0.045  0.889 -0.024
  0.026 -0.024  0.917
atom   10   Tr[ns(na)] =   5.43394
    eigenvalues: 
  0.838  0.931  0.948
    eigenvectors:
  0.337  0.000  0.663
  0.000  1.000  0.000
  0.663  0.000  0.337
    occupations:
  0.911  0.000 -0.052
  0.000  0.931  0.000
 -0.052  0.000  0.875
N of occupied +U levels =  56.2877797
 --- exit write_ns ---
 --- in v_hubbard ---
Hubbard energy    0.4264
 -------

     total cpu time spent up to now is      535.2 secs

     End of self-consistent calculation

          k = 0.0000 0.0000 0.0000 (  2175 PWs)   bands (ev):

   -19.7938 -19.6206  -6.5491  -5.8828  -5.8772  -5.8259  -5.8181  -5.4827
    -3.9053  -3.2906  -3.2896  -3.2565  -3.0229  -3.0226   5.1557   6.1720
     6.1739   6.2217   6.6383   6.6409   7.4987   7.5044   7.6994   7.7146
     8.0439   8.0446   9.2903   9.6168   9.6216   9.9726   9.9736  10.1478
    10.4513  10.4526  10.6686  10.7042  10.7058  11.0054  11.8351  11.8353
    14.7035  14.7043  15.4314  15.4321  16.2019  16.7886

     occupation numbers 
     0.0313   0.0313   0.0313   0.0313   0.0313   0.0313   0.0313   0.0313
     0.0313   0.0313   0.0313   0.0313   0.0313   0.0313   0.0313   0.0313
     0.0313   0.0313   0.0313   0.0313   0.0313   0.0313   0.0313   0.0313
     0.0313   0.0313   0.0312   0.0312   0.0312   0.0312   0.0312   0.0312
     0.0312   0.0312   0.0311   0.0310   0.0310   0.0288   0.0023   0.0023
     0.0000   0.0000   0.0000   0.0000   0.0000   0.0000

          k =-0.2471-0.1427 0.1027 (  2181 PWs)   bands (ev):

   -19.7699 -19.6652  -6.7273  -6.3045  -5.9705  -5.8609  -5.6147  -5.4836
    -3.6723  -3.4290  -2.9525  -2.9112  -2.8799  -2.7708   5.4495   5.9383
     6.2203   6.2779   6.5960   6.6301   6.8948   7.2889   7.4303   7.5736
     7.6386   7.9118   9.3322   9.4930   9.6913   9.8418   9.8778   9.9672
    10.1899  10.3616  10.3915  10.6681  10.7820  10.8224  12.2604  12.3343
    14.2525  14.2643  15.8184  16.0724  16.9738  17.2682

     occupation numbers 
     0.0625   0.0625   0.0625   0.0625   0.0625   0.0625   0.0625   0.0625
     0.0625   0.0625   0.0625   0.0625   0.0625   0.0625   0.0625   0.0625
     0.0625   0.0625   0.0625   0.0625   0.0625   0.0625   0.0625   0.0625
     0.0625   0.0625   0.0625   0.0625   0.0625   0.0625   0.0625   0.0625
     0.0625   0.0625   0.0625   0.0622   0.0616   0.0613   0.0001   0.0000
     0.0000   0.0000   0.0000   0.0000   0.0000   0.0000

          k = 0.4942 0.2853-0.2053 (  2202 PWs)   bands (ev):

   -19.7285 -19.7279  -6.7275  -6.7140  -5.9748  -5.9695  -5.5296  -5.5191
    -3.4172  -3.4155  -2.8097  -2.8065  -2.5065  -2.5042   5.6293   5.6429
     6.3556   6.3675   6.5423   6.5555   6.8679   6.8757   7.2635   7.2802
     7.4061   7.4239   9.3165   9.3292   9.7445   9.7594  10.0062  10.0282
    10.1144  10.1294  10.3500  10.3684  10.5846  10.6005  13.2387  13.2858
    13.3223  13.3695  16.8325  16.8385  17.1281  17.1320

     occupation numbers 
     0.0313   0.0313   0.0313   0.0313   0.0313   0.0313   0.0313   0.0313
     0.0313   0.0313   0.0313   0.0313   0.0313   0.0313   0.0313   0.0313
     0.0313   0.0313   0.0313   0.0313   0.0313   0.0313   0.0313   0.0313
     0.0313   0.0313   0.0312   0.0312   0.0312   0.0312   0.0312   0.0312
     0.0312   0.0312   0.0312   0.0312   0.0312   0.0312   0.0000   0.0000
     0.0000   0.0000   0.0000   0.0000   0.0000   0.0000

          k =-0.2471 0.1427 0.2053 (  2195 PWs)   bands (ev):

   -19.7611 -19.6804  -6.8552  -6.2537  -6.0823  -5.8310  -5.6530  -5.4788
[...]
     0.0625   0.0625   0.0625   0.0625   0.0625   0.0625   0.0625   0.0625
     0.0625   0.0625   0.0625   0.0625   0.0625   0.0625   0.0625   0.0625
     0.0625   0.0625   0.0624   0.0623   0.0620   0.0619   0.0067   0.0000
     0.0000   0.0000   0.0000   0.0000   0.0000   0.0000

          k = 0.4942-0.5706 0.1027 (  2198 PWs)   bands (ev):

   -19.7361 -19.7266  -6.9540  -6.6477  -6.1317  -5.8948  -5.5189  -5.3893
    -3.3400  -3.2732  -2.8867  -2.7144  -2.5320  -2.3863   5.3757   5.7887
     5.9323   6.4272   6.4553   6.5838   6.6701   7.0324   7.2643   7.3546
     7.7966   7.9198   8.7781   9.1040   9.4367   9.6696   9.6870  10.0039
    10.2263  10.3145  10.3324  10.4518  10.6432  10.8153  12.2540  12.6927
    13.3817  14.3045  16.9084  17.1115  17.3076  18.0162

     occupation numbers 
     0.0625   0.0625   0.0625   0.0625   0.0625   0.0625   0.0625   0.0625
     0.0625   0.0625   0.0625   0.0625   0.0625   0.0625   0.0625   0.0625
     0.0625   0.0625   0.0625   0.0625   0.0625   0.0625   0.0625   0.0625
     0.0625   0.0625   0.0625   0.0625   0.0625   0.0625   0.0625   0.0625
     0.0625   0.0625   0.0625   0.0625   0.0623   0.0613   0.0001   0.0000
     0.0000   0.0000   0.0000   0.0000   0.0000   0.0000

          k =-0.7412 0.1427-0.1027 (  2198 PWs)   bands (ev):

   -19.7361 -19.7266  -6.9536  -6.6485  -6.1308  -5.8959  -5.5179  -5.3899
    -3.3393  -3.2732  -2.8866  -2.7154  -2.5314  -2.3866   5.3773   5.7864
     5.9340   6.4323   6.4496   6.5909   6.6605   7.0336   7.2624   7.3593
     7.7955   7.9176   8.7780   9.1044   9.4385   9.6733   9.6852  10.0056
    10.2205  10.3201  10.3317  10.4512  10.6364  10.8189  12.2542  12.6930
    13.3818  14.3049  16.9065  17.1144  17.3070  18.0157

     occupation numbers 
     0.0625   0.0625   0.0625   0.0625   0.0625   0.0625   0.0625   0.0625
     0.0625   0.0625   0.0625   0.0625   0.0625   0.0625   0.0625   0.0625
     0.0625   0.0625   0.0625   0.0625   0.0625   0.0625   0.0625   0.0625
     0.0625   0.0625   0.0625   0.0625   0.0625   0.0625   0.0625   0.0625
     0.0625   0.0625   0.0625   0.0625   0.0623   0.0613   0.0001   0.0000
     0.0000   0.0000   0.0000   0.0000   0.0000   0.0000

          k = 0.2471-0.7133-0.1027 (  2198 PWs)   bands (ev):

   -19.7361 -19.7266  -6.9534  -6.6487  -6.1302  -5.8965  -5.5183  -5.3893
    -3.3393  -3.2733  -2.8865  -2.7159  -2.5313  -2.3865   5.3773   5.7870
     5.9342   6.4321   6.4494   6.5923   6.6592   7.0330   7.2620   7.3612
     7.7942   7.9172   8.7768   9.1056   9.4398   9.6701   9.6876  10.0048
    10.2171  10.3183  10.3373  10.4562  10.6322  10.8181  12.2542  12.6929
    13.3818  14.3049  16.9058  17.1154  17.3071  18.0162

     occupation numbers 
     0.0625   0.0625   0.0625   0.0625   0.0625   0.0625   0.0625   0.0625
     0.0625   0.0625   0.0625   0.0625   0.0625   0.0625   0.0625   0.0625
     0.0625   0.0625   0.0625   0.0625   0.0625   0.0625   0.0625   0.0625
     0.0625   0.0625   0.0625   0.0625   0.0625   0.0625   0.0625   0.0625
     0.0625   0.0625   0.0625   0.0625   0.0623   0.0613   0.0001   0.0000
     0.0000   0.0000   0.0000   0.0000   0.0000   0.0000

          k =-0.7412-0.1427 0.1027 (  2198 PWs)   bands (ev):

   -19.7361 -19.7266  -6.9539  -6.6479  -6.1312  -5.8953  -5.5193  -5.3886
    -3.3401  -3.2732  -2.8866  -2.7149  -2.5319  -2.3862   5.3757   5.7894
     5.9323   6.4264   6.4558   6.5851   6.6687   7.0321   7.2640   7.3562
     7.7953   7.9195   8.7771   9.1051   9.4379   9.6664   9.6895  10.0031
    10.2227  10.3135  10.3371  10.4567  10.6391  10.8146  12.2541  12.6926
    13.3817  14.3045  16.9077  17.1126  17.3076  18.0166

     occupation numbers 
     0.0625   0.0625   0.0625   0.0625   0.0625   0.0625   0.0625   0.0625
     0.0625   0.0625   0.0625   0.0625   0.0625   0.0625   0.0625   0.0625
     0.0625   0.0625   0.0625   0.0625   0.0625   0.0625   0.0625   0.0625
     0.0625   0.0625   0.0625   0.0625   0.0625   0.0625   0.0625   0.0625
     0.0625   0.0625   0.0625   0.0625   0.0623   0.0613   0.0001   0.0000
     0.0000   0.0000   0.0000   0.0000   0.0000   0.0000

          k = 0.2471 0.7133 0.1027 (  2198 PWs)   bands (ev):

   -19.7357 -19.7264  -6.9585  -6.6466  -6.1361  -5.8861  -5.5144  -5.3948
    -3.3405  -3.2733  -2.8861  -2.7158  -2.5324  -2.3875   5.3808   5.7923
     5.9294   6.4274   6.4571   6.5856   6.6675   7.0304   7.2661   7.3606
     7.7917   7.9170   8.7774   9.1040   9.4381   9.6680   9.6884  10.0020
    10.2263  10.3120  10.3378  10.4560  10.6408  10.8091  12.2537  12.6936
    13.3806  14.3051  16.9084  17.1124  17.3078  18.0164

     occupation numbers 
     0.0625   0.0625   0.0625   0.0625   0.0625   0.0625   0.0625   0.0625
     0.0625   0.0625   0.0625   0.0625   0.0625   0.0625   0.0625   0.0625
     0.0625   0.0625   0.0625   0.0625   0.0625   0.0625   0.0625   0.0625
     0.0625   0.0625   0.0625   0.0625   0.0625   0.0625   0.0625   0.0625
     0.0625   0.0625   0.0625   0.0625   0.0623   0.0614   0.0001   0.0000
     0.0000   0.0000   0.0000   0.0000   0.0000   0.0000

          k = 0.2471-0.4280 0.0000 (  2203 PWs)   bands (ev):

   -19.7490 -19.7066  -6.8476  -6.6443  -6.0590  -5.9806  -5.4418  -5.3740
    -3.5810  -3.3089  -2.8068  -2.7101  -2.5830  -2.5703   5.5548   5.7342
     6.1672   6.2774   6.4900   6.5713   6.8104   6.9429   7.2348   7.3874
     7.4126   8.1727   8.8602   9.2754   9.6464   9.7026   9.8725  10.0709
    10.1868  10.2497  10.3412  10.4232  10.4876  10.8941  12.1598  13.2704
    13.3532  14.1005  16.4338  16.9959  17.4204  17.9266

     occupation numbers 
     0.0625   0.0625   0.0625   0.0625   0.0625   0.0625   0.0625   0.0625
     0.0625   0.0625   0.0625   0.0625   0.0625   0.0625   0.0625   0.0625
     0.0625   0.0625   0.0625   0.0625   0.0625   0.0625   0.0625   0.0625
     0.0625   0.0625   0.0625   0.0625   0.0625   0.0625   0.0625   0.0625
     0.0625   0.0625   0.0625   0.0625   0.0625   0.0603   0.0003   0.0000
     0.0000   0.0000   0.0000   0.0000   0.0000   0.0000

          k =-0.4942 0.0000 0.0000 (  2203 PWs)   bands (ev):

   -19.7490 -19.7066  -6.8476  -6.6442  -6.0590  -5.9806  -5.4418  -5.3740
    -3.5810  -3.3089  -2.8068  -2.7101  -2.5831  -2.5703   5.5547   5.7342
     6.1672   6.2774   6.4901   6.5712   6.8103   6.9429   7.2348   7.3858
     7.4142   8.1727   8.8602   9.2754   9.6461   9.7028   9.8725  10.0709
    10.1869  10.2500  10.3414  10.4228  10.4875  10.8941  12.1598  13.2705
    13.3531  14.1005  16.4338  16.9960  17.4204  17.9268

     occupation numbers 
     0.0625   0.0625   0.0625   0.0625   0.0625   0.0625   0.0625   0.0625
     0.0625   0.0625   0.0625   0.0625   0.0625   0.0625   0.0625   0.0625
     0.0625   0.0625   0.0625   0.0625   0.0625   0.0625   0.0625   0.0625
     0.0625   0.0625   0.0625   0.0625   0.0625   0.0625   0.0625   0.0625
     0.0625   0.0625   0.0625   0.0625   0.0625   0.0603   0.0003   0.0000
     0.0000   0.0000   0.0000   0.0000   0.0000   0.0000

          k = 0.4942 0.2853 0.4107 (  2202 PWs)   bands (ev):

   -19.7403 -19.7287  -7.1641  -6.4505  -6.2350  -5.9758  -5.5333  -5.2979
    -3.2245  -3.1155  -3.0698  -2.6464  -2.4784  -2.2211   4.9882   5.6608
     5.7615   6.3885   6.4988   6.9351   7.0343   7.1098   7.1344   7.2435
     8.0069   8.1594   8.2951   8.5951   9.4125   9.6707  10.0255  10.0567
    10.0914  10.2254  10.3203  10.5654  10.5871  10.9291  11.7322  12.3591
    13.2853  14.7381  17.0468  17.2695  17.5198  17.6144

     occupation numbers 
     0.0313   0.0313   0.0313   0.0313   0.0313   0.0313   0.0313   0.0313
     0.0313   0.0313   0.0313   0.0313   0.0313   0.0313   0.0313   0.0313
     0.0313   0.0313   0.0313   0.0313   0.0313   0.0313   0.0313   0.0313
     0.0313   0.0313   0.0313   0.0313   0.0312   0.0312   0.0312   0.0312
     0.0312   0.0312   0.0312   0.0312   0.0312   0.0298   0.0043   0.0000
     0.0000   0.0000   0.0000   0.0000   0.0000   0.0000

          k = 0.0000 0.5706-0.4107 (  2202 PWs)   bands (ev):

   -19.7403 -19.7287  -7.1641  -6.4505  -6.2351  -5.9758  -5.5333  -5.2979
    -3.2245  -3.1155  -3.0698  -2.6464  -2.4784  -2.2211   4.9882   5.6608
     5.7615   6.3886   6.4988   6.9352   7.0340   7.1099   7.1343   7.2435
     8.0069   8.1593   8.2952   8.5951   9.4125   9.6707  10.0254  10.0568
    10.0915  10.2253  10.3202  10.5669  10.5858  10.9291  11.7322  12.3591
    13.2853  14.7381  17.0468  17.2695  17.5198  17.6144

     occupation numbers 
     0.0313   0.0313   0.0313   0.0313   0.0313   0.0313   0.0313   0.0313
     0.0313   0.0313   0.0313   0.0313   0.0313   0.0313   0.0313   0.0313
     0.0313   0.0313   0.0313   0.0313   0.0313   0.0313   0.0313   0.0313
     0.0313   0.0313   0.0313   0.0313   0.0312   0.0312   0.0312   0.0312
     0.0312   0.0312   0.0312   0.0312   0.0312   0.0298   0.0043   0.0000
     0.0000   0.0000   0.0000   0.0000   0.0000   0.0000

          k = 0.7412-0.4280 0.0000 (  2204 PWs)   bands (ev):

   -19.7481 -19.7095  -6.7307  -6.6138  -6.1420  -5.8350  -5.7001  -5.5553
    -3.2182  -3.1094  -3.0499  -2.6811  -2.6703  -2.5897   5.6452   5.7980
     6.0469   6.4252   6.4498   6.7056   6.7927   6.9382   7.2948   7.3602
     7.5336   7.9889   8.8307   9.3795   9.3869   9.6486   9.8112  10.0723
    10.2235  10.2378  10.4563  10.4698  10.5174  10.6012  12.1582  13.1904
    13.2695  14.1289  16.6851  16.7281  17.5909  17.7954

     occupation numbers 
     0.0625   0.0625   0.0625   0.0625   0.0625   0.0625   0.0625   0.0625
     0.0625   0.0625   0.0625   0.0625   0.0625   0.0625   0.0625   0.0625
     0.0625   0.0625   0.0625   0.0625   0.0625   0.0625   0.0625   0.0625
     0.0625   0.0625   0.0625   0.0625   0.0625   0.0625   0.0625   0.0625
     0.0625   0.0625   0.0625   0.0625   0.0624   0.0624   0.0003   0.0000
     0.0000   0.0000   0.0000   0.0000   0.0000   0.0000

          k = 0.0000-0.8559 0.0000 (  2204 PWs)   bands (ev):

   -19.7480 -19.7095  -6.7331  -6.6096  -6.1442  -5.8369  -5.7030  -5.5498
    -3.2176  -3.1095  -3.0499  -2.6821  -2.6716  -2.5885   5.6495   5.8043
     6.0442   6.4225   6.4490   6.7027   6.7887   6.9379   7.2917   7.3572
     7.5316   7.9958   8.8389   9.3802   9.3904   9.6457   9.8105  10.0700
    10.2198  10.2356  10.4572  10.4675  10.5222  10.6017  12.1572  13.1902
    13.2692  14.1299  16.6858  16.7276  17.5903  17.7952

     occupation numbers 
     0.0625   0.0625   0.0625   0.0625   0.0625   0.0625   0.0625   0.0625
     0.0625   0.0625   0.0625   0.0625   0.0625   0.0625   0.0625   0.0625
     0.0625   0.0625   0.0625   0.0625   0.0625   0.0625   0.0625   0.0625
     0.0625   0.0625   0.0625   0.0625   0.0625   0.0625   0.0625   0.0625
     0.0625   0.0625   0.0625   0.0625   0.0624   0.0624   0.0003   0.0000
     0.0000   0.0000   0.0000   0.0000   0.0000   0.0000

          k = 0.4942-0.2853-0.1027 (  2211 PWs)   bands (ev):

   -19.7371 -19.7250  -6.9746  -6.5428  -6.3259  -5.7051  -5.6195  -5.3663
    -3.3545  -3.1741  -3.0564  -2.6038  -2.5690  -2.3791   5.3984   5.8366
     5.8648   6.2426   6.5040   6.7394   6.8426   6.8511   7.2476   7.2766
     7.8564   7.9546   8.7457   9.2589   9.3224   9.5782   9.8418   9.8868
    10.2865  10.2989  10.4677  10.5383  10.5887  10.6367  12.2096  12.7073
    13.4281  14.2869  16.8867  16.9357  17.5781  17.9281

     occupation numbers 
     0.0625   0.0625   0.0625   0.0625   0.0625   0.0625   0.0625   0.0625
     0.0625   0.0625   0.0625   0.0625   0.0625   0.0625   0.0625   0.0625
     0.0625   0.0625   0.0625   0.0625   0.0625   0.0625   0.0625   0.0625
     0.0625   0.0625   0.0625   0.0625   0.0625   0.0625   0.0625   0.0625
     0.0625   0.0625   0.0625   0.0624   0.0624   0.0623   0.0002   0.0000
     0.0000   0.0000   0.0000   0.0000   0.0000   0.0000

          k = 0.0000-0.5706 0.1027 (  2211 PWs)   bands (ev):

   -19.7375 -19.7253  -6.9702  -6.5438  -6.3251  -5.7082  -5.6252  -5.3614
    -3.3544  -3.1740  -3.0562  -2.6030  -2.5689  -2.3777   5.3935   5.8408
     5.8593   6.2449   6.5030   6.7381   6.8443   6.8499   7.2432   7.2763
     7.8651   7.9509   8.7469   9.2530   9.3209   9.5864   9.8391   9.8902
    10.2829  10.2978  10.4665  10.5397  10.5912  10.6389  12.2100  12.7064
    13.4292  14.2864  16.8864  16.9358  17.5784  17.9279

     occupation numbers 
     0.0625   0.0625   0.0625   0.0625   0.0625   0.0625   0.0625   0.0625
     0.0625   0.0625   0.0625   0.0625   0.0625   0.0625   0.0625   0.0625
     0.0625   0.0625   0.0625   0.0625   0.0625   0.0625   0.0625   0.0625
     0.0625   0.0625   0.0625   0.0625   0.0625   0.0625   0.0625   0.0625
     0.0625   0.0625   0.0625   0.0624   0.0624   0.0623   0.0002   0.0000
     0.0000   0.0000   0.0000   0.0000   0.0000   0.0000

          k = 0.7412 0.4280 0.3080 (  2210 PWs)   bands (ev):

   -19.7371 -19.7276  -6.9065  -6.4556  -6.3031  -5.7981  -5.7695  -5.4948
    -3.0880  -3.0710  -2.9743  -2.7373  -2.6293  -2.4287   5.4503   5.9025
     5.9517   6.2666   6.5132   6.6225   6.8475   6.9585   7.2792   7.3276
     7.8490   7.9243   8.6902   9.1860   9.3765   9.4557   9.6282  10.0144
    10.2243  10.2611  10.3808  10.5170  10.6404  10.6740  12.1710  12.6607
    13.3785  14.2566  17.0608  17.0712  17.5464  17.9027

     occupation numbers 
     0.0625   0.0625   0.0625   0.0625   0.0625   0.0625   0.0625   0.0625
     0.0625   0.0625   0.0625   0.0625   0.0625   0.0625   0.0625   0.0625
     0.0625   0.0625   0.0625   0.0625   0.0625   0.0625   0.0625   0.0625
     0.0625   0.0625   0.0625   0.0625   0.0625   0.0625   0.0625   0.0625
     0.0625   0.0625   0.0625   0.0624   0.0623   0.0622   0.0003   0.0000
     0.0000   0.0000   0.0000   0.0000   0.0000   0.0000

          k = 0.0000 0.8559-0.3080 (  2210 PWs)   bands (ev):

   -19.7371 -19.7276  -6.9065  -6.4556  -6.3031  -5.7982  -5.7695  -5.4948
    -3.0880  -3.0710  -2.9743  -2.7373  -2.6293  -2.4287   5.4503   5.9025
     5.9517   6.2666   6.5133   6.6224   6.8477   6.9584   7.2791   7.3278
     7.8490   7.9243   8.6902   9.1861   9.3765   9.4556   9.6282  10.0143
    10.2244  10.2609  10.3812  10.5168  10.6402  10.6741  12.1710  12.6607
    13.3785  14.2566  17.0607  17.0712  17.5464  17.9027

     occupation numbers 
     0.0625   0.0625   0.0625   0.0625   0.0625   0.0625   0.0625   0.0625
     0.0625   0.0625   0.0625   0.0625   0.0625   0.0625   0.0625   0.0625
     0.0625   0.0625   0.0625   0.0625   0.0625   0.0625   0.0625   0.0625
     0.0625   0.0625   0.0625   0.0625   0.0625   0.0625   0.0625   0.0625
     0.0625   0.0625   0.0625   0.0624   0.0623   0.0622   0.0003   0.0000
     0.0000   0.0000   0.0000   0.0000   0.0000   0.0000

          k = 0.2471 0.7133-0.2053 (  2206 PWs)   bands (ev):

   -19.7348 -19.7346  -6.8869  -6.8749  -6.0374  -6.0270  -5.4370  -5.4299
    -3.1656  -3.1652  -2.8274  -2.8257  -2.3839  -2.3810   5.6578   5.6634
     5.8683   5.8754   6.5965   6.5977   6.7942   6.8040   7.2567   7.2631
     8.1455   8.1529   8.7543   8.7608   9.4070   9.4118   9.8919   9.8990
    10.2066  10.2171  10.3532  10.3582  10.6988  10.7058  12.2136  12.2199
    13.9515  13.9632  17.4255  17.4262  17.8708  17.8739

     occupation numbers 
     0.0625   0.0625   0.0625   0.0625   0.0625   0.0625   0.0625   0.0625
     0.0625   0.0625   0.0625   0.0625   0.0625   0.0625   0.0625   0.0625
     0.0625   0.0625   0.0625   0.0625   0.0625   0.0625   0.0625   0.0625
     0.0625   0.0625   0.0625   0.0625   0.0625   0.0625   0.0625   0.0625
     0.0625   0.0625   0.0625   0.0625   0.0621   0.0621   0.0002   0.0002
     0.0000   0.0000   0.0000   0.0000   0.0000   0.0000

          k =-0.7412-0.1427-0.2053 (  2206 PWs)   bands (ev):

   -19.7351 -19.7350  -6.8856  -6.8704  -6.0372  -6.0358  -5.4372  -5.4265
    -3.1654  -3.1647  -2.8275  -2.8267  -2.3835  -2.3783   5.6560   5.6611
     5.8707   5.8767   6.5893   6.5953   6.7920   6.8037   7.2536   7.2610
     8.1529   8.1542   8.7607   8.7636   9.4124   9.4129   9.8853   9.8941
    10.2046  10.2136  10.3523  10.3609  10.7028  10.7085  12.2130  12.2194
    13.9518  13.9636  17.4259  17.4264  17.8706  17.8729

     occupation numbers 
     0.0625   0.0625   0.0625   0.0625   0.0625   0.0625   0.0625   0.0625
     0.0625   0.0625   0.0625   0.0625   0.0625   0.0625   0.0625   0.0625
     0.0625   0.0625   0.0625   0.0625   0.0625   0.0625   0.0625   0.0625
     0.0625   0.0625   0.0625   0.0625   0.0625   0.0625   0.0625   0.0625
     0.0625   0.0625   0.0625   0.0625   0.0621   0.0621   0.0002   0.0002
     0.0000   0.0000   0.0000   0.0000   0.0000   0.0000

     the Fermi energy is    11.4163 ev

!    total energy              =    -537.86830181 Ry
     Harris-Foulkes estimate   =    -537.86829188 Ry
     estimated scf accuracy    <          5.0E-09 Ry

     The total energy is the sum of the following terms:

     one-electron contribution =     -32.88745543 Ry
     hartree contribution      =      83.66169933 Ry
     xc contribution           =    -199.62170470 Ry
     ewald contribution        =    -389.44315552 Ry
     Hubbard energy            =       0.42639346 Ry
     smearing contrib. (-TS)   =      -0.00407895 Ry

     convergence has been achieved in  14 iterations

     init_run     :      7.10s CPU      7.22s WALL (       1 calls)
     electrons    :    525.00s CPU    527.43s WALL (       1 calls)

     Called by init_run:
     wfcinit      :      0.00s CPU      0.00s WALL (       1 calls)
     potinit      :      0.30s CPU      0.32s WALL (       1 calls)

     Called by electrons:
     c_bands      :    401.47s CPU    402.75s WALL (      14 calls)
     sum_band     :     89.31s CPU     90.09s WALL (      14 calls)
     v_of_rho     :      4.03s CPU      4.04s WALL (      15 calls)
     v_h          :      0.23s CPU      0.23s WALL (      15 calls)
     v_xc         :      3.80s CPU      3.81s WALL (      15 calls)
     newd         :     31.05s CPU     31.08s WALL (      15 calls)
     mix_rho      :      0.48s CPU      0.48s WALL (      14 calls)

     Called by c_bands:
     init_us_2    :      4.04s CPU      4.06s WALL (    1008 calls)
     cegterg      :    390.12s CPU    390.71s WALL (     504 calls)

     Called by sum_band:
     sum_band:bec :      0.38s CPU      0.38s WALL (     504 calls)
     addusdens    :     18.59s CPU     18.61s WALL (      14 calls)

     Called by *egterg:
     h_psi        :    297.81s CPU    298.36s WALL (    1934 calls)
     s_psi        :     16.55s CPU     16.59s WALL (    1934 calls)
     g_psi        :      1.19s CPU      1.20s WALL (    1430 calls)
     cdiaghg      :     23.85s CPU     23.88s WALL (    1898 calls)
     cegterg:over :     18.29s CPU     18.31s WALL (    1430 calls)
     cegterg:upda :     11.98s CPU     11.98s WALL (    1430 calls)
     cegterg:last :      9.27s CPU      9.27s WALL (     573 calls)

     Called by h_psi:
     h_psi:vloc   :    244.06s CPU    244.52s WALL (    1934 calls)
     h_psi:vnl    :     33.71s CPU     33.75s WALL (    1934 calls)
     add_vuspsi   :     16.71s CPU     16.73s WALL (    1934 calls)
     vhpsi        :     19.27s CPU     19.29s WALL (    1934 calls)

     General routines
     calbec       :     34.85s CPU     34.89s WALL (    4876 calls)
     fft          :      2.84s CPU      2.86s WALL (     235 calls)
     ffts         :      0.08s CPU      0.08s WALL (      29 calls)
     fftw         :    223.03s CPU    223.48s WALL (  140712 calls)
     interpolate  :      0.51s CPU      0.50s WALL (      29 calls)
     davcio       :      0.02s CPU      1.32s WALL (    1044 calls)

     Parallel routines
     fft_scatter  :     63.70s CPU     63.94s WALL (  140976 calls)
     Hubbard U routines
     new_ns       :      3.55s CPU      4.18s WALL (      14 calls)
     vhpsi        :     19.27s CPU     19.29s WALL (    1934 calls)

     PWSCF        :  8m52.66s CPU     8m55.25s WALL


   This run was terminated on:   5:53:53  13Nov2012            

=------------------------------------------------------------------------------=
