   JOB DONE.
=------------------------------------------------------------------------------=

     Program PWSCF v.5.0.1 starts on 13Nov2012 at  5:31: 4 

     This program is part of the open-source Quantum ESPRESSO suite
     for quantum simulation of materials; please cite
         "P. Giannozzi et al., J. Phys.:Condens. Matter 21 395502 (2009);
          URL http://www.quantum-espresso.org", 
     in publications or presentations arising from this work. More details at
     http://www.quantum-espresso.org/quote.php

     Parallel version (MPI), running on     2 processors
     R & G space division:  proc/pool =    2

     Current dimensions of program PWSCF are:
     Max number of different atomic species (ntypx) = 10
     Max number of k-points (npk) =  40000
     Max angular momentum in pseudopotentials (lmaxx) =  3
     Reading input from CoLaO_U700_a-5.in
               file Co.pbe-nd-rrkjus.UPF: wavefunction(s)  4S 3D renormalized
               file Co.pbe-nd-rrkjus.UPF: wavefunction(s)  4S 3D renormalized
               file O.pbe-rrkjus.UPF: wavefunction(s)  2S renormalized

     Subspace diagonalization in iterative solution of the eigenvalue problem:
     a serial algorithm will be used


     Parallelization info
     --------------------
     sticks:   dense  smooth     PW     G-vecs:    dense   smooth      PW
     Min        1112     444    131                34808     8786    1448
     Max        1113     445    132                34809     8787    1449
     Sum        2225     889    263                69617    17573    2897


     Title: 
     GGA + U, U = 7.000, alpha = -0.050                                         


     bravais-lattice index     =            5
     lattice parameter (alat)  =      10.3292  a.u.
     unit-cell volume          =     793.0599 (a.u.)^3
     number of atoms/cell      =           10
     number of atomic types    =            4
     number of electrons       =        76.00
     number of Kohn-Sham states=           46
     kinetic-energy cutoff     =      30.0000  Ry
     charge density cutoff     =     300.0000  Ry
     convergence threshold     =      1.0E-08
     mixing beta               =       0.2000
     number of iterations used =            8  plain     mixing
     Exchange-correlation      =  SLA  PW   PBE  PBE ( 1 4 3 4 0)
     EXX-fraction              =        0.00

     celldm(1)=  10.329242  celldm(2)=   0.000000  celldm(3)=   0.000000
     celldm(4)=   0.488100  celldm(5)=   0.000000  celldm(6)=   0.000000

     crystal axes: (cart. coord. in units of alat)
               a(1) = (   0.505915  -0.292090   0.811624 )  
               a(2) = (   0.000000   0.584180   0.811624 )  
               a(3) = (  -0.505915  -0.292090   0.811624 )  

     reciprocal axes: (cart. coord. in units 2 pi/alat)
               b(1) = (  0.988308 -0.570600  0.410699 )  
               b(2) = (  0.000000  1.141200  0.410699 )  
               b(3) = ( -0.988308 -0.570600  0.410699 )  


     PseudoPot. # 1 for Co read from file:
     /home/mcurnan/dft-course/Project1/example_LaCoO3/Co.pbe-nd-rrkjus.UPF
     MD5 check sum: 3e47a84addf5e975e0edeaeee2a73f59
     Pseudo is Ultrasoft + core correction, Zval =  9.0
     Generated by new atomic code, or converted to UPF format
     Using radial grid of  961 points,  6 beta functions with: 
                l(1) =   0
                l(2) =   0
                l(3) =   1
                l(4) =   1
                l(5) =   2
                l(6) =   2
     Q(r) pseudized with 0 coefficients 


     PseudoPot. # 2 for Co read from file:
     /home/mcurnan/dft-course/Project1/example_LaCoO3/Co.pbe-nd-rrkjus.UPF
     MD5 check sum: 3e47a84addf5e975e0edeaeee2a73f59
     Pseudo is Ultrasoft + core correction, Zval =  9.0
     Generated by new atomic code, or converted to UPF format
     Using radial grid of  961 points,  6 beta functions with: 
                l(1) =   0
                l(2) =   0
                l(3) =   1
                l(4) =   1
                l(5) =   2
                l(6) =   2
     Q(r) pseudized with 0 coefficients 


     PseudoPot. # 3 for La read from file:
     /home/mcurnan/dft-course/Project1/example_LaCoO3/La.pbe-nsp-van.UPF
     MD5 check sum: b2f11743f52dde65f77d1302becd7929
     Pseudo is Ultrasoft + core correction, Zval = 11.0
     Generated by new atomic code, or converted to UPF format
     Using radial grid of  907 points,  6 beta functions with: 
                l(1) =   0
                l(2) =   0
                l(3) =   1
                l(4) =   1
                l(5) =   2
                l(6) =   2
     Q(r) pseudized with  6 coefficients,  rinner =    1.200   1.200   1.200
                                                       1.200   1.200

     PseudoPot. # 4 for O  read from file:
     /home/mcurnan/dft-course/Project1/example_LaCoO3/O.pbe-rrkjus.UPF
     MD5 check sum: 390ba29e75625707450f3bd3f0eb6be9
     Pseudo is Ultrasoft, Zval =  6.0
     Generated by new atomic code, or converted to UPF format
     Using radial grid of 1269 points,  4 beta functions with: 
                l(1) =   0
                l(2) =   0
                l(3) =   1
                l(4) =   1
     Q(r) pseudized with 0 coefficients 


     atomic species   valence    mass     pseudopotential
        Co1            9.00     1.00000     Co( 1.00)
        Co2            9.00     1.00000     Co( 1.00)
        La1           11.00     1.00000     La( 1.00)
        O1             6.00     1.00000     O ( 1.00)
 -----
     simplified LDA+U calculation, Hubbard_lmax = 2
     atomic species  L   Hubbard U  Hubbard alpha
        Co1          2    7.000000   -0.050000
        Co2          2    7.000000    0.000000
        La1          2    0.000000    0.000000
        O1           1    0.000000    0.000000
 -----

      6 Sym. Ops., with inversion, found


                                    s                        frac. trans.

      isym =  1     identity                                     

 cryst.   s( 1) = (     1          0          0      )
                  (     0          1          0      )
                  (     0          0          1      )

 cart.    s( 1) = (  1.0000000  0.0000000  0.0000000 )
                  (  0.0000000  1.0000000  0.0000000 )
                  (  0.0000000  0.0000000  1.0000000 )


      isym =  2     120 deg rotation - cryst. axis [0,0,1]       

 cryst.   s( 2) = (     0          1          0      )
                  (     0          0          1      )
                  (     1          0          0      )

 cart.    s( 2) = ( -0.5000000 -0.8660254  0.0000000 )
                  (  0.8660254 -0.5000000  0.0000000 )
                  (  0.0000000  0.0000000  1.0000000 )


      isym =  3     120 deg rotation - cryst. axis [0,0,-1]      

 cryst.   s( 3) = (     0          0          1      )
                  (     1          0          0      )
                  (     0          1          0      )

 cart.    s( 3) = ( -0.5000000  0.8660254  0.0000000 )
                  ( -0.8660254 -0.5000000  0.0000000 )
                  (  0.0000000  0.0000000  1.0000000 )


      isym =  4     inversion                                    

 cryst.   s( 4) = (    -1          0          0      )
                  (     0         -1          0      )
                  (     0          0         -1      )

 cart.    s( 4) = ( -1.0000000  0.0000000  0.0000000 )
                  (  0.0000000 -1.0000000  0.0000000 )
                  (  0.0000000  0.0000000 -1.0000000 )


      isym =  5     inv. 180 deg rotation - cart. axis [0,1,0]   

 cryst.   s( 5) = (     0         -1          0      )
                  (     0          0         -1      )
                  (    -1          0          0      )

 cart.    s( 5) = (  0.5000000  0.8660254  0.0000000 )
                  ( -0.8660254  0.5000000  0.0000000 )
                  (  0.0000000  0.0000000 -1.0000000 )


      isym =  6     inv. 180 deg rotation - cart. axis [1,0,0]   

 cryst.   s( 6) = (     0          0         -1      )
                  (    -1          0          0      )
                  (     0         -1          0      )

 cart.    s( 6) = (  0.5000000 -0.8660254  0.0000000 )
                  (  0.8660254  0.5000000  0.0000000 )
                  (  0.0000000  0.0000000 -1.0000000 )


     point group S_6 (-3)   
     there are  6 classes
     the character table:

       E     C3    C3^2  i     S6^5  S6   
A_g    1.00  1.00  1.00  1.00  1.00  1.00
E_g    1.00 -0.50 -0.50  1.00 -0.50 -0.50
E_g*   1.00 -0.50 -0.50  1.00 -0.50 -0.50
A_u    1.00  1.00  1.00 -1.00 -1.00 -1.00
E_u    1.00 -0.50 -0.50 -1.00  0.50  0.50
E_u*   1.00 -0.50 -0.50 -1.00  0.50  0.50
     imaginary part
A_g    0.00  0.00  0.00  0.00  0.00  0.00
E_g    0.00  0.87 -0.87  0.00  0.87 -0.87
E_g*   0.00 -0.87  0.87  0.00 -0.87  0.87
A_u    0.00  0.00  0.00  0.00  0.00  0.00
E_u    0.00  0.87 -0.87  0.00 -0.87  0.87
E_u*   0.00 -0.87  0.87  0.00  0.87 -0.87

     the symmetry operations in each class:
     E        1
     C3       2
     C3^2     3
     i        4
     S6^5     5
     S6       6

   Cartesian axes

     site n.     atom                  positions (alat units)
         1           Co1 tau(   1) = (   0.0000000   0.0000000   0.0000000  )
         2           Co2 tau(   2) = (   0.0000000   0.0000000   1.2174358  )
         3           La1 tau(   3) = (   0.0000000   0.0000000   0.6087179  )
         4           La1 tau(   4) = (   0.0000000   0.0000000   1.8261537  )
         5           O1  tau(   5) = (  -0.2839701  -0.0933228   1.0141240  )
         6           O1  tau(   6) = (   0.0611651   0.2925867   1.0141240  )
         7           O1  tau(   7) = (   0.2228050  -0.1992639   1.0141240  )
         8           O1  tau(   8) = (  -0.0611651  -0.2925867   1.4207476  )
         9           O1  tau(   9) = (   0.2839701   0.0933228   1.4207476  )
        10           O1  tau(  10) = (  -0.2228050   0.1992639   1.4207476  )

   Crystallographic axes

     site n.     atom                  positions (cryst. coord.)
         1           Co1 tau(   1) = (  0.0000000  0.0000000  0.0000000  )
         2           Co2 tau(   2) = (  0.5000000  0.5000000  0.5000000  )
         3           La1 tau(   3) = (  0.2500000  0.2500000  0.2500000  )
         4           La1 tau(   4) = (  0.7500000  0.7500000  0.7500000  )
         5           O1  tau(   5) = (  0.1891000  0.3100000  0.7504000  )
         6           O1  tau(   6) = (  0.3100000  0.7504000  0.1891000  )
         7           O1  tau(   7) = (  0.7504000  0.1891000  0.3100000  )
         8           O1  tau(   8) = (  0.6900000  0.2496000  0.8109000  )
         9           O1  tau(   9) = (  0.8109000  0.6900000  0.2496000  )
        10           O1  tau(  10) = (  0.2496000  0.8109000  0.6900000  )

     number of k points=    14  gaussian smearing, width (Ry)=  0.0300
                       cart. coord. in units 2pi/alat
        k(    1) = (   0.0000000   0.0000000   0.0000000), wk =   0.0312500
        k(    2) = (  -0.2470771  -0.1426500   0.1026748), wk =   0.1875000
        k(    3) = (   0.4941541   0.2853000  -0.2053496), wk =   0.0937500
        k(    4) = (  -0.2470771   0.1426500   0.2053496), wk =   0.1875000
        k(    5) = (   0.4941541   0.5706001  -0.1026748), wk =   0.1875000
        k(    6) = (   0.2470771   0.4279500   0.0000000), wk =   0.1875000
        k(    7) = (   0.4941541  -0.2853000  -0.4106993), wk =   0.0937500
        k(    8) = (   0.0000000   0.0000000   0.3080244), wk =   0.0625000
        k(    9) = (   0.7412312   0.4279500   0.0000000), wk =   0.1875000
        k(   10) = (   0.4941541   0.2853000   0.1026748), wk =   0.1875000
        k(   11) = (   0.7412312  -0.4279500  -0.3080244), wk =   0.1875000
        k(   12) = (   0.4941541  -0.5706001  -0.2053496), wk =   0.1875000
        k(   13) = (   0.0000000   0.0000000  -0.6160489), wk =   0.0312500
        k(   14) = (   0.4941541  -0.5706001   0.1026748), wk =   0.1875000

                       cryst. coord.
        k(    1) = (   0.0000000   0.0000000   0.0000000), wk =   0.0312500
        k(    2) = (   0.0000000   0.0000000   0.2500000), wk =   0.1875000
        k(    3) = (   0.0000000   0.0000000  -0.5000000), wk =   0.0937500
        k(    4) = (   0.0000000   0.2500000   0.2500000), wk =   0.1875000
        k(    5) = (   0.0000000   0.2500000  -0.5000000), wk =   0.1875000
        k(    6) = (   0.0000000   0.2500000  -0.2500000), wk =   0.1875000
        k(    7) = (   0.0000000  -0.5000000  -0.5000000), wk =   0.0937500
        k(    8) = (   0.2500000   0.2500000   0.2500000), wk =   0.0625000
        k(    9) = (   0.2500000   0.2500000  -0.5000000), wk =   0.1875000
        k(   10) = (   0.2500000   0.2500000  -0.2500000), wk =   0.1875000
        k(   11) = (   0.2500000  -0.5000000  -0.5000000), wk =   0.1875000
        k(   12) = (   0.2500000  -0.5000000  -0.2500000), wk =   0.1875000
        k(   13) = (  -0.5000000  -0.5000000  -0.5000000), wk =   0.0312500
        k(   14) = (   0.5000000  -0.2500000   0.0000000), wk =   0.1875000

     Dense  grid:    69617 G-vectors     FFT dimensions: (  60,  60,  60)

     Smooth grid:    17573 G-vectors     FFT dimensions: (  40,  40,  40)

     Largest allocated arrays     est. size (Mb)     dimensions
        Kohn-Sham Wavefunctions         0.78 Mb     (   1117,   46)
        Atomic wavefunctions            1.06 Mb     (   1117,   62)
        NL pseudopotentials             2.05 Mb     (   1117,  120)
        Each V/rho on FFT grid          1.65 Mb     ( 108000)
        Each G-vector array             0.27 Mb     (  34808)
        G-vector shells                 0.04 Mb     (   4682)
     Largest temporary arrays     est. size (Mb)     dimensions
        Auxiliary wavefunctions         3.14 Mb     (   1117,  184)
        Each subspace H/S matrix        0.52 Mb     ( 184, 184)
        Each <psi_i|beta_j> matrix      0.08 Mb     (    120,   46)
        Arrays for rho mixing          13.18 Mb     ( 108000,   8)

     Check: negative/imaginary core charge=   -0.000028    0.000000

     The initial density is read from file :
     /home/mcurnan/dft-course/Project1/example_LaCoO3/700/Co/alpha/CoLaO_U700.save/charge-density.dat

 --- in v_hubbard ---
Hubbard energy    0.6404
 -------
     Number of +U iterations with fixed ns =  0
     Starting occupations:
 --- enter write_ns ---
 LDA+U parameters:
U( 1)     =  7.00000000
alpha( 1) = -0.05000000
U( 2)     =  7.00000000
alpha( 2) =  0.00000000
U( 3)     =  0.00000000
alpha( 3) =  0.00000000
U( 4)     =  0.00000000
alpha( 4) =  0.00000000
atom    1   Tr[ns(na)] =   8.02206
    eigenvalues: 
  0.596  0.596  0.938  0.941  0.941
    eigenvectors:
  0.000  0.000  1.000  0.000  0.000
  0.333  0.322  0.000  0.004  0.341
  0.322  0.333  0.000  0.341  0.004
  0.289  0.056  0.000  0.515  0.140
  0.056  0.289  0.000  0.140  0.515
    occupations:
  0.938  0.000  0.000  0.000  0.000
  0.000  0.715  0.000 -0.060  0.152
  0.000  0.000  0.715  0.152  0.060
  0.000 -0.060  0.152  0.822  0.000
  0.000  0.152  0.060  0.000  0.822
atom    2   Tr[ns(na)] =   8.02145
    eigenvalues: 
  0.595  0.595  0.938  0.941  0.941
    eigenvectors:
  0.000  0.000  1.000  0.000  0.000
  0.640  0.015  0.000  0.223  0.122
  0.015  0.640  0.000  0.122  0.223
  0.017  0.329  0.000  0.470  0.185
  0.329  0.017  0.000  0.185  0.470
    occupations:
  0.938  0.000  0.000  0.000  0.000
  0.000  0.715  0.000  0.060  0.153
  0.000  0.000  0.715  0.153 -0.060
  0.000  0.060  0.153  0.822  0.000
  0.000  0.153 -0.060  0.000  0.822
atom    3   Tr[ns(na)] =   3.80284
    eigenvalues: 
  0.355  0.355  0.384  0.403  0.403
    eigenvectors:
  0.000  0.000  1.000  0.000  0.000
  0.781  0.139  0.000  0.012  0.068
  0.139  0.781  0.000  0.068  0.012
  0.013  0.067  0.000  0.780  0.141
  0.067  0.013  0.000  0.141  0.780
    occupations:
  0.384  0.000  0.000  0.000  0.000
  0.000  0.359  0.000  0.000  0.013
  0.000  0.000  0.359  0.013  0.000
  0.000  0.000  0.013  0.399  0.000
  0.000  0.013  0.000  0.000  0.399
atom    4   Tr[ns(na)] =   3.80284
    eigenvalues: 
  0.355  0.355  0.384  0.403  0.403
    eigenvectors:
  0.000  0.000  1.000  0.000  0.000
  0.782  0.139  0.000  0.012  0.068
  0.139  0.782  0.000  0.068  0.012
  0.012  0.067  0.000  0.780  0.141
  0.067  0.012  0.000  0.141  0.780
    occupations:
  0.384  0.000  0.000  0.000  0.000
  0.000  0.359  0.000  0.000  0.013
  0.000  0.000  0.359  0.013  0.000
  0.000  0.000  0.013  0.399  0.000
  0.000  0.013  0.000  0.000  0.399
atom    5   Tr[ns(na)] =   5.43357
    eigenvalues: 
  0.846  0.929  0.941
    eigenvectors:
  0.340  0.000  0.660
  0.494  0.250  0.256
  0.166  0.750  0.085
    occupations:
  0.909  0.039  0.022
  0.039  0.891 -0.022
  0.022 -0.022  0.917
atom    6   Tr[ns(na)] =   5.43357
    eigenvalues: 
  0.846  0.929  0.941
    eigenvectors:
  0.340  0.000  0.660
  0.000  1.000  0.000
  0.660  0.000  0.340
    occupations:
  0.909  0.000 -0.045
  0.000  0.929  0.000
 -0.045  0.000  0.879
atom    7   Tr[ns(na)] =   5.43357
    eigenvalues: 
  0.846  0.929  0.941
    eigenvectors:
  0.340  0.000  0.660
  0.496  0.250  0.255
  0.164  0.750  0.086
    occupations:
  0.909 -0.039  0.022
 -0.039  0.891  0.022
  0.022  0.022  0.917
atom    8   Tr[ns(na)] =   5.43357
    eigenvalues: 
  0.846  0.929  0.941
    eigenvectors:
  0.340  0.000  0.660
  0.000  1.000  0.000
  0.660  0.000  0.340
    occupations:
  0.909  0.000 -0.045
  0.000  0.929  0.000
 -0.045  0.000  0.879
atom    9   Tr[ns(na)] =   5.43357
    eigenvalues: 
  0.846  0.929  0.941
    eigenvectors:
  0.340  0.000  0.660
  0.494  0.250  0.256
  0.166  0.750  0.085
    occupations:
  0.909  0.039  0.022
  0.039  0.891 -0.022
  0.022 -0.022  0.917
atom   10   Tr[ns(na)] =   5.43357
    eigenvalues: 
  0.846  0.929  0.941
    eigenvectors:
  0.340  0.000  0.660
  0.496  0.250  0.255
  0.164  0.750  0.086
    occupations:
  0.909 -0.039  0.022
 -0.039  0.891  0.022
  0.022  0.022  0.917
N of occupied +U levels =  56.2506062
 --- exit write_ns ---
 LDA+U Projector read from file 
     Starting wfc from file

     total cpu time spent up to now is        7.8 secs

     per-process dynamical memory:    46.9 Mb

     Self-consistent Calculation

     iteration #  1     ecut=    30.00 Ry     beta=0.20
     Davidson diagonalization with overlap
     c_bands:  1 eigenvalues not converged
     c_bands:  1 eigenvalues not converged
     c_bands:  1 eigenvalues not converged
     c_bands:  1 eigenvalues not converged
     ethr =  1.00E-10,  avg # of iterations = 16.4
 --- enter write_ns ---
 LDA+U parameters:
U( 1)     =  7.00000000
alpha( 1) = -0.05000000
U( 2)     =  7.00000000
alpha( 2) =  0.00000000
U( 3)     =  0.00000000
alpha( 3) =  0.00000000
U( 4)     =  0.00000000
alpha( 4) =  0.00000000
atom    1   Tr[ns(na)] =   8.30659
    eigenvalues: 
  0.583  0.583  0.995  0.995  0.998
    eigenvectors:
  0.000  0.000  0.000  0.000  1.000
  0.330  0.324  0.004  0.342  0.000
  0.324  0.330  0.342  0.004  0.000
  0.290  0.056  0.514  0.140  0.000
  0.056  0.290  0.140  0.514  0.000
    occupations:
  0.998  0.000  0.000  0.000  0.000
  0.000  0.725  0.000 -0.072  0.182
  0.000  0.000  0.725  0.182  0.072
  0.000 -0.072  0.182  0.852  0.000
  0.000  0.182  0.072  0.000  0.852
atom    2   Tr[ns(na)] =   8.27737
    eigenvalues: 
  0.576  0.576  0.995  0.995  0.998
    eigenvectors:
  0.000  0.000  0.000  0.000  1.000
  0.636  0.019  0.222  0.123  0.000
  0.019  0.636  0.123  0.222  0.000
  0.014  0.332  0.469  0.185  0.000
  0.332  0.014  0.185  0.469  0.000
    occupations:
  0.998  0.000  0.000  0.000  0.000
  0.000  0.721  0.000  0.072  0.186
  0.000  0.000  0.721  0.186 -0.072
  0.000  0.072  0.186  0.850  0.000
  0.000  0.186 -0.072  0.000  0.850
atom    3   Tr[ns(na)] =   3.78846
    eigenvalues: 
  0.356  0.356  0.381  0.401  0.401
    eigenvectors:
  0.000  0.000  1.000  0.000  0.000
  0.773  0.142  0.000  0.013  0.072
  0.142  0.773  0.000  0.072  0.013
  0.014  0.071  0.000  0.773  0.142
  0.071  0.014  0.000  0.142  0.773
    occupations:
  0.381  0.000  0.000  0.000  0.000
  0.000  0.360  0.000  0.000  0.013
  0.000  0.000  0.360  0.013  0.000
  0.000  0.000  0.013  0.397  0.000
  0.000  0.013  0.000  0.000  0.397
atom    4   Tr[ns(na)] =   3.78846
    eigenvalues: 
  0.356  0.356  0.381  0.401  0.401
    eigenvectors:
  0.000  0.000  1.000  0.000  0.000
  0.773  0.142  0.000  0.013  0.072
  0.142  0.773  0.000  0.072  0.013
  0.014  0.071  0.000  0.773  0.142
  0.071  0.014  0.000  0.142  0.773
    occupations:
  0.381  0.000  0.000  0.000  0.000
  0.000  0.360  0.000  0.000  0.013
  0.000  0.000  0.360  0.013  0.000
  0.000  0.000  0.013  0.397  0.000
  0.000  0.013  0.000  0.000  0.397
atom    5   Tr[ns(na)] =   5.36354
    eigenvalues: 
  0.817  0.921  0.944
    eigenvectors:
  0.342  0.000  0.658
  0.491  0.252  0.257
  0.167  0.748  0.085
    occupations:
  0.901  0.052  0.030
  0.052  0.876 -0.026
  0.030 -0.026  0.905
atom    6   Tr[ns(na)] =   5.36354
    eigenvalues: 
  0.817  0.921  0.944
    eigenvectors:
  0.342  0.000  0.658
  0.000  1.000  0.000
  0.658  0.000  0.342
    occupations:
  0.901  0.000 -0.060
  0.000  0.921  0.000
 -0.060  0.000  0.861
atom    7   Tr[ns(na)] =   5.36354
    eigenvalues: 
  0.817  0.921  0.944
    eigenvectors:
  0.342  0.000  0.658
  0.496  0.248  0.256
  0.162  0.752  0.086
    occupations:
  0.901 -0.052  0.030
 -0.052  0.875  0.026
  0.030  0.026  0.906
atom    8   Tr[ns(na)] =   5.36354
    eigenvalues: 
  0.817  0.921  0.944
    eigenvectors:
  0.342  0.000  0.658
  0.000  1.000  0.000
  0.658  0.000  0.342
    occupations:
  0.901  0.000 -0.060
  0.000  0.921  0.000
 -0.060  0.000  0.861
atom    9   Tr[ns(na)] =   5.36354
    eigenvalues: 
  0.817  0.921  0.944
    eigenvectors:
  0.342  0.000  0.658
  0.491  0.252  0.257
  0.167  0.748  0.085
    occupations:
  0.901  0.052  0.030
  0.052  0.876 -0.026
  0.030 -0.026  0.905
atom   10   Tr[ns(na)] =   5.36354
    eigenvalues: 
  0.817  0.921  0.944
    eigenvectors:
  0.342  0.000  0.658
  0.496  0.248  0.256
  0.162  0.752  0.086
    occupations:
  0.901 -0.052  0.030
 -0.052  0.875  0.026
  0.030  0.026  0.906
N of occupied +U levels =  56.3421336
 --- exit write_ns ---
 --- in v_hubbard ---
Hubbard energy    0.6107
 -------

     total cpu time spent up to now is       42.1 secs

     total energy              =    -537.77171570 Ry
     Harris-Foulkes estimate   =    -537.79440184 Ry
     estimated scf accuracy    <       0.09226968 Ry

     iteration #  2     ecut=    30.00 Ry     beta=0.20
     Davidson diagonalization with overlap
     ethr =  1.21E-04,  avg # of iterations =  2.0
 --- enter write_ns ---
 LDA+U parameters:
U( 1)     =  7.00000000
alpha( 1) = -0.05000000
U( 2)     =  7.00000000
alpha( 2) =  0.00000000
U( 3)     =  0.00000000
alpha( 3) =  0.00000000
U( 4)     =  0.00000000
alpha( 4) =  0.00000000
atom    1   Tr[ns(na)] =   8.01856
    eigenvalues: 
  0.510  0.510  0.996  0.996  0.999
    eigenvectors:
  0.000  0.000  0.000  0.000  1.000
  0.333  0.322  0.003  0.342  0.000
  0.322  0.333  0.342  0.003  0.000
  0.290  0.055  0.516  0.139  0.000
  0.055  0.290  0.139  0.516  0.000
    occupations:
  0.999  0.000  0.000  0.000  0.000
  0.000  0.677  0.000 -0.087  0.214
  0.000  0.000  0.677  0.214  0.087
  0.000 -0.087  0.214  0.828  0.000
  0.000  0.214  0.087  0.000  0.828
atom    2   Tr[ns(na)] =   8.02246
    eigenvalues: 
  0.510  0.510  0.996  0.996  0.999
    eigenvectors:
  0.000  0.000  0.000  0.000  1.000
  0.639  0.016  0.225  0.120  0.000
  0.016  0.639  0.120  0.225  0.000
  0.017  0.328  0.471  0.185  0.000
  0.328  0.017  0.185  0.471  0.000
    occupations:
  0.999  0.000  0.000  0.000  0.000
  0.000  0.677  0.000  0.086  0.215
  0.000  0.000  0.677  0.215 -0.086
  0.000  0.086  0.215  0.829  0.000
  0.000  0.215 -0.086  0.000  0.829
atom    3   Tr[ns(na)] =   3.78267
    eigenvalues: 
  0.355  0.355  0.380  0.401  0.401
    eigenvectors:
  0.000  0.000  1.000  0.000  0.000
  0.781  0.139  0.000  0.012  0.068
  0.139  0.781  0.000  0.068  0.012
  0.013  0.067  0.000  0.779  0.141
  0.067  0.013  0.000  0.141  0.779
    occupations:
  0.380  0.000  0.000  0.000  0.000
  0.000  0.358  0.000  0.000  0.013
  0.000  0.000  0.358  0.013  0.000
  0.000  0.000  0.013  0.397  0.000
  0.000  0.013  0.000  0.000  0.397
atom    4   Tr[ns(na)] =   3.78267
    eigenvalues: 
  0.355  0.355  0.380  0.401  0.401
    eigenvectors:
  0.000  0.000  1.000  0.000  0.000
  0.780  0.139  0.000  0.012  0.068
  0.139  0.780  0.000  0.068  0.012
  0.013  0.067  0.000  0.779  0.141
  0.067  0.013  0.000  0.141  0.779
    occupations:
  0.380  0.000  0.000  0.000  0.000
  0.000  0.358  0.000  0.000  0.013
  0.000  0.000  0.358  0.013  0.000
  0.000  0.000  0.013  0.397  0.000
  0.000  0.013  0.000  0.000  0.397
atom    5   Tr[ns(na)] =   5.45096
    eigenvalues: 
  0.843  0.933  0.950
    eigenvectors:
  0.335  0.000  0.665
  0.501  0.247  0.252
  0.164  0.753  0.083
    occupations:
  0.914  0.044  0.025
  0.044  0.892 -0.023
  0.025 -0.023  0.919
atom    6   Tr[ns(na)] =   5.45096
    eigenvalues: 
  0.843  0.933  0.950
    eigenvectors:
  0.335  0.000  0.665
  0.000  1.000  0.000
  0.665  0.000  0.335
    occupations:
  0.914  0.000 -0.051
  0.000  0.933  0.000
 -0.051  0.000  0.879
atom    7   Tr[ns(na)] =   5.45096
    eigenvalues: 
  0.843  0.933  0.950
    eigenvectors:
  0.335  0.000  0.665
  0.497  0.253  0.250
  0.168  0.747  0.084
    occupations:
  0.914 -0.044  0.025
 -0.044  0.892  0.023
  0.025  0.023  0.919
atom    8   Tr[ns(na)] =   5.45096
    eigenvalues: 
  0.843  0.933  0.950
    eigenvectors:
  0.335  0.000  0.665
  0.000  1.000  0.000
  0.665  0.000  0.335
    occupations:
  0.914  0.000 -0.051
  0.000  0.933  0.000
 -0.051  0.000  0.879
atom    9   Tr[ns(na)] =   5.45096
    eigenvalues: 
  0.843  0.933  0.950
    eigenvectors:
  0.335  0.000  0.665
  0.501  0.247  0.252
  0.164  0.753  0.083
    occupations:
  0.914  0.044  0.025
  0.044  0.892 -0.023
  0.025 -0.023  0.919
atom   10   Tr[ns(na)] =   5.45096
    eigenvalues: 
  0.843  0.933  0.950
    eigenvectors:
  0.335  0.000  0.665
  0.497  0.253  0.250
  0.168  0.747  0.084
    occupations:
  0.914 -0.044  0.025
 -0.044  0.892  0.023
  0.025  0.023  0.919
N of occupied +U levels =  56.3121285
 --- exit write_ns ---
 --- in v_hubbard ---
Hubbard energy    0.5988
 -------

     total cpu time spent up to now is       53.3 secs

     total energy              =    -537.79164540 Ry
     Harris-Foulkes estimate   =    -537.79195087 Ry
     estimated scf accuracy    <       0.05319849 Ry

     iteration #  3     ecut=    30.00 Ry     beta=0.20
     Davidson diagonalization with overlap
     ethr =  7.00E-05,  avg # of iterations =  1.0
 --- enter write_ns ---
 LDA+U parameters:
U( 1)     =  7.00000000
alpha( 1) = -0.05000000
U( 2)     =  7.00000000
alpha( 2) =  0.00000000
U( 3)     =  0.00000000
alpha( 3) =  0.00000000
U( 4)     =  0.00000000
alpha( 4) =  0.00000000
atom    1   Tr[ns(na)] =   8.07836
    eigenvalues: 
  0.524  0.524  0.996  0.996  0.999
    eigenvectors:
  0.000  0.000  0.000  0.000  1.000
  0.334  0.322  0.003  0.341  0.000
  0.322  0.334  0.341  0.003  0.000
  0.289  0.055  0.517  0.139  0.000
  0.055  0.289  0.139  0.517  0.000
    occupations:
  0.999  0.000  0.000  0.000  0.000
  0.000  0.687  0.000 -0.084  0.208
  0.000  0.000  0.687  0.208  0.084
  0.000 -0.084  0.208  0.833  0.000
  0.000  0.208  0.084  0.000  0.833
atom    2   Tr[ns(na)] =   8.06862
    eigenvalues: 
  0.521  0.521  0.996  0.996  0.999
    eigenvectors:
  0.000  0.000  0.000  0.000  1.000
  0.639  0.017  0.224  0.120  0.000
  0.017  0.639  0.120  0.224  0.000
  0.016  0.328  0.471  0.185  0.000
  0.328  0.016  0.185  0.471  0.000
    occupations:
  0.999  0.000  0.000  0.000  0.000
  0.000  0.685  0.000  0.084  0.210
  0.000  0.000  0.685  0.210 -0.084
  0.000  0.084  0.210  0.833  0.000
  0.000  0.210 -0.084  0.000  0.833
atom    3   Tr[ns(na)] =   3.78412
    eigenvalues: 
  0.355  0.355  0.380  0.401  0.401
    eigenvectors:
  0.000  0.000  1.000  0.000  0.000
  0.781  0.139  0.000  0.012  0.068
  0.139  0.781  0.000  0.068  0.012
  0.013  0.067  0.000  0.779  0.141
  0.067  0.013  0.000  0.141  0.779
    occupations:
  0.380  0.000  0.000  0.000  0.000
  0.000  0.359  0.000  0.000  0.012
  0.000  0.000  0.359  0.012  0.000
  0.000  0.000  0.012  0.397  0.000
  0.000  0.012  0.000  0.000  0.397
atom    4   Tr[ns(na)] =   3.78412
    eigenvalues: 
  0.355  0.355  0.380  0.401  0.401
    eigenvectors:
  0.000  0.000  1.000  0.000  0.000
  0.781  0.139  0.000  0.012  0.068
  0.139  0.781  0.000  0.068  0.012
  0.013  0.067  0.000  0.779  0.141
  0.067  0.013  0.000  0.141  0.779
    occupations:
  0.380  0.000  0.000  0.000  0.000
  0.000  0.359  0.000  0.000  0.012
  0.000  0.000  0.359  0.012  0.000
  0.000  0.000  0.012  0.397  0.000
  0.000  0.012  0.000  0.000  0.397
atom    5   Tr[ns(na)] =   5.43397
    eigenvalues: 
  0.837  0.930  0.949
    eigenvectors:
  0.336  0.000  0.664
  0.498  0.249  0.253
  0.166  0.751  0.084
    occupations:
  0.912  0.046  0.026
  0.046  0.889 -0.024
  0.026 -0.024  0.917
atom    6   Tr[ns(na)] =   5.43397
    eigenvalues: 
  0.837  0.930  0.949
    eigenvectors:
  0.336  0.000  0.664
  0.000  1.000  0.000
  0.664  0.000  0.336
    occupations:
  0.912  0.000 -0.053
  0.000  0.930  0.000
 -0.053  0.000  0.875
atom    7   Tr[ns(na)] =   5.43397
    eigenvalues: 
  0.837  0.930  0.949
    eigenvectors:
  0.336  0.000  0.664
  0.498  0.251  0.252
  0.166  0.749  0.085
    occupations:
  0.912 -0.046  0.026
 -0.046  0.889  0.024
  0.026  0.024  0.917
atom    8   Tr[ns(na)] =   5.43397
    eigenvalues: 
  0.837  0.930  0.949
    eigenvectors:
  0.336  0.000  0.664
  0.000  1.000  0.000
  0.664  0.000  0.336
    occupations:
  0.912  0.000 -0.053
  0.000  0.930  0.000
 -0.053  0.000  0.875
atom    9   Tr[ns(na)] =   5.43397
    eigenvalues: 
  0.837  0.930  0.949
    eigenvectors:
  0.336  0.000  0.664
  0.498  0.249  0.253
  0.166  0.751  0.084
    occupations:
  0.912  0.046  0.026
  0.046  0.889 -0.024
  0.026 -0.024  0.917
atom   10   Tr[ns(na)] =   5.43397
    eigenvalues: 
  0.837  0.930  0.949
    eigenvectors:
  0.336  0.000  0.664
  0.498  0.251  0.252
  0.166  0.749  0.085
    occupations:
  0.912 -0.046  0.026
 -0.046  0.889  0.024
  0.026  0.024  0.917
N of occupied +U levels =  56.3190423
 --- exit write_ns ---
 --- in v_hubbard ---
Hubbard energy    0.4904
 -------

     total cpu time spent up to now is       64.3 secs

     total energy              =    -537.80111387 Ry
     Harris-Foulkes estimate   =    -537.79282520 Ry
     estimated scf accuracy    <       0.02241634 Ry

     iteration #  4     ecut=    30.00 Ry     beta=0.20
     Davidson diagonalization with overlap
     ethr =  2.95E-05,  avg # of iterations =  2.1
 --- enter write_ns ---
 LDA+U parameters:
U( 1)     =  7.00000000
alpha( 1) = -0.05000000
U( 2)     =  7.00000000
alpha( 2) =  0.00000000
U( 3)     =  0.00000000
alpha( 3) =  0.00000000
U( 4)     =  0.00000000
alpha( 4) =  0.00000000
atom    1   Tr[ns(na)] =   8.09020
    eigenvalues: 
  0.525  0.525  0.998  0.998  1.000
    eigenvectors:
  0.000  0.000  0.000  0.000  1.000
  0.339  0.319  0.003  0.339  0.000
  0.319  0.339  0.339  0.003  0.000
  0.287  0.055  0.519  0.138  0.000
  0.055  0.287  0.138  0.519  0.000
    occupations:
  1.000  0.000  0.000  0.000  0.000
  0.000  0.687  0.000 -0.085  0.207
  0.000  0.000  0.687  0.207  0.085
  0.000 -0.085  0.207  0.836  0.000
  0.000  0.207  0.085  0.000  0.836
atom    2   Tr[ns(na)] =   8.10098
    eigenvalues: 
  0.527  0.527  0.998  0.998  1.000
    eigenvectors:
  0.000  0.000  0.000  0.000  1.000
  0.641  0.017  0.224  0.118  0.000
  0.017  0.641  0.118  0.224  0.000
  0.017  0.325  0.474  0.184  0.000
  0.325  0.017  0.184  0.474  0.000
    occupations:
  1.000  0.000  0.000  0.000  0.000
  0.000  0.688  0.000  0.084  0.207
  0.000  0.000  0.688  0.207 -0.084
  0.000  0.084  0.207  0.837  0.000
  0.000  0.207 -0.084  0.000  0.837
atom    3   Tr[ns(na)] =   3.79919
    eigenvalues: 
  0.357  0.357  0.381  0.402  0.402
    eigenvectors:
  0.000  0.000  1.000  0.000  0.000
  0.785  0.138  0.000  0.011  0.066
  0.138  0.785  0.000  0.066  0.011
  0.012  0.065  0.000  0.783  0.140
  0.065  0.012  0.000  0.140  0.783
    occupations:
  0.381  0.000  0.000  0.000  0.000
  0.000  0.361  0.000  0.000  0.012
  0.000  0.000  0.361  0.012  0.000
  0.000  0.000  0.012  0.398  0.000
  0.000  0.012  0.000  0.000  0.398
atom    4   Tr[ns(na)] =   3.79919
    eigenvalues: 
  0.357  0.357  0.381  0.402  0.402
    eigenvectors:
  0.000  0.000  1.000  0.000  0.000
  0.786  0.137  0.000  0.011  0.066
  0.137  0.786  0.000  0.066  0.011
  0.012  0.065  0.000  0.783  0.140
  0.065  0.012  0.000  0.140  0.783
    occupations:
  0.381  0.000  0.000  0.000  0.000
  0.000  0.361  0.000  0.000  0.012
  0.000  0.000  0.361  0.012  0.000
  0.000  0.000  0.012  0.398  0.000
  0.000  0.012  0.000  0.000  0.398
atom    5   Tr[ns(na)] =   5.41935
    eigenvalues: 
  0.834  0.929  0.947
    eigenvectors:
  0.337  0.000  0.663
  0.500  0.246  0.254
  0.163  0.754  0.083
    occupations:
  0.909  0.047  0.027
  0.047  0.886 -0.024
  0.027 -0.024  0.915
atom    6   Tr[ns(na)] =   5.41935
    eigenvalues: 
  0.834  0.929  0.947
    eigenvectors:
  0.337  0.000  0.663
  0.000  1.000  0.000
  0.663  0.000  0.337
    occupations:
  0.909  0.000 -0.054
  0.000  0.929  0.000
 -0.054  0.000  0.872
atom    7   Tr[ns(na)] =   5.41935
    eigenvalues: 
  0.834  0.929  0.947
    eigenvectors:
  0.337  0.000  0.663
  0.494  0.254  0.252
  0.168  0.746  0.085
    occupations:
  0.909 -0.046  0.027
 -0.046  0.886  0.025
  0.027  0.025  0.914
atom    8   Tr[ns(na)] =   5.41935
    eigenvalues: 
  0.834  0.929  0.947
    eigenvectors:
  0.337  0.000  0.663
  0.000  1.000  0.000
  0.663  0.000  0.337
    occupations:
  0.909  0.000 -0.054
  0.000  0.929  0.000
 -0.054  0.000  0.872
atom    9   Tr[ns(na)] =   5.41935
    eigenvalues: 
  0.834  0.929  0.947
    eigenvectors:
  0.337  0.000  0.663
  0.500  0.246  0.254
  0.163  0.754  0.083
    occupations:
  0.909  0.047  0.027
  0.047  0.886 -0.024
  0.027 -0.024  0.915
atom   10   Tr[ns(na)] =   5.41935
    eigenvalues: 
  0.834  0.929  0.947
    eigenvectors:
  0.337  0.000  0.663
  0.494  0.254  0.252
  0.168  0.746  0.085
    occupations:
  0.909 -0.046  0.027
 -0.046  0.886  0.025
  0.027  0.025  0.914
N of occupied +U levels =  56.3056360
 --- exit write_ns ---
 --- in v_hubbard ---
Hubbard energy    0.4837
 -------

     total cpu time spent up to now is       76.1 secs

     total energy              =    -537.80314631 Ry
     Harris-Foulkes estimate   =    -537.80350814 Ry
     estimated scf accuracy    <       0.00389309 Ry

     iteration #  5     ecut=    30.00 Ry     beta=0.20
     Davidson diagonalization with overlap
     ethr =  5.12E-06,  avg # of iterations =  1.0
 --- enter write_ns ---
 LDA+U parameters:
U( 1)     =  7.00000000
alpha( 1) = -0.05000000
U( 2)     =  7.00000000
alpha( 2) =  0.00000000
U( 3)     =  0.00000000
alpha( 3) =  0.00000000
U( 4)     =  0.00000000
alpha( 4) =  0.00000000
atom    1   Tr[ns(na)] =   8.07745
    eigenvalues: 
  0.521  0.521  0.998  0.998  1.000
    eigenvectors:
  0.000  0.000  0.000  0.000  1.000
  0.339  0.319  0.002  0.339  0.000
  0.319  0.339  0.339  0.002  0.000
  0.288  0.054  0.520  0.138  0.000
  0.054  0.288  0.138  0.520  0.000
    occupations:
  1.000  0.000  0.000  0.000  0.000
  0.000  0.684  0.000 -0.086  0.209
  0.000  0.000  0.684  0.209  0.086
  0.000 -0.086  0.209  0.835  0.000
  0.000  0.209  0.086  0.000  0.835
atom    2   Tr[ns(na)] =   8.06521
    eigenvalues: 
  0.518  0.518  0.998  0.998  1.000
    eigenvectors:
  0.000  0.000  0.000  0.000  1.000
  0.641  0.017  0.224  0.117  0.000
  0.017  0.641  0.117  0.224  0.000
  0.017  0.324  0.475  0.184  0.000
  0.324  0.017  0.184  0.475  0.000
    occupations:
  1.000  0.000  0.000  0.000  0.000
  0.000  0.682  0.000  0.086  0.211
  0.000  0.000  0.682  0.211 -0.086
  0.000  0.086  0.211  0.834  0.000
  0.000  0.211 -0.086  0.000  0.834
atom    3   Tr[ns(na)] =   3.79879
    eigenvalues: 
  0.357  0.357  0.381  0.402  0.402
    eigenvectors:
  0.000  0.000  1.000  0.000  0.000
  0.785  0.138  0.000  0.011  0.066
  0.138  0.785  0.000  0.066  0.011
  0.012  0.065  0.000  0.782  0.140
  0.065  0.012  0.000  0.140  0.782
    occupations:
  0.381  0.000  0.000  0.000  0.000
  0.000  0.360  0.000  0.000  0.012
  0.000  0.000  0.360  0.012  0.000
  0.000  0.000  0.012  0.399  0.000
  0.000  0.012  0.000  0.000  0.399
atom    4   Tr[ns(na)] =   3.79879
    eigenvalues: 
  0.357  0.357  0.381  0.402  0.402
    eigenvectors:
  0.000  0.000  1.000  0.000  0.000
  0.785  0.138  0.000  0.011  0.066
  0.138  0.785  0.000  0.066  0.011
  0.012  0.065  0.000  0.782  0.140
  0.065  0.012  0.000  0.140  0.782
    occupations:
  0.381  0.000  0.000  0.000  0.000
  0.000  0.360  0.000  0.000  0.012
  0.000  0.000  0.360  0.012  0.000
  0.000  0.000  0.012  0.399  0.000
  0.000  0.012  0.000  0.000  0.399
atom    5   Tr[ns(na)] =   5.42670
    eigenvalues: 
  0.836  0.930  0.948
    eigenvectors:
  0.337  0.000  0.663
  0.497  0.250  0.253
  0.166  0.750  0.084
    occupations:
  0.910  0.046  0.026
  0.046  0.888 -0.024
  0.026 -0.024  0.916
atom    6   Tr[ns(na)] =   5.42670
    eigenvalues: 
  0.836  0.930  0.948
    eigenvectors:
  0.337  0.000  0.663
  0.000  1.000  0.000
  0.663  0.000  0.337
    occupations:
  0.910  0.000 -0.053
  0.000  0.930  0.000
 -0.053  0.000  0.874
atom    7   Tr[ns(na)] =   5.42670
    eigenvalues: 
  0.836  0.930  0.948
    eigenvectors:
  0.337  0.000  0.663
  0.498  0.250  0.252
  0.166  0.750  0.085
    occupations:
  0.910 -0.046  0.026
 -0.046  0.888  0.024
  0.026  0.024  0.916
atom    8   Tr[ns(na)] =   5.42670
    eigenvalues: 
  0.836  0.930  0.948
    eigenvectors:
  0.337  0.000  0.663
  0.000  1.000  0.000
  0.663  0.000  0.337
    occupations:
  0.910  0.000 -0.053
  0.000  0.930  0.000
 -0.053  0.000  0.874
atom    9   Tr[ns(na)] =   5.42670
    eigenvalues: 
  0.836  0.930  0.948
    eigenvectors:
  0.337  0.000  0.663
  0.497  0.250  0.253
  0.166  0.750  0.084
    occupations:
  0.910  0.046  0.026
  0.046  0.888 -0.024
  0.026 -0.024  0.916
atom   10   Tr[ns(na)] =   5.42670
    eigenvalues: 
  0.836  0.930  0.948
    eigenvectors:
  0.337  0.000  0.663
  0.498  0.250  0.252
  0.166  0.750  0.085
    occupations:
  0.910 -0.046  0.026
 -0.046  0.888  0.024
  0.026  0.024  0.916
N of occupied +U levels =  56.3004463
 --- exit write_ns ---
 --- in v_hubbard ---
Hubbard energy    0.4835
 -------

     total cpu time spent up to now is       87.1 secs

     total energy              =    -537.80332255 Ry
     Harris-Foulkes estimate   =    -537.80337631 Ry
     estimated scf accuracy    <       0.00079847 Ry

     iteration #  6     ecut=    30.00 Ry     beta=0.20
     Davidson diagonalization with overlap
     ethr =  1.05E-06,  avg # of iterations =  1.4
 --- enter write_ns ---
 LDA+U parameters:
U( 1)     =  7.00000000
alpha( 1) = -0.05000000
U( 2)     =  7.00000000
alpha( 2) =  0.00000000
U( 3)     =  0.00000000
alpha( 3) =  0.00000000
U( 4)     =  0.00000000
alpha( 4) =  0.00000000
atom    1   Tr[ns(na)] =   8.05684
    eigenvalues: 
  0.516  0.516  0.998  0.998  1.000
    eigenvectors:
  0.000  0.000  0.000  0.000  1.000
  0.340  0.318  0.002  0.340  0.000
  0.318  0.340  0.340  0.002  0.000
  0.288  0.054  0.520  0.138  0.000
  0.054  0.288  0.138  0.520  0.000
    occupations:
  1.000  0.000  0.000  0.000  0.000
  0.000  0.681  0.000 -0.088  0.211
  0.000  0.000  0.681  0.211  0.088
  0.000 -0.088  0.211  0.833  0.000
  0.000  0.211  0.088  0.000  0.833
atom    2   Tr[ns(na)] =   8.04766
    eigenvalues: 
  0.514  0.514  0.998  0.998  1.000
    eigenvectors:
  0.000  0.000  0.000  0.000  1.000
  0.642  0.017  0.225  0.117  0.000
  0.017  0.642  0.117  0.225  0.000
  0.018  0.324  0.474  0.184  0.000
  0.324  0.018  0.184  0.474  0.000
    occupations:
  1.000  0.000  0.000  0.000  0.000
  0.000  0.679  0.000  0.087  0.213
  0.000  0.000  0.679  0.213 -0.087
  0.000  0.087  0.213  0.833  0.000
  0.000  0.213 -0.087  0.000  0.833
atom    3   Tr[ns(na)] =   3.79540
    eigenvalues: 
  0.356  0.356  0.381  0.402  0.402
    eigenvectors:
  0.000  0.000  1.000  0.000  0.000
  0.784  0.138  0.000  0.011  0.067
  0.138  0.784  0.000  0.067  0.011
  0.012  0.066  0.000  0.781  0.141
  0.066  0.012  0.000  0.141  0.781
    occupations:
  0.381  0.000  0.000  0.000  0.000
  0.000  0.360  0.000  0.000  0.012
  0.000  0.000  0.360  0.012  0.000
  0.000  0.000  0.012  0.398  0.000
  0.000  0.012  0.000  0.000  0.398
atom    4   Tr[ns(na)] =   3.79540
    eigenvalues: 
  0.356  0.356  0.381  0.402  0.402
    eigenvectors:
  0.000  0.000  1.000  0.000  0.000
  0.784  0.138  0.000  0.011  0.067
  0.138  0.784  0.000  0.067  0.011
  0.012  0.066  0.000  0.781  0.141
  0.066  0.012  0.000  0.141  0.781
    occupations:
  0.381  0.000  0.000  0.000  0.000
  0.000  0.360  0.000  0.000  0.012
  0.000  0.000  0.360  0.012  0.000
  0.000  0.000  0.012  0.398  0.000
  0.000  0.012  0.000  0.000  0.398
atom    5   Tr[ns(na)] =   5.43330
    eigenvalues: 
  0.838  0.931  0.948
    eigenvectors:
  0.336  0.000  0.664
  0.498  0.249  0.253
  0.166  0.751  0.084
    occupations:
  0.911  0.045  0.026
  0.045  0.889 -0.024
  0.026 -0.024  0.917
atom    6   Tr[ns(na)] =   5.43330
    eigenvalues: 
  0.838  0.931  0.948
    eigenvectors:
  0.336  0.000  0.664
  0.000  1.000  0.000
  0.664  0.000  0.336
    occupations:
  0.911  0.000 -0.052
  0.000  0.931  0.000
 -0.052  0.000  0.875
atom    7   Tr[ns(na)] =   5.43330
    eigenvalues: 
  0.838  0.931  0.948
    eigenvectors:
  0.336  0.000  0.664
  0.498  0.251  0.252
  0.166  0.749  0.085
    occupations:
  0.911 -0.045  0.026
 -0.045  0.889  0.024
  0.026  0.024  0.917
atom    8   Tr[ns(na)] =   5.43330
    eigenvalues: 
  0.838  0.931  0.948
    eigenvectors:
  0.336  0.000  0.664
  0.000  1.000  0.000
  0.664  0.000  0.336
    occupations:
  0.911  0.000 -0.052
  0.000  0.931  0.000
 -0.052  0.000  0.875
atom    9   Tr[ns(na)] =   5.43330
    eigenvalues: 
  0.838  0.931  0.948
    eigenvectors:
  0.336  0.000  0.664
  0.498  0.249  0.253
  0.166  0.751  0.084
    occupations:
  0.911  0.045  0.026
  0.045  0.889 -0.024
  0.026 -0.024  0.917
atom   10   Tr[ns(na)] =   5.43330
    eigenvalues: 
  0.838  0.931  0.948
    eigenvectors:
  0.336  0.000  0.664
  0.498  0.251  0.252
  0.166  0.749  0.085
    occupations:
  0.911 -0.045  0.026
 -0.045  0.889  0.024
  0.026  0.024  0.917
N of occupied +U levels =  56.2950993
 --- exit write_ns ---
 --- in v_hubbard ---
Hubbard energy    0.4851
 -------

     total cpu time spent up to now is       98.2 secs

     total energy              =    -537.80352490 Ry
     Harris-Foulkes estimate   =    -537.80343104 Ry
     estimated scf accuracy    <       0.00021498 Ry

     iteration #  7     ecut=    30.00 Ry     beta=0.20
     Davidson diagonalization with overlap
     ethr =  2.83E-07,  avg # of iterations =  2.1
 --- enter write_ns ---
 LDA+U parameters:
U( 1)     =  7.00000000
alpha( 1) = -0.05000000
U( 2)     =  7.00000000
alpha( 2) =  0.00000000
U( 3)     =  0.00000000
alpha( 3) =  0.00000000
U( 4)     =  0.00000000
alpha( 4) =  0.00000000
atom    1   Tr[ns(na)] =   8.04961
    eigenvalues: 
  0.514  0.514  0.998  0.998  1.000
    eigenvectors:
  0.000  0.000  0.000  0.000  1.000
  0.340  0.318  0.002  0.340  0.000
  0.318  0.340  0.340  0.002  0.000
  0.289  0.053  0.521  0.137  0.000
  0.053  0.289  0.137  0.521  0.000
    occupations:
  1.000  0.000  0.000  0.000  0.000
  0.000  0.680  0.000 -0.088  0.212
  0.000  0.000  0.680  0.212  0.088
  0.000 -0.088  0.212  0.833  0.000
  0.000  0.212  0.088  0.000  0.833
atom    2   Tr[ns(na)] =   8.04144
    eigenvalues: 
  0.512  0.512  0.998  0.998  1.000
    eigenvectors:
  0.000  0.000  0.000  0.000  1.000
  0.642  0.016  0.226  0.116  0.000
  0.016  0.642  0.116  0.226  0.000
  0.019  0.323  0.475  0.184  0.000
  0.323  0.019  0.184  0.475  0.000
    occupations:
  1.000  0.000  0.000  0.000  0.000
  0.000  0.678  0.000  0.088  0.213
  0.000  0.000  0.678  0.213 -0.088
  0.000  0.088  0.213  0.832  0.000
  0.000  0.213 -0.088  0.000  0.832
atom    3   Tr[ns(na)] =   3.78843
    eigenvalues: 
  0.356  0.356  0.380  0.401  0.401
    eigenvectors:
  0.000  0.000  1.000  0.000  0.000
  0.783  0.139  0.000  0.012  0.067
  0.139  0.783  0.000  0.067  0.012
  0.012  0.067  0.000  0.780  0.141
  0.067  0.012  0.000  0.141  0.780
    occupations:
  0.380  0.000  0.000  0.000  0.000
  0.000  0.359  0.000  0.000  0.012
  0.000  0.000  0.359  0.012  0.000
  0.000  0.000  0.012  0.398  0.000
  0.000  0.012  0.000  0.000  0.398
atom    4   Tr[ns(na)] =   3.78843
    eigenvalues: 
  0.356  0.356  0.380  0.401  0.401
    eigenvectors:
  0.000  0.000  1.000  0.000  0.000
  0.782  0.139  0.000  0.012  0.067
  0.139  0.782  0.000  0.067  0.012
  0.012  0.067  0.000  0.780  0.141
  0.067  0.012  0.000  0.141  0.780
    occupations:
  0.380  0.000  0.000  0.000  0.000
  0.000  0.359  0.000  0.000  0.012
  0.000  0.000  0.359  0.012  0.000
  0.000  0.000  0.012  0.398  0.000
  0.000  0.012  0.000  0.000  0.398
atom    5   Tr[ns(na)] =   5.43673
    eigenvalues: 
  0.838  0.931  0.949
    eigenvectors:
  0.336  0.000  0.664
  0.498  0.249  0.253
  0.166  0.751  0.084
    occupations:
  0.912  0.045  0.026
  0.045  0.889 -0.024
  0.026 -0.024  0.917
atom    6   Tr[ns(na)] =   5.43673
    eigenvalues: 
  0.838  0.931  0.949
    eigenvectors:
  0.336  0.000  0.664
  0.000  1.000  0.000
  0.664  0.000  0.336
    occupations:
  0.912  0.000 -0.052
  0.000  0.931  0.000
 -0.052  0.000  0.876
atom    7   Tr[ns(na)] =   5.43673
    eigenvalues: 
  0.838  0.931  0.949
    eigenvectors:
  0.336  0.000  0.664
  0.497  0.251  0.252
  0.166  0.749  0.085
    occupations:
  0.912 -0.045  0.026
 -0.045  0.889  0.024
  0.026  0.024  0.917
atom    8   Tr[ns(na)] =   5.43673
    eigenvalues: 
  0.838  0.931  0.949
    eigenvectors:
  0.336  0.000  0.664
  0.000  1.000  0.000
  0.664  0.000  0.336
    occupations:
  0.912  0.000 -0.052
  0.000  0.931  0.000
 -0.052  0.000  0.876
atom    9   Tr[ns(na)] =   5.43673
    eigenvalues: 
  0.838  0.931  0.949
    eigenvectors:
  0.336  0.000  0.664
  0.498  0.249  0.253
  0.166  0.751  0.084
    occupations:
  0.912  0.045  0.026
  0.045  0.889 -0.024
  0.026 -0.024  0.917
atom   10   Tr[ns(na)] =   5.43673
    eigenvalues: 
  0.838  0.931  0.949
    eigenvectors:
  0.336  0.000  0.664
  0.497  0.251  0.252
  0.166  0.749  0.085
    occupations:
  0.912 -0.045  0.026
 -0.045  0.889  0.024
  0.026  0.024  0.917
N of occupied +U levels =  56.2882754
 --- exit write_ns ---
 --- in v_hubbard ---
Hubbard energy    0.4863
 -------

     total cpu time spent up to now is      110.7 secs

     total energy              =    -537.80357393 Ry
     Harris-Foulkes estimate   =    -537.80356670 Ry
     estimated scf accuracy    <       0.00026360 Ry

     iteration #  8     ecut=    30.00 Ry     beta=0.20
     Davidson diagonalization with overlap
     ethr =  2.83E-07,  avg # of iterations =  2.0
 --- enter write_ns ---
 LDA+U parameters:
U( 1)     =  7.00000000
alpha( 1) = -0.05000000
U( 2)     =  7.00000000
alpha( 2) =  0.00000000
U( 3)     =  0.00000000
alpha( 3) =  0.00000000
U( 4)     =  0.00000000
alpha( 4) =  0.00000000
atom    1   Tr[ns(na)] =   8.06326
    eigenvalues: 
  0.518  0.518  0.998  0.998  1.000
    eigenvectors:
  0.000  0.000  0.000  0.000  1.000
  0.340  0.318  0.002  0.340  0.000
  0.318  0.340  0.340  0.002  0.000
  0.289  0.053  0.521  0.137  0.000
  0.053  0.289  0.137  0.521  0.000
    occupations:
  1.000  0.000  0.000  0.000  0.000
  0.000  0.682  0.000 -0.088  0.210
  0.000  0.000  0.682  0.210  0.088
  0.000 -0.088  0.210  0.834  0.000
  0.000  0.210  0.088  0.000  0.834
atom    2   Tr[ns(na)] =   8.04826
    eigenvalues: 
  0.514  0.514  0.998  0.998  1.000
    eigenvectors:
  0.000  0.000  0.000  0.000  1.000
  0.642  0.016  0.226  0.116  0.000
  0.016  0.642  0.116  0.226  0.000
  0.019  0.323  0.475  0.183  0.000
  0.323  0.019  0.183  0.475  0.000
    occupations:
  1.000  0.000  0.000  0.000  0.000
  0.000  0.679  0.000  0.088  0.212
  0.000  0.000  0.679  0.212 -0.088
  0.000  0.088  0.212  0.833  0.000
  0.000  0.212 -0.088  0.000  0.833
atom    3   Tr[ns(na)] =   3.79475
    eigenvalues: 
  0.356  0.356  0.381  0.402  0.402
    eigenvectors:
  0.000  0.000  1.000  0.000  0.000
  0.783  0.138  0.000  0.011  0.067
  0.138  0.783  0.000  0.067  0.011
  0.012  0.066  0.000  0.781  0.141
  0.066  0.012  0.000  0.141  0.781
    occupations:
  0.381  0.000  0.000  0.000  0.000
  0.000  0.360  0.000  0.000  0.012
  0.000  0.000  0.360  0.012  0.000
  0.000  0.000  0.012  0.398  0.000
  0.000  0.012  0.000  0.000  0.398
atom    4   Tr[ns(na)] =   3.79475
    eigenvalues: 
  0.356  0.356  0.381  0.402  0.402
    eigenvectors:
  0.000  0.000  1.000  0.000  0.000
  0.783  0.138  0.000  0.011  0.067
  0.138  0.783  0.000  0.067  0.011
  0.012  0.066  0.000  0.781  0.141
  0.066  0.012  0.000  0.141  0.781
    occupations:
  0.381  0.000  0.000  0.000  0.000
  0.000  0.360  0.000  0.000  0.012
  0.000  0.000  0.360  0.012  0.000
  0.000  0.000  0.012  0.398  0.000
  0.000  0.012  0.000  0.000  0.398
atom    5   Tr[ns(na)] =   5.43205
    eigenvalues: 
  0.837  0.930  0.948
    eigenvectors:
  0.337  0.000  0.663
  0.497  0.250  0.253
  0.166  0.750  0.084
    occupations:
  0.911  0.045  0.026
  0.045  0.889 -0.024
  0.026 -0.024  0.916
atom    6   Tr[ns(na)] =   5.43205
    eigenvalues: 
  0.837  0.930  0.948
    eigenvectors:
  0.337  0.000  0.663
  0.000  1.000  0.000
  0.663  0.000  0.337
    occupations:
  0.911  0.000 -0.052
  0.000  0.930  0.000
 -0.052  0.000  0.875
atom    7   Tr[ns(na)] =   5.43205
    eigenvalues: 
  0.837  0.930  0.948
    eigenvectors:
  0.337  0.000  0.663
  0.498  0.250  0.252
  0.165  0.750  0.085
    occupations:
  0.911 -0.045  0.026
 -0.045  0.889  0.024
  0.026  0.024  0.917
atom    8   Tr[ns(na)] =   5.43205
    eigenvalues: 
  0.837  0.930  0.948
    eigenvectors:
  0.337  0.000  0.663
  0.000  1.000  0.000
  0.663  0.000  0.337
    occupations:
  0.911  0.000 -0.052
  0.000  0.930  0.000
 -0.052  0.000  0.875
atom    9   Tr[ns(na)] =   5.43205
    eigenvalues: 
  0.837  0.930  0.948
    eigenvectors:
  0.337  0.000  0.663
  0.497  0.250  0.253
  0.166  0.750  0.084
    occupations:
  0.911  0.045  0.026
  0.045  0.889 -0.024
  0.026 -0.024  0.916
atom   10   Tr[ns(na)] =   5.43205
    eigenvalues: 
  0.837  0.930  0.948
    eigenvectors:
  0.337  0.000  0.663
  0.498  0.250  0.252
  0.165  0.750  0.085
    occupations:
  0.911 -0.045  0.026
 -0.045  0.889  0.024
  0.026  0.024  0.917
N of occupied +U levels =  56.2933090
 --- exit write_ns ---
 --- in v_hubbard ---
Hubbard energy    0.4875
 -------

     total cpu time spent up to now is      123.3 secs

     total energy              =    -537.80366105 Ry
     Harris-Foulkes estimate   =    -537.80363134 Ry
     estimated scf accuracy    <       0.00007206 Ry

     iteration #  9     ecut=    30.00 Ry     beta=0.20
     Davidson diagonalization with overlap
     ethr =  9.48E-08,  avg # of iterations =  1.0
 --- enter write_ns ---
 LDA+U parameters:
U( 1)     =  7.00000000
alpha( 1) = -0.05000000
U( 2)     =  7.00000000
alpha( 2) =  0.00000000
U( 3)     =  0.00000000
alpha( 3) =  0.00000000
U( 4)     =  0.00000000
alpha( 4) =  0.00000000
atom    1   Tr[ns(na)] =   8.05741
    eigenvalues: 
  0.516  0.516  0.998  0.998  1.000
    eigenvectors:
  0.000  0.000  0.000  0.000  1.000
  0.341  0.317  0.002  0.340  0.000
  0.317  0.341  0.340  0.002  0.000
  0.289  0.053  0.521  0.137  0.000
  0.053  0.289  0.137  0.521  0.000
    occupations:
  1.000  0.000  0.000  0.000  0.000
  0.000  0.681  0.000 -0.089  0.211
  0.000  0.000  0.681  0.211  0.089
  0.000 -0.089  0.211  0.833  0.000
  0.000  0.211  0.089  0.000  0.833
atom    2   Tr[ns(na)] =   8.04703
    eigenvalues: 
  0.513  0.513  0.998  0.998  1.000
    eigenvectors:
  0.000  0.000  0.000  0.000  1.000
  0.643  0.016  0.227  0.115  0.000
  0.016  0.643  0.115  0.227  0.000
  0.020  0.322  0.475  0.183  0.000
  0.322  0.020  0.183  0.475  0.000
    occupations:
  1.000  0.000  0.000  0.000  0.000
  0.000  0.679  0.000  0.089  0.212
  0.000  0.000  0.679  0.212 -0.089
  0.000  0.089  0.212  0.833  0.000
  0.000  0.212 -0.089  0.000  0.833
atom    3   Tr[ns(na)] =   3.79305
    eigenvalues: 
  0.356  0.356  0.381  0.402  0.402
    eigenvectors:
  0.000  0.000  1.000  0.000  0.000
  0.783  0.139  0.000  0.012  0.067
  0.139  0.783  0.000  0.067  0.012
  0.012  0.066  0.000  0.781  0.141
  0.066  0.012  0.000  0.141  0.781
    occupations:
  0.381  0.000  0.000  0.000  0.000
  0.000  0.360  0.000  0.000  0.012
  0.000  0.000  0.360  0.012  0.000
  0.000  0.000  0.012  0.398  0.000
  0.000  0.012  0.000  0.000  0.398
atom    4   Tr[ns(na)] =   3.79305
    eigenvalues: 
  0.356  0.356  0.381  0.402  0.402
    eigenvectors:
  0.000  0.000  1.000  0.000  0.000
  0.782  0.139  0.000  0.012  0.067
  0.139  0.782  0.000  0.067  0.012
  0.012  0.066  0.000  0.781  0.141
  0.066  0.012  0.000  0.141  0.781
    occupations:
  0.381  0.000  0.000  0.000  0.000
  0.000  0.360  0.000  0.000  0.012
  0.000  0.000  0.360  0.012  0.000
  0.000  0.000  0.012  0.398  0.000
  0.000  0.012  0.000  0.000  0.398
atom    5   Tr[ns(na)] =   5.43344
    eigenvalues: 
  0.838  0.931  0.949
    eigenvectors:
  0.337  0.000  0.663
  0.498  0.249  0.253
  0.166  0.751  0.084
    occupations:
  0.911  0.045  0.026
  0.045  0.889 -0.024
  0.026 -0.024  0.917
atom    6   Tr[ns(na)] =   5.43344
    eigenvalues: 
  0.838  0.931  0.949
    eigenvectors:
  0.337  0.000  0.663
  0.000  1.000  0.000
  0.663  0.000  0.337
    occupations:
  0.911  0.000 -0.052
  0.000  0.931  0.000
 -0.052  0.000  0.875
atom    7   Tr[ns(na)] =   5.43344
    eigenvalues: 
  0.838  0.931  0.949
    eigenvectors:
  0.337  0.000  0.663
  0.497  0.251  0.252
  0.166  0.749  0.085
    occupations:
  0.911 -0.045  0.026
 -0.045  0.889  0.024
  0.026  0.024  0.917
atom    8   Tr[ns(na)] =   5.43344
    eigenvalues: 
  0.838  0.931  0.949
    eigenvectors:
  0.337  0.000  0.663
  0.000  1.000  0.000
  0.663  0.000  0.337
    occupations:
  0.911  0.000 -0.052
  0.000  0.931  0.000
 -0.052  0.000  0.875
atom    9   Tr[ns(na)] =   5.43344
    eigenvalues: 
  0.838  0.931  0.949
    eigenvectors:
  0.337  0.000  0.663
  0.498  0.249  0.253
  0.166  0.751  0.084
    occupations:
  0.911  0.045  0.026
  0.045  0.889 -0.024
  0.026 -0.024  0.917
atom   10   Tr[ns(na)] =   5.43344
    eigenvalues: 
  0.838  0.931  0.949
    eigenvectors:
  0.337  0.000  0.663
  0.497  0.251  0.252
  0.166  0.749  0.085
    occupations:
  0.911 -0.045  0.026
 -0.045  0.889  0.024
  0.026  0.024  0.917
N of occupied +U levels =  56.2911497
 --- exit write_ns ---
 --- in v_hubbard ---
Hubbard energy    0.4880
 -------

     total cpu time spent up to now is      134.3 secs

     total energy              =    -537.80370477 Ry
     Harris-Foulkes estimate   =    -537.80366922 Ry
     estimated scf accuracy    <       0.00000629 Ry

     iteration # 10     ecut=    30.00 Ry     beta=0.20
     Davidson diagonalization with overlap
     ethr =  8.27E-09,  avg # of iterations =  2.6
 --- enter write_ns ---
 LDA+U parameters:
U( 1)     =  7.00000000
alpha( 1) = -0.05000000
U( 2)     =  7.00000000
alpha( 2) =  0.00000000
U( 3)     =  0.00000000
alpha( 3) =  0.00000000
U( 4)     =  0.00000000
alpha( 4) =  0.00000000
atom    1   Tr[ns(na)] =   8.06021
    eigenvalues: 
  0.517  0.517  0.998  0.998  1.000
    eigenvectors:
  0.000  0.000  0.000  0.000  1.000
  0.340  0.318  0.002  0.340  0.000
  0.318  0.340  0.340  0.002  0.000
  0.289  0.053  0.521  0.137  0.000
  0.053  0.289  0.137  0.521  0.000
    occupations:
  1.000  0.000  0.000  0.000  0.000
  0.000  0.681  0.000 -0.089  0.210
  0.000  0.000  0.681  0.210  0.089
  0.000 -0.089  0.210  0.834  0.000
  0.000  0.210  0.089  0.000  0.834
atom    2   Tr[ns(na)] =   8.04926
    eigenvalues: 
  0.514  0.514  0.998  0.998  1.000
    eigenvectors:
  0.000  0.000  0.000  0.000  1.000
  0.643  0.015  0.227  0.115  0.000
  0.015  0.643  0.115  0.227  0.000
  0.020  0.322  0.475  0.183  0.000
  0.322  0.020  0.183  0.475  0.000
    occupations:
  1.000  0.000  0.000  0.000  0.000
  0.000  0.679  0.000  0.089  0.212
  0.000  0.000  0.679  0.212 -0.089
  0.000  0.089  0.212  0.833  0.000
  0.000  0.212 -0.089  0.000  0.833
atom    3   Tr[ns(na)] =   3.79183
    eigenvalues: 
  0.356  0.356  0.381  0.401  0.401
    eigenvectors:
  0.000  0.000  1.000  0.000  0.000
  0.783  0.139  0.000  0.012  0.067
  0.139  0.783  0.000  0.067  0.012
  0.012  0.066  0.000  0.781  0.141
  0.066  0.012  0.000  0.141  0.781
    occupations:
  0.381  0.000  0.000  0.000  0.000
  0.000  0.360  0.000  0.000  0.012
  0.000  0.000  0.360  0.012  0.000
  0.000  0.000  0.012  0.398  0.000
  0.000  0.012  0.000  0.000  0.398
atom    4   Tr[ns(na)] =   3.79183
    eigenvalues: 
  0.356  0.356  0.381  0.401  0.401
    eigenvectors:
  0.000  0.000  1.000  0.000  0.000
  0.782  0.139  0.000  0.012  0.067
  0.139  0.782  0.000  0.067  0.012
  0.012  0.066  0.000  0.780  0.141
  0.066  0.012  0.000  0.141  0.780
    occupations:
  0.381  0.000  0.000  0.000  0.000
  0.000  0.360  0.000  0.000  0.012
  0.000  0.000  0.360  0.012  0.000
  0.000  0.000  0.012  0.398  0.000
  0.000  0.012  0.000  0.000  0.398
atom    5   Tr[ns(na)] =   5.43292
    eigenvalues: 
  0.837  0.931  0.949
    eigenvectors:
  0.337  0.000  0.663
  0.497  0.249  0.253
  0.166  0.751  0.084
    occupations:
  0.911  0.045  0.026
  0.045  0.889 -0.024
  0.026 -0.024  0.917
atom    6   Tr[ns(na)] =   5.43292
    eigenvalues: 
  0.837  0.931  0.949
    eigenvectors:
  0.337  0.000  0.663
  0.000  1.000  0.000
  0.663  0.000  0.337
    occupations:
  0.911  0.000 -0.053
  0.000  0.931  0.000
 -0.053  0.000  0.875
atom    7   Tr[ns(na)] =   5.43292
    eigenvalues: 
  0.837  0.931  0.949
    eigenvectors:
  0.337  0.000  0.663
  0.497  0.251  0.252
  0.166  0.749  0.085
    occupations:
  0.911 -0.045  0.026
 -0.045  0.889  0.024
  0.026  0.024  0.917
atom    8   Tr[ns(na)] =   5.43292
    eigenvalues: 
  0.837  0.931  0.949
    eigenvectors:
  0.337  0.000  0.663
  0.000  1.000  0.000
  0.663  0.000  0.337
    occupations:
  0.911  0.000 -0.053
  0.000  0.931  0.000
 -0.053  0.000  0.875
atom    9   Tr[ns(na)] =   5.43292
    eigenvalues: 
  0.837  0.931  0.949
    eigenvectors:
  0.337  0.000  0.663
  0.497  0.249  0.253
  0.166  0.751  0.084
    occupations:
  0.911  0.045  0.026
  0.045  0.889 -0.024
  0.026 -0.024  0.917
atom   10   Tr[ns(na)] =   5.43292
    eigenvalues: 
  0.837  0.931  0.949
    eigenvectors:
  0.337  0.000  0.663
  0.497  0.251  0.252
  0.166  0.749  0.085
    occupations:
  0.911 -0.045  0.026
 -0.045  0.889  0.024
  0.026  0.024  0.917
N of occupied +U levels =  56.2906528
 --- exit write_ns ---
 --- in v_hubbard ---
Hubbard energy    0.4883
 -------

     total cpu time spent up to now is      150.8 secs

     total energy              =    -537.80372095 Ry
     Harris-Foulkes estimate   =    -537.80370803 Ry
     estimated scf accuracy    <       0.00002300 Ry

     iteration # 11     ecut=    30.00 Ry     beta=0.20
     Davidson diagonalization with overlap
     ethr =  8.27E-09,  avg # of iterations =  2.0
 --- enter write_ns ---
 LDA+U parameters:
U( 1)     =  7.00000000
alpha( 1) = -0.05000000
U( 2)     =  7.00000000
alpha( 2) =  0.00000000
U( 3)     =  0.00000000
alpha( 3) =  0.00000000
U( 4)     =  0.00000000
alpha( 4) =  0.00000000
atom    1   Tr[ns(na)] =   8.05582
    eigenvalues: 
  0.516  0.516  0.998  0.998  1.000
    eigenvectors:
  0.000  0.000  0.000  0.000  1.000
  0.341  0.317  0.002  0.340  0.000
  0.317  0.341  0.340  0.002  0.000
  0.290  0.052  0.522  0.136  0.000
  0.052  0.290  0.136  0.522  0.000
    occupations:
  1.000  0.000  0.000  0.000  0.000
  0.000  0.681  0.000 -0.089  0.211
  0.000  0.000  0.681  0.211  0.089
  0.000 -0.089  0.211  0.833  0.000
  0.000  0.211  0.089  0.000  0.833
atom    2   Tr[ns(na)] =   8.04628
    eigenvalues: 
  0.513  0.513  0.998  0.998  1.000
    eigenvectors:
  0.000  0.000  0.000  0.000  1.000
  0.644  0.015  0.228  0.114  0.000
  0.015  0.644  0.114  0.228  0.000
  0.021  0.321  0.475  0.183  0.000
  0.321  0.021  0.183  0.475  0.000
    occupations:
  1.000  0.000  0.000  0.000  0.000
  0.000  0.679  0.000  0.089  0.212
  0.000  0.000  0.679  0.212 -0.089
  0.000  0.089  0.212  0.832  0.000
  0.000  0.212 -0.089  0.000  0.832
atom    3   Tr[ns(na)] =   3.79168
    eigenvalues: 
  0.356  0.356  0.381  0.401  0.401
    eigenvectors:
  0.000  0.000  1.000  0.000  0.000
  0.783  0.139  0.000  0.012  0.067
  0.139  0.783  0.000  0.067  0.012
  0.012  0.066  0.000  0.780  0.141
  0.066  0.012  0.000  0.141  0.780
    occupations:
  0.381  0.000  0.000  0.000  0.000
  0.000  0.360  0.000  0.000  0.012
  0.000  0.000  0.360  0.012  0.000
  0.000  0.000  0.012  0.398  0.000
  0.000  0.012  0.000  0.000  0.398
atom    4   Tr[ns(na)] =   3.79168
    eigenvalues: 
  0.356  0.356  0.381  0.401  0.401
    eigenvectors:
  0.000  0.000  1.000  0.000  0.000
  0.783  0.139  0.000  0.012  0.067
  0.139  0.783  0.000  0.067  0.012
  0.012  0.066  0.000  0.781  0.141
  0.066  0.012  0.000  0.141  0.781
    occupations:
  0.381  0.000  0.000  0.000  0.000
  0.000  0.360  0.000  0.000  0.012
  0.000  0.000  0.360  0.012  0.000
  0.000  0.000  0.012  0.398  0.000
  0.000  0.012  0.000  0.000  0.398
atom    5   Tr[ns(na)] =   5.43406
    eigenvalues: 
  0.838  0.931  0.949
    eigenvectors:
  0.337  0.000  0.663
  0.498  0.249  0.253
  0.166  0.751  0.084
    occupations:
  0.911  0.045  0.026
  0.045  0.889 -0.024
  0.026 -0.024  0.917
atom    6   Tr[ns(na)] =   5.43406
    eigenvalues: 
  0.838  0.931  0.949
    eigenvectors:
  0.337  0.000  0.663
  0.000  1.000  0.000
  0.663  0.000  0.337
    occupations:
  0.911  0.000 -0.052
  0.000  0.931  0.000
 -0.052  0.000  0.875
atom    7   Tr[ns(na)] =   5.43406
    eigenvalues: 
  0.838  0.931  0.949
    eigenvectors:
  0.337  0.000  0.663
  0.497  0.251  0.252
  0.166  0.749  0.085
    occupations:
  0.911 -0.045  0.026
 -0.045  0.889  0.024
  0.026  0.024  0.917
atom    8   Tr[ns(na)] =   5.43406
    eigenvalues: 
  0.838  0.931  0.949
    eigenvectors:
  0.337  0.000  0.663
  0.000  1.000  0.000
  0.663  0.000  0.337
    occupations:
  0.911  0.000 -0.052
  0.000  0.931  0.000
 -0.052  0.000  0.875
atom    9   Tr[ns(na)] =   5.43406
    eigenvalues: 
  0.838  0.931  0.949
    eigenvectors:
  0.337  0.000  0.663
  0.498  0.249  0.253
  0.166  0.751  0.084
    occupations:
  0.911  0.045  0.026
  0.045  0.889 -0.024
  0.026 -0.024  0.917
atom   10   Tr[ns(na)] =   5.43406
    eigenvalues: 
  0.838  0.931  0.949
    eigenvectors:
  0.337  0.000  0.663
  0.497  0.251  0.252
  0.166  0.749  0.085
    occupations:
  0.911 -0.045  0.026
 -0.045  0.889  0.024
  0.026  0.024  0.917
N of occupied +U levels =  56.2898144
 --- exit write_ns ---
 --- in v_hubbard ---
Hubbard energy    0.4883
 -------

     total cpu time spent up to now is      165.7 secs

     total energy              =    -537.80374101 Ry
     Harris-Foulkes estimate   =    -537.80372573 Ry
     estimated scf accuracy    <       0.00000246 Ry

     iteration # 12     ecut=    30.00 Ry     beta=0.20
     Davidson diagonalization with overlap
     ethr =  3.24E-09,  avg # of iterations =  2.0
 --- enter write_ns ---
 LDA+U parameters:
U( 1)     =  7.00000000
alpha( 1) = -0.05000000
U( 2)     =  7.00000000
alpha( 2) =  0.00000000
U( 3)     =  0.00000000
alpha( 3) =  0.00000000
U( 4)     =  0.00000000
alpha( 4) =  0.00000000
atom    1   Tr[ns(na)] =   8.05691
    eigenvalues: 
  0.516  0.516  0.998  0.998  1.000
    eigenvectors:
  0.000  0.000  0.000  0.000  1.000
  0.342  0.317  0.002  0.340  0.000
  0.317  0.342  0.340  0.002  0.000
  0.290  0.052  0.522  0.136  0.000
  0.052  0.290  0.136  0.522  0.000
    occupations:
  1.000  0.000  0.000  0.000  0.000
  0.000  0.681  0.000 -0.090  0.210
  0.000  0.000  0.681  0.210  0.090
  0.000 -0.090  0.210  0.833  0.000
  0.000  0.210  0.090  0.000  0.833
atom    2   Tr[ns(na)] =   8.04663
    eigenvalues: 
  0.513  0.513  0.998  0.998  1.000
    eigenvectors:
  0.000  0.000  0.000  0.000  1.000
  0.644  0.014  0.228  0.114  0.000
  0.014  0.644  0.114  0.228  0.000
  0.021  0.321  0.475  0.183  0.000
  0.321  0.021  0.183  0.475  0.000
    occupations:
  1.000  0.000  0.000  0.000  0.000
  0.000  0.679  0.000  0.089  0.212
  0.000  0.000  0.679  0.212 -0.089
  0.000  0.089  0.212  0.833  0.000
  0.000  0.212 -0.089  0.000  0.833
atom    3   Tr[ns(na)] =   3.79258
    eigenvalues: 
  0.356  0.356  0.381  0.402  0.402
    eigenvectors:
  0.000  0.000  1.000  0.000  0.000
  0.783  0.139  0.000  0.011  0.067
  0.139  0.783  0.000  0.067  0.011
  0.012  0.066  0.000  0.781  0.141
  0.066  0.012  0.000  0.141  0.781
    occupations:
  0.381  0.000  0.000  0.000  0.000
  0.000  0.360  0.000  0.000  0.012
  0.000  0.000  0.360  0.012  0.000
  0.000  0.000  0.012  0.398  0.000
  0.000  0.012  0.000  0.000  0.398
atom    4   Tr[ns(na)] =   3.79258
    eigenvalues: 
  0.356  0.356  0.381  0.402  0.402
    eigenvectors:
  0.000  0.000  1.000  0.000  0.000
  0.783  0.139  0.000  0.011  0.067
  0.139  0.783  0.000  0.067  0.011
  0.012  0.066  0.000  0.781  0.141
  0.066  0.012  0.000  0.141  0.781
    occupations:
  0.381  0.000  0.000  0.000  0.000
  0.000  0.360  0.000  0.000  0.012
  0.000  0.000  0.360  0.012  0.000
  0.000  0.000  0.012  0.398  0.000
  0.000  0.012  0.000  0.000  0.398
atom    5   Tr[ns(na)] =   5.43365
    eigenvalues: 
  0.838  0.931  0.949
    eigenvectors:
  0.337  0.000  0.663
  0.498  0.249  0.253
  0.166  0.751  0.084
    occupations:
  0.911  0.045  0.026
  0.045  0.889 -0.024
  0.026 -0.024  0.917
atom    6   Tr[ns(na)] =   5.43365
    eigenvalues: 
  0.838  0.931  0.949
    eigenvectors:
  0.337  0.000  0.663
  0.000  1.000  0.000
  0.663  0.000  0.337
    occupations:
  0.911  0.000 -0.052
  0.000  0.931  0.000
 -0.052  0.000  0.875
atom    7   Tr[ns(na)] =   5.43365
    eigenvalues: 
  0.838  0.931  0.949
    eigenvectors:
  0.337  0.000  0.663
  0.497  0.251  0.252
  0.166  0.749  0.085
    occupations:
  0.911 -0.045  0.026
 -0.045  0.889  0.024
  0.026  0.024  0.917
atom    8   Tr[ns(na)] =   5.43365
    eigenvalues: 
  0.838  0.931  0.949
    eigenvectors:
  0.337  0.000  0.663
  0.000  1.000  0.000
  0.663  0.000  0.337
    occupations:
  0.911  0.000 -0.052
  0.000  0.931  0.000
 -0.052  0.000  0.875
atom    9   Tr[ns(na)] =   5.43365
    eigenvalues: 
  0.838  0.931  0.949
    eigenvectors:
  0.337  0.000  0.663
  0.498  0.249  0.253
  0.166  0.751  0.084
    occupations:
  0.911  0.045  0.026
  0.045  0.889 -0.024
  0.026 -0.024  0.917
atom   10   Tr[ns(na)] =   5.43365
    eigenvalues: 
  0.838  0.931  0.949
    eigenvectors:
  0.337  0.000  0.663
  0.497  0.251  0.252
  0.166  0.749  0.085
    occupations:
  0.911 -0.045  0.026
 -0.045  0.889  0.024
  0.026  0.024  0.917
N of occupied +U levels =  56.2906026
 --- exit write_ns ---
 --- in v_hubbard ---
Hubbard energy    0.4880
 -------

     total cpu time spent up to now is      181.3 secs

     total energy              =    -537.80375076 Ry
     Harris-Foulkes estimate   =    -537.80374172 Ry
     estimated scf accuracy    <       0.00000120 Ry

     iteration # 13     ecut=    30.00 Ry     beta=0.20
     Davidson diagonalization with overlap
     ethr =  1.58E-09,  avg # of iterations =  1.4
 --- enter write_ns ---
 LDA+U parameters:
U( 1)     =  7.00000000
alpha( 1) = -0.05000000
U( 2)     =  7.00000000
alpha( 2) =  0.00000000
U( 3)     =  0.00000000
alpha( 3) =  0.00000000
U( 4)     =  0.00000000
alpha( 4) =  0.00000000
atom    1   Tr[ns(na)] =   8.05707
    eigenvalues: 
  0.516  0.516  0.998  0.998  1.000
    eigenvectors:
  0.000  0.000  0.000  0.000  1.000
  0.342  0.316  0.002  0.340  0.000
  0.316  0.342  0.340  0.002  0.000
  0.290  0.052  0.522  0.136  0.000
  0.052  0.290  0.136  0.522  0.000
    occupations:
  1.000  0.000  0.000  0.000  0.000
  0.000  0.681  0.000 -0.090  0.210
  0.000  0.000  0.681  0.210  0.090
  0.000 -0.090  0.210  0.833  0.000
  0.000  0.210  0.090  0.000  0.833
atom    2   Tr[ns(na)] =   8.04666
    eigenvalues: 
  0.513  0.513  0.998  0.998  1.000
    eigenvectors:
  0.000  0.000  0.000  0.000  1.000
  0.644  0.014  0.228  0.114  0.000
  0.014  0.644  0.114  0.228  0.000
  0.022  0.320  0.475  0.183  0.000
  0.320  0.022  0.183  0.475  0.000
    occupations:
  1.000  0.000  0.000  0.000  0.000
  0.000  0.679  0.000  0.090  0.212
  0.000  0.000  0.679  0.212 -0.090
  0.000  0.090  0.212  0.833  0.000
  0.000  0.212 -0.090  0.000  0.833
atom    3   Tr[ns(na)] =   3.79246
    eigenvalues: 
  0.356  0.356  0.381  0.401  0.401
    eigenvectors:
  0.000  0.000  1.000  0.000  0.000
  0.782  0.139  0.000  0.011  0.067
  0.139  0.782  0.000  0.067  0.011
  0.012  0.066  0.000  0.781  0.141
  0.066  0.012  0.000  0.141  0.781
    occupations:
  0.381  0.000  0.000  0.000  0.000
  0.000  0.360  0.000  0.000  0.012
  0.000  0.000  0.360  0.012  0.000
  0.000  0.000  0.012  0.398  0.000
  0.000  0.012  0.000  0.000  0.398
atom    4   Tr[ns(na)] =   3.79246
    eigenvalues: 
  0.356  0.356  0.381  0.401  0.401
    eigenvectors:
  0.000  0.000  1.000  0.000  0.000
  0.783  0.139  0.000  0.011  0.067
  0.139  0.783  0.000  0.067  0.011
  0.012  0.066  0.000  0.781  0.141
  0.066  0.012  0.000  0.141  0.781
    occupations:
  0.381  0.000  0.000  0.000  0.000
  0.000  0.360  0.000  0.000  0.012
  0.000  0.000  0.360  0.012  0.000
  0.000  0.000  0.012  0.398  0.000
  0.000  0.012  0.000  0.000  0.398
atom    5   Tr[ns(na)] =   5.43366
    eigenvalues: 
  0.838  0.931  0.949
    eigenvectors:
  0.337  0.000  0.663
  0.498  0.249  0.253
  0.166  0.751  0.084
    occupations:
  0.911  0.045  0.026
  0.045  0.889 -0.024
  0.026 -0.024  0.917
atom    6   Tr[ns(na)] =   5.43366
    eigenvalues: 
  0.838  0.931  0.949
    eigenvectors:
  0.337  0.000  0.663
  0.000  1.000  0.000
  0.663  0.000  0.337
    occupations:
  0.911  0.000 -0.052
  0.000  0.931  0.000
 -0.052  0.000  0.875
atom    7   Tr[ns(na)] =   5.43366
    eigenvalues: 
  0.838  0.931  0.949
    eigenvectors:
  0.337  0.000  0.663
  0.498  0.251  0.252
  0.166  0.749  0.085
    occupations:
  0.911 -0.045  0.026
 -0.045  0.889  0.024
  0.026  0.024  0.917
atom    8   Tr[ns(na)] =   5.43366
    eigenvalues: 
  0.838  0.931  0.949
    eigenvectors:
  0.337  0.000  0.663
  0.000  1.000  0.000
  0.663  0.000  0.337
    occupations:
  0.911  0.000 -0.052
  0.000  0.931  0.000
 -0.052  0.000  0.875
atom    9   Tr[ns(na)] =   5.43366
    eigenvalues: 
  0.838  0.931  0.949
    eigenvectors:
  0.337  0.000  0.663
  0.498  0.249  0.253
  0.166  0.751  0.084
    occupations:
  0.911  0.045  0.026
  0.045  0.889 -0.024
  0.026 -0.024  0.917
atom   10   Tr[ns(na)] =   5.43366
    eigenvalues: 
  0.838  0.931  0.949
    eigenvectors:
  0.337  0.000  0.663
  0.498  0.251  0.252
  0.166  0.749  0.085
    occupations:
  0.911 -0.045  0.026
 -0.045  0.889  0.024
  0.026  0.024  0.917
N of occupied +U levels =  56.2906291
 --- exit write_ns ---
 --- in v_hubbard ---
Hubbard energy    0.4880
 -------

     total cpu time spent up to now is      193.2 secs

     total energy              =    -537.80375714 Ry
     Harris-Foulkes estimate   =    -537.80375137 Ry
     estimated scf accuracy    <       0.00000032 Ry

     iteration # 14     ecut=    30.00 Ry     beta=0.20
     Davidson diagonalization with overlap
     ethr =  4.25E-10,  avg # of iterations =  2.0
 --- enter write_ns ---
 LDA+U parameters:
U( 1)     =  7.00000000
alpha( 1) = -0.05000000
U( 2)     =  7.00000000
alpha( 2) =  0.00000000
U( 3)     =  0.00000000
alpha( 3) =  0.00000000
U( 4)     =  0.00000000
alpha( 4) =  0.00000000
atom    1   Tr[ns(na)] =   8.05685
    eigenvalues: 
  0.516  0.516  0.998  0.998  1.000
    eigenvectors:
  0.000  0.000  0.000  0.000  1.000
  0.342  0.316  0.002  0.340  0.000
  0.316  0.342  0.340  0.002  0.000
  0.290  0.052  0.522  0.136  0.000
  0.052  0.290  0.136  0.522  0.000
    occupations:
  1.000  0.000  0.000  0.000  0.000
  0.000  0.681  0.000 -0.090  0.210
  0.000  0.000  0.681  0.210  0.090
  0.000 -0.090  0.210  0.833  0.000
  0.000  0.210  0.090  0.000  0.833
atom    2   Tr[ns(na)] =   8.04658
    eigenvalues: 
  0.513  0.513  0.998  0.998  1.000
    eigenvectors:
  0.000  0.000  0.000  0.000  1.000
  0.644  0.014  0.228  0.114  0.000
  0.014  0.644  0.114  0.228  0.000
  0.022  0.320  0.475  0.183  0.000
  0.320  0.022  0.183  0.475  0.000
    occupations:
  1.000  0.000  0.000  0.000  0.000
  0.000  0.679  0.000  0.090  0.212
  0.000  0.000  0.679  0.212 -0.090
  0.000  0.090  0.212  0.833  0.000
  0.000  0.212 -0.090  0.000  0.833
atom    3   Tr[ns(na)] =   3.79223
    eigenvalues: 
  0.356  0.356  0.381  0.401  0.401
    eigenvectors:
  0.000  0.000  1.000  0.000  0.000
  0.783  0.139  0.000  0.012  0.067
  0.139  0.783  0.000  0.067  0.012
  0.012  0.066  0.000  0.781  0.141
  0.066  0.012  0.000  0.141  0.781
    occupations:
  0.381  0.000  0.000  0.000  0.000
  0.000  0.360  0.000  0.000  0.012
  0.000  0.000  0.360  0.012  0.000
  0.000  0.000  0.012  0.398  0.000
  0.000  0.012  0.000  0.000  0.398
atom    4   Tr[ns(na)] =   3.79223
    eigenvalues: 
  0.356  0.356  0.381  0.401  0.401
    eigenvectors:
  0.000  0.000  1.000  0.000  0.000
  0.783  0.139  0.000  0.012  0.067
  0.139  0.783  0.000  0.067  0.012
  0.012  0.066  0.000  0.781  0.141
  0.066  0.012  0.000  0.141  0.781
    occupations:
  0.381  0.000  0.000  0.000  0.000
  0.000  0.360  0.000  0.000  0.012
  0.000  0.000  0.360  0.012  0.000
  0.000  0.000  0.012  0.398  0.000
  0.000  0.012  0.000  0.000  0.398
atom    5   Tr[ns(na)] =   5.43376
    eigenvalues: 
  0.838  0.931  0.949
    eigenvectors:
  0.337  0.000  0.663
  0.498  0.249  0.253
  0.166  0.751  0.084
    occupations:
  0.911  0.045  0.026
  0.045  0.889 -0.024
  0.026 -0.024  0.917
atom    6   Tr[ns(na)] =   5.43376
    eigenvalues: 
  0.838  0.931  0.949
    eigenvectors:
  0.337  0.000  0.663
  0.000  1.000  0.000
  0.663  0.000  0.337
    occupations:
  0.911  0.000 -0.052
  0.000  0.931  0.000
 -0.052  0.000  0.875
atom    7   Tr[ns(na)] =   5.43376
    eigenvalues: 
  0.838  0.931  0.949
    eigenvectors:
  0.337  0.000  0.663
  0.497  0.251  0.252
  0.166  0.749  0.085
    occupations:
  0.911 -0.045  0.026
 -0.045  0.889  0.024
  0.026  0.024  0.917
atom    8   Tr[ns(na)] =   5.43376
    eigenvalues: 
  0.838  0.931  0.949
    eigenvectors:
  0.337  0.000  0.663
  0.000  1.000  0.000
  0.663  0.000  0.337
    occupations:
  0.911  0.000 -0.052
  0.000  0.931  0.000
 -0.052  0.000  0.875
atom    9   Tr[ns(na)] =   5.43376
    eigenvalues: 
  0.838  0.931  0.949
    eigenvectors:
  0.337  0.000  0.663
  0.498  0.249  0.253
  0.166  0.751  0.084
    occupations:
  0.911  0.045  0.026
  0.045  0.889 -0.024
  0.026 -0.024  0.917
atom   10   Tr[ns(na)] =   5.43376
    eigenvalues: 
  0.838  0.931  0.949
    eigenvectors:
  0.337  0.000  0.663
  0.497  0.251  0.252
  0.166  0.749  0.085
    occupations:
  0.911 -0.045  0.026
 -0.045  0.889  0.024
  0.026  0.024  0.917
N of occupied +U levels =  56.2904309
 --- exit write_ns ---
 --- in v_hubbard ---
Hubbard energy    0.4879
 -------

     total cpu time spent up to now is      210.0 secs

     total energy              =    -537.80376115 Ry
     Harris-Foulkes estimate   =    -537.80375718 Ry
     estimated scf accuracy    <       0.00000003 Ry

     iteration # 15     ecut=    30.00 Ry     beta=0.20
     Davidson diagonalization with overlap
     ethr =  3.60E-11,  avg # of iterations =  2.0
 --- enter write_ns ---
 LDA+U parameters:
U( 1)     =  7.00000000
alpha( 1) = -0.05000000
U( 2)     =  7.00000000
alpha( 2) =  0.00000000
U( 3)     =  0.00000000
alpha( 3) =  0.00000000
U( 4)     =  0.00000000
alpha( 4) =  0.00000000
atom    1   Tr[ns(na)] =   8.05681
    eigenvalues: 
  0.516  0.516  0.998  0.998  1.000
    eigenvectors:
  0.000  0.000  0.000  0.000  1.000
  0.342  0.316  0.002  0.340  0.000
  0.316  0.342  0.340  0.002  0.000
  0.290  0.052  0.522  0.136  0.000
  0.052  0.290  0.136  0.522  0.000
    occupations:
  1.000  0.000  0.000  0.000  0.000
  0.000  0.681  0.000 -0.090  0.210
  0.000  0.000  0.681  0.210  0.090
  0.000 -0.090  0.210  0.833  0.000
  0.000  0.210  0.090  0.000  0.833
atom    2   Tr[ns(na)] =   8.04657
    eigenvalues: 
  0.513  0.513  0.998  0.998  1.000
    eigenvectors:
  0.000  0.000  0.000  0.000  1.000
  0.644  0.014  0.228  0.114  0.000
  0.014  0.644  0.114  0.228  0.000
  0.022  0.320  0.475  0.183  0.000
  0.320  0.022  0.183  0.475  0.000
    occupations:
  1.000  0.000  0.000  0.000  0.000
  0.000  0.679  0.000  0.090  0.212
  0.000  0.000  0.679  0.212 -0.090
  0.000  0.090  0.212  0.833  0.000
  0.000  0.212 -0.090  0.000  0.833
atom    3   Tr[ns(na)] =   3.79224
    eigenvalues: 
  0.356  0.356  0.381  0.401  0.401
    eigenvectors:
  0.000  0.000  1.000  0.000  0.000
  0.783  0.138  0.000  0.011  0.067
  0.138  0.783  0.000  0.067  0.011
  0.012  0.066  0.000  0.781  0.141
  0.066  0.012  0.000  0.141  0.781
    occupations:
  0.381  0.000  0.000  0.000  0.000
  0.000  0.360  0.000  0.000  0.012
  0.000  0.000  0.360  0.012  0.000
  0.000  0.000  0.012  0.398  0.000
  0.000  0.012  0.000  0.000  0.398
atom    4   Tr[ns(na)] =   3.79224
    eigenvalues: 
  0.356  0.356  0.381  0.401  0.401
    eigenvectors:
  0.000  0.000  1.000  0.000  0.000
  0.783  0.138  0.000  0.011  0.067
  0.138  0.783  0.000  0.067  0.011
  0.012  0.066  0.000  0.781  0.141
  0.066  0.012  0.000  0.141  0.781
    occupations:
  0.381  0.000  0.000  0.000  0.000
  0.000  0.360  0.000  0.000  0.012
  0.000  0.000  0.360  0.012  0.000
  0.000  0.000  0.012  0.398  0.000
  0.000  0.012  0.000  0.000  0.398
atom    5   Tr[ns(na)] =   5.43376
    eigenvalues: 
  0.838  0.931  0.949
    eigenvectors:
  0.337  0.000  0.663
  0.498  0.249  0.253
  0.166  0.751  0.084
    occupations:
  0.911  0.045  0.026
  0.045  0.889 -0.024
  0.026 -0.024  0.917
atom    6   Tr[ns(na)] =   5.43376
    eigenvalues: 
  0.838  0.931  0.949
    eigenvectors:
  0.337  0.000  0.663
  0.000  1.000  0.000
  0.663  0.000  0.337
    occupations:
  0.911  0.000 -0.052
  0.000  0.931  0.000
 -0.052  0.000  0.875
atom    7   Tr[ns(na)] =   5.43376
    eigenvalues: 
  0.838  0.931  0.949
    eigenvectors:
  0.337  0.000  0.663
  0.497  0.251  0.252
  0.166  0.749  0.085
    occupations:
  0.911 -0.045  0.026
 -0.045  0.889  0.024
  0.026  0.024  0.917
atom    8   Tr[ns(na)] =   5.43376
    eigenvalues: 
  0.838  0.931  0.949
    eigenvectors:
  0.337  0.000  0.663
  0.000  1.000  0.000
  0.663  0.000  0.337
    occupations:
  0.911  0.000 -0.052
  0.000  0.931  0.000
 -0.052  0.000  0.875
atom    9   Tr[ns(na)] =   5.43376
    eigenvalues: 
  0.838  0.931  0.949
    eigenvectors:
  0.337  0.000  0.663
  0.498  0.249  0.253
  0.166  0.751  0.084
    occupations:
  0.911  0.045  0.026
  0.045  0.889 -0.024
  0.026 -0.024  0.917
atom   10   Tr[ns(na)] =   5.43376
    eigenvalues: 
  0.838  0.931  0.949
    eigenvectors:
  0.337  0.000  0.663
  0.497  0.251  0.252
  0.166  0.749  0.085
    occupations:
  0.911 -0.045  0.026
 -0.045  0.889  0.024
  0.026  0.024  0.917
N of occupied +U levels =  56.2904411
 --- exit write_ns ---
 --- in v_hubbard ---
Hubbard energy    0.4879
 -------

     total cpu time spent up to now is      223.6 secs

     total energy              =    -537.80376371 Ry
[...]
  0.000 -0.090  0.210  0.833  0.000
  0.000  0.210  0.090  0.000  0.833
atom    2   Tr[ns(na)] =   8.04657
    eigenvalues: 
  0.513  0.513  0.998  0.998  1.000
    eigenvectors:
  0.000  0.000  0.000  0.000  1.000
  0.644  0.014  0.228  0.114  0.000
  0.014  0.644  0.114  0.228  0.000
  0.022  0.320  0.475  0.183  0.000
  0.320  0.022  0.183  0.475  0.000
    occupations:
  1.000  0.000  0.000  0.000  0.000
  0.000  0.679  0.000  0.090  0.212
  0.000  0.000  0.679  0.212 -0.090
  0.000  0.090  0.212  0.833  0.000
  0.000  0.212 -0.090  0.000  0.833
atom    3   Tr[ns(na)] =   3.79216
    eigenvalues: 
  0.356  0.356  0.381  0.401  0.401
    eigenvectors:
  0.000  0.000  1.000  0.000  0.000
  0.783  0.138  0.000  0.012  0.067
  0.138  0.783  0.000  0.067  0.012
  0.012  0.066  0.000  0.781  0.141
  0.066  0.012  0.000  0.141  0.781
    occupations:
  0.381  0.000  0.000  0.000  0.000
  0.000  0.360  0.000  0.000  0.012
  0.000  0.000  0.360  0.012  0.000
  0.000  0.000  0.012  0.398  0.000
  0.000  0.012  0.000  0.000  0.398
atom    4   Tr[ns(na)] =   3.79216
    eigenvalues: 
  0.356  0.356  0.381  0.401  0.401
    eigenvectors:
  0.000  0.000  1.000  0.000  0.000
  0.783  0.138  0.000  0.012  0.067
  0.138  0.783  0.000  0.067  0.012
  0.012  0.066  0.000  0.781  0.141
  0.066  0.012  0.000  0.141  0.781
    occupations:
  0.381  0.000  0.000  0.000  0.000
  0.000  0.360  0.000  0.000  0.012
  0.000  0.000  0.360  0.012  0.000
  0.000  0.000  0.012  0.398  0.000
  0.000  0.012  0.000  0.000  0.398
atom    5   Tr[ns(na)] =   5.43378
    eigenvalues: 
  0.838  0.931  0.949
    eigenvectors:
  0.337  0.000  0.663
  0.498  0.249  0.253
  0.166  0.751  0.084
    occupations:
  0.911  0.045  0.026
  0.045  0.889 -0.024
  0.026 -0.024  0.917
atom    6   Tr[ns(na)] =   5.43378
    eigenvalues: 
  0.838  0.931  0.949
    eigenvectors:
  0.337  0.000  0.663
  0.000  1.000  0.000
  0.663  0.000  0.337
    occupations:
  0.911  0.000 -0.052
  0.000  0.931  0.000
 -0.052  0.000  0.875
atom    7   Tr[ns(na)] =   5.43378
    eigenvalues: 
  0.838  0.931  0.949
    eigenvectors:
  0.337  0.000  0.663
  0.497  0.251  0.252
  0.166  0.749  0.085
    occupations:
  0.911 -0.045  0.026
 -0.045  0.889  0.024
  0.026  0.024  0.917
atom    8   Tr[ns(na)] =   5.43378
    eigenvalues: 
  0.838  0.931  0.949
    eigenvectors:
  0.337  0.000  0.663
  0.000  1.000  0.000
  0.663  0.000  0.337
    occupations:
  0.911  0.000 -0.052
  0.000  0.931  0.000
 -0.052  0.000  0.875
atom    9   Tr[ns(na)] =   5.43378
    eigenvalues: 
  0.838  0.931  0.949
    eigenvectors:
  0.337  0.000  0.663
  0.498  0.249  0.253
  0.166  0.751  0.084
    occupations:
  0.911  0.045  0.026
  0.045  0.889 -0.024
  0.026 -0.024  0.917
atom   10   Tr[ns(na)] =   5.43378
    eigenvalues: 
  0.838  0.931  0.949
    eigenvectors:
  0.337  0.000  0.663
  0.497  0.251  0.252
  0.166  0.749  0.085
    occupations:
  0.911 -0.045  0.026
 -0.045  0.889  0.024
  0.026  0.024  0.917
N of occupied +U levels =  56.2903900
 --- exit write_ns ---
 --- in v_hubbard ---
Hubbard energy    0.4879
 -------

     total cpu time spent up to now is      240.9 secs

     End of self-consistent calculation

          k = 0.0000 0.0000 0.0000 (  2175 PWs)   bands (ev):

   -19.7954 -19.6221  -6.5525  -5.9006  -5.9006  -5.8261  -5.8261  -5.4869
    -3.9425  -3.3153  -3.3153  -3.2574  -3.0236  -3.0236   5.1547   5.8058
     5.8058   5.8625   6.4808   6.4808   7.2286   7.5074   7.5074   7.6985
     7.6985   7.7051   9.2944   9.6231   9.6231   9.9662   9.9662  10.1398
    10.4547  10.4547  10.6021  10.6021  10.6714  10.8853  11.8119  11.8119
    14.7014  14.7014  15.4300  15.4300  16.2007  16.7867

     occupation numbers 
     0.0313   0.0313   0.0313   0.0313   0.0313   0.0313   0.0313   0.0313
     0.0313   0.0313   0.0313   0.0313   0.0313   0.0313   0.0313   0.0313
     0.0313   0.0313   0.0313   0.0313   0.0313   0.0313   0.0313   0.0313
     0.0313   0.0313   0.0312   0.0312   0.0312   0.0312   0.0312   0.0312
     0.0312   0.0312   0.0311   0.0311   0.0310   0.0297   0.0018   0.0018
     0.0000   0.0000   0.0000   0.0000   0.0000   0.0000

          k =-0.2471-0.1427 0.1027 (  2181 PWs)   bands (ev):

   -19.7722 -19.6709  -6.7306  -6.3125  -5.9850  -5.8701  -5.6214  -5.4918
    -3.6977  -3.4430  -2.9611  -2.9162  -2.8915  -2.7761   5.3281   5.6865
     5.8591   5.9396   6.3986   6.4013   6.7603   7.0037   7.3864   7.5017
     7.5440   7.6892   9.2661   9.4426   9.6886   9.8043   9.8314   9.9346
    10.1644  10.3470  10.3912  10.5578  10.6690  10.7276  12.2533  12.3280
    14.2502  14.2618  15.8168  16.0702  16.9721  17.2665

     occupation numbers 
     0.1875   0.1875   0.1875   0.1875   0.1875   0.1875   0.1875   0.1875
     0.1875   0.1875   0.1875   0.1875   0.1875   0.1875   0.1875   0.1875
     0.1875   0.1875   0.1875   0.1875   0.1875   0.1875   0.1875   0.1875
     0.1875   0.1875   0.1875   0.1875   0.1875   0.1875   0.1875   0.1875
     0.1875   0.1875   0.1874   0.1870   0.1859   0.1848   0.0002   0.0001
     0.0000   0.0000   0.0000   0.0000   0.0000   0.0000

          k = 0.4942 0.2853-0.2053 (  2202 PWs)   bands (ev):

   -19.7348 -19.7343  -6.7298  -6.7185  -5.9840  -5.9798  -5.5337  -5.5305
    -3.4315  -3.4273  -2.8183  -2.8150  -2.5084  -2.5067   5.4083   5.4287
     6.0350   6.0571   6.1812   6.2041   6.7179   6.7232   7.2423   7.2655
     7.3738   7.4021   9.2865   9.2959   9.6625   9.6823   9.9071   9.9272
    10.0385  10.0570  10.3298  10.3429  10.4922  10.5131  13.2358  13.2837
    13.3193  13.3670  16.8309  16.8357  17.1259  17.1285

     occupation numbers 
     0.0938   0.0938   0.0938   0.0938   0.0938   0.0938   0.0938   0.0938
     0.0938   0.0938   0.0938   0.0938   0.0938   0.0938   0.0938   0.0938
     0.0938   0.0938   0.0938   0.0938   0.0938   0.0938   0.0938   0.0938
     0.0938   0.0938   0.0937   0.0937   0.0937   0.0937   0.0937   0.0937
     0.0937   0.0937   0.0937   0.0937   0.0936   0.0936   0.0000   0.0000
     0.0000   0.0000   0.0000   0.0000   0.0000   0.0000

          k =-0.2471 0.1427 0.2053 (  2195 PWs)   bands (ev):

   -19.7627 -19.6888  -6.8566  -6.2630  -6.0881  -5.8443  -5.6627  -5.4878
    -3.4836  -3.2888  -3.1378  -2.9271  -2.8610  -2.5613   5.2540   5.5110
     5.7632   5.9351   6.3881   6.6552   6.9123   7.0087   7.2675   7.4806
     7.6146   7.6576   8.7076   9.2814   9.6523   9.8033   9.9221   9.9312
    10.2332  10.3347  10.5112  10.5414  10.6145  10.6832  11.7525  12.6840
    13.5836  14.7210  15.9946  16.1971  17.0361  17.5370

     occupation numbers 
     0.1875   0.1875   0.1875   0.1875   0.1875   0.1875   0.1875   0.1875
     0.1875   0.1875   0.1875   0.1875   0.1875   0.1875   0.1875   0.1875
     0.1875   0.1875   0.1875   0.1875   0.1875   0.1875   0.1875   0.1875
     0.1875   0.1875   0.1875   0.1875   0.1875   0.1875   0.1875   0.1875
     0.1875   0.1875   0.1872   0.1871   0.1866   0.1857   0.0162   0.0000
     0.0000   0.0000   0.0000   0.0000   0.0000   0.0000

          k = 0.4942 0.5706-0.1027 (  2198 PWs)   bands (ev):

   -19.7401 -19.7369  -6.9593  -6.6523  -6.1381  -5.8994  -5.5240  -5.4017
    -3.3526  -3.2824  -2.8923  -2.7216  -2.5351  -2.3905   5.0657   5.6190
     5.7348   6.0738   6.1670   6.3562   6.4126   6.8678   7.2113   7.3598
     7.6740   7.8223   8.7437   9.0729   9.4169   9.6167   9.6381   9.9594
    10.1551  10.2123  10.2551  10.3622  10.5586  10.7401  12.2468  12.6888
    13.3791  14.3031  16.9042  17.1129  17.3046  18.0139

     occupation numbers 
     0.1875   0.1875   0.1875   0.1875   0.1875   0.1875   0.1875   0.1875
     0.1875   0.1875   0.1875   0.1875   0.1875   0.1875   0.1875   0.1875
     0.1875   0.1875   0.1875   0.1875   0.1875   0.1875   0.1875   0.1875
     0.1875   0.1875   0.1875   0.1875   0.1875   0.1875   0.1875   0.1875
     0.1875   0.1875   0.1875   0.1874   0.1870   0.1845   0.0002   0.0000
     0.0000   0.0000   0.0000   0.0000   0.0000   0.0000

          k = 0.2471 0.4280 0.0000 (  2203 PWs)   bands (ev):

   -19.7538 -19.7145  -6.8505  -6.6522  -6.0613  -5.9896  -5.4514  -5.3826
    -3.6029  -3.3162  -2.8118  -2.7123  -2.5897  -2.5772   5.2369   5.6459
     5.8654   5.9286   6.1899   6.4305   6.5434   6.7038   7.2085   7.3338
     7.3872   8.0267   8.8456   9.2491   9.5934   9.6879   9.7832  10.0045
    10.1025  10.1969  10.2401  10.3503  10.4361  10.8141  12.1507  13.2676
    13.3512  14.0979  16.4313  16.9944  17.4187  17.9244

     occupation numbers 
     0.1875   0.1875   0.1875   0.1875   0.1875   0.1875   0.1875   0.1875
     0.1875   0.1875   0.1875   0.1875   0.1875   0.1875   0.1875   0.1875
     0.1875   0.1875   0.1875   0.1875   0.1875   0.1875   0.1875   0.1875
     0.1875   0.1875   0.1875   0.1875   0.1875   0.1875   0.1875   0.1875
     0.1875   0.1875   0.1875   0.1875   0.1874   0.1820   0.0006   0.0000
     0.0000   0.0000   0.0000   0.0000   0.0000   0.0000

          k = 0.4942-0.2853-0.4107 (  2202 PWs)   bands (ev):

   -19.7551 -19.7296  -7.1711  -6.4539  -6.2398  -5.9807  -5.5344  -5.3124
    -3.2372  -3.1171  -3.0805  -2.6489  -2.4806  -2.2245   4.6465   5.5196
     5.5961   6.0235   6.2360   6.7022   6.7459   6.9049   7.1422   7.2516
     7.6335   8.1639   8.2963   8.6030   9.4129   9.6737   9.9367  10.0286
    10.0609  10.1242  10.1951  10.4721  10.5298  10.8377  11.7127  12.3511
    13.2822  14.7368  17.0452  17.2680  17.5183  17.6136

     occupation numbers 
     0.0938   0.0938   0.0938   0.0938   0.0938   0.0938   0.0938   0.0938
     0.0938   0.0938   0.0938   0.0938   0.0938   0.0938   0.0938   0.0938
     0.0938   0.0938   0.0938   0.0938   0.0938   0.0938   0.0938   0.0938
     0.0938   0.0938   0.0938   0.0938   0.0937   0.0937   0.0937   0.0937
     0.0937   0.0937   0.0937   0.0937   0.0936   0.0904   0.0103   0.0000
     0.0000   0.0000   0.0000   0.0000   0.0000   0.0000

          k = 0.0000 0.0000 0.3080 (  2187 PWs)   bands (ev):

   -19.7717 -19.6737  -6.6185  -6.0001  -5.9699  -5.9699  -5.8529  -5.8529
    -3.2554  -3.1861  -3.1861  -2.9838  -2.9050  -2.9050   5.5181   5.6276
     5.8616   5.8616   6.4309   6.4309   6.7301   7.3682   7.3682   7.5217
     7.5373   7.5373   9.3872   9.3872   9.4361   9.6696  10.0360  10.0360
    10.0656  10.0656  10.4202  10.5904  10.6558  10.6558  12.2242  12.2242
    14.2116  14.2116  15.9125  15.9125  16.8776  17.4806

     occupation numbers 
     0.0625   0.0625   0.0625   0.0625   0.0625   0.0625   0.0625   0.0625
     0.0625   0.0625   0.0625   0.0625   0.0625   0.0625   0.0625   0.0625
     0.0625   0.0625   0.0625   0.0625   0.0625   0.0625   0.0625   0.0625
     0.0625   0.0625   0.0625   0.0625   0.0625   0.0625   0.0625   0.0625
     0.0625   0.0625   0.0625   0.0623   0.0620   0.0620   0.0001   0.0001
     0.0000   0.0000   0.0000   0.0000   0.0000   0.0000

          k = 0.7412 0.4280 0.0000 (  2204 PWs)   bands (ev):

   -19.7527 -19.7180  -6.7357  -6.6178  -6.1484  -5.8424  -5.7156  -5.5597
    -3.2343  -3.1177  -3.0547  -2.6860  -2.6789  -2.5930   5.3094   5.6995
     5.7643   6.0813   6.1005   6.5535   6.5684   6.7258   7.2697   7.3321
     7.4419   7.8559   8.8297   9.3270   9.3698   9.6391   9.8099   9.9756
    10.1409  10.2153  10.3537  10.3619  10.3858  10.5413  12.1475  13.1871
    13.2670  14.1280  16.6830  16.7261  17.5885  17.7931

     occupation numbers 
     0.1875   0.1875   0.1875   0.1875   0.1875   0.1875   0.1875   0.1875
     0.1875   0.1875   0.1875   0.1875   0.1875   0.1875   0.1875   0.1875
     0.1875   0.1875   0.1875   0.1875   0.1875   0.1875   0.1875   0.1875
     0.1875   0.1875   0.1875   0.1875   0.1875   0.1875   0.1875   0.1875
     0.1875   0.1875   0.1875   0.1874   0.1874   0.1871   0.0006   0.0000
     0.0000   0.0000   0.0000   0.0000   0.0000   0.0000

          k = 0.4942 0.2853 0.1027 (  2211 PWs)   bands (ev):

   -19.7418 -19.7352  -6.9762  -6.5474  -6.3308  -5.7162  -5.6281  -5.3733
    -3.3684  -3.1798  -3.0667  -2.6060  -2.5740  -2.3813   5.0785   5.6310
     5.7440   5.9096   6.1647   6.4592   6.5729   6.7431   7.2047   7.2416
     7.7854   7.8336   8.7045   9.2235   9.3023   9.5551   9.7834   9.8587
    10.1672  10.2248  10.3684  10.4502  10.5082  10.5809  12.2027  12.7020
    13.4267  14.2847  16.8845  16.9336  17.5760  17.9259

     occupation numbers 
     0.1875   0.1875   0.1875   0.1875   0.1875   0.1875   0.1875   0.1875
     0.1875   0.1875   0.1875   0.1875   0.1875   0.1875   0.1875   0.1875
     0.1875   0.1875   0.1875   0.1875   0.1875   0.1875   0.1875   0.1875
     0.1875   0.1875   0.1875   0.1875   0.1875   0.1875   0.1875   0.1875
     0.1875   0.1875   0.1874   0.1873   0.1872   0.1868   0.0003   0.0000
     0.0000   0.0000   0.0000   0.0000   0.0000   0.0000

          k = 0.7412-0.4280-0.3080 (  2210 PWs)   bands (ev):

   -19.7413 -19.7381  -6.9128  -6.4601  -6.3092  -5.8001  -5.7770  -5.5085
    -3.0978  -3.0787  -2.9806  -2.7431  -2.6346  -2.4324   5.1172   5.7089
     5.8107   5.9347   6.1608   6.4070   6.5616   6.8170   7.2590   7.2815
     7.7479   7.8213   8.6665   9.1575   9.3507   9.4471   9.6276   9.9746
    10.1155  10.1898  10.2542  10.4244  10.5394  10.5976  12.1636  12.6566
    13.3759  14.2549  17.0590  17.0693  17.5438  17.9007

     occupation numbers 
     0.1875   0.1875   0.1875   0.1875   0.1875   0.1875   0.1875   0.1875
     0.1875   0.1875   0.1875   0.1875   0.1875   0.1875   0.1875   0.1875
     0.1875   0.1875   0.1875   0.1875   0.1875   0.1875   0.1875   0.1875
     0.1875   0.1875   0.1875   0.1875   0.1875   0.1875   0.1875   0.1875
     0.1875   0.1875   0.1875   0.1874   0.1871   0.1867   0.0005   0.0000
     0.0000   0.0000   0.0000   0.0000   0.0000   0.0000

          k = 0.4942-0.5706-0.2053 (  2206 PWs)   bands (ev):

   -19.7429 -19.7429  -6.8883  -6.8804  -6.0381  -6.0365  -5.4434  -5.4418
    -3.1726  -3.1723  -2.8340  -2.8335  -2.3857  -2.3832   5.3396   5.3413
     5.6987   5.7145   6.2895   6.2964   6.5938   6.6086   7.2193   7.2329
     8.0356   8.0375   8.7494   8.7514   9.3791   9.3799   9.8331   9.8429
    10.1247  10.1349  10.2665  10.2760  10.6092  10.6158  12.2054  12.2102
    13.9494  13.9619  17.4232  17.4236  17.8691  17.8714

     occupation numbers 
     0.1875   0.1875   0.1875   0.1875   0.1875   0.1875   0.1875   0.1875
     0.1875   0.1875   0.1875   0.1875   0.1875   0.1875   0.1875   0.1875
     0.1875   0.1875   0.1875   0.1875   0.1875   0.1875   0.1875   0.1875
     0.1875   0.1875   0.1875   0.1875   0.1875   0.1875   0.1875   0.1875
     0.1875   0.1875   0.1875   0.1875   0.1866   0.1866   0.0003   0.0003
     0.0000   0.0000   0.0000   0.0000   0.0000   0.0000

          k = 0.0000 0.0000-0.6160 (  2186 PWs)   bands (ev):

   -19.7373 -19.7368  -6.5198  -6.5054  -5.9604  -5.9604  -5.9574  -5.9574
    -2.9228  -2.9228  -2.9194  -2.9194  -2.7061  -2.7059   5.5986   5.6185
     6.0973   6.0973   6.1213   6.1213   6.7407   6.7491   7.3288   7.3288
     7.3535   7.3535   9.4828   9.4828   9.4935   9.4935   9.5414   9.5563
    10.1883  10.2112  10.3347  10.3347  10.3565  10.3565  13.1750  13.1750
    13.2217  13.2217  17.1151  17.1151  17.1166  17.1166

     occupation numbers 
     0.0313   0.0313   0.0313   0.0313   0.0313   0.0313   0.0313   0.0313
     0.0313   0.0313   0.0313   0.0313   0.0313   0.0313   0.0313   0.0313
     0.0313   0.0313   0.0313   0.0313   0.0313   0.0313   0.0313   0.0313
     0.0313   0.0313   0.0312   0.0312   0.0312   0.0312   0.0312   0.0312
     0.0312   0.0312   0.0312   0.0312   0.0312   0.0312   0.0000   0.0000
     0.0000   0.0000   0.0000   0.0000   0.0000   0.0000

          k = 0.4942-0.5706 0.1027 (  2198 PWs)   bands (ev):

   -19.7401 -19.7369  -6.9601  -6.6524  -6.1377  -5.8963  -5.5257  -5.4027
    -3.3537  -3.2823  -2.8920  -2.7203  -2.5357  -2.3904   5.0641   5.6270
     5.7277   6.0686   6.1726   6.3496   6.4215   6.8661   7.2163   7.3540
     7.6693   7.8287   8.7447   9.0713   9.4157   9.6123   9.6410   9.9572
    10.1576  10.2179  10.2472  10.3644  10.5640  10.7371  12.2467  12.6884
    13.3788  14.3029  16.9060  17.1100  17.3052  18.0146

     occupation numbers 
     0.1875   0.1875   0.1875   0.1875   0.1875   0.1875   0.1875   0.1875
     0.1875   0.1875   0.1875   0.1875   0.1875   0.1875   0.1875   0.1875
     0.1875   0.1875   0.1875   0.1875   0.1875   0.1875   0.1875   0.1875
     0.1875   0.1875   0.1875   0.1875   0.1875   0.1875   0.1875   0.1875
     0.1875   0.1875   0.1875   0.1874   0.1869   0.1846   0.0002   0.0000
     0.0000   0.0000   0.0000   0.0000   0.0000   0.0000

     the Fermi energy is    11.3590 ev

!    total energy              =    -537.80376829 Ry
     Harris-Foulkes estimate   =    -537.80376371 Ry
     estimated scf accuracy    <          1.4E-09 Ry

     The total energy is the sum of the following terms:

     one-electron contribution =     -32.89064954 Ry
     hartree contribution      =      83.66973916 Ry
     xc contribution           =    -199.62432208 Ry
     ewald contribution        =    -389.44315552 Ry
     Hubbard energy            =       0.48787988 Ry
     smearing contrib. (-TS)   =      -0.00326019 Ry

     convergence has been achieved in  16 iterations

     init_run     :      7.34s CPU      7.40s WALL (       1 calls)
     electrons    :    231.40s CPU    233.01s WALL (       1 calls)

     Called by init_run:
     wfcinit      :      0.00s CPU      0.00s WALL (       1 calls)
     potinit      :      0.27s CPU      0.29s WALL (       1 calls)

     Called by electrons:
     c_bands      :    149.71s CPU    150.26s WALL (      16 calls)
     sum_band     :     47.82s CPU     48.09s WALL (      16 calls)
     v_of_rho     :      4.25s CPU      4.26s WALL (      17 calls)
     v_h          :      0.23s CPU      0.24s WALL (      17 calls)
     v_xc         :      4.01s CPU      4.03s WALL (      17 calls)
     newd         :     30.44s CPU     30.49s WALL (      17 calls)
     mix_rho      :      0.48s CPU      0.48s WALL (      16 calls)

     Called by c_bands:
     init_us_2    :      1.66s CPU      1.67s WALL (     448 calls)
     cegterg      :    145.12s CPU    145.42s WALL (     224 calls)

     Called by sum_band:
     sum_band:bec :      0.17s CPU      0.17s WALL (     224 calls)
     addusdens    :     21.25s CPU     21.25s WALL (      16 calls)

     Called by *egterg:
     h_psi        :    109.67s CPU    109.90s WALL (     831 calls)
     s_psi        :      6.33s CPU      6.35s WALL (     831 calls)
     g_psi        :      0.54s CPU      0.54s WALL (     607 calls)
     cdiaghg      :      9.53s CPU      9.56s WALL (     817 calls)
     cegterg:over :      6.98s CPU      6.99s WALL (     607 calls)
     cegterg:upda :      4.64s CPU      4.63s WALL (     607 calls)
     cegterg:last :      3.15s CPU      3.15s WALL (     250 calls)

     Called by h_psi:
     h_psi:vloc   :     89.32s CPU     89.54s WALL (     831 calls)
     h_psi:vnl    :     12.81s CPU     12.84s WALL (     831 calls)
     add_vuspsi   :      6.31s CPU      6.31s WALL (     831 calls)
     vhpsi        :      7.24s CPU      7.25s WALL (     831 calls)

     General routines
     calbec       :     13.62s CPU     13.69s WALL (    2110 calls)
     fft          :      2.81s CPU      2.84s WALL (     267 calls)
     ffts         :      0.09s CPU      0.09s WALL (      33 calls)
     fftw         :     86.24s CPU     86.20s WALL (   63194 calls)
     interpolate  :      0.49s CPU      0.50s WALL (      33 calls)
     davcio       :      0.01s CPU      0.45s WALL (     462 calls)

     Parallel routines
     fft_scatter  :     21.24s CPU     21.47s WALL (   63494 calls)
     Hubbard U routines
     new_ns       :      1.42s CPU      1.62s WALL (      16 calls)
     vhpsi        :      7.24s CPU      7.25s WALL (     831 calls)

     PWSCF        :  3m59.16s CPU     4m 0.87s WALL


   This run was terminated on:   5:35: 5  13Nov2012            

=------------------------------------------------------------------------------=
