   JOB DONE.
=------------------------------------------------------------------------------=

     Program PWSCF v.5.0.1 starts on 13Nov2012 at 12:49:20 

     This program is part of the open-source Quantum ESPRESSO suite
     for quantum simulation of materials; please cite
         "P. Giannozzi et al., J. Phys.:Condens. Matter 21 395502 (2009);
          URL http://www.quantum-espresso.org", 
     in publications or presentations arising from this work. More details at
     http://www.quantum-espresso.org/quote.php

     Parallel version (MPI), running on     2 processors
     R & G space division:  proc/pool =    2

     Current dimensions of program PWSCF are:
     Max number of different atomic species (ntypx) = 10
     Max number of k-points (npk) =  40000
     Max angular momentum in pseudopotentials (lmaxx) =  3
     Reading input from CoLaO_U0_a-5.in
               file Co.pbe-nd-rrkjus.UPF: wavefunction(s)  4S 3D renormalized
               file O.pbe-rrkjus.UPF: wavefunction(s)  2S renormalized
               file O.pbe-rrkjus.UPF: wavefunction(s)  2S renormalized

     Subspace diagonalization in iterative solution of the eigenvalue problem:
     a serial algorithm will be used


     Parallelization info
     --------------------
     sticks:   dense  smooth     PW     G-vecs:    dense   smooth      PW
     Min        1112     444    131                34808     8786    1448
     Max        1113     445    132                34809     8787    1449
     Sum        2225     889    263                69617    17573    2897


     Title: 
     GGA + U, U = 1D-40, alpha = -0.050                                         


     bravais-lattice index     =            5
     lattice parameter (alat)  =      10.3292  a.u.
     unit-cell volume          =     793.0599 (a.u.)^3
     number of atoms/cell      =           10
     number of atomic types    =            4
     number of electrons       =        76.00
     number of Kohn-Sham states=           46
     kinetic-energy cutoff     =      30.0000  Ry
     charge density cutoff     =     300.0000  Ry
     convergence threshold     =      1.0E-08
     mixing beta               =       0.2000
     number of iterations used =            8  plain     mixing
     Exchange-correlation      =  SLA  PW   PBE  PBE ( 1 4 3 4 0)
     EXX-fraction              =        0.00

     celldm(1)=  10.329242  celldm(2)=   0.000000  celldm(3)=   0.000000
     celldm(4)=   0.488100  celldm(5)=   0.000000  celldm(6)=   0.000000

     crystal axes: (cart. coord. in units of alat)
               a(1) = (   0.505915  -0.292090   0.811624 )  
               a(2) = (   0.000000   0.584180   0.811624 )  
               a(3) = (  -0.505915  -0.292090   0.811624 )  

     reciprocal axes: (cart. coord. in units 2 pi/alat)
               b(1) = (  0.988308 -0.570600  0.410699 )  
               b(2) = (  0.000000  1.141200  0.410699 )  
               b(3) = ( -0.988308 -0.570600  0.410699 )  


     PseudoPot. # 1 for Co read from file:
     /home/mcurnan/dft-course/Project1/example_LaCoO3/Co.pbe-nd-rrkjus.UPF
     MD5 check sum: 3e47a84addf5e975e0edeaeee2a73f59
     Pseudo is Ultrasoft + core correction, Zval =  9.0
     Generated by new atomic code, or converted to UPF format
     Using radial grid of  961 points,  6 beta functions with: 
                l(1) =   0
                l(2) =   0
                l(3) =   1
                l(4) =   1
                l(5) =   2
                l(6) =   2
     Q(r) pseudized with 0 coefficients 


     PseudoPot. # 2 for La read from file:
     /home/mcurnan/dft-course/Project1/example_LaCoO3/La.pbe-nsp-van.UPF
     MD5 check sum: b2f11743f52dde65f77d1302becd7929
     Pseudo is Ultrasoft + core correction, Zval = 11.0
     Generated by new atomic code, or converted to UPF format
     Using radial grid of  907 points,  6 beta functions with: 
                l(1) =   0
                l(2) =   0
                l(3) =   1
                l(4) =   1
                l(5) =   2
                l(6) =   2
     Q(r) pseudized with  6 coefficients,  rinner =    1.200   1.200   1.200
                                                       1.200   1.200

     PseudoPot. # 3 for O  read from file:
     /home/mcurnan/dft-course/Project1/example_LaCoO3/O.pbe-rrkjus.UPF
     MD5 check sum: 390ba29e75625707450f3bd3f0eb6be9
     Pseudo is Ultrasoft, Zval =  6.0
     Generated by new atomic code, or converted to UPF format
     Using radial grid of 1269 points,  4 beta functions with: 
                l(1) =   0
                l(2) =   0
                l(3) =   1
                l(4) =   1
     Q(r) pseudized with 0 coefficients 


     PseudoPot. # 4 for O  read from file:
     /home/mcurnan/dft-course/Project1/example_LaCoO3/O.pbe-rrkjus.UPF
     MD5 check sum: 390ba29e75625707450f3bd3f0eb6be9
     Pseudo is Ultrasoft, Zval =  6.0
     Generated by new atomic code, or converted to UPF format
     Using radial grid of 1269 points,  4 beta functions with: 
                l(1) =   0
                l(2) =   0
                l(3) =   1
                l(4) =   1
     Q(r) pseudized with 0 coefficients 


     atomic species   valence    mass     pseudopotential
        Co1            9.00     1.00000     Co( 1.00)
        La1           11.00     1.00000     La( 1.00)
        O1             6.00     1.00000     O ( 1.00)
        O2             6.00     1.00000     O ( 1.00)

     Starting magnetic structure 
     atomic species   magnetization
        Co1          1.000
        La1          0.000
        O1           0.000
        O2           0.000
 -----
     simplified LDA+U calculation, Hubbard_lmax = 2
     atomic species  L   Hubbard U  Hubbard alpha
        Co1          2    0.000000    0.000000
        La1          2    0.000000    0.000000
        O1           1    0.000000   -0.050000
        O2           1    0.000000    0.000000
 -----

     No symmetry found


                                    s                        frac. trans.

      isym =  1     identity                                     

 cryst.   s( 1) = (     1          0          0      )
                  (     0          1          0      )
                  (     0          0          1      )

 cart.    s( 1) = (  1.0000000  0.0000000  0.0000000 )
                  (  0.0000000  1.0000000  0.0000000 )
                  (  0.0000000  0.0000000  1.0000000 )


     point group C_1 (1)    
     there are  1 classes
     the character table:

       E    
A      1.00

     the symmetry operations in each class:
     E        1

   Cartesian axes

     site n.     atom                  positions (alat units)
         1           Co1 tau(   1) = (   0.2228050  -0.1992639   1.0141240  )
         2           Co1 tau(   2) = (  -0.2831100   0.0928263   1.4199360  )
         3           La1 tau(   3) = (  -0.2831100   0.0928263   0.8112181  )
         4           La1 tau(   4) = (   0.2228050   0.3849164   1.2170300  )
         5           O1  tau(   5) = (   0.0000000   0.0000000   0.0000000  )
         6           O2  tau(   6) = (   0.0008601   0.1861491   1.6232478  )
         7           O2  tau(   7) = (   0.1616398   0.0923297   0.8116239  )
         8           O2  tau(   8) = (  -0.0603051  -0.1064377   1.2166242  )
         9           O2  tau(   9) = (   0.4447499  -0.0004966   1.2166242  )
        10           O2  tau(  10) = (  -0.2219449   0.3854130   1.2166242  )

   Crystallographic axes

     site n.     atom                  positions (cryst. coord.)
         1           Co1 tau(   1) = (  0.7504000  0.1891000  0.3100000  )
         2           Co1 tau(   2) = (  0.2504000  0.6891000  0.8100000  )
         3           La1 tau(   3) = (  0.0004000  0.4391000  0.5600000  )
         4           La1 tau(   4) = (  0.5004000  0.9391000  0.0600000  )
         5           O1  tau(   5) = (  0.0000000  0.0000000  0.0000000  )
         6           O2  tau(   6) = (  0.5613000  0.8791000  0.5596000  )
         7           O2  tau(   7) = (  0.4404000  0.4387000  0.1209000  )
         8           O2  tau(   8) = (  0.5008000  0.3782000  0.6200000  )
         9           O2  tau(   9) = (  0.9395000  0.4991000  0.0604000  )
        10           O2  tau(  10) = (  0.0604000  0.9395000  0.4991000  )

     number of k points=    72  gaussian smearing, width (Ry)=  0.0300
                       cart. coord. in units 2pi/alat
        k(    1) = (   0.0000000   0.0000000   0.0000000), wk =   0.0156250
        k(    2) = (  -0.2470771  -0.1426500   0.1026748), wk =   0.0312500
        k(    3) = (   0.4941541   0.2853000  -0.2053496), wk =   0.0156250
        k(    4) = (  -0.2470771   0.1426500   0.2053496), wk =   0.0312500
        k(    5) = (   0.4941541   0.5706001  -0.1026748), wk =   0.0312500
        k(    6) = (   0.2470771   0.4279500   0.0000000), wk =   0.0312500
        k(    7) = (   0.4941541  -0.2853000  -0.4106993), wk =   0.0156250
        k(    8) = (   0.0000000   0.0000000   0.3080244), wk =   0.0312500
        k(    9) = (   0.7412312   0.4279500   0.0000000), wk =   0.0312500
        k(   10) = (   0.4941541   0.2853000   0.1026748), wk =   0.0312500
        k(   11) = (   0.7412312  -0.4279500  -0.3080244), wk =   0.0312500
        k(   12) = (   0.4941541  -0.5706001  -0.2053496), wk =   0.0312500
        k(   13) = (   0.0000000   0.0000000  -0.6160489), wk =   0.0156250
        k(   14) = (  -0.2470771   0.1426500  -0.1026748), wk =   0.0312500
        k(   15) = (   0.0000000   0.2853000   0.1026748), wk =   0.0312500
        k(   16) = (   0.4941541  -0.2853000   0.2053496), wk =   0.0156250
        k(   17) = (   0.0000000  -0.5706001  -0.2053496), wk =   0.0156250
        k(   18) = (  -0.2470771  -0.1426500  -0.2053496), wk =   0.0312500
        k(   19) = (   0.0000000  -0.2853000   0.2053496), wk =   0.0312500
        k(   20) = (   0.4941541  -0.5706001   0.1026748), wk =   0.0312500
        k(   21) = (  -0.7412312   0.1426500  -0.1026748), wk =   0.0312500
        k(   22) = (   0.2470771  -0.7132501  -0.1026748), wk =   0.0312500
        k(   23) = (  -0.7412312  -0.1426500   0.1026748), wk =   0.0312500
        k(   24) = (   0.2470771   0.7132501   0.1026748), wk =   0.0312500
        k(   25) = (   0.2470771  -0.4279500   0.0000000), wk =   0.0312500
        k(   26) = (  -0.4941541   0.0000000   0.0000000), wk =   0.0312500
        k(   27) = (   0.4941541   0.2853000   0.4106993), wk =   0.0156250
        k(   28) = (   0.0000000   0.5706001  -0.4106993), wk =   0.0156250
        k(   29) = (   0.7412312  -0.4279500   0.0000000), wk =   0.0312500
        k(   30) = (   0.0000000  -0.8559001   0.0000000), wk =   0.0312500
        k(   31) = (   0.4941541  -0.2853000  -0.1026748), wk =   0.0312500
        k(   32) = (   0.0000000  -0.5706001   0.1026748), wk =   0.0312500
        k(   33) = (   0.7412312   0.4279500   0.3080244), wk =   0.0312500
        k(   34) = (   0.0000000   0.8559001  -0.3080244), wk =   0.0312500
        k(   35) = (   0.2470771   0.7132501  -0.2053496), wk =   0.0312500
        k(   36) = (  -0.7412312  -0.1426500  -0.2053496), wk =   0.0312500
        k(   37) = (   0.0000000   0.0000000   0.0000000), wk =   0.0156250
        k(   38) = (  -0.2470771  -0.1426500   0.1026748), wk =   0.0312500
        k(   39) = (   0.4941541   0.2853000  -0.2053496), wk =   0.0156250
        k(   40) = (  -0.2470771   0.1426500   0.2053496), wk =   0.0312500
        k(   41) = (   0.4941541   0.5706001  -0.1026748), wk =   0.0312500
        k(   42) = (   0.2470771   0.4279500   0.0000000), wk =   0.0312500
        k(   43) = (   0.4941541  -0.2853000  -0.4106993), wk =   0.0156250
        k(   44) = (   0.0000000   0.0000000   0.3080244), wk =   0.0312500
        k(   45) = (   0.7412312   0.4279500   0.0000000), wk =   0.0312500
        k(   46) = (   0.4941541   0.2853000   0.1026748), wk =   0.0312500
        k(   47) = (   0.7412312  -0.4279500  -0.3080244), wk =   0.0312500
        k(   48) = (   0.4941541  -0.5706001  -0.2053496), wk =   0.0312500
        k(   49) = (   0.0000000   0.0000000  -0.6160489), wk =   0.0156250
        k(   50) = (  -0.2470771   0.1426500  -0.1026748), wk =   0.0312500
        k(   51) = (   0.0000000   0.2853000   0.1026748), wk =   0.0312500
        k(   52) = (   0.4941541  -0.2853000   0.2053496), wk =   0.0156250
        k(   53) = (   0.0000000  -0.5706001  -0.2053496), wk =   0.0156250
        k(   54) = (  -0.2470771  -0.1426500  -0.2053496), wk =   0.0312500
        k(   55) = (   0.0000000  -0.2853000   0.2053496), wk =   0.0312500
        k(   56) = (   0.4941541  -0.5706001   0.1026748), wk =   0.0312500
        k(   57) = (  -0.7412312   0.1426500  -0.1026748), wk =   0.0312500
        k(   58) = (   0.2470771  -0.7132501  -0.1026748), wk =   0.0312500
        k(   59) = (  -0.7412312  -0.1426500   0.1026748), wk =   0.0312500
        k(   60) = (   0.2470771   0.7132501   0.1026748), wk =   0.0312500
        k(   61) = (   0.2470771  -0.4279500   0.0000000), wk =   0.0312500
        k(   62) = (  -0.4941541   0.0000000   0.0000000), wk =   0.0312500
        k(   63) = (   0.4941541   0.2853000   0.4106993), wk =   0.0156250
        k(   64) = (   0.0000000   0.5706001  -0.4106993), wk =   0.0156250
        k(   65) = (   0.7412312  -0.4279500   0.0000000), wk =   0.0312500
        k(   66) = (   0.0000000  -0.8559001   0.0000000), wk =   0.0312500
        k(   67) = (   0.4941541  -0.2853000  -0.1026748), wk =   0.0312500
        k(   68) = (   0.0000000  -0.5706001   0.1026748), wk =   0.0312500
        k(   69) = (   0.7412312   0.4279500   0.3080244), wk =   0.0312500
        k(   70) = (   0.0000000   0.8559001  -0.3080244), wk =   0.0312500
        k(   71) = (   0.2470771   0.7132501  -0.2053496), wk =   0.0312500
        k(   72) = (  -0.7412312  -0.1426500  -0.2053496), wk =   0.0312500

                       cryst. coord.
        k(    1) = (   0.0000000   0.0000000   0.0000000), wk =   0.0156250
        k(    2) = (   0.0000000   0.0000000   0.2500000), wk =   0.0312500
        k(    3) = (   0.0000000   0.0000000  -0.5000000), wk =   0.0156250
        k(    4) = (   0.0000000   0.2500000   0.2500000), wk =   0.0312500
        k(    5) = (   0.0000000   0.2500000  -0.5000000), wk =   0.0312500
        k(    6) = (   0.0000000   0.2500000  -0.2500000), wk =   0.0312500
        k(    7) = (   0.0000000  -0.5000000  -0.5000000), wk =   0.0156250
        k(    8) = (   0.2500000   0.2500000   0.2500000), wk =   0.0312500
        k(    9) = (   0.2500000   0.2500000  -0.5000000), wk =   0.0312500
        k(   10) = (   0.2500000   0.2500000  -0.2500000), wk =   0.0312500
        k(   11) = (   0.2500000  -0.5000000  -0.5000000), wk =   0.0312500
        k(   12) = (   0.2500000  -0.5000000  -0.2500000), wk =   0.0312500
        k(   13) = (  -0.5000000  -0.5000000  -0.5000000), wk =   0.0156250
        k(   14) = (  -0.2500000   0.0000000   0.0000000), wk =   0.0312500
        k(   15) = (   0.0000000   0.2500000   0.0000000), wk =   0.0312500
        k(   16) = (   0.5000000   0.0000000   0.0000000), wk =   0.0156250
        k(   17) = (   0.0000000  -0.5000000   0.0000000), wk =   0.0156250
        k(   18) = (  -0.2500000  -0.2500000   0.0000000), wk =   0.0312500
        k(   19) = (   0.2500000   0.0000000   0.2500000), wk =   0.0312500
        k(   20) = (   0.5000000  -0.2500000   0.0000000), wk =   0.0312500
        k(   21) = (  -0.5000000   0.0000000   0.2500000), wk =   0.0312500
        k(   22) = (   0.2500000  -0.5000000   0.0000000), wk =   0.0312500
        k(   23) = (  -0.2500000   0.0000000   0.5000000), wk =   0.0312500
        k(   24) = (   0.0000000   0.5000000  -0.2500000), wk =   0.0312500
        k(   25) = (   0.2500000  -0.2500000   0.0000000), wk =   0.0312500
        k(   26) = (  -0.2500000   0.0000000   0.2500000), wk =   0.0312500
        k(   27) = (   0.5000000   0.5000000   0.0000000), wk =   0.0156250
        k(   28) = (  -0.5000000   0.0000000  -0.5000000), wk =   0.0156250
        k(   29) = (   0.5000000  -0.2500000  -0.2500000), wk =   0.0312500
        k(   30) = (   0.2500000  -0.5000000   0.2500000), wk =   0.0312500
        k(   31) = (   0.2500000  -0.2500000  -0.2500000), wk =   0.0312500
        k(   32) = (   0.2500000  -0.2500000   0.2500000), wk =   0.0312500
        k(   33) = (   0.5000000   0.5000000  -0.2500000), wk =   0.0312500
        k(   34) = (  -0.5000000   0.2500000  -0.5000000), wk =   0.0312500
        k(   35) = (  -0.2500000   0.2500000  -0.5000000), wk =   0.0312500
        k(   36) = (  -0.5000000  -0.2500000   0.2500000), wk =   0.0312500
        k(   37) = (   0.0000000   0.0000000   0.0000000), wk =   0.0156250
        k(   38) = (   0.0000000   0.0000000   0.2500000), wk =   0.0312500
        k(   39) = (   0.0000000   0.0000000  -0.5000000), wk =   0.0156250
        k(   40) = (   0.0000000   0.2500000   0.2500000), wk =   0.0312500
        k(   41) = (   0.0000000   0.2500000  -0.5000000), wk =   0.0312500
        k(   42) = (   0.0000000   0.2500000  -0.2500000), wk =   0.0312500
        k(   43) = (   0.0000000  -0.5000000  -0.5000000), wk =   0.0156250
        k(   44) = (   0.2500000   0.2500000   0.2500000), wk =   0.0312500
        k(   45) = (   0.2500000   0.2500000  -0.5000000), wk =   0.0312500
        k(   46) = (   0.2500000   0.2500000  -0.2500000), wk =   0.0312500
        k(   47) = (   0.2500000  -0.5000000  -0.5000000), wk =   0.0312500
        k(   48) = (   0.2500000  -0.5000000  -0.2500000), wk =   0.0312500
        k(   49) = (  -0.5000000  -0.5000000  -0.5000000), wk =   0.0156250
        k(   50) = (  -0.2500000   0.0000000   0.0000000), wk =   0.0312500
        k(   51) = (   0.0000000   0.2500000   0.0000000), wk =   0.0312500
        k(   52) = (   0.5000000   0.0000000   0.0000000), wk =   0.0156250
        k(   53) = (   0.0000000  -0.5000000   0.0000000), wk =   0.0156250
        k(   54) = (  -0.2500000  -0.2500000   0.0000000), wk =   0.0312500
        k(   55) = (   0.2500000   0.0000000   0.2500000), wk =   0.0312500
        k(   56) = (   0.5000000  -0.2500000   0.0000000), wk =   0.0312500
        k(   57) = (  -0.5000000   0.0000000   0.2500000), wk =   0.0312500
        k(   58) = (   0.2500000  -0.5000000   0.0000000), wk =   0.0312500
        k(   59) = (  -0.2500000   0.0000000   0.5000000), wk =   0.0312500
        k(   60) = (   0.0000000   0.5000000  -0.2500000), wk =   0.0312500
        k(   61) = (   0.2500000  -0.2500000   0.0000000), wk =   0.0312500
        k(   62) = (  -0.2500000   0.0000000   0.2500000), wk =   0.0312500
        k(   63) = (   0.5000000   0.5000000   0.0000000), wk =   0.0156250
        k(   64) = (  -0.5000000   0.0000000  -0.5000000), wk =   0.0156250
        k(   65) = (   0.5000000  -0.2500000  -0.2500000), wk =   0.0312500
        k(   66) = (   0.2500000  -0.5000000   0.2500000), wk =   0.0312500
        k(   67) = (   0.2500000  -0.2500000  -0.2500000), wk =   0.0312500
        k(   68) = (   0.2500000  -0.2500000   0.2500000), wk =   0.0312500
        k(   69) = (   0.5000000   0.5000000  -0.2500000), wk =   0.0312500
        k(   70) = (  -0.5000000   0.2500000  -0.5000000), wk =   0.0312500
        k(   71) = (  -0.2500000   0.2500000  -0.5000000), wk =   0.0312500
        k(   72) = (  -0.5000000  -0.2500000   0.2500000), wk =   0.0312500

     Dense  grid:    69617 G-vectors     FFT dimensions: (  60,  60,  60)

     Smooth grid:    17573 G-vectors     FFT dimensions: (  40,  40,  40)

     Largest allocated arrays     est. size (Mb)     dimensions
        Kohn-Sham Wavefunctions         0.79 Mb     (   1119,   46)
        Atomic wavefunctions            1.06 Mb     (   1119,   62)
        NL pseudopotentials             2.05 Mb     (   1119,  120)
        Each V/rho on FFT grid          3.30 Mb     ( 108000,   2)
        Each G-vector array             0.27 Mb     (  34808)
        G-vector shells                 0.04 Mb     (   4682)
     Largest temporary arrays     est. size (Mb)     dimensions
        Auxiliary wavefunctions         3.14 Mb     (   1119,  184)
        Each subspace H/S matrix        0.52 Mb     ( 184, 184)
        Each <psi_i|beta_j> matrix      0.08 Mb     (    120,   46)
        Arrays for rho mixing          13.18 Mb     ( 108000,   8)

     Check: negative/imaginary core charge=   -0.000028    0.000000

     The initial density is read from file :
     /home/mcurnan/dft-course/Project1/example_LaCoO3/0/O/alpha/CoLaO_U0.save/charge-density.dat

 --- in v_hubbard ---
Hubbard energy   -0.0200
 -------
     Number of +U iterations with fixed ns =  0
     Starting occupations:
 --- enter write_ns ---
 LDA+U parameters:
U( 1)     =  0.00000000
alpha( 1) =  0.00000000
U( 2)     =  0.00000000
alpha( 2) =  0.00000000
U( 3)     =  0.00000000
alpha( 3) = -0.05000000
U( 4)     =  0.00000000
alpha( 4) =  0.00000000
atom    1   Tr[ns(na)] (up, down, total) =   4.56592  3.37374  7.93966
   spin  1
    eigenvalues: 
  0.785  0.785  0.999  0.999  0.999
    eigenvectors:
  0.000  0.000  0.000  0.000  1.000
  0.130  0.516  0.189  0.165  0.000
  0.516  0.130  0.165  0.189  0.000
  0.034  0.320  0.646  0.000  0.000
  0.320  0.034  0.000  0.646  0.000
    occupations:
  0.999  0.000  0.000  0.000  0.000
  0.000  0.861  0.000 -0.073  0.072
  0.000  0.000  0.861  0.072  0.073
  0.000 -0.073  0.072  0.923  0.000
  0.000  0.072  0.073  0.000  0.923
   spin  2
    eigenvalues: 
  0.474  0.474  0.773  0.826  0.826
    eigenvectors:
  0.000  0.000  1.000  0.000  0.000
  0.000  0.639  0.000  0.203  0.158
  0.639  0.000  0.000  0.158  0.203
  0.344  0.017  0.000  0.149  0.490
  0.017  0.344  0.000  0.490  0.149
    occupations:
  0.773  0.000  0.000  0.000  0.000
  0.000  0.601  0.000 -0.037  0.165
  0.000  0.000  0.601  0.165  0.037
  0.000 -0.037  0.165  0.699  0.000
  0.000  0.165  0.037  0.000  0.699
atomic mag. moment =     1.192178
atom    2   Tr[ns(na)] (up, down, total) =   4.67288  3.22474  7.89762
   spin  1
    eigenvalues: 
  0.838  0.838  0.999  0.999  0.999
    eigenvectors:
  0.000  0.000  0.000  0.000  1.000
  0.018  0.628  0.244  0.110  0.000
  0.628  0.018  0.110  0.244  0.000
  0.235  0.119  0.025  0.622  0.000
  0.119  0.235  0.622  0.025  0.000
    occupations:
  0.999  0.000  0.000  0.000  0.000
  0.000  0.895  0.000  0.054  0.054
  0.000  0.000  0.895  0.054 -0.054
  0.000  0.054  0.054  0.942  0.000
  0.000  0.054 -0.054  0.000  0.942
   spin  2
    eigenvalues: 
  0.459  0.459  0.730  0.788  0.788
    eigenvectors:
  0.000  0.000  1.000  0.000  0.000
  0.517  0.119  0.000  0.010  0.355
  0.119  0.517  0.000  0.355  0.010
  0.143  0.222  0.000  0.633  0.003
  0.222  0.143  0.000  0.003  0.633
    occupations:
  0.730  0.000  0.000  0.000  0.000
  0.000  0.579  0.000  0.036  0.154
  0.000  0.000  0.579  0.154 -0.036
  0.000  0.036  0.154  0.668  0.000
  0.000  0.154 -0.036  0.000  0.668
atomic mag. moment =     1.448145
atom    3   Tr[ns(na)] (up, down, total) =   1.91460  1.90025  3.81485
   spin  1
    eigenvalues: 
  0.357  0.357  0.387  0.407  0.407
    eigenvectors:
  0.000  0.000  1.000  0.000  0.000
  0.130  0.794  0.000  0.024  0.052
  0.794  0.130  0.000  0.052  0.024
  0.065  0.011  0.000  0.640  0.284
  0.011  0.065  0.000  0.284  0.640
    occupations:
  0.387  0.000  0.000  0.000  0.000
  0.000  0.361  0.000  0.000  0.013
  0.000  0.000  0.361  0.013  0.000
  0.000  0.000  0.013  0.403  0.000
  0.000  0.013  0.000  0.000  0.403
   spin  2
    eigenvalues: 
  0.353  0.353  0.387  0.404  0.404
    eigenvectors:
  0.000  0.000  1.000  0.000  0.000
  0.322  0.588  0.000  0.074  0.016
  0.588  0.322  0.000  0.016  0.074
  0.060  0.030  0.000  0.174  0.736
  0.030  0.060  0.000  0.736  0.174
    occupations:
  0.387  0.000  0.000  0.000  0.000
  0.000  0.358  0.000  0.000  0.015
  0.000  0.000  0.358  0.015  0.000
  0.000  0.000  0.015  0.399  0.000
  0.000  0.015  0.000  0.000  0.399
atomic mag. moment =     0.014344
atom    4   Tr[ns(na)] (up, down, total) =   1.91459  1.90025  3.81485
   spin  1
    eigenvalues: 
  0.357  0.357  0.387  0.407  0.407
    eigenvectors:
  0.000  0.000  1.000  0.000  0.000
  0.720  0.204  0.000  0.032  0.044
  0.204  0.720  0.000  0.044  0.032
  0.017  0.058  0.000  0.521  0.403
  0.058  0.017  0.000  0.403  0.521
    occupations:
  0.387  0.000  0.000  0.000  0.000
  0.000  0.361  0.000  0.000  0.013
  0.000  0.000  0.361  0.013  0.000
  0.000  0.000  0.013  0.403  0.000
  0.000  0.013  0.000  0.000  0.403
   spin  2
    eigenvalues: 
  0.353  0.353  0.387  0.404  0.404
    eigenvectors:
  0.000  0.000  1.000  0.000  0.000
  0.723  0.187  0.000  0.047  0.043
  0.187  0.723  0.000  0.043  0.047
  0.020  0.070  0.000  0.419  0.491
  0.070  0.020  0.000  0.491  0.419
    occupations:
  0.387  0.000  0.000  0.000  0.000
  0.000  0.358  0.000  0.000  0.015
  0.000  0.000  0.358  0.015  0.000
  0.000  0.000  0.015  0.399  0.000
  0.000  0.015  0.000  0.000  0.399
atomic mag. moment =     0.014343
atom    5   Tr[ns(na)] (up, down, total) =   2.74224  2.70308  5.44532
   spin  1
    eigenvalues: 
  0.844  0.947  0.951
    eigenvectors:
  0.337  0.000  0.663
  0.508  0.244  0.248
  0.155  0.756  0.089
    occupations:
  0.915 -0.044  0.025
 -0.044  0.896  0.029
  0.025  0.029  0.932
   spin  2
    eigenvalues: 
  0.864  0.920  0.920
    eigenvectors:
  0.333  0.044  0.622
  0.514  0.111  0.376
  0.153  0.845  0.002
    occupations:
  0.901 -0.023  0.013
 -0.023  0.891  0.016
  0.013  0.016  0.911
atomic mag. moment =     0.039165
atom    6   Tr[ns(na)] (up, down, total) =   2.74225  2.70308  5.44533
   spin  1
    eigenvalues: 
  0.844  0.947  0.951
    eigenvectors:
  0.337  0.000  0.663
  0.487  0.256  0.257
  0.176  0.744  0.080
    occupations:
  0.915  0.044  0.026
  0.044  0.898 -0.030
  0.026 -0.030  0.929
   spin  2
    eigenvalues: 
  0.864  0.920  0.920
    eigenvectors:
  0.333  0.045  0.622
  0.486  0.398  0.116
  0.181  0.558  0.262
    occupations:
  0.901  0.022  0.014
  0.022  0.893 -0.016
  0.014 -0.016  0.910
atomic mag. moment =     0.039166
atom    7   Tr[ns(na)] (up, down, total) =   2.74225  2.70308  5.44533
   spin  1
    eigenvalues: 
  0.844  0.947  0.951
    eigenvectors:
  0.337  0.000  0.663
  0.000  1.000  0.000
  0.663  0.000  0.337
    occupations:
  0.915  0.001 -0.051
  0.001  0.947  0.001
 -0.051  0.001  0.880
   spin  2
    eigenvalues: 
  0.864  0.920  0.920
    eigenvectors:
  0.333  0.051  0.616
  0.000  0.916  0.084
  0.666  0.033  0.301
    occupations:
  0.901  0.001 -0.026
  0.001  0.920  0.001
 -0.026  0.001  0.883
atomic mag. moment =     0.039166
atom    8   Tr[ns(na)] (up, down, total) =   2.74225  2.70308  5.44532
   spin  1
    eigenvalues: 
  0.844  0.947  0.951
    eigenvectors:
  0.337  0.000  0.663
  0.508  0.244  0.248
  0.155  0.756  0.089
    occupations:
  0.915 -0.044  0.025
 -0.044  0.896  0.029
  0.025  0.029  0.932
   spin  2
    eigenvalues: 
  0.864  0.920  0.920
    eigenvectors:
  0.333  0.045  0.622
  0.514  0.109  0.377
  0.153  0.845  0.002
    occupations:
  0.901 -0.023  0.013
 -0.023  0.891  0.016
  0.013  0.016  0.911
atomic mag. moment =     0.039170
atom    9   Tr[ns(na)] (up, down, total) =   2.74225  2.70308  5.44533
   spin  1
    eigenvalues: 
  0.844  0.947  0.951
    eigenvectors:
  0.337  0.000  0.663
  0.487  0.256  0.257
  0.176  0.744  0.080
    occupations:
  0.915  0.044  0.026
  0.044  0.898 -0.030
  0.026 -0.030  0.929
   spin  2
    eigenvalues: 
  0.864  0.920  0.920
    eigenvectors:
  0.333  0.044  0.622
  0.486  0.397  0.117
  0.181  0.559  0.260
    occupations:
  0.901  0.022  0.014
  0.022  0.893 -0.016
  0.014 -0.016  0.910
atomic mag. moment =     0.039164
atom   10   Tr[ns(na)] (up, down, total) =   2.74225  2.70308  5.44533
   spin  1
    eigenvalues: 
  0.844  0.947  0.951
    eigenvectors:
  0.337  0.000  0.663
  0.000  1.000  0.000
  0.663  0.000  0.337
    occupations:
  0.915  0.001 -0.051
  0.001  0.947  0.001
 -0.051  0.001  0.880
   spin  2
    eigenvalues: 
  0.864  0.920  0.920
    eigenvectors:
  0.333  0.045  0.621
  0.000  0.925  0.075
  0.666  0.030  0.304
    occupations:
  0.901  0.001 -0.026
  0.001  0.920  0.001
 -0.026  0.001  0.883
atomic mag. moment =     0.039164
N of occupied +U levels =  56.1389441
 --- exit write_ns ---
 LDA+U Projector read from file 
     Starting wfc from file

     total cpu time spent up to now is        8.3 secs

     per-process dynamical memory:   100.5 Mb

     Self-consistent Calculation

     iteration #  1     ecut=    30.00 Ry     beta=0.20
     Davidson diagonalization with overlap
     c_bands:  1 eigenvalues not converged
     c_bands:  1 eigenvalues not converged
     c_bands:  1 eigenvalues not converged
     c_bands:  1 eigenvalues not converged
     c_bands:  1 eigenvalues not converged
     c_bands:  1 eigenvalues not converged
     c_bands:  1 eigenvalues not converged
     c_bands:  1 eigenvalues not converged
     c_bands:  1 eigenvalues not converged
     c_bands:  1 eigenvalues not converged
     c_bands:  1 eigenvalues not converged
     c_bands:  1 eigenvalues not converged
     c_bands:  1 eigenvalues not converged
     c_bands:  1 eigenvalues not converged
     c_bands:  1 eigenvalues not converged
     c_bands:  1 eigenvalues not converged
     c_bands:  1 eigenvalues not converged
     c_bands:  1 eigenvalues not converged
     c_bands:  1 eigenvalues not converged
     c_bands:  1 eigenvalues not converged
     c_bands:  1 eigenvalues not converged
     c_bands:  1 eigenvalues not converged
     c_bands:  1 eigenvalues not converged
     c_bands:  1 eigenvalues not converged
     c_bands:  1 eigenvalues not converged
     c_bands:  1 eigenvalues not converged
     c_bands:  1 eigenvalues not converged
     c_bands:  1 eigenvalues not converged
     c_bands:  1 eigenvalues not converged
     c_bands:  1 eigenvalues not converged
     c_bands:  1 eigenvalues not converged
     c_bands:  1 eigenvalues not converged
     c_bands:  1 eigenvalues not converged
     c_bands:  1 eigenvalues not converged
     c_bands:  1 eigenvalues not converged
     c_bands:  1 eigenvalues not converged
     c_bands:  1 eigenvalues not converged
     c_bands:  1 eigenvalues not converged
     c_bands:  1 eigenvalues not converged
     c_bands:  1 eigenvalues not converged
     c_bands:  1 eigenvalues not converged
     c_bands:  1 eigenvalues not converged
     ethr =  1.00E-10,  avg # of iterations = 17.2
 --- enter write_ns ---
 LDA+U parameters:
U( 1)     =  0.00000000
alpha( 1) =  0.00000000
U( 2)     =  0.00000000
alpha( 2) =  0.00000000
U( 3)     =  0.00000000
alpha( 3) = -0.05000000
U( 4)     =  0.00000000
alpha( 4) =  0.00000000
atom    1   Tr[ns(na)] (up, down, total) =   4.56559  3.37255  7.93814
   spin  1
    eigenvalues: 
  0.785  0.785  0.999  0.999  0.999
    eigenvectors:
  0.000  0.000  0.000  0.001  0.999
  0.645  0.002  0.341  0.012  0.000
  0.002  0.645  0.012  0.341  0.000
  0.162  0.192  0.444  0.201  0.001
  0.192  0.162  0.202  0.445  0.000
    occupations:
  0.999  0.000  0.000  0.000  0.000
  0.000  0.860  0.000 -0.073  0.072
  0.000  0.000  0.860  0.072  0.073
  0.000 -0.073  0.072  0.923  0.000
  0.000  0.072  0.073  0.000  0.923
   spin  2
    eigenvalues: 
  0.473  0.474  0.773  0.826  0.826
    eigenvectors:
  0.000  0.000  1.000  0.000  0.000
  0.515  0.124  0.000  0.222  0.139
  0.124  0.515  0.000  0.139  0.222
  0.141  0.219  0.000  0.384  0.255
  0.219  0.141  0.000  0.255  0.384
    occupations:
  0.773  0.000  0.000  0.000  0.000
  0.000  0.601  0.000 -0.037  0.165
  0.000  0.000  0.601  0.165  0.037
  0.000 -0.037  0.165  0.699  0.000
  0.000  0.165  0.037  0.000  0.699
atomic mag. moment =     1.193036
atom    2   Tr[ns(na)] (up, down, total) =   4.67254  3.22209  7.89464
   spin  1
    eigenvalues: 
  0.838  0.838  0.999  0.999  0.999
    eigenvectors:
  0.000  0.000  0.000  0.004  0.996
  0.323  0.323  0.151  0.202  0.001
  0.323  0.323  0.202  0.151  0.000
  0.354  0.000  0.003  0.641  0.002
  0.000  0.354  0.642  0.003  0.000
    occupations:
  0.999  0.000  0.000  0.000  0.000
  0.000  0.895  0.000  0.055  0.054
  0.000  0.000  0.895  0.054 -0.054
  0.000  0.055  0.054  0.942  0.000
  0.000  0.054 -0.054  0.000  0.942
   spin  2
    eigenvalues: 
  0.459  0.459  0.729  0.787  0.788
    eigenvectors:
  0.000  0.000  1.000  0.000  0.000
  0.436  0.199  0.000  0.309  0.055
  0.199  0.436  0.000  0.056  0.309
  0.047  0.318  0.000  0.019  0.617
  0.318  0.047  0.000  0.617  0.019
    occupations:
  0.729  0.000  0.000  0.000  0.000
  0.000  0.579  0.000  0.036  0.154
  0.000  0.000  0.579  0.154 -0.036
  0.000  0.036  0.154  0.668  0.000
  0.000  0.154 -0.036  0.000  0.667
atomic mag. moment =     1.450449
atom    3   Tr[ns(na)] (up, down, total) =   1.91391  1.89966  3.81358
   spin  1
    eigenvalues: 
  0.357  0.357  0.387  0.407  0.407
    eigenvectors:
  0.000  0.000  1.000  0.000  0.000
  0.228  0.695  0.000  0.059  0.018
  0.696  0.228  0.000  0.018  0.059
  0.057  0.020  0.000  0.222  0.701
  0.020  0.057  0.000  0.701  0.222
    occupations:
  0.387  0.000  0.000  0.000  0.000
  0.000  0.361  0.000  0.000  0.013
  0.000  0.000  0.361  0.013  0.000
  0.000  0.000  0.013  0.403  0.000
  0.000  0.013  0.000  0.000  0.403
   spin  2
    eigenvalues: 
  0.353  0.353  0.387  0.404  0.404
    eigenvectors:
  0.000  0.000  1.000  0.000  0.000
  0.228  0.681  0.000  0.070  0.021
  0.682  0.228  0.000  0.021  0.069
  0.066  0.024  0.000  0.222  0.688
  0.024  0.067  0.000  0.687  0.222
    occupations:
  0.387  0.000  0.000  0.000  0.000
  0.000  0.357  0.000  0.000  0.015
  0.000  0.000  0.357  0.015  0.000
  0.000  0.000  0.015  0.399  0.000
  0.000  0.015  0.000  0.000  0.399
atomic mag. moment =     0.014251
atom    4   Tr[ns(na)] (up, down, total) =   1.91399  1.89970  3.81369
   spin  1
    eigenvalues: 
  0.357  0.357  0.387  0.407  0.407
    eigenvectors:
  0.000  0.000  1.000  0.000  0.000
  0.690  0.235  0.000  0.056  0.019
  0.235  0.689  0.000  0.018  0.058
  0.020  0.056  0.000  0.236  0.688
  0.055  0.020  0.000  0.689  0.236
    occupations:
  0.387  0.000  0.000  0.000  0.000
  0.000  0.361  0.000  0.000  0.013
  0.000  0.000  0.361  0.013  0.000
  0.000  0.000  0.013  0.403  0.000
  0.000  0.013  0.000  0.000  0.403
   spin  2
    eigenvalues: 
  0.353  0.353  0.387  0.404  0.404
    eigenvectors:
  0.000  0.000  1.000  0.000  0.000
  0.678  0.233  0.000  0.066  0.023
  0.233  0.677  0.000  0.023  0.067
  0.024  0.066  0.000  0.246  0.664
  0.065  0.024  0.000  0.665  0.246
    occupations:
  0.387  0.000  0.000  0.000  0.000
  0.000  0.357  0.000  0.000  0.015
  0.000  0.000  0.357  0.015  0.000
  0.000  0.000  0.015  0.399  0.000
  0.000  0.015  0.000  0.000  0.399
atomic mag. moment =     0.014292
atom    5   Tr[ns(na)] (up, down, total) =   2.74557  2.70717  5.45274
   spin  1
    eigenvalues: 
  0.846  0.948  0.952
    eigenvectors:
  0.336  0.000  0.663
  0.508  0.244  0.248
  0.155  0.756  0.088
    occupations:
  0.916 -0.044  0.024
 -0.044  0.897  0.028
  0.024  0.028  0.932
   spin  2
    eigenvalues: 
  0.865  0.921  0.921
    eigenvectors:
  0.333  0.004  0.663
  0.514  0.193  0.293
  0.153  0.803  0.044
    occupations:
  0.902 -0.023  0.013
 -0.023  0.892  0.016
  0.013  0.016  0.912
atomic mag. moment =     0.038398
atom    6   Tr[ns(na)] (up, down, total) =   2.74216  2.70287  5.44503
   spin  1
    eigenvalues: 
  0.844  0.947  0.951
    eigenvectors:
  0.337  0.000  0.663
  0.486  0.256  0.258
  0.176  0.744  0.079
    occupations:
  0.915  0.044  0.026
  0.044  0.898 -0.030
  0.026 -0.030  0.929
   spin  2
    eigenvalues: 
  0.864  0.919  0.920
    eigenvectors:
  0.333  0.087  0.580
  0.486  0.440  0.074
  0.181  0.472  0.347
    occupations:
  0.901  0.022  0.014
  0.022  0.892 -0.016
  0.014 -0.016  0.909
atomic mag. moment =     0.039293
atom    7   Tr[ns(na)] (up, down, total) =   2.74216  2.70287  5.44503
   spin  1
    eigenvalues: 
  0.844  0.947  0.951
    eigenvectors:
  0.337  0.000  0.663
  0.000  1.000  0.000
  0.663  0.000  0.337
    occupations:
  0.915  0.001 -0.051
  0.001  0.947  0.001
 -0.051  0.001  0.880
   spin  2
    eigenvalues: 
  0.864  0.919  0.920
    eigenvectors:
  0.333  0.145  0.522
  0.000  0.770  0.229
  0.666  0.085  0.249
    occupations:
  0.901  0.001 -0.026
  0.001  0.919  0.001
 -0.026  0.001  0.882
atomic mag. moment =     0.039294
atom    8   Tr[ns(na)] (up, down, total) =   2.74184  2.70290  5.44474
   spin  1
    eigenvalues: 
  0.843  0.947  0.951
    eigenvectors:
  0.337  0.000  0.663
  0.508  0.244  0.248
  0.155  0.756  0.089
    occupations:
  0.915 -0.045  0.025
 -0.045  0.895  0.029
  0.025  0.029  0.932
   spin  2
    eigenvalues: 
  0.864  0.919  0.920
    eigenvectors:
  0.333  0.019  0.648
  0.514  0.149  0.337
  0.153  0.832  0.015
    occupations:
  0.901 -0.023  0.013
 -0.023  0.891  0.016
  0.013  0.016  0.911
atomic mag. moment =     0.038937
atom    9   Tr[ns(na)] (up, down, total) =   2.74214  2.70288  5.44502
   spin  1
    eigenvalues: 
  0.844  0.947  0.951
    eigenvectors:
  0.336  0.000  0.663
  0.487  0.254  0.258
  0.176  0.745  0.079
    occupations:
  0.915  0.044  0.026
  0.044  0.898 -0.030
  0.026 -0.030  0.929
   spin  2
    eigenvalues: 
  0.864  0.919  0.920
    eigenvectors:
  0.334  0.109  0.558
  0.486  0.457  0.058
  0.181  0.435  0.385
    occupations:
  0.901  0.022  0.014
  0.022  0.892 -0.016
  0.014 -0.016  0.909
atomic mag. moment =     0.039256
atom   10   Tr[ns(na)] (up, down, total) =   2.74214  2.70288  5.44502
   spin  1
    eigenvalues: 
  0.844  0.947  0.951
    eigenvectors:
  0.336  0.000  0.663
  0.000  1.000  0.000
  0.663  0.000  0.337
    occupations:
  0.915  0.001 -0.051
  0.001  0.947  0.001
 -0.051  0.001  0.880
   spin  2
    eigenvalues: 
  0.864  0.919  0.920
    eigenvectors:
  0.333  0.100  0.567
  0.000  0.840  0.160
  0.666  0.060  0.274
    occupations:
  0.901  0.001 -0.026
  0.001  0.919  0.001
 -0.026  0.001  0.882
atomic mag. moment =     0.039256
N of occupied +U levels =  56.1376233
 --- exit write_ns ---
 --- in v_hubbard ---
Hubbard energy   -0.0200
 -------

     total cpu time spent up to now is      151.3 secs

     total energy              =    -538.37544102 Ry
     Harris-Foulkes estimate   =    -538.37545664 Ry
     estimated scf accuracy    <       0.00004817 Ry

     total magnetization       =     3.54 Bohr mag/cell
     absolute magnetization    =     3.70 Bohr mag/cell

     iteration #  2     ecut=    30.00 Ry     beta=0.20
     Davidson diagonalization with overlap
     ethr =  6.34E-08,  avg # of iterations =  2.0
 --- enter write_ns ---
 LDA+U parameters:
U( 1)     =  0.00000000
alpha( 1) =  0.00000000
U( 2)     =  0.00000000
alpha( 2) =  0.00000000
U( 3)     =  0.00000000
alpha( 3) = -0.05000000
U( 4)     =  0.00000000
alpha( 4) =  0.00000000
atom    1   Tr[ns(na)] (up, down, total) =   4.56508  3.36951  7.93459
   spin  1
    eigenvalues: 
  0.785  0.785  0.999  0.999  0.999
    eigenvectors:
  0.000  0.000  0.000  0.000  1.000
  0.600  0.046  0.340  0.013  0.000
  0.046  0.600  0.014  0.340  0.000
  0.270  0.084  0.451  0.196  0.000
  0.084  0.270  0.196  0.450  0.000
    occupations:
  0.999  0.000  0.000  0.000  0.000
  0.000  0.860  0.000 -0.073  0.072
  0.000  0.000  0.860  0.072  0.073
  0.000 -0.073  0.072  0.923  0.000
  0.000  0.072  0.073  0.000  0.923
   spin  2
    eigenvalues: 
  0.474  0.474  0.772  0.825  0.825
    eigenvectors:
  0.000  0.000  1.000  0.000  0.000
  0.513  0.126  0.000  0.240  0.121
  0.126  0.513  0.000  0.121  0.240
  0.142  0.219  0.000  0.351  0.288
  0.219  0.142  0.000  0.288  0.351
    occupations:
  0.772  0.000  0.000  0.000  0.000
  0.000  0.601  0.000 -0.037  0.165
  0.000  0.000  0.601  0.164  0.036
  0.000 -0.037  0.164  0.698  0.000
  0.000  0.165  0.036  0.000  0.698
atomic mag. moment =     1.195567
atom    2   Tr[ns(na)] (up, down, total) =   4.67374  3.22867  7.90241
   spin  1
    eigenvalues: 
  0.838  0.838  0.999  0.999  0.999
    eigenvectors:
  0.000  0.000  0.001  0.000  0.998
  0.341  0.305  0.151  0.203  0.000
  0.305  0.341  0.202  0.151  0.001
  0.354  0.000  0.003  0.642  0.000
  0.000  0.354  0.642  0.003  0.001
    occupations:
  0.999  0.000  0.000  0.000  0.000
  0.000  0.895  0.000  0.054  0.054
  0.000  0.000  0.895  0.054 -0.054
  0.000  0.054  0.054  0.942  0.000
  0.000  0.054 -0.054  0.000  0.942
   spin  2
    eigenvalues: 
  0.459  0.460  0.731  0.789  0.789
    eigenvectors:
  0.000  0.000  1.000  0.000  0.000
  0.437  0.198  0.000  0.277  0.087
  0.198  0.437  0.000  0.087  0.277
  0.046  0.319  0.000  0.049  0.587
  0.319  0.046  0.000  0.587  0.049
    occupations:
  0.731  0.000  0.000  0.000  0.000
  0.000  0.580  0.000  0.036  0.154
  0.000  0.000  0.580  0.154 -0.036
  0.000  0.036  0.154  0.669  0.000
  0.000  0.154 -0.036  0.000  0.669
atomic mag. moment =     1.445062
atom    3   Tr[ns(na)] (up, down, total) =   1.91420  1.89989  3.81409
   spin  1
    eigenvalues: 
  0.357  0.357  0.387  0.407  0.407
    eigenvectors:
  0.000  0.000  1.000  0.000  0.000
  0.225  0.698  0.000  0.061  0.015
  0.698  0.225  0.000  0.015  0.061
  0.057  0.019  0.000  0.194  0.730
  0.019  0.057  0.000  0.730  0.194
    occupations:
  0.387  0.000  0.000  0.000  0.000
  0.000  0.361  0.000  0.000  0.013
  0.000  0.000  0.361  0.013  0.000
  0.000  0.000  0.013  0.403  0.000
  0.000  0.013  0.000  0.000  0.403
   spin  2
    eigenvalues: 
  0.353  0.353  0.387  0.404  0.404
    eigenvectors:
  0.000  0.000  1.000  0.000  0.000
  0.223  0.687  0.000  0.083  0.007
  0.687  0.223  0.000  0.007  0.083
  0.067  0.023  0.000  0.075  0.835
  0.023  0.067  0.000  0.835  0.075
    occupations:
  0.387  0.000  0.000  0.000  0.000
  0.000  0.357  0.000  0.000  0.015
  0.000  0.000  0.357  0.015  0.000
  0.000  0.000  0.015  0.399  0.000
  0.000  0.015  0.000  0.000  0.399
atomic mag. moment =     0.014310
atom    4   Tr[ns(na)] (up, down, total) =   1.91422  1.89989  3.81411
   spin  1
    eigenvalues: 
  0.357  0.357  0.387  0.407  0.407
    eigenvectors:
  0.000  0.000  1.000  0.000  0.000
  0.218  0.706  0.000  0.058  0.018
  0.706  0.218  0.000  0.018  0.058
  0.057  0.019  0.000  0.224  0.700
  0.019  0.057  0.000  0.701  0.223
    occupations:
  0.387  0.000  0.000  0.000  0.000
  0.000  0.361  0.000  0.000  0.013
  0.000  0.000  0.361  0.013  0.000
  0.000  0.000  0.013  0.403  0.000
  0.000  0.013  0.000  0.000  0.403
   spin  2
    eigenvalues: 
  0.353  0.353  0.387  0.404  0.404
    eigenvectors:
  0.000  0.000  1.000  0.000  0.000
  0.218  0.693  0.000  0.068  0.022
  0.692  0.218  0.000  0.022  0.068
  0.067  0.023  0.000  0.233  0.677
  0.023  0.067  0.000  0.677  0.233
    occupations:
  0.387  0.000  0.000  0.000  0.000
  0.000  0.357  0.000  0.000  0.015
  0.000  0.000  0.357  0.015  0.000
  0.000  0.000  0.015  0.399  0.000
  0.000  0.015  0.000  0.000  0.399
atomic mag. moment =     0.014335
atom    5   Tr[ns(na)] (up, down, total) =   2.74347  2.70469  5.44817
   spin  1
    eigenvalues: 
  0.845  0.948  0.951
    eigenvectors:
  0.337  0.000  0.663
  0.508  0.244  0.248
  0.155  0.756  0.089
    occupations:
  0.915 -0.044  0.024
 -0.044  0.896  0.028
  0.024  0.028  0.932
   spin  2
    eigenvalues: 
  0.864  0.920  0.920
    eigenvectors:
  0.333  0.010  0.657
  0.513  0.172  0.315
  0.154  0.818  0.028
    occupations:
  0.902 -0.023  0.013
 -0.023  0.892  0.016
  0.013  0.016  0.911
atomic mag. moment =     0.038780
atom    6   Tr[ns(na)] (up, down, total) =   2.74214  2.70284  5.44498
   spin  1
    eigenvalues: 
  0.844  0.947  0.951
    eigenvectors:
  0.337  0.000  0.663
  0.487  0.255  0.258
  0.177  0.744  0.079
    occupations:
  0.915  0.044  0.026
  0.044  0.898 -0.030
  0.026 -0.030  0.929
   spin  2
    eigenvalues: 
  0.864  0.919  0.920
    eigenvectors:
  0.333  0.046  0.621
  0.487  0.398  0.115
  0.180  0.556  0.264
    occupations:
  0.901  0.022  0.014
  0.022  0.892 -0.016
  0.014 -0.016  0.909
atomic mag. moment =     0.039298
atom    7   Tr[ns(na)] (up, down, total) =   2.74214  2.70284  5.44498
   spin  1
    eigenvalues: 
  0.844  0.947  0.951
    eigenvectors:
  0.337  0.000  0.663
  0.000  1.000  0.000
  0.663  0.000  0.337
    occupations:
  0.915  0.001 -0.051
  0.001  0.947  0.001
 -0.051  0.001  0.880
   spin  2
    eigenvalues: 
  0.864  0.919  0.920
    eigenvectors:
  0.333  0.058  0.609
  0.000  0.905  0.094
  0.666  0.037  0.297
    occupations:
  0.901  0.001 -0.026
  0.001  0.919  0.001
 -0.026  0.001  0.882
atomic mag. moment =     0.039298
atom    8   Tr[ns(na)] (up, down, total) =   2.74217  2.70306  5.44523
   spin  1
    eigenvalues: 
  0.844  0.947  0.951
    eigenvectors:
  0.337  0.000  0.663
  0.508  0.244  0.248
  0.155  0.756  0.089
    occupations:
  0.915 -0.045  0.025
 -0.045  0.896  0.029
  0.025  0.029  0.932
   spin  2
    eigenvalues: 
  0.864  0.920  0.920
    eigenvectors:
  0.333  0.027  0.640
  0.513  0.136  0.351
  0.153  0.837  0.009
    occupations:
  0.901 -0.023  0.013
 -0.023  0.891  0.016
  0.013  0.016  0.911
atomic mag. moment =     0.039107
atom    9   Tr[ns(na)] (up, down, total) =   2.74210  2.70282  5.44491
   spin  1
    eigenvalues: 
  0.844  0.947  0.951
    eigenvectors:
  0.337  0.000  0.663
  0.487  0.255  0.258
  0.177  0.744  0.079
    occupations:
  0.915  0.044  0.026
  0.044  0.898 -0.030
  0.026 -0.030  0.929
   spin  2
    eigenvalues: 
  0.864  0.919  0.920
    eigenvectors:
  0.334  0.054  0.613
  0.486  0.408  0.106
  0.180  0.538  0.282
    occupations:
  0.901  0.022  0.014
  0.022  0.892 -0.016
  0.014 -0.016  0.909
atomic mag. moment =     0.039280
atom   10   Tr[ns(na)] (up, down, total) =   2.74210  2.70282  5.44491
   spin  1
    eigenvalues: 
  0.844  0.947  0.951
    eigenvectors:
  0.337  0.000  0.663
  0.000  1.000  0.000
  0.663  0.000  0.337
    occupations:
  0.915  0.001 -0.051
  0.001  0.947  0.001
 -0.051  0.001  0.880
   spin  2
    eigenvalues: 
  0.864  0.919  0.920
    eigenvectors:
  0.334  0.047  0.619
  0.000  0.922  0.078
  0.666  0.031  0.303
    occupations:
  0.901  0.001 -0.026
  0.001  0.919  0.001
 -0.026  0.001  0.882
atomic mag. moment =     0.039281
N of occupied +U levels =  56.1383833
 --- exit write_ns ---
 --- in v_hubbard ---
Hubbard energy   -0.0200
 -------

     total cpu time spent up to now is      210.0 secs

     total energy              =    -538.37544082 Ry
     Harris-Foulkes estimate   =    -538.37544935 Ry
     estimated scf accuracy    <       0.00004909 Ry

     total magnetization       =     3.54 Bohr mag/cell
     absolute magnetization    =     3.69 Bohr mag/cell

     iteration #  3     ecut=    30.00 Ry     beta=0.20
     Davidson diagonalization with overlap
     ethr =  6.34E-08,  avg # of iterations =  1.0
 --- enter write_ns ---
 LDA+U parameters:
U( 1)     =  0.00000000
alpha( 1) =  0.00000000
U( 2)     =  0.00000000
alpha( 2) =  0.00000000
U( 3)     =  0.00000000
alpha( 3) = -0.05000000
U( 4)     =  0.00000000
alpha( 4) =  0.00000000
atom    1   Tr[ns(na)] (up, down, total) =   4.56873  3.38646  7.95518
   spin  1
    eigenvalues: 
  0.786  0.786  0.999  0.999  0.999
    eigenvectors:
  0.000  0.000  0.000  0.000  1.000
  0.599  0.047  0.340  0.013  0.000
  0.047  0.599  0.013  0.340  0.000
  0.271  0.083  0.450  0.196  0.000
  0.083  0.270  0.196  0.450  0.000
    occupations:
  0.999  0.000  0.000  0.000  0.000
  0.000  0.861  0.000 -0.072  0.071
  0.000  0.000  0.862  0.071  0.072
  0.000 -0.072  0.071  0.924  0.000
  0.000  0.071  0.072  0.000  0.924
   spin  2
    eigenvalues: 
  0.475  0.475  0.777  0.830  0.830
    eigenvectors:
  0.000  0.000  1.000  0.000  0.000
  0.514  0.125  0.000  0.230  0.130
  0.125  0.514  0.000  0.131  0.230
  0.143  0.218  0.000  0.371  0.268
  0.218  0.143  0.000  0.268  0.371
    occupations:
  0.777  0.000  0.000  0.000  0.000
  0.000  0.603  0.000 -0.037  0.166
  0.000  0.000  0.603  0.166  0.037
  0.000 -0.037  0.166  0.702  0.000
  0.000  0.166  0.037  0.000  0.702
atomic mag. moment =     1.182269
atom    2   Tr[ns(na)] (up, down, total) =   4.67030  3.21099  7.88129
   spin  1
    eigenvalues: 
  0.837  0.837  0.999  0.999  0.999
    eigenvectors:
  0.000  0.000  0.001  0.000  0.999
  0.342  0.304  0.144  0.210  0.000
  0.304  0.342  0.209  0.144  0.000
  0.354  0.000  0.005  0.640  0.000
  0.000  0.354  0.640  0.005  0.001
    occupations:
  0.999  0.000  0.000  0.000  0.000
  0.000  0.894  0.000  0.055  0.055
  0.000  0.000  0.894  0.055 -0.055
  0.000  0.055  0.055  0.942  0.000
  0.000  0.055 -0.055  0.000  0.942
   spin  2
    eigenvalues: 
  0.459  0.459  0.725  0.784  0.784
    eigenvectors:
  0.000  0.000  1.000  0.000  0.000
  0.438  0.197  0.000  0.303  0.062
  0.197  0.438  0.000  0.062  0.303
  0.046  0.318  0.000  0.025  0.610
  0.318  0.046  0.000  0.610  0.025
    occupations:
  0.725  0.000  0.000  0.000  0.000
  0.000  0.577  0.000  0.035  0.153
  0.000  0.000  0.577  0.153 -0.035
  0.000  0.035  0.153  0.665  0.000
  0.000  0.153 -0.035  0.000  0.665
atomic mag. moment =     1.459319
atom    3   Tr[ns(na)] (up, down, total) =   1.91420  1.89991  3.81411
   spin  1
    eigenvalues: 
  0.357  0.357  0.387  0.407  0.407
    eigenvectors:
  0.000  0.000  1.000  0.000  0.000
  0.227  0.697  0.000  0.060  0.016
  0.697  0.227  0.000  0.016  0.060
  0.057  0.019  0.000  0.204  0.720
  0.019  0.057  0.000  0.720  0.204
    occupations:
  0.387  0.000  0.000  0.000  0.000
  0.000  0.361  0.000  0.000  0.013
  0.000  0.000  0.361  0.013  0.000
  0.000  0.000  0.013  0.403  0.000
  0.000  0.013  0.000  0.000  0.403
   spin  2
    eigenvalues: 
  0.353  0.353  0.387  0.404  0.404
    eigenvectors:
  0.000  0.000  1.000  0.000  0.000
  0.225  0.685  0.000  0.082  0.008
  0.685  0.225  0.000  0.008  0.082
  0.066  0.024  0.000  0.092  0.818
  0.024  0.066  0.000  0.818  0.092
    occupations:
  0.387  0.000  0.000  0.000  0.000
  0.000  0.357  0.000  0.000  0.015
  0.000  0.000  0.357  0.015  0.000
  0.000  0.000  0.015  0.399  0.000
  0.000  0.015  0.000  0.000  0.399
atomic mag. moment =     0.014287
atom    4   Tr[ns(na)] (up, down, total) =   1.91422  1.89991  3.81412
   spin  1
    eigenvalues: 
  0.357  0.357  0.387  0.407  0.407
    eigenvectors:
  0.000  0.000  1.000  0.000  0.000
  0.209  0.715  0.000  0.058  0.018
  0.715  0.209  0.000  0.018  0.058
  0.058  0.018  0.000  0.228  0.696
  0.018  0.058  0.000  0.696  0.228
    occupations:
  0.387  0.000  0.000  0.000  0.000
  0.000  0.361  0.000  0.000  0.013
  0.000  0.000  0.361  0.013  0.000
  0.000  0.000  0.013  0.403  0.000
  0.000  0.013  0.000  0.000  0.403
   spin  2
    eigenvalues: 
  0.353  0.353  0.387  0.404  0.404
    eigenvectors:
  0.000  0.000  1.000  0.000  0.000
  0.217  0.693  0.000  0.067  0.022
  0.693  0.217  0.000  0.022  0.068
  0.067  0.023  0.000  0.240  0.670
  0.023  0.067  0.000  0.670  0.240
    occupations:
  0.387  0.000  0.000  0.000  0.000
  0.000  0.357  0.000  0.000  0.015
  0.000  0.000  0.357  0.015  0.000
  0.000  0.000  0.015  0.399  0.000
  0.000  0.015  0.000  0.000  0.399
atomic mag. moment =     0.014313
atom    5   Tr[ns(na)] (up, down, total) =   2.74343  2.70476  5.44819
   spin  1
    eigenvalues: 
  0.845  0.948  0.951
    eigenvectors:
  0.337  0.000  0.663
  0.507  0.244  0.249
  0.156  0.756  0.088
    occupations:
  0.915 -0.044  0.025
 -0.044  0.896  0.028
  0.025  0.028  0.932
   spin  2
    eigenvalues: 
  0.864  0.920  0.920
    eigenvectors:
  0.333  0.014  0.653
  0.515  0.160  0.325
  0.151  0.827  0.022
    occupations:
  0.902 -0.023  0.013
 -0.023  0.891  0.016
  0.013  0.016  0.912
atomic mag. moment =     0.038662
atom    6   Tr[ns(na)] (up, down, total) =   2.74212  2.70294  5.44506
   spin  1
    eigenvalues: 
  0.844  0.947  0.951
    eigenvectors:
  0.337  0.000  0.663
  0.487  0.255  0.258
  0.176  0.745  0.079
    occupations:
  0.915  0.044  0.026
  0.044  0.898 -0.030
  0.026 -0.030  0.929
   spin  2
    eigenvalues: 
  0.864  0.919  0.920
    eigenvectors:
  0.333  0.048  0.619
  0.484  0.405  0.111
  0.182  0.547  0.270
    occupations:
  0.901  0.022  0.014
  0.022  0.893 -0.017
  0.014 -0.017  0.909
atomic mag. moment =     0.039172
atom    7   Tr[ns(na)] (up, down, total) =   2.74212  2.70294  5.44506
   spin  1
    eigenvalues: 
  0.844  0.947  0.951
    eigenvectors:
  0.337  0.000  0.663
  0.000  1.000  0.000
  0.663  0.000  0.337
    occupations:
  0.915  0.001 -0.051
  0.001  0.947  0.001
 -0.051  0.001  0.880
   spin  2
    eigenvalues: 
  0.864  0.919  0.920
    eigenvectors:
  0.333  0.062  0.605
  0.000  0.897  0.102
  0.666  0.041  0.293
    occupations:
  0.901  0.001 -0.026
  0.001  0.919  0.001
 -0.026  0.001  0.882
atomic mag. moment =     0.039172
atom    8   Tr[ns(na)] (up, down, total) =   2.74211  2.70312  5.44524
   spin  1
    eigenvalues: 
  0.843  0.947  0.951
    eigenvectors:
  0.337  0.000  0.663
  0.507  0.244  0.249
  0.156  0.756  0.088
    occupations:
  0.915 -0.045  0.025
 -0.045  0.896  0.029
  0.025  0.029  0.932
   spin  2
    eigenvalues: 
  0.864  0.920  0.920
    eigenvectors:
  0.333  0.033  0.633
  0.515  0.123  0.362
  0.151  0.844  0.005
    occupations:
  0.901 -0.023  0.012
 -0.023  0.891  0.016
  0.012  0.016  0.911
atomic mag. moment =     0.038988
atom    9   Tr[ns(na)] (up, down, total) =   2.74208  2.70293  5.44501
   spin  1
    eigenvalues: 
  0.844  0.947  0.951
    eigenvectors:
  0.337  0.000  0.663
  0.487  0.255  0.258
  0.176  0.745  0.079
    occupations:
  0.915  0.044  0.026
  0.044  0.898 -0.030
  0.026 -0.030  0.929
   spin  2
    eigenvalues: 
  0.864  0.919  0.920
    eigenvectors:
  0.334  0.055  0.612
  0.484  0.413  0.103
  0.183  0.533  0.285
    occupations:
  0.901  0.022  0.014
  0.022  0.893 -0.017
  0.014 -0.017  0.909
atomic mag. moment =     0.039153
atom   10   Tr[ns(na)] (up, down, total) =   2.74208  2.70293  5.44501
   spin  1
    eigenvalues: 
  0.844  0.947  0.951
    eigenvectors:
  0.337  0.000  0.663
  0.000  1.000  0.000
  0.663  0.000  0.337
    occupations:
  0.915  0.001 -0.051
  0.001  0.947  0.001
 -0.051  0.001  0.880
   spin  2
    eigenvalues: 
  0.864  0.919  0.920
    eigenvectors:
  0.334  0.052  0.614
  0.000  0.912  0.087
  0.666  0.035  0.299
    occupations:
  0.901  0.001 -0.026
  0.001  0.919  0.001
 -0.026  0.001  0.882
atomic mag. moment =     0.039154
N of occupied +U levels =  56.1382669
 --- exit write_ns ---
 --- in v_hubbard ---
Hubbard energy   -0.0200
 -------

     total cpu time spent up to now is      267.7 secs

     total energy              =    -538.37543750 Ry
     Harris-Foulkes estimate   =    -538.37545900 Ry
     estimated scf accuracy    <       0.00049364 Ry

     total magnetization       =     3.54 Bohr mag/cell
     absolute magnetization    =     3.69 Bohr mag/cell

     iteration #  4     ecut=    30.00 Ry     beta=0.20
     Davidson diagonalization with overlap
     ethr =  6.34E-08,  avg # of iterations =  1.0
 --- enter write_ns ---
 LDA+U parameters:
U( 1)     =  0.00000000
alpha( 1) =  0.00000000
U( 2)     =  0.00000000
alpha( 2) =  0.00000000
U( 3)     =  0.00000000
alpha( 3) = -0.05000000
U( 4)     =  0.00000000
alpha( 4) =  0.00000000
atom    1   Tr[ns(na)] (up, down, total) =   4.56581  3.37306  7.93887
   spin  1
    eigenvalues: 
  0.785  0.785  0.999  0.999  0.999
    eigenvectors:
  0.000  0.000  0.000  0.000  1.000
  0.599  0.047  0.338  0.015  0.000
  0.047  0.599  0.015  0.338  0.000
  0.271  0.083  0.458  0.188  0.000
  0.083  0.271  0.188  0.458  0.000
    occupations:
  0.999  0.000  0.000  0.000  0.000
  0.000  0.861  0.000 -0.073  0.072
  0.000  0.000  0.861  0.072  0.073
  0.000 -0.073  0.072  0.923  0.000
  0.000  0.072  0.073  0.000  0.923
   spin  2
    eigenvalues: 
  0.474  0.474  0.773  0.826  0.826
    eigenvectors:
  0.000  0.000  1.000  0.000  0.000
  0.513  0.126  0.000  0.221  0.140
  0.126  0.513  0.000  0.140  0.221
  0.142  0.219  0.000  0.387  0.252
  0.219  0.142  0.000  0.252  0.387
    occupations:
  0.773  0.000  0.000  0.000  0.000
  0.000  0.601  0.000 -0.037  0.165
  0.000  0.000  0.601  0.165  0.037
  0.000 -0.037  0.165  0.699  0.000
  0.000  0.165  0.037  0.000  0.699
atomic mag. moment =     1.192748
atom    2   Tr[ns(na)] (up, down, total) =   4.67287  3.22401  7.89688
   spin  1
    eigenvalues: 
  0.838  0.838  0.999  0.999  0.999
    eigenvectors:
  0.000  0.000  0.001  0.000  0.998
  0.341  0.305  0.143  0.211  0.000
  0.306  0.341  0.210  0.143  0.001
  0.354  0.000  0.006  0.640  0.000
  0.000  0.354  0.640  0.006  0.001
    occupations:
  0.999  0.000  0.000  0.000  0.000
  0.000  0.895  0.000  0.054  0.054
  0.000  0.000  0.895  0.054 -0.054
  0.000  0.054  0.054  0.942  0.000
  0.000  0.054 -0.054  0.000  0.942
   spin  2
    eigenvalues: 
  0.459  0.460  0.730  0.788  0.788
    eigenvectors:
  0.000  0.000  1.000  0.000  0.000
  0.438  0.198  0.000  0.328  0.037
  0.198  0.438  0.000  0.037  0.328
  0.046  0.319  0.000  0.006  0.630
  0.319  0.046  0.000  0.630  0.006
    occupations:
  0.730  0.000  0.000  0.000  0.000
  0.000  0.579  0.000  0.036  0.154
  0.000  0.000  0.579  0.154 -0.036
  0.000  0.036  0.154  0.668  0.000
  0.000  0.154 -0.036  0.000  0.668
atomic mag. moment =     1.448863
atom    3   Tr[ns(na)] (up, down, total) =   1.91421  1.89992  3.81413
   spin  1
    eigenvalues: 
  0.357  0.357  0.387  0.407  0.407
    eigenvectors:
  0.000  0.000  1.000  0.000  0.000
  0.227  0.696  0.000  0.060  0.016
  0.697  0.227  0.000  0.016  0.060
  0.057  0.019  0.000  0.202  0.722
  0.019  0.057  0.000  0.722  0.202
    occupations:
  0.387  0.000  0.000  0.000  0.000
  0.000  0.361  0.000  0.000  0.013
  0.000  0.000  0.361  0.013  0.000
  0.000  0.000  0.013  0.403  0.000
  0.000  0.013  0.000  0.000  0.403
   spin  2
    eigenvalues: 
  0.353  0.353  0.387  0.404  0.404
    eigenvectors:
  0.000  0.000  1.000  0.000  0.000
  0.225  0.685  0.000  0.044  0.047
  0.685  0.225  0.000  0.047  0.044
  0.066  0.024  0.000  0.455  0.455
  0.024  0.067  0.000  0.455  0.455
    occupations:
  0.387  0.000  0.000  0.000  0.000
  0.000  0.357  0.000  0.000  0.015
  0.000  0.000  0.357  0.015  0.000
  0.000  0.000  0.015  0.399  0.000
  0.000  0.015  0.000  0.000  0.399
atomic mag. moment =     0.014291
atom    4   Tr[ns(na)] (up, down, total) =   1.91423  1.89991  3.81414
   spin  1
    eigenvalues: 
  0.357  0.357  0.387  0.407  0.407
    eigenvectors:
  0.000  0.000  1.000  0.000  0.000
  0.211  0.713  0.000  0.058  0.018
  0.712  0.212  0.000  0.018  0.058
  0.058  0.018  0.000  0.228  0.696
  0.018  0.058  0.000  0.696  0.228
    occupations:
  0.387  0.000  0.000  0.000  0.000
  0.000  0.361  0.000  0.000  0.013
  0.000  0.000  0.361  0.013  0.000
  0.000  0.000  0.013  0.403  0.000
  0.000  0.013  0.000  0.000  0.403
   spin  2
    eigenvalues: 
  0.353  0.353  0.387  0.404  0.404
    eigenvectors:
  0.000  0.000  1.000  0.000  0.000
  0.218  0.692  0.000  0.067  0.022
  0.692  0.218  0.000  0.022  0.068
  0.067  0.023  0.000  0.239  0.671
  0.023  0.067  0.000  0.671  0.239
    occupations:
  0.387  0.000  0.000  0.000  0.000
  0.000  0.357  0.000  0.000  0.015
  0.000  0.000  0.357  0.015  0.000
  0.000  0.000  0.015  0.399  0.000
  0.000  0.015  0.000  0.000  0.399
atomic mag. moment =     0.014317
atom    5   Tr[ns(na)] (up, down, total) =   2.74349  2.70476  5.44825
   spin  1
    eigenvalues: 
  0.845  0.948  0.951
    eigenvectors:
  0.337  0.000  0.663
  0.508  0.244  0.248
  0.155  0.756  0.089
    occupations:
  0.915 -0.044  0.024
 -0.044  0.896  0.028
  0.024  0.028  0.932
   spin  2
    eigenvalues: 
  0.865  0.920  0.920
    eigenvectors:
  0.333  0.011  0.656
  0.514  0.168  0.319
  0.153  0.821  0.026
    occupations:
  0.902 -0.023  0.013
 -0.023  0.892  0.016
  0.013  0.016  0.912
atomic mag. moment =     0.038736
atom    6   Tr[ns(na)] (up, down, total) =   2.74222  2.70297  5.44519
   spin  1
    eigenvalues: 
  0.844  0.947  0.951
    eigenvectors:
  0.337  0.000  0.663
  0.487  0.255  0.258
  0.176  0.744  0.079
    occupations:
  0.915  0.044  0.026
  0.044  0.898 -0.030
  0.026 -0.030  0.929
   spin  2
    eigenvalues: 
  0.864  0.920  0.920
    eigenvectors:
  0.333  0.043  0.623
  0.486  0.395  0.119
  0.181  0.561  0.258
    occupations:
  0.901  0.022  0.014
  0.022  0.892 -0.016
  0.014 -0.016  0.909
atomic mag. moment =     0.039242
atom    7   Tr[ns(na)] (up, down, total) =   2.74222  2.70297  5.44519
   spin  1
    eigenvalues: 
  0.844  0.947  0.951
    eigenvectors:
  0.337  0.000  0.663
  0.000  1.000  0.000
  0.663  0.000  0.337
    occupations:
  0.915  0.001 -0.051
  0.001  0.947  0.001
 -0.051  0.001  0.880
   spin  2
    eigenvalues: 
  0.864  0.920  0.920
    eigenvectors:
  0.333  0.062  0.604
  0.000  0.898  0.102
  0.666  0.040  0.294
    occupations:
  0.901  0.001 -0.026
  0.001  0.919  0.001
 -0.026  0.001  0.882
atomic mag. moment =     0.039242
atom    8   Tr[ns(na)] (up, down, total) =   2.74218  2.70312  5.44530
   spin  1
    eigenvalues: 
  0.844  0.947  0.951
    eigenvectors:
  0.337  0.000  0.663
  0.508  0.244  0.248
  0.155  0.756  0.089
    occupations:
  0.915 -0.044  0.025
 -0.044  0.896  0.029
  0.025  0.029  0.932
   spin  2
    eigenvalues: 
  0.864  0.920  0.920
    eigenvectors:
  0.333  0.031  0.635
  0.514  0.128  0.358
  0.153  0.841  0.006
    occupations:
  0.901 -0.023  0.013
 -0.023  0.891  0.016
  0.013  0.016  0.911
atomic mag. moment =     0.039065
atom    9   Tr[ns(na)] (up, down, total) =   2.74219  2.70297  5.44516
   spin  1
    eigenvalues: 
  0.844  0.947  0.951
    eigenvectors:
  0.337  0.000  0.663
  0.487  0.255  0.258
  0.176  0.745  0.079
    occupations:
  0.915  0.044  0.026
  0.044  0.898 -0.030
  0.026 -0.030  0.929
   spin  2
    eigenvalues: 
  0.864  0.920  0.920
    eigenvectors:
  0.334  0.050  0.616
  0.486  0.404  0.110
  0.181  0.546  0.274
    occupations:
  0.901  0.022  0.014
  0.022  0.892 -0.016
  0.014 -0.016  0.909
atomic mag. moment =     0.039222
atom   10   Tr[ns(na)] (up, down, total) =   2.74219  2.70297  5.44515
   spin  1
    eigenvalues: 
  0.844  0.947  0.951
    eigenvectors:
  0.337  0.000  0.663
  0.000  1.000  0.000
  0.663  0.000  0.337
    occupations:
  0.915  0.001 -0.051
  0.001  0.947  0.001
 -0.051  0.001  0.880
   spin  2
    eigenvalues: 
  0.864  0.920  0.920
    eigenvectors:
  0.334  0.051  0.615
  0.000  0.915  0.084
  0.666  0.033  0.301
    occupations:
  0.901  0.001 -0.026
  0.001  0.919  0.001
 -0.026  0.001  0.882
atomic mag. moment =     0.039223
N of occupied +U levels =  56.1382654
 --- exit write_ns ---
 --- in v_hubbard ---
Hubbard energy   -0.0200
 -------

     total cpu time spent up to now is      318.4 secs

     total energy              =    -538.37544813 Ry
     Harris-Foulkes estimate   =    -538.37544813 Ry
     estimated scf accuracy    <       0.00000023 Ry

     total magnetization       =     3.54 Bohr mag/cell
     absolute magnetization    =     3.69 Bohr mag/cell

     iteration #  5     ecut=    30.00 Ry     beta=0.20
     Davidson diagonalization with overlap
     ethr =  3.01E-10,  avg # of iterations =  2.2
 --- enter write_ns ---
 LDA+U parameters:
U( 1)     =  0.00000000
alpha( 1) =  0.00000000
U( 2)     =  0.00000000
alpha( 2) =  0.00000000
U( 3)     =  0.00000000
alpha( 3) = -0.05000000
U( 4)     =  0.00000000
alpha( 4) =  0.00000000
atom    1   Tr[ns(na)] (up, down, total) =   4.56585  3.37316  7.93900
   spin  1
    eigenvalues: 
  0.785  0.785  0.999  0.999  0.999
    eigenvectors:
  0.000  0.000  0.000  0.000  1.000
  0.598  0.048  0.338  0.016  0.000
  0.048  0.598  0.016  0.338  0.000
  0.272  0.082  0.461  0.185  0.000
  0.082  0.272  0.185  0.461  0.000
    occupations:
  0.999  0.000  0.000  0.000  0.000
  0.000  0.861  0.000 -0.073  0.072
  0.000  0.000  0.861  0.072  0.073
  0.000 -0.073  0.072  0.923  0.000
  0.000  0.072  0.073  0.000  0.923
   spin  2
    eigenvalues: 
  0.474  0.474  0.773  0.826  0.826
    eigenvectors:
  0.000  0.000  1.000  0.000  0.000
  0.513  0.126  0.000  0.212  0.149
  0.126  0.513  0.000  0.149  0.212
  0.142  0.219  0.000  0.402  0.237
  0.219  0.142  0.000  0.237  0.402
    occupations:
  0.773  0.000  0.000  0.000  0.000
  0.000  0.601  0.000 -0.037  0.165
  0.000  0.000  0.601  0.165  0.037
  0.000 -0.037  0.165  0.699  0.000
  0.000  0.165  0.037  0.000  0.699
atomic mag. moment =     1.192693
atom    2   Tr[ns(na)] (up, down, total) =   4.67289  3.22406  7.89695
   spin  1
    eigenvalues: 
  0.838  0.838  0.999  0.999  0.999
    eigenvectors:
  0.000  0.000  0.001  0.000  0.999
  0.337  0.309  0.157  0.197  0.000
  0.309  0.337  0.196  0.157  0.000
  0.354  0.000  0.002  0.644  0.000
  0.000  0.354  0.644  0.002  0.000
    occupations:
  0.999  0.000  0.000  0.000  0.000
  0.000  0.895  0.000  0.054  0.054
  0.000  0.000  0.895  0.054 -0.054
  0.000  0.054  0.054  0.942  0.000
  0.000  0.054 -0.054  0.000  0.942
   spin  2
    eigenvalues: 
  0.459  0.460  0.730  0.788  0.788
    eigenvectors:
  0.000  0.000  1.000  0.000  0.000
  0.438  0.198  0.000  0.338  0.027
  0.198  0.438  0.000  0.027  0.338
  0.046  0.319  0.000  0.001  0.634
  0.319  0.046  0.000  0.634  0.001
    occupations:
  0.730  0.000  0.000  0.000  0.000
  0.000  0.579  0.000  0.036  0.154
  0.000  0.000  0.579  0.154 -0.036
  0.000  0.036  0.154  0.668  0.000
  0.000  0.154 -0.036  0.000  0.668
atomic mag. moment =     1.448825
atom    3   Tr[ns(na)] (up, down, total) =   1.91425  1.89995  3.81419
   spin  1
    eigenvalues: 
  0.357  0.357  0.387  0.407  0.407
    eigenvectors:
  0.000  0.000  1.000  0.000  0.000
  0.227  0.697  0.000  0.061  0.015
  0.697  0.227  0.000  0.015  0.061
  0.057  0.019  0.000  0.194  0.730
  0.019  0.057  0.000  0.730  0.194
    occupations:
  0.387  0.000  0.000  0.000  0.000
  0.000  0.361  0.000  0.000  0.013
  0.000  0.000  0.361  0.013  0.000
  0.000  0.000  0.013  0.403  0.000
  0.000  0.013  0.000  0.000  0.403
   spin  2
    eigenvalues: 
  0.353  0.353  0.387  0.404  0.404
    eigenvectors:
  0.000  0.000  1.000  0.000  0.000
  0.225  0.685  0.000  0.028  0.062
  0.685  0.225  0.000  0.062  0.028
  0.066  0.024  0.000  0.612  0.298
  0.024  0.067  0.000  0.298  0.612
    occupations:
  0.387  0.000  0.000  0.000  0.000
  0.000  0.357  0.000  0.000  0.015
  0.000  0.000  0.357  0.015  0.000
  0.000  0.000  0.015  0.399  0.000
  0.000  0.015  0.000  0.000  0.399
atomic mag. moment =     0.014297
atom    4   Tr[ns(na)] (up, down, total) =   1.91426  1.89994  3.81420
   spin  1
    eigenvalues: 
  0.357  0.357  0.387  0.407  0.407
    eigenvectors:
  0.000  0.000  1.000  0.000  0.000
  0.216  0.708  0.000  0.058  0.018
  0.708  0.216  0.000  0.017  0.059
  0.058  0.018  0.000  0.223  0.701
  0.019  0.057  0.000  0.702  0.223
    occupations:
  0.387  0.000  0.000  0.000  0.000
  0.000  0.361  0.000  0.000  0.013
  0.000  0.000  0.361  0.013  0.000
  0.000  0.000  0.013  0.403  0.000
  0.000  0.013  0.000  0.000  0.403
   spin  2
    eigenvalues: 
  0.353  0.353  0.387  0.404  0.404
    eigenvectors:
  0.000  0.000  1.000  0.000  0.000
  0.220  0.690  0.000  0.068  0.022
  0.689  0.221  0.000  0.022  0.068
  0.067  0.023  0.000  0.237  0.673
  0.023  0.067  0.000  0.674  0.237
    occupations:
  0.387  0.000  0.000  0.000  0.000
  0.000  0.357  0.000  0.000  0.015
  0.000  0.000  0.357  0.015  0.000
  0.000  0.000  0.015  0.399  0.000
  0.000  0.015  0.000  0.000  0.399
atomic mag. moment =     0.014322
atom    5   Tr[ns(na)] (up, down, total) =   2.74346  2.70473  5.44819
   spin  1
    eigenvalues: 
  0.845  0.948  0.951
    eigenvectors:
  0.337  0.000  0.663
  0.508  0.244  0.248
  0.155  0.756  0.089
    occupations:
  0.915 -0.044  0.024
 -0.044  0.896  0.028
  0.024  0.028  0.932
   spin  2
    eigenvalues: 
  0.864  0.920  0.920
    eigenvectors:
  0.333  0.011  0.656
  0.514  0.168  0.318
  0.153  0.821  0.026
    occupations:
  0.902 -0.023  0.013
 -0.023  0.892  0.016
  0.013  0.016  0.912
atomic mag. moment =     0.038732
atom    6   Tr[ns(na)] (up, down, total) =   2.74220  2.70295  5.44515
   spin  1
    eigenvalues: 
  0.844  0.947  0.951
    eigenvectors:
  0.337  0.000  0.663
  0.487  0.255  0.258
  0.176  0.744  0.079
    occupations:
  0.915  0.044  0.026
  0.044  0.898 -0.030
  0.026 -0.030  0.929
   spin  2
    eigenvalues: 
  0.864  0.919  0.920
    eigenvectors:
  0.333  0.041  0.626
  0.486  0.392  0.122
  0.181  0.567  0.252
    occupations:
  0.901  0.022  0.014
  0.022  0.892 -0.016
  0.014 -0.016  0.909
atomic mag. moment =     0.039247
atom    7   Tr[ns(na)] (up, down, total) =   2.74220  2.70295  5.44516
   spin  1
    eigenvalues: 
  0.844  0.947  0.951
    eigenvectors:
  0.337  0.000  0.663
  0.000  1.000  0.000
  0.663  0.000  0.337
    occupations:
  0.915  0.001 -0.051
  0.001  0.947  0.001
 -0.051  0.001  0.880
   spin  2
    eigenvalues: 
  0.864  0.919  0.920
    eigenvectors:
  0.333  0.067  0.600
  0.000  0.891  0.108
  0.666  0.042  0.292
    occupations:
  0.901  0.001 -0.026
  0.001  0.919  0.001
 -0.026  0.001  0.882
atomic mag. moment =     0.039247
atom    8   Tr[ns(na)] (up, down, total) =   2.74215  2.70308  5.44523
   spin  1
    eigenvalues: 
  0.844  0.947  0.951
    eigenvectors:
  0.337  0.000  0.663
  0.508  0.244  0.248
  0.155  0.756  0.089
    occupations:
  0.915 -0.045  0.025
 -0.045  0.896  0.029
  0.025  0.029  0.932
   spin  2
    eigenvalues: 
  0.864  0.920  0.920
    eigenvectors:
  0.333  0.031  0.635
  0.514  0.128  0.359
  0.153  0.841  0.006
    occupations:
  0.901 -0.023  0.013
 -0.023  0.891  0.016
  0.013  0.016  0.911
atomic mag. moment =     0.039065
atom    9   Tr[ns(na)] (up, down, total) =   2.74218  2.70295  5.44512
   spin  1
    eigenvalues: 
  0.844  0.947  0.951
    eigenvectors:
  0.337  0.000  0.663
  0.487  0.255  0.258
  0.176  0.745  0.079
    occupations:
  0.915  0.044  0.026
  0.044  0.898 -0.030
  0.026 -0.030  0.929
   spin  2
    eigenvalues: 
  0.864  0.919  0.920
    eigenvectors:
  0.334  0.048  0.619
  0.486  0.402  0.113
  0.181  0.550  0.269
    occupations:
  0.901  0.022  0.014
  0.022  0.892 -0.016
  0.014 -0.016  0.909
atomic mag. moment =     0.039226
atom   10   Tr[ns(na)] (up, down, total) =   2.74218  2.70295  5.44512
   spin  1
    eigenvalues: 
  0.844  0.947  0.951
    eigenvectors:
  0.337  0.000  0.663
  0.000  1.000  0.000
  0.663  0.000  0.337
    occupations:
  0.915  0.001 -0.051
  0.001  0.947  0.001
 -0.051  0.001  0.880
   spin  2
    eigenvalues: 
  0.864  0.919  0.920
    eigenvectors:
  0.334  0.055  0.612
  0.000  0.910  0.090
  0.666  0.035  0.299
    occupations:
  0.901  0.001 -0.026
  0.001  0.919  0.001
 -0.026  0.001  0.882
atomic mag. moment =     0.039227
N of occupied +U levels =  56.1383213
 --- exit write_ns ---
 --- in v_hubbard ---
Hubbard energy   -0.0200
 -------

     total cpu time spent up to now is      383.8 secs

     total energy              =    -538.37544815 Ry
     Harris-Foulkes estimate   =    -538.37544816 Ry
     estimated scf accuracy    <       0.00000012 Ry

     total magnetization       =     3.54 Bohr mag/cell
     absolute magnetization    =     3.69 Bohr mag/cell

     iteration #  6     ecut=    30.00 Ry     beta=0.20
     Davidson diagonalization with overlap
     ethr =  1.56E-10,  avg # of iterations =  1.4
 --- enter write_ns ---
 LDA+U parameters:
U( 1)     =  0.00000000
alpha( 1) =  0.00000000
U( 2)     =  0.00000000
alpha( 2) =  0.00000000
U( 3)     =  0.00000000
alpha( 3) = -0.05000000
U( 4)     =  0.00000000
alpha( 4) =  0.00000000
atom    1   Tr[ns(na)] (up, down, total) =   4.56588  3.37322  7.93911
   spin  1
    eigenvalues: 
  0.785  0.785  0.999  0.999  0.999
    eigenvectors:
  0.000  0.000  0.000  0.000  1.000
  0.592  0.054  0.338  0.016  0.000
  0.054  0.592  0.016  0.338  0.000
  0.276  0.077  0.461  0.185  0.000
  0.077  0.276  0.185  0.461  0.000
    occupations:
  0.999  0.000  0.000  0.000  0.000
  0.000  0.861  0.000 -0.073  0.072
  0.000  0.000  0.861  0.072  0.073
  0.000 -0.073  0.072  0.923  0.000
  0.000  0.072  0.073  0.000  0.923
   spin  2
    eigenvalues: 
  0.474  0.474  0.773  0.826  0.826
    eigenvectors:
  0.000  0.000  1.000  0.000  0.000
  0.513  0.126  0.000  0.206  0.155
  0.126  0.513  0.000  0.155  0.206
  0.142  0.219  0.000  0.413  0.226
  0.219  0.142  0.000  0.226  0.413
    occupations:
  0.773  0.000  0.000  0.000  0.000
  0.000  0.601  0.000 -0.037  0.165
  0.000  0.000  0.601  0.165  0.037
  0.000 -0.037  0.165  0.699  0.000
  0.000  0.165  0.037  0.000  0.699
atomic mag. moment =     1.192661
atom    2   Tr[ns(na)] (up, down, total) =   4.67290  3.22391  7.89681
   spin  1
    eigenvalues: 
  0.838  0.838  0.999  0.999  0.999
    eigenvectors:
  0.000  0.000  0.001  0.000  0.999
  0.332  0.314  0.159  0.195  0.000
  0.314  0.333  0.195  0.159  0.000
  0.354  0.000  0.002  0.644  0.000
  0.000  0.354  0.644  0.002  0.000
    occupations:
  0.999  0.000  0.000  0.000  0.000
  0.000  0.895  0.000  0.054  0.054
  0.000  0.000  0.895  0.054 -0.054
  0.000  0.054  0.054  0.942  0.000
  0.000  0.054 -0.054  0.000  0.942
   spin  2
    eigenvalues: 
  0.459  0.460  0.730  0.788  0.788
    eigenvectors:
  0.000  0.000  1.000  0.000  0.000
  0.438  0.198  0.000  0.340  0.025
  0.198  0.438  0.000  0.025  0.339
  0.046  0.319  0.000  0.001  0.635
  0.319  0.046  0.000  0.635  0.001
    occupations:
  0.730  0.000  0.000  0.000  0.000
  0.000  0.579  0.000  0.036  0.154
  0.000  0.000  0.579  0.154 -0.036
  0.000  0.036  0.154  0.668  0.000
  0.000  0.154 -0.036  0.000  0.668
atomic mag. moment =     1.448988
atom    3   Tr[ns(na)] (up, down, total) =   1.91428  1.89998  3.81426
   spin  1
    eigenvalues: 
  0.357  0.357  0.387  0.407  0.407
    eigenvectors:
  0.000  0.000  1.000  0.000  0.000
  0.227  0.697  0.000  0.061  0.015
  0.697  0.227  0.000  0.015  0.061
  0.057  0.019  0.000  0.196  0.728
  0.019  0.057  0.000  0.728  0.196
    occupations:
  0.387  0.000  0.000  0.000  0.000
  0.000  0.361  0.000  0.000  0.013
  0.000  0.000  0.361  0.013  0.000
  0.000  0.000  0.013  0.403  0.000
  0.000  0.013  0.000  0.000  0.403
   spin  2
    eigenvalues: 
  0.353  0.353  0.387  0.404  0.404
    eigenvectors:
  0.000  0.000  1.000  0.000  0.000
  0.225  0.685  0.000  0.033  0.057
  0.685  0.225  0.000  0.057  0.033
  0.066  0.024  0.000  0.562  0.348
  0.024  0.066  0.000  0.348  0.562
    occupations:
  0.387  0.000  0.000  0.000  0.000
  0.000  0.357  0.000  0.000  0.015
  0.000  0.000  0.357  0.015  0.000
  0.000  0.000  0.015  0.399  0.000
  0.000  0.015  0.000  0.000  0.399
atomic mag. moment =     0.014294
atom    4   Tr[ns(na)] (up, down, total) =   1.91429  1.89997  3.81426
   spin  1
    eigenvalues: 
  0.357  0.357  0.387  0.407  0.407
    eigenvectors:
  0.000  0.000  1.000  0.000  0.000
  0.216  0.708  0.000  0.058  0.018
  0.708  0.216  0.000  0.018  0.058
  0.058  0.018  0.000  0.226  0.698
  0.019  0.057  0.000  0.699  0.226
    occupations:
  0.387  0.000  0.000  0.000  0.000
  0.000  0.361  0.000  0.000  0.013
  0.000  0.000  0.361  0.013  0.000
  0.000  0.000  0.013  0.403  0.000
  0.000  0.013  0.000  0.000  0.403
   spin  2
    eigenvalues: 
  0.353  0.353  0.387  0.404  0.404
    eigenvectors:
  0.000  0.000  1.000  0.000  0.000
  0.220  0.691  0.000  0.067  0.022
  0.690  0.220  0.000  0.022  0.068
  0.067  0.023  0.000  0.239  0.671
  0.023  0.067  0.000  0.671  0.239
    occupations:
  0.387  0.000  0.000  0.000  0.000
  0.000  0.357  0.000  0.000  0.015
  0.000  0.000  0.357  0.015  0.000
  0.000  0.000  0.015  0.399  0.000
  0.000  0.015  0.000  0.000  0.399
atomic mag. moment =     0.014321
atom    5   Tr[ns(na)] (up, down, total) =   2.74347  2.70475  5.44821
   spin  1
    eigenvalues: 
  0.845  0.948  0.951
    eigenvectors:
  0.337  0.000  0.663
  0.508  0.244  0.248
  0.155  0.756  0.089
    occupations:
  0.915 -0.044  0.024
 -0.044  0.896  0.028
  0.024  0.028  0.932
   spin  2
    eigenvalues: 
  0.864  0.920  0.920
    eigenvectors:
  0.333  0.011  0.656
  0.514  0.169  0.317
  0.153  0.820  0.027
    occupations:
  0.902 -0.023  0.013
 -0.023  0.892  0.016
  0.013  0.016  0.912
atomic mag. moment =     0.038720
atom    6   Tr[ns(na)] (up, down, total) =   2.74219  2.70294  5.44514
   spin  1
    eigenvalues: 
  0.844  0.947  0.951
    eigenvectors:
  0.337  0.000  0.663
  0.487  0.255  0.258
  0.176  0.745  0.079
    occupations:
  0.915  0.044  0.026
  0.044  0.898 -0.030
  0.026 -0.030  0.929
   spin  2
    eigenvalues: 
  0.864  0.919  0.920
    eigenvectors:
  0.333  0.036  0.630
  0.486  0.386  0.128
  0.181  0.578  0.242
    occupations:
  0.901  0.022  0.014
  0.022  0.892 -0.016
  0.014 -0.016  0.909
atomic mag. moment =     0.039251
atom    7   Tr[ns(na)] (up, down, total) =   2.74219  2.70294  5.44514
   spin  1
    eigenvalues: 
  0.844  0.947  0.951
    eigenvectors:
  0.337  0.000  0.663
  0.000  1.000  0.000
  0.663  0.000  0.337
    occupations:
  0.915  0.001 -0.051
  0.001  0.947  0.001
 -0.051  0.001  0.880
   spin  2
    eigenvalues: 
  0.864  0.919  0.920
    eigenvectors:
  0.333  0.076  0.591
  0.000  0.877  0.123
  0.666  0.047  0.286
    occupations:
  0.901  0.001 -0.026
  0.001  0.919  0.001
 -0.026  0.001  0.882
atomic mag. moment =     0.039251
atom    8   Tr[ns(na)] (up, down, total) =   2.74214  2.70308  5.44522
   spin  1
    eigenvalues: 
  0.844  0.947  0.951
    eigenvectors:
  0.337  0.000  0.663
  0.508  0.244  0.248
  0.155  0.756  0.089
    occupations:
  0.915 -0.045  0.025
 -0.045  0.896  0.029
  0.025  0.029  0.932
   spin  2
    eigenvalues: 
  0.864  0.920  0.920
    eigenvectors:
  0.333  0.031  0.636
  0.514  0.129  0.358
  0.153  0.840  0.007
    occupations:
  0.901 -0.023  0.013
 -0.023  0.891  0.016
  0.013  0.016  0.911
atomic mag. moment =     0.039054
atom    9   Tr[ns(na)] (up, down, total) =   2.74217  2.70294  5.44511
   spin  1
    eigenvalues: 
  0.844  0.947  0.951
    eigenvectors:
  0.337  0.000  0.663
  0.487  0.255  0.258
  0.176  0.745  0.079
    occupations:
  0.915  0.044  0.026
  0.044  0.898 -0.030
  0.026 -0.030  0.929
   spin  2
    eigenvalues: 
  0.864  0.919  0.920
    eigenvectors:
  0.334  0.044  0.622
  0.486  0.397  0.117
  0.181  0.559  0.260
    occupations:
  0.901  0.022  0.014
  0.022  0.892 -0.016
  0.014 -0.016  0.909
atomic mag. moment =     0.039229
atom   10   Tr[ns(na)] (up, down, total) =   2.74217  2.70294  5.44511
   spin  1
    eigenvalues: 
  0.844  0.947  0.951
    eigenvectors:
  0.337  0.000  0.663
  0.000  1.000  0.000
  0.663  0.000  0.337
    occupations:
  0.915  0.001 -0.051
  0.001  0.947  0.001
 -0.051  0.001  0.880
   spin  2
    eigenvalues: 
  0.864  0.919  0.920
    eigenvectors:
  0.334  0.063  0.603
  0.000  0.897  0.103
  0.666  0.040  0.294
    occupations:
  0.901  0.001 -0.026
  0.001  0.919  0.001
 -0.026  0.001  0.882
atomic mag. moment =     0.039230
N of occupied +U levels =  56.1383484
 --- exit write_ns ---
 --- in v_hubbard ---
Hubbard energy   -0.0200
 -------

     total cpu time spent up to now is      437.6 secs

     total energy              =    -538.37544817 Ry
     Harris-Foulkes estimate   =    -538.37544816 Ry
     estimated scf accuracy    <       0.00000004 Ry

     total magnetization       =     3.54 Bohr mag/cell
     absolute magnetization    =     3.69 Bohr mag/cell

     iteration #  7     ecut=    30.00 Ry     beta=0.20
     Davidson diagonalization with overlap
     ethr =  5.72E-11,  avg # of iterations =  1.1
 --- enter write_ns ---
 LDA+U parameters:
U( 1)     =  0.00000000
alpha( 1) =  0.00000000
U( 2)     =  0.00000000
alpha( 2) =  0.00000000
U( 3)     =  0.00000000
alpha( 3) = -0.05000000
U( 4)     =  0.00000000
alpha( 4) =  0.00000000
atom    1   Tr[ns(na)] (up, down, total) =   4.56588  3.37313  7.93901
   spin  1
    eigenvalues: 
  0.785  0.785  0.999  0.999  0.999
    eigenvectors:
  0.000  0.000  0.000  0.000  1.000
[...]
     0.0313   0.0313   0.0313   0.0312   0.0312   0.0312   0.0312   0.0312
     0.0312   0.0293   0.0274   0.0258   0.0118   0.0072   0.0004   0.0000
     0.0000   0.0000   0.0000   0.0000   0.0000   0.0000

          k = 0.4942-0.5706 0.1027 (  2198 PWs)   bands (ev):

   -19.6886 -19.6481  -6.8548  -6.5462  -6.0265  -5.7830  -5.3819  -5.2390
    -3.2582  -3.2078  -2.8169  -2.6415  -2.4609  -2.3175   6.0096   6.4023
     7.0273   7.3047   7.4086   7.4469   7.7173   7.9949   8.0988   8.2909
     8.5343   9.0799   9.3293   9.5116   9.8468   9.9706  10.1274  10.5151
    11.5997  12.0169  12.0685  12.1822  12.3199  12.3317  13.1363  13.4960
    14.1170  14.9850  16.9602  17.1767  17.3683  18.0694

     occupation numbers 
     0.0313   0.0313   0.0313   0.0313   0.0313   0.0313   0.0313   0.0313
     0.0313   0.0313   0.0313   0.0313   0.0313   0.0313   0.0313   0.0313
     0.0313   0.0313   0.0313   0.0313   0.0313   0.0313   0.0313   0.0313
     0.0313   0.0313   0.0313   0.0313   0.0313   0.0312   0.0312   0.0312
     0.0310   0.0259   0.0244   0.0202   0.0144   0.0139   0.0001   0.0000
     0.0000   0.0000   0.0000   0.0000   0.0000   0.0000

          k =-0.7412 0.1427-0.1027 (  2198 PWs)   bands (ev):

   -19.6886 -19.6481  -6.8543  -6.5471  -6.0255  -5.7842  -5.3808  -5.2395
    -3.2575  -3.2079  -2.8167  -2.6425  -2.4602  -2.3179   6.0120   6.3987
     7.0313   7.2980   7.3891   7.4619   7.7285   7.9942   8.1242   8.2604
     8.5376   9.0727   9.3338   9.5144   9.8499   9.9676  10.1272  10.5144
    11.6024  11.9887  12.0936  12.1814  12.3173  12.3342  13.1390  13.4963
    14.1171  14.9837  16.9580  17.1792  17.3678  18.0694

     occupation numbers 
     0.0313   0.0313   0.0313   0.0313   0.0313   0.0313   0.0313   0.0313
     0.0313   0.0313   0.0313   0.0313   0.0313   0.0313   0.0313   0.0313
     0.0313   0.0313   0.0313   0.0313   0.0313   0.0313   0.0313   0.0313
     0.0313   0.0313   0.0313   0.0313   0.0313   0.0312   0.0312   0.0312
     0.0310   0.0266   0.0235   0.0202   0.0145   0.0138   0.0001   0.0000
     0.0000   0.0000   0.0000   0.0000   0.0000   0.0000

          k = 0.2471-0.7133-0.1027 (  2198 PWs)   bands (ev):

   -19.6886 -19.6481  -6.8542  -6.5473  -6.0251  -5.7845  -5.3812  -5.2390
    -3.2576  -3.2080  -2.8165  -2.6430  -2.4602  -2.3178   6.0123   6.3988
     7.0320   7.2977   7.3869   7.4635   7.7287   7.9962   8.1225   8.2590
     8.5383   9.0731   9.3332   9.5131   9.8518   9.9667  10.1277  10.5142
    11.6023  11.9885  12.0937  12.1823  12.3167  12.3340  13.1391  13.4963
    14.1171  14.9837  16.9574  17.1801  17.3679  18.0696

     occupation numbers 
     0.0313   0.0313   0.0313   0.0313   0.0313   0.0313   0.0313   0.0313
     0.0313   0.0313   0.0313   0.0313   0.0313   0.0313   0.0313   0.0313
     0.0313   0.0313   0.0313   0.0313   0.0313   0.0313   0.0313   0.0313
     0.0313   0.0313   0.0313   0.0313   0.0313   0.0312   0.0312   0.0312
     0.0310   0.0266   0.0235   0.0202   0.0145   0.0138   0.0001   0.0000
     0.0000   0.0000   0.0000   0.0000   0.0000   0.0000

          k =-0.7412-0.1427 0.1027 (  2198 PWs)   bands (ev):

   -19.6886 -19.6481  -6.8547  -6.5464  -6.0261  -5.7833  -5.3822  -5.2385
    -3.2583  -3.2079  -2.8167  -2.6419  -2.4609  -2.3173   6.0099   6.4023
     7.0280   7.3041   7.4066   7.4487   7.7175   7.9967   8.0972   8.2895
     8.5349   9.0804   9.3287   9.5104   9.8486   9.9699  10.1279  10.5149
    11.5997  12.0168  12.0685  12.1829  12.3195  12.3313  13.1363  13.4960
    14.1170  14.9850  16.9596  17.1776  17.3684  18.0697

     occupation numbers 
     0.0313   0.0313   0.0313   0.0313   0.0313   0.0313   0.0313   0.0313
     0.0313   0.0313   0.0313   0.0313   0.0313   0.0313   0.0313   0.0313
     0.0313   0.0313   0.0313   0.0313   0.0313   0.0313   0.0313   0.0313
     0.0313   0.0313   0.0313   0.0313   0.0313   0.0312   0.0312   0.0312
     0.0310   0.0259   0.0244   0.0202   0.0144   0.0139   0.0001   0.0000
     0.0000   0.0000   0.0000   0.0000   0.0000   0.0000

          k = 0.2471 0.7133 0.1027 (  2198 PWs)   bands (ev):

   -19.6882 -19.6479  -6.8593  -6.5453  -6.0307  -5.7746  -5.3775  -5.2440
    -3.2587  -3.2080  -2.8161  -2.6429  -2.4613  -2.3188   6.0159   6.3964
     7.0348   7.3077   7.4100   7.4531   7.7124   7.9933   8.0977   8.2922
     8.5303   9.0821   9.3228   9.5080   9.8492   9.9685  10.1266  10.5184
    11.6001  12.0161  12.0684  12.1828  12.3201  12.3302  13.1360  13.4969
    14.1160  14.9851  16.9603  17.1775  17.3686  18.0698

     occupation numbers 
     0.0313   0.0313   0.0313   0.0313   0.0313   0.0313   0.0313   0.0313
     0.0313   0.0313   0.0313   0.0313   0.0313   0.0313   0.0313   0.0313
     0.0313   0.0313   0.0313   0.0313   0.0313   0.0313   0.0313   0.0313
     0.0313   0.0313   0.0313   0.0313   0.0313   0.0312   0.0312   0.0312
     0.0310   0.0259   0.0244   0.0202   0.0144   0.0139   0.0001   0.0000
     0.0000   0.0000   0.0000   0.0000   0.0000   0.0000

          k = 0.2471-0.4280 0.0000 (  2203 PWs)   bands (ev):

   -19.6980 -19.6405  -6.7477  -6.5354  -5.9494  -5.8659  -5.3029  -5.2287
    -3.4638  -3.2522  -2.7384  -2.6465  -2.5046  -2.4876   5.9712   6.4151
     7.2517   7.3900   7.4336   7.5128   7.5647   7.9022   8.0156   8.3748
     8.6309   9.1035   9.5621   9.6747   9.9362   9.9454  10.2086  10.5275
    11.8642  11.8777  11.9461  12.1375  12.1579  12.4330  13.1055  13.9716
    14.0913  14.7910  16.4997  17.0489  17.4661  17.9716

     occupation numbers 
     0.0313   0.0313   0.0313   0.0313   0.0313   0.0313   0.0313   0.0313
     0.0313   0.0313   0.0313   0.0313   0.0313   0.0313   0.0313   0.0313
     0.0313   0.0313   0.0313   0.0313   0.0313   0.0313   0.0313   0.0313
     0.0313   0.0313   0.0313   0.0313   0.0312   0.0312   0.0312   0.0312
     0.0291   0.0289   0.0276   0.0220   0.0212   0.0097   0.0001   0.0000
     0.0000   0.0000   0.0000   0.0000   0.0000   0.0000

          k =-0.4942 0.0000 0.0000 (  2203 PWs)   bands (ev):

   -19.6980 -19.6405  -6.7477  -6.5354  -5.9494  -5.8659  -5.3029  -5.2287
    -3.4638  -3.2522  -2.7384  -2.6465  -2.5046  -2.4875   5.9712   6.4151
     7.2518   7.3885   7.4363   7.5118   7.5643   7.9022   8.0156   8.3750
     8.6308   9.1035   9.5621   9.6748   9.9373   9.9443  10.2086  10.5275
    11.8638  11.8780  11.9461  12.1375  12.1580  12.4330  13.1055  13.9716
    14.0913  14.7910  16.4997  17.0489  17.4661  17.9717

     occupation numbers 
     0.0313   0.0313   0.0313   0.0313   0.0313   0.0313   0.0313   0.0313
     0.0313   0.0313   0.0313   0.0313   0.0313   0.0313   0.0313   0.0313
     0.0313   0.0313   0.0313   0.0313   0.0313   0.0313   0.0313   0.0313
     0.0313   0.0313   0.0313   0.0313   0.0312   0.0312   0.0312   0.0312
     0.0291   0.0289   0.0276   0.0220   0.0212   0.0097   0.0001   0.0000
     0.0000   0.0000   0.0000   0.0000   0.0000   0.0000

          k = 0.4942 0.2853 0.4107 (  2202 PWs)   bands (ev):

   -19.6956 -19.6388  -7.0654  -6.3603  -6.1423  -5.8419  -5.4140  -5.1383
    -3.1487  -3.0868  -2.9871  -2.5850  -2.4092  -2.1547   5.9321   6.5122
     6.6035   7.2104   7.2424   7.3158   8.0752   8.1476   8.2522   8.3662
     8.7056   8.8435   8.8633   9.5432   9.7749  10.1521  10.1754  10.5946
    11.2056  11.8839  12.0082  12.2313  12.3717  12.4441  12.8651  13.2564
    14.0435  15.4123  17.0878  17.3381  17.5669  17.6335

     occupation numbers 
     0.0156   0.0156   0.0156   0.0156   0.0156   0.0156   0.0156   0.0156
     0.0156   0.0156   0.0156   0.0156   0.0156   0.0156   0.0156   0.0156
     0.0156   0.0156   0.0156   0.0156   0.0156   0.0156   0.0156   0.0156
     0.0156   0.0156   0.0156   0.0156   0.0156   0.0156   0.0156   0.0156
     0.0156   0.0144   0.0131   0.0091   0.0061   0.0047   0.0004   0.0000
     0.0000   0.0000   0.0000   0.0000   0.0000   0.0000

          k = 0.0000 0.5706-0.4107 (  2202 PWs)   bands (ev):

   -19.6956 -19.6388  -7.0654  -6.3603  -6.1424  -5.8419  -5.4140  -5.1383
    -3.1487  -3.0868  -2.9871  -2.5850  -2.4092  -2.1547   5.9321   6.5122
     6.6035   7.2104   7.2424   7.3158   8.0755   8.1473   8.2521   8.3662
     8.7056   8.8435   8.8632   9.5432   9.7749  10.1521  10.1754  10.5946
    11.2056  11.8839  12.0083  12.2309  12.3720  12.4441  12.8651  13.2564
    14.0435  15.4123  17.0878  17.3381  17.5669  17.6335

     occupation numbers 
     0.0156   0.0156   0.0156   0.0156   0.0156   0.0156   0.0156   0.0156
     0.0156   0.0156   0.0156   0.0156   0.0156   0.0156   0.0156   0.0156
     0.0156   0.0156   0.0156   0.0156   0.0156   0.0156   0.0156   0.0156
     0.0156   0.0156   0.0156   0.0156   0.0156   0.0156   0.0156   0.0156
     0.0156   0.0144   0.0131   0.0091   0.0061   0.0047   0.0004   0.0000
     0.0000   0.0000   0.0000   0.0000   0.0000   0.0000

          k = 0.7412-0.4280 0.0000 (  2204 PWs)   bands (ev):

   -19.6979 -19.6402  -6.6294  -6.5032  -6.0392  -5.7158  -5.5505  -5.4210
    -3.1119  -3.0332  -2.9942  -2.6105  -2.5950  -2.5128   6.0127   6.6061
     7.2596   7.4245   7.4343   7.5267   7.5674   7.8585   8.2002   8.3577
     8.6796   8.9712   9.6271   9.6599   9.7591   9.8267  10.0296  10.3748
    11.8585  11.8837  12.0092  12.1523  12.2022  12.3957  13.0989  13.8973
    14.0149  14.8164  16.7609  16.7710  17.6377  17.8542

     occupation numbers 
     0.0313   0.0313   0.0313   0.0313   0.0313   0.0313   0.0313   0.0313
     0.0313   0.0313   0.0313   0.0313   0.0313   0.0313   0.0313   0.0313
     0.0313   0.0313   0.0313   0.0313   0.0313   0.0313   0.0313   0.0313
     0.0313   0.0313   0.0313   0.0313   0.0313   0.0313   0.0312   0.0312
     0.0292   0.0288   0.0261   0.0214   0.0194   0.0112   0.0001   0.0000
     0.0000   0.0000   0.0000   0.0000   0.0000   0.0000

          k = 0.0000-0.8559 0.0000 (  2204 PWs)   bands (ev):

   -19.6978 -19.6403  -6.6316  -6.4991  -6.0417  -5.7176  -5.5530  -5.4159
    -3.1113  -3.0332  -2.9942  -2.6116  -2.5962  -2.5116   6.0181   6.6017
     7.2628   7.4225   7.4318   7.5307   7.5665   7.8550   8.1999   8.3525
     8.6746   8.9787   9.6340   9.6606   9.7584   9.8270  10.0300  10.3728
    11.8580  11.8827  12.0086  12.1522  12.2014  12.3968  13.0983  13.8972
    14.0150  14.8171  16.7617  16.7705  17.6371  17.8540

     occupation numbers 
     0.0313   0.0313   0.0313   0.0313   0.0313   0.0313   0.0313   0.0313
     0.0313   0.0313   0.0313   0.0313   0.0313   0.0313   0.0313   0.0313
     0.0313   0.0313   0.0313   0.0313   0.0313   0.0313   0.0313   0.0313
     0.0313   0.0313   0.0313   0.0313   0.0313   0.0313   0.0312   0.0312
     0.0292   0.0288   0.0261   0.0214   0.0194   0.0111   0.0001   0.0000
     0.0000   0.0000   0.0000   0.0000   0.0000   0.0000

          k = 0.4942-0.2853-0.1027 (  2211 PWs)   bands (ev):

   -19.6882 -19.6479  -6.8752  -6.4422  -6.2228  -5.5720  -5.5011  -5.2166
    -3.2713  -3.1200  -2.9694  -2.5416  -2.4933  -2.3107   6.0440   6.3658
     7.0051   7.3051   7.3334   7.4486   7.7216   8.0343   8.1972   8.2219
     8.5805   9.2026   9.3313   9.5679   9.7224   9.8190  10.1833  10.5331
    11.6007  12.0370  12.1345  12.2018  12.2624  12.2768  13.1024  13.5066
    14.1602  14.9686  16.9464  16.9832  17.6483  17.9855

     occupation numbers 
     0.0313   0.0313   0.0313   0.0313   0.0313   0.0313   0.0313   0.0313
     0.0313   0.0313   0.0313   0.0313   0.0313   0.0313   0.0313   0.0313
     0.0313   0.0313   0.0313   0.0313   0.0313   0.0313   0.0313   0.0313
     0.0313   0.0313   0.0313   0.0313   0.0313   0.0313   0.0312   0.0312
     0.0310   0.0253   0.0221   0.0194   0.0169   0.0162   0.0001   0.0000
     0.0000   0.0000   0.0000   0.0000   0.0000   0.0000

          k = 0.0000-0.5706 0.1027 (  2211 PWs)   bands (ev):

   -19.6886 -19.6481  -6.8708  -6.4430  -6.2220  -5.5749  -5.5068  -5.2122
    -3.2712  -3.1199  -2.9693  -2.5407  -2.4932  -2.3093   6.0381   6.3722
     6.9982   7.3019   7.3301   7.4458   7.7240   8.0368   8.1983   8.2203
     8.5844   9.1989   9.3369   9.5666   9.7216   9.8266  10.1842  10.5290
    11.6002  12.0377  12.1346  12.2025  12.2626  12.2764  13.1027  13.5057
    14.1612  14.9684  16.9461  16.9834  17.6485  17.9854

     occupation numbers 
     0.0313   0.0313   0.0313   0.0313   0.0313   0.0313   0.0313   0.0313
     0.0313   0.0313   0.0313   0.0313   0.0313   0.0313   0.0313   0.0313
     0.0313   0.0313   0.0313   0.0313   0.0313   0.0313   0.0313   0.0313
     0.0313   0.0313   0.0313   0.0313   0.0313   0.0313   0.0312   0.0312
     0.0310   0.0253   0.0221   0.0194   0.0168   0.0162   0.0001   0.0000
     0.0000   0.0000   0.0000   0.0000   0.0000   0.0000

          k = 0.7412 0.4280 0.3080 (  2210 PWs)   bands (ev):

   -19.6884 -19.6479  -6.8062  -6.3492  -6.1992  -5.6862  -5.6384  -5.3451
    -3.0174  -2.9921  -2.9161  -2.6674  -2.5487  -2.3612   6.1012   6.5302
     7.0818   7.2854   7.3804   7.3987   7.7424   8.0817   8.2206   8.2591
     8.5813   9.1652   9.1846   9.6715   9.7045   9.7653   9.8275  10.3680
    11.6504  12.0420  12.1206  12.1884  12.2973  12.3498  13.0649  13.4650
    14.1134  14.9349  17.1196  17.1301  17.6157  17.9550

     occupation numbers 
     0.0313   0.0313   0.0313   0.0313   0.0313   0.0313   0.0313   0.0313
     0.0313   0.0313   0.0313   0.0313   0.0313   0.0313   0.0313   0.0313
     0.0313   0.0313   0.0313   0.0313   0.0313   0.0313   0.0313   0.0313
     0.0313   0.0313   0.0313   0.0313   0.0313   0.0313   0.0313   0.0312
     0.0308   0.0252   0.0226   0.0200   0.0153   0.0131   0.0001   0.0000
     0.0000   0.0000   0.0000   0.0000   0.0000   0.0000

          k = 0.0000 0.8559-0.3080 (  2210 PWs)   bands (ev):

   -19.6884 -19.6479  -6.8062  -6.3493  -6.1991  -5.6862  -5.6384  -5.3451
    -3.0174  -2.9921  -2.9161  -2.6674  -2.5487  -2.3612   6.1012   6.5302
     7.0818   7.2857   7.3797   7.3991   7.7423   8.0815   8.2189   8.2615
     8.5809   9.1649   9.1848   9.6715   9.7044   9.7653   9.8277  10.3680
    11.6504  12.0422  12.1205  12.1884  12.2972  12.3498  13.0649  13.4650
    14.1134  14.9349  17.1195  17.1302  17.6157  17.9550

     occupation numbers 
     0.0313   0.0313   0.0313   0.0313   0.0313   0.0313   0.0313   0.0313
     0.0313   0.0313   0.0313   0.0313   0.0313   0.0313   0.0313   0.0313
     0.0313   0.0313   0.0313   0.0313   0.0313   0.0313   0.0313   0.0313
     0.0313   0.0313   0.0313   0.0313   0.0313   0.0313   0.0313   0.0312
     0.0308   0.0252   0.0226   0.0200   0.0154   0.0131   0.0001   0.0000
     0.0000   0.0000   0.0000   0.0000   0.0000   0.0000

          k = 0.2471 0.7133-0.2053 (  2206 PWs)   bands (ev):

   -19.6672 -19.6670  -6.7890  -6.7776  -5.9355  -5.9253  -5.2914  -5.2848
    -3.1105  -3.1100  -2.7507  -2.7489  -2.3172  -2.3140   6.2156   6.2447
     7.1667   7.1729   7.3384   7.3494   7.5697   7.5861   8.4163   8.4598
     8.9193   8.9276   9.2273   9.2326   9.6969   9.7075  10.2664  10.2725
    11.8564  11.8658  12.0278  12.0699  12.3428  12.3671  13.1255  13.1447
    14.6477  14.6629  17.4986  17.4988  17.9130  17.9159

     occupation numbers 
     0.0313   0.0313   0.0313   0.0313   0.0313   0.0313   0.0313   0.0313
     0.0313   0.0313   0.0313   0.0313   0.0313   0.0313   0.0313   0.0313
     0.0313   0.0313   0.0313   0.0313   0.0313   0.0313   0.0313   0.0313
     0.0313   0.0313   0.0313   0.0313   0.0313   0.0313   0.0312   0.0312
     0.0292   0.0290   0.0256   0.0243   0.0134   0.0124   0.0001   0.0000
     0.0000   0.0000   0.0000   0.0000   0.0000   0.0000

          k =-0.7412-0.1427-0.2053 (  2206 PWs)   bands (ev):

   -19.6674 -19.6674  -6.7876  -6.7728  -5.9353  -5.9339  -5.2921  -5.2812
    -3.1103  -3.1095  -2.7509  -2.7500  -2.3169  -2.3114   6.2161   6.2451
     7.1631   7.1685   7.3304   7.3478   7.5678   7.5823   8.4216   8.4643
     8.9274   8.9299   9.2279   9.2287   9.7034   9.7106  10.2648  10.2684
    11.8552  11.8646  12.0280  12.0697  12.3436  12.3677  13.1252  13.1442
    14.6481  14.6635  17.4986  17.4993  17.9128  17.9150

     occupation numbers 
     0.0313   0.0313   0.0313   0.0313   0.0313   0.0313   0.0313   0.0313
     0.0313   0.0313   0.0313   0.0313   0.0313   0.0313   0.0313   0.0313
     0.0313   0.0313   0.0313   0.0313   0.0313   0.0313   0.0313   0.0313
     0.0313   0.0313   0.0313   0.0313   0.0313   0.0313   0.0312   0.0312
     0.0292   0.0291   0.0256   0.0243   0.0134   0.0123   0.0001   0.0000
     0.0000   0.0000   0.0000   0.0000   0.0000   0.0000

     the Fermi energy is    12.2908 ev

!    total energy              =    -538.37544819 Ry
     Harris-Foulkes estimate   =    -538.37544817 Ry
     estimated scf accuracy    <          8.2E-09 Ry

     The total energy is the sum of the following terms:

     one-electron contribution =     -32.74666985 Ry
     hartree contribution      =      83.52815134 Ry
     xc contribution           =    -199.65381601 Ry
     ewald contribution        =    -389.44315552 Ry
     Hubbard energy            =      -0.02002169 Ry
     smearing contrib. (-TS)   =      -0.03993646 Ry

     total magnetization       =     3.54 Bohr mag/cell
     absolute magnetization    =     3.69 Bohr mag/cell

     convergence has been achieved in   7 iterations

     init_run     :      7.71s CPU      7.88s WALL (       1 calls)
     electrons    :    488.80s CPU    492.06s WALL (       1 calls)

     Called by init_run:
     wfcinit      :      0.00s CPU      0.00s WALL (       1 calls)
     potinit      :      0.81s CPU      0.84s WALL (       1 calls)

     Called by electrons:
     c_bands      :    379.23s CPU    381.16s WALL (       7 calls)
     sum_band     :     86.45s CPU     87.22s WALL (       7 calls)
     v_of_rho     :      5.88s CPU      5.92s WALL (       8 calls)
     v_h          :      0.15s CPU      0.15s WALL (       8 calls)
     v_xc         :      5.73s CPU      5.77s WALL (       8 calls)
     newd         :     18.76s CPU     18.79s WALL (       8 calls)
     mix_rho      :      0.42s CPU      0.42s WALL (       7 calls)

     Called by c_bands:
     init_us_2    :      4.12s CPU      4.15s WALL (    1008 calls)
     cegterg      :    367.88s CPU    368.48s WALL (     504 calls)

     Called by sum_band:
     sum_band:bec :      0.39s CPU      0.38s WALL (     504 calls)
     addusdens    :     17.13s CPU     17.15s WALL (       7 calls)

     Called by *egterg:
     h_psi        :    271.91s CPU    272.41s WALL (    2366 calls)
     s_psi        :     15.75s CPU     15.72s WALL (    2366 calls)
     g_psi        :      1.22s CPU      1.22s WALL (    1862 calls)
     cdiaghg      :     29.57s CPU     29.60s WALL (    2294 calls)
     cegterg:over :     17.72s CPU     17.78s WALL (    1862 calls)
     cegterg:upda :     12.11s CPU     12.11s WALL (    1862 calls)
     cegterg:last :      8.70s CPU      8.71s WALL (     576 calls)

     Called by h_psi:
     h_psi:vloc   :    220.10s CPU    220.51s WALL (    2366 calls)
     h_psi:vnl    :     33.02s CPU     33.07s WALL (    2366 calls)
     add_vuspsi   :     16.08s CPU     16.11s WALL (    2366 calls)
     vhpsi        :     18.05s CPU     18.05s WALL (    2366 calls)

     General routines
     calbec       :     35.20s CPU     35.27s WALL (    5740 calls)
     fft          :      2.65s CPU      2.67s WALL (     236 calls)
     ffts         :      0.09s CPU      0.09s WALL (      30 calls)
     fftw         :    208.22s CPU    207.81s WALL (  141200 calls)
     interpolate  :      0.53s CPU      0.54s WALL (      30 calls)
     davcio       :      0.02s CPU      1.99s WALL (    1080 calls)

     Parallel routines
     fft_scatter  :     52.41s CPU     52.42s WALL (  141466 calls)
     Hubbard U routines
     new_ns       :      3.62s CPU      4.24s WALL (       7 calls)
     vhpsi        :     18.05s CPU     18.05s WALL (    2366 calls)

     PWSCF        :  8m16.93s CPU     8m20.42s WALL


   This run was terminated on:  12:57:40  13Nov2012            

=------------------------------------------------------------------------------=
