   JOB DONE.
=------------------------------------------------------------------------------=

     Program PWSCF v.5.0.1 starts on 13Nov2012 at 12:24: 6 

     This program is part of the open-source Quantum ESPRESSO suite
     for quantum simulation of materials; please cite
         "P. Giannozzi et al., J. Phys.:Condens. Matter 21 395502 (2009);
          URL http://www.quantum-espresso.org", 
     in publications or presentations arising from this work. More details at
     http://www.quantum-espresso.org/quote.php

     Parallel version (MPI), running on     2 processors
     R & G space division:  proc/pool =    2

     Current dimensions of program PWSCF are:
     Max number of different atomic species (ntypx) = 10
     Max number of k-points (npk) =  40000
     Max angular momentum in pseudopotentials (lmaxx) =  3
     Reading input from CoLaO_U0_a-15.in
               file Co.pbe-nd-rrkjus.UPF: wavefunction(s)  4S 3D renormalized
               file O.pbe-rrkjus.UPF: wavefunction(s)  2S renormalized
               file O.pbe-rrkjus.UPF: wavefunction(s)  2S renormalized

     Subspace diagonalization in iterative solution of the eigenvalue problem:
     a serial algorithm will be used


     Parallelization info
     --------------------
     sticks:   dense  smooth     PW     G-vecs:    dense   smooth      PW
     Min        1112     444    131                34808     8786    1448
     Max        1113     445    132                34809     8787    1449
     Sum        2225     889    263                69617    17573    2897


     Title: 
     GGA + U, U = 1D-40, alpha = -0.150                                         


     bravais-lattice index     =            5
     lattice parameter (alat)  =      10.3292  a.u.
     unit-cell volume          =     793.0599 (a.u.)^3
     number of atoms/cell      =           10
     number of atomic types    =            4
     number of electrons       =        76.00
     number of Kohn-Sham states=           46
     kinetic-energy cutoff     =      30.0000  Ry
     charge density cutoff     =     300.0000  Ry
     convergence threshold     =      1.0E-08
     mixing beta               =       0.2000
     number of iterations used =            8  plain     mixing
     Exchange-correlation      =  SLA  PW   PBE  PBE ( 1 4 3 4 0)
     EXX-fraction              =        0.00

     celldm(1)=  10.329242  celldm(2)=   0.000000  celldm(3)=   0.000000
     celldm(4)=   0.488100  celldm(5)=   0.000000  celldm(6)=   0.000000

     crystal axes: (cart. coord. in units of alat)
               a(1) = (   0.505915  -0.292090   0.811624 )  
               a(2) = (   0.000000   0.584180   0.811624 )  
               a(3) = (  -0.505915  -0.292090   0.811624 )  

     reciprocal axes: (cart. coord. in units 2 pi/alat)
               b(1) = (  0.988308 -0.570600  0.410699 )  
               b(2) = (  0.000000  1.141200  0.410699 )  
               b(3) = ( -0.988308 -0.570600  0.410699 )  


     PseudoPot. # 1 for Co read from file:
     /home/mcurnan/dft-course/Project1/example_LaCoO3/Co.pbe-nd-rrkjus.UPF
     MD5 check sum: 3e47a84addf5e975e0edeaeee2a73f59
     Pseudo is Ultrasoft + core correction, Zval =  9.0
     Generated by new atomic code, or converted to UPF format
     Using radial grid of  961 points,  6 beta functions with: 
                l(1) =   0
                l(2) =   0
                l(3) =   1
                l(4) =   1
                l(5) =   2
                l(6) =   2
     Q(r) pseudized with 0 coefficients 


     PseudoPot. # 2 for La read from file:
     /home/mcurnan/dft-course/Project1/example_LaCoO3/La.pbe-nsp-van.UPF
     MD5 check sum: b2f11743f52dde65f77d1302becd7929
     Pseudo is Ultrasoft + core correction, Zval = 11.0
     Generated by new atomic code, or converted to UPF format
     Using radial grid of  907 points,  6 beta functions with: 
                l(1) =   0
                l(2) =   0
                l(3) =   1
                l(4) =   1
                l(5) =   2
                l(6) =   2
     Q(r) pseudized with  6 coefficients,  rinner =    1.200   1.200   1.200
                                                       1.200   1.200

     PseudoPot. # 3 for O  read from file:
     /home/mcurnan/dft-course/Project1/example_LaCoO3/O.pbe-rrkjus.UPF
     MD5 check sum: 390ba29e75625707450f3bd3f0eb6be9
     Pseudo is Ultrasoft, Zval =  6.0
     Generated by new atomic code, or converted to UPF format
     Using radial grid of 1269 points,  4 beta functions with: 
                l(1) =   0
                l(2) =   0
                l(3) =   1
                l(4) =   1
     Q(r) pseudized with 0 coefficients 


     PseudoPot. # 4 for O  read from file:
     /home/mcurnan/dft-course/Project1/example_LaCoO3/O.pbe-rrkjus.UPF
     MD5 check sum: 390ba29e75625707450f3bd3f0eb6be9
     Pseudo is Ultrasoft, Zval =  6.0
     Generated by new atomic code, or converted to UPF format
     Using radial grid of 1269 points,  4 beta functions with: 
                l(1) =   0
                l(2) =   0
                l(3) =   1
                l(4) =   1
     Q(r) pseudized with 0 coefficients 


     atomic species   valence    mass     pseudopotential
        Co1            9.00     1.00000     Co( 1.00)
        La1           11.00     1.00000     La( 1.00)
        O1             6.00     1.00000     O ( 1.00)
        O2             6.00     1.00000     O ( 1.00)

     Starting magnetic structure 
     atomic species   magnetization
        Co1          1.000
        La1          0.000
        O1           0.000
        O2           0.000
 -----
     simplified LDA+U calculation, Hubbard_lmax = 2
     atomic species  L   Hubbard U  Hubbard alpha
        Co1          2    0.000000    0.000000
        La1          2    0.000000    0.000000
        O1           1    0.000000   -0.150000
        O2           1    0.000000    0.000000
 -----

     No symmetry found


                                    s                        frac. trans.

      isym =  1     identity                                     

 cryst.   s( 1) = (     1          0          0      )
                  (     0          1          0      )
                  (     0          0          1      )

 cart.    s( 1) = (  1.0000000  0.0000000  0.0000000 )
                  (  0.0000000  1.0000000  0.0000000 )
                  (  0.0000000  0.0000000  1.0000000 )


     point group C_1 (1)    
     there are  1 classes
     the character table:

       E    
A      1.00

     the symmetry operations in each class:
     E        1

   Cartesian axes

     site n.     atom                  positions (alat units)
         1           Co1 tau(   1) = (   0.2228050  -0.1992639   1.0141240  )
         2           Co1 tau(   2) = (  -0.2831100   0.0928263   1.4199360  )
         3           La1 tau(   3) = (  -0.2831100   0.0928263   0.8112181  )
         4           La1 tau(   4) = (   0.2228050   0.3849164   1.2170300  )
         5           O1  tau(   5) = (   0.0000000   0.0000000   0.0000000  )
         6           O2  tau(   6) = (   0.0008601   0.1861491   1.6232478  )
         7           O2  tau(   7) = (   0.1616398   0.0923297   0.8116239  )
         8           O2  tau(   8) = (  -0.0603051  -0.1064377   1.2166242  )
         9           O2  tau(   9) = (   0.4447499  -0.0004966   1.2166242  )
        10           O2  tau(  10) = (  -0.2219449   0.3854130   1.2166242  )

   Crystallographic axes

     site n.     atom                  positions (cryst. coord.)
         1           Co1 tau(   1) = (  0.7504000  0.1891000  0.3100000  )
         2           Co1 tau(   2) = (  0.2504000  0.6891000  0.8100000  )
         3           La1 tau(   3) = (  0.0004000  0.4391000  0.5600000  )
         4           La1 tau(   4) = (  0.5004000  0.9391000  0.0600000  )
         5           O1  tau(   5) = (  0.0000000  0.0000000  0.0000000  )
         6           O2  tau(   6) = (  0.5613000  0.8791000  0.5596000  )
         7           O2  tau(   7) = (  0.4404000  0.4387000  0.1209000  )
         8           O2  tau(   8) = (  0.5008000  0.3782000  0.6200000  )
         9           O2  tau(   9) = (  0.9395000  0.4991000  0.0604000  )
        10           O2  tau(  10) = (  0.0604000  0.9395000  0.4991000  )

     number of k points=    72  gaussian smearing, width (Ry)=  0.0300
                       cart. coord. in units 2pi/alat
        k(    1) = (   0.0000000   0.0000000   0.0000000), wk =   0.0156250
        k(    2) = (  -0.2470771  -0.1426500   0.1026748), wk =   0.0312500
        k(    3) = (   0.4941541   0.2853000  -0.2053496), wk =   0.0156250
        k(    4) = (  -0.2470771   0.1426500   0.2053496), wk =   0.0312500
        k(    5) = (   0.4941541   0.5706001  -0.1026748), wk =   0.0312500
        k(    6) = (   0.2470771   0.4279500   0.0000000), wk =   0.0312500
        k(    7) = (   0.4941541  -0.2853000  -0.4106993), wk =   0.0156250
        k(    8) = (   0.0000000   0.0000000   0.3080244), wk =   0.0312500
        k(    9) = (   0.7412312   0.4279500   0.0000000), wk =   0.0312500
        k(   10) = (   0.4941541   0.2853000   0.1026748), wk =   0.0312500
        k(   11) = (   0.7412312  -0.4279500  -0.3080244), wk =   0.0312500
        k(   12) = (   0.4941541  -0.5706001  -0.2053496), wk =   0.0312500
        k(   13) = (   0.0000000   0.0000000  -0.6160489), wk =   0.0156250
        k(   14) = (  -0.2470771   0.1426500  -0.1026748), wk =   0.0312500
        k(   15) = (   0.0000000   0.2853000   0.1026748), wk =   0.0312500
        k(   16) = (   0.4941541  -0.2853000   0.2053496), wk =   0.0156250
        k(   17) = (   0.0000000  -0.5706001  -0.2053496), wk =   0.0156250
        k(   18) = (  -0.2470771  -0.1426500  -0.2053496), wk =   0.0312500
        k(   19) = (   0.0000000  -0.2853000   0.2053496), wk =   0.0312500
        k(   20) = (   0.4941541  -0.5706001   0.1026748), wk =   0.0312500
        k(   21) = (  -0.7412312   0.1426500  -0.1026748), wk =   0.0312500
        k(   22) = (   0.2470771  -0.7132501  -0.1026748), wk =   0.0312500
        k(   23) = (  -0.7412312  -0.1426500   0.1026748), wk =   0.0312500
        k(   24) = (   0.2470771   0.7132501   0.1026748), wk =   0.0312500
        k(   25) = (   0.2470771  -0.4279500   0.0000000), wk =   0.0312500
        k(   26) = (  -0.4941541   0.0000000   0.0000000), wk =   0.0312500
        k(   27) = (   0.4941541   0.2853000   0.4106993), wk =   0.0156250
        k(   28) = (   0.0000000   0.5706001  -0.4106993), wk =   0.0156250
        k(   29) = (   0.7412312  -0.4279500   0.0000000), wk =   0.0312500
        k(   30) = (   0.0000000  -0.8559001   0.0000000), wk =   0.0312500
        k(   31) = (   0.4941541  -0.2853000  -0.1026748), wk =   0.0312500
        k(   32) = (   0.0000000  -0.5706001   0.1026748), wk =   0.0312500
        k(   33) = (   0.7412312   0.4279500   0.3080244), wk =   0.0312500
        k(   34) = (   0.0000000   0.8559001  -0.3080244), wk =   0.0312500
        k(   35) = (   0.2470771   0.7132501  -0.2053496), wk =   0.0312500
        k(   36) = (  -0.7412312  -0.1426500  -0.2053496), wk =   0.0312500
        k(   37) = (   0.0000000   0.0000000   0.0000000), wk =   0.0156250
        k(   38) = (  -0.2470771  -0.1426500   0.1026748), wk =   0.0312500
        k(   39) = (   0.4941541   0.2853000  -0.2053496), wk =   0.0156250
        k(   40) = (  -0.2470771   0.1426500   0.2053496), wk =   0.0312500
        k(   41) = (   0.4941541   0.5706001  -0.1026748), wk =   0.0312500
        k(   42) = (   0.2470771   0.4279500   0.0000000), wk =   0.0312500
        k(   43) = (   0.4941541  -0.2853000  -0.4106993), wk =   0.0156250
        k(   44) = (   0.0000000   0.0000000   0.3080244), wk =   0.0312500
        k(   45) = (   0.7412312   0.4279500   0.0000000), wk =   0.0312500
        k(   46) = (   0.4941541   0.2853000   0.1026748), wk =   0.0312500
        k(   47) = (   0.7412312  -0.4279500  -0.3080244), wk =   0.0312500
        k(   48) = (   0.4941541  -0.5706001  -0.2053496), wk =   0.0312500
        k(   49) = (   0.0000000   0.0000000  -0.6160489), wk =   0.0156250
        k(   50) = (  -0.2470771   0.1426500  -0.1026748), wk =   0.0312500
        k(   51) = (   0.0000000   0.2853000   0.1026748), wk =   0.0312500
        k(   52) = (   0.4941541  -0.2853000   0.2053496), wk =   0.0156250
        k(   53) = (   0.0000000  -0.5706001  -0.2053496), wk =   0.0156250
        k(   54) = (  -0.2470771  -0.1426500  -0.2053496), wk =   0.0312500
        k(   55) = (   0.0000000  -0.2853000   0.2053496), wk =   0.0312500
        k(   56) = (   0.4941541  -0.5706001   0.1026748), wk =   0.0312500
        k(   57) = (  -0.7412312   0.1426500  -0.1026748), wk =   0.0312500
        k(   58) = (   0.2470771  -0.7132501  -0.1026748), wk =   0.0312500
        k(   59) = (  -0.7412312  -0.1426500   0.1026748), wk =   0.0312500
        k(   60) = (   0.2470771   0.7132501   0.1026748), wk =   0.0312500
        k(   61) = (   0.2470771  -0.4279500   0.0000000), wk =   0.0312500
        k(   62) = (  -0.4941541   0.0000000   0.0000000), wk =   0.0312500
        k(   63) = (   0.4941541   0.2853000   0.4106993), wk =   0.0156250
        k(   64) = (   0.0000000   0.5706001  -0.4106993), wk =   0.0156250
        k(   65) = (   0.7412312  -0.4279500   0.0000000), wk =   0.0312500
        k(   66) = (   0.0000000  -0.8559001   0.0000000), wk =   0.0312500
        k(   67) = (   0.4941541  -0.2853000  -0.1026748), wk =   0.0312500
        k(   68) = (   0.0000000  -0.5706001   0.1026748), wk =   0.0312500
        k(   69) = (   0.7412312   0.4279500   0.3080244), wk =   0.0312500
        k(   70) = (   0.0000000   0.8559001  -0.3080244), wk =   0.0312500
        k(   71) = (   0.2470771   0.7132501  -0.2053496), wk =   0.0312500
        k(   72) = (  -0.7412312  -0.1426500  -0.2053496), wk =   0.0312500

                       cryst. coord.
        k(    1) = (   0.0000000   0.0000000   0.0000000), wk =   0.0156250
        k(    2) = (   0.0000000   0.0000000   0.2500000), wk =   0.0312500
        k(    3) = (   0.0000000   0.0000000  -0.5000000), wk =   0.0156250
        k(    4) = (   0.0000000   0.2500000   0.2500000), wk =   0.0312500
        k(    5) = (   0.0000000   0.2500000  -0.5000000), wk =   0.0312500
        k(    6) = (   0.0000000   0.2500000  -0.2500000), wk =   0.0312500
        k(    7) = (   0.0000000  -0.5000000  -0.5000000), wk =   0.0156250
        k(    8) = (   0.2500000   0.2500000   0.2500000), wk =   0.0312500
        k(    9) = (   0.2500000   0.2500000  -0.5000000), wk =   0.0312500
        k(   10) = (   0.2500000   0.2500000  -0.2500000), wk =   0.0312500
        k(   11) = (   0.2500000  -0.5000000  -0.5000000), wk =   0.0312500
        k(   12) = (   0.2500000  -0.5000000  -0.2500000), wk =   0.0312500
        k(   13) = (  -0.5000000  -0.5000000  -0.5000000), wk =   0.0156250
        k(   14) = (  -0.2500000   0.0000000   0.0000000), wk =   0.0312500
        k(   15) = (   0.0000000   0.2500000   0.0000000), wk =   0.0312500
        k(   16) = (   0.5000000   0.0000000   0.0000000), wk =   0.0156250
        k(   17) = (   0.0000000  -0.5000000   0.0000000), wk =   0.0156250
        k(   18) = (  -0.2500000  -0.2500000   0.0000000), wk =   0.0312500
        k(   19) = (   0.2500000   0.0000000   0.2500000), wk =   0.0312500
        k(   20) = (   0.5000000  -0.2500000   0.0000000), wk =   0.0312500
        k(   21) = (  -0.5000000   0.0000000   0.2500000), wk =   0.0312500
        k(   22) = (   0.2500000  -0.5000000   0.0000000), wk =   0.0312500
        k(   23) = (  -0.2500000   0.0000000   0.5000000), wk =   0.0312500
        k(   24) = (   0.0000000   0.5000000  -0.2500000), wk =   0.0312500
        k(   25) = (   0.2500000  -0.2500000   0.0000000), wk =   0.0312500
        k(   26) = (  -0.2500000   0.0000000   0.2500000), wk =   0.0312500
        k(   27) = (   0.5000000   0.5000000   0.0000000), wk =   0.0156250
        k(   28) = (  -0.5000000   0.0000000  -0.5000000), wk =   0.0156250
        k(   29) = (   0.5000000  -0.2500000  -0.2500000), wk =   0.0312500
        k(   30) = (   0.2500000  -0.5000000   0.2500000), wk =   0.0312500
        k(   31) = (   0.2500000  -0.2500000  -0.2500000), wk =   0.0312500
        k(   32) = (   0.2500000  -0.2500000   0.2500000), wk =   0.0312500
        k(   33) = (   0.5000000   0.5000000  -0.2500000), wk =   0.0312500
        k(   34) = (  -0.5000000   0.2500000  -0.5000000), wk =   0.0312500
        k(   35) = (  -0.2500000   0.2500000  -0.5000000), wk =   0.0312500
        k(   36) = (  -0.5000000  -0.2500000   0.2500000), wk =   0.0312500
        k(   37) = (   0.0000000   0.0000000   0.0000000), wk =   0.0156250
        k(   38) = (   0.0000000   0.0000000   0.2500000), wk =   0.0312500
        k(   39) = (   0.0000000   0.0000000  -0.5000000), wk =   0.0156250
        k(   40) = (   0.0000000   0.2500000   0.2500000), wk =   0.0312500
        k(   41) = (   0.0000000   0.2500000  -0.5000000), wk =   0.0312500
        k(   42) = (   0.0000000   0.2500000  -0.2500000), wk =   0.0312500
        k(   43) = (   0.0000000  -0.5000000  -0.5000000), wk =   0.0156250
        k(   44) = (   0.2500000   0.2500000   0.2500000), wk =   0.0312500
        k(   45) = (   0.2500000   0.2500000  -0.5000000), wk =   0.0312500
        k(   46) = (   0.2500000   0.2500000  -0.2500000), wk =   0.0312500
        k(   47) = (   0.2500000  -0.5000000  -0.5000000), wk =   0.0312500
        k(   48) = (   0.2500000  -0.5000000  -0.2500000), wk =   0.0312500
        k(   49) = (  -0.5000000  -0.5000000  -0.5000000), wk =   0.0156250
        k(   50) = (  -0.2500000   0.0000000   0.0000000), wk =   0.0312500
        k(   51) = (   0.0000000   0.2500000   0.0000000), wk =   0.0312500
        k(   52) = (   0.5000000   0.0000000   0.0000000), wk =   0.0156250
        k(   53) = (   0.0000000  -0.5000000   0.0000000), wk =   0.0156250
        k(   54) = (  -0.2500000  -0.2500000   0.0000000), wk =   0.0312500
        k(   55) = (   0.2500000   0.0000000   0.2500000), wk =   0.0312500
        k(   56) = (   0.5000000  -0.2500000   0.0000000), wk =   0.0312500
        k(   57) = (  -0.5000000   0.0000000   0.2500000), wk =   0.0312500
        k(   58) = (   0.2500000  -0.5000000   0.0000000), wk =   0.0312500
        k(   59) = (  -0.2500000   0.0000000   0.5000000), wk =   0.0312500
        k(   60) = (   0.0000000   0.5000000  -0.2500000), wk =   0.0312500
        k(   61) = (   0.2500000  -0.2500000   0.0000000), wk =   0.0312500
        k(   62) = (  -0.2500000   0.0000000   0.2500000), wk =   0.0312500
        k(   63) = (   0.5000000   0.5000000   0.0000000), wk =   0.0156250
        k(   64) = (  -0.5000000   0.0000000  -0.5000000), wk =   0.0156250
        k(   65) = (   0.5000000  -0.2500000  -0.2500000), wk =   0.0312500
        k(   66) = (   0.2500000  -0.5000000   0.2500000), wk =   0.0312500
        k(   67) = (   0.2500000  -0.2500000  -0.2500000), wk =   0.0312500
        k(   68) = (   0.2500000  -0.2500000   0.2500000), wk =   0.0312500
        k(   69) = (   0.5000000   0.5000000  -0.2500000), wk =   0.0312500
        k(   70) = (  -0.5000000   0.2500000  -0.5000000), wk =   0.0312500
        k(   71) = (  -0.2500000   0.2500000  -0.5000000), wk =   0.0312500
        k(   72) = (  -0.5000000  -0.2500000   0.2500000), wk =   0.0312500

     Dense  grid:    69617 G-vectors     FFT dimensions: (  60,  60,  60)

     Smooth grid:    17573 G-vectors     FFT dimensions: (  40,  40,  40)

     Largest allocated arrays     est. size (Mb)     dimensions
        Kohn-Sham Wavefunctions         0.79 Mb     (   1119,   46)
        Atomic wavefunctions            1.06 Mb     (   1119,   62)
        NL pseudopotentials             2.05 Mb     (   1119,  120)
        Each V/rho on FFT grid          3.30 Mb     ( 108000,   2)
        Each G-vector array             0.27 Mb     (  34808)
        G-vector shells                 0.04 Mb     (   4682)
     Largest temporary arrays     est. size (Mb)     dimensions
        Auxiliary wavefunctions         3.14 Mb     (   1119,  184)
        Each subspace H/S matrix        0.52 Mb     ( 184, 184)
        Each <psi_i|beta_j> matrix      0.08 Mb     (    120,   46)
        Arrays for rho mixing          13.18 Mb     ( 108000,   8)

     Check: negative/imaginary core charge=   -0.000028    0.000000

     The initial density is read from file :
     /home/mcurnan/dft-course/Project1/example_LaCoO3/0/O/alpha/CoLaO_U0.save/charge-density.dat

 --- in v_hubbard ---
Hubbard energy   -0.0600
 -------
     Number of +U iterations with fixed ns =  0
     Starting occupations:
 --- enter write_ns ---
 LDA+U parameters:
U( 1)     =  0.00000000
alpha( 1) =  0.00000000
U( 2)     =  0.00000000
alpha( 2) =  0.00000000
U( 3)     =  0.00000000
alpha( 3) = -0.15000000
U( 4)     =  0.00000000
alpha( 4) =  0.00000000
atom    1   Tr[ns(na)] (up, down, total) =   4.56592  3.37374  7.93966
   spin  1
    eigenvalues: 
  0.785  0.785  0.999  0.999  0.999
    eigenvectors:
  0.000  0.000  0.000  0.000  1.000
  0.130  0.516  0.189  0.165  0.000
  0.516  0.130  0.165  0.189  0.000
  0.034  0.320  0.646  0.000  0.000
  0.320  0.034  0.000  0.646  0.000
    occupations:
  0.999  0.000  0.000  0.000  0.000
  0.000  0.861  0.000 -0.073  0.072
  0.000  0.000  0.861  0.072  0.073
  0.000 -0.073  0.072  0.923  0.000
  0.000  0.072  0.073  0.000  0.923
   spin  2
    eigenvalues: 
  0.474  0.474  0.773  0.826  0.826
    eigenvectors:
  0.000  0.000  1.000  0.000  0.000
  0.000  0.639  0.000  0.203  0.158
  0.639  0.000  0.000  0.158  0.203
  0.344  0.017  0.000  0.149  0.490
  0.017  0.344  0.000  0.490  0.149
    occupations:
  0.773  0.000  0.000  0.000  0.000
  0.000  0.601  0.000 -0.037  0.165
  0.000  0.000  0.601  0.165  0.037
  0.000 -0.037  0.165  0.699  0.000
  0.000  0.165  0.037  0.000  0.699
atomic mag. moment =     1.192178
atom    2   Tr[ns(na)] (up, down, total) =   4.67288  3.22474  7.89762
   spin  1
    eigenvalues: 
  0.838  0.838  0.999  0.999  0.999
    eigenvectors:
  0.000  0.000  0.000  0.000  1.000
  0.018  0.628  0.244  0.110  0.000
  0.628  0.018  0.110  0.244  0.000
  0.235  0.119  0.025  0.622  0.000
  0.119  0.235  0.622  0.025  0.000
    occupations:
  0.999  0.000  0.000  0.000  0.000
  0.000  0.895  0.000  0.054  0.054
  0.000  0.000  0.895  0.054 -0.054
  0.000  0.054  0.054  0.942  0.000
  0.000  0.054 -0.054  0.000  0.942
   spin  2
    eigenvalues: 
  0.459  0.459  0.730  0.788  0.788
    eigenvectors:
  0.000  0.000  1.000  0.000  0.000
  0.517  0.119  0.000  0.010  0.355
  0.119  0.517  0.000  0.355  0.010
  0.143  0.222  0.000  0.633  0.003
  0.222  0.143  0.000  0.003  0.633
    occupations:
  0.730  0.000  0.000  0.000  0.000
  0.000  0.579  0.000  0.036  0.154
  0.000  0.000  0.579  0.154 -0.036
  0.000  0.036  0.154  0.668  0.000
  0.000  0.154 -0.036  0.000  0.668
atomic mag. moment =     1.448145
atom    3   Tr[ns(na)] (up, down, total) =   1.91460  1.90025  3.81485
   spin  1
    eigenvalues: 
  0.357  0.357  0.387  0.407  0.407
    eigenvectors:
  0.000  0.000  1.000  0.000  0.000
  0.130  0.794  0.000  0.024  0.052
  0.794  0.130  0.000  0.052  0.024
  0.065  0.011  0.000  0.640  0.284
  0.011  0.065  0.000  0.284  0.640
    occupations:
  0.387  0.000  0.000  0.000  0.000
  0.000  0.361  0.000  0.000  0.013
  0.000  0.000  0.361  0.013  0.000
  0.000  0.000  0.013  0.403  0.000
  0.000  0.013  0.000  0.000  0.403
   spin  2
    eigenvalues: 
  0.353  0.353  0.387  0.404  0.404
    eigenvectors:
  0.000  0.000  1.000  0.000  0.000
  0.322  0.588  0.000  0.074  0.016
  0.588  0.322  0.000  0.016  0.074
  0.060  0.030  0.000  0.174  0.736
  0.030  0.060  0.000  0.736  0.174
    occupations:
  0.387  0.000  0.000  0.000  0.000
  0.000  0.358  0.000  0.000  0.015
  0.000  0.000  0.358  0.015  0.000
  0.000  0.000  0.015  0.399  0.000
  0.000  0.015  0.000  0.000  0.399
atomic mag. moment =     0.014344
atom    4   Tr[ns(na)] (up, down, total) =   1.91459  1.90025  3.81485
   spin  1
    eigenvalues: 
  0.357  0.357  0.387  0.407  0.407
    eigenvectors:
  0.000  0.000  1.000  0.000  0.000
  0.720  0.204  0.000  0.032  0.044
  0.204  0.720  0.000  0.044  0.032
  0.017  0.058  0.000  0.521  0.403
  0.058  0.017  0.000  0.403  0.521
    occupations:
  0.387  0.000  0.000  0.000  0.000
  0.000  0.361  0.000  0.000  0.013
  0.000  0.000  0.361  0.013  0.000
  0.000  0.000  0.013  0.403  0.000
  0.000  0.013  0.000  0.000  0.403
   spin  2
    eigenvalues: 
  0.353  0.353  0.387  0.404  0.404
    eigenvectors:
  0.000  0.000  1.000  0.000  0.000
  0.723  0.187  0.000  0.047  0.043
  0.187  0.723  0.000  0.043  0.047
  0.020  0.070  0.000  0.419  0.491
  0.070  0.020  0.000  0.491  0.419
    occupations:
  0.387  0.000  0.000  0.000  0.000
  0.000  0.358  0.000  0.000  0.015
  0.000  0.000  0.358  0.015  0.000
  0.000  0.000  0.015  0.399  0.000
  0.000  0.015  0.000  0.000  0.399
atomic mag. moment =     0.014343
atom    5   Tr[ns(na)] (up, down, total) =   2.74224  2.70308  5.44532
   spin  1
    eigenvalues: 
  0.844  0.947  0.951
    eigenvectors:
  0.337  0.000  0.663
  0.508  0.244  0.248
  0.155  0.756  0.089
    occupations:
  0.915 -0.044  0.025
 -0.044  0.896  0.029
  0.025  0.029  0.932
   spin  2
    eigenvalues: 
  0.864  0.920  0.920
    eigenvectors:
  0.333  0.044  0.622
  0.514  0.111  0.376
  0.153  0.845  0.002
    occupations:
  0.901 -0.023  0.013
 -0.023  0.891  0.016
  0.013  0.016  0.911
atomic mag. moment =     0.039165
atom    6   Tr[ns(na)] (up, down, total) =   2.74225  2.70308  5.44533
   spin  1
    eigenvalues: 
  0.844  0.947  0.951
    eigenvectors:
  0.337  0.000  0.663
  0.487  0.256  0.257
  0.176  0.744  0.080
    occupations:
  0.915  0.044  0.026
  0.044  0.898 -0.030
  0.026 -0.030  0.929
   spin  2
    eigenvalues: 
  0.864  0.920  0.920
    eigenvectors:
  0.333  0.045  0.622
  0.486  0.398  0.116
  0.181  0.558  0.262
    occupations:
  0.901  0.022  0.014
  0.022  0.893 -0.016
  0.014 -0.016  0.910
atomic mag. moment =     0.039166
atom    7   Tr[ns(na)] (up, down, total) =   2.74225  2.70308  5.44533
   spin  1
    eigenvalues: 
  0.844  0.947  0.951
    eigenvectors:
  0.337  0.000  0.663
  0.000  1.000  0.000
  0.663  0.000  0.337
    occupations:
  0.915  0.001 -0.051
  0.001  0.947  0.001
 -0.051  0.001  0.880
   spin  2
    eigenvalues: 
  0.864  0.920  0.920
    eigenvectors:
  0.333  0.051  0.616
  0.000  0.916  0.084
  0.666  0.033  0.301
    occupations:
  0.901  0.001 -0.026
  0.001  0.920  0.001
 -0.026  0.001  0.883
atomic mag. moment =     0.039166
atom    8   Tr[ns(na)] (up, down, total) =   2.74225  2.70308  5.44532
   spin  1
    eigenvalues: 
  0.844  0.947  0.951
    eigenvectors:
  0.337  0.000  0.663
  0.508  0.244  0.248
  0.155  0.756  0.089
    occupations:
  0.915 -0.044  0.025
 -0.044  0.896  0.029
  0.025  0.029  0.932
   spin  2
    eigenvalues: 
  0.864  0.920  0.920
    eigenvectors:
  0.333  0.045  0.622
  0.514  0.109  0.377
  0.153  0.845  0.002
    occupations:
  0.901 -0.023  0.013
 -0.023  0.891  0.016
  0.013  0.016  0.911
atomic mag. moment =     0.039170
atom    9   Tr[ns(na)] (up, down, total) =   2.74225  2.70308  5.44533
   spin  1
    eigenvalues: 
  0.844  0.947  0.951
    eigenvectors:
  0.337  0.000  0.663
  0.487  0.256  0.257
  0.176  0.744  0.080
    occupations:
  0.915  0.044  0.026
  0.044  0.898 -0.030
  0.026 -0.030  0.929
   spin  2
    eigenvalues: 
  0.864  0.920  0.920
    eigenvectors:
  0.333  0.044  0.622
  0.486  0.397  0.117
  0.181  0.559  0.260
    occupations:
  0.901  0.022  0.014
  0.022  0.893 -0.016
  0.014 -0.016  0.910
atomic mag. moment =     0.039164
atom   10   Tr[ns(na)] (up, down, total) =   2.74225  2.70308  5.44533
   spin  1
    eigenvalues: 
  0.844  0.947  0.951
    eigenvectors:
  0.337  0.000  0.663
  0.000  1.000  0.000
  0.663  0.000  0.337
    occupations:
  0.915  0.001 -0.051
  0.001  0.947  0.001
 -0.051  0.001  0.880
   spin  2
    eigenvalues: 
  0.864  0.920  0.920
    eigenvectors:
  0.333  0.045  0.621
  0.000  0.925  0.075
  0.666  0.030  0.304
    occupations:
  0.901  0.001 -0.026
  0.001  0.920  0.001
 -0.026  0.001  0.883
atomic mag. moment =     0.039164
N of occupied +U levels =  56.1389441
 --- exit write_ns ---
 LDA+U Projector read from file 
     Starting wfc from file

     total cpu time spent up to now is        8.2 secs

     per-process dynamical memory:   100.5 Mb

     Self-consistent Calculation

     iteration #  1     ecut=    30.00 Ry     beta=0.20
     Davidson diagonalization with overlap
     c_bands:  1 eigenvalues not converged
     c_bands:  1 eigenvalues not converged
     c_bands:  1 eigenvalues not converged
     c_bands:  1 eigenvalues not converged
     c_bands:  1 eigenvalues not converged
     c_bands:  1 eigenvalues not converged
     c_bands:  1 eigenvalues not converged
     c_bands:  1 eigenvalues not converged
     c_bands:  1 eigenvalues not converged
     c_bands:  1 eigenvalues not converged
     c_bands:  1 eigenvalues not converged
     c_bands:  1 eigenvalues not converged
     c_bands:  1 eigenvalues not converged
     c_bands:  1 eigenvalues not converged
     c_bands:  1 eigenvalues not converged
     c_bands:  1 eigenvalues not converged
     c_bands:  1 eigenvalues not converged
     c_bands:  1 eigenvalues not converged
     c_bands:  1 eigenvalues not converged
     c_bands:  1 eigenvalues not converged
     c_bands:  1 eigenvalues not converged
     c_bands:  1 eigenvalues not converged
     c_bands:  1 eigenvalues not converged
     c_bands:  1 eigenvalues not converged
     c_bands:  1 eigenvalues not converged
     c_bands:  1 eigenvalues not converged
     c_bands:  1 eigenvalues not converged
     c_bands:  1 eigenvalues not converged
     c_bands:  1 eigenvalues not converged
     c_bands:  1 eigenvalues not converged
     c_bands:  1 eigenvalues not converged
     c_bands:  1 eigenvalues not converged
     c_bands:  1 eigenvalues not converged
     ethr =  1.00E-10,  avg # of iterations = 17.1
 --- enter write_ns ---
 LDA+U parameters:
U( 1)     =  0.00000000
alpha( 1) =  0.00000000
U( 2)     =  0.00000000
alpha( 2) =  0.00000000
U( 3)     =  0.00000000
alpha( 3) = -0.15000000
U( 4)     =  0.00000000
alpha( 4) =  0.00000000
atom    1   Tr[ns(na)] (up, down, total) =   4.56469  3.36903  7.93372
   spin  1
    eigenvalues: 
  0.784  0.784  0.999  0.999  0.999
    eigenvectors:
  0.000  0.000  0.002  0.011  0.987
  0.209  0.437  0.340  0.013  0.000
  0.438  0.208  0.013  0.337  0.004
  0.011  0.344  0.447  0.193  0.006
  0.343  0.011  0.198  0.446  0.002
    occupations:
  0.999  0.000  0.000  0.000  0.000
  0.000  0.860  0.000 -0.073  0.072
  0.000  0.000  0.860  0.072  0.073
  0.000 -0.073  0.072  0.923  0.000
  0.000  0.072  0.073  0.000  0.923
   spin  2
    eigenvalues: 
  0.472  0.474  0.772  0.825  0.826
    eigenvectors:
  0.000  0.000  0.999  0.001  0.000
  0.515  0.124  0.000  0.221  0.140
  0.124  0.515  0.000  0.139  0.221
  0.141  0.220  0.000  0.386  0.253
  0.220  0.141  0.000  0.252  0.386
    occupations:
  0.772  0.001  0.000 -0.001  0.001
  0.001  0.600  0.001 -0.037  0.165
  0.000  0.001  0.601  0.165  0.037
 -0.001 -0.037  0.165  0.698  0.001
  0.001  0.165  0.037  0.001  0.698
atomic mag. moment =     1.195657
atom    2   Tr[ns(na)] (up, down, total) =   4.67219  3.21813  7.89033
   spin  1
    eigenvalues: 
  0.837  0.838  0.999  0.999  0.999
    eigenvectors:
  0.000  0.000  0.003  0.063  0.934
  0.323  0.323  0.153  0.184  0.017
  0.323  0.323  0.200  0.147  0.006
  0.354  0.000  0.003  0.604  0.040
  0.000  0.354  0.642  0.002  0.003
    occupations:
  0.999  0.000  0.000  0.000  0.000
  0.000  0.895  0.000  0.055  0.054
  0.000  0.000  0.895  0.055 -0.054
  0.000  0.055  0.055  0.942  0.000
  0.000  0.054 -0.054  0.000  0.942
   spin  2
    eigenvalues: 
  0.457  0.459  0.728  0.786  0.787
    eigenvectors:
  0.000  0.000  1.000  0.000  0.000
  0.435  0.200  0.000  0.310  0.055
  0.200  0.435  0.000  0.055  0.310
  0.047  0.318  0.000  0.018  0.618
  0.318  0.047  0.000  0.617  0.018
    occupations:
  0.729  0.001  0.000  0.000  0.001
  0.001  0.578  0.001  0.036  0.154
  0.000  0.001  0.578  0.154 -0.036
  0.000  0.036  0.154  0.668  0.000
  0.001  0.154 -0.036  0.000  0.666
atomic mag. moment =     1.454059
atom    3   Tr[ns(na)] (up, down, total) =   1.91265  1.89854  3.81119
   spin  1
    eigenvalues: 
  0.356  0.357  0.386  0.406  0.407
    eigenvectors:
  0.000  0.000  0.999  0.001  0.000
  0.228  0.693  0.000  0.061  0.018
  0.695  0.228  0.000  0.018  0.059
  0.057  0.020  0.000  0.221  0.701
  0.020  0.059  0.000  0.699  0.222
    occupations:
  0.386  0.000  0.000  0.000  0.000
  0.000  0.361  0.000  0.000  0.013
  0.000  0.000  0.360  0.013  0.000
  0.000  0.000  0.013  0.403  0.000
  0.000  0.013  0.000  0.000  0.402
   spin  2
    eigenvalues: 
  0.352  0.353  0.387  0.403  0.404
    eigenvectors:
  0.000  0.000  1.000  0.000  0.000
  0.228  0.679  0.000  0.071  0.021
  0.681  0.228  0.000  0.021  0.070
  0.067  0.025  0.000  0.221  0.687
  0.024  0.068  0.000  0.685  0.222
    occupations:
  0.387  0.000  0.000  0.000  0.000
  0.000  0.357  0.000  0.000  0.015
  0.000  0.000  0.357  0.015  0.000
  0.000  0.000  0.015  0.399  0.000
  0.000  0.015  0.000  0.000  0.399
atomic mag. moment =     0.014105
atom    4   Tr[ns(na)] (up, down, total) =   1.91287  1.89865  3.81152
   spin  1
    eigenvalues: 
  0.356  0.357  0.386  0.407  0.407
    eigenvectors:
  0.000  0.000  1.000  0.000  0.000
  0.692  0.235  0.000  0.054  0.019
  0.236  0.688  0.000  0.018  0.058
  0.019  0.057  0.000  0.238  0.687
  0.053  0.020  0.000  0.690  0.236
    occupations:
  0.386  0.000  0.000  0.000  0.000
  0.000  0.360  0.000  0.000  0.013
  0.000  0.000  0.360  0.013  0.000
  0.000  0.000  0.013  0.403  0.000
  0.000  0.013  0.000  0.000  0.403
   spin  2
    eigenvalues: 
  0.352  0.353  0.386  0.404  0.404
    eigenvectors:
  0.000  0.000  1.000  0.000  0.000
  0.679  0.233  0.000  0.064  0.023
  0.234  0.676  0.000  0.022  0.068
  0.023  0.066  0.000  0.247  0.664
  0.063  0.025  0.000  0.667  0.246
    occupations:
  0.386  0.000  0.000  0.000  0.000
  0.000  0.357  0.000  0.000  0.014
  0.000  0.000  0.357  0.015  0.000
  0.000  0.000  0.015  0.399  0.000
  0.000  0.014  0.000  0.000  0.399
atomic mag. moment =     0.014226
atom    5   Tr[ns(na)] (up, down, total) =   2.75202  2.71503  5.46705
   spin  1
    eigenvalues: 
  0.850  0.949  0.953
    eigenvectors:
  0.336  0.000  0.664
  0.509  0.243  0.248
  0.155  0.756  0.088
    occupations:
  0.918 -0.042  0.023
 -0.042  0.900  0.027
  0.023  0.027  0.934
   spin  2
    eigenvalues: 
  0.868  0.923  0.924
    eigenvectors:
  0.332  0.000  0.667
  0.514  0.217  0.269
  0.154  0.782  0.064
    occupations:
  0.905 -0.023  0.013
 -0.023  0.895  0.015
  0.013  0.015  0.915
atomic mag. moment =     0.036999
atom    6   Tr[ns(na)] (up, down, total) =   2.74198  2.70244  5.44442
   spin  1
    eigenvalues: 
  0.843  0.947  0.951
    eigenvectors:
  0.338  0.000  0.662
  0.485  0.254  0.260
  0.177  0.745  0.078
    occupations:
  0.915  0.044  0.026
  0.044  0.898 -0.030
  0.026 -0.030  0.929
   spin  2
    eigenvalues: 
  0.864  0.919  0.919
    eigenvectors:
  0.333  0.532  0.135
  0.486  0.455  0.059
  0.181  0.013  0.806
    occupations:
  0.901  0.022  0.014
  0.022  0.892 -0.016
  0.014 -0.016  0.909
atomic mag. moment =     0.039543
atom    7   Tr[ns(na)] (up, down, total) =   2.74198  2.70244  5.44442
   spin  1
    eigenvalues: 
  0.843  0.947  0.951
    eigenvectors:
  0.338  0.000  0.662
  0.000  1.000  0.000
  0.662  0.000  0.338
    occupations:
  0.915  0.001 -0.051
  0.001  0.947  0.001
 -0.051  0.001  0.880
   spin  2
    eigenvalues: 
  0.864  0.919  0.919
    eigenvectors:
  0.333  0.523  0.144
  0.000  0.204  0.796
  0.666  0.273  0.061
    occupations:
  0.901  0.001 -0.026
  0.001  0.919  0.001
 -0.026  0.001  0.882
atomic mag. moment =     0.039544
atom    8   Tr[ns(na)] (up, down, total) =   2.74103  2.70255  5.44358
   spin  1
    eigenvalues: 
  0.843  0.947  0.951
    eigenvectors:
  0.337  0.000  0.663
  0.508  0.244  0.248
  0.155  0.756  0.089
    occupations:
  0.915 -0.045  0.025
 -0.045  0.895  0.029
  0.025  0.029  0.931
   spin  2
    eigenvalues: 
  0.864  0.919  0.920
    eigenvectors:
  0.333  0.006  0.660
  0.514  0.182  0.304
  0.153  0.812  0.036
    occupations:
  0.901 -0.023  0.013
 -0.023  0.891  0.016
  0.013  0.016  0.911
atomic mag. moment =     0.038478
atom    9   Tr[ns(na)] (up, down, total) =   2.74193  2.70249  5.44442
   spin  1
    eigenvalues: 
  0.843  0.947  0.951
    eigenvectors:
  0.336  0.000  0.664
  0.488  0.251  0.260
  0.176  0.748  0.076
    occupations:
  0.915  0.044  0.026
  0.044  0.898 -0.030
  0.026 -0.030  0.929
   spin  2
    eigenvalues: 
  0.864  0.919  0.919
    eigenvectors:
  0.334  0.529  0.137
  0.485  0.456  0.058
  0.181  0.014  0.805
    occupations:
  0.901  0.022  0.014
  0.022  0.892 -0.016
  0.014 -0.016  0.909
atomic mag. moment =     0.039436
atom   10   Tr[ns(na)] (up, down, total) =   2.74193  2.70249  5.44442
   spin  1
    eigenvalues: 
  0.843  0.947  0.951
    eigenvectors:
  0.336  0.000  0.664
  0.000  1.000  0.000
  0.664  0.000  0.336
    occupations:
  0.915  0.001 -0.051
  0.001  0.947  0.001
 -0.051  0.001  0.880
   spin  2
    eigenvalues: 
  0.864  0.919  0.919
    eigenvectors:
  0.334  0.502  0.165
  0.000  0.235  0.765
  0.666  0.263  0.071
    occupations:
  0.901  0.001 -0.026
  0.001  0.919  0.001
 -0.026  0.001  0.882
atomic mag. moment =     0.039436
N of occupied +U levels =  56.1350529
 --- exit write_ns ---
 --- in v_hubbard ---
Hubbard energy   -0.0601
 -------

     total cpu time spent up to now is      203.6 secs

     total energy              =    -538.41545382 Ry
     Harris-Foulkes estimate   =    -538.41558654 Ry
     estimated scf accuracy    <       0.00040947 Ry

     total magnetization       =     3.55 Bohr mag/cell
     absolute magnetization    =     3.70 Bohr mag/cell

     iteration #  2     ecut=    30.00 Ry     beta=0.20
     Davidson diagonalization with overlap
     ethr =  5.39E-07,  avg # of iterations =  2.0
 --- enter write_ns ---
 LDA+U parameters:
U( 1)     =  0.00000000
alpha( 1) =  0.00000000
U( 2)     =  0.00000000
alpha( 2) =  0.00000000
U( 3)     =  0.00000000
alpha( 3) = -0.15000000
U( 4)     =  0.00000000
alpha( 4) =  0.00000000
atom    1   Tr[ns(na)] (up, down, total) =   4.56533  3.37019  7.93552
   spin  1
    eigenvalues: 
  0.785  0.785  0.999  0.999  0.999
    eigenvectors:
  0.000  0.000  0.000  0.001  0.998
  0.600  0.046  0.343  0.011  0.000
  0.046  0.600  0.011  0.343  0.000
  0.270  0.084  0.438  0.208  0.000
  0.084  0.270  0.208  0.438  0.001
    occupations:
  0.999  0.000  0.000  0.000  0.000
  0.000  0.860  0.000 -0.073  0.072
  0.000  0.000  0.860  0.072  0.073
  0.000 -0.073  0.072  0.923  0.000
  0.000  0.072  0.073  0.000  0.923
   spin  2
    eigenvalues: 
  0.473  0.475  0.772  0.825  0.825
    eigenvectors:
  0.000  0.000  1.000  0.000  0.000
  0.514  0.125  0.000  0.237  0.124
  0.125  0.514  0.000  0.124  0.237
  0.141  0.220  0.000  0.358  0.281
  0.220  0.141  0.000  0.281  0.358
    occupations:
  0.772  0.000  0.000  0.000  0.000
  0.000  0.600  0.000 -0.037  0.165
  0.000  0.000  0.601  0.164  0.036
  0.000 -0.037  0.164  0.698  0.000
  0.000  0.165  0.036  0.000  0.698
atomic mag. moment =     1.195146
atom    2   Tr[ns(na)] (up, down, total) =   4.67367  3.22709  7.90076
   spin  1
    eigenvalues: 
  0.838  0.838  0.999  0.999  0.999
    eigenvectors:
  0.000  0.000  0.007  0.004  0.989
  0.339  0.306  0.141  0.213  0.000
  0.307  0.340  0.210  0.139  0.004
  0.354  0.000  0.006  0.637  0.003
  0.000  0.354  0.635  0.007  0.004
    occupations:
  0.999  0.000  0.000  0.000  0.000
  0.000  0.895  0.000  0.054  0.054
  0.000  0.000  0.895  0.054 -0.054
  0.000  0.054  0.054  0.942  0.000
  0.000  0.054 -0.054  0.000  0.942
   spin  2
    eigenvalues: 
  0.459  0.460  0.731  0.789  0.789
    eigenvectors:
  0.000  0.000  1.000  0.000  0.000
  0.436  0.199  0.000  0.288  0.077
  0.199  0.436  0.000  0.076  0.288
  0.046  0.318  0.000  0.038  0.598
  0.318  0.046  0.000  0.597  0.038
    occupations:
  0.731  0.000  0.000  0.000  0.000
  0.000  0.579  0.000  0.036  0.154
  0.000  0.000  0.580  0.154 -0.036
  0.000  0.036  0.154  0.669  0.000
  0.000  0.154 -0.036  0.000  0.668
atomic mag. moment =     1.446574
atom    3   Tr[ns(na)] (up, down, total) =   1.91347  1.89921  3.81268
   spin  1
    eigenvalues: 
  0.357  0.357  0.387  0.407  0.407
    eigenvectors:
  0.000  0.000  1.000  0.000  0.000
  0.226  0.698  0.000  0.060  0.016
  0.698  0.226  0.000  0.016  0.060
  0.057  0.019  0.000  0.205  0.719
  0.019  0.057  0.000  0.719  0.205
    occupations:
  0.387  0.000  0.000  0.000  0.000
  0.000  0.361  0.000  0.000  0.013
  0.000  0.000  0.361  0.013  0.000
  0.000  0.000  0.013  0.403  0.000
  0.000  0.013  0.000  0.000  0.403
   spin  2
    eigenvalues: 
  0.353  0.353  0.387  0.404  0.404
    eigenvectors:
  0.000  0.000  1.000  0.000  0.000
  0.224  0.685  0.000  0.076  0.015
  0.685  0.224  0.000  0.015  0.076
  0.067  0.024  0.000  0.160  0.750
  0.024  0.067  0.000  0.750  0.160
    occupations:
  0.387  0.000  0.000  0.000  0.000
  0.000  0.357  0.000  0.000  0.015
  0.000  0.000  0.357  0.015  0.000
  0.000  0.000  0.015  0.399  0.000
  0.000  0.015  0.000  0.000  0.399
atomic mag. moment =     0.014261
atom    4   Tr[ns(na)] (up, down, total) =   1.91353  1.89919  3.81273
   spin  1
    eigenvalues: 
  0.357  0.357  0.386  0.407  0.407
    eigenvectors:
  0.000  0.000  1.000  0.000  0.000
  0.199  0.726  0.000  0.058  0.018
  0.724  0.199  0.000  0.018  0.059
  0.059  0.017  0.000  0.225  0.699
  0.017  0.058  0.000  0.700  0.224
    occupations:
  0.386  0.000  0.000  0.000  0.000
  0.000  0.360  0.000  0.000  0.013
  0.000  0.000  0.361  0.013  0.000
  0.000  0.000  0.013  0.403  0.000
  0.000  0.013  0.000  0.000  0.403
   spin  2
    eigenvalues: 
  0.353  0.353  0.387  0.404  0.404
    eigenvectors:
  0.000  0.000  1.000  0.000  0.000
  0.214  0.696  0.000  0.067  0.022
  0.695  0.215  0.000  0.022  0.068
  0.068  0.022  0.000  0.236  0.674
  0.023  0.067  0.000  0.675  0.235
    occupations:
  0.387  0.000  0.000  0.000  0.000
  0.000  0.357  0.000  0.000  0.015
  0.000  0.000  0.357  0.015  0.000
  0.000  0.000  0.015  0.399  0.000
  0.000  0.015  0.000  0.000  0.399
atomic mag. moment =     0.014339
atom    5   Tr[ns(na)] (up, down, total) =   2.74596  2.70800  5.45396
   spin  1
    eigenvalues: 
  0.847  0.948  0.952
    eigenvectors:
  0.337  0.000  0.663
  0.508  0.244  0.248
  0.155  0.756  0.088
    occupations:
  0.916 -0.043  0.024
 -0.043  0.897  0.028
  0.024  0.028  0.932
   spin  2
    eigenvalues: 
  0.866  0.921  0.921
    eigenvectors:
  0.333  0.002  0.665
  0.513  0.204  0.283
  0.154  0.794  0.052
    occupations:
  0.903 -0.023  0.013
 -0.023  0.893  0.016
  0.013  0.016  0.913
atomic mag. moment =     0.037954
atom    6   Tr[ns(na)] (up, down, total) =   2.74187  2.70238  5.44426
   spin  1
    eigenvalues: 
  0.843  0.947  0.951
    eigenvectors:
  0.337  0.000  0.663
  0.487  0.254  0.260
  0.176  0.746  0.078
    occupations:
  0.915  0.044  0.026
  0.044  0.898 -0.030
  0.026 -0.030  0.929
   spin  2
    eigenvalues: 
  0.864  0.919  0.919
    eigenvectors:
  0.333  0.069  0.598
  0.487  0.423  0.090
  0.180  0.508  0.312
    occupations:
  0.901  0.022  0.014
  0.022  0.892 -0.016
  0.014 -0.016  0.909
atomic mag. moment =     0.039493
atom    7   Tr[ns(na)] (up, down, total) =   2.74187  2.70238  5.44426
   spin  1
    eigenvalues: 
  0.843  0.947  0.951
    eigenvectors:
  0.337  0.000  0.663
  0.000  1.000  0.000
  0.663  0.000  0.337
    occupations:
  0.915  0.001 -0.051
  0.001  0.947  0.001
 -0.051  0.001  0.880
   spin  2
    eigenvalues: 
  0.864  0.919  0.919
    eigenvectors:
  0.333  0.108  0.559
  0.000  0.827  0.172
  0.666  0.065  0.269
    occupations:
  0.901  0.001 -0.026
  0.001  0.919  0.001
 -0.026  0.001  0.882
atomic mag. moment =     0.039492
atom    8   Tr[ns(na)] (up, down, total) =   2.74194  2.70304  5.44498
   spin  1
    eigenvalues: 
  0.843  0.947  0.951
    eigenvectors:
  0.337  0.000  0.663
  0.508  0.244  0.248
  0.155  0.756  0.089
    occupations:
  0.915 -0.045  0.025
 -0.045  0.895  0.029
  0.025  0.029  0.932
   spin  2
    eigenvalues: 
  0.864  0.920  0.920
    eigenvectors:
  0.333  0.014  0.653
  0.513  0.161  0.326
  0.153  0.825  0.022
    occupations:
  0.901 -0.023  0.013
 -0.023  0.891  0.016
  0.013  0.016  0.911
atomic mag. moment =     0.038902
atom    9   Tr[ns(na)] (up, down, total) =   2.74175  2.70231  5.44406
   spin  1
    eigenvalues: 
  0.843  0.947  0.951
    eigenvectors:
  0.337  0.000  0.663
  0.487  0.253  0.260
  0.177  0.746  0.077
    occupations:
  0.915  0.044  0.026
  0.044  0.898 -0.030
  0.026 -0.030  0.929
   spin  2
    eigenvalues: 
  0.864  0.919  0.919
    eigenvectors:
  0.334  0.104  0.562
  0.485  0.453  0.061
  0.181  0.443  0.377
    occupations:
  0.901  0.022  0.014
  0.022  0.892 -0.016
  0.014 -0.016  0.909
atomic mag. moment =     0.039440
atom   10   Tr[ns(na)] (up, down, total) =   2.74175  2.70231  5.44406
   spin  1
    eigenvalues: 
  0.843  0.947  0.951
    eigenvectors:
  0.337  0.000  0.663
  0.000  1.000  0.000
  0.663  0.000  0.337
    occupations:
  0.915  0.001 -0.051
  0.001  0.947  0.001
 -0.051  0.001  0.880
   spin  2
    eigenvalues: 
  0.864  0.919  0.919
    eigenvectors:
  0.334  0.077  0.589
  0.000  0.875  0.124
  0.666  0.048  0.287
    occupations:
  0.901  0.001 -0.026
  0.001  0.919  0.001
 -0.026  0.001  0.882
atomic mag. moment =     0.039444
N of occupied +U levels =  56.1372628
 --- exit write_ns ---
 --- in v_hubbard ---
Hubbard energy   -0.0601
 -------

     total cpu time spent up to now is      277.1 secs

     total energy              =    -538.41550367 Ry
     Harris-Foulkes estimate   =    -538.41551401 Ry
     estimated scf accuracy    <       0.00003526 Ry

     total magnetization       =     3.54 Bohr mag/cell
     absolute magnetization    =     3.69 Bohr mag/cell

     iteration #  3     ecut=    30.00 Ry     beta=0.20
     Davidson diagonalization with overlap
     ethr =  4.64E-08,  avg # of iterations =  2.0
 --- enter write_ns ---
 LDA+U parameters:
U( 1)     =  0.00000000
alpha( 1) =  0.00000000
U( 2)     =  0.00000000
alpha( 2) =  0.00000000
U( 3)     =  0.00000000
alpha( 3) = -0.15000000
U( 4)     =  0.00000000
alpha( 4) =  0.00000000
atom    1   Tr[ns(na)] (up, down, total) =   4.57006  3.39241  7.96246
   spin  1
    eigenvalues: 
  0.787  0.787  0.999  0.999  0.999
    eigenvectors:
  0.000  0.000  0.000  0.001  0.998
  0.598  0.048  0.341  0.013  0.000
  0.048  0.598  0.013  0.341  0.000
  0.272  0.082  0.448  0.198  0.000
  0.082  0.272  0.198  0.448  0.001
    occupations:
  0.999  0.000  0.000  0.000  0.000
  0.000  0.862  0.000 -0.072  0.071
  0.000  0.000  0.862  0.071  0.072
  0.000 -0.072  0.071  0.924  0.000
  0.000  0.071  0.072  0.000  0.924
   spin  2
    eigenvalues: 
  0.474  0.476  0.780  0.831  0.832
    eigenvectors:
  0.000  0.000  1.000  0.000  0.000
  0.515  0.124  0.000  0.220  0.140
  0.124  0.515  0.000  0.140  0.220
  0.142  0.219  0.000  0.390  0.249
  0.218  0.142  0.000  0.249  0.390
    occupations:
  0.780  0.000  0.000  0.000  0.000
  0.000  0.603  0.000 -0.038  0.167
  0.000  0.000  0.604  0.167  0.038
  0.000 -0.038  0.167  0.703  0.000
  0.000  0.167  0.038  0.000  0.703
atomic mag. moment =     1.177646
atom    2   Tr[ns(na)] (up, down, total) =   4.66884  3.20166  7.87049
   spin  1
    eigenvalues: 
  0.836  0.836  0.999  0.999  0.999
    eigenvectors:
  0.000  0.000  0.005  0.003  0.991
  0.342  0.304  0.144  0.210  0.000
  0.304  0.342  0.208  0.143  0.003
  0.354  0.000  0.005  0.638  0.003
  0.000  0.354  0.637  0.006  0.003
    occupations:
  0.999  0.000  0.000  0.000  0.000
  0.000  0.894  0.000  0.055  0.055
  0.000  0.000  0.894  0.055 -0.055
  0.000  0.055  0.055  0.941  0.000
  0.000  0.055 -0.055  0.000  0.941
   spin  2
    eigenvalues: 
  0.457  0.459  0.723  0.781  0.782
    eigenvectors:
  0.000  0.000  1.000  0.000  0.000
  0.437  0.198  0.000  0.328  0.037
  0.198  0.437  0.000  0.037  0.328
  0.047  0.318  0.000  0.006  0.629
  0.318  0.047  0.000  0.629  0.006
    occupations:
  0.723  0.000  0.000  0.000  0.000
  0.000  0.576  0.000  0.035  0.152
  0.000  0.000  0.576  0.152 -0.035
  0.000  0.035  0.152  0.664  0.000
  0.000  0.152 -0.035  0.000  0.663
atomic mag. moment =     1.467182
atom    3   Tr[ns(na)] (up, down, total) =   1.91349  1.89929  3.81278
   spin  1
    eigenvalues: 
  0.357  0.357  0.387  0.407  0.407
    eigenvectors:
  0.000  0.000  1.000  0.000  0.000
  0.228  0.696  0.000  0.060  0.017
  0.696  0.228  0.000  0.017  0.060
  0.057  0.020  0.000  0.212  0.711
  0.020  0.057  0.000  0.711  0.212
    occupations:
  0.387  0.000  0.000  0.000  0.000
  0.000  0.361  0.000  0.000  0.013
  0.000  0.000  0.361  0.013  0.000
  0.000  0.000  0.013  0.403  0.000
  0.000  0.013  0.000  0.000  0.403
   spin  2
    eigenvalues: 
  0.353  0.353  0.387  0.404  0.404
    eigenvectors:
  0.000  0.000  1.000  0.000  0.000
  0.225  0.685  0.000  0.073  0.018
  0.685  0.225  0.000  0.018  0.073
  0.067  0.024  0.000  0.193  0.716
  0.024  0.067  0.000  0.716  0.194
    occupations:
  0.387  0.000  0.000  0.000  0.000
  0.000  0.357  0.000  0.000  0.015
  0.000  0.000  0.357  0.015  0.000
  0.000  0.000  0.015  0.399  0.000
  0.000  0.015  0.000  0.000  0.399
atomic mag. moment =     0.014204
atom    4   Tr[ns(na)] (up, down, total) =   1.91355  1.89927  3.81281
   spin  1
    eigenvalues: 
  0.357  0.357  0.386  0.407  0.407
    eigenvectors:
  0.000  0.000  1.000  0.000  0.000
  0.209  0.715  0.000  0.057  0.019
  0.714  0.210  0.000  0.018  0.058
  0.059  0.018  0.000  0.234  0.690
  0.018  0.057  0.000  0.691  0.233
    occupations:
  0.386  0.000  0.000  0.000  0.000
  0.000  0.360  0.000  0.000  0.013
  0.000  0.000  0.361  0.013  0.000
  0.000  0.000  0.013  0.403  0.000
  0.000  0.013  0.000  0.000  0.403
   spin  2
    eigenvalues: 
  0.353  0.353  0.387  0.404  0.404
    eigenvectors:
  0.000  0.000  1.000  0.000  0.000
  0.217  0.693  0.000  0.067  0.023
  0.692  0.217  0.000  0.023  0.068
  0.067  0.023  0.000  0.245  0.665
  0.023  0.067  0.000  0.666  0.245
    occupations:
  0.387  0.000  0.000  0.000  0.000
  0.000  0.357  0.000  0.000  0.015
  0.000  0.000  0.357  0.015  0.000
  0.000  0.000  0.015  0.399  0.000
  0.000  0.015  0.000  0.000  0.399
atomic mag. moment =     0.014280
atom    5   Tr[ns(na)] (up, down, total) =   2.74591  2.70814  5.45405
   spin  1
    eigenvalues: 
  0.847  0.948  0.952
    eigenvectors:
  0.337  0.000  0.663
  0.507  0.244  0.249
  0.156  0.756  0.088
    occupations:
  0.916 -0.043  0.024
 -0.043  0.897  0.028
  0.024  0.028  0.932
   spin  2
    eigenvalues: 
  0.866  0.921  0.921
    eigenvectors:
  0.333  0.004  0.663
  0.516  0.189  0.294
  0.151  0.807  0.042
    occupations:
  0.903 -0.023  0.012
 -0.023  0.893  0.015
  0.012  0.015  0.913
atomic mag. moment =     0.037775
atom    6   Tr[ns(na)] (up, down, total) =   2.74204  2.70278  5.44482
   spin  1
    eigenvalues: 
  0.843  0.947  0.951
    eigenvectors:
  0.337  0.000  0.663
  0.487  0.253  0.260
  0.176  0.747  0.078
    occupations:
  0.915  0.044  0.026
  0.044  0.898 -0.030
  0.026 -0.030  0.929
   spin  2
    eigenvalues: 
  0.864  0.919  0.920
    eigenvectors:
  0.333  0.055  0.612
  0.484  0.414  0.102
  0.183  0.531  0.286
    occupations:
  0.901  0.022  0.014
  0.022  0.893 -0.017
  0.014 -0.017  0.909
atomic mag. moment =     0.039260
atom    7   Tr[ns(na)] (up, down, total) =   2.74204  2.70278  5.44482
   spin  1
    eigenvalues: 
  0.843  0.947  0.951
    eigenvectors:
  0.337  0.000  0.663
  0.000  1.000  0.000
  0.663  0.000  0.337
    occupations:
  0.915  0.001 -0.051
  0.001  0.947  0.001
 -0.051  0.001  0.880
   spin  2
    eigenvalues: 
  0.864  0.919  0.920
    eigenvectors:
  0.333  0.102  0.565
  0.001  0.834  0.165
  0.666  0.064  0.270
    occupations:
  0.901  0.001 -0.026
  0.001  0.919  0.001
 -0.026  0.001  0.882
atomic mag. moment =     0.039260
atom    8   Tr[ns(na)] (up, down, total) =   2.74195  2.70324  5.44519
   spin  1
    eigenvalues: 
  0.843  0.947  0.951
    eigenvectors:
  0.337  0.000  0.663
  0.507  0.244  0.249
  0.156  0.756  0.088
    occupations:
  0.915 -0.045  0.025
 -0.045  0.896  0.029
  0.025  0.029  0.931
   spin  2
    eigenvalues: 
  0.864  0.920  0.920
    eigenvectors:
  0.333  0.024  0.643
  0.516  0.137  0.346
  0.150  0.839  0.011
    occupations:
  0.901 -0.023  0.012
 -0.023  0.891  0.015
  0.012  0.015  0.911
atomic mag. moment =     0.038715
atom    9   Tr[ns(na)] (up, down, total) =   2.74196  2.70276  5.44472
   spin  1
    eigenvalues: 
  0.843  0.947  0.951
    eigenvectors:
  0.337  0.000  0.663
  0.488  0.253  0.260
  0.176  0.747  0.078
    occupations:
  0.915  0.044  0.026
  0.044  0.898 -0.030
  0.026 -0.030  0.929
   spin  2
    eigenvalues: 
  0.864  0.919  0.920
    eigenvectors:
  0.334  0.079  0.587
  0.482  0.439  0.078
  0.184  0.481  0.335
    occupations:
  0.901  0.022  0.014
  0.022  0.893 -0.017
  0.014 -0.017  0.909
atomic mag. moment =     0.039203
atom   10   Tr[ns(na)] (up, down, total) =   2.74196  2.70275  5.44471
   spin  1
    eigenvalues: 
  0.843  0.947  0.951
    eigenvectors:
  0.337  0.000  0.663
  0.000  1.000  0.000
  0.663  0.000  0.337
    occupations:
  0.915  0.001 -0.051
  0.001  0.947  0.001
 -0.051  0.001  0.880
   spin  2
    eigenvalues: 
  0.864  0.919  0.920
    eigenvectors:
  0.334  0.077  0.589
  0.001  0.873  0.126
  0.666  0.050  0.285
    occupations:
  0.901  0.001 -0.026
  0.001  0.919  0.001
 -0.026  0.001  0.882
atomic mag. moment =     0.039205
N of occupied +U levels =  56.1368615
 --- exit write_ns ---
 --- in v_hubbard ---
Hubbard energy   -0.0601
 -------

     total cpu time spent up to now is      361.2 secs

     total energy              =    -538.41548506 Ry
     Harris-Foulkes estimate   =    -538.41553919 Ry
     estimated scf accuracy    <       0.00121993 Ry

     total magnetization       =     3.54 Bohr mag/cell
     absolute magnetization    =     3.70 Bohr mag/cell

     iteration #  4     ecut=    30.00 Ry     beta=0.20
     Davidson diagonalization with overlap
     ethr =  4.64E-08,  avg # of iterations =  1.9
 --- enter write_ns ---
 LDA+U parameters:
U( 1)     =  0.00000000
alpha( 1) =  0.00000000
U( 2)     =  0.00000000
alpha( 2) =  0.00000000
U( 3)     =  0.00000000
alpha( 3) = -0.15000000
U( 4)     =  0.00000000
alpha( 4) =  0.00000000
atom    1   Tr[ns(na)] (up, down, total) =   4.56546  3.37122  7.93668
   spin  1
    eigenvalues: 
  0.785  0.785  0.999  0.999  0.999
    eigenvectors:
  0.000  0.000  0.000  0.001  0.998
  0.598  0.048  0.340  0.014  0.000
  0.048  0.598  0.014  0.340  0.000
  0.272  0.082  0.452  0.194  0.000
  0.082  0.271  0.194  0.451  0.001
    occupations:
  0.999  0.000  0.000  0.000  0.000
  0.000  0.860  0.000 -0.073  0.072
  0.000  0.000  0.861  0.072  0.073
  0.000 -0.073  0.072  0.923  0.000
  0.000  0.072  0.073  0.000  0.923
   spin  2
    eigenvalues: 
  0.473  0.474  0.773  0.825  0.826
    eigenvectors:
  0.000  0.000  1.000  0.000  0.000
  0.514  0.125  0.000  0.218  0.143
  0.125  0.514  0.000  0.143  0.218
  0.142  0.220  0.000  0.391  0.247
  0.219  0.141  0.000  0.248  0.392
    occupations:
  0.773  0.000  0.000  0.000  0.000
  0.000  0.600  0.000 -0.037  0.165
  0.000  0.000  0.601  0.165  0.036
  0.000 -0.037  0.165  0.699  0.000
  0.000  0.165  0.036  0.000  0.699
atomic mag. moment =     1.194238
atom    2   Tr[ns(na)] (up, down, total) =   4.67301  3.22298  7.89599
   spin  1
    eigenvalues: 
  0.838  0.838  0.999  0.999  0.999
    eigenvectors:
  0.000  0.000  0.007  0.004  0.990
  0.340  0.306  0.143  0.212  0.000
  0.306  0.340  0.209  0.141  0.004
  0.354  0.000  0.006  0.637  0.003
  0.000  0.354  0.636  0.006  0.004
    occupations:
  0.999  0.000  0.000  0.000  0.000
  0.000  0.895  0.000  0.055  0.054
  0.000  0.000  0.895  0.054 -0.054
  0.000  0.055  0.054  0.942  0.000
  0.000  0.054 -0.054  0.000  0.942
   spin  2
    eigenvalues: 
  0.458  0.460  0.730  0.788  0.788
    eigenvectors:
  0.000  0.000  1.000  0.000  0.000
  0.436  0.199  0.000  0.331  0.033
  0.199  0.437  0.000  0.033  0.331
  0.046  0.318  0.000  0.004  0.632
  0.318  0.046  0.000  0.631  0.004
    occupations:
  0.730  0.000  0.000  0.000  0.000
  0.000  0.579  0.000  0.036  0.154
  0.000  0.000  0.579  0.154 -0.036
  0.000  0.036  0.154  0.668  0.000
  0.000  0.154 -0.036  0.000  0.668
atomic mag. moment =     1.450029
atom    3   Tr[ns(na)] (up, down, total) =   1.91350  1.89929  3.81279
   spin  1
    eigenvalues: 
  0.357  0.357  0.387  0.407  0.407
    eigenvectors:
  0.000  0.000  1.000  0.000  0.000
  0.228  0.696  0.000  0.061  0.016
  0.696  0.228  0.000  0.016  0.060
  0.057  0.020  0.000  0.202  0.721
  0.020  0.057  0.000  0.721  0.202
    occupations:
  0.387  0.000  0.000  0.000  0.000
  0.000  0.361  0.000  0.000  0.013
  0.000  0.000  0.361  0.013  0.000
  0.000  0.000  0.013  0.403  0.000
  0.000  0.013  0.000  0.000  0.403
   spin  2
    eigenvalues: 
  0.353  0.353  0.387  0.404  0.404
    eigenvectors:
  0.000  0.000  1.000  0.000  0.000
  0.225  0.685  0.000  0.028  0.063
  0.685  0.225  0.000  0.062  0.028
  0.067  0.024  0.000  0.615  0.295
  0.024  0.067  0.000  0.295  0.615
    occupations:
  0.387  0.000  0.000  0.000  0.000
  0.000  0.357  0.000  0.000  0.015
  0.000  0.000  0.357  0.015  0.000
  0.000  0.000  0.015  0.399  0.000
  0.000  0.015  0.000  0.000  0.399
atomic mag. moment =     0.014219
atom    4   Tr[ns(na)] (up, down, total) =   1.91355  1.89926  3.81281
   spin  1
    eigenvalues: 
  0.357  0.357  0.386  0.407  0.407
    eigenvectors:
  0.000  0.000  1.000  0.000  0.000
  0.211  0.714  0.000  0.057  0.018
  0.713  0.211  0.000  0.018  0.058
  0.058  0.018  0.000  0.230  0.694
  0.018  0.057  0.000  0.695  0.229
    occupations:
  0.386  0.000  0.000  0.000  0.000
  0.000  0.360  0.000  0.000  0.013
  0.000  0.000  0.361  0.013  0.000
  0.000  0.000  0.013  0.403  0.000
  0.000  0.013  0.000  0.000  0.403
   spin  2
    eigenvalues: 
  0.353  0.353  0.387  0.404  0.404
    eigenvectors:
  0.000  0.000  1.000  0.000  0.000
  0.218  0.693  0.000  0.067  0.023
  0.692  0.218  0.000  0.022  0.068
  0.068  0.023  0.000  0.242  0.668
  0.023  0.067  0.000  0.669  0.242
    occupations:
  0.387  0.000  0.000  0.000  0.000
  0.000  0.357  0.000  0.000  0.015
  0.000  0.000  0.357  0.015  0.000
  0.000  0.000  0.015  0.399  0.000
  0.000  0.015  0.000  0.000  0.399
atomic mag. moment =     0.014296
atom    5   Tr[ns(na)] (up, down, total) =   2.74597  2.70807  5.45404
   spin  1
    eigenvalues: 
  0.847  0.948  0.952
    eigenvectors:
  0.336  0.000  0.663
  0.508  0.244  0.248
  0.155  0.756  0.088
    occupations:
  0.916 -0.043  0.024
 -0.043  0.897  0.028
  0.024  0.028  0.932
   spin  2
    eigenvalues: 
  0.866  0.921  0.921
    eigenvectors:
  0.333  0.003  0.664
  0.514  0.200  0.286
  0.153  0.797  0.049
    occupations:
  0.903 -0.023  0.013
 -0.023  0.893  0.016
  0.013  0.016  0.913
atomic mag. moment =     0.037900
atom    6   Tr[ns(na)] (up, down, total) =   2.74215  2.70276  5.44490
   spin  1
    eigenvalues: 
  0.843  0.947  0.951
    eigenvectors:
  0.337  0.000  0.663
  0.487  0.254  0.260
  0.176  0.746  0.077
    occupations:
  0.915  0.044  0.026
  0.044  0.898 -0.030
  0.026 -0.030  0.929
   spin  2
    eigenvalues: 
  0.864  0.919  0.920
    eigenvectors:
  0.333  0.051  0.616
  0.486  0.405  0.109
  0.180  0.544  0.275
    occupations:
  0.901  0.022  0.014
  0.022  0.892 -0.016
  0.014 -0.016  0.909
atomic mag. moment =     0.039390
atom    7   Tr[ns(na)] (up, down, total) =   2.74215  2.70276  5.44490
   spin  1
    eigenvalues: 
  0.843  0.947  0.951
    eigenvectors:
  0.337  0.000  0.663
  0.000  1.000  0.000
  0.663  0.000  0.337
    occupations:
  0.915  0.001 -0.051
  0.001  0.947  0.001
 -0.051  0.001  0.880
   spin  2
    eigenvalues: 
  0.864  0.919  0.920
    eigenvectors:
  0.333  0.116  0.551
  0.000  0.815  0.185
  0.667  0.069  0.264
    occupations:
  0.901  0.001 -0.026
  0.001  0.919  0.001
 -0.026  0.001  0.882
atomic mag. moment =     0.039390
atom    8   Tr[ns(na)] (up, down, total) =   2.74203  2.70319  5.44522
   spin  1
    eigenvalues: 
  0.843  0.947  0.951
    eigenvectors:
  0.337  0.000  0.663
  0.508  0.244  0.248
  0.155  0.756  0.089
    occupations:
  0.915 -0.045  0.025
 -0.045  0.896  0.029
  0.025  0.029  0.932
   spin  2
    eigenvalues: 
  0.864  0.920  0.920
    eigenvectors:
  0.333  0.019  0.647
  0.514  0.149  0.337
  0.153  0.832  0.015
    occupations:
  0.901 -0.023  0.013
 -0.023  0.891  0.016
  0.013  0.016  0.911
atomic mag. moment =     0.038847
atom    9   Tr[ns(na)] (up, down, total) =   2.74207  2.70274  5.44481
   spin  1
    eigenvalues: 
  0.843  0.947  0.951
    eigenvectors:
  0.337  0.000  0.663
  0.487  0.253  0.260
  0.176  0.746  0.077
    occupations:
  0.915  0.044  0.026
  0.044  0.898 -0.030
  0.026 -0.030  0.929
   spin  2
    eigenvalues: 
  0.864  0.919  0.920
    eigenvectors:
  0.334  0.081  0.585
  0.485  0.436  0.079
  0.181  0.483  0.337
    occupations:
  0.901  0.022  0.014
  0.022  0.892 -0.016
  0.014 -0.016  0.909
atomic mag. moment =     0.039332
atom   10   Tr[ns(na)] (up, down, total) =   2.74207  2.70273  5.44481
   spin  1
    eigenvalues: 
  0.843  0.947  0.951
    eigenvectors:
  0.337  0.000  0.663
  0.000  1.000  0.000
  0.663  0.000  0.337
    occupations:
  0.915  0.001 -0.051
  0.001  0.947  0.001
 -0.051  0.001  0.880
   spin  2
    eigenvalues: 
  0.864  0.919  0.920
    eigenvectors:
  0.334  0.084  0.582
  0.000  0.865  0.135
  0.666  0.051  0.283
    occupations:
  0.901  0.001 -0.026
  0.001  0.919  0.001
 -0.026  0.001  0.882
atomic mag. moment =     0.039336
N of occupied +U levels =  56.1369504
 --- exit write_ns ---
 --- in v_hubbard ---
Hubbard energy   -0.0601
 -------

     total cpu time spent up to now is      426.7 secs

     total energy              =    -538.41551230 Ry
     Harris-Foulkes estimate   =    -538.41551249 Ry
     estimated scf accuracy    <       0.00000297 Ry

     total magnetization       =     3.54 Bohr mag/cell
     absolute magnetization    =     3.70 Bohr mag/cell

     iteration #  5     ecut=    30.00 Ry     beta=0.20
     Davidson diagonalization with overlap
     ethr =  3.91E-09,  avg # of iterations =  1.9
 --- enter write_ns ---
 LDA+U parameters:
U( 1)     =  0.00000000
alpha( 1) =  0.00000000
U( 2)     =  0.00000000
alpha( 2) =  0.00000000
U( 3)     =  0.00000000
alpha( 3) = -0.15000000
U( 4)     =  0.00000000
alpha( 4) =  0.00000000
atom    1   Tr[ns(na)] (up, down, total) =   4.56570  3.37208  7.93777
   spin  1
    eigenvalues: 
  0.785  0.785  0.999  0.999  0.999
    eigenvectors:
  0.000  0.000  0.000  0.001  0.998
  0.597  0.049  0.339  0.014  0.000
  0.049  0.597  0.015  0.339  0.000
  0.273  0.081  0.455  0.191  0.000
  0.081  0.273  0.191  0.454  0.001
    occupations:
  0.999  0.000  0.000  0.000  0.000
  0.000  0.860  0.000 -0.073  0.072
  0.000  0.000  0.861  0.072  0.073
  0.000 -0.073  0.072  0.923  0.000
  0.000  0.072  0.073  0.000  0.923
   spin  2
    eigenvalues: 
  0.473  0.475  0.773  0.826  0.826
    eigenvectors:
  0.000  0.000  1.000  0.000  0.000
  0.514  0.125  0.000  0.211  0.150
  0.125  0.514  0.000  0.150  0.211
  0.142  0.220  0.000  0.405  0.234
  0.219  0.142  0.000  0.234  0.405
    occupations:
  0.773  0.000  0.000  0.000  0.000
  0.000  0.601  0.000 -0.037  0.165
  0.000  0.000  0.601  0.165  0.037
  0.000 -0.037  0.165  0.699  0.000
  0.000  0.165  0.037  0.000  0.699
atomic mag. moment =     1.193618
atom    2   Tr[ns(na)] (up, down, total) =   4.67296  3.22259  7.89555
   spin  1
    eigenvalues: 
  0.838  0.838  0.999  0.999  0.999
    eigenvectors:
  0.000  0.000  0.005  0.004  0.991
  0.337  0.309  0.149  0.205  0.000
  0.309  0.337  0.203  0.147  0.003
  0.354  0.000  0.004  0.639  0.003
  0.000  0.354  0.639  0.004  0.003
    occupations:
  0.999  0.000  0.000  0.000  0.000
  0.000  0.895  0.000  0.055  0.054
  0.000  0.000  0.895  0.054 -0.054
  0.000  0.055  0.054  0.942  0.000
  0.000  0.054 -0.054  0.000  0.942
   spin  2
    eigenvalues: 
  0.458  0.460  0.729  0.787  0.788
    eigenvectors:
  0.000  0.000  1.000  0.000  0.000
  0.436  0.199  0.000  0.339  0.026
  0.199  0.437  0.000  0.026  0.339
  0.046  0.318  0.000  0.001  0.634
  0.318  0.046  0.000  0.634  0.001
    occupations:
  0.729  0.000  0.000  0.000  0.000
  0.000  0.579  0.000  0.036  0.154
  0.000  0.000  0.579  0.154 -0.036
  0.000  0.036  0.154  0.668  0.000
  0.000  0.154 -0.036  0.000  0.668
atomic mag. moment =     1.450367
atom    3   Tr[ns(na)] (up, down, total) =   1.91358  1.89935  3.81293
   spin  1
    eigenvalues: 
  0.357  0.357  0.387  0.407  0.407
    eigenvectors:
  0.000  0.000  1.000  0.000  0.000
  0.228  0.696  0.000  0.061  0.016
  0.696  0.228  0.000  0.016  0.061
  0.057  0.020  0.000  0.196  0.727
  0.020  0.057  0.000  0.727  0.196
    occupations:
  0.387  0.000  0.000  0.000  0.000
  0.000  0.361  0.000  0.000  0.013
  0.000  0.000  0.361  0.013  0.000
  0.000  0.000  0.013  0.403  0.000
  0.000  0.013  0.000  0.000  0.403
   spin  2
    eigenvalues: 
  0.353  0.353  0.387  0.404  0.404
    eigenvectors:
  0.000  0.000  1.000  0.000  0.000
  0.225  0.684  0.000  0.025  0.065
  0.684  0.225  0.000  0.065  0.025
  0.067  0.024  0.000  0.641  0.269
  0.024  0.067  0.000  0.269  0.641
    occupations:
  0.387  0.000  0.000  0.000  0.000
  0.000  0.357  0.000  0.000  0.015
  0.000  0.000  0.357  0.015  0.000
  0.000  0.000  0.015  0.399  0.000
  0.000  0.015  0.000  0.000  0.399
atomic mag. moment =     0.014228
atom    4   Tr[ns(na)] (up, down, total) =   1.91363  1.89932  3.81295
   spin  1
    eigenvalues: 
  0.357  0.357  0.386  0.407  0.407
    eigenvectors:
  0.000  0.000  1.000  0.000  0.000
  0.214  0.710  0.000  0.057  0.018
  0.709  0.215  0.000  0.018  0.059
  0.058  0.018  0.000  0.227  0.697
  0.019  0.057  0.000  0.698  0.226
    occupations:
  0.386  0.000  0.000  0.000  0.000
  0.000  0.361  0.000  0.000  0.013
  0.000  0.000  0.361  0.013  0.000
  0.000  0.000  0.013  0.403  0.000
  0.000  0.013  0.000  0.000  0.403
   spin  2
    eigenvalues: 
  0.353  0.353  0.387  0.404  0.404
    eigenvectors:
  0.000  0.000  1.000  0.000  0.000
  0.218  0.693  0.000  0.067  0.023
  0.692  0.218  0.000  0.022  0.068
  0.068  0.023  0.000  0.240  0.670
  0.023  0.067  0.000  0.670  0.240
    occupations:
  0.387  0.000  0.000  0.000  0.000
  0.000  0.357  0.000  0.000  0.015
  0.000  0.000  0.357  0.015  0.000
  0.000  0.000  0.015  0.399  0.000
  0.000  0.015  0.000  0.000  0.399
atomic mag. moment =     0.014306
atom    5   Tr[ns(na)] (up, down, total) =   2.74589  2.70800  5.45389
   spin  1
    eigenvalues: 
  0.847  0.948  0.951
    eigenvectors:
  0.336  0.000  0.663
  0.508  0.244  0.248
  0.155  0.756  0.088
    occupations:
  0.916 -0.043  0.024
 -0.043  0.897  0.028
  0.024  0.028  0.932
   spin  2
    eigenvalues: 
  0.866  0.921  0.921
    eigenvectors:
  0.333  0.003  0.664
  0.514  0.200  0.286
  0.153  0.797  0.049
    occupations:
  0.903 -0.023  0.013
 -0.023  0.893  0.016
  0.013  0.016  0.913
atomic mag. moment =     0.037895
atom    6   Tr[ns(na)] (up, down, total) =   2.74209  2.70269  5.44479
   spin  1
    eigenvalues: 
  0.843  0.947  0.951
    eigenvectors:
  0.337  0.000  0.663
  0.487  0.253  0.260
  0.176  0.746  0.077
    occupations:
  0.915  0.044  0.026
  0.044  0.898 -0.030
  0.026 -0.030  0.929
   spin  2
    eigenvalues: 
  0.864  0.919  0.919
    eigenvectors:
  0.333  0.043  0.624
  0.486  0.395  0.118
  0.181  0.562  0.258
    occupations:
  0.901  0.022  0.014
  0.022  0.892 -0.016
  0.014 -0.016  0.909
atomic mag. moment =     0.039401
atom    7   Tr[ns(na)] (up, down, total) =   2.74209  2.70269  5.44479
   spin  1
    eigenvalues: 
  0.843  0.947  0.951
    eigenvectors:
  0.337  0.000  0.663
  0.000  1.000  0.000
  0.663  0.000  0.337
    occupations:
  0.915  0.001 -0.051
  0.001  0.947  0.001
 -0.051  0.001  0.880
   spin  2
    eigenvalues: 
  0.864  0.919  0.920
    eigenvectors:
  0.333  0.133  0.534
  0.000  0.789  0.210
  0.667  0.078  0.255
    occupations:
  0.901  0.001 -0.026
  0.001  0.919  0.001
 -0.026  0.001  0.882
atomic mag. moment =     0.039400
atom    8   Tr[ns(na)] (up, down, total) =   2.74194  2.70309  5.44503
   spin  1
    eigenvalues: 
  0.843  0.947  0.951
    eigenvectors:
  0.337  0.000  0.663
  0.508  0.244  0.248
  0.155  0.756  0.089
    occupations:
  0.915 -0.045  0.025
 -0.045  0.895  0.029
  0.025  0.029  0.932
   spin  2
    eigenvalues: 
  0.864  0.920  0.920
    eigenvectors:
  0.333  0.020  0.647
  0.514  0.147  0.339
  0.153  0.833  0.015
    occupations:
  0.901 -0.023  0.013
 -0.023  0.891  0.016
  0.013  0.016  0.911
atomic mag. moment =     0.038847
atom    9   Tr[ns(na)] (up, down, total) =   2.74202  2.70268  5.44470
   spin  1
    eigenvalues: 
  0.843  0.947  0.951
    eigenvectors:
  0.337  0.000  0.663
  0.487  0.253  0.260
  0.176  0.746  0.077
    occupations:
  0.915  0.044  0.026
  0.044  0.898 -0.030
  0.026 -0.030  0.929
   spin  2
    eigenvalues: 
  0.864  0.919  0.920
    eigenvectors:
  0.334  0.075  0.591
  0.485  0.431  0.084
  0.181  0.495  0.324
    occupations:
  0.901  0.022  0.014
  0.022  0.892 -0.016
  0.014 -0.016  0.909
atomic mag. moment =     0.039341
atom   10   Tr[ns(na)] (up, down, total) =   2.74202  2.70268  5.44470
   spin  1
    eigenvalues: 
  0.843  0.947  0.951
    eigenvectors:
  0.337  0.000  0.663
  0.000  1.000  0.000
  0.663  0.000  0.337
    occupations:
  0.915  0.001 -0.051
  0.001  0.947  0.001
 -0.051  0.001  0.880
   spin  2
    eigenvalues: 
  0.864  0.919  0.920
    eigenvectors:
  0.334  0.100  0.567
  0.000  0.840  0.159
  0.666  0.060  0.274
    occupations:
  0.901  0.001 -0.026
  0.001  0.919  0.001
 -0.026  0.001  0.882
atomic mag. moment =     0.039344
N of occupied +U levels =  56.1371021
 --- exit write_ns ---
 --- in v_hubbard ---
Hubbard energy   -0.0601
 -------

     total cpu time spent up to now is      490.3 secs

     total energy              =    -538.41551230 Ry
     Harris-Foulkes estimate   =    -538.41551244 Ry
     estimated scf accuracy    <       0.00000106 Ry

     total magnetization       =     3.54 Bohr mag/cell
     absolute magnetization    =     3.70 Bohr mag/cell

     iteration #  6     ecut=    30.00 Ry     beta=0.20
     Davidson diagonalization with overlap
     ethr =  1.39E-09,  avg # of iterations =  1.8
 --- enter write_ns ---
 LDA+U parameters:
U( 1)     =  0.00000000
alpha( 1) =  0.00000000
U( 2)     =  0.00000000
alpha( 2) =  0.00000000
U( 3)     =  0.00000000
alpha( 3) = -0.15000000
U( 4)     =  0.00000000
alpha( 4) =  0.00000000
atom    1   Tr[ns(na)] (up, down, total) =   4.56576  3.37206  7.93782
   spin  1
    eigenvalues: 
  0.785  0.785  0.999  0.999  0.999
    eigenvectors:
  0.000  0.000  0.000  0.001  0.998
  0.588  0.058  0.339  0.014  0.000
  0.058  0.588  0.014  0.339  0.000
  0.280  0.074  0.453  0.193  0.000
  0.074  0.280  0.193  0.453  0.001
    occupations:
  0.999  0.000  0.000  0.000  0.000
  0.000  0.860  0.000 -0.073  0.072
  0.000  0.000  0.861  0.072  0.073
  0.000 -0.073  0.072  0.923  0.000
  0.000  0.072  0.073  0.000  0.923
   spin  2
    eigenvalues: 
  0.473  0.475  0.773  0.826  0.826
    eigenvectors:
  0.000  0.000  1.000  0.000  0.000
  0.514  0.125  0.000  0.203  0.157
  0.125  0.514  0.000  0.157  0.204
  0.142  0.219  0.000  0.417  0.222
  0.219  0.142  0.000  0.222  0.417
    occupations:
  0.773  0.000  0.000  0.000  0.000
  0.000  0.601  0.000 -0.037  0.165
  0.000  0.000  0.601  0.165  0.037
  0.000 -0.037  0.165  0.699  0.000
  0.000  0.165  0.037  0.000  0.699
atomic mag. moment =     1.193693
atom    2   Tr[ns(na)] (up, down, total) =   4.67304  3.22223  7.89527
   spin  1
    eigenvalues: 
  0.838  0.838  0.999  0.999  0.999
    eigenvectors:
  0.000  0.000  0.005  0.004  0.991
  0.332  0.314  0.153  0.201  0.000
  0.314  0.332  0.199  0.151  0.003
  0.354  0.000  0.003  0.640  0.003
  0.000  0.354  0.640  0.003  0.003
    occupations:
  0.999  0.000  0.000  0.000  0.000
  0.000  0.895  0.000  0.055  0.054
  0.000  0.000  0.895  0.054 -0.054
  0.000  0.055  0.054  0.942  0.000
  0.000  0.054 -0.054  0.000  0.942
   spin  2
    eigenvalues: 
  0.458  0.460  0.729  0.787  0.788
    eigenvectors:
  0.000  0.000  1.000  0.000  0.000
  0.437  0.199  0.000  0.342  0.023
  0.199  0.437  0.000  0.023  0.341
  0.046  0.318  0.000  0.000  0.635
  0.318  0.046  0.000  0.635  0.000
    occupations:
  0.729  0.000  0.000  0.000  0.000
  0.000  0.579  0.000  0.036  0.154
  0.000  0.000  0.579  0.154 -0.036
  0.000  0.036  0.154  0.668  0.000
  0.000  0.154 -0.036  0.000  0.667
atomic mag. moment =     1.450809
atom    3   Tr[ns(na)] (up, down, total) =   1.91370  1.89947  3.81317
   spin  1
    eigenvalues: 
  0.357  0.357  0.387  0.407  0.407
    eigenvectors:
  0.000  0.000  1.000  0.000  0.000
  0.228  0.695  0.000  0.061  0.015
  0.696  0.228  0.000  0.016  0.061
  0.057  0.020  0.000  0.196  0.728
  0.020  0.057  0.000  0.728  0.196
    occupations:
  0.387  0.000  0.000  0.000  0.000
  0.000  0.361  0.000  0.000  0.013
  0.000  0.000  0.361  0.013  0.000
  0.000  0.000  0.013  0.403  0.000
  0.000  0.013  0.000  0.000  0.403
   spin  2
    eigenvalues: 
  0.353  0.353  0.387  0.404  0.404
    eigenvectors:
  0.000  0.000  1.000  0.000  0.000
  0.226  0.684  0.000  0.032  0.058
  0.684  0.226  0.000  0.058  0.032
  0.067  0.024  0.000  0.569  0.340
  0.024  0.067  0.000  0.340  0.569
    occupations:
  0.387  0.000  0.000  0.000  0.000
  0.000  0.357  0.000  0.000  0.015
  0.000  0.000  0.357  0.015  0.000
  0.000  0.000  0.015  0.399  0.000
  0.000  0.015  0.000  0.000  0.399
atomic mag. moment =     0.014225
atom    4   Tr[ns(na)] (up, down, total) =   1.91375  1.89944  3.81319
   spin  1
    eigenvalues: 
  0.357  0.357  0.386  0.407  0.407
    eigenvectors:
  0.000  0.000  1.000  0.000  0.000
  0.215  0.709  0.000  0.057  0.018
  0.708  0.216  0.000  0.018  0.058
  0.058  0.018  0.000  0.229  0.694
  0.019  0.057  0.000  0.696  0.229
    occupations:
  0.386  0.000  0.000  0.000  0.000
  0.000  0.361  0.000  0.000  0.013
  0.000  0.000  0.361  0.013  0.000
  0.000  0.000  0.013  0.403  0.000
  0.000  0.013  0.000  0.000  0.403
   spin  2
    eigenvalues: 
  0.353  0.353  0.387  0.404  0.404
    eigenvectors:
  0.000  0.000  1.000  0.000  0.000
  0.217  0.693  0.000  0.067  0.023
  0.692  0.218  0.000  0.022  0.068
  0.068  0.023  0.000  0.242  0.668
  0.023  0.067  0.000  0.669  0.241
    occupations:
  0.387  0.000  0.000  0.000  0.000
  0.000  0.357  0.000  0.000  0.015
  0.000  0.000  0.357  0.015  0.000
  0.000  0.000  0.015  0.399  0.000
  0.000  0.015  0.000  0.000  0.399
atomic mag. moment =     0.014306
atom    5   Tr[ns(na)] (up, down, total) =   2.74588  2.70803  5.45391
   spin  1
    eigenvalues: 
  0.847  0.948  0.951
    eigenvectors:
  0.337  0.000  0.663
  0.508  0.244  0.248
  0.155  0.756  0.088
    occupations:
  0.916 -0.043  0.024
 -0.043  0.897  0.028
  0.024  0.028  0.932
   spin  2
    eigenvalues: 
  0.866  0.921  0.921
    eigenvectors:
  0.333  0.002  0.665
  0.514  0.201  0.286
  0.153  0.797  0.050
    occupations:
  0.903 -0.023  0.013
 -0.023  0.893  0.016
  0.013  0.016  0.913
atomic mag. moment =     0.037857
atom    6   Tr[ns(na)] (up, down, total) =   2.74208  2.70267  5.44476
   spin  1
    eigenvalues: 
  0.843  0.947  0.951
    eigenvectors:
  0.337  0.000  0.663
  0.487  0.253  0.260
  0.176  0.746  0.077
    occupations:
  0.915  0.044  0.026
  0.044  0.898 -0.030
  0.026 -0.030  0.929
   spin  2
    eigenvalues: 
  0.864  0.919  0.919
    eigenvectors:
  0.333  0.024  0.643
  0.486  0.365  0.148
  0.181  0.611  0.209
    occupations:
  0.901  0.022  0.014
  0.022  0.892 -0.016
  0.014 -0.016  0.909
atomic mag. moment =     0.039413
atom    7   Tr[ns(na)] (up, down, total) =   2.74208  2.70267  5.44476
   spin  1
    eigenvalues: 
  0.843  0.947  0.951
    eigenvectors:
  0.337  0.000  0.663
  0.000  1.000  0.000
  0.663  0.000  0.337
    occupations:
  0.915  0.001 -0.051
  0.001  0.947  0.001
 -0.051  0.001  0.880
   spin  2
    eigenvalues: 
  0.864  0.919  0.919
    eigenvectors:
  0.333  0.174  0.493
  0.000  0.726  0.274
  0.667  0.100  0.234
    occupations:
  0.901  0.001 -0.026
  0.001  0.919  0.001
 -0.026  0.001  0.882
atomic mag. moment =     0.039412
atom    8   Tr[ns(na)] (up, down, total) =   2.74190  2.70309  5.44499
   spin  1
    eigenvalues: 
  0.843  0.947  0.951
    eigenvectors:
  0.337  0.000  0.663
  0.508  0.244  0.248
  0.155  0.756  0.089
    occupations:
  0.915 -0.045  0.025
 -0.045  0.895  0.029
  0.025  0.029  0.932
   spin  2
    eigenvalues: 
  0.864  0.920  0.920
    eigenvectors:
  0.333  0.020  0.647
  0.514  0.148  0.339
  0.153  0.833  0.015
    occupations:
  0.901 -0.023  0.013
 -0.023  0.891  0.016
  0.013  0.016  0.911
atomic mag. moment =     0.038809
atom    9   Tr[ns(na)] (up, down, total) =   2.74201  2.70266  5.44467
   spin  1
    eigenvalues: 
  0.843  0.947  0.951
    eigenvectors:
  0.337  0.000  0.663
  0.487  0.253  0.260
  0.176  0.747  0.077
    occupations:
  0.915  0.044  0.026
  0.044  0.898 -0.030
  0.026 -0.030  0.929
   spin  2
    eigenvalues: 
  0.864  0.919  0.919
    eigenvectors:
  0.334  0.060  0.606
  0.485  0.416  0.099
  0.181  0.524  0.295
    occupations:
  0.901  0.022  0.014
  0.022  0.892 -0.016
  0.014 -0.016  0.909
atomic mag. moment =     0.039350
atom   10   Tr[ns(na)] (up, down, total) =   2.74201  2.70266  5.44467
   spin  1
    eigenvalues: 
  0.843  0.947  0.951
    eigenvectors:
  0.337  0.000  0.663
  0.000  1.000  0.000
  0.663  0.000  0.337
    occupations:
  0.915  0.001 -0.051
  0.001  0.947  0.001
 -0.051  0.001  0.880
   spin  2
    eigenvalues: 
  0.864  0.919  0.919
    eigenvectors:
  0.334  0.141  0.525
  0.000  0.777  0.223
  0.666  0.082  0.252
    occupations:
  0.901  0.001 -0.026
  0.001  0.919  0.001
 -0.026  0.001  0.882
atomic mag. moment =     0.039353
N of occupied +U levels =  56.1371925
 --- exit write_ns ---
 --- in v_hubbard ---
Hubbard energy   -0.0601
 -------

     total cpu time spent up to now is      550.8 secs

     total energy              =    -538.41551242 Ry
     Harris-Foulkes estimate   =    -538.41551239 Ry
     estimated scf accuracy    <       0.00000027 Ry

     total magnetization       =     3.55 Bohr mag/cell
     absolute magnetization    =     3.70 Bohr mag/cell

     iteration #  7     ecut=    30.00 Ry     beta=0.20
     Davidson diagonalization with overlap
     ethr =  3.58E-10,  avg # of iterations =  1.4
 --- enter write_ns ---
 LDA+U parameters:
U( 1)     =  0.00000000
alpha( 1) =  0.00000000
U( 2)     =  0.00000000
alpha( 2) =  0.00000000
U( 3)     =  0.00000000
alpha( 3) = -0.15000000
U( 4)     =  0.00000000
alpha( 4) =  0.00000000
atom    1   Tr[ns(na)] (up, down, total) =   4.56577  3.37197  7.93774
   spin  1
    eigenvalues: 
  0.785  0.785  0.999  0.999  0.999
    eigenvectors:
  0.000  0.000  0.000  0.001  0.998
  0.579  0.067  0.339  0.014  0.000
  0.067  0.579  0.014  0.339  0.000
  0.287  0.067  0.454  0.192  0.000
  0.067  0.287  0.192  0.453  0.001
    occupations:
  0.999  0.000  0.000  0.000  0.000
  0.000  0.860  0.000 -0.073  0.072
  0.000  0.000  0.861  0.072  0.073
  0.000 -0.073  0.072  0.923  0.000
  0.000  0.072  0.073  0.000  0.923
   spin  2
    eigenvalues: 
  0.473  0.475  0.773  0.826  0.826
[...]
     0.0313   0.0313   0.0313   0.0312   0.0312   0.0312   0.0312   0.0312
     0.0312   0.0293   0.0274   0.0258   0.0118   0.0072   0.0004   0.0000
     0.0000   0.0000   0.0000   0.0000   0.0000   0.0000

          k = 0.4942-0.5706 0.1027 (  2198 PWs)   bands (ev):

   -19.6914 -19.6508  -6.8505  -6.5448  -6.0218  -5.7858  -5.3813  -5.2306
    -3.2604  -3.2099  -2.8191  -2.6413  -2.4616  -2.3172   5.9891   6.3919
     7.0074   7.2917   7.3972   7.4303   7.7083   7.9816   8.0897   8.2807
     8.5263   9.0677   9.3237   9.5048   9.8335   9.9628  10.1179  10.5037
    11.5936  12.0116  12.0626  12.1751  12.3139  12.3268  13.1311  13.4896
    14.1120  14.9794  16.9602  17.1748  17.3675  18.0686

     occupation numbers 
     0.0313   0.0313   0.0313   0.0313   0.0313   0.0313   0.0313   0.0313
     0.0313   0.0313   0.0313   0.0313   0.0313   0.0313   0.0313   0.0313
     0.0313   0.0313   0.0313   0.0313   0.0313   0.0313   0.0313   0.0313
     0.0313   0.0313   0.0313   0.0313   0.0313   0.0312   0.0312   0.0312
     0.0310   0.0259   0.0243   0.0202   0.0144   0.0138   0.0001   0.0000
     0.0000   0.0000   0.0000   0.0000   0.0000   0.0000

          k =-0.7412 0.1427-0.1027 (  2198 PWs)   bands (ev):

   -19.6914 -19.6508  -6.8500  -6.5456  -6.0209  -5.7870  -5.3802  -5.2311
    -3.2597  -3.2100  -2.8190  -2.6423  -2.4609  -2.3176   5.9915   6.3884
     7.0114   7.2846   7.3779   7.4457   7.7196   7.9808   8.1149   8.2506
     8.5294   9.0607   9.3281   9.5075   9.8364   9.9599  10.1178  10.5029
    11.5963  11.9834  12.0876  12.1745  12.3122  12.3285  13.1339  13.4900
    14.1121  14.9781  16.9580  17.1773  17.3670  18.0686

     occupation numbers 
     0.0313   0.0313   0.0313   0.0313   0.0313   0.0313   0.0313   0.0313
     0.0313   0.0313   0.0313   0.0313   0.0313   0.0313   0.0313   0.0313
     0.0313   0.0313   0.0313   0.0313   0.0313   0.0313   0.0313   0.0313
     0.0313   0.0313   0.0313   0.0313   0.0313   0.0312   0.0312   0.0312
     0.0310   0.0266   0.0235   0.0203   0.0144   0.0137   0.0001   0.0000
     0.0000   0.0000   0.0000   0.0000   0.0000   0.0000

          k = 0.2471-0.7133-0.1027 (  2198 PWs)   bands (ev):

   -19.6914 -19.6508  -6.8496  -6.5463  -6.0196  -5.7881  -5.3813  -5.2297
    -3.2599  -3.2102  -2.8184  -2.6436  -2.4608  -2.3171   5.9926   6.3885
     7.0138   7.2832   7.3718   7.4507   7.7202   7.9871   8.1091   8.2467
     8.5313   9.0619   9.3262   9.5036   9.8427   9.9572  10.1194  10.5023
    11.5963  11.9827  12.0879  12.1772  12.3103  12.3277  13.1340  13.4900
    14.1120  14.9780  16.9562  17.1802  17.3672  18.0693

     occupation numbers 
     0.0313   0.0313   0.0313   0.0313   0.0313   0.0313   0.0313   0.0313
     0.0313   0.0313   0.0313   0.0313   0.0313   0.0313   0.0313   0.0313
     0.0313   0.0313   0.0313   0.0313   0.0313   0.0313   0.0313   0.0313
     0.0313   0.0313   0.0313   0.0313   0.0313   0.0312   0.0312   0.0312
     0.0310   0.0266   0.0235   0.0202   0.0145   0.0138   0.0001   0.0000
     0.0000   0.0000   0.0000   0.0000   0.0000   0.0000

          k =-0.7412-0.1427 0.1027 (  2198 PWs)   bands (ev):

   -19.6914 -19.6508  -6.8501  -6.5453  -6.0206  -5.7869  -5.3823  -5.2291
    -3.2606  -3.2101  -2.8185  -2.6426  -2.4616  -2.3167   5.9902   6.3920
     7.0097   7.2895   7.3915   7.4358   7.7090   7.9872   8.0846   8.2767
     8.5280   9.0691   9.3218   9.5010   9.8394   9.9604  10.1195  10.5030
    11.5935  12.0113  12.0624  12.1774  12.3127  12.3258  13.1313  13.4897
    14.1119  14.9794  16.9584  17.1777  17.3677  18.0693

     occupation numbers 
     0.0313   0.0313   0.0313   0.0313   0.0313   0.0313   0.0313   0.0313
     0.0313   0.0313   0.0313   0.0313   0.0313   0.0313   0.0313   0.0313
     0.0313   0.0313   0.0313   0.0313   0.0313   0.0313   0.0313   0.0313
     0.0313   0.0313   0.0313   0.0313   0.0313   0.0312   0.0312   0.0312
     0.0310   0.0259   0.0243   0.0201   0.0144   0.0138   0.0001   0.0000
     0.0000   0.0000   0.0000   0.0000   0.0000   0.0000

          k = 0.2471 0.7133 0.1027 (  2198 PWs)   bands (ev):

   -19.6902 -19.6501  -6.8637  -6.5424  -6.0347  -5.7609  -5.3664  -5.2469
    -3.2618  -3.2105  -2.8167  -2.6454  -2.4628  -2.3212   6.0084   6.3740
     7.0307   7.3011   7.4013   7.4479   7.6942   7.9774   8.0856   8.2844
     8.5145   9.0743   9.3040   9.4937   9.8414   9.9563  10.1157  10.5133
    11.5950  12.0091  12.0622  12.1771  12.3145  12.3222  13.1298  13.4932
    14.1095  14.9793  16.9604  17.1775  17.3685  18.0699

     occupation numbers 
     0.0313   0.0313   0.0313   0.0313   0.0313   0.0313   0.0313   0.0313
     0.0313   0.0313   0.0313   0.0313   0.0313   0.0313   0.0313   0.0313
     0.0313   0.0313   0.0313   0.0313   0.0313   0.0313   0.0313   0.0313
     0.0313   0.0313   0.0313   0.0313   0.0313   0.0312   0.0312   0.0312
     0.0310   0.0259   0.0244   0.0202   0.0143   0.0140   0.0001   0.0000
     0.0000   0.0000   0.0000   0.0000   0.0000   0.0000

          k = 0.2471-0.4280 0.0000 (  2203 PWs)   bands (ev):

   -19.7004 -19.6430  -6.7474  -6.5305  -5.9533  -5.8602  -5.2973  -5.2239
    -3.4666  -3.2547  -2.7392  -2.6489  -2.5065  -2.4874   5.9576   6.3978
     7.2393   7.3791   7.4172   7.5036   7.5545   7.8871   8.0059   8.3608
     8.6174   9.0973   9.5571   9.6665   9.9199   9.9399  10.1991  10.5170
    11.8578  11.8712  11.9400  12.1311  12.1514  12.4279  13.0994  13.9658
    14.0863  14.7858  16.4993  17.0479  17.4650  17.9717

     occupation numbers 
     0.0313   0.0313   0.0313   0.0313   0.0313   0.0313   0.0313   0.0313
     0.0313   0.0313   0.0313   0.0313   0.0313   0.0313   0.0313   0.0313
     0.0313   0.0313   0.0313   0.0313   0.0313   0.0313   0.0313   0.0313
     0.0313   0.0313   0.0313   0.0313   0.0312   0.0312   0.0312   0.0312
     0.0291   0.0289   0.0276   0.0219   0.0212   0.0097   0.0001   0.0000
     0.0000   0.0000   0.0000   0.0000   0.0000   0.0000

          k =-0.4942 0.0000 0.0000 (  2203 PWs)   bands (ev):

   -19.7004 -19.6430  -6.7475  -6.5304  -5.9534  -5.8602  -5.2973  -5.2239
    -3.4666  -3.2547  -2.7392  -2.6489  -2.5067  -2.4872   5.9576   6.3978
     7.2395   7.3748   7.4250   7.5006   7.5534   7.8871   8.0062   8.3612
     8.6173   9.0972   9.5570   9.6665   9.9213   9.9386  10.1991  10.5170
    11.8567  11.8722  11.9399  12.1310  12.1518  12.4278  13.0994  13.9657
    14.0863  14.7858  16.4993  17.0479  17.4650  17.9718

     occupation numbers 
     0.0313   0.0313   0.0313   0.0313   0.0313   0.0313   0.0313   0.0313
     0.0313   0.0313   0.0313   0.0313   0.0313   0.0313   0.0313   0.0313
     0.0313   0.0313   0.0313   0.0313   0.0313   0.0313   0.0313   0.0313
     0.0313   0.0313   0.0313   0.0313   0.0312   0.0312   0.0312   0.0312
     0.0291   0.0289   0.0276   0.0220   0.0212   0.0097   0.0001   0.0000
     0.0000   0.0000   0.0000   0.0000   0.0000   0.0000

          k = 0.4942 0.2853 0.4107 (  2202 PWs)   bands (ev):

   -19.6989 -19.6418  -7.0603  -6.3576  -6.1363  -5.8463  -5.4157  -5.1295
    -3.1506  -3.0883  -2.9892  -2.5845  -2.4090  -2.1537   5.9112   6.5065
     6.5831   7.1900   7.2320   7.2993   8.0560   8.1360   8.2420   8.3610
     8.6881   8.8399   8.8598   9.5391   9.7655  10.1420  10.1639  10.5826
    11.2006  11.8790  12.0026  12.2252  12.3649  12.4391  12.8599  13.2501
    14.0387  15.4066  17.0872  17.3372  17.5658  17.6323

     occupation numbers 
     0.0156   0.0156   0.0156   0.0156   0.0156   0.0156   0.0156   0.0156
     0.0156   0.0156   0.0156   0.0156   0.0156   0.0156   0.0156   0.0156
     0.0156   0.0156   0.0156   0.0156   0.0156   0.0156   0.0156   0.0156
     0.0156   0.0156   0.0156   0.0156   0.0156   0.0156   0.0156   0.0156
     0.0156   0.0144   0.0131   0.0091   0.0061   0.0046   0.0004   0.0000
     0.0000   0.0000   0.0000   0.0000   0.0000   0.0000

          k = 0.0000 0.5706-0.4107 (  2202 PWs)   bands (ev):

   -19.6989 -19.6418  -7.0603  -6.3575  -6.1364  -5.8463  -5.4156  -5.1296
    -3.1506  -3.0883  -2.9892  -2.5845  -2.4090  -2.1537   5.9112   6.5065
     6.5831   7.1899   7.2321   7.2992   8.0569   8.1350   8.2419   8.3611
     8.6881   8.8401   8.8597   9.5390   9.7655  10.1420  10.1639  10.5826
    11.2005  11.8790  12.0030  12.2241  12.3657  12.4390  12.8598  13.2501
    14.0387  15.4066  17.0872  17.3372  17.5658  17.6323

     occupation numbers 
     0.0156   0.0156   0.0156   0.0156   0.0156   0.0156   0.0156   0.0156
     0.0156   0.0156   0.0156   0.0156   0.0156   0.0156   0.0156   0.0156
     0.0156   0.0156   0.0156   0.0156   0.0156   0.0156   0.0156   0.0156
     0.0156   0.0156   0.0156   0.0156   0.0156   0.0156   0.0156   0.0156
     0.0156   0.0144   0.0131   0.0091   0.0061   0.0046   0.0004   0.0000
     0.0000   0.0000   0.0000   0.0000   0.0000   0.0000

          k = 0.7412-0.4280 0.0000 (  2204 PWs)   bands (ev):

   -19.7004 -19.6426  -6.6249  -6.5070  -6.0342  -5.7114  -5.5424  -5.4236
    -3.1151  -3.0354  -2.9955  -2.6113  -2.5933  -2.5153   5.9895   6.5970
     7.2420   7.4137   7.4272   7.5096   7.5584   7.8514   8.1892   8.3538
     8.6763   8.9503   9.6056   9.6501   9.7506   9.8163  10.0201  10.3677
    11.8532  11.8786  12.0042  12.1468  12.1973  12.3880  13.0946  13.8912
    14.0092  14.8101  16.7593  16.7713  17.6381  17.8538

     occupation numbers 
     0.0313   0.0313   0.0313   0.0313   0.0313   0.0313   0.0313   0.0313
     0.0313   0.0313   0.0313   0.0313   0.0313   0.0313   0.0313   0.0313
     0.0313   0.0313   0.0313   0.0313   0.0313   0.0313   0.0313   0.0313
     0.0313   0.0313   0.0313   0.0313   0.0313   0.0313   0.0312   0.0312
     0.0291   0.0288   0.0261   0.0214   0.0193   0.0112   0.0001   0.0000
     0.0000   0.0000   0.0000   0.0000   0.0000   0.0000

          k = 0.0000-0.8559 0.0000 (  2204 PWs)   bands (ev):

   -19.7002 -19.6428  -6.6317  -6.4943  -6.0412  -5.7167  -5.5519  -5.4069
    -3.1131  -3.0355  -2.9956  -2.6137  -2.5980  -2.5115   6.0057   6.5839
     7.2522   7.4051   7.4221   7.5206   7.5561   7.8411   8.1878   8.3388
     8.6612   8.9726   9.6272   9.6518   9.7481   9.8176  10.0208  10.3619
    11.8519  11.8757  12.0024  12.1462  12.1947  12.3913  13.0923  13.8914
    14.0101  14.8118  16.7615  16.7698  17.6362  17.8532

     occupation numbers 
     0.0313   0.0313   0.0313   0.0313   0.0313   0.0313   0.0313   0.0313
     0.0313   0.0313   0.0313   0.0313   0.0313   0.0313   0.0313   0.0313
     0.0313   0.0313   0.0313   0.0313   0.0313   0.0313   0.0313   0.0313
     0.0313   0.0313   0.0313   0.0313   0.0313   0.0313   0.0312   0.0312
     0.0292   0.0288   0.0261   0.0214   0.0194   0.0111   0.0001   0.0000
     0.0000   0.0000   0.0000   0.0000   0.0000   0.0000

          k = 0.4942-0.2853-0.1027 (  2211 PWs)   bands (ev):

   -19.6902 -19.6501  -6.8792  -6.4399  -6.2219  -5.5689  -5.4857  -5.2182
    -3.2739  -3.1219  -2.9717  -2.5436  -2.4943  -2.3131   6.0359   6.3430
     7.0007   7.2971   7.3258   7.4410   7.7069   8.0178   8.1830   8.2152
     8.5654   9.1973   9.3132   9.5594   9.7130   9.7993  10.1727  10.5289
    11.5957  12.0301  12.1279  12.1948  12.2566  12.2709  13.0961  13.5028
    14.1537  14.9627  16.9462  16.9826  17.6476  17.9852

     occupation numbers 
     0.0313   0.0313   0.0313   0.0313   0.0313   0.0313   0.0313   0.0313
     0.0313   0.0313   0.0313   0.0313   0.0313   0.0313   0.0313   0.0313
     0.0313   0.0313   0.0313   0.0313   0.0313   0.0313   0.0313   0.0313
     0.0313   0.0313   0.0313   0.0313   0.0313   0.0313   0.0312   0.0312
     0.0310   0.0253   0.0221   0.0194   0.0168   0.0162   0.0001   0.0000
     0.0000   0.0000   0.0000   0.0000   0.0000   0.0000

          k = 0.0000-0.5706 0.1027 (  2211 PWs)   bands (ev):

   -19.6914 -19.6508  -6.8664  -6.4417  -6.2194  -5.5747  -5.5066  -5.2041
    -3.2737  -3.1218  -2.9714  -2.5412  -2.4939  -2.3087   6.0181   6.3623
     6.9794   7.2856   7.3187   7.4329   7.7134   8.0260   8.1850   8.2114
     8.5769   9.1862   9.3305   9.5554   9.7109   9.8216  10.1752  10.5169
    11.5941  12.0323  12.1282  12.1969  12.2573  12.2696  13.0976  13.4994
    14.1561  14.9628  16.9453  16.9832  17.6480  17.9849

     occupation numbers 
     0.0313   0.0313   0.0313   0.0313   0.0313   0.0313   0.0313   0.0313
     0.0313   0.0313   0.0313   0.0313   0.0313   0.0313   0.0313   0.0313
     0.0313   0.0313   0.0313   0.0313   0.0313   0.0313   0.0313   0.0313
     0.0313   0.0313   0.0313   0.0313   0.0313   0.0313   0.0312   0.0312
     0.0310   0.0253   0.0221   0.0193   0.0168   0.0163   0.0001   0.0000
     0.0000   0.0000   0.0000   0.0000   0.0000   0.0000

          k = 0.7412 0.4280 0.3080 (  2210 PWs)   bands (ev):

   -19.6912 -19.6506  -6.8016  -6.3484  -6.1959  -5.6879  -5.6378  -5.3369
    -3.0191  -2.9946  -2.9179  -2.6675  -2.5492  -2.3608   6.0811   6.5216
     7.0626   7.2709   7.3659   7.3857   7.7329   8.0708   8.2095   8.2470
     8.5740   9.1525   9.1782   9.6645   9.6956   9.7558   9.8176  10.3556
    11.6442  12.0365  12.1145  12.1825  12.2917  12.3434  13.0600  13.4587
    14.1083  14.9293  17.1189  17.1294  17.6153  17.9545

     occupation numbers 
     0.0313   0.0313   0.0313   0.0313   0.0313   0.0313   0.0313   0.0313
     0.0313   0.0313   0.0313   0.0313   0.0313   0.0313   0.0313   0.0313
     0.0313   0.0313   0.0313   0.0313   0.0313   0.0313   0.0313   0.0313
     0.0313   0.0313   0.0313   0.0313   0.0313   0.0313   0.0313   0.0312
     0.0308   0.0251   0.0226   0.0199   0.0153   0.0131   0.0001   0.0000
     0.0000   0.0000   0.0000   0.0000   0.0000   0.0000

          k = 0.0000 0.8559-0.3080 (  2210 PWs)   bands (ev):

   -19.6912 -19.6506  -6.8016  -6.3484  -6.1958  -5.6879  -5.6378  -5.3369
    -3.0191  -2.9946  -2.9179  -2.6675  -2.5492  -2.3608   6.0810   6.5217
     7.0625   7.2718   7.3637   7.3871   7.7327   8.0701   8.2053   8.2533
     8.5727   9.1521   9.1786   9.6645   9.6954   9.7557   9.8181  10.3557
    11.6442  12.0369  12.1140  12.1826  12.2915  12.3436  13.0600  13.4587
    14.1083  14.9293  17.1188  17.1295  17.6153  17.9543

     occupation numbers 
     0.0313   0.0313   0.0313   0.0313   0.0313   0.0313   0.0313   0.0313
     0.0313   0.0313   0.0313   0.0313   0.0313   0.0313   0.0313   0.0313
     0.0313   0.0313   0.0313   0.0313   0.0313   0.0313   0.0313   0.0313
     0.0313   0.0313   0.0313   0.0313   0.0313   0.0313   0.0313   0.0312
     0.0308   0.0251   0.0226   0.0199   0.0153   0.0131   0.0001   0.0000
     0.0000   0.0000   0.0000   0.0000   0.0000   0.0000

          k = 0.2471 0.7133-0.2053 (  2206 PWs)   bands (ev):

   -19.6698 -19.6693  -6.7922  -6.7755  -5.9402  -5.9104  -5.2951  -5.2742
    -3.1127  -3.1121  -2.7533  -2.7482  -2.3195  -2.3150   6.1961   6.2347
     7.1513   7.1668   7.3292   7.3407   7.5564   7.5802   8.3976   8.4502
     8.8978   8.9200   9.2140   9.2285   9.6783   9.6988  10.2549  10.2684
    11.8514  11.8606  12.0217  12.0645  12.3356  12.3608  13.1202  13.1399
    14.6416  14.6568  17.4969  17.4988  17.9121  17.9166

     occupation numbers 
     0.0313   0.0313   0.0313   0.0313   0.0313   0.0313   0.0313   0.0313
     0.0313   0.0313   0.0313   0.0313   0.0313   0.0313   0.0313   0.0313
     0.0313   0.0313   0.0313   0.0313   0.0313   0.0313   0.0313   0.0313
     0.0313   0.0313   0.0313   0.0313   0.0313   0.0313   0.0312   0.0312
     0.0292   0.0290   0.0256   0.0243   0.0134   0.0124   0.0001   0.0000
     0.0000   0.0000   0.0000   0.0000   0.0000   0.0000

          k =-0.7412-0.1427-0.2053 (  2206 PWs)   bands (ev):

   -19.6706 -19.6704  -6.7910  -6.7581  -5.9388  -5.9371  -5.2969  -5.2642
    -3.1125  -3.1103  -2.7534  -2.7520  -2.3198  -2.3054   6.1977   6.2356
     7.1423   7.1510   7.2994   7.3421   7.5528   7.5675   8.4178   8.4605
     8.9223   8.9262   9.2154   9.2171   9.6992   9.7067  10.2513  10.2551
    11.8476  11.8569  12.0221  12.0640  12.3384  12.3627  13.1193  13.1382
    14.6428  14.6591  17.4980  17.4990  17.9116  17.9140

     occupation numbers 
     0.0313   0.0313   0.0313   0.0313   0.0313   0.0313   0.0313   0.0313
     0.0313   0.0313   0.0313   0.0313   0.0313   0.0313   0.0313   0.0313
     0.0313   0.0313   0.0313   0.0313   0.0313   0.0313   0.0313   0.0313
     0.0313   0.0313   0.0313   0.0313   0.0313   0.0313   0.0312   0.0312
     0.0292   0.0291   0.0256   0.0243   0.0133   0.0123   0.0001   0.0000
     0.0000   0.0000   0.0000   0.0000   0.0000   0.0000

     the Fermi energy is    12.2844 ev

!    total energy              =    -538.41551256 Ry
     Harris-Foulkes estimate   =    -538.41551254 Ry
     estimated scf accuracy    <          8.9E-09 Ry

     The total energy is the sum of the following terms:

     one-electron contribution =     -32.75001358 Ry
     hartree contribution      =      83.53306847 Ry
     xc contribution           =    -199.65531432 Ry
     ewald contribution        =    -389.44315552 Ry
     Hubbard energy            =      -0.06012768 Ry
     smearing contrib. (-TS)   =      -0.03996993 Ry

     total magnetization       =     3.55 Bohr mag/cell
     absolute magnetization    =     3.70 Bohr mag/cell

     convergence has been achieved in  11 iterations

     init_run     :      7.67s CPU      7.80s WALL (       1 calls)
     electrons    :    835.55s CPU    840.44s WALL (       1 calls)

     Called by init_run:
     wfcinit      :      0.00s CPU      0.00s WALL (       1 calls)
     potinit      :      0.80s CPU      0.83s WALL (       1 calls)

     Called by electrons:
     c_bands      :    649.15s CPU    651.67s WALL (      11 calls)
     sum_band     :    144.20s CPU    145.58s WALL (      11 calls)
     v_of_rho     :      8.88s CPU      8.96s WALL (      12 calls)
     v_h          :      0.25s CPU      0.25s WALL (      12 calls)
     v_xc         :      8.63s CPU      8.71s WALL (      12 calls)
     newd         :     33.98s CPU     34.02s WALL (      12 calls)
     mix_rho      :      0.79s CPU      0.79s WALL (      11 calls)

     Called by c_bands:
     init_us_2    :      6.91s CPU      6.93s WALL (    1584 calls)
     cegterg      :    630.23s CPU    631.35s WALL (     792 calls)

     Called by sum_band:
     sum_band:bec :      0.62s CPU      0.60s WALL (     792 calls)
     addusdens    :     27.93s CPU     27.98s WALL (      11 calls)

     Called by *egterg:
     h_psi        :    464.82s CPU    465.77s WALL (    3317 calls)
     s_psi        :     26.93s CPU     26.95s WALL (    3317 calls)
     g_psi        :      1.88s CPU      1.88s WALL (    2525 calls)
     cdiaghg      :     51.91s CPU     51.93s WALL (    3245 calls)
     cegterg:over :     30.68s CPU     30.73s WALL (    2525 calls)
     cegterg:upda :     21.74s CPU     21.75s WALL (    2525 calls)
     cegterg:last :     13.21s CPU     13.21s WALL (     864 calls)

     Called by h_psi:
     h_psi:vloc   :    376.50s CPU    377.28s WALL (    3317 calls)
     h_psi:vnl    :     56.13s CPU     56.19s WALL (    3317 calls)
     add_vuspsi   :     27.47s CPU     27.49s WALL (    3317 calls)
     vhpsi        :     30.75s CPU     30.84s WALL (    3317 calls)

     General routines
     calbec       :     58.63s CPU     58.69s WALL (    8218 calls)
     fft          :      4.20s CPU      4.24s WALL (     360 calls)
     ffts         :      0.14s CPU      0.14s WALL (      46 calls)
     fftw         :    336.17s CPU    336.69s WALL (  217336 calls)
     interpolate  :      0.88s CPU      0.88s WALL (      46 calls)
     davcio       :      0.03s CPU      2.50s WALL (    1656 calls)

     Parallel routines
     fft_scatter  :     92.22s CPU     92.49s WALL (  217742 calls)
     Hubbard U routines
     new_ns       :      5.96s CPU      7.07s WALL (      11 calls)
     vhpsi        :     30.75s CPU     30.84s WALL (    3317 calls)

     PWSCF        : 14m 3.65s CPU    14m 8.71s WALL


   This run was terminated on:  12:38:15  13Nov2012            

=------------------------------------------------------------------------------=
