   JOB DONE.
=------------------------------------------------------------------------------=

     Program PWSCF v.5.0.1 starts on 11Nov2012 at 14:45: 8 

     This program is part of the open-source Quantum ESPRESSO suite
     for quantum simulation of materials; please cite
         "P. Giannozzi et al., J. Phys.:Condens. Matter 21 395502 (2009);
          URL http://www.quantum-espresso.org", 
     in publications or presentations arising from this work. More details at
     http://www.quantum-espresso.org/quote.php

     Parallel version (MPI), running on     2 processors
     R & G space division:  proc/pool =    2

     Current dimensions of program PWSCF are:
     Max number of different atomic species (ntypx) = 10
     Max number of k-points (npk) =  40000
     Max angular momentum in pseudopotentials (lmaxx) =  3
     Reading input from CoLaO_U300_a-15.in
               file Co.pbe-nd-rrkjus.UPF: wavefunction(s)  4S 3D renormalized
               file O.pbe-rrkjus.UPF: wavefunction(s)  2S renormalized

     Subspace diagonalization in iterative solution of the eigenvalue problem:
     a serial algorithm will be used


     Parallelization info
     --------------------
     sticks:   dense  smooth     PW     G-vecs:    dense   smooth      PW
     Min        1112     444    131                34808     8786    1448
     Max        1113     445    132                34809     8787    1449
     Sum        2225     889    263                69617    17573    2897


     Title: 
     GGA + U, U = 3.000, alpha = -0.150                                         


     bravais-lattice index     =            5
     lattice parameter (alat)  =      10.3292  a.u.
     unit-cell volume          =     793.0599 (a.u.)^3
     number of atoms/cell      =           10
     number of atomic types    =            4
     number of electrons       =        76.00
     number of Kohn-Sham states=           46
     kinetic-energy cutoff     =      30.0000  Ry
     charge density cutoff     =     300.0000  Ry
     convergence threshold     =      1.0E-08
     mixing beta               =       0.2000
     number of iterations used =            8  plain     mixing
     Exchange-correlation      =  SLA  PW   PBE  PBE ( 1 4 3 4 0)
     EXX-fraction              =        0.00

     celldm(1)=  10.329242  celldm(2)=   0.000000  celldm(3)=   0.000000
     celldm(4)=   0.488100  celldm(5)=   0.000000  celldm(6)=   0.000000

     crystal axes: (cart. coord. in units of alat)
               a(1) = (   0.505915  -0.292090   0.811624 )  
               a(2) = (   0.000000   0.584180   0.811624 )  
               a(3) = (  -0.505915  -0.292090   0.811624 )  

     reciprocal axes: (cart. coord. in units 2 pi/alat)
               b(1) = (  0.988308 -0.570600  0.410699 )  
               b(2) = (  0.000000  1.141200  0.410699 )  
               b(3) = ( -0.988308 -0.570600  0.410699 )  


     PseudoPot. # 1 for Co read from file:
     /home/mcurnan/dft-course/Project1/example_LaCoO3/Co.pbe-nd-rrkjus.UPF
     MD5 check sum: 3e47a84addf5e975e0edeaeee2a73f59
     Pseudo is Ultrasoft + core correction, Zval =  9.0
     Generated by new atomic code, or converted to UPF format
     Using radial grid of  961 points,  6 beta functions with: 
                l(1) =   0
                l(2) =   0
                l(3) =   1
                l(4) =   1
                l(5) =   2
                l(6) =   2
     Q(r) pseudized with 0 coefficients 


     PseudoPot. # 2 for La read from file:
     /home/mcurnan/dft-course/Project1/example_LaCoO3/La.pbe-nsp-van.UPF
     MD5 check sum: b2f11743f52dde65f77d1302becd7929
     Pseudo is Ultrasoft + core correction, Zval = 11.0
     Generated by new atomic code, or converted to UPF format
     Using radial grid of  907 points,  6 beta functions with: 
                l(1) =   0
                l(2) =   0
                l(3) =   1
                l(4) =   1
                l(5) =   2
                l(6) =   2
     Q(r) pseudized with  6 coefficients,  rinner =    1.200   1.200   1.200
                                                       1.200   1.200

     PseudoPot. # 3 for La read from file:
     /home/mcurnan/dft-course/Project1/example_LaCoO3/La.pbe-nsp-van.UPF
     MD5 check sum: b2f11743f52dde65f77d1302becd7929
     Pseudo is Ultrasoft + core correction, Zval = 11.0
     Generated by new atomic code, or converted to UPF format
     Using radial grid of  907 points,  6 beta functions with: 
                l(1) =   0
                l(2) =   0
                l(3) =   1
                l(4) =   1
                l(5) =   2
                l(6) =   2
     Q(r) pseudized with  6 coefficients,  rinner =    1.200   1.200   1.200
                                                       1.200   1.200

     PseudoPot. # 4 for O  read from file:
     /home/mcurnan/dft-course/Project1/example_LaCoO3/O.pbe-rrkjus.UPF
     MD5 check sum: 390ba29e75625707450f3bd3f0eb6be9
     Pseudo is Ultrasoft, Zval =  6.0
     Generated by new atomic code, or converted to UPF format
     Using radial grid of 1269 points,  4 beta functions with: 
                l(1) =   0
                l(2) =   0
                l(3) =   1
                l(4) =   1
     Q(r) pseudized with 0 coefficients 


     atomic species   valence    mass     pseudopotential
        Co1            9.00     1.00000     Co( 1.00)
        La1           11.00     1.00000     La( 1.00)
        La2           11.00     1.00000     La( 1.00)
        O1             6.00     1.00000     O ( 1.00)
 -----
     simplified LDA+U calculation, Hubbard_lmax = 2
     atomic species  L   Hubbard U  Hubbard alpha
        Co1          2    3.000000    0.000000
        La1          2    0.000000   -0.150000
        La2          2    0.000000    0.000000
        O1           1    0.000000    0.000000
 -----

      3 Sym. Ops. (no inversion) found


                                    s                        frac. trans.

      isym =  1     identity                                     

 cryst.   s( 1) = (     1          0          0      )
                  (     0          1          0      )
                  (     0          0          1      )

 cart.    s( 1) = (  1.0000000  0.0000000  0.0000000 )
                  (  0.0000000  1.0000000  0.0000000 )
                  (  0.0000000  0.0000000  1.0000000 )


      isym =  2     120 deg rotation - cryst. axis [0,0,1]       

 cryst.   s( 2) = (     0          1          0      )
                  (     0          0          1      )
                  (     1          0          0      )

 cart.    s( 2) = ( -0.5000000 -0.8660254  0.0000000 )
                  (  0.8660254 -0.5000000  0.0000000 )
                  (  0.0000000  0.0000000  1.0000000 )


      isym =  3     120 deg rotation - cryst. axis [0,0,-1]      

 cryst.   s( 3) = (     0          0          1      )
                  (     1          0          0      )
                  (     0          1          0      )

 cart.    s( 3) = ( -0.5000000  0.8660254  0.0000000 )
                  ( -0.8660254 -0.5000000  0.0000000 )
                  (  0.0000000  0.0000000  1.0000000 )


     point group C_3 (3)    
     there are  3 classes
     the character table:

       E     C3    C3^2 
A      1.00  1.00  1.00
E      1.00 -0.50 -0.50
E*     1.00 -0.50 -0.50
     imaginary part
A      0.00  0.00  0.00
E      0.00  0.87 -0.87
E*     0.00 -0.87  0.87

     the symmetry operations in each class:
     E        1
     C3       2
     C3^2     3

   Cartesian axes

     site n.     atom                  positions (alat units)
         1           Co1 tau(   1) = (   0.0000000   0.0000000   1.8261537  )
         2           Co1 tau(   2) = (   0.0000000   0.0000000   0.6087179  )
         3           La1 tau(   3) = (   0.0000000   0.0000000   0.0000000  )
         4           La2 tau(   4) = (   0.0000000   0.0000000   1.2174358  )
         5           O1  tau(   5) = (   0.2831100  -0.0928263   1.6236536  )
         6           O1  tau(   6) = (  -0.2219449  -0.1987674   1.6236536  )
         7           O1  tau(   7) = (  -0.0611651   0.2915936   1.6236536  )
         8           O1  tau(   8) = (   0.2228050   0.3849164   1.2170300  )
         9           O1  tau(   9) = (   0.2219449  -0.3854130   1.2170300  )
        10           O1  tau(  10) = (  -0.4447499   0.0004966   1.2170300  )

   Crystallographic axes

     site n.     atom                  positions (cryst. coord.)
         1           Co1 tau(   1) = (  0.7500000  0.7500000  0.7500000  )
         2           Co1 tau(   2) = (  0.2500000  0.2500000  0.2500000  )
         3           La1 tau(   3) = (  0.0000000  0.0000000  0.0000000  )
         4           La2 tau(   4) = (  0.5000000  0.5000000  0.5000000  )
         5           O1  tau(   5) = (  0.9996000  0.5609000  0.4400000  )
         6           O1  tau(   6) = (  0.5609000  0.4400000  0.9996000  )
         7           O1  tau(   7) = (  0.4400000  0.9996000  0.5609000  )
         8           O1  tau(   8) = (  0.5004000  0.9391000  0.0600000  )
         9           O1  tau(   9) = (  0.9391000  0.0600000  0.5004000  )
        10           O1  tau(  10) = (  0.0600000  0.5004000  0.9391000  )

     number of k points=    14  gaussian smearing, width (Ry)=  0.0300
                       cart. coord. in units 2pi/alat
        k(    1) = (   0.0000000   0.0000000   0.0000000), wk =   0.0312500
        k(    2) = (  -0.2470771  -0.1426500   0.1026748), wk =   0.1875000
        k(    3) = (   0.4941541   0.2853000  -0.2053496), wk =   0.0937500
        k(    4) = (  -0.2470771   0.1426500   0.2053496), wk =   0.1875000
        k(    5) = (   0.4941541   0.5706001  -0.1026748), wk =   0.1875000
        k(    6) = (   0.2470771   0.4279500   0.0000000), wk =   0.1875000
        k(    7) = (   0.4941541  -0.2853000  -0.4106993), wk =   0.0937500
        k(    8) = (   0.0000000   0.0000000   0.3080244), wk =   0.0625000
        k(    9) = (   0.7412312   0.4279500   0.0000000), wk =   0.1875000
        k(   10) = (   0.4941541   0.2853000   0.1026748), wk =   0.1875000
        k(   11) = (   0.7412312  -0.4279500  -0.3080244), wk =   0.1875000
        k(   12) = (   0.4941541  -0.5706001  -0.2053496), wk =   0.1875000
        k(   13) = (   0.0000000   0.0000000  -0.6160489), wk =   0.0312500
        k(   14) = (   0.4941541  -0.5706001   0.1026748), wk =   0.1875000

                       cryst. coord.
        k(    1) = (   0.0000000   0.0000000   0.0000000), wk =   0.0312500
        k(    2) = (   0.0000000   0.0000000   0.2500000), wk =   0.1875000
        k(    3) = (   0.0000000   0.0000000  -0.5000000), wk =   0.0937500
        k(    4) = (   0.0000000   0.2500000   0.2500000), wk =   0.1875000
        k(    5) = (   0.0000000   0.2500000  -0.5000000), wk =   0.1875000
        k(    6) = (   0.0000000   0.2500000  -0.2500000), wk =   0.1875000
        k(    7) = (   0.0000000  -0.5000000  -0.5000000), wk =   0.0937500
        k(    8) = (   0.2500000   0.2500000   0.2500000), wk =   0.0625000
        k(    9) = (   0.2500000   0.2500000  -0.5000000), wk =   0.1875000
        k(   10) = (   0.2500000   0.2500000  -0.2500000), wk =   0.1875000
        k(   11) = (   0.2500000  -0.5000000  -0.5000000), wk =   0.1875000
        k(   12) = (   0.2500000  -0.5000000  -0.2500000), wk =   0.1875000
        k(   13) = (  -0.5000000  -0.5000000  -0.5000000), wk =   0.0312500
        k(   14) = (   0.5000000  -0.2500000   0.0000000), wk =   0.1875000

     Dense  grid:    69617 G-vectors     FFT dimensions: (  60,  60,  60)

     Smooth grid:    17573 G-vectors     FFT dimensions: (  40,  40,  40)

     Largest allocated arrays     est. size (Mb)     dimensions
        Kohn-Sham Wavefunctions         0.78 Mb     (   1117,   46)
        Atomic wavefunctions            1.06 Mb     (   1117,   62)
        NL pseudopotentials             2.05 Mb     (   1117,  120)
        Each V/rho on FFT grid          1.65 Mb     ( 108000)
        Each G-vector array             0.27 Mb     (  34808)
        G-vector shells                 0.04 Mb     (   4682)
     Largest temporary arrays     est. size (Mb)     dimensions
        Auxiliary wavefunctions         3.14 Mb     (   1117,  184)
        Each subspace H/S matrix        0.52 Mb     ( 184, 184)
        Each <psi_i|beta_j> matrix      0.08 Mb     (    120,   46)
        Arrays for rho mixing          13.18 Mb     ( 108000,   8)

     Check: negative/imaginary core charge=   -0.000028    0.000000

     The initial density is read from file :
     /home/mcurnan/dft-course/Project1/example_LaCoO3/300/La/alpha/CoLaO_U300.save/charge-density.dat

 --- in v_hubbard ---
Hubbard energy    0.2451
 -------
     Number of +U iterations with fixed ns =  0
     Starting occupations:
 --- enter write_ns ---
 LDA+U parameters:
U( 1)     =  3.00000000
alpha( 1) =  0.00000000
U( 2)     =  0.00000000
alpha( 2) = -0.15000000
U( 3)     =  0.00000000
alpha( 3) =  0.00000000
U( 4)     =  0.00000000
alpha( 4) =  0.00000000
atom    1   Tr[ns(na)] =   8.02205
    eigenvalues: 
  0.596  0.596  0.938  0.941  0.941
    eigenvectors:
  0.000  0.000  1.000  0.000  0.000
  0.334  0.321  0.000  0.004  0.341
  0.321  0.334  0.000  0.341  0.004
  0.288  0.057  0.000  0.515  0.140
  0.057  0.288  0.000  0.140  0.515
    occupations:
  0.938  0.000  0.000  0.000  0.000
  0.000  0.715  0.000 -0.060  0.152
  0.000  0.000  0.715  0.152  0.060
  0.000 -0.060  0.152  0.822  0.000
  0.000  0.152  0.060  0.000  0.822
atom    2   Tr[ns(na)] =   8.02143
    eigenvalues: 
  0.595  0.595  0.938  0.941  0.941
    eigenvectors:
  0.000  0.000  1.000  0.000  0.000
  0.638  0.017  0.000  0.223  0.122
  0.017  0.638  0.000  0.122  0.223
  0.015  0.330  0.000  0.470  0.185
  0.330  0.015  0.000  0.185  0.470
    occupations:
  0.938  0.000  0.000  0.000  0.000
  0.000  0.715  0.000  0.060  0.153
  0.000  0.000  0.715  0.153 -0.060
  0.000  0.060  0.153  0.822  0.000
  0.000  0.153 -0.060  0.000  0.822
atom    3   Tr[ns(na)] =   3.80283
    eigenvalues: 
  0.355  0.355  0.384  0.403  0.403
    eigenvectors:
  0.000  0.000  1.000  0.000  0.000
  0.781  0.140  0.000  0.012  0.068
  0.140  0.781  0.000  0.068  0.012
  0.013  0.067  0.000  0.780  0.140
  0.067  0.013  0.000  0.140  0.780
    occupations:
  0.384  0.000  0.000  0.000  0.000
  0.000  0.359  0.000  0.000  0.013
  0.000  0.000  0.359  0.013  0.000
  0.000  0.000  0.013  0.399  0.000
  0.000  0.013  0.000  0.000  0.399
atom    4   Tr[ns(na)] =   3.80283
    eigenvalues: 
  0.355  0.355  0.384  0.403  0.403
    eigenvectors:
  0.000  0.000  1.000  0.000  0.000
  0.781  0.140  0.000  0.012  0.068
  0.140  0.781  0.000  0.068  0.012
  0.013  0.067  0.000  0.780  0.140
  0.067  0.013  0.000  0.140  0.780
    occupations:
  0.384  0.000  0.000  0.000  0.000
  0.000  0.359  0.000  0.000  0.013
  0.000  0.000  0.359  0.013  0.000
  0.000  0.000  0.013  0.399  0.000
  0.000  0.013  0.000  0.000  0.399
atom    5   Tr[ns(na)] =   5.43358
    eigenvalues: 
  0.846  0.929  0.941
    eigenvectors:
  0.340  0.000  0.660
  0.496  0.250  0.255
  0.164  0.750  0.086
    occupations:
  0.909 -0.039  0.022
 -0.039  0.891  0.022
  0.022  0.022  0.917
atom    6   Tr[ns(na)] =   5.43358
    eigenvalues: 
  0.846  0.929  0.941
    eigenvectors:
  0.340  0.000  0.660
  0.494  0.250  0.256
  0.166  0.750  0.085
    occupations:
  0.909  0.039  0.022
  0.039  0.891 -0.022
  0.022 -0.022  0.917
atom    7   Tr[ns(na)] =   5.43358
    eigenvalues: 
  0.846  0.929  0.941
    eigenvectors:
  0.340  0.000  0.660
  0.000  1.000  0.000
  0.660  0.000  0.340
    occupations:
  0.909  0.000 -0.045
  0.000  0.929  0.000
 -0.045  0.000  0.879
atom    8   Tr[ns(na)] =   5.43358
    eigenvalues: 
  0.846  0.929  0.941
    eigenvectors:
  0.340  0.000  0.660
  0.496  0.250  0.255
  0.164  0.750  0.086
    occupations:
  0.909 -0.039  0.022
 -0.039  0.891  0.022
  0.022  0.022  0.917
atom    9   Tr[ns(na)] =   5.43358
    eigenvalues: 
  0.846  0.929  0.941
    eigenvectors:
  0.340  0.000  0.660
  0.494  0.250  0.256
  0.166  0.750  0.085
    occupations:
  0.909  0.039  0.022
  0.039  0.891 -0.022
  0.022 -0.022  0.917
atom   10   Tr[ns(na)] =   5.43358
    eigenvalues: 
  0.846  0.929  0.941
    eigenvectors:
  0.340  0.000  0.660
  0.000  1.000  0.000
  0.660  0.000  0.340
    occupations:
  0.909  0.000 -0.045
  0.000  0.929  0.000
 -0.045  0.000  0.879
N of occupied +U levels =  56.2506014
 --- exit write_ns ---
 LDA+U Projector read from file 
     Starting wfc from file

     total cpu time spent up to now is        8.5 secs

     per-process dynamical memory:    47.1 Mb

     Self-consistent Calculation

     iteration #  1     ecut=    30.00 Ry     beta=0.20
     Davidson diagonalization with overlap
     c_bands:  1 eigenvalues not converged
     c_bands:  1 eigenvalues not converged
     c_bands:  1 eigenvalues not converged
     c_bands:  1 eigenvalues not converged
     c_bands:  1 eigenvalues not converged
     c_bands:  1 eigenvalues not converged
     c_bands:  1 eigenvalues not converged
     c_bands:  1 eigenvalues not converged
     c_bands:  1 eigenvalues not converged
     c_bands:  1 eigenvalues not converged
     ethr =  1.00E-10,  avg # of iterations = 18.2
 --- enter write_ns ---
 LDA+U parameters:
U( 1)     =  3.00000000
alpha( 1) =  0.00000000
U( 2)     =  0.00000000
alpha( 2) = -0.15000000
U( 3)     =  0.00000000
alpha( 3) =  0.00000000
U( 4)     =  0.00000000
alpha( 4) =  0.00000000
atom    1   Tr[ns(na)] =   8.15342
    eigenvalues: 
  0.563  0.563  0.983  0.983  0.985
    eigenvectors:
  0.000  0.000  0.000  0.000  1.000
  0.330  0.324  0.005  0.341  0.000
  0.324  0.330  0.341  0.005  0.000
  0.288  0.058  0.513  0.141  0.000
  0.058  0.288  0.141  0.513  0.000
    occupations:
  0.985  0.000  0.000  0.000  0.000
  0.000  0.708  0.000 -0.072  0.186
  0.000  0.000  0.708  0.186  0.072
  0.000 -0.072  0.186  0.838  0.000
  0.000  0.186  0.072  0.000  0.838
atom    2   Tr[ns(na)] =   8.14596
    eigenvalues: 
  0.561  0.561  0.983  0.983  0.985
    eigenvectors:
  0.000  0.000  0.000  0.000  1.000
  0.634  0.020  0.221  0.125  0.000
  0.020  0.634  0.125  0.221  0.000
  0.012  0.334  0.469  0.185  0.000
  0.334  0.012  0.185  0.469  0.000
    occupations:
  0.985  0.000  0.000  0.000  0.000
  0.000  0.707  0.000  0.071  0.188
  0.000  0.000  0.707  0.188 -0.071
  0.000  0.071  0.188  0.837  0.000
  0.000  0.188 -0.071  0.000  0.837
atom    3   Tr[ns(na)] =   3.85057
    eigenvalues: 
  0.362  0.362  0.387  0.407  0.407
    eigenvectors:
  0.000  0.000  1.000  0.000  0.000
  0.783  0.139  0.000  0.011  0.067
  0.139  0.783  0.000  0.067  0.011
  0.012  0.066  0.000  0.781  0.140
  0.066  0.012  0.000  0.140  0.781
    occupations:
  0.387  0.000  0.000  0.000  0.000
  0.000  0.365  0.000  0.000  0.012
  0.000  0.000  0.365  0.012  0.000
  0.000  0.000  0.012  0.404  0.000
  0.000  0.012  0.000  0.000  0.404
atom    4   Tr[ns(na)] =   3.79792
    eigenvalues: 
  0.356  0.356  0.382  0.402  0.402
    eigenvectors:
  0.000  0.000  1.000  0.000  0.000
  0.778  0.140  0.000  0.012  0.069
  0.140  0.778  0.000  0.069  0.012
  0.013  0.068  0.000  0.778  0.141
  0.068  0.013  0.000  0.141  0.778
    occupations:
  0.382  0.000  0.000  0.000  0.000
  0.000  0.360  0.000  0.000  0.013
  0.000  0.000  0.360  0.013  0.000
  0.000  0.000  0.013  0.398  0.000
  0.000  0.013  0.000  0.000  0.398
atom    5   Tr[ns(na)] =   5.39925
    eigenvalues: 
  0.832  0.925  0.943
    eigenvectors:
  0.341  0.000  0.659
  0.495  0.250  0.255
  0.164  0.750  0.086
    occupations:
  0.905 -0.046  0.026
 -0.046  0.883  0.024
  0.026  0.024  0.911
atom    6   Tr[ns(na)] =   5.39925
    eigenvalues: 
  0.832  0.925  0.943
    eigenvectors:
  0.341  0.000  0.659
  0.494  0.250  0.256
  0.165  0.750  0.085
    occupations:
  0.905  0.046  0.026
  0.046  0.884 -0.024
  0.026 -0.024  0.911
atom    7   Tr[ns(na)] =   5.39925
    eigenvalues: 
  0.832  0.925  0.943
    eigenvectors:
  0.341  0.000  0.659
  0.000  1.000  0.000
  0.659  0.000  0.341
    occupations:
  0.905  0.000 -0.053
  0.000  0.925  0.000
 -0.053  0.000  0.870
atom    8   Tr[ns(na)] =   5.39945
    eigenvalues: 
  0.832  0.925  0.942
    eigenvectors:
  0.341  0.000  0.659
  0.495  0.250  0.255
  0.164  0.750  0.086
    occupations:
  0.905 -0.045  0.026
 -0.045  0.883  0.024
  0.026  0.024  0.911
atom    9   Tr[ns(na)] =   5.39945
    eigenvalues: 
  0.832  0.925  0.942
    eigenvectors:
  0.341  0.000  0.659
  0.494  0.250  0.256
  0.165  0.750  0.085
    occupations:
  0.905  0.045  0.026
  0.045  0.884 -0.024
  0.026 -0.024  0.911
atom   10   Tr[ns(na)] =   5.39945
    eigenvalues: 
  0.832  0.925  0.942
    eigenvectors:
  0.341  0.000  0.659
  0.000  1.000  0.000
  0.659  0.000  0.341
    occupations:
  0.905  0.000 -0.052
  0.000  0.925  0.000
 -0.052  0.000  0.870
N of occupied +U levels =  56.3439783
 --- exit write_ns ---
 --- in v_hubbard ---
Hubbard energy    0.2359
 -------

     total cpu time spent up to now is       49.8 secs

     total energy              =    -538.11123222 Ry
     Harris-Foulkes estimate   =    -538.11559550 Ry
     estimated scf accuracy    <       0.02416575 Ry

     iteration #  2     ecut=    30.00 Ry     beta=0.20
     Davidson diagonalization with overlap
     ethr =  3.18E-05,  avg # of iterations =  1.4
 --- enter write_ns ---
 LDA+U parameters:
U( 1)     =  3.00000000
alpha( 1) =  0.00000000
U( 2)     =  0.00000000
alpha( 2) = -0.15000000
U( 3)     =  0.00000000
alpha( 3) =  0.00000000
U( 4)     =  0.00000000
alpha( 4) =  0.00000000
atom    1   Tr[ns(na)] =   8.02686
    eigenvalues: 
  0.531  0.531  0.983  0.983  0.985
    eigenvectors:
  0.000  0.000  0.000  0.000  1.000
  0.333  0.323  0.004  0.340  0.000
  0.323  0.333  0.340  0.004  0.000
  0.287  0.057  0.515  0.140  0.000
  0.057  0.287  0.140  0.515  0.000
    occupations:
  0.985  0.000  0.000  0.000  0.000
  0.000  0.687  0.000 -0.078  0.200
  0.000  0.000  0.687  0.200  0.078
  0.000 -0.078  0.200  0.827  0.000
  0.000  0.200  0.078  0.000  0.827
atom    2   Tr[ns(na)] =   8.03369
    eigenvalues: 
  0.531  0.531  0.985  0.985  0.987
    eigenvectors:
  0.000  0.000  0.000  0.000  1.000
  0.637  0.019  0.221  0.123  0.000
  0.019  0.637  0.123  0.221  0.000
  0.014  0.331  0.471  0.185  0.000
  0.331  0.014  0.185  0.471  0.000
    occupations:
  0.987  0.000  0.000  0.000  0.000
  0.000  0.687  0.000  0.078  0.201
  0.000  0.000  0.687  0.201 -0.078
  0.000  0.078  0.201  0.828  0.000
  0.000  0.201 -0.078  0.000  0.828
atom    3   Tr[ns(na)] =   3.84208
    eigenvalues: 
  0.361  0.361  0.386  0.407  0.407
    eigenvectors:
  0.000  0.000  1.000  0.000  0.000
  0.784  0.139  0.000  0.011  0.066
  0.139  0.784  0.000  0.066  0.011
  0.012  0.065  0.000  0.783  0.140
  0.065  0.012  0.000  0.140  0.783
    occupations:
  0.386  0.000  0.000  0.000  0.000
  0.000  0.364  0.000  0.000  0.012
  0.000  0.000  0.364  0.012  0.000
  0.000  0.000  0.012  0.403  0.000
  0.000  0.012  0.000  0.000  0.403
atom    4   Tr[ns(na)] =   3.79297
    eigenvalues: 
  0.355  0.355  0.382  0.402  0.402
    eigenvectors:
  0.000  0.000  1.000  0.000  0.000
  0.780  0.140  0.000  0.012  0.068
  0.140  0.780  0.000  0.068  0.012
  0.013  0.067  0.000  0.780  0.140
  0.067  0.013  0.000  0.140  0.780
    occupations:
  0.382  0.000  0.000  0.000  0.000
  0.000  0.359  0.000  0.000  0.013
  0.000  0.000  0.359  0.013  0.000
  0.000  0.000  0.013  0.398  0.000
  0.000  0.013  0.000  0.000  0.398
atom    5   Tr[ns(na)] =   5.43799
    eigenvalues: 
  0.843  0.930  0.946
    eigenvectors:
  0.337  0.000  0.663
  0.496  0.251  0.252
  0.166  0.749  0.085
    occupations:
  0.911 -0.042  0.024
 -0.042  0.891  0.023
  0.024  0.023  0.917
atom    6   Tr[ns(na)] =   5.43799
    eigenvalues: 
  0.843  0.930  0.946
    eigenvectors:
  0.337  0.000  0.663
  0.498  0.249  0.254
  0.165  0.751  0.084
    occupations:
  0.911  0.042  0.024
  0.042  0.891 -0.022
  0.024 -0.022  0.917
atom    7   Tr[ns(na)] =   5.43799
    eigenvalues: 
  0.843  0.930  0.946
    eigenvectors:
  0.337  0.000  0.663
  0.000  1.000  0.000
  0.663  0.000  0.337
    occupations:
  0.911  0.000 -0.049
  0.000  0.930  0.000
 -0.049  0.000  0.878
atom    8   Tr[ns(na)] =   5.43806
    eigenvalues: 
  0.843  0.930  0.946
    eigenvectors:
  0.337  0.000  0.663
  0.496  0.252  0.252
  0.167  0.748  0.085
    occupations:
  0.911 -0.042  0.024
 -0.042  0.891  0.023
  0.024  0.023  0.917
atom    9   Tr[ns(na)] =   5.43806
    eigenvalues: 
  0.843  0.930  0.946
    eigenvectors:
  0.337  0.000  0.663
  0.498  0.248  0.254
  0.165  0.752  0.084
    occupations:
  0.911  0.042  0.024
  0.042  0.891 -0.023
  0.024 -0.023  0.917
atom   10   Tr[ns(na)] =   5.43806
    eigenvalues: 
  0.843  0.930  0.946
    eigenvectors:
  0.337  0.000  0.663
  0.000  1.000  0.000
  0.663  0.000  0.337
    occupations:
  0.911  0.000 -0.048
  0.000  0.930  0.000
 -0.048  0.000  0.878
N of occupied +U levels =  56.3237511
 --- exit write_ns ---
 --- in v_hubbard ---
Hubbard energy    0.2315
 -------

     total cpu time spent up to now is       66.1 secs

     total energy              =    -538.11518284 Ry
     Harris-Foulkes estimate   =    -538.11516913 Ry
     estimated scf accuracy    <       0.01467558 Ry

     iteration #  3     ecut=    30.00 Ry     beta=0.20
     Davidson diagonalization with overlap
     ethr =  1.93E-05,  avg # of iterations =  1.0
 --- enter write_ns ---
 LDA+U parameters:
U( 1)     =  3.00000000
alpha( 1) =  0.00000000
U( 2)     =  0.00000000
alpha( 2) = -0.15000000
U( 3)     =  0.00000000
alpha( 3) =  0.00000000
U( 4)     =  0.00000000
alpha( 4) =  0.00000000
atom    1   Tr[ns(na)] =   8.06145
    eigenvalues: 
  0.538  0.538  0.984  0.984  0.986
    eigenvectors:
  0.000  0.000  0.000  0.000  1.000
  0.333  0.323  0.004  0.340  0.000
  0.323  0.333  0.340  0.004  0.000
  0.287  0.057  0.515  0.140  0.000
  0.057  0.287  0.140  0.515  0.000
    occupations:
  0.986  0.000  0.000  0.000  0.000
  0.000  0.692  0.000 -0.077  0.197
  0.000  0.000  0.692  0.197  0.077
  0.000 -0.077  0.197  0.831  0.000
  0.000  0.197  0.077  0.000  0.831
atom    2   Tr[ns(na)] =   8.05405
    eigenvalues: 
  0.536  0.536  0.984  0.984  0.987
    eigenvectors:
  0.000  0.000  0.000  0.000  1.000
  0.636  0.019  0.220  0.124  0.000
  0.019  0.636  0.124  0.220  0.000
  0.013  0.331  0.471  0.185  0.000
  0.331  0.013  0.185  0.471  0.000
    occupations:
  0.987  0.000  0.000  0.000  0.000
  0.000  0.690  0.000  0.077  0.199
  0.000  0.000  0.690  0.199 -0.077
  0.000  0.077  0.199  0.830  0.000
  0.000  0.199 -0.077  0.000  0.830
atom    3   Tr[ns(na)] =   3.84047
    eigenvalues: 
  0.361  0.361  0.386  0.406  0.406
    eigenvectors:
  0.000  0.000  1.000  0.000  0.000
  0.784  0.139  0.000  0.011  0.066
  0.139  0.784  0.000  0.066  0.011
  0.012  0.065  0.000  0.783  0.140
  0.065  0.012  0.000  0.140  0.783
    occupations:
  0.386  0.000  0.000  0.000  0.000
  0.000  0.364  0.000  0.000  0.012
  0.000  0.000  0.364  0.012  0.000
  0.000  0.000  0.012  0.403  0.000
  0.000  0.012  0.000  0.000  0.403
atom    4   Tr[ns(na)] =   3.79253
    eigenvalues: 
  0.355  0.355  0.382  0.402  0.402
    eigenvectors:
  0.000  0.000  1.000  0.000  0.000
  0.780  0.140  0.000  0.012  0.068
  0.140  0.780  0.000  0.068  0.012
  0.013  0.067  0.000  0.779  0.141
  0.067  0.013  0.000  0.141  0.779
    occupations:
  0.382  0.000  0.000  0.000  0.000
  0.000  0.359  0.000  0.000  0.013
  0.000  0.000  0.359  0.013  0.000
  0.000  0.000  0.013  0.398  0.000
  0.000  0.013  0.000  0.000  0.398
atom    5   Tr[ns(na)] =   5.42972
    eigenvalues: 
  0.840  0.929  0.946
    eigenvectors:
  0.338  0.000  0.662
  0.497  0.250  0.253
  0.165  0.750  0.085
    occupations:
  0.910 -0.043  0.025
 -0.043  0.889  0.023
  0.025  0.023  0.916
atom    6   Tr[ns(na)] =   5.42972
    eigenvalues: 
  0.840  0.929  0.946
    eigenvectors:
  0.338  0.000  0.662
  0.496  0.250  0.254
  0.166  0.750  0.084
    occupations:
  0.910  0.043  0.025
  0.043  0.889 -0.023
  0.025 -0.023  0.916
atom    7   Tr[ns(na)] =   5.42972
    eigenvalues: 
  0.840  0.929  0.946
    eigenvectors:
  0.338  0.000  0.662
  0.000  1.000  0.000
  0.662  0.000  0.338
    occupations:
  0.910  0.000 -0.050
  0.000  0.929  0.000
 -0.050  0.000  0.876
atom    8   Tr[ns(na)] =   5.42978
    eigenvalues: 
  0.840  0.929  0.945
    eigenvectors:
  0.338  0.000  0.662
  0.497  0.250  0.253
  0.165  0.750  0.085
    occupations:
  0.910 -0.043  0.025
 -0.043  0.889  0.023
  0.025  0.023  0.916
atom    9   Tr[ns(na)] =   5.42978
    eigenvalues: 
  0.840  0.929  0.945
    eigenvectors:
  0.338  0.000  0.662
  0.496  0.250  0.254
  0.166  0.750  0.084
    occupations:
  0.910  0.043  0.025
  0.043  0.889 -0.023
  0.025 -0.023  0.916
atom   10   Tr[ns(na)] =   5.42978
    eigenvalues: 
  0.840  0.929  0.945
    eigenvectors:
  0.338  0.000  0.662
  0.000  1.000  0.000
  0.662  0.000  0.338
    occupations:
  0.910  0.000 -0.050
  0.000  0.929  0.000
 -0.050  0.000  0.876
N of occupied +U levels =  56.3269804
 --- exit write_ns ---
 --- in v_hubbard ---
Hubbard energy    0.2021
 -------

     total cpu time spent up to now is       86.2 secs

     total energy              =    -538.11735358 Ry
     Harris-Foulkes estimate   =    -538.11548562 Ry
     estimated scf accuracy    <       0.00757146 Ry

     iteration #  4     ecut=    30.00 Ry     beta=0.20
     Davidson diagonalization with overlap
     ethr =  9.96E-06,  avg # of iterations =  1.0
 --- enter write_ns ---
 LDA+U parameters:
U( 1)     =  3.00000000
alpha( 1) =  0.00000000
U( 2)     =  0.00000000
alpha( 2) = -0.15000000
U( 3)     =  0.00000000
alpha( 3) =  0.00000000
U( 4)     =  0.00000000
alpha( 4) =  0.00000000
atom    1   Tr[ns(na)] =   8.02915
    eigenvalues: 
  0.530  0.530  0.984  0.984  0.986
    eigenvectors:
  0.000  0.000  0.000  0.000  1.000
  0.336  0.323  0.004  0.337  0.000
  0.323  0.336  0.337  0.004  0.000
  0.283  0.059  0.517  0.141  0.000
  0.059  0.283  0.141  0.517  0.000
    occupations:
  0.986  0.000  0.000  0.000  0.000
  0.000  0.685  0.000 -0.078  0.201
  0.000  0.000  0.685  0.201  0.078
  0.000 -0.078  0.201  0.829  0.000
  0.000  0.201  0.078  0.000  0.829
atom    2   Tr[ns(na)] =   8.09673
    eigenvalues: 
  0.540  0.540  0.988  0.988  0.991
    eigenvectors:
  0.000  0.000  0.000  0.000  1.000
  0.638  0.020  0.220  0.122  0.000
  0.020  0.638  0.122  0.220  0.000
  0.013  0.328  0.474  0.184  0.000
  0.328  0.013  0.184  0.474  0.000
    occupations:
  0.991  0.000  0.000  0.000  0.000
  0.000  0.694  0.000  0.078  0.198
  0.000  0.000  0.694  0.198 -0.078
  0.000  0.078  0.198  0.835  0.000
  0.000  0.198 -0.078  0.000  0.835
atom    3   Tr[ns(na)] =   3.83478
    eigenvalues: 
  0.360  0.360  0.386  0.406  0.406
    eigenvectors:
  0.000  0.000  1.000  0.000  0.000
  0.784  0.138  0.000  0.011  0.066
  0.138  0.784  0.000  0.066  0.011
  0.012  0.066  0.000  0.783  0.140
  0.066  0.012  0.000  0.140  0.783
    occupations:
  0.386  0.000  0.000  0.000  0.000
  0.000  0.364  0.000  0.000  0.012
  0.000  0.000  0.364  0.012  0.000
  0.000  0.000  0.012  0.402  0.000
  0.000  0.012  0.000  0.000  0.402
atom    4   Tr[ns(na)] =   3.79377
    eigenvalues: 
  0.356  0.356  0.382  0.402  0.402
    eigenvectors:
  0.000  0.000  1.000  0.000  0.000
  0.782  0.139  0.000  0.012  0.067
  0.139  0.782  0.000  0.067  0.012
  0.012  0.067  0.000  0.781  0.140
  0.067  0.012  0.000  0.140  0.781
    occupations:
  0.382  0.000  0.000  0.000  0.000
  0.000  0.359  0.000  0.000  0.012
  0.000  0.000  0.359  0.012  0.000
  0.000  0.000  0.012  0.398  0.000
  0.000  0.012  0.000  0.000  0.398
atom    5   Tr[ns(na)] =   5.42764
    eigenvalues: 
  0.839  0.929  0.946
    eigenvectors:
  0.338  0.000  0.662
  0.490  0.258  0.252
  0.172  0.742  0.086
    occupations:
  0.910 -0.043  0.026
 -0.043  0.889  0.023
  0.026  0.023  0.915
atom    6   Tr[ns(na)] =   5.42764
    eigenvalues: 
  0.839  0.929  0.946
    eigenvectors:
  0.338  0.000  0.662
  0.503  0.242  0.255
  0.159  0.758  0.083
    occupations:
  0.910  0.044  0.025
  0.044  0.888 -0.023
  0.025 -0.023  0.916
atom    7   Tr[ns(na)] =   5.42764
    eigenvalues: 
  0.839  0.929  0.946
    eigenvectors:
  0.338  0.000  0.662
  0.000  1.000  0.000
  0.662  0.000  0.338
    occupations:
  0.910 -0.001 -0.050
 -0.001  0.929 -0.001
 -0.050 -0.001  0.875
atom    8   Tr[ns(na)] =   5.42760
    eigenvalues: 
  0.839  0.929  0.945
    eigenvectors:
  0.338  0.000  0.662
  0.490  0.258  0.252
  0.172  0.742  0.086
    occupations:
  0.909 -0.043  0.025
 -0.043  0.889  0.024
  0.025  0.024  0.915
atom    9   Tr[ns(na)] =   5.42760
    eigenvalues: 
  0.839  0.929  0.945
    eigenvectors:
  0.338  0.000  0.662
  0.503  0.242  0.255
  0.159  0.758  0.083
    occupations:
  0.909  0.044  0.025
  0.044  0.888 -0.023
  0.025 -0.023  0.916
atom   10   Tr[ns(na)] =   5.42760
    eigenvalues: 
  0.839  0.929  0.945
    eigenvectors:
  0.338  0.000  0.662
  0.000  1.000  0.000
  0.662  0.000  0.338
    occupations:
  0.909 -0.001 -0.050
 -0.001  0.929 -0.001
 -0.050 -0.001  0.875
N of occupied +U levels =  56.3201542
 --- exit write_ns ---
 --- in v_hubbard ---
Hubbard energy    0.1940
 -------

     total cpu time spent up to now is      105.2 secs

     total energy              =    -538.11753386 Ry
     Harris-Foulkes estimate   =    -538.11788298 Ry
     estimated scf accuracy    <       0.00343935 Ry

     iteration #  5     ecut=    30.00 Ry     beta=0.20
     Davidson diagonalization with overlap
     ethr =  4.53E-06,  avg # of iterations =  1.0
 --- enter write_ns ---
 LDA+U parameters:
U( 1)     =  3.00000000
alpha( 1) =  0.00000000
U( 2)     =  0.00000000
alpha( 2) = -0.15000000
U( 3)     =  0.00000000
alpha( 3) =  0.00000000
U( 4)     =  0.00000000
alpha( 4) =  0.00000000
atom    1   Tr[ns(na)] =   8.06045
    eigenvalues: 
  0.534  0.534  0.987  0.987  0.989
    eigenvectors:
  0.000  0.000  0.000  0.000  1.000
  0.337  0.321  0.004  0.338  0.000
  0.321  0.337  0.338  0.004  0.000
  0.284  0.058  0.518  0.141  0.000
  0.058  0.284  0.141  0.518  0.000
    occupations:
  0.989  0.000  0.000  0.000  0.000
  0.000  0.689  0.000 -0.078  0.200
  0.000  0.000  0.689  0.200  0.078
  0.000 -0.078  0.200  0.832  0.000
  0.000  0.200  0.078  0.000  0.832
atom    2   Tr[ns(na)] =   8.05713
    eigenvalues: 
  0.532  0.532  0.987  0.987  0.990
    eigenvectors:
  0.000  0.000  0.000  0.000  1.000
  0.638  0.021  0.219  0.123  0.000
  0.021  0.638  0.123  0.219  0.000
  0.012  0.329  0.474  0.185  0.000
  0.329  0.012  0.185  0.474  0.000
    occupations:
  0.990  0.000  0.000  0.000  0.000
  0.000  0.688  0.000  0.078  0.201
  0.000  0.000  0.688  0.201 -0.078
  0.000  0.078  0.201  0.832  0.000
  0.000  0.201 -0.078  0.000  0.832
atom    3   Tr[ns(na)] =   3.83372
    eigenvalues: 
  0.360  0.360  0.385  0.406  0.406
    eigenvectors:
  0.000  0.000  1.000  0.000  0.000
  0.785  0.138  0.000  0.011  0.066
  0.138  0.785  0.000  0.066  0.011
  0.012  0.065  0.000  0.783  0.140
  0.065  0.012  0.000  0.140  0.783
    occupations:
  0.385  0.000  0.000  0.000  0.000
  0.000  0.364  0.000  0.000  0.012
  0.000  0.000  0.364  0.012  0.000
  0.000  0.000  0.012  0.402  0.000
  0.000  0.012  0.000  0.000  0.402
atom    4   Tr[ns(na)] =   3.79439
    eigenvalues: 
  0.356  0.356  0.382  0.402  0.402
    eigenvectors:
  0.000  0.000  1.000  0.000  0.000
  0.782  0.139  0.000  0.012  0.067
  0.139  0.782  0.000  0.067  0.012
  0.012  0.067  0.000  0.781  0.140
  0.067  0.012  0.000  0.140  0.781
    occupations:
  0.382  0.000  0.000  0.000  0.000
  0.000  0.359  0.000  0.000  0.012
  0.000  0.000  0.359  0.012  0.000
  0.000  0.000  0.012  0.398  0.000
  0.000  0.012  0.000  0.000  0.398
atom    5   Tr[ns(na)] =   5.42869
    eigenvalues: 
  0.840  0.929  0.946
    eigenvectors:
  0.338  0.000  0.662
  0.497  0.251  0.253
  0.166  0.749  0.085
    occupations:
  0.910 -0.043  0.025
 -0.043  0.889  0.023
  0.025  0.023  0.916
atom    6   Tr[ns(na)] =   5.42869
    eigenvalues: 
  0.840  0.929  0.946
    eigenvectors:
  0.338  0.000  0.662
  0.497  0.249  0.254
  0.166  0.751  0.084
    occupations:
  0.910  0.043  0.025
  0.043  0.889 -0.023
  0.025 -0.023  0.916
atom    7   Tr[ns(na)] =   5.42869
    eigenvalues: 
  0.840  0.929  0.946
    eigenvectors:
  0.338  0.000  0.662
  0.000  1.000  0.000
  0.662  0.000  0.338
    occupations:
  0.910  0.000 -0.050
  0.000  0.929  0.000
 -0.050  0.000  0.876
atom    8   Tr[ns(na)] =   5.42869
    eigenvalues: 
  0.840  0.929  0.945
    eigenvectors:
  0.338  0.000  0.662
  0.497  0.251  0.253
  0.166  0.749  0.085
    occupations:
  0.910 -0.043  0.025
 -0.043  0.889  0.023
  0.025  0.023  0.916
atom    9   Tr[ns(na)] =   5.42869
    eigenvalues: 
  0.840  0.929  0.945
    eigenvectors:
  0.338  0.000  0.662
  0.497  0.249  0.254
  0.165  0.751  0.084
    occupations:
  0.910  0.043  0.025
  0.043  0.889 -0.023
  0.025 -0.023  0.916
atom   10   Tr[ns(na)] =   5.42869
    eigenvalues: 
  0.840  0.929  0.945
    eigenvectors:
  0.338  0.000  0.662
  0.000  1.000  0.000
  0.662  0.000  0.338
    occupations:
  0.910  0.000 -0.050
  0.000  0.929  0.000
 -0.050  0.000  0.875
N of occupied +U levels =  56.3178477
 --- exit write_ns ---
 --- in v_hubbard ---
Hubbard energy    0.1922
 -------

     total cpu time spent up to now is      122.9 secs

     total energy              =    -538.11781376 Ry
     Harris-Foulkes estimate   =    -538.11778214 Ry
     estimated scf accuracy    <       0.00011480 Ry

     iteration #  6     ecut=    30.00 Ry     beta=0.20
     Davidson diagonalization with overlap
     ethr =  1.51E-07,  avg # of iterations =  2.0
 --- enter write_ns ---
 LDA+U parameters:
U( 1)     =  3.00000000
alpha( 1) =  0.00000000
U( 2)     =  0.00000000
alpha( 2) = -0.15000000
U( 3)     =  0.00000000
alpha( 3) =  0.00000000
U( 4)     =  0.00000000
alpha( 4) =  0.00000000
atom    1   Tr[ns(na)] =   8.05122
    eigenvalues: 
  0.531  0.531  0.987  0.987  0.989
    eigenvectors:
  0.000  0.000  0.000  0.000  1.000
  0.337  0.321  0.004  0.338  0.000
  0.321  0.337  0.338  0.004  0.000
  0.284  0.058  0.518  0.140  0.000
  0.058  0.284  0.140  0.518  0.000
    occupations:
  0.989  0.000  0.000  0.000  0.000
  0.000  0.687  0.000 -0.079  0.201
  0.000  0.000  0.687  0.201  0.079
  0.000 -0.079  0.201  0.831  0.000
  0.000  0.201  0.079  0.000  0.831
atom    2   Tr[ns(na)] =   8.04839
    eigenvalues: 
  0.530  0.530  0.988  0.988  0.990
    eigenvectors:
  0.000  0.000  0.000  0.000  1.000
  0.638  0.021  0.219  0.122  0.000
  0.021  0.638  0.122  0.219  0.000
  0.013  0.329  0.474  0.185  0.000
  0.329  0.013  0.185  0.474  0.000
    occupations:
  0.990  0.000  0.000  0.000  0.000
  0.000  0.686  0.000  0.079  0.202
  0.000  0.000  0.686  0.202 -0.079
  0.000  0.079  0.202  0.831  0.000
  0.000  0.202 -0.079  0.000  0.831
atom    3   Tr[ns(na)] =   3.83464
    eigenvalues: 
  0.360  0.360  0.386  0.406  0.406
    eigenvectors:
  0.000  0.000  1.000  0.000  0.000
  0.785  0.138  0.000  0.011  0.066
  0.138  0.785  0.000  0.066  0.011
  0.012  0.065  0.000  0.784  0.140
  0.065  0.012  0.000  0.140  0.784
    occupations:
  0.386  0.000  0.000  0.000  0.000
  0.000  0.364  0.000  0.000  0.012
  0.000  0.000  0.364  0.012  0.000
  0.000  0.000  0.012  0.402  0.000
  0.000  0.012  0.000  0.000  0.402
atom    4   Tr[ns(na)] =   3.79471
    eigenvalues: 
  0.356  0.356  0.382  0.402  0.402
    eigenvectors:
  0.000  0.000  1.000  0.000  0.000
  0.782  0.139  0.000  0.012  0.067
  0.139  0.782  0.000  0.067  0.012
  0.012  0.067  0.000  0.781  0.140
  0.067  0.012  0.000  0.140  0.781
    occupations:
  0.382  0.000  0.000  0.000  0.000
  0.000  0.359  0.000  0.000  0.012
  0.000  0.000  0.359  0.012  0.000
  0.000  0.000  0.012  0.398  0.000
  0.000  0.012  0.000  0.000  0.398
atom    5   Tr[ns(na)] =   5.43124
    eigenvalues: 
  0.840  0.929  0.946
    eigenvectors:
  0.338  0.000  0.662
  0.497  0.251  0.253
  0.166  0.749  0.085
    occupations:
  0.910 -0.043  0.025
 -0.043  0.889  0.023
  0.025  0.023  0.916
atom    6   Tr[ns(na)] =   5.43124
    eigenvalues: 
  0.840  0.929  0.946
    eigenvectors:
  0.338  0.000  0.662
  0.497  0.249  0.254
  0.165  0.751  0.084
    occupations:
  0.910  0.043  0.025
  0.043  0.889 -0.023
  0.025 -0.023  0.916
atom    7   Tr[ns(na)] =   5.43124
    eigenvalues: 
  0.840  0.929  0.946
    eigenvectors:
  0.338  0.000  0.662
  0.000  1.000  0.000
  0.662  0.000  0.338
    occupations:
  0.910  0.000 -0.050
  0.000  0.929  0.000
 -0.050  0.000  0.876
atom    8   Tr[ns(na)] =   5.43131
    eigenvalues: 
  0.840  0.930  0.946
    eigenvectors:
  0.338  0.000  0.662
  0.497  0.251  0.253
  0.166  0.749  0.085
    occupations:
  0.910 -0.043  0.025
 -0.043  0.889  0.023
  0.025  0.023  0.916
atom    9   Tr[ns(na)] =   5.43131
    eigenvalues: 
  0.840  0.930  0.946
    eigenvectors:
  0.338  0.000  0.662
  0.497  0.249  0.254
  0.165  0.751  0.084
    occupations:
  0.910  0.043  0.025
  0.043  0.889 -0.023
  0.025 -0.023  0.916
atom   10   Tr[ns(na)] =   5.43131
    eigenvalues: 
  0.840  0.930  0.946
    eigenvectors:
  0.338  0.000  0.662
  0.000  1.000  0.000
  0.662  0.000  0.338
    occupations:
  0.910  0.000 -0.050
  0.000  0.930  0.000
 -0.050  0.000  0.876
N of occupied +U levels =  56.3166010
 --- exit write_ns ---
 --- in v_hubbard ---
Hubbard energy    0.1926
 -------

     total cpu time spent up to now is      144.4 secs

     total energy              =    -538.11789151 Ry
     Harris-Foulkes estimate   =    -538.11783854 Ry
     estimated scf accuracy    <       0.00004834 Ry

     iteration #  7     ecut=    30.00 Ry     beta=0.20
     Davidson diagonalization with overlap
     ethr =  6.36E-08,  avg # of iterations =  2.0
 --- enter write_ns ---
 LDA+U parameters:
U( 1)     =  3.00000000
alpha( 1) =  0.00000000
U( 2)     =  0.00000000
alpha( 2) = -0.15000000
U( 3)     =  0.00000000
alpha( 3) =  0.00000000
U( 4)     =  0.00000000
alpha( 4) =  0.00000000
atom    1   Tr[ns(na)] =   8.05409
    eigenvalues: 
  0.532  0.532  0.987  0.987  0.989
    eigenvectors:
  0.000  0.000  0.000  0.000  1.000
  0.336  0.322  0.004  0.338  0.000
  0.322  0.336  0.338  0.004  0.000
  0.285  0.058  0.517  0.140  0.000
  0.058  0.285  0.140  0.517  0.000
    occupations:
  0.989  0.000  0.000  0.000  0.000
  0.000  0.688  0.000 -0.079  0.201
  0.000  0.000  0.688  0.201  0.079
  0.000 -0.079  0.201  0.831  0.000
  0.000  0.201  0.079  0.000  0.831
atom    2   Tr[ns(na)] =   8.05241
    eigenvalues: 
  0.530  0.530  0.988  0.988  0.990
    eigenvectors:
  0.000  0.000  0.000  0.000  1.000
  0.638  0.020  0.220  0.123  0.000
  0.020  0.638  0.123  0.220  0.000
  0.013  0.329  0.473  0.184  0.000
  0.329  0.013  0.184  0.473  0.000
    occupations:
  0.990  0.000  0.000  0.000  0.000
  0.000  0.687  0.000  0.079  0.202
  0.000  0.000  0.687  0.202 -0.079
  0.000  0.079  0.202  0.831  0.000
  0.000  0.202 -0.079  0.000  0.831
atom    3   Tr[ns(na)] =   3.83694
    eigenvalues: 
  0.361  0.361  0.386  0.406  0.406
    eigenvectors:
  0.000  0.000  1.000  0.000  0.000
  0.785  0.138  0.000  0.011  0.066
  0.138  0.785  0.000  0.066  0.011
  0.012  0.065  0.000  0.783  0.140
  0.065  0.012  0.000  0.140  0.783
    occupations:
  0.386  0.000  0.000  0.000  0.000
  0.000  0.364  0.000  0.000  0.012
  0.000  0.000  0.364  0.012  0.000
  0.000  0.000  0.012  0.402  0.000
  0.000  0.012  0.000  0.000  0.402
atom    4   Tr[ns(na)] =   3.79475
    eigenvalues: 
  0.356  0.356  0.382  0.402  0.402
    eigenvectors:
  0.000  0.000  1.000  0.000  0.000
  0.782  0.139  0.000  0.012  0.068
  0.139  0.782  0.000  0.068  0.012
  0.012  0.067  0.000  0.781  0.140
  0.067  0.012  0.000  0.140  0.781
    occupations:
  0.382  0.000  0.000  0.000  0.000
  0.000  0.360  0.000  0.000  0.012
  0.000  0.000  0.360  0.012  0.000
  0.000  0.000  0.012  0.398  0.000
  0.000  0.012  0.000  0.000  0.398
atom    5   Tr[ns(na)] =   5.42990
    eigenvalues: 
  0.840  0.929  0.946
    eigenvectors:
  0.338  0.000  0.662
  0.496  0.251  0.253
  0.166  0.749  0.085
    occupations:
  0.910 -0.043  0.025
 -0.043  0.889  0.023
  0.025  0.023  0.916
atom    6   Tr[ns(na)] =   5.42990
    eigenvalues: 
  0.840  0.929  0.946
    eigenvectors:
  0.338  0.000  0.662
  0.497  0.249  0.254
  0.165  0.751  0.084
    occupations:
  0.910  0.043  0.025
  0.043  0.889 -0.023
  0.025 -0.023  0.916
atom    7   Tr[ns(na)] =   5.42990
    eigenvalues: 
  0.840  0.929  0.946
    eigenvectors:
  0.338  0.000  0.662
  0.000  1.000  0.000
  0.662  0.000  0.338
    occupations:
  0.910  0.000 -0.050
  0.000  0.929  0.000
 -0.050  0.000  0.876
atom    8   Tr[ns(na)] =   5.42995
    eigenvalues: 
  0.840  0.930  0.945
    eigenvectors:
  0.338  0.000  0.662
  0.496  0.251  0.253
  0.166  0.749  0.085
    occupations:
  0.910 -0.043  0.025
 -0.043  0.889  0.023
  0.025  0.023  0.916
atom    9   Tr[ns(na)] =   5.42995
    eigenvalues: 
  0.840  0.930  0.945
    eigenvectors:
  0.338  0.000  0.662
  0.497  0.249  0.254
  0.165  0.751  0.084
    occupations:
  0.910  0.043  0.025
  0.043  0.889 -0.023
  0.025 -0.023  0.916
atom   10   Tr[ns(na)] =   5.42995
    eigenvalues: 
  0.840  0.930  0.945
    eigenvectors:
  0.338  0.000  0.662
  0.000  1.000  0.000
  0.662  0.000  0.338
    occupations:
  0.910  0.000 -0.050
  0.000  0.930  0.000
 -0.050  0.000  0.876
N of occupied +U levels =  56.3177677
 --- exit write_ns ---
 --- in v_hubbard ---
Hubbard energy    0.1927
 -------

     total cpu time spent up to now is      162.3 secs

     total energy              =    -538.11794301 Ry
     Harris-Foulkes estimate   =    -538.11789845 Ry
     estimated scf accuracy    <       0.00000385 Ry

     iteration #  8     ecut=    30.00 Ry     beta=0.20
     Davidson diagonalization with overlap
     ethr =  5.06E-09,  avg # of iterations =  2.0
 --- enter write_ns ---
 LDA+U parameters:
U( 1)     =  3.00000000
alpha( 1) =  0.00000000
U( 2)     =  0.00000000
alpha( 2) = -0.15000000
U( 3)     =  0.00000000
alpha( 3) =  0.00000000
U( 4)     =  0.00000000
alpha( 4) =  0.00000000
atom    1   Tr[ns(na)] =   8.05372
    eigenvalues: 
  0.532  0.532  0.987  0.987  0.989
    eigenvectors:
  0.000  0.000  0.000  0.000  1.000
  0.337  0.321  0.004  0.338  0.000
  0.321  0.337  0.338  0.004  0.000
  0.284  0.058  0.517  0.140  0.000
  0.058  0.284  0.140  0.517  0.000
    occupations:
  0.989  0.000  0.000  0.000  0.000
  0.000  0.688  0.000 -0.079  0.201
  0.000  0.000  0.688  0.201  0.079
  0.000 -0.079  0.201  0.831  0.000
  0.000  0.201  0.079  0.000  0.831
atom    2   Tr[ns(na)] =   8.05150
    eigenvalues: 
  0.530  0.530  0.988  0.988  0.990
    eigenvectors:
  0.000  0.000  0.000  0.000  1.000
  0.637  0.021  0.220  0.122  0.000
  0.021  0.637  0.122  0.220  0.000
  0.013  0.330  0.473  0.185  0.000
  0.330  0.013  0.185  0.473  0.000
    occupations:
  0.990  0.000  0.000  0.000  0.000
  0.000  0.687  0.000  0.079  0.202
  0.000  0.000  0.687  0.202 -0.079
  0.000  0.079  0.202  0.831  0.000
  0.000  0.202 -0.079  0.000  0.831
atom    3   Tr[ns(na)] =   3.83636
    eigenvalues: 
  0.360  0.360  0.386  0.406  0.406
    eigenvectors:
  0.000  0.000  1.000  0.000  0.000
  0.785  0.138  0.000  0.011  0.066
  0.138  0.785  0.000  0.066  0.011
  0.012  0.065  0.000  0.784  0.140
  0.065  0.012  0.000  0.140  0.784
    occupations:
  0.386  0.000  0.000  0.000  0.000
  0.000  0.364  0.000  0.000  0.012
  0.000  0.000  0.364  0.012  0.000
  0.000  0.000  0.012  0.402  0.000
  0.000  0.012  0.000  0.000  0.402
atom    4   Tr[ns(na)] =   3.79405
    eigenvalues: 
  0.356  0.356  0.382  0.402  0.402
    eigenvectors:
  0.000  0.000  1.000  0.000  0.000
  0.782  0.139  0.000  0.012  0.068
  0.139  0.782  0.000  0.068  0.012
  0.012  0.067  0.000  0.781  0.140
  0.067  0.012  0.000  0.140  0.781
    occupations:
  0.382  0.000  0.000  0.000  0.000
  0.000  0.359  0.000  0.000  0.012
  0.000  0.000  0.359  0.012  0.000
  0.000  0.000  0.012  0.398  0.000
  0.000  0.012  0.000  0.000  0.398
atom    5   Tr[ns(na)] =   5.43023
    eigenvalues: 
  0.840  0.929  0.946
    eigenvectors:
  0.338  0.000  0.662
  0.496  0.251  0.253
  0.166  0.749  0.085
    occupations:
  0.910 -0.043  0.025
 -0.043  0.889  0.023
  0.025  0.023  0.916
atom    6   Tr[ns(na)] =   5.43023
    eigenvalues: 
  0.840  0.929  0.946
    eigenvectors:
  0.338  0.000  0.662
  0.497  0.249  0.254
  0.165  0.751  0.084
    occupations:
  0.910  0.043  0.025
  0.043  0.889 -0.023
  0.025 -0.023  0.916
atom    7   Tr[ns(na)] =   5.43023
    eigenvalues: 
  0.840  0.929  0.946
    eigenvectors:
  0.338  0.000  0.662
  0.000  1.000  0.000
  0.662  0.000  0.338
    occupations:
  0.910  0.000 -0.050
  0.000  0.929  0.000
 -0.050  0.000  0.876
atom    8   Tr[ns(na)] =   5.43028
    eigenvalues: 
  0.840  0.930  0.945
    eigenvectors:
  0.338  0.000  0.662
  0.496  0.251  0.253
  0.166  0.749  0.085
    occupations:
  0.910 -0.043  0.025
 -0.043  0.889  0.023
  0.025  0.023  0.916
atom    9   Tr[ns(na)] =   5.43028
    eigenvalues: 
  0.840  0.930  0.945
    eigenvectors:
  0.338  0.000  0.662
  0.497  0.249  0.254
  0.165  0.751  0.084
    occupations:
  0.910  0.043  0.025
  0.043  0.889 -0.023
  0.025 -0.023  0.916
atom   10   Tr[ns(na)] =   5.43028
    eigenvalues: 
  0.840  0.930  0.945
    eigenvectors:
  0.338  0.000  0.662
  0.000  1.000  0.000
  0.662  0.000  0.338
    occupations:
  0.910  0.000 -0.050
  0.000  0.930  0.000
 -0.050  0.000  0.876
N of occupied +U levels =  56.3171665
 --- exit write_ns ---
 --- in v_hubbard ---
Hubbard energy    0.1928
 -------

     total cpu time spent up to now is      183.0 secs

     total energy              =    -538.11797312 Ry
     Harris-Foulkes estimate   =    -538.11794366 Ry
     estimated scf accuracy    <       0.00000061 Ry

     iteration #  9     ecut=    30.00 Ry     beta=0.20
     Davidson diagonalization with overlap
     ethr =  8.01E-10,  avg # of iterations =  2.0
 --- enter write_ns ---
 LDA+U parameters:
U( 1)     =  3.00000000
alpha( 1) =  0.00000000
U( 2)     =  0.00000000
alpha( 2) = -0.15000000
U( 3)     =  0.00000000
alpha( 3) =  0.00000000
U( 4)     =  0.00000000
alpha( 4) =  0.00000000
atom    1   Tr[ns(na)] =   8.05314
    eigenvalues: 
  0.532  0.532  0.987  0.987  0.989
    eigenvectors:
  0.000  0.000  0.000  0.000  1.000
  0.337  0.321  0.004  0.338  0.000
  0.321  0.337  0.338  0.004  0.000
  0.285  0.058  0.518  0.140  0.000
  0.058  0.285  0.140  0.518  0.000
    occupations:
  0.989  0.000  0.000  0.000  0.000
  0.000  0.687  0.000 -0.079  0.201
  0.000  0.000  0.687  0.201  0.079
  0.000 -0.079  0.201  0.831  0.000
  0.000  0.201  0.079  0.000  0.831
atom    2   Tr[ns(na)] =   8.05109
    eigenvalues: 
  0.530  0.530  0.988  0.988  0.990
    eigenvectors:
  0.000  0.000  0.000  0.000  1.000
  0.638  0.020  0.220  0.122  0.000
  0.020  0.638  0.122  0.220  0.000
  0.013  0.329  0.473  0.184  0.000
  0.329  0.013  0.184  0.473  0.000
    occupations:
  0.990  0.000  0.000  0.000  0.000
  0.000  0.687  0.000  0.079  0.202
  0.000  0.000  0.687  0.202 -0.079
  0.000  0.079  0.202  0.831  0.000
  0.000  0.202 -0.079  0.000  0.831
atom    3   Tr[ns(na)] =   3.83646
    eigenvalues: 
  0.360  0.360  0.386  0.406  0.406
    eigenvectors:
  0.000  0.000  1.000  0.000  0.000
  0.785  0.138  0.000  0.011  0.066
  0.138  0.785  0.000  0.066  0.011
  0.012  0.065  0.000  0.784  0.140
  0.065  0.012  0.000  0.140  0.784
    occupations:
  0.386  0.000  0.000  0.000  0.000
  0.000  0.364  0.000  0.000  0.012
  0.000  0.000  0.364  0.012  0.000
  0.000  0.000  0.012  0.402  0.000
  0.000  0.012  0.000  0.000  0.402
atom    4   Tr[ns(na)] =   3.79399
    eigenvalues: 
  0.356  0.356  0.382  0.402  0.402
    eigenvectors:
  0.000  0.000  1.000  0.000  0.000
  0.781  0.139  0.000  0.012  0.068
  0.139  0.781  0.000  0.068  0.012
  0.013  0.067  0.000  0.781  0.140
  0.067  0.013  0.000  0.140  0.781
    occupations:
  0.382  0.000  0.000  0.000  0.000
  0.000  0.359  0.000  0.000  0.012
  0.000  0.000  0.359  0.012  0.000
  0.000  0.000  0.012  0.398  0.000
  0.000  0.012  0.000  0.000  0.398
atom    5   Tr[ns(na)] =   5.43038
    eigenvalues: 
  0.840  0.929  0.946
    eigenvectors:
  0.338  0.000  0.662
  0.496  0.251  0.253
  0.166  0.749  0.085
    occupations:
  0.910 -0.043  0.025
 -0.043  0.889  0.023
  0.025  0.023  0.916
atom    6   Tr[ns(na)] =   5.43038
    eigenvalues: 
  0.840  0.929  0.946
    eigenvectors:
  0.338  0.000  0.662
  0.497  0.249  0.254
  0.165  0.751  0.084
    occupations:
  0.910  0.043  0.025
  0.043  0.889 -0.023
  0.025 -0.023  0.916
atom    7   Tr[ns(na)] =   5.43038
    eigenvalues: 
  0.840  0.929  0.946
    eigenvectors:
  0.338  0.000  0.662
  0.000  1.000  0.000
  0.662  0.000  0.338
    occupations:
  0.910  0.000 -0.050
  0.000  0.929  0.000
 -0.050  0.000  0.876
atom    8   Tr[ns(na)] =   5.43042
    eigenvalues: 
  0.840  0.930  0.945
    eigenvectors:
  0.338  0.000  0.662
  0.496  0.251  0.253
  0.166  0.749  0.085
    occupations:
  0.910 -0.043  0.025
 -0.043  0.889  0.023
  0.025  0.023  0.916
atom    9   Tr[ns(na)] =   5.43042
    eigenvalues: 
  0.840  0.930  0.945
    eigenvectors:
  0.338  0.000  0.662
  0.497  0.249  0.254
  0.165  0.751  0.084
    occupations:
  0.910  0.043  0.025
  0.043  0.889 -0.023
  0.025 -0.023  0.916
atom   10   Tr[ns(na)] =   5.43042
    eigenvalues: 
  0.840  0.930  0.945
    eigenvectors:
  0.338  0.000  0.662
  0.000  1.000  0.000
  0.662  0.000  0.338
    occupations:
  0.910  0.000 -0.050
  0.000  0.930  0.000
 -0.050  0.000  0.876
N of occupied +U levels =  56.3170771
 --- exit write_ns ---
 --- in v_hubbard ---
Hubbard energy    0.1929
 -------

     total cpu time spent up to now is      204.2 secs

     total energy              =    -538.11799306 Ry
     Harris-Foulkes estimate   =    -538.11797323 Ry
     estimated scf accuracy    <       0.00000041 Ry

     iteration # 10     ecut=    30.00 Ry     beta=0.20
     Davidson diagonalization with overlap
     ethr =  5.39E-10,  avg # of iterations =  1.0
 --- enter write_ns ---
 LDA+U parameters:
U( 1)     =  3.00000000
alpha( 1) =  0.00000000
U( 2)     =  0.00000000
alpha( 2) = -0.15000000
U( 3)     =  0.00000000
alpha( 3) =  0.00000000
U( 4)     =  0.00000000
alpha( 4) =  0.00000000
atom    1   Tr[ns(na)] =   8.05349
    eigenvalues: 
  0.532  0.532  0.987  0.987  0.989
    eigenvectors:
  0.000  0.000  0.000  0.000  1.000
  0.337  0.321  0.004  0.338  0.000
  0.321  0.337  0.338  0.004  0.000
  0.285  0.058  0.518  0.140  0.000
  0.058  0.285  0.140  0.518  0.000
    occupations:
  0.989  0.000  0.000  0.000  0.000
  0.000  0.688  0.000 -0.079  0.201
  0.000  0.000  0.688  0.201  0.079
  0.000 -0.079  0.201  0.831  0.000
  0.000  0.201  0.079  0.000  0.831
atom    2   Tr[ns(na)] =   8.05139
    eigenvalues: 
  0.530  0.530  0.988  0.988  0.990
    eigenvectors:
  0.000  0.000  0.000  0.000  1.000
  0.638  0.020  0.220  0.122  0.000
  0.020  0.638  0.122  0.220  0.000
  0.013  0.329  0.473  0.185  0.000
  0.329  0.013  0.185  0.473  0.000
    occupations:
  0.990  0.000  0.000  0.000  0.000
  0.000  0.687  0.000  0.079  0.202
  0.000  0.000  0.687  0.202 -0.079
  0.000  0.079  0.202  0.831  0.000
  0.000  0.202 -0.079  0.000  0.831
atom    3   Tr[ns(na)] =   3.83640
    eigenvalues: 
  0.360  0.360  0.386  0.406  0.406
    eigenvectors:
  0.000  0.000  1.000  0.000  0.000
  0.785  0.138  0.000  0.011  0.066
  0.138  0.785  0.000  0.066  0.011
  0.012  0.065  0.000  0.783  0.140
  0.065  0.012  0.000  0.140  0.783
    occupations:
  0.386  0.000  0.000  0.000  0.000
  0.000  0.364  0.000  0.000  0.012
  0.000  0.000  0.364  0.012  0.000
  0.000  0.000  0.012  0.402  0.000
  0.000  0.012  0.000  0.000  0.402
atom    4   Tr[ns(na)] =   3.79409
    eigenvalues: 
  0.356  0.356  0.382  0.402  0.402
    eigenvectors:
  0.000  0.000  1.000  0.000  0.000
  0.781  0.140  0.000  0.012  0.068
  0.140  0.781  0.000  0.068  0.012
  0.013  0.067  0.000  0.781  0.140
  0.067  0.013  0.000  0.140  0.781
    occupations:
  0.382  0.000  0.000  0.000  0.000
  0.000  0.359  0.000  0.000  0.012
  0.000  0.000  0.359  0.012  0.000
  0.000  0.000  0.012  0.398  0.000
  0.000  0.012  0.000  0.000  0.398
atom    5   Tr[ns(na)] =   5.43027
    eigenvalues: 
  0.840  0.929  0.946
    eigenvectors:
  0.338  0.000  0.662
  0.496  0.251  0.253
  0.166  0.749  0.085
    occupations:
  0.910 -0.043  0.025
 -0.043  0.889  0.023
  0.025  0.023  0.916
atom    6   Tr[ns(na)] =   5.43027
    eigenvalues: 
  0.840  0.929  0.946
    eigenvectors:
  0.338  0.000  0.662
  0.497  0.249  0.254
  0.165  0.751  0.084
    occupations:
  0.910  0.043  0.025
  0.043  0.889 -0.023
  0.025 -0.023  0.916
atom    7   Tr[ns(na)] =   5.43027
    eigenvalues: 
  0.840  0.929  0.946
    eigenvectors:
  0.338  0.000  0.662
  0.000  1.000  0.000
  0.662  0.000  0.338
    occupations:
  0.910  0.000 -0.050
  0.000  0.929  0.000
 -0.050  0.000  0.876
atom    8   Tr[ns(na)] =   5.43031
    eigenvalues: 
  0.840  0.930  0.945
    eigenvectors:
  0.338  0.000  0.662
  0.496  0.251  0.253
  0.166  0.749  0.085
    occupations:
  0.910 -0.043  0.025
 -0.043  0.889  0.023
  0.025  0.023  0.916
atom    9   Tr[ns(na)] =   5.43031
    eigenvalues: 
  0.840  0.930  0.945
    eigenvectors:
  0.338  0.000  0.662
  0.497  0.249  0.254
  0.165  0.751  0.084
    occupations:
  0.910  0.043  0.025
  0.043  0.889 -0.023
  0.025 -0.023  0.916
atom   10   Tr[ns(na)] =   5.43031
    eigenvalues: 
  0.840  0.930  0.945
    eigenvectors:
  0.338  0.000  0.662
  0.000  1.000  0.000
  0.662  0.000  0.338
    occupations:
  0.910  0.000 -0.050
  0.000  0.930  0.000
 -0.050  0.000  0.876
N of occupied +U levels =  56.3171188
 --- exit write_ns ---
 --- in v_hubbard ---
Hubbard energy    0.1929
 -------

     total cpu time spent up to now is      225.9 secs

     total energy              =    -538.11800566 Ry
     Harris-Foulkes estimate   =    -538.11799311 Ry
     estimated scf accuracy    <       0.00000002 Ry

     iteration # 11     ecut=    30.00 Ry     beta=0.20
     Davidson diagonalization with overlap
     ethr =  2.92E-11,  avg # of iterations =  2.1
 --- enter write_ns ---
 LDA+U parameters:
U( 1)     =  3.00000000
alpha( 1) =  0.00000000
U( 2)     =  0.00000000
alpha( 2) = -0.15000000
U( 3)     =  0.00000000
alpha( 3) =  0.00000000
U( 4)     =  0.00000000
alpha( 4) =  0.00000000
atom    1   Tr[ns(na)] =   8.05340
    eigenvalues: 
  0.532  0.532  0.987  0.987  0.989
    eigenvectors:
  0.000  0.000  0.000  0.000  1.000
  0.337  0.321  0.004  0.338  0.000
  0.321  0.337  0.338  0.004  0.000
  0.285  0.058  0.517  0.140  0.000
  0.058  0.285  0.140  0.517  0.000
    occupations:
  0.989  0.000  0.000  0.000  0.000
  0.000  0.688  0.000 -0.079  0.201
  0.000  0.000  0.688  0.201  0.079
  0.000 -0.079  0.201  0.831  0.000
  0.000  0.201  0.079  0.000  0.831
atom    2   Tr[ns(na)] =   8.05132
    eigenvalues: 
  0.530  0.530  0.988  0.988  0.990
    eigenvectors:
  0.000  0.000  0.000  0.000  1.000
  0.638  0.020  0.220  0.122  0.000
  0.020  0.638  0.122  0.220  0.000
  0.013  0.329  0.473  0.185  0.000
  0.329  0.013  0.185  0.473  0.000
    occupations:
  0.990  0.000  0.000  0.000  0.000
  0.000  0.687  0.000  0.079  0.202
  0.000  0.000  0.687  0.202 -0.079
  0.000  0.079  0.202  0.831  0.000
  0.000  0.202 -0.079  0.000  0.831
atom    3   Tr[ns(na)] =   3.83641
    eigenvalues: 
  0.360  0.360  0.386  0.406  0.406
    eigenvectors:
  0.000  0.000  1.000  0.000  0.000
  0.785  0.138  0.000  0.011  0.066
  0.138  0.785  0.000  0.066  0.011
  0.012  0.065  0.000  0.783  0.140
  0.065  0.012  0.000  0.140  0.783
    occupations:
  0.386  0.000  0.000  0.000  0.000
  0.000  0.364  0.000  0.000  0.012
  0.000  0.000  0.364  0.012  0.000
  0.000  0.000  0.012  0.402  0.000
  0.000  0.012  0.000  0.000  0.402
atom    4   Tr[ns(na)] =   3.79414
    eigenvalues: 
  0.356  0.356  0.382  0.402  0.402
    eigenvectors:
  0.000  0.000  1.000  0.000  0.000
  0.782  0.139  0.000  0.012  0.068
  0.139  0.782  0.000  0.068  0.012
  0.012  0.067  0.000  0.781  0.140
  0.067  0.012  0.000  0.140  0.781
    occupations:
  0.382  0.000  0.000  0.000  0.000
  0.000  0.359  0.000  0.000  0.012
  0.000  0.000  0.359  0.012  0.000
  0.000  0.000  0.012  0.398  0.000
  0.000  0.012  0.000  0.000  0.398
atom    5   Tr[ns(na)] =   5.43029
    eigenvalues: 
  0.840  0.929  0.946
    eigenvectors:
  0.338  0.000  0.662
  0.496  0.251  0.253
  0.166  0.749  0.085
    occupations:
  0.910 -0.043  0.025
 -0.043  0.889  0.023
  0.025  0.023  0.916
atom    6   Tr[ns(na)] =   5.43029
    eigenvalues: 
  0.840  0.929  0.946
    eigenvectors:
  0.338  0.000  0.662
  0.497  0.249  0.254
  0.165  0.751  0.084
    occupations:
  0.910  0.043  0.025
  0.043  0.889 -0.023
  0.025 -0.023  0.916
atom    7   Tr[ns(na)] =   5.43029
    eigenvalues: 
  0.840  0.929  0.946
    eigenvectors:
  0.338  0.000  0.662
  0.000  1.000  0.000
  0.662  0.000  0.338
    occupations:
  0.910  0.000 -0.050
  0.000  0.929  0.000
 -0.050  0.000  0.876
atom    8   Tr[ns(na)] =   5.43033
    eigenvalues: 
  0.840  0.930  0.945
    eigenvectors:
  0.338  0.000  0.662
  0.496  0.251  0.253
  0.166  0.749  0.085
    occupations:
  0.910 -0.043  0.025
 -0.043  0.889  0.023
  0.025  0.023  0.916
atom    9   Tr[ns(na)] =   5.43033
    eigenvalues: 
  0.840  0.930  0.945
    eigenvectors:
  0.338  0.000  0.662
  0.497  0.249  0.254
  0.165  0.751  0.084
    occupations:
  0.910  0.043  0.025
  0.043  0.889 -0.023
  0.025 -0.023  0.916
atom   10   Tr[ns(na)] =   5.43033
    eigenvalues: 
  0.840  0.930  0.945
    eigenvectors:
  0.338  0.000  0.662
  0.000  1.000  0.000
  0.662  0.000  0.338
    occupations:
  0.910  0.000 -0.050
  0.000  0.930  0.000
 -0.050  0.000  0.876
N of occupied +U levels =  56.3171135
 --- exit write_ns ---
 --- in v_hubbard ---
Hubbard energy    0.1930
 -------

     total cpu time spent up to now is      253.3 secs

     total energy              =    -538.11801384 Ry
     Harris-Foulkes estimate   =    -538.11800566 Ry
     estimated scf accuracy    <       0.00000001 Ry

     iteration # 12     ecut=    30.00 Ry     beta=0.20
     Davidson diagonalization with overlap
     ethr =  1.78E-11,  avg # of iterations =  2.0
 --- enter write_ns ---
 LDA+U parameters:
U( 1)     =  3.00000000
alpha( 1) =  0.00000000
U( 2)     =  0.00000000
alpha( 2) = -0.15000000
U( 3)     =  0.00000000
alpha( 3) =  0.00000000
U( 4)     =  0.00000000
alpha( 4) =  0.00000000
atom    1   Tr[ns(na)] =   8.05343
    eigenvalues: 
  0.532  0.532  0.987  0.987  0.989
    eigenvectors:
  0.000  0.000  0.000  0.000  1.000
  0.337  0.321  0.004  0.338  0.000
  0.321  0.337  0.338  0.004  0.000
  0.284  0.058  0.518  0.140  0.000
  0.058  0.284  0.140  0.518  0.000
    occupations:
  0.989  0.000  0.000  0.000  0.000
  0.000  0.688  0.000 -0.079  0.201
  0.000  0.000  0.688  0.201  0.079
  0.000 -0.079  0.201  0.831  0.000
  0.000  0.201  0.079  0.000  0.831
atom    2   Tr[ns(na)] =   8.05135
    eigenvalues: 
  0.530  0.530  0.988  0.988  0.990
    eigenvectors:
  0.000  0.000  0.000  0.000  1.000
  0.638  0.020  0.220  0.122  0.000
  0.020  0.638  0.122  0.220  0.000
  0.013  0.329  0.473  0.185  0.000
  0.329  0.013  0.185  0.473  0.000
    occupations:
  0.990  0.000  0.000  0.000  0.000
  0.000  0.687  0.000  0.079  0.202
  0.000  0.000  0.687  0.202 -0.079
  0.000  0.079  0.202  0.831  0.000
  0.000  0.202 -0.079  0.000  0.831
atom    3   Tr[ns(na)] =   3.83641
    eigenvalues: 
  0.360  0.360  0.386  0.406  0.406
    eigenvectors:
  0.000  0.000  1.000  0.000  0.000
  0.785  0.138  0.000  0.011  0.066
  0.138  0.785  0.000  0.066  0.011
  0.012  0.065  0.000  0.784  0.140
  0.065  0.012  0.000  0.140  0.784
    occupations:
  0.386  0.000  0.000  0.000  0.000
  0.000  0.364  0.000  0.000  0.012
  0.000  0.000  0.364  0.012  0.000
  0.000  0.000  0.012  0.402  0.000
  0.000  0.012  0.000  0.000  0.402
atom    4   Tr[ns(na)] =   3.79411
    eigenvalues: 
  0.356  0.356  0.382  0.402  0.402
    eigenvectors:
  0.000  0.000  1.000  0.000  0.000
  0.782  0.139  0.000  0.012  0.068
  0.139  0.782  0.000  0.068  0.012
  0.012  0.067  0.000  0.781  0.140
  0.067  0.012  0.000  0.140  0.781
    occupations:
  0.382  0.000  0.000  0.000  0.000
  0.000  0.359  0.000  0.000  0.012
  0.000  0.000  0.359  0.012  0.000
  0.000  0.000  0.012  0.398  0.000
  0.000  0.012  0.000  0.000  0.398
atom    5   Tr[ns(na)] =   5.43028
    eigenvalues: 
  0.840  0.929  0.946
    eigenvectors:
  0.338  0.000  0.662
  0.496  0.251  0.253
  0.166  0.749  0.085
    occupations:
  0.910 -0.043  0.025
 -0.043  0.889  0.023
  0.025  0.023  0.916
atom    6   Tr[ns(na)] =   5.43028
    eigenvalues: 
  0.840  0.929  0.946
    eigenvectors:
  0.338  0.000  0.662
  0.497  0.249  0.254
  0.165  0.751  0.084
    occupations:
  0.910  0.043  0.025
  0.043  0.889 -0.023
  0.025 -0.023  0.916
atom    7   Tr[ns(na)] =   5.43028
    eigenvalues: 
  0.840  0.929  0.946
    eigenvectors:
  0.338  0.000  0.662
  0.000  1.000  0.000
  0.662  0.000  0.338
    occupations:
  0.910  0.000 -0.050
  0.000  0.929  0.000
 -0.050  0.000  0.876
atom    8   Tr[ns(na)] =   5.43032
    eigenvalues: 
  0.840  0.930  0.945
    eigenvectors:
  0.338  0.000  0.662
  0.496  0.251  0.253
  0.166  0.749  0.085
    occupations:
  0.910 -0.043  0.025
 -0.043  0.889  0.023
  0.025  0.023  0.916
atom    9   Tr[ns(na)] =   5.43032
    eigenvalues: 
  0.840  0.930  0.945
    eigenvectors:
  0.338  0.000  0.662
  0.497  0.249  0.254
  0.165  0.751  0.084
    occupations:
  0.910  0.043  0.025
  0.043  0.889 -0.023
  0.025 -0.023  0.916
atom   10   Tr[ns(na)] =   5.43032
    eigenvalues: 
  0.840  0.930  0.945
    eigenvectors:
  0.338  0.000  0.662
  0.000  1.000  0.000
  0.662  0.000  0.338
    occupations:
  0.910  0.000 -0.050
  0.000  0.930  0.000
 -0.050  0.000  0.876
N of occupied +U levels =  56.3171049
 --- exit write_ns ---
 --- in v_hubbard ---
Hubbard energy    0.1930
 -------

     total cpu time spent up to now is      276.3 secs

     End of self-consistent calculation

          k = 0.0000 0.0000 0.0000 (  2175 PWs)   bands (ev):

   -19.7828 -19.5937  -6.5694  -5.8798  -5.8798  -5.8738  -5.8738  -5.5447
    -3.8007  -3.2381  -3.2358  -3.2358  -3.0106  -3.0106   5.1642   6.8009
     6.8009   7.1506   7.1506   7.1865   7.4927   7.4927   7.6924   9.1000
     9.2753   9.2903   9.2903   9.6015   9.6015   9.9970   9.9970  10.2257
    10.4346  10.4346  10.6513  11.1126  11.1126  11.5176  11.9501  11.9501
    14.7187  14.7187  15.3664  15.3664  16.1332  16.7230

     occupation numbers 
     0.0313   0.0313   0.0313   0.0313   0.0313   0.0313   0.0313   0.0313
     0.0313   0.0313   0.0313   0.0313   0.0313   0.0313   0.0313   0.0313
     0.0313   0.0313   0.0313   0.0313   0.0313   0.0313   0.0313   0.0313
     0.0313   0.0313   0.0313   0.0312   0.0312   0.0312   0.0312   0.0312
     0.0312   0.0312   0.0312   0.0306   0.0306   0.0233   0.0063   0.0063
     0.0000   0.0000   0.0000   0.0000   0.0000   0.0000

          k =-0.2471-0.1427 0.1027 (  2181 PWs)   bands (ev):

   -19.7601 -19.6235  -6.7494  -6.3387  -5.9839  -5.8908  -5.6564  -5.5269
    -3.6015  -3.3875  -2.9306  -2.8945  -2.8540  -2.7448   5.5103   6.7681
     6.8061   6.8987   6.9250   7.1614   7.2018   7.4516   7.5805   8.2458
     8.2523   8.8084   9.5682   9.6853   9.7042   9.9498  10.1981  10.2172
    10.3788  10.3890  10.4449  11.1897  11.2757  11.2985  12.2774  12.3485
    14.2645  14.2731  15.7591  16.0154  16.9197  17.2159

     occupation numbers 
     0.1875   0.1875   0.1875   0.1875   0.1875   0.1875   0.1875   0.1875
     0.1875   0.1875   0.1875   0.1875   0.1875   0.1875   0.1875   0.1875
     0.1875   0.1875   0.1875   0.1875   0.1875   0.1875   0.1875   0.1875
     0.1875   0.1875   0.1875   0.1875   0.1875   0.1875   0.1875   0.1875
     0.1875   0.1875   0.1875   0.1807   0.1749   0.1728   0.0045   0.0025
     0.0000   0.0000   0.0000   0.0000   0.0000   0.0000

          k = 0.4942 0.2853-0.2053 (  2202 PWs)   bands (ev):

   -19.7325 -19.6586  -6.7769  -6.7326  -6.0023  -5.9921  -5.5628  -5.5565
    -3.3940  -3.3601  -2.7931  -2.7749  -2.5217  -2.4679   5.9363   5.9600
     6.9949   7.0143   7.1428   7.1574   7.3887   7.4112   7.4595   7.4901
     7.7000   7.7252   9.4093   9.4155   9.8303   9.8377  10.2366  10.2466
    10.6065  10.6262  10.7623  10.7823  11.0248  11.0429  13.2495  13.2879
    13.3331  13.3714  16.7585  16.8192  17.0586  17.1176

     occupation numbers 
     0.0938   0.0938   0.0938   0.0938   0.0938   0.0938   0.0938   0.0938
     0.0938   0.0938   0.0938   0.0938   0.0938   0.0938   0.0938   0.0938
     0.0938   0.0938   0.0938   0.0938   0.0938   0.0938   0.0938   0.0938
     0.0938   0.0938   0.0937   0.0937   0.0937   0.0937   0.0937   0.0937
     0.0937   0.0937   0.0937   0.0937   0.0929   0.0927   0.0000   0.0000
     0.0000   0.0000   0.0000   0.0000   0.0000   0.0000

          k =-0.2471 0.1427 0.2053 (  2195 PWs)   bands (ev):

   -19.7585 -19.6309  -6.8711  -6.2667  -6.1045  -5.8915  -5.6983  -5.4996
    -3.4147  -3.2477  -3.1000  -2.8899  -2.8169  -2.5481   5.5375   6.4957
     6.6852   6.8016   7.1318   7.2731   7.3507   7.3993   7.4553   8.3187
     8.3225   8.7138   9.2138   9.3206   9.8458   9.8811   9.9913  10.0654
    10.2400  10.7816  10.9245  10.9380  11.2058  11.2800  11.8672  12.6957
    13.5911  14.7365  15.9349  16.1426  16.9769  17.5017

     occupation numbers 
     0.1875   0.1875   0.1875   0.1875   0.1875   0.1875   0.1875   0.1875
     0.1875   0.1875   0.1875   0.1875   0.1875   0.1875   0.1875   0.1875
     0.1875   0.1875   0.1875   0.1875   0.1875   0.1875   0.1875   0.1875
     0.1875   0.1875   0.1875   0.1875   0.1875   0.1875   0.1875   0.1875
     0.1875   0.1874   0.1869   0.1868   0.1798   0.1745   0.0543   0.0001
     0.0000   0.0000   0.0000   0.0000   0.0000   0.0000

          k = 0.4942 0.5706-0.1027 (  2198 PWs)   bands (ev):

   -19.7436 -19.6566  -6.9797  -6.6819  -6.1557  -5.9289  -5.5568  -5.4181
    -3.3007  -3.2389  -2.8679  -2.6997  -2.5195  -2.3743   5.8051   6.1333
     6.3594   6.8720   7.0758   7.2063   7.2764   7.4543   7.4887   7.6236
     8.0139   8.5822   8.9201   9.2184   9.5336   9.7570   9.8369  10.2899
    10.3399  10.7727  10.8791  10.9572  11.0967  11.2119  12.2701  12.6993
    13.3872  14.3158  16.8548  17.0698  17.2649  17.9679

     occupation numbers 
     0.1875   0.1875   0.1875   0.1875   0.1875   0.1875   0.1875   0.1875
     0.1875   0.1875   0.1875   0.1875   0.1875   0.1875   0.1875   0.1875
     0.1875   0.1875   0.1875   0.1875   0.1875   0.1875   0.1875   0.1875
     0.1875   0.1875   0.1875   0.1875   0.1875   0.1875   0.1875   0.1875
     0.1875   0.1874   0.1871   0.1866   0.1843   0.1794   0.0048   0.0001
     0.0000   0.0000   0.0000   0.0000   0.0000   0.0000

          k = 0.2471 0.4280 0.0000 (  2203 PWs)   bands (ev):

   -19.7437 -19.6504  -6.8733  -6.6809  -6.0829  -6.0128  -5.4804  -5.4079
    -3.5202  -3.2787  -2.7921  -2.7042  -2.5561  -2.5527   5.8172   6.1470
     6.6488   6.9722   7.0292   7.1053   7.3182   7.3330   7.3897   7.7191
     7.9167   8.8650   8.8768   9.3391   9.7131   9.7337  10.0157  10.3133
    10.5926  10.6298  10.7865  10.9100  10.9243  11.3017  12.1866  13.2782
    13.3564  14.1105  16.3840  16.9483  17.3779  17.8886

     occupation numbers 
     0.1875   0.1875   0.1875   0.1875   0.1875   0.1875   0.1875   0.1875
     0.1875   0.1875   0.1875   0.1875   0.1875   0.1875   0.1875   0.1875
     0.1875   0.1875   0.1875   0.1875   0.1875   0.1875   0.1875   0.1875
     0.1875   0.1875   0.1875   0.1875   0.1875   0.1875   0.1875   0.1875
     0.1875   0.1875   0.1874   0.1870   0.1869   0.1725   0.0091   0.0000
     0.0000   0.0000   0.0000   0.0000   0.0000   0.0000

          k = 0.4942-0.2853-0.4107 (  2202 PWs)   bands (ev):

   -19.7524 -19.6573  -7.1802  -6.4677  -6.2531  -6.0408  -5.5734  -5.3212
    -3.1841  -3.0985  -3.0386  -2.6395  -2.4725  -2.2116   5.7260   5.8281
     6.1420   6.7896   7.1081   7.2138   7.2883   7.4539   7.9555   7.9628
     8.1121   8.2825   8.5789   9.3603   9.3929   9.6534  10.0074  10.0395
    10.3876  10.6814  10.8434  10.9910  11.1223  11.3442  11.8085  12.3780
    13.2902  14.7508  16.9905  17.2223  17.4572  17.5862

     occupation numbers 
     0.0938   0.0938   0.0938   0.0938   0.0938   0.0938   0.0938   0.0938
     0.0938   0.0938   0.0938   0.0938   0.0938   0.0938   0.0938   0.0938
     0.0938   0.0938   0.0938   0.0938   0.0938   0.0938   0.0938   0.0938
     0.0938   0.0938   0.0938   0.0937   0.0937   0.0937   0.0937   0.0937
     0.0937   0.0937   0.0936   0.0931   0.0917   0.0840   0.0340   0.0009
     0.0000   0.0000   0.0000   0.0000   0.0000   0.0000

          k = 0.0000 0.0000 0.3080 (  2187 PWs)   bands (ev):

   -19.7599 -19.6243  -6.6372  -6.0356  -5.9785  -5.9684  -5.8799  -5.8796
    -3.2047  -3.1451  -3.1050  -2.9488  -2.9032  -2.8682   5.5774   6.8565
     6.8889   6.8948   7.0833   7.1381   7.1496   7.4638   7.4724   8.4275
     8.4296   8.8370   9.4181   9.5125   9.5142   9.7031  10.0832  10.0888
    10.4180  10.4199  10.6409  11.2370  11.2386  11.2935  12.2492  12.2504
    14.2228  14.2269  15.8484  15.8605  16.8221  17.4316

     occupation numbers 
     0.0625   0.0625   0.0625   0.0625   0.0625   0.0625   0.0625   0.0625
     0.0625   0.0625   0.0625   0.0625   0.0625   0.0625   0.0625   0.0625
     0.0625   0.0625   0.0625   0.0625   0.0625   0.0625   0.0625   0.0625
     0.0625   0.0625   0.0625   0.0625   0.0625   0.0625   0.0625   0.0625
     0.0625   0.0625   0.0625   0.0593   0.0592   0.0578   0.0019   0.0019
     0.0000   0.0000   0.0000   0.0000   0.0000   0.0000

          k = 0.7412 0.4280 0.0000 (  2204 PWs)   bands (ev):

   -19.7436 -19.6512  -6.7603  -6.6440  -6.1764  -5.8679  -5.7160  -5.5888
    -3.1759  -3.0890  -3.0262  -2.6783  -2.6388  -2.5748   5.8580   6.4079
     6.5445   6.9898   7.0615   7.2070   7.2402   7.3725   7.4452   7.6650
     8.0031   8.6721   8.9422   9.4263   9.5052   9.6488   9.8043  10.1948
    10.5993  10.7400  10.8025  10.9821  11.0189  11.1213  12.1860  13.1998
    13.2719  14.1375  16.6345  16.6801  17.5479  17.7592

     occupation numbers 
     0.1875   0.1875   0.1875   0.1875   0.1875   0.1875   0.1875   0.1875
     0.1875   0.1875   0.1875   0.1875   0.1875   0.1875   0.1875   0.1875
     0.1875   0.1875   0.1875   0.1875   0.1875   0.1875   0.1875   0.1875
     0.1875   0.1875   0.1875   0.1875   0.1875   0.1875   0.1875   0.1875
     0.1875   0.1874   0.1873   0.1864   0.1859   0.1835   0.0091   0.0000
     0.0000   0.0000   0.0000   0.0000   0.0000   0.0000

          k = 0.4942 0.2853 0.1027 (  2211 PWs)   bands (ev):

   -19.7438 -19.6564  -6.9955  -6.5825  -6.3478  -5.7407  -5.6588  -5.3934
    -3.3125  -3.1515  -3.0243  -2.5968  -2.5507  -2.3666   5.8398   6.1154
     6.3061   6.8587   7.0976   7.1305   7.3228   7.4052   7.5652   7.6166
     8.0532   8.6362   8.9149   9.3484   9.3823   9.6233   9.9498  10.2018
    10.4225  10.8417  10.9761  10.9946  11.0347  11.0662  12.2254  12.7130
    13.4339  14.2974  16.8318  16.8959  17.5362  17.8797

     occupation numbers 
     0.1875   0.1875   0.1875   0.1875   0.1875   0.1875   0.1875   0.1875
     0.1875   0.1875   0.1875   0.1875   0.1875   0.1875   0.1875   0.1875
     0.1875   0.1875   0.1875   0.1875   0.1875   0.1875   0.1875   0.1875
     0.1875   0.1875   0.1875   0.1875   0.1875   0.1875   0.1875   0.1875
     0.1875   0.1872   0.1864   0.1862   0.1856   0.1850   0.0068   0.0000
     0.0000   0.0000   0.0000   0.0000   0.0000   0.0000

          k = 0.7412-0.4280-0.3080 (  2210 PWs)   bands (ev):

   -19.7439 -19.6570  -6.9327  -6.4923  -6.3251  -5.8336  -5.8008  -5.5190
    -3.0604  -3.0473  -2.9518  -2.7191  -2.6151  -2.4182   5.9178   6.2641
     6.3481   6.8341   7.0677   7.1826   7.3564   7.4403   7.6019   7.6352
     8.0263   8.6483   8.7960   9.3428   9.4470   9.4681   9.6172  10.1355
    10.4663  10.8439  10.9394  10.9827  11.1063  11.1274  12.1837  12.6654
    13.3825  14.2669  17.0141  17.0208  17.5055  17.8512

     occupation numbers 
     0.1875   0.1875   0.1875   0.1875   0.1875   0.1875   0.1875   0.1875
     0.1875   0.1875   0.1875   0.1875   0.1875   0.1875   0.1875   0.1875
     0.1875   0.1875   0.1875   0.1875   0.1875   0.1875   0.1875   0.1875
     0.1875   0.1875   0.1875   0.1875   0.1875   0.1875   0.1875   0.1875
     0.1875   0.1872   0.1868   0.1864   0.1840   0.1833   0.0093   0.0001
     0.0000   0.0000   0.0000   0.0000   0.0000   0.0000

          k = 0.4942-0.5706-0.2053 (  2206 PWs)   bands (ev):

   -19.7465 -19.6598  -6.9158  -6.9041  -6.0670  -6.0600  -5.4659  -5.4622
    -3.1492  -3.1251  -2.8275  -2.7860  -2.3764  -2.3702   5.9869   5.9982
     6.4838   6.5063   6.9878   6.9929   7.2845   7.3060   7.6327   7.6616
     8.6371   8.6444   8.7690   8.7873   9.4745   9.4765  10.0210  10.0228
    10.6328  10.6375  10.8357  10.8438  11.1628  11.1695  12.2354  12.2398
    13.9608  13.9709  17.3811  17.3856  17.8316  17.8356

     occupation numbers 
     0.1875   0.1875   0.1875   0.1875   0.1875   0.1875   0.1875   0.1875
     0.1875   0.1875   0.1875   0.1875   0.1875   0.1875   0.1875   0.1875
     0.1875   0.1875   0.1875   0.1875   0.1875   0.1875   0.1875   0.1875
     0.1875   0.1875   0.1875   0.1875   0.1875   0.1875   0.1875   0.1875
     0.1875   0.1875   0.1873   0.1872   0.1819   0.1816   0.0063   0.0061
     0.0000   0.0000   0.0000   0.0000   0.0000   0.0000

          k = 0.0000 0.0000-0.6160 (  2186 PWs)   bands (ev):

   -19.7331 -19.6593  -6.5692  -6.5180  -5.9948  -5.9948  -5.9562  -5.9562
    -2.9142  -2.9142  -2.8609  -2.8609  -2.7226  -2.6607   6.1755   6.2004
     7.0563   7.0563   7.0757   7.0757   7.3836   7.4077   7.6452   7.6452
     7.6718   7.6718   9.5624   9.5624   9.5713   9.5713   9.6452   9.6566
    10.8242  10.8422  10.9125  10.9125  10.9317  10.9317  13.1877  13.1877
    13.2255  13.2255  17.0417  17.0417  17.1048  17.1048

     occupation numbers 
     0.0313   0.0313   0.0313   0.0313   0.0313   0.0313   0.0313   0.0313
     0.0313   0.0313   0.0313   0.0313   0.0313   0.0313   0.0313   0.0313
     0.0313   0.0313   0.0313   0.0313   0.0313   0.0313   0.0313   0.0313
     0.0313   0.0313   0.0312   0.0312   0.0312   0.0312   0.0312   0.0312
     0.0312   0.0312   0.0312   0.0312   0.0311   0.0311   0.0000   0.0000
     0.0000   0.0000   0.0000   0.0000   0.0000   0.0000

          k = 0.4942-0.5706 0.1027 (  2198 PWs)   bands (ev):

   -19.7436 -19.6566  -6.9802  -6.6811  -6.1568  -5.9278  -5.5577  -5.4174
    -3.3014  -3.2389  -2.8681  -2.6987  -2.5201  -2.3739   5.8025   6.1394
     6.3539   6.8738   7.0771   7.2080   7.2869   7.4416   7.4732   7.6361
     8.0171   8.5856   8.9172   9.2177   9.5311   9.7571   9.8368  10.2921
    10.3395  10.7666  10.8852  10.9556  11.1036  11.2069  12.2699  12.6990
    13.3871  14.3155  16.8566  17.0670  17.2655  17.9685

     occupation numbers 
     0.1875   0.1875   0.1875   0.1875   0.1875   0.1875   0.1875   0.1875
     0.1875   0.1875   0.1875   0.1875   0.1875   0.1875   0.1875   0.1875
     0.1875   0.1875   0.1875   0.1875   0.1875   0.1875   0.1875   0.1875
     0.1875   0.1875   0.1875   0.1875   0.1875   0.1875   0.1875   0.1875
     0.1875   0.1874   0.1871   0.1866   0.1841   0.1797   0.0048   0.0001
     0.0000   0.0000   0.0000   0.0000   0.0000   0.0000

     the Fermi energy is    11.7072 ev

!    total energy              =    -538.11802825 Ry
     Harris-Foulkes estimate   =    -538.11801384 Ry
     estimated scf accuracy    <          2.9E-09 Ry

     The total energy is the sum of the following terms:

     one-electron contribution =     -32.86153568 Ry
     hartree contribution      =      83.60522074 Ry
     xc contribution           =    -199.59822408 Ry
     ewald contribution        =    -389.44315552 Ry
     Hubbard energy            =       0.19295216 Ry
     smearing contrib. (-TS)   =      -0.01328587 Ry

     convergence has been achieved in  12 iterations

     init_run     :      7.50s CPU      7.82s WALL (       1 calls)
     electrons    :    259.08s CPU    267.80s WALL (       1 calls)

     Called by init_run:
     wfcinit      :      0.00s CPU      0.00s WALL (       1 calls)
     potinit      :      0.37s CPU      0.39s WALL (       1 calls)

     Called by electrons:
     c_bands      :    168.22s CPU    172.48s WALL (      12 calls)
     sum_band     :     51.89s CPU     53.77s WALL (      12 calls)
     v_of_rho     :      4.74s CPU      4.80s WALL (      13 calls)
     v_h          :      0.36s CPU      0.36s WALL (      13 calls)
     v_xc         :      4.38s CPU      4.43s WALL (      13 calls)
     newd         :     34.87s CPU     35.61s WALL (      13 calls)
     mix_rho      :      0.57s CPU      0.57s WALL (      12 calls)

     Called by c_bands:
     init_us_2    :      1.47s CPU      1.46s WALL (     336 calls)
     cegterg      :    164.33s CPU    168.32s WALL (     168 calls)

     Called by sum_band:
     sum_band:bec :      0.12s CPU      0.13s WALL (     168 calls)
     addusdens    :     21.60s CPU     21.82s WALL (      12 calls)

     Called by *egterg:
     h_psi        :    127.37s CPU    130.61s WALL (     668 calls)
     s_psi        :      5.64s CPU      5.66s WALL (     668 calls)
     g_psi        :      0.42s CPU      0.42s WALL (     500 calls)
     cdiaghg      :      8.37s CPU      8.49s WALL (     654 calls)
     cegterg:over :      8.06s CPU      8.24s WALL (     500 calls)
     cegterg:upda :      4.29s CPU      4.29s WALL (     500 calls)
     cegterg:last :      3.13s CPU      3.20s WALL (     194 calls)

     Called by h_psi:
     h_psi:vloc   :    105.25s CPU    108.15s WALL (     668 calls)
     h_psi:vnl    :     12.75s CPU     12.86s WALL (     668 calls)
     add_vuspsi   :      5.77s CPU      5.78s WALL (     668 calls)
     vhpsi        :      9.11s CPU      9.33s WALL (     668 calls)

     General routines
     calbec       :     16.36s CPU     16.87s WALL (    1672 calls)
     fft          :      7.29s CPU      7.99s WALL (     203 calls)
     ffts         :      0.15s CPU      0.19s WALL (      25 calls)
     fftw         :    102.54s CPU    106.33s WALL (   47548 calls)
     interpolate  :      0.67s CPU      1.08s WALL (      25 calls)
     davcio       :      0.01s CPU      0.49s WALL (     350 calls)

     Parallel routines
     fft_scatter  :     53.43s CPU     57.82s WALL (   47776 calls)
     Hubbard U routines
     new_ns       :      1.34s CPU      1.69s WALL (      12 calls)
     vhpsi        :      9.11s CPU      9.33s WALL (     668 calls)

     PWSCF        :  4m27.02s CPU     4m36.48s WALL


   This run was terminated on:  14:49:44  11Nov2012            

=------------------------------------------------------------------------------=
