   JOB DONE.
=------------------------------------------------------------------------------=

     Program PWSCF v.5.0.1 starts on 11Nov2012 at 15: 4: 7 

     This program is part of the open-source Quantum ESPRESSO suite
     for quantum simulation of materials; please cite
         "P. Giannozzi et al., J. Phys.:Condens. Matter 21 395502 (2009);
          URL http://www.quantum-espresso.org", 
     in publications or presentations arising from this work. More details at
     http://www.quantum-espresso.org/quote.php

     Parallel version (MPI), running on     2 processors
     R & G space division:  proc/pool =    2

     Current dimensions of program PWSCF are:
     Max number of different atomic species (ntypx) = 10
     Max number of k-points (npk) =  40000
     Max angular momentum in pseudopotentials (lmaxx) =  3
     Reading input from CoLaO_U300_a5.in
               file Co.pbe-nd-rrkjus.UPF: wavefunction(s)  4S 3D renormalized
               file O.pbe-rrkjus.UPF: wavefunction(s)  2S renormalized

     Subspace diagonalization in iterative solution of the eigenvalue problem:
     a serial algorithm will be used


     Parallelization info
     --------------------
     sticks:   dense  smooth     PW     G-vecs:    dense   smooth      PW
     Min        1112     444    131                34808     8786    1448
     Max        1113     445    132                34809     8787    1449
     Sum        2225     889    263                69617    17573    2897


     Title: 
     GGA + U, U = 3.000, alpha = 0.050                                          


     bravais-lattice index     =            5
     lattice parameter (alat)  =      10.3292  a.u.
     unit-cell volume          =     793.0599 (a.u.)^3
     number of atoms/cell      =           10
     number of atomic types    =            4
     number of electrons       =        76.00
     number of Kohn-Sham states=           46
     kinetic-energy cutoff     =      30.0000  Ry
     charge density cutoff     =     300.0000  Ry
     convergence threshold     =      1.0E-08
     mixing beta               =       0.2000
     number of iterations used =            8  plain     mixing
     Exchange-correlation      =  SLA  PW   PBE  PBE ( 1 4 3 4 0)
     EXX-fraction              =        0.00

     celldm(1)=  10.329242  celldm(2)=   0.000000  celldm(3)=   0.000000
     celldm(4)=   0.488100  celldm(5)=   0.000000  celldm(6)=   0.000000

     crystal axes: (cart. coord. in units of alat)
               a(1) = (   0.505915  -0.292090   0.811624 )  
               a(2) = (   0.000000   0.584180   0.811624 )  
               a(3) = (  -0.505915  -0.292090   0.811624 )  

     reciprocal axes: (cart. coord. in units 2 pi/alat)
               b(1) = (  0.988308 -0.570600  0.410699 )  
               b(2) = (  0.000000  1.141200  0.410699 )  
               b(3) = ( -0.988308 -0.570600  0.410699 )  


     PseudoPot. # 1 for Co read from file:
     /home/mcurnan/dft-course/Project1/example_LaCoO3/Co.pbe-nd-rrkjus.UPF
     MD5 check sum: 3e47a84addf5e975e0edeaeee2a73f59
     Pseudo is Ultrasoft + core correction, Zval =  9.0
     Generated by new atomic code, or converted to UPF format
     Using radial grid of  961 points,  6 beta functions with: 
                l(1) =   0
                l(2) =   0
                l(3) =   1
                l(4) =   1
                l(5) =   2
                l(6) =   2
     Q(r) pseudized with 0 coefficients 


     PseudoPot. # 2 for La read from file:
     /home/mcurnan/dft-course/Project1/example_LaCoO3/La.pbe-nsp-van.UPF
     MD5 check sum: b2f11743f52dde65f77d1302becd7929
     Pseudo is Ultrasoft + core correction, Zval = 11.0
     Generated by new atomic code, or converted to UPF format
     Using radial grid of  907 points,  6 beta functions with: 
                l(1) =   0
                l(2) =   0
                l(3) =   1
                l(4) =   1
                l(5) =   2
                l(6) =   2
     Q(r) pseudized with  6 coefficients,  rinner =    1.200   1.200   1.200
                                                       1.200   1.200

     PseudoPot. # 3 for La read from file:
     /home/mcurnan/dft-course/Project1/example_LaCoO3/La.pbe-nsp-van.UPF
     MD5 check sum: b2f11743f52dde65f77d1302becd7929
     Pseudo is Ultrasoft + core correction, Zval = 11.0
     Generated by new atomic code, or converted to UPF format
     Using radial grid of  907 points,  6 beta functions with: 
                l(1) =   0
                l(2) =   0
                l(3) =   1
                l(4) =   1
                l(5) =   2
                l(6) =   2
     Q(r) pseudized with  6 coefficients,  rinner =    1.200   1.200   1.200
                                                       1.200   1.200

     PseudoPot. # 4 for O  read from file:
     /home/mcurnan/dft-course/Project1/example_LaCoO3/O.pbe-rrkjus.UPF
     MD5 check sum: 390ba29e75625707450f3bd3f0eb6be9
     Pseudo is Ultrasoft, Zval =  6.0
     Generated by new atomic code, or converted to UPF format
     Using radial grid of 1269 points,  4 beta functions with: 
                l(1) =   0
                l(2) =   0
                l(3) =   1
                l(4) =   1
     Q(r) pseudized with 0 coefficients 


     atomic species   valence    mass     pseudopotential
        Co1            9.00     1.00000     Co( 1.00)
        La1           11.00     1.00000     La( 1.00)
        La2           11.00     1.00000     La( 1.00)
        O1             6.00     1.00000     O ( 1.00)
 -----
     simplified LDA+U calculation, Hubbard_lmax = 2
     atomic species  L   Hubbard U  Hubbard alpha
        Co1          2    3.000000    0.000000
        La1          2    0.000000    0.050000
        La2          2    0.000000    0.000000
        O1           1    0.000000    0.000000
 -----

      3 Sym. Ops. (no inversion) found


                                    s                        frac. trans.

      isym =  1     identity                                     

 cryst.   s( 1) = (     1          0          0      )
                  (     0          1          0      )
                  (     0          0          1      )

 cart.    s( 1) = (  1.0000000  0.0000000  0.0000000 )
                  (  0.0000000  1.0000000  0.0000000 )
                  (  0.0000000  0.0000000  1.0000000 )


      isym =  2     120 deg rotation - cryst. axis [0,0,1]       

 cryst.   s( 2) = (     0          1          0      )
                  (     0          0          1      )
                  (     1          0          0      )

 cart.    s( 2) = ( -0.5000000 -0.8660254  0.0000000 )
                  (  0.8660254 -0.5000000  0.0000000 )
                  (  0.0000000  0.0000000  1.0000000 )


      isym =  3     120 deg rotation - cryst. axis [0,0,-1]      

 cryst.   s( 3) = (     0          0          1      )
                  (     1          0          0      )
                  (     0          1          0      )

 cart.    s( 3) = ( -0.5000000  0.8660254  0.0000000 )
                  ( -0.8660254 -0.5000000  0.0000000 )
                  (  0.0000000  0.0000000  1.0000000 )


     point group C_3 (3)    
     there are  3 classes
     the character table:

       E     C3    C3^2 
A      1.00  1.00  1.00
E      1.00 -0.50 -0.50
E*     1.00 -0.50 -0.50
     imaginary part
A      0.00  0.00  0.00
E      0.00  0.87 -0.87
E*     0.00 -0.87  0.87

     the symmetry operations in each class:
     E        1
     C3       2
     C3^2     3

   Cartesian axes

     site n.     atom                  positions (alat units)
         1           Co1 tau(   1) = (   0.0000000   0.0000000   1.8261537  )
         2           Co1 tau(   2) = (   0.0000000   0.0000000   0.6087179  )
         3           La1 tau(   3) = (   0.0000000   0.0000000   0.0000000  )
         4           La2 tau(   4) = (   0.0000000   0.0000000   1.2174358  )
         5           O1  tau(   5) = (   0.2831100  -0.0928263   1.6236536  )
         6           O1  tau(   6) = (  -0.2219449  -0.1987674   1.6236536  )
         7           O1  tau(   7) = (  -0.0611651   0.2915936   1.6236536  )
         8           O1  tau(   8) = (   0.2228050   0.3849164   1.2170300  )
         9           O1  tau(   9) = (   0.2219449  -0.3854130   1.2170300  )
        10           O1  tau(  10) = (  -0.4447499   0.0004966   1.2170300  )

   Crystallographic axes

     site n.     atom                  positions (cryst. coord.)
         1           Co1 tau(   1) = (  0.7500000  0.7500000  0.7500000  )
         2           Co1 tau(   2) = (  0.2500000  0.2500000  0.2500000  )
         3           La1 tau(   3) = (  0.0000000  0.0000000  0.0000000  )
         4           La2 tau(   4) = (  0.5000000  0.5000000  0.5000000  )
         5           O1  tau(   5) = (  0.9996000  0.5609000  0.4400000  )
         6           O1  tau(   6) = (  0.5609000  0.4400000  0.9996000  )
         7           O1  tau(   7) = (  0.4400000  0.9996000  0.5609000  )
         8           O1  tau(   8) = (  0.5004000  0.9391000  0.0600000  )
         9           O1  tau(   9) = (  0.9391000  0.0600000  0.5004000  )
        10           O1  tau(  10) = (  0.0600000  0.5004000  0.9391000  )

     number of k points=    14  gaussian smearing, width (Ry)=  0.0300
                       cart. coord. in units 2pi/alat
        k(    1) = (   0.0000000   0.0000000   0.0000000), wk =   0.0312500
        k(    2) = (  -0.2470771  -0.1426500   0.1026748), wk =   0.1875000
        k(    3) = (   0.4941541   0.2853000  -0.2053496), wk =   0.0937500
        k(    4) = (  -0.2470771   0.1426500   0.2053496), wk =   0.1875000
        k(    5) = (   0.4941541   0.5706001  -0.1026748), wk =   0.1875000
        k(    6) = (   0.2470771   0.4279500   0.0000000), wk =   0.1875000
        k(    7) = (   0.4941541  -0.2853000  -0.4106993), wk =   0.0937500
        k(    8) = (   0.0000000   0.0000000   0.3080244), wk =   0.0625000
        k(    9) = (   0.7412312   0.4279500   0.0000000), wk =   0.1875000
        k(   10) = (   0.4941541   0.2853000   0.1026748), wk =   0.1875000
        k(   11) = (   0.7412312  -0.4279500  -0.3080244), wk =   0.1875000
        k(   12) = (   0.4941541  -0.5706001  -0.2053496), wk =   0.1875000
        k(   13) = (   0.0000000   0.0000000  -0.6160489), wk =   0.0312500
        k(   14) = (   0.4941541  -0.5706001   0.1026748), wk =   0.1875000

                       cryst. coord.
        k(    1) = (   0.0000000   0.0000000   0.0000000), wk =   0.0312500
        k(    2) = (   0.0000000   0.0000000   0.2500000), wk =   0.1875000
        k(    3) = (   0.0000000   0.0000000  -0.5000000), wk =   0.0937500
        k(    4) = (   0.0000000   0.2500000   0.2500000), wk =   0.1875000
        k(    5) = (   0.0000000   0.2500000  -0.5000000), wk =   0.1875000
        k(    6) = (   0.0000000   0.2500000  -0.2500000), wk =   0.1875000
        k(    7) = (   0.0000000  -0.5000000  -0.5000000), wk =   0.0937500
        k(    8) = (   0.2500000   0.2500000   0.2500000), wk =   0.0625000
        k(    9) = (   0.2500000   0.2500000  -0.5000000), wk =   0.1875000
        k(   10) = (   0.2500000   0.2500000  -0.2500000), wk =   0.1875000
        k(   11) = (   0.2500000  -0.5000000  -0.5000000), wk =   0.1875000
        k(   12) = (   0.2500000  -0.5000000  -0.2500000), wk =   0.1875000
        k(   13) = (  -0.5000000  -0.5000000  -0.5000000), wk =   0.0312500
        k(   14) = (   0.5000000  -0.2500000   0.0000000), wk =   0.1875000

     Dense  grid:    69617 G-vectors     FFT dimensions: (  60,  60,  60)

     Smooth grid:    17573 G-vectors     FFT dimensions: (  40,  40,  40)

     Largest allocated arrays     est. size (Mb)     dimensions
        Kohn-Sham Wavefunctions         0.78 Mb     (   1117,   46)
        Atomic wavefunctions            1.06 Mb     (   1117,   62)
        NL pseudopotentials             2.05 Mb     (   1117,  120)
        Each V/rho on FFT grid          1.65 Mb     ( 108000)
        Each G-vector array             0.27 Mb     (  34808)
        G-vector shells                 0.04 Mb     (   4682)
     Largest temporary arrays     est. size (Mb)     dimensions
        Auxiliary wavefunctions         3.14 Mb     (   1117,  184)
        Each subspace H/S matrix        0.52 Mb     ( 184, 184)
        Each <psi_i|beta_j> matrix      0.08 Mb     (    120,   46)
        Arrays for rho mixing          13.18 Mb     ( 108000,   8)

     Check: negative/imaginary core charge=   -0.000028    0.000000

     The initial density is read from file :
     /home/mcurnan/dft-course/Project1/example_LaCoO3/300/La/alpha/CoLaO_U300.save/charge-density.dat

 --- in v_hubbard ---
Hubbard energy    0.3010
 -------
     Number of +U iterations with fixed ns =  0
     Starting occupations:
 --- enter write_ns ---
 LDA+U parameters:
U( 1)     =  3.00000000
alpha( 1) =  0.00000000
U( 2)     =  0.00000000
alpha( 2) =  0.05000000
U( 3)     =  0.00000000
alpha( 3) =  0.00000000
U( 4)     =  0.00000000
alpha( 4) =  0.00000000
atom    1   Tr[ns(na)] =   8.02205
    eigenvalues: 
  0.596  0.596  0.938  0.941  0.941
    eigenvectors:
  0.000  0.000  1.000  0.000  0.000
  0.334  0.321  0.000  0.004  0.341
  0.321  0.334  0.000  0.341  0.004
  0.288  0.057  0.000  0.515  0.140
  0.057  0.288  0.000  0.140  0.515
    occupations:
  0.938  0.000  0.000  0.000  0.000
  0.000  0.715  0.000 -0.060  0.152
  0.000  0.000  0.715  0.152  0.060
  0.000 -0.060  0.152  0.822  0.000
  0.000  0.152  0.060  0.000  0.822
atom    2   Tr[ns(na)] =   8.02143
    eigenvalues: 
  0.595  0.595  0.938  0.941  0.941
    eigenvectors:
  0.000  0.000  1.000  0.000  0.000
  0.638  0.017  0.000  0.223  0.122
  0.017  0.638  0.000  0.122  0.223
  0.015  0.330  0.000  0.470  0.185
  0.330  0.015  0.000  0.185  0.470
    occupations:
  0.938  0.000  0.000  0.000  0.000
  0.000  0.715  0.000  0.060  0.153
  0.000  0.000  0.715  0.153 -0.060
  0.000  0.060  0.153  0.822  0.000
  0.000  0.153 -0.060  0.000  0.822
atom    3   Tr[ns(na)] =   3.80283
    eigenvalues: 
  0.355  0.355  0.384  0.403  0.403
    eigenvectors:
  0.000  0.000  1.000  0.000  0.000
  0.781  0.140  0.000  0.012  0.068
  0.140  0.781  0.000  0.068  0.012
  0.013  0.067  0.000  0.780  0.140
  0.067  0.013  0.000  0.140  0.780
    occupations:
  0.384  0.000  0.000  0.000  0.000
  0.000  0.359  0.000  0.000  0.013
  0.000  0.000  0.359  0.013  0.000
  0.000  0.000  0.013  0.399  0.000
  0.000  0.013  0.000  0.000  0.399
atom    4   Tr[ns(na)] =   3.80283
    eigenvalues: 
  0.355  0.355  0.384  0.403  0.403
    eigenvectors:
  0.000  0.000  1.000  0.000  0.000
  0.781  0.140  0.000  0.012  0.068
  0.140  0.781  0.000  0.068  0.012
  0.013  0.067  0.000  0.780  0.140
  0.067  0.013  0.000  0.140  0.780
    occupations:
  0.384  0.000  0.000  0.000  0.000
  0.000  0.359  0.000  0.000  0.013
  0.000  0.000  0.359  0.013  0.000
  0.000  0.000  0.013  0.399  0.000
  0.000  0.013  0.000  0.000  0.399
atom    5   Tr[ns(na)] =   5.43358
    eigenvalues: 
  0.846  0.929  0.941
    eigenvectors:
  0.340  0.000  0.660
  0.496  0.250  0.255
  0.164  0.750  0.086
    occupations:
  0.909 -0.039  0.022
 -0.039  0.891  0.022
  0.022  0.022  0.917
atom    6   Tr[ns(na)] =   5.43358
    eigenvalues: 
  0.846  0.929  0.941
    eigenvectors:
  0.340  0.000  0.660
  0.494  0.250  0.256
  0.166  0.750  0.085
    occupations:
  0.909  0.039  0.022
  0.039  0.891 -0.022
  0.022 -0.022  0.917
atom    7   Tr[ns(na)] =   5.43358
    eigenvalues: 
  0.846  0.929  0.941
    eigenvectors:
  0.340  0.000  0.660
  0.000  1.000  0.000
  0.660  0.000  0.340
    occupations:
  0.909  0.000 -0.045
  0.000  0.929  0.000
 -0.045  0.000  0.879
atom    8   Tr[ns(na)] =   5.43358
    eigenvalues: 
  0.846  0.929  0.941
    eigenvectors:
  0.340  0.000  0.660
  0.496  0.250  0.255
  0.164  0.750  0.086
    occupations:
  0.909 -0.039  0.022
 -0.039  0.891  0.022
  0.022  0.022  0.917
atom    9   Tr[ns(na)] =   5.43358
    eigenvalues: 
  0.846  0.929  0.941
    eigenvectors:
  0.340  0.000  0.660
  0.494  0.250  0.256
  0.166  0.750  0.085
    occupations:
  0.909  0.039  0.022
  0.039  0.891 -0.022
  0.022 -0.022  0.917
atom   10   Tr[ns(na)] =   5.43358
    eigenvalues: 
  0.846  0.929  0.941
    eigenvectors:
  0.340  0.000  0.660
  0.000  1.000  0.000
  0.660  0.000  0.340
    occupations:
  0.909  0.000 -0.045
  0.000  0.929  0.000
 -0.045  0.000  0.879
N of occupied +U levels =  56.2506014
 --- exit write_ns ---
 LDA+U Projector read from file 
     Starting wfc from file

     total cpu time spent up to now is        8.2 secs

     per-process dynamical memory:    47.1 Mb

     Self-consistent Calculation

     iteration #  1     ecut=    30.00 Ry     beta=0.20
     Davidson diagonalization with overlap
     c_bands:  1 eigenvalues not converged
     c_bands:  1 eigenvalues not converged
     c_bands:  1 eigenvalues not converged
     c_bands:  1 eigenvalues not converged
     c_bands:  1 eigenvalues not converged
     c_bands:  1 eigenvalues not converged
     c_bands:  1 eigenvalues not converged
     ethr =  1.00E-10,  avg # of iterations = 17.1
 --- enter write_ns ---
 LDA+U parameters:
U( 1)     =  3.00000000
alpha( 1) =  0.00000000
U( 2)     =  0.00000000
alpha( 2) =  0.05000000
U( 3)     =  0.00000000
alpha( 3) =  0.00000000
U( 4)     =  0.00000000
alpha( 4) =  0.00000000
atom    1   Tr[ns(na)] =   8.15493
    eigenvalues: 
  0.564  0.564  0.983  0.983  0.985
    eigenvectors:
  0.000  0.000  0.000  0.000  1.000
  0.330  0.324  0.005  0.341  0.000
  0.324  0.330  0.341  0.005  0.000
  0.287  0.058  0.513  0.141  0.000
  0.058  0.287  0.141  0.513  0.000
    occupations:
  0.985  0.000  0.000  0.000  0.000
  0.000  0.709  0.000 -0.071  0.186
  0.000  0.000  0.709  0.186  0.071
  0.000 -0.071  0.186  0.838  0.000
  0.000  0.186  0.071  0.000  0.838
atom    2   Tr[ns(na)] =   8.14751
    eigenvalues: 
  0.561  0.561  0.983  0.983  0.985
    eigenvectors:
  0.000  0.000  0.000  0.000  1.000
  0.634  0.021  0.220  0.126  0.000
  0.021  0.634  0.126  0.220  0.000
  0.012  0.334  0.469  0.185  0.000
  0.334  0.012  0.185  0.469  0.000
    occupations:
  0.985  0.000  0.000  0.000  0.000
  0.000  0.707  0.000  0.071  0.188
  0.000  0.000  0.707  0.188 -0.071
  0.000  0.071  0.188  0.837  0.000
  0.000  0.188 -0.071  0.000  0.837
atom    3   Tr[ns(na)] =   3.77732
    eigenvalues: 
  0.354  0.354  0.380  0.400  0.400
    eigenvectors:
  0.000  0.000  1.000  0.000  0.000
  0.776  0.141  0.000  0.012  0.071
  0.141  0.776  0.000  0.071  0.012
  0.013  0.070  0.000  0.776  0.141
  0.070  0.013  0.000  0.141  0.776
    occupations:
  0.380  0.000  0.000  0.000  0.000
  0.000  0.358  0.000  0.000  0.013
  0.000  0.000  0.358  0.013  0.000
  0.000  0.000  0.013  0.396  0.000
  0.000  0.013  0.000  0.000  0.396
atom    4   Tr[ns(na)] =   3.79472
    eigenvalues: 
  0.356  0.356  0.382  0.402  0.402
    eigenvectors:
  0.000  0.000  1.000  0.000  0.000
  0.778  0.140  0.000  0.012  0.070
  0.140  0.778  0.000  0.070  0.012
  0.013  0.069  0.000  0.777  0.141
  0.069  0.013  0.000  0.141  0.777
    occupations:
  0.382  0.000  0.000  0.000  0.000
  0.000  0.360  0.000  0.000  0.013
  0.000  0.000  0.360  0.013  0.000
  0.000  0.000  0.013  0.398  0.000
  0.000  0.013  0.000  0.000  0.398
atom    5   Tr[ns(na)] =   5.40394
    eigenvalues: 
  0.832  0.926  0.944
    eigenvectors:
  0.341  0.000  0.659
  0.495  0.250  0.255
  0.165  0.750  0.086
    occupations:
  0.906 -0.046  0.026
 -0.046  0.884  0.024
  0.026  0.024  0.912
atom    6   Tr[ns(na)] =   5.40394
    eigenvalues: 
  0.832  0.926  0.944
    eigenvectors:
  0.341  0.000  0.659
  0.494  0.250  0.256
  0.165  0.750  0.085
    occupations:
  0.906  0.046  0.027
  0.046  0.884 -0.024
  0.027 -0.024  0.912
atom    7   Tr[ns(na)] =   5.40394
    eigenvalues: 
  0.832  0.926  0.944
    eigenvectors:
  0.341  0.000  0.659
  0.000  1.000  0.000
  0.659  0.000  0.341
    occupations:
  0.906  0.000 -0.053
  0.000  0.926  0.000
 -0.053  0.000  0.870
atom    8   Tr[ns(na)] =   5.40389
    eigenvalues: 
  0.832  0.926  0.944
    eigenvectors:
  0.341  0.000  0.659
  0.495  0.250  0.255
  0.165  0.750  0.086
    occupations:
  0.906 -0.046  0.027
 -0.046  0.884  0.024
  0.027  0.024  0.912
atom    9   Tr[ns(na)] =   5.40389
    eigenvalues: 
  0.832  0.926  0.944
    eigenvectors:
  0.341  0.000  0.659
  0.494  0.250  0.256
  0.165  0.750  0.085
    occupations:
  0.906  0.046  0.027
  0.046  0.884 -0.024
  0.027 -0.024  0.912
atom   10   Tr[ns(na)] =   5.40389
    eigenvalues: 
  0.832  0.926  0.944
    eigenvectors:
  0.341  0.000  0.659
  0.000  1.000  0.000
  0.659  0.000  0.341
    occupations:
  0.906  0.000 -0.053
  0.000  0.926  0.000
 -0.053  0.000  0.870
N of occupied +U levels =  56.2979653
 --- exit write_ns ---
 --- in v_hubbard ---
Hubbard energy    0.2918
 -------

     total cpu time spent up to now is       47.7 secs

     total energy              =    -538.05536395 Ry
     Harris-Foulkes estimate   =    -538.05953298 Ry
     estimated scf accuracy    <       0.02346663 Ry

     iteration #  2     ecut=    30.00 Ry     beta=0.20
     Davidson diagonalization with overlap
     ethr =  3.09E-05,  avg # of iterations =  1.4
 --- enter write_ns ---
 LDA+U parameters:
U( 1)     =  3.00000000
alpha( 1) =  0.00000000
U( 2)     =  0.00000000
alpha( 2) =  0.05000000
U( 3)     =  0.00000000
alpha( 3) =  0.00000000
U( 4)     =  0.00000000
alpha( 4) =  0.00000000
atom    1   Tr[ns(na)] =   8.02946
    eigenvalues: 
  0.531  0.531  0.983  0.983  0.986
    eigenvectors:
  0.000  0.000  0.000  0.000  1.000
  0.332  0.323  0.004  0.340  0.000
  0.323  0.332  0.340  0.004  0.000
  0.287  0.058  0.515  0.141  0.000
  0.058  0.287  0.141  0.515  0.000
    occupations:
  0.986  0.000  0.000  0.000  0.000
  0.000  0.687  0.000 -0.078  0.200
  0.000  0.000  0.687  0.200  0.078
  0.000 -0.078  0.200  0.827  0.000
  0.000  0.200  0.078  0.000  0.827
atom    2   Tr[ns(na)] =   8.03634
    eigenvalues: 
  0.531  0.531  0.985  0.985  0.987
    eigenvectors:
  0.000  0.000  0.000  0.000  1.000
  0.637  0.019  0.221  0.123  0.000
  0.019  0.637  0.123  0.221  0.000
  0.014  0.331  0.470  0.185  0.000
  0.331  0.014  0.185  0.470  0.000
    occupations:
  0.987  0.000  0.000  0.000  0.000
  0.000  0.687  0.000  0.078  0.201
  0.000  0.000  0.687  0.201 -0.078
  0.000  0.078  0.201  0.828  0.000
  0.000  0.201 -0.078  0.000  0.828
atom    3   Tr[ns(na)] =   3.77633
    eigenvalues: 
  0.354  0.354  0.380  0.400  0.400
    eigenvectors:
  0.000  0.000  1.000  0.000  0.000
  0.779  0.140  0.000  0.012  0.069
  0.140  0.779  0.000  0.069  0.012
  0.013  0.068  0.000  0.779  0.141
  0.068  0.013  0.000  0.141  0.779
    occupations:
  0.380  0.000  0.000  0.000  0.000
  0.000  0.357  0.000  0.000  0.013
  0.000  0.000  0.357  0.013  0.000
  0.000  0.000  0.013  0.397  0.000
  0.000  0.013  0.000  0.000  0.397
atom    4   Tr[ns(na)] =   3.79257
    eigenvalues: 
  0.355  0.355  0.382  0.402  0.402
    eigenvectors:
  0.000  0.000  1.000  0.000  0.000
  0.780  0.140  0.000  0.012  0.068
  0.140  0.780  0.000  0.068  0.012
  0.013  0.067  0.000  0.780  0.140
  0.067  0.013  0.000  0.140  0.780
    occupations:
  0.382  0.000  0.000  0.000  0.000
  0.000  0.359  0.000  0.000  0.013
  0.000  0.000  0.359  0.013  0.000
  0.000  0.000  0.013  0.398  0.000
  0.000  0.013  0.000  0.000  0.398
atom    5   Tr[ns(na)] =   5.44113
    eigenvalues: 
  0.843  0.931  0.947
    eigenvectors:
  0.337  0.000  0.663
  0.496  0.251  0.252
  0.167  0.749  0.085
    occupations:
  0.912 -0.042  0.025
 -0.042  0.891  0.023
  0.025  0.023  0.918
atom    6   Tr[ns(na)] =   5.44113
    eigenvalues: 
  0.843  0.931  0.947
    eigenvectors:
  0.337  0.000  0.663
  0.498  0.249  0.254
  0.165  0.751  0.084
    occupations:
  0.912  0.043  0.024
  0.043  0.891 -0.023
  0.024 -0.023  0.918
atom    7   Tr[ns(na)] =   5.44113
    eigenvalues: 
  0.843  0.931  0.947
    eigenvectors:
  0.337  0.000  0.663
  0.000  1.000  0.000
  0.663  0.000  0.337
    occupations:
  0.912  0.000 -0.049
  0.000  0.931  0.000
 -0.049  0.000  0.878
atom    8   Tr[ns(na)] =   5.44110
    eigenvalues: 
  0.843  0.931  0.947
    eigenvectors:
  0.337  0.000  0.663
  0.496  0.251  0.252
  0.167  0.749  0.085
    occupations:
  0.912 -0.043  0.025
 -0.043  0.891  0.023
  0.025  0.023  0.917
atom    9   Tr[ns(na)] =   5.44110
    eigenvalues: 
  0.843  0.931  0.947
    eigenvectors:
  0.337  0.000  0.663
  0.498  0.249  0.254
  0.165  0.751  0.084
    occupations:
  0.912  0.043  0.024
  0.043  0.891 -0.023
  0.024 -0.023  0.918
atom   10   Tr[ns(na)] =   5.44110
    eigenvalues: 
  0.843  0.931  0.947
    eigenvectors:
  0.337  0.000  0.663
  0.000  1.000  0.000
  0.663  0.000  0.337
    occupations:
  0.912  0.000 -0.049
  0.000  0.931  0.000
 -0.049  0.000  0.878
N of occupied +U levels =  56.2813852
 --- exit write_ns ---
 --- in v_hubbard ---
Hubbard energy    0.2875
 -------

     total cpu time spent up to now is       63.1 secs

     total energy              =    -538.05921544 Ry
     Harris-Foulkes estimate   =    -538.05917917 Ry
     estimated scf accuracy    <       0.01444439 Ry

     iteration #  3     ecut=    30.00 Ry     beta=0.20
     Davidson diagonalization with overlap
     ethr =  1.90E-05,  avg # of iterations =  1.0
 --- enter write_ns ---
 LDA+U parameters:
U( 1)     =  3.00000000
alpha( 1) =  0.00000000
U( 2)     =  0.00000000
alpha( 2) =  0.05000000
U( 3)     =  0.00000000
alpha( 3) =  0.00000000
U( 4)     =  0.00000000
alpha( 4) =  0.00000000
atom    1   Tr[ns(na)] =   8.06331
    eigenvalues: 
  0.539  0.539  0.984  0.984  0.986
    eigenvectors:
  0.000  0.000  0.000  0.000  1.000
  0.333  0.323  0.004  0.340  0.000
  0.323  0.333  0.340  0.004  0.000
  0.287  0.058  0.515  0.141  0.000
  0.058  0.287  0.141  0.515  0.000
    occupations:
  0.986  0.000  0.000  0.000  0.000
  0.000  0.692  0.000 -0.077  0.197
  0.000  0.000  0.692  0.197  0.077
  0.000 -0.077  0.197  0.831  0.000
  0.000  0.197  0.077  0.000  0.831
atom    2   Tr[ns(na)] =   8.05591
    eigenvalues: 
  0.536  0.536  0.985  0.985  0.987
    eigenvectors:
  0.000  0.000  0.000  0.000  1.000
  0.636  0.020  0.220  0.124  0.000
  0.020  0.636  0.124  0.220  0.000
  0.013  0.332  0.471  0.185  0.000
  0.332  0.013  0.185  0.471  0.000
    occupations:
  0.987  0.000  0.000  0.000  0.000
  0.000  0.690  0.000  0.076  0.199
  0.000  0.000  0.690  0.199 -0.076
  0.000  0.076  0.199  0.830  0.000
  0.000  0.199 -0.076  0.000  0.830
atom    3   Tr[ns(na)] =   3.77702
    eigenvalues: 
  0.354  0.354  0.380  0.400  0.400
    eigenvectors:
  0.000  0.000  1.000  0.000  0.000
  0.779  0.140  0.000  0.012  0.069
  0.140  0.779  0.000  0.069  0.012
  0.013  0.068  0.000  0.779  0.141
  0.068  0.013  0.000  0.141  0.779
    occupations:
  0.380  0.000  0.000  0.000  0.000
  0.000  0.358  0.000  0.000  0.013
  0.000  0.000  0.358  0.013  0.000
  0.000  0.000  0.013  0.396  0.000
  0.000  0.013  0.000  0.000  0.396
atom    4   Tr[ns(na)] =   3.79295
    eigenvalues: 
  0.356  0.356  0.382  0.402  0.402
    eigenvectors:
  0.000  0.000  1.000  0.000  0.000
  0.781  0.140  0.000  0.012  0.068
  0.140  0.781  0.000  0.068  0.012
  0.013  0.067  0.000  0.780  0.141
  0.067  0.013  0.000  0.141  0.780
    occupations:
  0.382  0.000  0.000  0.000  0.000
  0.000  0.359  0.000  0.000  0.012
  0.000  0.000  0.359  0.012  0.000
  0.000  0.000  0.012  0.398  0.000
  0.000  0.012  0.000  0.000  0.398
atom    5   Tr[ns(na)] =   5.43274
    eigenvalues: 
  0.840  0.930  0.946
    eigenvectors:
  0.338  0.000  0.662
  0.497  0.250  0.253
  0.165  0.750  0.085
    occupations:
  0.910 -0.043  0.025
 -0.043  0.890  0.023
  0.025  0.023  0.916
atom    6   Tr[ns(na)] =   5.43274
    eigenvalues: 
  0.840  0.930  0.946
    eigenvectors:
  0.338  0.000  0.662
  0.496  0.250  0.254
  0.166  0.750  0.084
    occupations:
  0.910  0.043  0.025
  0.043  0.890 -0.023
  0.025 -0.023  0.916
atom    7   Tr[ns(na)] =   5.43274
    eigenvalues: 
  0.840  0.930  0.946
    eigenvectors:
  0.338  0.000  0.662
  0.000  1.000  0.000
  0.662  0.000  0.338
    occupations:
  0.910  0.000 -0.050
  0.000  0.930  0.000
 -0.050  0.000  0.876
atom    8   Tr[ns(na)] =   5.43272
    eigenvalues: 
  0.840  0.930  0.946
    eigenvectors:
  0.338  0.000  0.662
  0.497  0.250  0.253
  0.165  0.750  0.085
    occupations:
  0.911 -0.043  0.025
 -0.043  0.890  0.023
  0.025  0.023  0.916
atom    9   Tr[ns(na)] =   5.43272
    eigenvalues: 
  0.840  0.930  0.946
    eigenvectors:
  0.338  0.000  0.662
  0.496  0.250  0.254
  0.166  0.750  0.084
    occupations:
  0.911  0.043  0.025
  0.043  0.890 -0.023
  0.025 -0.023  0.916
atom   10   Tr[ns(na)] =   5.43272
    eigenvalues: 
  0.840  0.930  0.946
    eigenvectors:
  0.338  0.000  0.662
  0.000  1.000  0.000
  0.662  0.000  0.338
    occupations:
  0.911  0.000 -0.050
  0.000  0.930  0.000
 -0.050  0.000  0.876
N of occupied +U levels =  56.2855835
 --- exit write_ns ---
 --- in v_hubbard ---
Hubbard energy    0.2575
 -------

     total cpu time spent up to now is       78.0 secs

     total energy              =    -538.06136962 Ry
     Harris-Foulkes estimate   =    -538.05950111 Ry
     estimated scf accuracy    <       0.00752883 Ry

     iteration #  4     ecut=    30.00 Ry     beta=0.20
     Davidson diagonalization with overlap
     ethr =  9.91E-06,  avg # of iterations =  1.0
 --- enter write_ns ---
 LDA+U parameters:
U( 1)     =  3.00000000
alpha( 1) =  0.00000000
U( 2)     =  0.00000000
alpha( 2) =  0.05000000
U( 3)     =  0.00000000
alpha( 3) =  0.00000000
U( 4)     =  0.00000000
alpha( 4) =  0.00000000
atom    1   Tr[ns(na)] =   8.02867
    eigenvalues: 
  0.530  0.530  0.984  0.984  0.986
    eigenvectors:
  0.000  0.000  0.000  0.000  1.000
  0.336  0.322  0.004  0.337  0.000
  0.322  0.336  0.337  0.004  0.000
  0.283  0.059  0.517  0.141  0.000
  0.059  0.283  0.141  0.517  0.000
    occupations:
  0.986  0.000  0.000  0.000  0.000
  0.000  0.685  0.000 -0.077  0.201
  0.000  0.000  0.685  0.201  0.077
  0.000 -0.077  0.201  0.829  0.000
  0.000  0.201  0.077  0.000  0.829
atom    2   Tr[ns(na)] =   8.09828
    eigenvalues: 
  0.541  0.541  0.989  0.989  0.991
    eigenvectors:
  0.000  0.000  0.000  0.000  1.000
  0.638  0.020  0.220  0.122  0.000
  0.020  0.638  0.122  0.220  0.000
  0.013  0.328  0.474  0.184  0.000
  0.328  0.013  0.184  0.474  0.000
    occupations:
  0.991  0.000  0.000  0.000  0.000
  0.000  0.694  0.000  0.078  0.198
  0.000  0.000  0.694  0.198 -0.078
  0.000  0.078  0.198  0.835  0.000
  0.000  0.198 -0.078  0.000  0.835
atom    3   Tr[ns(na)] =   3.78308
    eigenvalues: 
  0.355  0.355  0.381  0.401  0.401
    eigenvectors:
  0.000  0.000  1.000  0.000  0.000
  0.782  0.139  0.000  0.012  0.067
  0.139  0.782  0.000  0.067  0.012
  0.012  0.067  0.000  0.781  0.140
  0.067  0.012  0.000  0.140  0.781
    occupations:
  0.381  0.000  0.000  0.000  0.000
  0.000  0.358  0.000  0.000  0.012
  0.000  0.000  0.358  0.012  0.000
  0.000  0.000  0.012  0.397  0.000
  0.000  0.012  0.000  0.000  0.397
atom    4   Tr[ns(na)] =   3.79697
    eigenvalues: 
  0.356  0.356  0.382  0.402  0.402
    eigenvectors:
  0.000  0.000  1.000  0.000  0.000
  0.784  0.138  0.000  0.012  0.067
  0.138  0.784  0.000  0.067  0.012
  0.012  0.066  0.000  0.782  0.140
  0.066  0.012  0.000  0.140  0.782
    occupations:
  0.382  0.000  0.000  0.000  0.000
  0.000  0.360  0.000  0.000  0.012
  0.000  0.000  0.360  0.012  0.000
  0.000  0.000  0.012  0.398  0.000
  0.000  0.012  0.000  0.000  0.398
atom    5   Tr[ns(na)] =   5.42941
    eigenvalues: 
  0.839  0.929  0.946
    eigenvectors:
  0.338  0.000  0.662
  0.490  0.258  0.251
  0.172  0.742  0.086
    occupations:
  0.910 -0.043  0.026
 -0.043  0.889  0.024
  0.026  0.024  0.915
atom    6   Tr[ns(na)] =   5.42941
    eigenvalues: 
  0.839  0.929  0.946
    eigenvectors:
  0.338  0.000  0.662
  0.503  0.242  0.255
  0.159  0.758  0.083
    occupations:
  0.910  0.044  0.025
  0.044  0.888 -0.023
  0.025 -0.023  0.916
atom    7   Tr[ns(na)] =   5.42941
    eigenvalues: 
  0.839  0.929  0.946
    eigenvectors:
  0.338  0.000  0.662
  0.000  1.000  0.000
  0.662  0.000  0.338
    occupations:
  0.910 -0.001 -0.050
 -0.001  0.929 -0.001
 -0.050 -0.001  0.875
atom    8   Tr[ns(na)] =   5.42939
    eigenvalues: 
  0.839  0.929  0.946
    eigenvectors:
  0.338  0.000  0.662
  0.490  0.258  0.252
  0.172  0.742  0.086
    occupations:
  0.910 -0.043  0.026
 -0.043  0.889  0.024
  0.026  0.024  0.915
atom    9   Tr[ns(na)] =   5.42939
    eigenvalues: 
  0.839  0.929  0.946
    eigenvectors:
  0.338  0.000  0.662
  0.503  0.242  0.255
  0.159  0.758  0.083
    occupations:
  0.910  0.044  0.025
  0.044  0.888 -0.023
  0.025 -0.023  0.916
atom   10   Tr[ns(na)] =   5.42939
    eigenvalues: 
  0.839  0.929  0.946
    eigenvectors:
  0.338  0.000  0.662
  0.000  1.000  0.000
  0.662  0.000  0.338
    occupations:
  0.910 -0.001 -0.050
 -0.001  0.929 -0.001
 -0.050 -0.001  0.875
N of occupied +U levels =  56.2833821
 --- exit write_ns ---
 --- in v_hubbard ---
Hubbard energy    0.2492
 -------

     total cpu time spent up to now is       97.6 secs

     total energy              =    -538.06153979 Ry
     Harris-Foulkes estimate   =    -538.06192612 Ry
     estimated scf accuracy    <       0.00359833 Ry

     iteration #  5     ecut=    30.00 Ry     beta=0.20
     Davidson diagonalization with overlap
     ethr =  4.73E-06,  avg # of iterations =  1.0
 --- enter write_ns ---
 LDA+U parameters:
U( 1)     =  3.00000000
alpha( 1) =  0.00000000
U( 2)     =  0.00000000
alpha( 2) =  0.05000000
U( 3)     =  0.00000000
alpha( 3) =  0.00000000
U( 4)     =  0.00000000
alpha( 4) =  0.00000000
atom    1   Tr[ns(na)] =   8.05993
    eigenvalues: 
  0.534  0.534  0.987  0.987  0.989
    eigenvectors:
  0.000  0.000  0.000  0.000  1.000
  0.337  0.322  0.004  0.337  0.000
  0.322  0.337  0.337  0.004  0.000
  0.284  0.058  0.518  0.141  0.000
  0.058  0.284  0.141  0.518  0.000
    occupations:
  0.989  0.000  0.000  0.000  0.000
  0.000  0.688  0.000 -0.078  0.200
  0.000  0.000  0.688  0.200  0.078
  0.000 -0.078  0.200  0.832  0.000
  0.000  0.200  0.078  0.000  0.832
atom    2   Tr[ns(na)] =   8.05856
    eigenvalues: 
  0.532  0.532  0.988  0.988  0.990
    eigenvectors:
  0.000  0.000  0.000  0.000  1.000
  0.637  0.021  0.219  0.123  0.000
  0.021  0.637  0.123  0.219  0.000
  0.012  0.329  0.474  0.185  0.000
  0.329  0.012  0.185  0.474  0.000
    occupations:
  0.990  0.000  0.000  0.000  0.000
  0.000  0.688  0.000  0.078  0.201
  0.000  0.000  0.688  0.201 -0.078
  0.000  0.078  0.201  0.832  0.000
  0.000  0.201 -0.078  0.000  0.832
atom    3   Tr[ns(na)] =   3.78462
    eigenvalues: 
  0.355  0.355  0.381  0.401  0.401
    eigenvectors:
  0.000  0.000  1.000  0.000  0.000
  0.782  0.139  0.000  0.011  0.067
  0.139  0.782  0.000  0.067  0.011
  0.012  0.066  0.000  0.781  0.140
  0.066  0.012  0.000  0.140  0.781
    occupations:
  0.381  0.000  0.000  0.000  0.000
  0.000  0.359  0.000  0.000  0.012
  0.000  0.000  0.359  0.012  0.000
  0.000  0.000  0.012  0.397  0.000
  0.000  0.012  0.000  0.000  0.397
atom    4   Tr[ns(na)] =   3.79777
    eigenvalues: 
  0.356  0.356  0.382  0.402  0.402
    eigenvectors:
  0.000  0.000  1.000  0.000  0.000
  0.783  0.139  0.000  0.011  0.067
  0.139  0.783  0.000  0.067  0.011
  0.012  0.066  0.000  0.782  0.140
  0.066  0.012  0.000  0.140  0.782
    occupations:
  0.382  0.000  0.000  0.000  0.000
  0.000  0.360  0.000  0.000  0.012
  0.000  0.000  0.360  0.012  0.000
  0.000  0.000  0.012  0.399  0.000
  0.000  0.012  0.000  0.000  0.399
atom    5   Tr[ns(na)] =   5.43018
    eigenvalues: 
  0.840  0.930  0.946
    eigenvectors:
  0.338  0.000  0.662
  0.497  0.251  0.253
  0.166  0.749  0.085
    occupations:
  0.910 -0.044  0.025
 -0.044  0.889  0.023
  0.025  0.023  0.916
atom    6   Tr[ns(na)] =   5.43018
    eigenvalues: 
  0.840  0.930  0.946
    eigenvectors:
  0.338  0.000  0.662
  0.497  0.249  0.254
  0.165  0.751  0.084
    occupations:
  0.910  0.044  0.025
  0.044  0.889 -0.023
  0.025 -0.023  0.916
atom    7   Tr[ns(na)] =   5.43018
    eigenvalues: 
  0.840  0.930  0.946
    eigenvectors:
  0.338  0.000  0.662
  0.000  1.000  0.000
  0.662  0.000  0.338
    occupations:
  0.910  0.000 -0.050
  0.000  0.930  0.000
 -0.050  0.000  0.875
atom    8   Tr[ns(na)] =   5.43018
    eigenvalues: 
  0.840  0.929  0.946
    eigenvectors:
  0.338  0.000  0.662
  0.497  0.251  0.253
  0.166  0.749  0.085
    occupations:
  0.910 -0.044  0.025
 -0.044  0.889  0.023
  0.025  0.023  0.916
atom    9   Tr[ns(na)] =   5.43018
    eigenvalues: 
  0.840  0.929  0.946
    eigenvectors:
  0.338  0.000  0.662
  0.497  0.249  0.254
  0.165  0.751  0.084
    occupations:
  0.910  0.044  0.025
  0.044  0.889 -0.023
  0.025 -0.023  0.916
atom   10   Tr[ns(na)] =   5.43018
    eigenvalues: 
  0.840  0.929  0.946
    eigenvectors:
  0.338  0.000  0.662
  0.000  1.000  0.000
  0.662  0.000  0.338
    occupations:
  0.910  0.000 -0.050
  0.000  0.929  0.000
 -0.050  0.000  0.876
N of occupied +U levels =  56.2819524
 --- exit write_ns ---
 --- in v_hubbard ---
Hubbard energy    0.2486
 -------

     total cpu time spent up to now is      118.3 secs

     total energy              =    -538.06184451 Ry
     Harris-Foulkes estimate   =    -538.06178879 Ry
     estimated scf accuracy    <       0.00013189 Ry

     iteration #  6     ecut=    30.00 Ry     beta=0.20
     Davidson diagonalization with overlap
     ethr =  1.74E-07,  avg # of iterations =  2.0
 --- enter write_ns ---
 LDA+U parameters:
U( 1)     =  3.00000000
alpha( 1) =  0.00000000
U( 2)     =  0.00000000
alpha( 2) =  0.05000000
U( 3)     =  0.00000000
alpha( 3) =  0.00000000
U( 4)     =  0.00000000
alpha( 4) =  0.00000000
atom    1   Tr[ns(na)] =   8.05403
    eigenvalues: 
  0.532  0.532  0.987  0.987  0.989
    eigenvectors:
  0.000  0.000  0.000  0.000  1.000
  0.337  0.321  0.004  0.338  0.000
  0.321  0.337  0.338  0.004  0.000
  0.284  0.058  0.518  0.140  0.000
  0.058  0.284  0.140  0.518  0.000
    occupations:
  0.989  0.000  0.000  0.000  0.000
  0.000  0.687  0.000 -0.079  0.201
  0.000  0.000  0.687  0.201  0.079
  0.000 -0.079  0.201  0.831  0.000
  0.000  0.201  0.079  0.000  0.831
atom    2   Tr[ns(na)] =   8.05173
    eigenvalues: 
  0.530  0.530  0.988  0.988  0.990
    eigenvectors:
  0.000  0.000  0.000  0.000  1.000
  0.638  0.021  0.219  0.123  0.000
  0.021  0.638  0.123  0.219  0.000
  0.012  0.329  0.474  0.185  0.000
  0.329  0.012  0.185  0.474  0.000
    occupations:
  0.990  0.000  0.000  0.000  0.000
  0.000  0.687  0.000  0.078  0.202
  0.000  0.000  0.687  0.202 -0.078
  0.000  0.078  0.202  0.831  0.000
  0.000  0.202 -0.078  0.000  0.831
atom    3   Tr[ns(na)] =   3.78313
    eigenvalues: 
  0.355  0.355  0.381  0.401  0.401
    eigenvectors:
  0.000  0.000  1.000  0.000  0.000
  0.781  0.139  0.000  0.012  0.068
  0.139  0.781  0.000  0.068  0.012
  0.012  0.067  0.000  0.780  0.140
  0.067  0.012  0.000  0.140  0.780
    occupations:
  0.381  0.000  0.000  0.000  0.000
  0.000  0.358  0.000  0.000  0.012
  0.000  0.000  0.358  0.012  0.000
  0.000  0.000  0.012  0.397  0.000
  0.000  0.012  0.000  0.000  0.397
atom    4   Tr[ns(na)] =   3.79633
    eigenvalues: 
  0.356  0.356  0.382  0.402  0.402
    eigenvectors:
  0.000  0.000  1.000  0.000  0.000
  0.782  0.139  0.000  0.011  0.067
  0.139  0.782  0.000  0.067  0.011
  0.012  0.066  0.000  0.781  0.140
  0.066  0.012  0.000  0.140  0.781
    occupations:
  0.382  0.000  0.000  0.000  0.000
  0.000  0.360  0.000  0.000  0.012
  0.000  0.000  0.360  0.012  0.000
  0.000  0.000  0.012  0.398  0.000
  0.000  0.012  0.000  0.000  0.398
atom    5   Tr[ns(na)] =   5.43244
    eigenvalues: 
  0.840  0.930  0.946
    eigenvectors:
  0.338  0.000  0.662
  0.497  0.251  0.253
  0.166  0.749  0.085
    occupations:
  0.910 -0.043  0.025
 -0.043  0.889  0.023
  0.025  0.023  0.916
atom    6   Tr[ns(na)] =   5.43244
    eigenvalues: 
  0.840  0.930  0.946
    eigenvectors:
  0.338  0.000  0.662
  0.497  0.249  0.254
  0.165  0.751  0.084
    occupations:
  0.910  0.043  0.025
  0.043  0.889 -0.023
  0.025 -0.023  0.916
atom    7   Tr[ns(na)] =   5.43244
    eigenvalues: 
  0.840  0.930  0.946
    eigenvectors:
  0.338  0.000  0.662
  0.000  1.000  0.000
  0.662  0.000  0.338
    occupations:
  0.910  0.000 -0.050
  0.000  0.930  0.000
 -0.050  0.000  0.876
atom    8   Tr[ns(na)] =   5.43243
    eigenvalues: 
  0.840  0.930  0.946
    eigenvectors:
  0.338  0.000  0.662
  0.497  0.251  0.253
  0.166  0.749  0.085
    occupations:
  0.910 -0.043  0.025
 -0.043  0.889  0.023
  0.025  0.023  0.916
atom    9   Tr[ns(na)] =   5.43243
    eigenvalues: 
  0.840  0.930  0.946
    eigenvectors:
  0.338  0.000  0.662
  0.497  0.249  0.254
  0.165  0.751  0.084
    occupations:
  0.910  0.043  0.025
  0.043  0.889 -0.023
  0.025 -0.023  0.916
atom   10   Tr[ns(na)] =   5.43243
    eigenvalues: 
  0.840  0.930  0.946
    eigenvectors:
  0.338  0.000  0.662
  0.000  1.000  0.000
  0.662  0.000  0.338
    occupations:
  0.910  0.000 -0.050
  0.000  0.930  0.000
 -0.050  0.000  0.876
N of occupied +U levels =  56.2798334
 --- exit write_ns ---
 --- in v_hubbard ---
Hubbard energy    0.2486
 -------

     total cpu time spent up to now is      139.7 secs

     total energy              =    -538.06190603 Ry
     Harris-Foulkes estimate   =    -538.06186016 Ry
     estimated scf accuracy    <       0.00003650 Ry

     iteration #  7     ecut=    30.00 Ry     beta=0.20
     Davidson diagonalization with overlap
     ethr =  4.80E-08,  avg # of iterations =  2.1
 --- enter write_ns ---
 LDA+U parameters:
U( 1)     =  3.00000000
alpha( 1) =  0.00000000
U( 2)     =  0.00000000
alpha( 2) =  0.05000000
U( 3)     =  0.00000000
alpha( 3) =  0.00000000
U( 4)     =  0.00000000
alpha( 4) =  0.00000000
atom    1   Tr[ns(na)] =   8.05329
    eigenvalues: 
  0.532  0.532  0.987  0.987  0.989
    eigenvectors:
  0.000  0.000  0.000  0.000  1.000
  0.336  0.322  0.004  0.338  0.000
  0.322  0.336  0.338  0.004  0.000
  0.284  0.058  0.517  0.140  0.000
  0.058  0.284  0.140  0.517  0.000
    occupations:
  0.989  0.000  0.000  0.000  0.000
  0.000  0.688  0.000 -0.079  0.201
  0.000  0.000  0.688  0.201  0.079
  0.000 -0.079  0.201  0.831  0.000
  0.000  0.201  0.079  0.000  0.831
atom    2   Tr[ns(na)] =   8.05105
    eigenvalues: 
  0.530  0.530  0.988  0.988  0.990
    eigenvectors:
  0.000  0.000  0.000  0.000  1.000
  0.638  0.020  0.219  0.123  0.000
  0.020  0.638  0.123  0.219  0.000
  0.013  0.329  0.473  0.185  0.000
  0.329  0.013  0.185  0.473  0.000
    occupations:
  0.990  0.000  0.000  0.000  0.000
  0.000  0.687  0.000  0.079  0.202
  0.000  0.000  0.687  0.202 -0.079
  0.000  0.079  0.202  0.831  0.000
  0.000  0.202 -0.079  0.000  0.831
atom    3   Tr[ns(na)] =   3.77905
    eigenvalues: 
  0.354  0.354  0.380  0.400  0.400
    eigenvectors:
  0.000  0.000  1.000  0.000  0.000
  0.781  0.139  0.000  0.012  0.068
  0.139  0.781  0.000  0.068  0.012
  0.013  0.067  0.000  0.780  0.140
  0.067  0.013  0.000  0.140  0.780
    occupations:
  0.380  0.000  0.000  0.000  0.000
  0.000  0.358  0.000  0.000  0.012
  0.000  0.000  0.358  0.012  0.000
  0.000  0.000  0.012  0.397  0.000
  0.000  0.012  0.000  0.000  0.397
atom    4   Tr[ns(na)] =   3.79326
    eigenvalues: 
  0.356  0.356  0.382  0.402  0.402
    eigenvectors:
  0.000  0.000  1.000  0.000  0.000
  0.782  0.140  0.000  0.012  0.067
  0.140  0.782  0.000  0.067  0.012
  0.012  0.066  0.000  0.781  0.140
  0.066  0.012  0.000  0.140  0.781
    occupations:
  0.382  0.000  0.000  0.000  0.000
  0.000  0.359  0.000  0.000  0.012
  0.000  0.000  0.359  0.012  0.000
  0.000  0.000  0.012  0.398  0.000
  0.000  0.012  0.000  0.000  0.398
atom    5   Tr[ns(na)] =   5.43345
    eigenvalues: 
  0.840  0.930  0.946
    eigenvectors:
  0.338  0.000  0.662
  0.497  0.251  0.253
  0.166  0.749  0.085
    occupations:
  0.911 -0.043  0.025
 -0.043  0.890  0.023
  0.025  0.023  0.917
atom    6   Tr[ns(na)] =   5.43345
    eigenvalues: 
  0.840  0.930  0.946
    eigenvectors:
  0.338  0.000  0.662
  0.497  0.249  0.254
  0.165  0.751  0.084
    occupations:
  0.911  0.043  0.025
  0.043  0.890 -0.023
  0.025 -0.023  0.917
atom    7   Tr[ns(na)] =   5.43345
    eigenvalues: 
  0.840  0.930  0.946
    eigenvectors:
  0.338  0.000  0.662
  0.000  1.000  0.000
  0.662  0.000  0.338
    occupations:
  0.911  0.000 -0.050
  0.000  0.930  0.000
 -0.050  0.000  0.876
atom    8   Tr[ns(na)] =   5.43341
    eigenvalues: 
  0.840  0.930  0.947
    eigenvectors:
  0.338  0.000  0.662
  0.497  0.251  0.253
  0.166  0.749  0.085
    occupations:
  0.911 -0.043  0.025
 -0.043  0.890  0.023
  0.025  0.023  0.916
atom    9   Tr[ns(na)] =   5.43341
    eigenvalues: 
  0.840  0.930  0.947
    eigenvectors:
  0.338  0.000  0.662
  0.497  0.249  0.254
  0.165  0.751  0.084
    occupations:
  0.911  0.044  0.025
  0.044  0.890 -0.023
  0.025 -0.023  0.916
atom   10   Tr[ns(na)] =   5.43341
    eigenvalues: 
  0.840  0.930  0.947
    eigenvectors:
  0.338  0.000  0.662
  0.000  1.000  0.000
  0.662  0.000  0.338
    occupations:
  0.911  0.000 -0.050
  0.000  0.930  0.000
 -0.050  0.000  0.876
N of occupied +U levels =  56.2772454
 --- exit write_ns ---
 --- in v_hubbard ---
Hubbard energy    0.2487
 -------

     total cpu time spent up to now is      162.5 secs

     total energy              =    -538.06195767 Ry
     Harris-Foulkes estimate   =    -538.06191448 Ry
     estimated scf accuracy    <       0.00001761 Ry

     iteration #  8     ecut=    30.00 Ry     beta=0.20
     Davidson diagonalization with overlap
     ethr =  2.32E-08,  avg # of iterations =  2.0
 --- enter write_ns ---
 LDA+U parameters:
U( 1)     =  3.00000000
alpha( 1) =  0.00000000
U( 2)     =  0.00000000
alpha( 2) =  0.05000000
U( 3)     =  0.00000000
alpha( 3) =  0.00000000
U( 4)     =  0.00000000
alpha( 4) =  0.00000000
atom    1   Tr[ns(na)] =   8.05436
    eigenvalues: 
  0.532  0.532  0.987  0.987  0.989
    eigenvectors:
  0.000  0.000  0.000  0.000  1.000
  0.336  0.322  0.004  0.338  0.000
  0.322  0.336  0.338  0.004  0.000
  0.284  0.058  0.518  0.140  0.000
  0.058  0.284  0.140  0.518  0.000
    occupations:
  0.989  0.000  0.000  0.000  0.000
  0.000  0.688  0.000 -0.079  0.201
  0.000  0.000  0.688  0.201  0.079
  0.000 -0.079  0.201  0.831  0.000
  0.000  0.201  0.079  0.000  0.831
atom    2   Tr[ns(na)] =   8.05177
    eigenvalues: 
  0.530  0.530  0.988  0.988  0.990
    eigenvectors:
  0.000  0.000  0.000  0.000  1.000
  0.637  0.021  0.219  0.123  0.000
  0.021  0.637  0.123  0.219  0.000
  0.013  0.329  0.473  0.185  0.000
  0.329  0.013  0.185  0.473  0.000
    occupations:
  0.990  0.000  0.000  0.000  0.000
  0.000  0.687  0.000  0.079  0.202
  0.000  0.000  0.687  0.202 -0.079
  0.000  0.079  0.202  0.831  0.000
  0.000  0.202 -0.079  0.000  0.831
atom    3   Tr[ns(na)] =   3.78107
    eigenvalues: 
  0.354  0.354  0.380  0.401  0.401
    eigenvectors:
  0.000  0.000  1.000  0.000  0.000
  0.781  0.139  0.000  0.012  0.068
  0.139  0.781  0.000  0.068  0.012
  0.013  0.067  0.000  0.780  0.141
  0.067  0.013  0.000  0.141  0.780
    occupations:
  0.380  0.000  0.000  0.000  0.000
  0.000  0.358  0.000  0.000  0.012
  0.000  0.000  0.358  0.012  0.000
  0.000  0.000  0.012  0.397  0.000
  0.000  0.012  0.000  0.000  0.397
atom    4   Tr[ns(na)] =   3.79501
    eigenvalues: 
  0.356  0.356  0.382  0.402  0.402
    eigenvectors:
  0.000  0.000  1.000  0.000  0.000
  0.782  0.139  0.000  0.011  0.067
  0.139  0.782  0.000  0.067  0.011
  0.012  0.066  0.000  0.781  0.140
  0.066  0.012  0.000  0.140  0.781
    occupations:
  0.382  0.000  0.000  0.000  0.000
  0.000  0.360  0.000  0.000  0.012
  0.000  0.000  0.360  0.012  0.000
  0.000  0.000  0.012  0.398  0.000
  0.000  0.012  0.000  0.000  0.398
atom    5   Tr[ns(na)] =   5.43272
    eigenvalues: 
  0.840  0.930  0.946
    eigenvectors:
  0.338  0.000  0.662
  0.497  0.251  0.253
  0.166  0.749  0.085
    occupations:
  0.910 -0.043  0.025
 -0.043  0.889  0.023
  0.025  0.023  0.916
atom    6   Tr[ns(na)] =   5.43272
    eigenvalues: 
  0.840  0.930  0.946
    eigenvectors:
  0.338  0.000  0.662
  0.497  0.249  0.254
  0.165  0.751  0.084
    occupations:
  0.910  0.043  0.025
  0.043  0.889 -0.023
  0.025 -0.023  0.916
atom    7   Tr[ns(na)] =   5.43272
    eigenvalues: 
  0.840  0.930  0.946
    eigenvectors:
  0.338  0.000  0.662
  0.000  1.000  0.000
  0.662  0.000  0.338
    occupations:
  0.910  0.000 -0.050
  0.000  0.930  0.000
 -0.050  0.000  0.876
atom    8   Tr[ns(na)] =   5.43273
    eigenvalues: 
  0.840  0.930  0.946
    eigenvectors:
  0.338  0.000  0.662
  0.497  0.251  0.253
  0.166  0.749  0.085
    occupations:
  0.911 -0.043  0.025
 -0.043  0.890  0.023
  0.025  0.023  0.916
atom    9   Tr[ns(na)] =   5.43273
    eigenvalues: 
  0.840  0.930  0.946
    eigenvectors:
  0.338  0.000  0.662
  0.497  0.249  0.254
  0.165  0.751  0.084
    occupations:
  0.911  0.044  0.025
  0.044  0.890 -0.023
  0.025 -0.023  0.916
atom   10   Tr[ns(na)] =   5.43273
    eigenvalues: 
  0.840  0.930  0.946
    eigenvectors:
  0.338  0.000  0.662
  0.000  1.000  0.000
  0.662  0.000  0.338
    occupations:
  0.911  0.000 -0.050
  0.000  0.930  0.000
 -0.050  0.000  0.876
N of occupied +U levels =  56.2785661
 --- exit write_ns ---
 --- in v_hubbard ---
Hubbard energy    0.2489
 -------

     total cpu time spent up to now is      186.1 secs

     total energy              =    -538.06198890 Ry
     Harris-Foulkes estimate   =    -538.06195996 Ry
     estimated scf accuracy    <       0.00000366 Ry

     iteration #  9     ecut=    30.00 Ry     beta=0.20
     Davidson diagonalization with overlap
     ethr =  4.81E-09,  avg # of iterations =  1.3
 --- enter write_ns ---
 LDA+U parameters:
U( 1)     =  3.00000000
alpha( 1) =  0.00000000
U( 2)     =  0.00000000
alpha( 2) =  0.05000000
U( 3)     =  0.00000000
alpha( 3) =  0.00000000
U( 4)     =  0.00000000
alpha( 4) =  0.00000000
atom    1   Tr[ns(na)] =   8.05481
    eigenvalues: 
  0.532  0.532  0.987  0.987  0.989
    eigenvectors:
  0.000  0.000  0.000  0.000  1.000
  0.336  0.322  0.004  0.338  0.000
  0.322  0.336  0.338  0.004  0.000
  0.285  0.058  0.517  0.140  0.000
  0.058  0.285  0.140  0.517  0.000
    occupations:
  0.989  0.000  0.000  0.000  0.000
  0.000  0.688  0.000 -0.079  0.201
  0.000  0.000  0.688  0.201  0.079
  0.000 -0.079  0.201  0.831  0.000
  0.000  0.201  0.079  0.000  0.831
atom    2   Tr[ns(na)] =   8.05275
    eigenvalues: 
  0.530  0.530  0.988  0.988  0.990
    eigenvectors:
  0.000  0.000  0.000  0.000  1.000
  0.637  0.020  0.220  0.123  0.000
  0.020  0.637  0.123  0.220  0.000
  0.013  0.329  0.473  0.185  0.000
  0.329  0.013  0.185  0.473  0.000
    occupations:
  0.990  0.000  0.000  0.000  0.000
  0.000  0.687  0.000  0.079  0.202
  0.000  0.000  0.687  0.202 -0.079
  0.000  0.079  0.202  0.831  0.000
  0.000  0.202 -0.079  0.000  0.831
atom    3   Tr[ns(na)] =   3.78101
    eigenvalues: 
  0.354  0.354  0.380  0.401  0.401
    eigenvectors:
  0.000  0.000  1.000  0.000  0.000
  0.781  0.140  0.000  0.012  0.068
  0.140  0.781  0.000  0.068  0.012
  0.013  0.067  0.000  0.780  0.140
  0.067  0.013  0.000  0.140  0.780
    occupations:
  0.380  0.000  0.000  0.000  0.000
  0.000  0.358  0.000  0.000  0.012
  0.000  0.000  0.358  0.012  0.000
  0.000  0.000  0.012  0.397  0.000
  0.000  0.012  0.000  0.000  0.397
atom    4   Tr[ns(na)] =   3.79508
    eigenvalues: 
  0.356  0.356  0.382  0.402  0.402
    eigenvectors:
  0.000  0.000  1.000  0.000  0.000
  0.782  0.139  0.000  0.011  0.067
  0.139  0.782  0.000  0.067  0.011
  0.012  0.066  0.000  0.781  0.140
  0.066  0.012  0.000  0.140  0.781
    occupations:
  0.382  0.000  0.000  0.000  0.000
  0.000  0.360  0.000  0.000  0.012
  0.000  0.000  0.360  0.012  0.000
  0.000  0.000  0.012  0.398  0.000
  0.000  0.012  0.000  0.000  0.398
atom    5   Tr[ns(na)] =   5.43250
    eigenvalues: 
  0.840  0.930  0.946
    eigenvectors:
  0.338  0.000  0.662
  0.496  0.251  0.253
  0.166  0.749  0.085
    occupations:
  0.910 -0.043  0.025
 -0.043  0.889  0.023
  0.025  0.023  0.916
atom    6   Tr[ns(na)] =   5.43250
    eigenvalues: 
  0.840  0.930  0.946
    eigenvectors:
  0.338  0.000  0.662
  0.497  0.249  0.254
  0.165  0.751  0.084
    occupations:
  0.910  0.043  0.025
  0.043  0.889 -0.023
  0.025 -0.023  0.916
atom    7   Tr[ns(na)] =   5.43250
    eigenvalues: 
  0.840  0.930  0.946
    eigenvectors:
  0.338  0.000  0.662
  0.000  1.000  0.000
  0.662  0.000  0.338
    occupations:
  0.910  0.000 -0.050
  0.000  0.930  0.000
 -0.050  0.000  0.876
atom    8   Tr[ns(na)] =   5.43249
    eigenvalues: 
  0.840  0.930  0.946
    eigenvectors:
  0.338  0.000  0.662
  0.496  0.251  0.253
  0.166  0.749  0.085
    occupations:
  0.911 -0.044  0.025
 -0.044  0.889  0.023
  0.025  0.023  0.916
atom    9   Tr[ns(na)] =   5.43249
    eigenvalues: 
  0.840  0.930  0.946
    eigenvectors:
  0.338  0.000  0.662
  0.497  0.249  0.254
  0.165  0.751  0.084
    occupations:
  0.911  0.044  0.025
  0.044  0.889 -0.023
  0.025 -0.023  0.916
atom   10   Tr[ns(na)] =   5.43249
    eigenvalues: 
  0.840  0.930  0.946
    eigenvectors:
  0.338  0.000  0.662
  0.000  1.000  0.000
  0.662  0.000  0.338
    occupations:
  0.911  0.000 -0.050
  0.000  0.930  0.000
 -0.050  0.000  0.876
N of occupied +U levels =  56.2786301
 --- exit write_ns ---
 --- in v_hubbard ---
Hubbard energy    0.2490
 -------

     total cpu time spent up to now is      205.9 secs

     total energy              =    -538.06200842 Ry
     Harris-Foulkes estimate   =    -538.06198921 Ry
     estimated scf accuracy    <       0.00000038 Ry

     iteration # 10     ecut=    30.00 Ry     beta=0.20
     Davidson diagonalization with overlap
     ethr =  5.05E-10,  avg # of iterations =  2.1
 --- enter write_ns ---
 LDA+U parameters:
U( 1)     =  3.00000000
alpha( 1) =  0.00000000
U( 2)     =  0.00000000
alpha( 2) =  0.05000000
U( 3)     =  0.00000000
alpha( 3) =  0.00000000
U( 4)     =  0.00000000
alpha( 4) =  0.00000000
atom    1   Tr[ns(na)] =   8.05493
    eigenvalues: 
  0.532  0.532  0.987  0.987  0.989
    eigenvectors:
  0.000  0.000  0.000  0.000  1.000
  0.336  0.321  0.004  0.338  0.000
  0.321  0.336  0.338  0.004  0.000
  0.284  0.058  0.517  0.140  0.000
  0.058  0.284  0.140  0.517  0.000
    occupations:
  0.989  0.000  0.000  0.000  0.000
  0.000  0.688  0.000 -0.079  0.201
  0.000  0.000  0.688  0.201  0.079
  0.000 -0.079  0.201  0.831  0.000
  0.000  0.201  0.079  0.000  0.831
atom    2   Tr[ns(na)] =   8.05279
    eigenvalues: 
  0.531  0.531  0.988  0.988  0.990
    eigenvectors:
  0.000  0.000  0.000  0.000  1.000
  0.638  0.020  0.220  0.123  0.000
  0.020  0.638  0.123  0.220  0.000
  0.013  0.329  0.473  0.185  0.000
  0.329  0.013  0.185  0.473  0.000
    occupations:
  0.990  0.000  0.000  0.000  0.000
  0.000  0.687  0.000  0.079  0.202
  0.000  0.000  0.687  0.202 -0.079
  0.000  0.079  0.202  0.831  0.000
  0.000  0.202 -0.079  0.000  0.831
atom    3   Tr[ns(na)] =   3.78085
    eigenvalues: 
  0.354  0.354  0.380  0.401  0.401
    eigenvectors:
  0.000  0.000  1.000  0.000  0.000
  0.781  0.140  0.000  0.012  0.068
  0.140  0.781  0.000  0.068  0.012
  0.013  0.067  0.000  0.780  0.140
  0.067  0.013  0.000  0.140  0.780
    occupations:
  0.380  0.000  0.000  0.000  0.000
  0.000  0.358  0.000  0.000  0.012
  0.000  0.000  0.358  0.012  0.000
  0.000  0.000  0.012  0.397  0.000
  0.000  0.012  0.000  0.000  0.397
atom    4   Tr[ns(na)] =   3.79494
    eigenvalues: 
  0.356  0.356  0.382  0.402  0.402
    eigenvectors:
  0.000  0.000  1.000  0.000  0.000
  0.782  0.139  0.000  0.011  0.067
  0.139  0.782  0.000  0.067  0.011
  0.012  0.066  0.000  0.781  0.140
  0.066  0.012  0.000  0.140  0.781
    occupations:
  0.382  0.000  0.000  0.000  0.000
  0.000  0.360  0.000  0.000  0.012
  0.000  0.000  0.360  0.012  0.000
  0.000  0.000  0.012  0.398  0.000
  0.000  0.012  0.000  0.000  0.398
atom    5   Tr[ns(na)] =   5.43250
    eigenvalues: 
  0.840  0.930  0.946
    eigenvectors:
  0.338  0.000  0.662
  0.497  0.251  0.253
  0.166  0.749  0.085
    occupations:
  0.910 -0.043  0.025
 -0.043  0.889  0.023
  0.025  0.023  0.916
atom    6   Tr[ns(na)] =   5.43250
    eigenvalues: 
  0.840  0.930  0.946
    eigenvectors:
  0.338  0.000  0.662
  0.497  0.249  0.254
  0.165  0.751  0.084
    occupations:
  0.910  0.043  0.025
  0.043  0.889 -0.023
  0.025 -0.023  0.916
atom    7   Tr[ns(na)] =   5.43250
    eigenvalues: 
  0.840  0.930  0.946
    eigenvectors:
  0.338  0.000  0.662
  0.000  1.000  0.000
  0.662  0.000  0.338
    occupations:
  0.910  0.000 -0.050
  0.000  0.930  0.000
 -0.050  0.000  0.876
atom    8   Tr[ns(na)] =   5.43249
    eigenvalues: 
  0.840  0.930  0.946
    eigenvectors:
  0.338  0.000  0.662
  0.497  0.251  0.253
  0.166  0.749  0.085
    occupations:
  0.911 -0.044  0.025
 -0.044  0.889  0.023
  0.025  0.023  0.916
atom    9   Tr[ns(na)] =   5.43249
    eigenvalues: 
  0.840  0.930  0.946
    eigenvectors:
  0.338  0.000  0.662
  0.497  0.249  0.254
  0.165  0.751  0.084
    occupations:
  0.911  0.044  0.025
  0.044  0.889 -0.023
  0.025 -0.023  0.916
atom   10   Tr[ns(na)] =   5.43249
    eigenvalues: 
  0.840  0.930  0.946
    eigenvectors:
  0.338  0.000  0.662
  0.000  1.000  0.000
  0.662  0.000  0.338
    occupations:
  0.911  0.000 -0.050
  0.000  0.930  0.000
 -0.050  0.000  0.876
N of occupied +U levels =  56.2785012
 --- exit write_ns ---
 --- in v_hubbard ---
Hubbard energy    0.2491
 -------

     total cpu time spent up to now is      226.3 secs

     total energy              =    -538.06202084 Ry
     Harris-Foulkes estimate   =    -538.06200846 Ry
     estimated scf accuracy    <       0.00000010 Ry

     iteration # 11     ecut=    30.00 Ry     beta=0.20
     Davidson diagonalization with overlap
     ethr =  1.37E-10,  avg # of iterations =  2.0
 --- enter write_ns ---
 LDA+U parameters:
U( 1)     =  3.00000000
alpha( 1) =  0.00000000
U( 2)     =  0.00000000
alpha( 2) =  0.05000000
U( 3)     =  0.00000000
alpha( 3) =  0.00000000
U( 4)     =  0.00000000
alpha( 4) =  0.00000000
atom    1   Tr[ns(na)] =   8.05474
    eigenvalues: 
  0.532  0.532  0.987  0.987  0.989
    eigenvectors:
  0.000  0.000  0.000  0.000  1.000
  0.336  0.322  0.004  0.338  0.000
  0.322  0.336  0.338  0.004  0.000
  0.285  0.058  0.517  0.140  0.000
  0.058  0.285  0.140  0.517  0.000
    occupations:
  0.989  0.000  0.000  0.000  0.000
  0.000  0.688  0.000 -0.079  0.201
  0.000  0.000  0.688  0.201  0.079
  0.000 -0.079  0.201  0.831  0.000
  0.000  0.201  0.079  0.000  0.831
atom    2   Tr[ns(na)] =   8.05271
    eigenvalues: 
  0.530  0.530  0.988  0.988  0.990
    eigenvectors:
  0.000  0.000  0.000  0.000  1.000
  0.637  0.021  0.220  0.123  0.000
  0.021  0.637  0.123  0.220  0.000
  0.013  0.330  0.473  0.185  0.000
  0.330  0.013  0.185  0.473  0.000
    occupations:
  0.990  0.000  0.000  0.000  0.000
  0.000  0.687  0.000  0.079  0.202
  0.000  0.000  0.687  0.202 -0.079
  0.000  0.079  0.202  0.831  0.000
  0.000  0.202 -0.079  0.000  0.831
atom    3   Tr[ns(na)] =   3.78068
    eigenvalues: 
  0.354  0.354  0.380  0.401  0.401
    eigenvectors:
  0.000  0.000  1.000  0.000  0.000
  0.781  0.140  0.000  0.012  0.068
  0.140  0.781  0.000  0.068  0.012
  0.013  0.067  0.000  0.780  0.141
  0.067  0.013  0.000  0.141  0.780
    occupations:
  0.380  0.000  0.000  0.000  0.000
  0.000  0.358  0.000  0.000  0.012
  0.000  0.000  0.358  0.012  0.000
  0.000  0.000  0.012  0.397  0.000
  0.000  0.012  0.000  0.000  0.397
atom    4   Tr[ns(na)] =   3.79477
    eigenvalues: 
  0.356  0.356  0.382  0.402  0.402
    eigenvectors:
  0.000  0.000  1.000  0.000  0.000
  0.782  0.139  0.000  0.012  0.067
  0.139  0.782  0.000  0.067  0.012
  0.012  0.066  0.000  0.781  0.140
  0.066  0.012  0.000  0.140  0.781
    occupations:
  0.382  0.000  0.000  0.000  0.000
  0.000  0.360  0.000  0.000  0.012
  0.000  0.000  0.360  0.012  0.000
  0.000  0.000  0.012  0.398  0.000
  0.000  0.012  0.000  0.000  0.398
atom    5   Tr[ns(na)] =   5.43258
    eigenvalues: 
  0.840  0.930  0.946
    eigenvectors:
  0.338  0.000  0.662
  0.497  0.251  0.253
  0.166  0.749  0.085
    occupations:
  0.910 -0.043  0.025
 -0.043  0.889  0.023
  0.025  0.023  0.916
atom    6   Tr[ns(na)] =   5.43258
    eigenvalues: 
  0.840  0.930  0.946
    eigenvectors:
  0.338  0.000  0.662
  0.497  0.249  0.254
  0.165  0.751  0.084
    occupations:
  0.910  0.043  0.025
  0.043  0.889 -0.023
  0.025 -0.023  0.916
atom    7   Tr[ns(na)] =   5.43258
    eigenvalues: 
  0.840  0.930  0.946
    eigenvectors:
  0.338  0.000  0.662
  0.000  1.000  0.000
  0.662  0.000  0.338
    occupations:
  0.910  0.000 -0.050
  0.000  0.930  0.000
 -0.050  0.000  0.876
atom    8   Tr[ns(na)] =   5.43257
    eigenvalues: 
  0.840  0.930  0.946
    eigenvectors:
  0.338  0.000  0.662
  0.497  0.251  0.253
  0.166  0.749  0.085
    occupations:
  0.911 -0.044  0.025
 -0.044  0.889  0.023
  0.025  0.023  0.916
atom    9   Tr[ns(na)] =   5.43257
    eigenvalues: 
  0.840  0.930  0.946
    eigenvectors:
  0.338  0.000  0.662
  0.497  0.249  0.254
  0.165  0.751  0.084
    occupations:
  0.911  0.044  0.025
  0.044  0.889 -0.023
  0.025 -0.023  0.916
atom   10   Tr[ns(na)] =   5.43257
    eigenvalues: 
  0.840  0.930  0.946
    eigenvectors:
  0.338  0.000  0.662
  0.000  1.000  0.000
  0.662  0.000  0.338
    occupations:
  0.911  0.000 -0.050
  0.000  0.930  0.000
 -0.050  0.000  0.876
N of occupied +U levels =  56.2783572
 --- exit write_ns ---
 --- in v_hubbard ---
Hubbard energy    0.2491
 -------

     total cpu time spent up to now is      244.7 secs

     total energy              =    -538.06202894 Ry
     Harris-Foulkes estimate   =    -538.06202086 Ry
     estimated scf accuracy    <       0.00000002 Ry

     iteration # 12     ecut=    30.00 Ry     beta=0.20
     Davidson diagonalization with overlap
     ethr =  2.84E-11,  avg # of iterations =  2.1
 --- enter write_ns ---
 LDA+U parameters:
U( 1)     =  3.00000000
alpha( 1) =  0.00000000
U( 2)     =  0.00000000
alpha( 2) =  0.05000000
U( 3)     =  0.00000000
alpha( 3) =  0.00000000
U( 4)     =  0.00000000
alpha( 4) =  0.00000000
atom    1   Tr[ns(na)] =   8.05480
    eigenvalues: 
  0.532  0.532  0.987  0.987  0.989
    eigenvectors:
  0.000  0.000  0.000  0.000  1.000
  0.336  0.322  0.004  0.338  0.000
  0.322  0.336  0.338  0.004  0.000
  0.285  0.058  0.517  0.140  0.000
  0.058  0.285  0.140  0.517  0.000
    occupations:
  0.989  0.000  0.000  0.000  0.000
  0.000  0.688  0.000 -0.079  0.201
  0.000  0.000  0.688  0.201  0.079
  0.000 -0.079  0.201  0.831  0.000
  0.000  0.201  0.079  0.000  0.831
atom    2   Tr[ns(na)] =   8.05275
    eigenvalues: 
  0.530  0.530  0.988  0.988  0.990
    eigenvectors:
  0.000  0.000  0.000  0.000  1.000
  0.638  0.020  0.220  0.122  0.000
  0.020  0.638  0.122  0.220  0.000
  0.013  0.329  0.473  0.185  0.000
  0.329  0.013  0.185  0.473  0.000
    occupations:
  0.990  0.000  0.000  0.000  0.000
  0.000  0.687  0.000  0.079  0.202
  0.000  0.000  0.687  0.202 -0.079
  0.000  0.079  0.202  0.831  0.000
  0.000  0.202 -0.079  0.000  0.831
atom    3   Tr[ns(na)] =   3.78080
    eigenvalues: 
  0.354  0.354  0.380  0.401  0.401
    eigenvectors:
  0.000  0.000  1.000  0.000  0.000
  0.781  0.139  0.000  0.012  0.068
  0.139  0.781  0.000  0.068  0.012
  0.013  0.067  0.000  0.780  0.141
  0.067  0.013  0.000  0.141  0.780
    occupations:
  0.380  0.000  0.000  0.000  0.000
  0.000  0.358  0.000  0.000  0.012
  0.000  0.000  0.358  0.012  0.000
  0.000  0.000  0.012  0.397  0.000
  0.000  0.012  0.000  0.000  0.397
atom    4   Tr[ns(na)] =   3.79488
    eigenvalues: 
  0.356  0.356  0.382  0.402  0.402
    eigenvectors:
  0.000  0.000  1.000  0.000  0.000
  0.782  0.139  0.000  0.011  0.067
  0.139  0.782  0.000  0.067  0.011
  0.012  0.066  0.000  0.781  0.140
  0.066  0.012  0.000  0.140  0.781
    occupations:
  0.382  0.000  0.000  0.000  0.000
  0.000  0.360  0.000  0.000  0.012
  0.000  0.000  0.360  0.012  0.000
  0.000  0.000  0.012  0.398  0.000
  0.000  0.012  0.000  0.000  0.398
atom    5   Tr[ns(na)] =   5.43254
    eigenvalues: 
  0.840  0.930  0.946
    eigenvectors:
  0.338  0.000  0.662
  0.497  0.251  0.253
  0.166  0.749  0.085
    occupations:
  0.910 -0.043  0.025
 -0.043  0.889  0.023
  0.025  0.023  0.916
atom    6   Tr[ns(na)] =   5.43254
    eigenvalues: 
  0.840  0.930  0.946
    eigenvectors:
  0.338  0.000  0.662
  0.497  0.249  0.254
  0.165  0.751  0.084
    occupations:
  0.910  0.043  0.025
  0.043  0.889 -0.023
  0.025 -0.023  0.916
atom    7   Tr[ns(na)] =   5.43254
    eigenvalues: 
  0.840  0.930  0.946
    eigenvectors:
  0.338  0.000  0.662
  0.000  1.000  0.000
  0.662  0.000  0.338
    occupations:
  0.910  0.000 -0.050
  0.000  0.930  0.000
 -0.050  0.000  0.876
atom    8   Tr[ns(na)] =   5.43253
    eigenvalues: 
  0.840  0.930  0.946
    eigenvectors:
  0.338  0.000  0.662
  0.497  0.251  0.253
  0.166  0.749  0.085
    occupations:
  0.911 -0.044  0.025
 -0.044  0.889  0.023
  0.025  0.023  0.916
atom    9   Tr[ns(na)] =   5.43253
    eigenvalues: 
  0.840  0.930  0.946
    eigenvectors:
  0.338  0.000  0.662
  0.497  0.249  0.254
  0.165  0.751  0.084
    occupations:
  0.911  0.044  0.025
  0.044  0.889 -0.023
  0.025 -0.023  0.916
atom   10   Tr[ns(na)] =   5.43253
    eigenvalues: 
  0.840  0.930  0.946
    eigenvectors:
  0.338  0.000  0.662
  0.000  1.000  0.000
  0.662  0.000  0.338
    occupations:
  0.911  0.000 -0.050
  0.000  0.930  0.000
 -0.050  0.000  0.876
N of occupied +U levels =  56.2784389
 --- exit write_ns ---
 --- in v_hubbard ---
Hubbard energy    0.2491
 -------

     total cpu time spent up to now is      261.4 secs

     total energy              =    -538.06203409 Ry
     Harris-Foulkes estimate   =    -538.06202895 Ry
     estimated scf accuracy    <       0.00000002 Ry

     iteration # 13     ecut=    30.00 Ry     beta=0.20
     Davidson diagonalization with overlap
     ethr =  2.07E-11,  avg # of iterations =  2.0
 --- enter write_ns ---
 LDA+U parameters:
U( 1)     =  3.00000000
alpha( 1) =  0.00000000
U( 2)     =  0.00000000
alpha( 2) =  0.05000000
U( 3)     =  0.00000000
alpha( 3) =  0.00000000
U( 4)     =  0.00000000
alpha( 4) =  0.00000000
atom    1   Tr[ns(na)] =   8.05476
    eigenvalues: 
  0.532  0.532  0.987  0.987  0.989
    eigenvectors:
  0.000  0.000  0.000  0.000  1.000
  0.337  0.321  0.004  0.338  0.000
  0.321  0.337  0.338  0.004  0.000
  0.284  0.058  0.518  0.140  0.000
  0.058  0.284  0.140  0.518  0.000
    occupations:
  0.989  0.000  0.000  0.000  0.000
  0.000  0.688  0.000 -0.079  0.201
  0.000  0.000  0.688  0.201  0.079
  0.000 -0.079  0.201  0.831  0.000
  0.000  0.201  0.079  0.000  0.831
atom    2   Tr[ns(na)] =   8.05271
    eigenvalues: 
  0.530  0.530  0.988  0.988  0.990
    eigenvectors:
  0.000  0.000  0.000  0.000  1.000
  0.638  0.020  0.220  0.123  0.000
  0.020  0.638  0.123  0.220  0.000
  0.013  0.329  0.473  0.185  0.000
  0.329  0.013  0.185  0.473  0.000
    occupations:
  0.990  0.000  0.000  0.000  0.000
  0.000  0.687  0.000  0.079  0.202
  0.000  0.000  0.687  0.202 -0.079
  0.000  0.079  0.202  0.831  0.000
  0.000  0.202 -0.079  0.000  0.831
atom    3   Tr[ns(na)] =   3.78076
    eigenvalues: 
  0.354  0.354  0.380  0.401  0.401
    eigenvectors:
  0.000  0.000  1.000  0.000  0.000
  0.781  0.139  0.000  0.012  0.068
  0.139  0.781  0.000  0.068  0.012
  0.013  0.067  0.000  0.780  0.141
  0.067  0.013  0.000  0.141  0.780
    occupations:
  0.380  0.000  0.000  0.000  0.000
  0.000  0.358  0.000  0.000  0.012
  0.000  0.000  0.358  0.012  0.000
  0.000  0.000  0.012  0.397  0.000
  0.000  0.012  0.000  0.000  0.397
atom    4   Tr[ns(na)] =   3.79484
    eigenvalues: 
  0.356  0.356  0.382  0.402  0.402
    eigenvectors:
  0.000  0.000  1.000  0.000  0.000
  0.782  0.139  0.000  0.011  0.067
  0.139  0.782  0.000  0.067  0.011
  0.012  0.066  0.000  0.781  0.140
  0.066  0.012  0.000  0.140  0.781
    occupations:
  0.382  0.000  0.000  0.000  0.000
  0.000  0.360  0.000  0.000  0.012
  0.000  0.000  0.360  0.012  0.000
  0.000  0.000  0.012  0.398  0.000
  0.000  0.012  0.000  0.000  0.398
atom    5   Tr[ns(na)] =   5.43256
    eigenvalues: 
  0.840  0.930  0.946
    eigenvectors:
  0.338  0.000  0.662
  0.497  0.251  0.253
  0.166  0.749  0.085
    occupations:
  0.910 -0.043  0.025
 -0.043  0.889  0.023
  0.025  0.023  0.916
atom    6   Tr[ns(na)] =   5.43256
    eigenvalues: 
  0.840  0.930  0.946
    eigenvectors:
  0.338  0.000  0.662
  0.497  0.249  0.254
  0.165  0.751  0.084
    occupations:
  0.910  0.043  0.025
  0.043  0.889 -0.023
  0.025 -0.023  0.916
atom    7   Tr[ns(na)] =   5.43256
    eigenvalues: 
  0.840  0.930  0.946
    eigenvectors:
  0.338  0.000  0.662
  0.000  1.000  0.000
  0.662  0.000  0.338
    occupations:
  0.910  0.000 -0.050
  0.000  0.930  0.000
 -0.050  0.000  0.876
atom    8   Tr[ns(na)] =   5.43255
    eigenvalues: 
  0.840  0.930  0.946
    eigenvectors:
  0.338  0.000  0.662
  0.497  0.251  0.253
  0.166  0.749  0.085
    occupations:
  0.911 -0.044  0.025
 -0.044  0.889  0.023
  0.025  0.023  0.916
atom    9   Tr[ns(na)] =   5.43255
    eigenvalues: 
  0.840  0.930  0.946
    eigenvectors:
  0.338  0.000  0.662
  0.497  0.249  0.254
  0.165  0.751  0.084
    occupations:
  0.911  0.044  0.025
  0.044  0.889 -0.023
  0.025 -0.023  0.916
atom   10   Tr[ns(na)] =   5.43255
    eigenvalues: 
  0.840  0.930  0.946
    eigenvectors:
  0.338  0.000  0.662
  0.000  1.000  0.000
  0.662  0.000  0.338
    occupations:
  0.911  0.000 -0.050
  0.000  0.930  0.000
 -0.050  0.000  0.876
N of occupied +U levels =  56.2784058
 --- exit write_ns ---
 --- in v_hubbard ---
Hubbard energy    0.2491
 -------

     total cpu time spent up to now is      275.5 secs

     End of self-consistent calculation

          k = 0.0000 0.0000 0.0000 (  2175 PWs)   bands (ev):

   -19.8051 -19.6303  -6.5450  -5.8425  -5.8425  -5.8087  -5.8087  -5.4670
    -3.8227  -3.2655  -3.2390  -3.2390  -3.0281  -3.0281   5.1875   6.8288
     6.8288   7.1718   7.1718   7.2049   7.5181   7.5181   7.7142   9.1296
     9.2973   9.3192   9.3192   9.6248   9.6248  10.0355  10.0355  10.2522
    10.4624  10.4624  10.6782  11.1405  11.1405  11.5426  11.9773  11.9773
    14.7491  14.7491  15.4479  15.4479  16.2202  16.8057

     occupation numbers 
     0.0313   0.0313   0.0313   0.0313   0.0313   0.0313   0.0313   0.0313
     0.0313   0.0313   0.0313   0.0313   0.0313   0.0313   0.0313   0.0313
     0.0313   0.0313   0.0313   0.0313   0.0313   0.0313   0.0313   0.0313
     0.0313   0.0313   0.0313   0.0312   0.0312   0.0312   0.0312   0.0312
     0.0312   0.0312   0.0312   0.0306   0.0306   0.0234   0.0063   0.0063
     0.0000   0.0000   0.0000   0.0000   0.0000   0.0000

          k =-0.2471-0.1427 0.1027 (  2181 PWs)   bands (ev):

   -19.7794 -19.6627  -6.7228  -6.2820  -5.9433  -5.8438  -5.6027  -5.4700
    -3.6189  -3.4051  -2.9427  -2.9104  -2.8604  -2.7668   5.5439   6.7943
     6.8420   6.9294   6.9531   7.1877   7.2256   7.4777   7.6069   8.2805
     8.2864   8.8342   9.5983   9.7196   9.7319   9.9814  10.2248  10.2446
    10.4097  10.4184  10.4717  11.2170  11.3033  11.3259  12.3057  12.3764
    14.2950  14.3052  15.8341  16.0871  16.9897  17.2827

     occupation numbers 
     0.1875   0.1875   0.1875   0.1875   0.1875   0.1875   0.1875   0.1875
     0.1875   0.1875   0.1875   0.1875   0.1875   0.1875   0.1875   0.1875
     0.1875   0.1875   0.1875   0.1875   0.1875   0.1875   0.1875   0.1875
     0.1875   0.1875   0.1875   0.1875   0.1875   0.1875   0.1875   0.1875
     0.1875   0.1875   0.1875   0.1807   0.1749   0.1729   0.0045   0.0025
     0.0000   0.0000   0.0000   0.0000   0.0000   0.0000

          k = 0.4942 0.2853-0.2053 (  2202 PWs)   bands (ev):

   -19.7368 -19.7123  -6.7211  -6.7025  -5.9577  -5.9538  -5.5159  -5.5124
    -3.3999  -3.3882  -2.8017  -2.7954  -2.5200  -2.5022   5.9892   5.9983
     7.0296   7.0469   7.1747   7.1890   7.4163   7.4385   7.4976   7.5214
     7.7277   7.7516   9.4423   9.4486   9.8595   9.8668  10.2670  10.2769
    10.6353  10.6543  10.7919  10.8111  11.0535  11.0716  13.2781  13.3165
    13.3621  13.4005  16.8389  16.8598  17.1357  17.1558

     occupation numbers 
     0.0938   0.0938   0.0938   0.0938   0.0938   0.0938   0.0938   0.0938
     0.0938   0.0938   0.0938   0.0938   0.0938   0.0938   0.0938   0.0938
     0.0938   0.0938   0.0938   0.0938   0.0938   0.0938   0.0938   0.0938
     0.0938   0.0938   0.0937   0.0937   0.0937   0.0937   0.0937   0.0937
     0.0937   0.0937   0.0937   0.0937   0.0929   0.0927   0.0000   0.0000
     0.0000   0.0000   0.0000   0.0000   0.0000   0.0000

          k =-0.2471 0.1427 0.2053 (  2195 PWs)   bands (ev):

   -19.7724 -19.6703  -6.8496  -6.2319  -6.0613  -5.8167  -5.6468  -5.4577
    -3.4311  -3.2720  -3.1119  -2.9019  -2.8278  -2.5644   5.5753   6.5285
     6.7174   6.8288   7.1661   7.2999   7.3751   7.4296   7.4889   8.3458
     8.3505   8.7663   9.2399   9.3458   9.8743   9.9109  10.0193  10.0948
    10.2709  10.8095  10.9513  10.9647  11.2340  11.3086  11.8959  12.7233
    13.6236  14.7662  16.0113  16.2116  17.0545  17.5494

     occupation numbers 
     0.1875   0.1875   0.1875   0.1875   0.1875   0.1875   0.1875   0.1875
     0.1875   0.1875   0.1875   0.1875   0.1875   0.1875   0.1875   0.1875
     0.1875   0.1875   0.1875   0.1875   0.1875   0.1875   0.1875   0.1875
     0.1875   0.1875   0.1875   0.1875   0.1875   0.1875   0.1875   0.1875
     0.1875   0.1874   0.1869   0.1868   0.1798   0.1745   0.0543   0.0001
     0.0000   0.0000   0.0000   0.0000   0.0000   0.0000

          k = 0.4942 0.5706-0.1027 (  2198 PWs)   bands (ev):

   -19.7427 -19.7053  -6.9499  -6.6374  -6.1241  -5.8834  -5.5038  -5.3801
    -3.3185  -3.2623  -2.8836  -2.7138  -2.5320  -2.3894   5.8541   6.1749
     6.4015   6.9015   7.1086   7.2430   7.3141   7.4921   7.5210   7.6600
     8.0405   8.6094   8.9606   9.2480   9.5606   9.7861   9.8670  10.3175
    10.3690  10.8026  10.9091  10.9864  11.1274  11.2396  12.2987  12.7292
    13.4155  14.3450  16.9190  17.1275  17.3222  18.0269

     occupation numbers 
     0.1875   0.1875   0.1875   0.1875   0.1875   0.1875   0.1875   0.1875
     0.1875   0.1875   0.1875   0.1875   0.1875   0.1875   0.1875   0.1875
     0.1875   0.1875   0.1875   0.1875   0.1875   0.1875   0.1875   0.1875
     0.1875   0.1875   0.1875   0.1875   0.1875   0.1875   0.1875   0.1875
     0.1875   0.1874   0.1871   0.1866   0.1842   0.1795   0.0048   0.0001
     0.0000   0.0000   0.0000   0.0000   0.0000   0.0000

          k = 0.2471 0.4280 0.0000 (  2203 PWs)   bands (ev):

   -19.7521 -19.6953  -6.8407  -6.6300  -6.0443  -5.9729  -5.4315  -5.3630
    -3.5378  -3.3021  -2.8060  -2.7142  -2.5757  -2.5657   5.8610   6.1926
     6.6800   6.9998   7.0701   7.1340   7.3553   7.3662   7.4206   7.7453
     7.9509   8.8910   8.9110   9.3709   9.7476   9.7646  10.0445  10.3399
    10.6244  10.6582  10.8172  10.9369  10.9529  11.3303  12.2148  13.3081
    13.3850  14.1403  16.4498  17.0066  17.4337  17.9368

     occupation numbers 
     0.1875   0.1875   0.1875   0.1875   0.1875   0.1875   0.1875   0.1875
     0.1875   0.1875   0.1875   0.1875   0.1875   0.1875   0.1875   0.1875
     0.1875   0.1875   0.1875   0.1875   0.1875   0.1875   0.1875   0.1875
     0.1875   0.1875   0.1875   0.1875   0.1875   0.1875   0.1875   0.1875
     0.1875   0.1875   0.1874   0.1870   0.1869   0.1725   0.0091   0.0000
     0.0000   0.0000   0.0000   0.0000   0.0000   0.0000

          k = 0.4942-0.2853-0.4107 (  2202 PWs)   bands (ev):

   -19.7424 -19.7042  -7.1645  -6.4503  -6.2360  -5.9487  -5.5208  -5.2897
    -3.2070  -3.1254  -3.0548  -2.6528  -2.4835  -2.2264   5.7794   5.8800
     6.1748   6.8160   7.1568   7.2659   7.3275   7.4894   7.9783   7.9858
     8.1767   8.3105   8.6069   9.3861   9.4173   9.6788  10.0350  10.0700
    10.4159  10.7110  10.8738  11.0213  11.1531  11.3705  11.8383  12.4092
    13.3176  14.7800  17.0592  17.2786  17.5362  17.6220

     occupation numbers 
     0.0938   0.0938   0.0938   0.0938   0.0938   0.0938   0.0938   0.0938
     0.0938   0.0938   0.0938   0.0938   0.0938   0.0938   0.0938   0.0938
     0.0938   0.0938   0.0938   0.0938   0.0938   0.0938   0.0938   0.0938
     0.0938   0.0938   0.0938   0.0937   0.0937   0.0937   0.0937   0.0937
     0.0937   0.0937   0.0936   0.0931   0.0917   0.0841   0.0339   0.0009
     0.0000   0.0000   0.0000   0.0000   0.0000   0.0000

          k = 0.0000 0.0000 0.3080 (  2187 PWs)   bands (ev):

   -19.7791 -19.6636  -6.6113  -5.9704  -5.9305  -5.9257  -5.8338  -5.8322
    -3.2169  -3.1377  -3.1244  -2.9750  -2.9074  -2.8957   5.6097   6.8794
     6.9214   6.9233   7.1127   7.1698   7.1736   7.4931   7.4960   8.4593
     8.4600   8.8628   9.4403   9.5502   9.5507   9.7313  10.1170  10.1188
    10.4457  10.4463  10.6662  11.2656  11.2661  11.3186  12.2790  12.2793
    14.2560  14.2573  15.9271  15.9312  16.8973  17.4945

     occupation numbers 
     0.0625   0.0625   0.0625   0.0625   0.0625   0.0625   0.0625   0.0625
     0.0625   0.0625   0.0625   0.0625   0.0625   0.0625   0.0625   0.0625
     0.0625   0.0625   0.0625   0.0625   0.0625   0.0625   0.0625   0.0625
     0.0625   0.0625   0.0625   0.0625   0.0625   0.0625   0.0625   0.0625
     0.0625   0.0625   0.0625   0.0593   0.0593   0.0579   0.0019   0.0019
     0.0000   0.0000   0.0000   0.0000   0.0000   0.0000

          k = 0.7412 0.4280 0.0000 (  2204 PWs)   bands (ev):

   -19.7516 -19.6964  -6.7260  -6.5945  -6.1362  -5.8244  -5.6809  -5.5400
    -3.1889  -3.1014  -3.0488  -2.6822  -2.6622  -2.5893   5.9010   6.4475
     6.5765   7.0195   7.1008   7.2337   7.2775   7.4073   7.4770   7.6915
     8.0353   8.7034   8.9714   9.4555   9.5433   9.6784   9.8358  10.2199
    10.6265  10.7701  10.8333  11.0101  11.0480  11.1504  12.2150  13.2297
    13.3012  14.1671  16.7016  16.7393  17.6043  17.8047

     occupation numbers 
     0.1875   0.1875   0.1875   0.1875   0.1875   0.1875   0.1875   0.1875
     0.1875   0.1875   0.1875   0.1875   0.1875   0.1875   0.1875   0.1875
     0.1875   0.1875   0.1875   0.1875   0.1875   0.1875   0.1875   0.1875
     0.1875   0.1875   0.1875   0.1875   0.1875   0.1875   0.1875   0.1875
     0.1875   0.1874   0.1873   0.1864   0.1859   0.1835   0.0091   0.0000
     0.0000   0.0000   0.0000   0.0000   0.0000   0.0000

          k = 0.4942 0.2853 0.1027 (  2211 PWs)   bands (ev):

   -19.7432 -19.7048  -6.9663  -6.5328  -6.3172  -5.6921  -5.6150  -5.3531
    -3.3321  -3.1715  -3.0414  -2.6072  -2.5667  -2.3820   5.8881   6.1580
     6.3490   6.8851   7.1320   7.1752   7.3554   7.4407   7.5978   7.6523
     8.0791   8.6633   8.9555   9.3819   9.4075   9.6503   9.9803  10.2298
    10.4514  10.8694  11.0088  11.0248  11.0641  11.0943  12.2535  12.7438
    13.4621  14.3265  16.8982  16.9499  17.5927  17.9406

     occupation numbers 
     0.1875   0.1875   0.1875   0.1875   0.1875   0.1875   0.1875   0.1875
     0.1875   0.1875   0.1875   0.1875   0.1875   0.1875   0.1875   0.1875
     0.1875   0.1875   0.1875   0.1875   0.1875   0.1875   0.1875   0.1875
     0.1875   0.1875   0.1875   0.1875   0.1875   0.1875   0.1875   0.1875
     0.1875   0.1872   0.1864   0.1862   0.1856   0.1850   0.0068   0.0000
     0.0000   0.0000   0.0000   0.0000   0.0000   0.0000

          k = 0.7412-0.4280-0.3080 (  2210 PWs)   bands (ev):

   -19.7430 -19.7056  -6.9026  -6.4421  -6.2956  -5.7877  -5.7531  -5.4825
    -3.0783  -3.0614  -2.9714  -2.7346  -2.6271  -2.4319   5.9649   6.3009
     6.3893   6.8630   7.1058   7.2222   7.3937   7.4722   7.6342   7.6722
     8.0524   8.6751   8.8380   9.3669   9.4800   9.4964   9.6478  10.1634
    10.4944  10.8738  10.9684  11.0129  11.1358  11.1554  12.2134  12.6961
    13.4110  14.2966  17.0732  17.0831  17.5613  17.9153

     occupation numbers 
     0.1875   0.1875   0.1875   0.1875   0.1875   0.1875   0.1875   0.1875
     0.1875   0.1875   0.1875   0.1875   0.1875   0.1875   0.1875   0.1875
     0.1875   0.1875   0.1875   0.1875   0.1875   0.1875   0.1875   0.1875
     0.1875   0.1875   0.1875   0.1875   0.1875   0.1875   0.1875   0.1875
     0.1875   0.1872   0.1868   0.1863   0.1840   0.1833   0.0092   0.0001
     0.0000   0.0000   0.0000   0.0000   0.0000   0.0000

          k = 0.4942-0.5706-0.2053 (  2206 PWs)   bands (ev):

   -19.7388 -19.7100  -6.8792  -6.8680  -6.0287  -6.0260  -5.4225  -5.4212
    -3.1646  -3.1567  -2.8268  -2.8130  -2.3879  -2.3847   6.0331   6.0439
     6.5334   6.5412   7.0263   7.0295   7.3308   7.3391   7.6645   7.6934
     8.6679   8.6722   8.8094   8.8175   9.5021   9.5038  10.0484  10.0500
    10.6638  10.6676  10.8660  10.8734  11.1934  11.1991  12.2649  12.2692
    13.9894  13.9995  17.4381  17.4394  17.8800  17.8827

     occupation numbers 
     0.1875   0.1875   0.1875   0.1875   0.1875   0.1875   0.1875   0.1875
     0.1875   0.1875   0.1875   0.1875   0.1875   0.1875   0.1875   0.1875
     0.1875   0.1875   0.1875   0.1875   0.1875   0.1875   0.1875   0.1875
     0.1875   0.1875   0.1875   0.1875   0.1875   0.1875   0.1875   0.1875
     0.1875   0.1875   0.1873   0.1872   0.1819   0.1816   0.0063   0.0061
     0.0000   0.0000   0.0000   0.0000   0.0000   0.0000

          k = 0.0000 0.0000-0.6160 (  2186 PWs)   bands (ev):

   -19.7374 -19.7129  -6.5094  -6.4871  -5.9406  -5.9406  -5.9276  -5.9276
    -2.9083  -2.9083  -2.8908  -2.8908  -2.7208  -2.7003   6.2239   6.2337
     7.0915   7.0915   7.1089   7.1089   7.4067   7.4306   7.6775   7.6775
     7.7014   7.7014   9.5975   9.5975   9.6060   9.6060   9.6696   9.6809
    10.8494  10.8673  10.9423  10.9423  10.9608  10.9608  13.2185  13.2185
    13.2562  13.2562  17.1206  17.1206  17.1419  17.1419

     occupation numbers 
     0.0313   0.0313   0.0313   0.0313   0.0313   0.0313   0.0313   0.0313
     0.0313   0.0313   0.0313   0.0313   0.0313   0.0313   0.0313   0.0313
     0.0313   0.0313   0.0313   0.0313   0.0313   0.0313   0.0313   0.0313
     0.0313   0.0313   0.0312   0.0312   0.0312   0.0312   0.0312   0.0312
     0.0312   0.0312   0.0312   0.0312   0.0311   0.0311   0.0000   0.0000
     0.0000   0.0000   0.0000   0.0000   0.0000   0.0000

          k = 0.4942-0.5706 0.1027 (  2198 PWs)   bands (ev):

   -19.7427 -19.7053  -6.9504  -6.6366  -6.1251  -5.8823  -5.5048  -5.3795
    -3.3192  -3.2623  -2.8837  -2.7128  -2.5326  -2.3891   5.8515   6.1809
     6.3960   6.9031   7.1097   7.2456   7.3240   7.4802   7.5052   7.6720
     8.0437   8.6128   8.9577   9.2474   9.5581   9.7864   9.8668  10.3197
    10.3686  10.7965  10.9153  10.9848  11.1342  11.2346  12.2985  12.7290
    13.4154  14.3447  16.9209  17.1246  17.3228  18.0276

     occupation numbers 
     0.1875   0.1875   0.1875   0.1875   0.1875   0.1875   0.1875   0.1875
     0.1875   0.1875   0.1875   0.1875   0.1875   0.1875   0.1875   0.1875
     0.1875   0.1875   0.1875   0.1875   0.1875   0.1875   0.1875   0.1875
     0.1875   0.1875   0.1875   0.1875   0.1875   0.1875   0.1875   0.1875
     0.1875   0.1874   0.1871   0.1866   0.1840   0.1798   0.0048   0.0001
     0.0000   0.0000   0.0000   0.0000   0.0000   0.0000

     the Fermi energy is    11.7358 ev

!    total energy              =    -538.06204324 Ry
     Harris-Foulkes estimate   =    -538.06203409 Ry
     estimated scf accuracy    <          8.4E-10 Ry

     The total energy is the sum of the following terms:

     one-electron contribution =     -32.92371043 Ry
     hartree contribution      =      83.68082967 Ry
     xc contribution           =    -199.61182652 Ry
     ewald contribution        =    -389.44315552 Ry
     Hubbard energy            =       0.24909799 Ry
     smearing contrib. (-TS)   =      -0.01327844 Ry

     convergence has been achieved in  13 iterations

     init_run     :      7.15s CPU      7.64s WALL (       1 calls)
     electrons    :    260.79s CPU    267.29s WALL (       1 calls)

     Called by init_run:
     wfcinit      :      0.00s CPU      0.00s WALL (       1 calls)
     potinit      :      0.27s CPU      0.33s WALL (       1 calls)

     Called by electrons:
     c_bands      :    164.85s CPU    168.01s WALL (      13 calls)
     sum_band     :     55.03s CPU     56.20s WALL (      13 calls)
     v_of_rho     :      4.58s CPU      4.63s WALL (      14 calls)
     v_h          :      0.27s CPU      0.27s WALL (      14 calls)
     v_xc         :      4.31s CPU      4.36s WALL (      14 calls)
     newd         :     36.70s CPU     37.21s WALL (      14 calls)
     mix_rho      :      0.60s CPU      0.61s WALL (      13 calls)

     Called by c_bands:
     init_us_2    :      1.71s CPU      1.71s WALL (     364 calls)
     cegterg      :    160.36s CPU    162.98s WALL (     182 calls)

     Called by sum_band:
     sum_band:bec :      0.14s CPU      0.14s WALL (     182 calls)
     addusdens    :     22.00s CPU     22.13s WALL (      13 calls)

     Called by *egterg:
     h_psi        :    121.64s CPU    123.80s WALL (     701 calls)
     s_psi        :      6.39s CPU      6.44s WALL (     701 calls)
     g_psi        :      0.46s CPU      0.49s WALL (     519 calls)
     cdiaghg      :      9.93s CPU     10.05s WALL (     687 calls)
     cegterg:over :      8.00s CPU      8.11s WALL (     519 calls)
     cegterg:upda :      4.69s CPU      4.70s WALL (     519 calls)
     cegterg:last :      3.43s CPU      3.44s WALL (     205 calls)

     Called by h_psi:
     h_psi:vloc   :    100.41s CPU    102.39s WALL (     701 calls)
     h_psi:vnl    :     13.40s CPU     13.50s WALL (     701 calls)
     add_vuspsi   :      6.36s CPU      6.37s WALL (     701 calls)
     vhpsi        :      7.49s CPU      7.56s WALL (     701 calls)

     General routines
     calbec       :     15.77s CPU     16.08s WALL (    1766 calls)
     fft          :      3.56s CPU      3.83s WALL (     219 calls)
     ffts         :      0.13s CPU      0.18s WALL (      27 calls)
     fftw         :     93.41s CPU     95.79s WALL (   51964 calls)
     interpolate  :      0.67s CPU      0.81s WALL (      27 calls)
     davcio       :      0.01s CPU      0.69s WALL (     378 calls)

     Parallel routines
     fft_scatter  :     36.12s CPU     38.40s WALL (   52210 calls)
     Hubbard U routines
     new_ns       :      1.62s CPU      2.03s WALL (      13 calls)
     vhpsi        :      7.49s CPU      7.56s WALL (     701 calls)

     PWSCF        :  4m28.38s CPU     4m35.53s WALL


   This run was terminated on:  15: 8:42  11Nov2012            

=------------------------------------------------------------------------------=
