   JOB DONE.
=------------------------------------------------------------------------------=

     Program PWSCF v.5.0.1 starts on 11Nov2012 at 14:49:51 

     This program is part of the open-source Quantum ESPRESSO suite
     for quantum simulation of materials; please cite
         "P. Giannozzi et al., J. Phys.:Condens. Matter 21 395502 (2009);
          URL http://www.quantum-espresso.org", 
     in publications or presentations arising from this work. More details at
     http://www.quantum-espresso.org/quote.php

     Parallel version (MPI), running on     2 processors
     R & G space division:  proc/pool =    2

     Current dimensions of program PWSCF are:
     Max number of different atomic species (ntypx) = 10
     Max number of k-points (npk) =  40000
     Max angular momentum in pseudopotentials (lmaxx) =  3
     Reading input from CoLaO_U300_a-10.in
               file Co.pbe-nd-rrkjus.UPF: wavefunction(s)  4S 3D renormalized
               file O.pbe-rrkjus.UPF: wavefunction(s)  2S renormalized

     Subspace diagonalization in iterative solution of the eigenvalue problem:
     a serial algorithm will be used


     Parallelization info
     --------------------
     sticks:   dense  smooth     PW     G-vecs:    dense   smooth      PW
     Min        1112     444    131                34808     8786    1448
     Max        1113     445    132                34809     8787    1449
     Sum        2225     889    263                69617    17573    2897


     Title: 
     GGA + U, U = 3.000, alpha = -0.100                                         


     bravais-lattice index     =            5
     lattice parameter (alat)  =      10.3292  a.u.
     unit-cell volume          =     793.0599 (a.u.)^3
     number of atoms/cell      =           10
     number of atomic types    =            4
     number of electrons       =        76.00
     number of Kohn-Sham states=           46
     kinetic-energy cutoff     =      30.0000  Ry
     charge density cutoff     =     300.0000  Ry
     convergence threshold     =      1.0E-08
     mixing beta               =       0.2000
     number of iterations used =            8  plain     mixing
     Exchange-correlation      =  SLA  PW   PBE  PBE ( 1 4 3 4 0)
     EXX-fraction              =        0.00

     celldm(1)=  10.329242  celldm(2)=   0.000000  celldm(3)=   0.000000
     celldm(4)=   0.488100  celldm(5)=   0.000000  celldm(6)=   0.000000

     crystal axes: (cart. coord. in units of alat)
               a(1) = (   0.505915  -0.292090   0.811624 )  
               a(2) = (   0.000000   0.584180   0.811624 )  
               a(3) = (  -0.505915  -0.292090   0.811624 )  

     reciprocal axes: (cart. coord. in units 2 pi/alat)
               b(1) = (  0.988308 -0.570600  0.410699 )  
               b(2) = (  0.000000  1.141200  0.410699 )  
               b(3) = ( -0.988308 -0.570600  0.410699 )  


     PseudoPot. # 1 for Co read from file:
     /home/mcurnan/dft-course/Project1/example_LaCoO3/Co.pbe-nd-rrkjus.UPF
     MD5 check sum: 3e47a84addf5e975e0edeaeee2a73f59
     Pseudo is Ultrasoft + core correction, Zval =  9.0
     Generated by new atomic code, or converted to UPF format
     Using radial grid of  961 points,  6 beta functions with: 
                l(1) =   0
                l(2) =   0
                l(3) =   1
                l(4) =   1
                l(5) =   2
                l(6) =   2
     Q(r) pseudized with 0 coefficients 


     PseudoPot. # 2 for La read from file:
     /home/mcurnan/dft-course/Project1/example_LaCoO3/La.pbe-nsp-van.UPF
     MD5 check sum: b2f11743f52dde65f77d1302becd7929
     Pseudo is Ultrasoft + core correction, Zval = 11.0
     Generated by new atomic code, or converted to UPF format
     Using radial grid of  907 points,  6 beta functions with: 
                l(1) =   0
                l(2) =   0
                l(3) =   1
                l(4) =   1
                l(5) =   2
                l(6) =   2
     Q(r) pseudized with  6 coefficients,  rinner =    1.200   1.200   1.200
                                                       1.200   1.200

     PseudoPot. # 3 for La read from file:
     /home/mcurnan/dft-course/Project1/example_LaCoO3/La.pbe-nsp-van.UPF
     MD5 check sum: b2f11743f52dde65f77d1302becd7929
     Pseudo is Ultrasoft + core correction, Zval = 11.0
     Generated by new atomic code, or converted to UPF format
     Using radial grid of  907 points,  6 beta functions with: 
                l(1) =   0
                l(2) =   0
                l(3) =   1
                l(4) =   1
                l(5) =   2
                l(6) =   2
     Q(r) pseudized with  6 coefficients,  rinner =    1.200   1.200   1.200
                                                       1.200   1.200

     PseudoPot. # 4 for O  read from file:
     /home/mcurnan/dft-course/Project1/example_LaCoO3/O.pbe-rrkjus.UPF
     MD5 check sum: 390ba29e75625707450f3bd3f0eb6be9
     Pseudo is Ultrasoft, Zval =  6.0
     Generated by new atomic code, or converted to UPF format
     Using radial grid of 1269 points,  4 beta functions with: 
                l(1) =   0
                l(2) =   0
                l(3) =   1
                l(4) =   1
     Q(r) pseudized with 0 coefficients 


     atomic species   valence    mass     pseudopotential
        Co1            9.00     1.00000     Co( 1.00)
        La1           11.00     1.00000     La( 1.00)
        La2           11.00     1.00000     La( 1.00)
        O1             6.00     1.00000     O ( 1.00)
 -----
     simplified LDA+U calculation, Hubbard_lmax = 2
     atomic species  L   Hubbard U  Hubbard alpha
        Co1          2    3.000000    0.000000
        La1          2    0.000000   -0.100000
        La2          2    0.000000    0.000000
        O1           1    0.000000    0.000000
 -----

      3 Sym. Ops. (no inversion) found


                                    s                        frac. trans.

      isym =  1     identity                                     

 cryst.   s( 1) = (     1          0          0      )
                  (     0          1          0      )
                  (     0          0          1      )

 cart.    s( 1) = (  1.0000000  0.0000000  0.0000000 )
                  (  0.0000000  1.0000000  0.0000000 )
                  (  0.0000000  0.0000000  1.0000000 )


      isym =  2     120 deg rotation - cryst. axis [0,0,1]       

 cryst.   s( 2) = (     0          1          0      )
                  (     0          0          1      )
                  (     1          0          0      )

 cart.    s( 2) = ( -0.5000000 -0.8660254  0.0000000 )
                  (  0.8660254 -0.5000000  0.0000000 )
                  (  0.0000000  0.0000000  1.0000000 )


      isym =  3     120 deg rotation - cryst. axis [0,0,-1]      

 cryst.   s( 3) = (     0          0          1      )
                  (     1          0          0      )
                  (     0          1          0      )

 cart.    s( 3) = ( -0.5000000  0.8660254  0.0000000 )
                  ( -0.8660254 -0.5000000  0.0000000 )
                  (  0.0000000  0.0000000  1.0000000 )


     point group C_3 (3)    
     there are  3 classes
     the character table:

       E     C3    C3^2 
A      1.00  1.00  1.00
E      1.00 -0.50 -0.50
E*     1.00 -0.50 -0.50
     imaginary part
A      0.00  0.00  0.00
E      0.00  0.87 -0.87
E*     0.00 -0.87  0.87

     the symmetry operations in each class:
     E        1
     C3       2
     C3^2     3

   Cartesian axes

     site n.     atom                  positions (alat units)
         1           Co1 tau(   1) = (   0.0000000   0.0000000   1.8261537  )
         2           Co1 tau(   2) = (   0.0000000   0.0000000   0.6087179  )
         3           La1 tau(   3) = (   0.0000000   0.0000000   0.0000000  )
         4           La2 tau(   4) = (   0.0000000   0.0000000   1.2174358  )
         5           O1  tau(   5) = (   0.2831100  -0.0928263   1.6236536  )
         6           O1  tau(   6) = (  -0.2219449  -0.1987674   1.6236536  )
         7           O1  tau(   7) = (  -0.0611651   0.2915936   1.6236536  )
         8           O1  tau(   8) = (   0.2228050   0.3849164   1.2170300  )
         9           O1  tau(   9) = (   0.2219449  -0.3854130   1.2170300  )
        10           O1  tau(  10) = (  -0.4447499   0.0004966   1.2170300  )

   Crystallographic axes

     site n.     atom                  positions (cryst. coord.)
         1           Co1 tau(   1) = (  0.7500000  0.7500000  0.7500000  )
         2           Co1 tau(   2) = (  0.2500000  0.2500000  0.2500000  )
         3           La1 tau(   3) = (  0.0000000  0.0000000  0.0000000  )
         4           La2 tau(   4) = (  0.5000000  0.5000000  0.5000000  )
         5           O1  tau(   5) = (  0.9996000  0.5609000  0.4400000  )
         6           O1  tau(   6) = (  0.5609000  0.4400000  0.9996000  )
         7           O1  tau(   7) = (  0.4400000  0.9996000  0.5609000  )
         8           O1  tau(   8) = (  0.5004000  0.9391000  0.0600000  )
         9           O1  tau(   9) = (  0.9391000  0.0600000  0.5004000  )
        10           O1  tau(  10) = (  0.0600000  0.5004000  0.9391000  )

     number of k points=    14  gaussian smearing, width (Ry)=  0.0300
                       cart. coord. in units 2pi/alat
        k(    1) = (   0.0000000   0.0000000   0.0000000), wk =   0.0312500
        k(    2) = (  -0.2470771  -0.1426500   0.1026748), wk =   0.1875000
        k(    3) = (   0.4941541   0.2853000  -0.2053496), wk =   0.0937500
        k(    4) = (  -0.2470771   0.1426500   0.2053496), wk =   0.1875000
        k(    5) = (   0.4941541   0.5706001  -0.1026748), wk =   0.1875000
        k(    6) = (   0.2470771   0.4279500   0.0000000), wk =   0.1875000
        k(    7) = (   0.4941541  -0.2853000  -0.4106993), wk =   0.0937500
        k(    8) = (   0.0000000   0.0000000   0.3080244), wk =   0.0625000
        k(    9) = (   0.7412312   0.4279500   0.0000000), wk =   0.1875000
        k(   10) = (   0.4941541   0.2853000   0.1026748), wk =   0.1875000
        k(   11) = (   0.7412312  -0.4279500  -0.3080244), wk =   0.1875000
        k(   12) = (   0.4941541  -0.5706001  -0.2053496), wk =   0.1875000
        k(   13) = (   0.0000000   0.0000000  -0.6160489), wk =   0.0312500
        k(   14) = (   0.4941541  -0.5706001   0.1026748), wk =   0.1875000

                       cryst. coord.
        k(    1) = (   0.0000000   0.0000000   0.0000000), wk =   0.0312500
        k(    2) = (   0.0000000   0.0000000   0.2500000), wk =   0.1875000
        k(    3) = (   0.0000000   0.0000000  -0.5000000), wk =   0.0937500
        k(    4) = (   0.0000000   0.2500000   0.2500000), wk =   0.1875000
        k(    5) = (   0.0000000   0.2500000  -0.5000000), wk =   0.1875000
        k(    6) = (   0.0000000   0.2500000  -0.2500000), wk =   0.1875000
        k(    7) = (   0.0000000  -0.5000000  -0.5000000), wk =   0.0937500
        k(    8) = (   0.2500000   0.2500000   0.2500000), wk =   0.0625000
        k(    9) = (   0.2500000   0.2500000  -0.5000000), wk =   0.1875000
        k(   10) = (   0.2500000   0.2500000  -0.2500000), wk =   0.1875000
        k(   11) = (   0.2500000  -0.5000000  -0.5000000), wk =   0.1875000
        k(   12) = (   0.2500000  -0.5000000  -0.2500000), wk =   0.1875000
        k(   13) = (  -0.5000000  -0.5000000  -0.5000000), wk =   0.0312500
        k(   14) = (   0.5000000  -0.2500000   0.0000000), wk =   0.1875000

     Dense  grid:    69617 G-vectors     FFT dimensions: (  60,  60,  60)

     Smooth grid:    17573 G-vectors     FFT dimensions: (  40,  40,  40)

     Largest allocated arrays     est. size (Mb)     dimensions
        Kohn-Sham Wavefunctions         0.78 Mb     (   1117,   46)
        Atomic wavefunctions            1.06 Mb     (   1117,   62)
        NL pseudopotentials             2.05 Mb     (   1117,  120)
        Each V/rho on FFT grid          1.65 Mb     ( 108000)
        Each G-vector array             0.27 Mb     (  34808)
        G-vector shells                 0.04 Mb     (   4682)
     Largest temporary arrays     est. size (Mb)     dimensions
        Auxiliary wavefunctions         3.14 Mb     (   1117,  184)
        Each subspace H/S matrix        0.52 Mb     ( 184, 184)
        Each <psi_i|beta_j> matrix      0.08 Mb     (    120,   46)
        Arrays for rho mixing          13.18 Mb     ( 108000,   8)

     Check: negative/imaginary core charge=   -0.000028    0.000000

     The initial density is read from file :
     /home/mcurnan/dft-course/Project1/example_LaCoO3/300/La/alpha/CoLaO_U300.save/charge-density.dat

 --- in v_hubbard ---
Hubbard energy    0.2591
 -------
     Number of +U iterations with fixed ns =  0
     Starting occupations:
 --- enter write_ns ---
 LDA+U parameters:
U( 1)     =  3.00000000
alpha( 1) =  0.00000000
U( 2)     =  0.00000000
alpha( 2) = -0.10000000
U( 3)     =  0.00000000
alpha( 3) =  0.00000000
U( 4)     =  0.00000000
alpha( 4) =  0.00000000
atom    1   Tr[ns(na)] =   8.02205
    eigenvalues: 
  0.596  0.596  0.938  0.941  0.941
    eigenvectors:
  0.000  0.000  1.000  0.000  0.000
  0.334  0.321  0.000  0.004  0.341
  0.321  0.334  0.000  0.341  0.004
  0.288  0.057  0.000  0.515  0.140
  0.057  0.288  0.000  0.140  0.515
    occupations:
  0.938  0.000  0.000  0.000  0.000
  0.000  0.715  0.000 -0.060  0.152
  0.000  0.000  0.715  0.152  0.060
  0.000 -0.060  0.152  0.822  0.000
  0.000  0.152  0.060  0.000  0.822
atom    2   Tr[ns(na)] =   8.02143
    eigenvalues: 
  0.595  0.595  0.938  0.941  0.941
    eigenvectors:
  0.000  0.000  1.000  0.000  0.000
  0.638  0.017  0.000  0.223  0.122
  0.017  0.638  0.000  0.122  0.223
  0.015  0.330  0.000  0.470  0.185
  0.330  0.015  0.000  0.185  0.470
    occupations:
  0.938  0.000  0.000  0.000  0.000
  0.000  0.715  0.000  0.060  0.153
  0.000  0.000  0.715  0.153 -0.060
  0.000  0.060  0.153  0.822  0.000
  0.000  0.153 -0.060  0.000  0.822
atom    3   Tr[ns(na)] =   3.80283
    eigenvalues: 
  0.355  0.355  0.384  0.403  0.403
    eigenvectors:
  0.000  0.000  1.000  0.000  0.000
  0.781  0.140  0.000  0.012  0.068
  0.140  0.781  0.000  0.068  0.012
  0.013  0.067  0.000  0.780  0.140
  0.067  0.013  0.000  0.140  0.780
    occupations:
  0.384  0.000  0.000  0.000  0.000
  0.000  0.359  0.000  0.000  0.013
  0.000  0.000  0.359  0.013  0.000
  0.000  0.000  0.013  0.399  0.000
  0.000  0.013  0.000  0.000  0.399
atom    4   Tr[ns(na)] =   3.80283
    eigenvalues: 
  0.355  0.355  0.384  0.403  0.403
    eigenvectors:
  0.000  0.000  1.000  0.000  0.000
  0.781  0.140  0.000  0.012  0.068
  0.140  0.781  0.000  0.068  0.012
  0.013  0.067  0.000  0.780  0.140
  0.067  0.013  0.000  0.140  0.780
    occupations:
  0.384  0.000  0.000  0.000  0.000
  0.000  0.359  0.000  0.000  0.013
  0.000  0.000  0.359  0.013  0.000
  0.000  0.000  0.013  0.399  0.000
  0.000  0.013  0.000  0.000  0.399
atom    5   Tr[ns(na)] =   5.43358
    eigenvalues: 
  0.846  0.929  0.941
    eigenvectors:
  0.340  0.000  0.660
  0.496  0.250  0.255
  0.164  0.750  0.086
    occupations:
  0.909 -0.039  0.022
 -0.039  0.891  0.022
  0.022  0.022  0.917
atom    6   Tr[ns(na)] =   5.43358
    eigenvalues: 
  0.846  0.929  0.941
    eigenvectors:
  0.340  0.000  0.660
  0.494  0.250  0.256
  0.166  0.750  0.085
    occupations:
  0.909  0.039  0.022
  0.039  0.891 -0.022
  0.022 -0.022  0.917
atom    7   Tr[ns(na)] =   5.43358
    eigenvalues: 
  0.846  0.929  0.941
    eigenvectors:
  0.340  0.000  0.660
  0.000  1.000  0.000
  0.660  0.000  0.340
    occupations:
  0.909  0.000 -0.045
  0.000  0.929  0.000
 -0.045  0.000  0.879
atom    8   Tr[ns(na)] =   5.43358
    eigenvalues: 
  0.846  0.929  0.941
    eigenvectors:
  0.340  0.000  0.660
  0.496  0.250  0.255
  0.164  0.750  0.086
    occupations:
  0.909 -0.039  0.022
 -0.039  0.891  0.022
  0.022  0.022  0.917
atom    9   Tr[ns(na)] =   5.43358
    eigenvalues: 
  0.846  0.929  0.941
    eigenvectors:
  0.340  0.000  0.660
  0.494  0.250  0.256
  0.166  0.750  0.085
    occupations:
  0.909  0.039  0.022
  0.039  0.891 -0.022
  0.022 -0.022  0.917
atom   10   Tr[ns(na)] =   5.43358
    eigenvalues: 
  0.846  0.929  0.941
    eigenvectors:
  0.340  0.000  0.660
  0.000  1.000  0.000
  0.660  0.000  0.340
    occupations:
  0.909  0.000 -0.045
  0.000  0.929  0.000
 -0.045  0.000  0.879
N of occupied +U levels =  56.2506014
 --- exit write_ns ---
 LDA+U Projector read from file 
     Starting wfc from file

     total cpu time spent up to now is        8.9 secs

     per-process dynamical memory:    47.1 Mb

     Self-consistent Calculation

     iteration #  1     ecut=    30.00 Ry     beta=0.20
     Davidson diagonalization with overlap
     c_bands:  1 eigenvalues not converged
     c_bands:  1 eigenvalues not converged
     c_bands:  1 eigenvalues not converged
     c_bands:  1 eigenvalues not converged
     c_bands:  1 eigenvalues not converged
     c_bands:  1 eigenvalues not converged
     c_bands:  1 eigenvalues not converged
     c_bands:  1 eigenvalues not converged
     c_bands:  1 eigenvalues not converged
     ethr =  1.00E-10,  avg # of iterations = 17.9
 --- enter write_ns ---
 LDA+U parameters:
U( 1)     =  3.00000000
alpha( 1) =  0.00000000
U( 2)     =  0.00000000
alpha( 2) = -0.10000000
U( 3)     =  0.00000000
alpha( 3) =  0.00000000
U( 4)     =  0.00000000
alpha( 4) =  0.00000000
atom    1   Tr[ns(na)] =   8.15380
    eigenvalues: 
  0.563  0.563  0.983  0.983  0.985
    eigenvectors:
  0.000  0.000  0.000  0.000  1.000
  0.330  0.324  0.005  0.341  0.000
  0.324  0.330  0.341  0.005  0.000
  0.288  0.058  0.513  0.141  0.000
  0.058  0.288  0.141  0.513  0.000
    occupations:
  0.985  0.000  0.000  0.000  0.000
  0.000  0.708  0.000 -0.072  0.186
  0.000  0.000  0.708  0.186  0.072
  0.000 -0.072  0.186  0.838  0.000
  0.000  0.186  0.072  0.000  0.838
atom    2   Tr[ns(na)] =   8.14635
    eigenvalues: 
  0.561  0.561  0.983  0.983  0.985
    eigenvectors:
  0.000  0.000  0.000  0.000  1.000
  0.634  0.020  0.220  0.125  0.000
  0.020  0.634  0.125  0.220  0.000
  0.012  0.334  0.469  0.185  0.000
  0.334  0.012  0.185  0.469  0.000
    occupations:
  0.985  0.000  0.000  0.000  0.000
  0.000  0.707  0.000  0.071  0.188
  0.000  0.000  0.707  0.188 -0.071
  0.000  0.071  0.188  0.837  0.000
  0.000  0.188 -0.071  0.000  0.837
atom    3   Tr[ns(na)] =   3.83215
    eigenvalues: 
  0.360  0.360  0.386  0.405  0.405
    eigenvectors:
  0.000  0.000  1.000  0.000  0.000
  0.781  0.140  0.000  0.012  0.068
  0.140  0.781  0.000  0.068  0.012
  0.013  0.067  0.000  0.780  0.140
  0.067  0.013  0.000  0.140  0.780
    occupations:
  0.386  0.000  0.000  0.000  0.000
  0.000  0.364  0.000  0.000  0.012
  0.000  0.000  0.364  0.012  0.000
  0.000  0.000  0.012  0.402  0.000
  0.000  0.012  0.000  0.000  0.402
atom    4   Tr[ns(na)] =   3.79712
    eigenvalues: 
  0.356  0.356  0.382  0.402  0.402
    eigenvectors:
  0.000  0.000  1.000  0.000  0.000
  0.778  0.141  0.000  0.012  0.069
  0.141  0.778  0.000  0.069  0.012
  0.013  0.068  0.000  0.778  0.141
  0.068  0.013  0.000  0.141  0.778
    occupations:
  0.382  0.000  0.000  0.000  0.000
  0.000  0.360  0.000  0.000  0.013
  0.000  0.000  0.360  0.013  0.000
  0.000  0.000  0.013  0.398  0.000
  0.000  0.013  0.000  0.000  0.398
atom    5   Tr[ns(na)] =   5.40045
    eigenvalues: 
  0.832  0.925  0.943
    eigenvectors:
  0.341  0.000  0.659
  0.495  0.250  0.255
  0.164  0.750  0.086
    occupations:
  0.905 -0.046  0.026
 -0.046  0.884  0.024
  0.026  0.024  0.911
atom    6   Tr[ns(na)] =   5.40045
    eigenvalues: 
  0.832  0.925  0.943
    eigenvectors:
  0.341  0.000  0.659
  0.494  0.250  0.256
  0.165  0.750  0.085
    occupations:
  0.905  0.046  0.026
  0.046  0.884 -0.024
  0.026 -0.024  0.911
atom    7   Tr[ns(na)] =   5.40045
    eigenvalues: 
  0.832  0.925  0.943
    eigenvectors:
  0.341  0.000  0.659
  0.000  1.000  0.000
  0.659  0.000  0.341
    occupations:
  0.905  0.000 -0.053
  0.000  0.925  0.000
 -0.053  0.000  0.870
atom    8   Tr[ns(na)] =   5.40058
    eigenvalues: 
  0.832  0.925  0.943
    eigenvectors:
  0.341  0.000  0.659
  0.495  0.250  0.255
  0.164  0.750  0.086
    occupations:
  0.905 -0.046  0.026
 -0.046  0.884  0.024
  0.026  0.024  0.912
atom    9   Tr[ns(na)] =   5.40058
    eigenvalues: 
  0.832  0.925  0.943
    eigenvectors:
  0.341  0.000  0.659
  0.494  0.250  0.256
  0.165  0.750  0.085
    occupations:
  0.905  0.046  0.026
  0.046  0.884 -0.024
  0.026 -0.024  0.911
atom   10   Tr[ns(na)] =   5.40058
    eigenvalues: 
  0.832  0.925  0.943
    eigenvectors:
  0.341  0.000  0.659
  0.000  1.000  0.000
  0.659  0.000  0.341
    occupations:
  0.905  0.000 -0.053
  0.000  0.925  0.000
 -0.053  0.000  0.870
N of occupied +U levels =  56.3325154
 --- exit write_ns ---
 --- in v_hubbard ---
Hubbard energy    0.2499
 -------

     total cpu time spent up to now is       52.2 secs

     total energy              =    -538.09718629 Ry
     Harris-Foulkes estimate   =    -538.10147878 Ry
     estimated scf accuracy    <       0.02391791 Ry

     iteration #  2     ecut=    30.00 Ry     beta=0.20
     Davidson diagonalization with overlap
     ethr =  3.15E-05,  avg # of iterations =  1.4
 --- enter write_ns ---
 LDA+U parameters:
U( 1)     =  3.00000000
alpha( 1) =  0.00000000
U( 2)     =  0.00000000
alpha( 2) = -0.10000000
U( 3)     =  0.00000000
alpha( 3) =  0.00000000
U( 4)     =  0.00000000
alpha( 4) =  0.00000000
atom    1   Tr[ns(na)] =   8.02750
    eigenvalues: 
  0.531  0.531  0.983  0.983  0.985
    eigenvectors:
  0.000  0.000  0.000  0.000  1.000
  0.333  0.323  0.004  0.340  0.000
  0.323  0.333  0.340  0.004  0.000
  0.287  0.058  0.515  0.140  0.000
  0.058  0.287  0.140  0.515  0.000
    occupations:
  0.985  0.000  0.000  0.000  0.000
  0.000  0.687  0.000 -0.078  0.200
  0.000  0.000  0.687  0.200  0.078
  0.000 -0.078  0.200  0.827  0.000
  0.000  0.200  0.078  0.000  0.827
atom    2   Tr[ns(na)] =   8.03435
    eigenvalues: 
  0.531  0.531  0.985  0.985  0.987
    eigenvectors:
  0.000  0.000  0.000  0.000  1.000
  0.637  0.019  0.221  0.123  0.000
  0.019  0.637  0.123  0.221  0.000
  0.014  0.331  0.470  0.185  0.000
  0.331  0.014  0.185  0.470  0.000
    occupations:
  0.987  0.000  0.000  0.000  0.000
  0.000  0.687  0.000  0.078  0.201
  0.000  0.000  0.687  0.201 -0.078
  0.000  0.078  0.201  0.828  0.000
  0.000  0.201 -0.078  0.000  0.828
atom    3   Tr[ns(na)] =   3.82567
    eigenvalues: 
  0.359  0.359  0.385  0.405  0.405
    eigenvectors:
  0.000  0.000  1.000  0.000  0.000
  0.783  0.139  0.000  0.011  0.067
  0.139  0.783  0.000  0.067  0.011
  0.012  0.066  0.000  0.782  0.140
  0.066  0.012  0.000  0.140  0.782
    occupations:
  0.385  0.000  0.000  0.000  0.000
  0.000  0.363  0.000  0.000  0.012
  0.000  0.000  0.363  0.012  0.000
  0.000  0.000  0.012  0.401  0.000
  0.000  0.012  0.000  0.000  0.401
atom    4   Tr[ns(na)] =   3.79292
    eigenvalues: 
  0.355  0.355  0.382  0.402  0.402
    eigenvectors:
  0.000  0.000  1.000  0.000  0.000
  0.780  0.140  0.000  0.012  0.068
  0.140  0.780  0.000  0.068  0.012
  0.013  0.067  0.000  0.779  0.141
  0.067  0.013  0.000  0.141  0.779
    occupations:
  0.382  0.000  0.000  0.000  0.000
  0.000  0.359  0.000  0.000  0.013
  0.000  0.000  0.359  0.013  0.000
  0.000  0.000  0.013  0.398  0.000
  0.000  0.013  0.000  0.000  0.398
atom    5   Tr[ns(na)] =   5.43878
    eigenvalues: 
  0.843  0.930  0.946
    eigenvectors:
  0.337  0.000  0.663
  0.496  0.251  0.252
  0.166  0.749  0.085
    occupations:
  0.911 -0.042  0.024
 -0.042  0.891  0.023
  0.024  0.023  0.917
atom    6   Tr[ns(na)] =   5.43878
    eigenvalues: 
  0.843  0.930  0.946
    eigenvectors:
  0.337  0.000  0.663
  0.498  0.249  0.254
  0.165  0.751  0.084
    occupations:
  0.911  0.042  0.024
  0.042  0.891 -0.023
  0.024 -0.023  0.917
atom    7   Tr[ns(na)] =   5.43878
    eigenvalues: 
  0.843  0.930  0.946
    eigenvectors:
  0.337  0.000  0.663
  0.000  1.000  0.000
  0.663  0.000  0.337
    occupations:
  0.911  0.000 -0.049
  0.000  0.930  0.000
 -0.049  0.000  0.878
atom    8   Tr[ns(na)] =   5.43881
    eigenvalues: 
  0.843  0.931  0.946
    eigenvectors:
  0.337  0.000  0.663
  0.496  0.252  0.252
  0.167  0.748  0.085
    occupations:
  0.911 -0.042  0.024
 -0.042  0.891  0.023
  0.024  0.023  0.917
atom    9   Tr[ns(na)] =   5.43881
    eigenvalues: 
  0.843  0.931  0.946
    eigenvectors:
  0.337  0.000  0.663
  0.498  0.248  0.254
  0.165  0.752  0.084
    occupations:
  0.911  0.042  0.024
  0.042  0.891 -0.023
  0.024 -0.023  0.917
atom   10   Tr[ns(na)] =   5.43881
    eigenvalues: 
  0.843  0.931  0.946
    eigenvectors:
  0.337  0.000  0.663
  0.000  1.000  0.000
  0.663  0.000  0.337
    occupations:
  0.911  0.000 -0.049
  0.000  0.931  0.000
 -0.049  0.000  0.878
N of occupied +U levels =  56.3131950
 --- exit write_ns ---
 --- in v_hubbard ---
Hubbard energy    0.2456
 -------

     total cpu time spent up to now is       70.3 secs

     total energy              =    -538.10111159 Ry
     Harris-Foulkes estimate   =    -538.10108848 Ry
     estimated scf accuracy    <       0.01459730 Ry

     iteration #  3     ecut=    30.00 Ry     beta=0.20
     Davidson diagonalization with overlap
     ethr =  1.92E-05,  avg # of iterations =  1.0
 --- enter write_ns ---
 LDA+U parameters:
U( 1)     =  3.00000000
alpha( 1) =  0.00000000
U( 2)     =  0.00000000
alpha( 2) = -0.10000000
U( 3)     =  0.00000000
alpha( 3) =  0.00000000
U( 4)     =  0.00000000
alpha( 4) =  0.00000000
atom    1   Tr[ns(na)] =   8.06187
    eigenvalues: 
  0.538  0.538  0.984  0.984  0.986
    eigenvectors:
  0.000  0.000  0.000  0.000  1.000
  0.333  0.323  0.004  0.340  0.000
  0.323  0.333  0.340  0.004  0.000
  0.286  0.058  0.515  0.141  0.000
  0.058  0.286  0.141  0.515  0.000
    occupations:
  0.986  0.000  0.000  0.000  0.000
  0.000  0.692  0.000 -0.077  0.197
  0.000  0.000  0.692  0.197  0.077
  0.000 -0.077  0.197  0.831  0.000
  0.000  0.197  0.077  0.000  0.831
atom    2   Tr[ns(na)] =   8.05449
    eigenvalues: 
  0.536  0.536  0.984  0.984  0.987
    eigenvectors:
  0.000  0.000  0.000  0.000  1.000
  0.636  0.020  0.220  0.124  0.000
  0.020  0.636  0.124  0.220  0.000
  0.013  0.331  0.471  0.185  0.000
  0.331  0.013  0.185  0.471  0.000
    occupations:
  0.987  0.000  0.000  0.000  0.000
  0.000  0.690  0.000  0.077  0.199
  0.000  0.000  0.690  0.199 -0.077
  0.000  0.077  0.199  0.830  0.000
  0.000  0.199 -0.077  0.000  0.830
atom    3   Tr[ns(na)] =   3.82463
    eigenvalues: 
  0.359  0.359  0.385  0.405  0.405
    eigenvectors:
  0.000  0.000  1.000  0.000  0.000
  0.783  0.139  0.000  0.011  0.067
  0.139  0.783  0.000  0.067  0.011
  0.012  0.066  0.000  0.782  0.140
  0.066  0.012  0.000  0.140  0.782
    occupations:
  0.385  0.000  0.000  0.000  0.000
  0.000  0.363  0.000  0.000  0.012
  0.000  0.000  0.363  0.012  0.000
  0.000  0.000  0.012  0.401  0.000
  0.000  0.012  0.000  0.000  0.401
atom    4   Tr[ns(na)] =   3.79266
    eigenvalues: 
  0.356  0.356  0.382  0.402  0.402
    eigenvectors:
  0.000  0.000  1.000  0.000  0.000
  0.780  0.140  0.000  0.012  0.068
  0.140  0.780  0.000  0.068  0.012
  0.013  0.067  0.000  0.779  0.141
  0.067  0.013  0.000  0.141  0.779
    occupations:
  0.382  0.000  0.000  0.000  0.000
  0.000  0.359  0.000  0.000  0.013
  0.000  0.000  0.359  0.013  0.000
  0.000  0.000  0.013  0.398  0.000
  0.000  0.013  0.000  0.000  0.398
atom    5   Tr[ns(na)] =   5.43048
    eigenvalues: 
  0.840  0.929  0.946
    eigenvectors:
  0.338  0.000  0.662
  0.497  0.250  0.253
  0.165  0.750  0.085
    occupations:
  0.910 -0.043  0.025
 -0.043  0.889  0.023
  0.025  0.023  0.916
atom    6   Tr[ns(na)] =   5.43048
    eigenvalues: 
  0.840  0.929  0.946
    eigenvectors:
  0.338  0.000  0.662
  0.496  0.250  0.254
  0.166  0.750  0.084
    occupations:
  0.910  0.043  0.025
  0.043  0.889 -0.023
  0.025 -0.023  0.916
atom    7   Tr[ns(na)] =   5.43048
    eigenvalues: 
  0.840  0.929  0.946
    eigenvectors:
  0.338  0.000  0.662
  0.000  1.000  0.000
  0.662  0.000  0.338
    occupations:
  0.910  0.000 -0.050
  0.000  0.929  0.000
 -0.050  0.000  0.876
atom    8   Tr[ns(na)] =   5.43053
    eigenvalues: 
  0.840  0.929  0.945
    eigenvectors:
  0.338  0.000  0.662
  0.497  0.250  0.253
  0.165  0.750  0.085
    occupations:
  0.910 -0.043  0.025
 -0.043  0.889  0.023
  0.025  0.023  0.916
atom    9   Tr[ns(na)] =   5.43053
    eigenvalues: 
  0.840  0.929  0.945
    eigenvectors:
  0.338  0.000  0.662
  0.496  0.250  0.254
  0.166  0.750  0.084
    occupations:
  0.910  0.043  0.025
  0.043  0.889 -0.023
  0.025 -0.023  0.916
atom   10   Tr[ns(na)] =   5.43053
    eigenvalues: 
  0.840  0.929  0.945
    eigenvectors:
  0.338  0.000  0.662
  0.000  1.000  0.000
  0.662  0.000  0.338
    occupations:
  0.910  0.000 -0.050
  0.000  0.929  0.000
 -0.050  0.000  0.876
N of occupied +U levels =  56.3166893
 --- exit write_ns ---
 --- in v_hubbard ---
Hubbard energy    0.2159
 -------

     total cpu time spent up to now is       86.9 secs

     total energy              =    -538.10328537 Ry
     Harris-Foulkes estimate   =    -538.10140914 Ry
     estimated scf accuracy    <       0.00755448 Ry

     iteration #  4     ecut=    30.00 Ry     beta=0.20
     Davidson diagonalization with overlap
     ethr =  9.94E-06,  avg # of iterations =  1.1
 --- enter write_ns ---
 LDA+U parameters:
U( 1)     =  3.00000000
alpha( 1) =  0.00000000
U( 2)     =  0.00000000
alpha( 2) = -0.10000000
U( 3)     =  0.00000000
alpha( 3) =  0.00000000
U( 4)     =  0.00000000
alpha( 4) =  0.00000000
atom    1   Tr[ns(na)] =   8.02889
    eigenvalues: 
  0.530  0.530  0.984  0.984  0.986
    eigenvectors:
  0.000  0.000  0.000  0.000  1.000
  0.336  0.323  0.004  0.337  0.000
  0.323  0.336  0.337  0.004  0.000
  0.283  0.059  0.517  0.141  0.000
  0.059  0.283  0.141  0.517  0.000
    occupations:
  0.986  0.000  0.000  0.000  0.000
  0.000  0.685  0.000 -0.078  0.201
  0.000  0.000  0.685  0.201  0.078
  0.000 -0.078  0.201  0.829  0.000
  0.000  0.201  0.078  0.000  0.829
atom    2   Tr[ns(na)] =   8.09736
    eigenvalues: 
  0.540  0.540  0.989  0.989  0.991
    eigenvectors:
  0.000  0.000  0.000  0.000  1.000
  0.638  0.020  0.220  0.121  0.000
  0.020  0.638  0.121  0.220  0.000
  0.013  0.328  0.474  0.185  0.000
  0.328  0.013  0.185  0.474  0.000
    occupations:
  0.991  0.000  0.000  0.000  0.000
  0.000  0.694  0.000  0.078  0.198
  0.000  0.000  0.694  0.198 -0.078
  0.000  0.078  0.198  0.835  0.000
  0.000  0.198 -0.078  0.000  0.835
atom    3   Tr[ns(na)] =   3.82203
    eigenvalues: 
  0.359  0.359  0.384  0.404  0.404
    eigenvectors:
  0.000  0.000  1.000  0.000  0.000
  0.784  0.139  0.000  0.011  0.066
  0.139  0.784  0.000  0.066  0.011
  0.012  0.066  0.000  0.782  0.140
  0.066  0.012  0.000  0.140  0.782
    occupations:
  0.384  0.000  0.000  0.000  0.000
  0.000  0.362  0.000  0.000  0.012
  0.000  0.000  0.362  0.012  0.000
  0.000  0.000  0.012  0.401  0.000
  0.000  0.012  0.000  0.000  0.401
atom    4   Tr[ns(na)] =   3.79455
    eigenvalues: 
  0.356  0.356  0.382  0.402  0.402
    eigenvectors:
  0.000  0.000  1.000  0.000  0.000
  0.782  0.139  0.000  0.012  0.067
  0.139  0.782  0.000  0.067  0.012
  0.012  0.067  0.000  0.781  0.140
  0.067  0.012  0.000  0.140  0.781
    occupations:
  0.382  0.000  0.000  0.000  0.000
  0.000  0.359  0.000  0.000  0.012
  0.000  0.000  0.359  0.012  0.000
  0.000  0.000  0.012  0.398  0.000
  0.000  0.012  0.000  0.000  0.398
atom    5   Tr[ns(na)] =   5.42805
    eigenvalues: 
  0.839  0.929  0.946
    eigenvectors:
  0.338  0.000  0.662
  0.490  0.258  0.252
  0.172  0.742  0.086
    occupations:
  0.910 -0.043  0.026
 -0.043  0.889  0.024
  0.026  0.024  0.915
atom    6   Tr[ns(na)] =   5.42805
    eigenvalues: 
  0.839  0.929  0.946
    eigenvectors:
  0.338  0.000  0.662
  0.503  0.242  0.255
  0.159  0.758  0.083
    occupations:
  0.910  0.044  0.025
  0.044  0.888 -0.023
  0.025 -0.023  0.916
atom    7   Tr[ns(na)] =   5.42805
    eigenvalues: 
  0.839  0.929  0.946
    eigenvectors:
  0.338  0.000  0.662
  0.000  1.000  0.000
  0.662  0.000  0.338
    occupations:
  0.910 -0.001 -0.050
 -0.001  0.929 -0.001
 -0.050 -0.001  0.875
atom    8   Tr[ns(na)] =   5.42802
    eigenvalues: 
  0.839  0.929  0.945
    eigenvectors:
  0.338  0.000  0.662
  0.490  0.258  0.252
  0.172  0.742  0.086
    occupations:
  0.910 -0.043  0.026
 -0.043  0.889  0.024
  0.026  0.024  0.915
atom    9   Tr[ns(na)] =   5.42802
    eigenvalues: 
  0.839  0.929  0.945
    eigenvectors:
  0.338  0.000  0.662
  0.503  0.242  0.255
  0.159  0.758  0.083
    occupations:
  0.910  0.044  0.025
  0.044  0.888 -0.023
  0.025 -0.023  0.916
atom   10   Tr[ns(na)] =   5.42802
    eigenvalues: 
  0.839  0.929  0.945
    eigenvectors:
  0.338  0.000  0.662
  0.000  1.000  0.000
  0.662  0.000  0.338
    occupations:
  0.910 -0.001 -0.050
 -0.001  0.929 -0.001
 -0.050 -0.001  0.875
N of occupied +U levels =  56.3110492
 --- exit write_ns ---
 --- in v_hubbard ---
Hubbard energy    0.2077
 -------

     total cpu time spent up to now is      102.7 secs

     total energy              =    -538.10344874 Ry
     Harris-Foulkes estimate   =    -538.10381930 Ry
     estimated scf accuracy    <       0.00349357 Ry

     iteration #  5     ecut=    30.00 Ry     beta=0.20
     Davidson diagonalization with overlap
     ethr =  4.60E-06,  avg # of iterations =  1.0
 --- enter write_ns ---
 LDA+U parameters:
U( 1)     =  3.00000000
alpha( 1) =  0.00000000
U( 2)     =  0.00000000
alpha( 2) = -0.10000000
U( 3)     =  0.00000000
alpha( 3) =  0.00000000
U( 4)     =  0.00000000
alpha( 4) =  0.00000000
atom    1   Tr[ns(na)] =   8.06026
    eigenvalues: 
  0.534  0.534  0.987  0.987  0.989
    eigenvectors:
  0.000  0.000  0.000  0.000  1.000
  0.337  0.321  0.004  0.338  0.000
  0.321  0.337  0.338  0.004  0.000
  0.284  0.058  0.518  0.141  0.000
  0.058  0.284  0.141  0.518  0.000
    occupations:
  0.989  0.000  0.000  0.000  0.000
  0.000  0.688  0.000 -0.078  0.200
  0.000  0.000  0.688  0.200  0.078
  0.000 -0.078  0.200  0.832  0.000
  0.000  0.200  0.078  0.000  0.832
atom    2   Tr[ns(na)] =   8.05764
    eigenvalues: 
  0.532  0.532  0.988  0.988  0.990
    eigenvectors:
  0.000  0.000  0.000  0.000  1.000
  0.637  0.021  0.219  0.123  0.000
  0.021  0.637  0.123  0.219  0.000
  0.012  0.329  0.474  0.185  0.000
  0.329  0.012  0.185  0.474  0.000
    occupations:
  0.990  0.000  0.000  0.000  0.000
  0.000  0.688  0.000  0.078  0.201
  0.000  0.000  0.688  0.201 -0.078
  0.000  0.078  0.201  0.832  0.000
  0.000  0.201 -0.078  0.000  0.832
atom    3   Tr[ns(na)] =   3.82141
    eigenvalues: 
  0.359  0.359  0.384  0.404  0.404
    eigenvectors:
  0.000  0.000  1.000  0.000  0.000
  0.784  0.139  0.000  0.011  0.066
  0.139  0.784  0.000  0.066  0.011
  0.012  0.065  0.000  0.783  0.140
  0.065  0.012  0.000  0.140  0.783
    occupations:
  0.384  0.000  0.000  0.000  0.000
  0.000  0.362  0.000  0.000  0.012
  0.000  0.000  0.362  0.012  0.000
  0.000  0.000  0.012  0.401  0.000
  0.000  0.012  0.000  0.000  0.401
atom    4   Tr[ns(na)] =   3.79523
    eigenvalues: 
  0.356  0.356  0.382  0.402  0.402
    eigenvectors:
  0.000  0.000  1.000  0.000  0.000
  0.782  0.139  0.000  0.011  0.067
  0.139  0.782  0.000  0.067  0.011
  0.012  0.066  0.000  0.781  0.140
  0.066  0.012  0.000  0.140  0.781
    occupations:
  0.382  0.000  0.000  0.000  0.000
  0.000  0.360  0.000  0.000  0.012
  0.000  0.000  0.360  0.012  0.000
  0.000  0.000  0.012  0.398  0.000
  0.000  0.012  0.000  0.000  0.398
atom    5   Tr[ns(na)] =   5.42906
    eigenvalues: 
  0.840  0.929  0.946
    eigenvectors:
  0.338  0.000  0.662
  0.497  0.251  0.253
  0.166  0.749  0.085
    occupations:
  0.910 -0.043  0.025
 -0.043  0.889  0.023
  0.025  0.023  0.916
atom    6   Tr[ns(na)] =   5.42906
    eigenvalues: 
  0.840  0.929  0.946
    eigenvectors:
  0.338  0.000  0.662
  0.497  0.249  0.254
  0.165  0.751  0.084
    occupations:
  0.910  0.043  0.025
  0.043  0.889 -0.023
  0.025 -0.023  0.916
atom    7   Tr[ns(na)] =   5.42906
    eigenvalues: 
  0.840  0.929  0.946
    eigenvectors:
  0.338  0.000  0.662
  0.000  1.000  0.000
  0.662  0.000  0.338
    occupations:
  0.910  0.000 -0.050
  0.000  0.929  0.000
 -0.050  0.000  0.875
atom    8   Tr[ns(na)] =   5.42905
    eigenvalues: 
  0.840  0.929  0.946
    eigenvectors:
  0.338  0.000  0.662
  0.497  0.251  0.253
  0.166  0.749  0.085
    occupations:
  0.910 -0.043  0.025
 -0.043  0.889  0.023
  0.025  0.023  0.916
atom    9   Tr[ns(na)] =   5.42905
    eigenvalues: 
  0.840  0.929  0.946
    eigenvectors:
  0.338  0.000  0.662
  0.497  0.249  0.254
  0.165  0.751  0.084
    occupations:
  0.910  0.043  0.025
  0.043  0.889 -0.023
  0.025 -0.023  0.916
atom   10   Tr[ns(na)] =   5.42905
    eigenvalues: 
  0.840  0.929  0.946
    eigenvectors:
  0.338  0.000  0.662
  0.000  1.000  0.000
  0.662  0.000  0.338
    occupations:
  0.910  0.000 -0.050
  0.000  0.929  0.000
 -0.050  0.000  0.875
N of occupied +U levels =  56.3088540
 --- exit write_ns ---
 --- in v_hubbard ---
Hubbard energy    0.2064
 -------

     total cpu time spent up to now is      119.4 secs

     total energy              =    -538.10374573 Ry
     Harris-Foulkes estimate   =    -538.10369797 Ry
     estimated scf accuracy    <       0.00010537 Ry

     iteration #  6     ecut=    30.00 Ry     beta=0.20
     Davidson diagonalization with overlap
     ethr =  1.39E-07,  avg # of iterations =  2.1
 --- enter write_ns ---
 LDA+U parameters:
U( 1)     =  3.00000000
alpha( 1) =  0.00000000
U( 2)     =  0.00000000
alpha( 2) = -0.10000000
U( 3)     =  0.00000000
alpha( 3) =  0.00000000
U( 4)     =  0.00000000
alpha( 4) =  0.00000000
atom    1   Tr[ns(na)] =   8.05238
    eigenvalues: 
  0.532  0.532  0.987  0.987  0.989
    eigenvectors:
  0.000  0.000  0.000  0.000  1.000
  0.337  0.322  0.004  0.338  0.000
  0.322  0.337  0.338  0.004  0.000
  0.284  0.058  0.518  0.141  0.000
  0.058  0.284  0.141  0.518  0.000
    occupations:
  0.989  0.000  0.000  0.000  0.000
  0.000  0.687  0.000 -0.079  0.201
  0.000  0.000  0.687  0.201  0.079
  0.000 -0.079  0.201  0.831  0.000
  0.000  0.201  0.079  0.000  0.831
atom    2   Tr[ns(na)] =   8.04974
    eigenvalues: 
  0.530  0.530  0.988  0.988  0.990
    eigenvectors:
  0.000  0.000  0.000  0.000  1.000
  0.638  0.021  0.219  0.123  0.000
  0.021  0.638  0.123  0.219  0.000
  0.013  0.329  0.474  0.184  0.000
  0.329  0.013  0.184  0.474  0.000
    occupations:
  0.990  0.000  0.000  0.000  0.000
  0.000  0.686  0.000  0.079  0.202
  0.000  0.000  0.686  0.202 -0.079
  0.000  0.079  0.202  0.831  0.000
  0.000  0.202 -0.079  0.000  0.831
atom    3   Tr[ns(na)] =   3.82154
    eigenvalues: 
  0.359  0.359  0.384  0.404  0.404
    eigenvectors:
  0.000  0.000  1.000  0.000  0.000
  0.784  0.139  0.000  0.011  0.066
  0.139  0.784  0.000  0.066  0.011
  0.012  0.065  0.000  0.783  0.140
  0.065  0.012  0.000  0.140  0.783
    occupations:
  0.384  0.000  0.000  0.000  0.000
  0.000  0.362  0.000  0.000  0.012
  0.000  0.000  0.362  0.012  0.000
  0.000  0.000  0.012  0.401  0.000
  0.000  0.012  0.000  0.000  0.401
atom    4   Tr[ns(na)] =   3.79505
    eigenvalues: 
  0.356  0.356  0.382  0.402  0.402
    eigenvectors:
  0.000  0.000  1.000  0.000  0.000
  0.782  0.139  0.000  0.012  0.067
  0.139  0.782  0.000  0.067  0.012
  0.012  0.066  0.000  0.781  0.140
  0.066  0.012  0.000  0.140  0.781
    occupations:
  0.382  0.000  0.000  0.000  0.000
  0.000  0.360  0.000  0.000  0.012
  0.000  0.000  0.360  0.012  0.000
  0.000  0.000  0.012  0.398  0.000
  0.000  0.012  0.000  0.000  0.398
atom    5   Tr[ns(na)] =   5.43143
    eigenvalues: 
  0.840  0.929  0.946
    eigenvectors:
  0.338  0.000  0.662
  0.497  0.251  0.253
  0.166  0.749  0.085
    occupations:
  0.910 -0.043  0.025
 -0.043  0.889  0.023
  0.025  0.023  0.916
atom    6   Tr[ns(na)] =   5.43143
    eigenvalues: 
  0.840  0.929  0.946
    eigenvectors:
  0.338  0.000  0.662
  0.497  0.249  0.254
  0.165  0.751  0.084
    occupations:
  0.910  0.043  0.025
  0.043  0.889 -0.023
  0.025 -0.023  0.916
atom    7   Tr[ns(na)] =   5.43143
    eigenvalues: 
  0.840  0.929  0.946
    eigenvectors:
  0.338  0.000  0.662
  0.000  1.000  0.000
  0.662  0.000  0.338
    occupations:
  0.910  0.000 -0.050
  0.000  0.929  0.000
 -0.050  0.000  0.876
atom    8   Tr[ns(na)] =   5.43148
    eigenvalues: 
  0.840  0.930  0.946
    eigenvectors:
  0.338  0.000  0.662
  0.497  0.251  0.253
  0.166  0.749  0.085
    occupations:
  0.910 -0.043  0.025
 -0.043  0.889  0.023
  0.025  0.023  0.916
atom    9   Tr[ns(na)] =   5.43148
    eigenvalues: 
  0.840  0.930  0.946
    eigenvectors:
  0.338  0.000  0.662
  0.497  0.249  0.254
  0.165  0.751  0.084
    occupations:
  0.910  0.043  0.025
  0.043  0.889 -0.023
  0.025 -0.023  0.916
atom   10   Tr[ns(na)] =   5.43148
    eigenvalues: 
  0.840  0.930  0.946
    eigenvectors:
  0.338  0.000  0.662
  0.000  1.000  0.000
  0.662  0.000  0.338
    occupations:
  0.910  0.000 -0.050
  0.000  0.930  0.000
 -0.050  0.000  0.876
N of occupied +U levels =  56.3074217
 --- exit write_ns ---
 --- in v_hubbard ---
Hubbard energy    0.2068
 -------

     total cpu time spent up to now is      136.4 secs

     total energy              =    -538.10381924 Ry
     Harris-Foulkes estimate   =    -538.10376543 Ry
     estimated scf accuracy    <       0.00003481 Ry

     iteration #  7     ecut=    30.00 Ry     beta=0.20
     Davidson diagonalization with overlap
     ethr =  4.58E-08,  avg # of iterations =  2.0
 --- enter write_ns ---
 LDA+U parameters:
U( 1)     =  3.00000000
alpha( 1) =  0.00000000
U( 2)     =  0.00000000
alpha( 2) = -0.10000000
U( 3)     =  0.00000000
alpha( 3) =  0.00000000
U( 4)     =  0.00000000
alpha( 4) =  0.00000000
atom    1   Tr[ns(na)] =   8.05373
    eigenvalues: 
  0.532  0.532  0.987  0.987  0.989
    eigenvectors:
  0.000  0.000  0.000  0.000  1.000
  0.336  0.322  0.004  0.338  0.000
  0.322  0.336  0.338  0.004  0.000
  0.285  0.058  0.517  0.140  0.000
  0.058  0.285  0.140  0.517  0.000
    occupations:
  0.989  0.000  0.000  0.000  0.000
  0.000  0.688  0.000 -0.079  0.201
  0.000  0.000  0.688  0.201  0.079
  0.000 -0.079  0.201  0.831  0.000
  0.000  0.201  0.079  0.000  0.831
atom    2   Tr[ns(na)] =   8.05203
    eigenvalues: 
  0.530  0.530  0.988  0.988  0.990
    eigenvectors:
  0.000  0.000  0.000  0.000  1.000
  0.637  0.020  0.220  0.122  0.000
  0.020  0.637  0.122  0.220  0.000
  0.013  0.329  0.473  0.185  0.000
  0.329  0.013  0.185  0.473  0.000
    occupations:
  0.990  0.000  0.000  0.000  0.000
  0.000  0.687  0.000  0.079  0.202
  0.000  0.000  0.687  0.202 -0.079
  0.000  0.079  0.202  0.831  0.000
  0.000  0.202 -0.079  0.000  0.831
atom    3   Tr[ns(na)] =   3.82275
    eigenvalues: 
  0.359  0.359  0.384  0.404  0.404
    eigenvectors:
  0.000  0.000  1.000  0.000  0.000
  0.784  0.138  0.000  0.011  0.066
  0.138  0.784  0.000  0.066  0.011
  0.012  0.065  0.000  0.783  0.140
  0.065  0.012  0.000  0.140  0.783
    occupations:
  0.384  0.000  0.000  0.000  0.000
  0.000  0.363  0.000  0.000  0.012
  0.000  0.000  0.363  0.012  0.000
  0.000  0.000  0.012  0.401  0.000
  0.000  0.012  0.000  0.000  0.401
atom    4   Tr[ns(na)] =   3.79453
    eigenvalues: 
  0.356  0.356  0.382  0.402  0.402
    eigenvectors:
  0.000  0.000  1.000  0.000  0.000
  0.782  0.139  0.000  0.012  0.068
  0.139  0.782  0.000  0.068  0.012
  0.012  0.067  0.000  0.781  0.140
  0.067  0.012  0.000  0.140  0.781
    occupations:
  0.382  0.000  0.000  0.000  0.000
  0.000  0.360  0.000  0.000  0.012
  0.000  0.000  0.360  0.012  0.000
  0.000  0.000  0.012  0.398  0.000
  0.000  0.012  0.000  0.000  0.398
atom    5   Tr[ns(na)] =   5.43078
    eigenvalues: 
  0.840  0.929  0.946
    eigenvectors:
  0.338  0.000  0.662
  0.496  0.251  0.253
  0.166  0.749  0.085
    occupations:
  0.910 -0.043  0.025
 -0.043  0.889  0.023
  0.025  0.023  0.916
atom    6   Tr[ns(na)] =   5.43078
    eigenvalues: 
  0.840  0.929  0.946
    eigenvectors:
  0.338  0.000  0.662
  0.497  0.249  0.254
  0.165  0.751  0.084
    occupations:
  0.910  0.043  0.025
  0.043  0.889 -0.023
  0.025 -0.023  0.916
atom    7   Tr[ns(na)] =   5.43078
    eigenvalues: 
  0.840  0.929  0.946
    eigenvectors:
  0.338  0.000  0.662
  0.000  1.000  0.000
  0.662  0.000  0.338
    occupations:
  0.910  0.000 -0.050
  0.000  0.929  0.000
 -0.050  0.000  0.876
atom    8   Tr[ns(na)] =   5.43082
    eigenvalues: 
  0.840  0.930  0.946
    eigenvectors:
  0.338  0.000  0.662
  0.496  0.251  0.253
  0.166  0.749  0.085
    occupations:
  0.910 -0.043  0.025
 -0.043  0.889  0.023
  0.025  0.023  0.916
atom    9   Tr[ns(na)] =   5.43082
    eigenvalues: 
  0.840  0.930  0.946
    eigenvectors:
  0.338  0.000  0.662
  0.497  0.249  0.254
  0.165  0.751  0.084
    occupations:
  0.910  0.043  0.025
  0.043  0.889 -0.023
  0.025 -0.023  0.916
atom   10   Tr[ns(na)] =   5.43082
    eigenvalues: 
  0.840  0.930  0.946
    eigenvectors:
  0.338  0.000  0.662
  0.000  1.000  0.000
  0.662  0.000  0.338
    occupations:
  0.910  0.000 -0.050
  0.000  0.930  0.000
 -0.050  0.000  0.876
N of occupied +U levels =  56.3078268
 --- exit write_ns ---
 --- in v_hubbard ---
Hubbard energy    0.2069
 -------

     total cpu time spent up to now is      152.9 secs

     total energy              =    -538.10387057 Ry
     Harris-Foulkes estimate   =    -538.10382336 Ry
     estimated scf accuracy    <       0.00000133 Ry

     iteration #  8     ecut=    30.00 Ry     beta=0.20
     Davidson diagonalization with overlap
     ethr =  1.75E-09,  avg # of iterations =  2.9
 --- enter write_ns ---
 LDA+U parameters:
U( 1)     =  3.00000000
alpha( 1) =  0.00000000
U( 2)     =  0.00000000
alpha( 2) = -0.10000000
U( 3)     =  0.00000000
alpha( 3) =  0.00000000
U( 4)     =  0.00000000
alpha( 4) =  0.00000000
atom    1   Tr[ns(na)] =   8.05404
    eigenvalues: 
  0.532  0.532  0.987  0.987  0.989
    eigenvectors:
  0.000  0.000  0.000  0.000  1.000
  0.336  0.322  0.004  0.338  0.000
  0.322  0.336  0.338  0.004  0.000
  0.285  0.058  0.517  0.140  0.000
  0.058  0.285  0.140  0.517  0.000
    occupations:
  0.989  0.000  0.000  0.000  0.000
  0.000  0.688  0.000 -0.079  0.201
  0.000  0.000  0.688  0.201  0.079
  0.000 -0.079  0.201  0.831  0.000
  0.000  0.201  0.079  0.000  0.831
atom    2   Tr[ns(na)] =   8.05180
    eigenvalues: 
  0.530  0.530  0.988  0.988  0.990
    eigenvectors:
  0.000  0.000  0.000  0.000  1.000
  0.638  0.020  0.220  0.122  0.000
  0.020  0.638  0.122  0.220  0.000
  0.013  0.329  0.473  0.185  0.000
  0.329  0.013  0.185  0.473  0.000
    occupations:
  0.990  0.000  0.000  0.000  0.000
  0.000  0.687  0.000  0.079  0.202
  0.000  0.000  0.687  0.202 -0.079
  0.000  0.079  0.202  0.831  0.000
  0.000  0.202 -0.079  0.000  0.831
atom    3   Tr[ns(na)] =   3.82263
    eigenvalues: 
  0.359  0.359  0.384  0.404  0.404
    eigenvectors:
  0.000  0.000  1.000  0.000  0.000
  0.784  0.138  0.000  0.011  0.066
  0.138  0.784  0.000  0.066  0.011
  0.012  0.065  0.000  0.782  0.140
  0.065  0.012  0.000  0.140  0.782
    occupations:
  0.384  0.000  0.000  0.000  0.000
  0.000  0.362  0.000  0.000  0.012
  0.000  0.000  0.362  0.012  0.000
  0.000  0.000  0.012  0.401  0.000
  0.000  0.012  0.000  0.000  0.401
atom    4   Tr[ns(na)] =   3.79429
    eigenvalues: 
  0.356  0.356  0.382  0.402  0.402
    eigenvectors:
  0.000  0.000  1.000  0.000  0.000
  0.782  0.139  0.000  0.012  0.068
  0.139  0.782  0.000  0.068  0.012
  0.012  0.067  0.000  0.781  0.140
  0.067  0.012  0.000  0.140  0.781
    occupations:
  0.382  0.000  0.000  0.000  0.000
  0.000  0.359  0.000  0.000  0.012
  0.000  0.000  0.359  0.012  0.000
  0.000  0.000  0.012  0.398  0.000
  0.000  0.012  0.000  0.000  0.398
atom    5   Tr[ns(na)] =   5.43080
    eigenvalues: 
  0.840  0.929  0.946
    eigenvectors:
  0.338  0.000  0.662
  0.496  0.251  0.253
  0.166  0.749  0.085
    occupations:
  0.910 -0.043  0.025
 -0.043  0.889  0.023
  0.025  0.023  0.916
atom    6   Tr[ns(na)] =   5.43080
    eigenvalues: 
  0.840  0.929  0.946
    eigenvectors:
  0.338  0.000  0.662
  0.497  0.249  0.254
  0.165  0.751  0.084
    occupations:
  0.910  0.043  0.025
  0.043  0.889 -0.023
  0.025 -0.023  0.916
atom    7   Tr[ns(na)] =   5.43080
    eigenvalues: 
  0.840  0.929  0.946
    eigenvectors:
  0.338  0.000  0.662
  0.000  1.000  0.000
  0.662  0.000  0.338
    occupations:
  0.910  0.000 -0.050
  0.000  0.929  0.000
 -0.050  0.000  0.876
atom    8   Tr[ns(na)] =   5.43082
    eigenvalues: 
  0.840  0.930  0.946
    eigenvectors:
  0.338  0.000  0.662
  0.496  0.251  0.253
  0.166  0.749  0.085
    occupations:
  0.910 -0.043  0.025
 -0.043  0.889  0.023
  0.025  0.023  0.916
atom    9   Tr[ns(na)] =   5.43082
    eigenvalues: 
  0.840  0.930  0.946
    eigenvectors:
  0.338  0.000  0.662
  0.497  0.249  0.254
  0.165  0.751  0.084
    occupations:
  0.910  0.043  0.025
  0.043  0.889 -0.023
  0.025 -0.023  0.916
atom   10   Tr[ns(na)] =   5.43082
    eigenvalues: 
  0.840  0.930  0.946
    eigenvectors:
  0.338  0.000  0.662
  0.000  1.000  0.000
  0.662  0.000  0.338
    occupations:
  0.910  0.000 -0.050
  0.000  0.930  0.000
 -0.050  0.000  0.876
N of occupied +U levels =  56.3076145
 --- exit write_ns ---
 --- in v_hubbard ---
Hubbard energy    0.2071
 -------

     total cpu time spent up to now is      172.5 secs

     total energy              =    -538.10390013 Ry
     Harris-Foulkes estimate   =    -538.10387083 Ry
     estimated scf accuracy    <       0.00000057 Ry

     iteration #  9     ecut=    30.00 Ry     beta=0.20
     Davidson diagonalization with overlap
     ethr =  7.55E-10,  avg # of iterations =  2.0
 --- enter write_ns ---
 LDA+U parameters:
U( 1)     =  3.00000000
alpha( 1) =  0.00000000
U( 2)     =  0.00000000
alpha( 2) = -0.10000000
U( 3)     =  0.00000000
alpha( 3) =  0.00000000
U( 4)     =  0.00000000
alpha( 4) =  0.00000000
atom    1   Tr[ns(na)] =   8.05343
    eigenvalues: 
  0.532  0.532  0.987  0.987  0.989
    eigenvectors:
  0.000  0.000  0.000  0.000  1.000
  0.337  0.321  0.004  0.338  0.000
  0.321  0.337  0.338  0.004  0.000
  0.284  0.058  0.517  0.140  0.000
  0.058  0.284  0.140  0.517  0.000
    occupations:
  0.989  0.000  0.000  0.000  0.000
  0.000  0.688  0.000 -0.079  0.201
  0.000  0.000  0.688  0.201  0.079
  0.000 -0.079  0.201  0.831  0.000
  0.000  0.201  0.079  0.000  0.831
atom    2   Tr[ns(na)] =   8.05143
    eigenvalues: 
  0.530  0.530  0.988  0.988  0.990
    eigenvectors:
  0.000  0.000  0.000  0.000  1.000
  0.638  0.020  0.220  0.122  0.000
  0.020  0.638  0.122  0.220  0.000
  0.013  0.329  0.473  0.185  0.000
  0.329  0.013  0.185  0.473  0.000
    occupations:
  0.990  0.000  0.000  0.000  0.000
  0.000  0.687  0.000  0.079  0.202
  0.000  0.000  0.687  0.202 -0.079
  0.000  0.079  0.202  0.831  0.000
  0.000  0.202 -0.079  0.000  0.831
atom    3   Tr[ns(na)] =   3.82238
    eigenvalues: 
  0.359  0.359  0.384  0.404  0.404
    eigenvectors:
  0.000  0.000  1.000  0.000  0.000
  0.784  0.139  0.000  0.011  0.066
  0.139  0.784  0.000  0.066  0.011
  0.012  0.065  0.000  0.782  0.140
  0.065  0.012  0.000  0.140  0.782
    occupations:
  0.384  0.000  0.000  0.000  0.000
  0.000  0.362  0.000  0.000  0.012
  0.000  0.000  0.362  0.012  0.000
  0.000  0.000  0.012  0.401  0.000
  0.000  0.012  0.000  0.000  0.401
atom    4   Tr[ns(na)] =   3.79420
    eigenvalues: 
  0.356  0.356  0.382  0.402  0.402
    eigenvectors:
  0.000  0.000  1.000  0.000  0.000
  0.782  0.139  0.000  0.012  0.068
  0.139  0.782  0.000  0.068  0.012
  0.012  0.067  0.000  0.781  0.140
  0.067  0.012  0.000  0.140  0.781
    occupations:
  0.382  0.000  0.000  0.000  0.000
  0.000  0.359  0.000  0.000  0.012
  0.000  0.000  0.359  0.012  0.000
  0.000  0.000  0.012  0.398  0.000
  0.000  0.012  0.000  0.000  0.398
atom    5   Tr[ns(na)] =   5.43098
    eigenvalues: 
  0.840  0.929  0.946
    eigenvectors:
  0.338  0.000  0.662
  0.496  0.251  0.253
  0.166  0.749  0.085
    occupations:
  0.910 -0.043  0.025
 -0.043  0.889  0.023
  0.025  0.023  0.916
atom    6   Tr[ns(na)] =   5.43098
    eigenvalues: 
  0.840  0.929  0.946
    eigenvectors:
  0.338  0.000  0.662
  0.497  0.249  0.254
  0.165  0.751  0.084
    occupations:
  0.910  0.043  0.025
  0.043  0.889 -0.023
  0.025 -0.023  0.916
atom    7   Tr[ns(na)] =   5.43098
    eigenvalues: 
  0.840  0.929  0.946
    eigenvectors:
  0.338  0.000  0.662
  0.000  1.000  0.000
  0.662  0.000  0.338
    occupations:
  0.910  0.000 -0.050
  0.000  0.929  0.000
 -0.050  0.000  0.876
atom    8   Tr[ns(na)] =   5.43101
    eigenvalues: 
  0.840  0.930  0.946
    eigenvectors:
  0.338  0.000  0.662
  0.496  0.251  0.253
  0.166  0.749  0.085
    occupations:
  0.910 -0.043  0.025
 -0.043  0.889  0.023
  0.025  0.023  0.916
atom    9   Tr[ns(na)] =   5.43101
    eigenvalues: 
  0.840  0.930  0.946
    eigenvectors:
  0.338  0.000  0.662
  0.497  0.249  0.254
  0.165  0.751  0.084
    occupations:
  0.910  0.043  0.025
  0.043  0.889 -0.023
  0.025 -0.023  0.916
atom   10   Tr[ns(na)] =   5.43101
    eigenvalues: 
  0.840  0.930  0.946
    eigenvectors:
  0.338  0.000  0.662
  0.000  1.000  0.000
  0.662  0.000  0.338
    occupations:
  0.910  0.000 -0.050
  0.000  0.930  0.000
 -0.050  0.000  0.876
N of occupied +U levels =  56.3073844
 --- exit write_ns ---
 --- in v_hubbard ---
Hubbard energy    0.2071
 -------

     total cpu time spent up to now is      191.9 secs

     total energy              =    -538.10392013 Ry
     Harris-Foulkes estimate   =    -538.10390025 Ry
     estimated scf accuracy    <       0.00000033 Ry

     iteration # 10     ecut=    30.00 Ry     beta=0.20
     Davidson diagonalization with overlap
     ethr =  4.28E-10,  avg # of iterations =  1.0
 --- enter write_ns ---
 LDA+U parameters:
U( 1)     =  3.00000000
alpha( 1) =  0.00000000
U( 2)     =  0.00000000
alpha( 2) = -0.10000000
U( 3)     =  0.00000000
alpha( 3) =  0.00000000
U( 4)     =  0.00000000
alpha( 4) =  0.00000000
atom    1   Tr[ns(na)] =   8.05374
    eigenvalues: 
  0.532  0.532  0.987  0.987  0.989
    eigenvectors:
  0.000  0.000  0.000  0.000  1.000
  0.337  0.321  0.004  0.338  0.000
  0.321  0.337  0.338  0.004  0.000
  0.285  0.058  0.517  0.140  0.000
  0.058  0.285  0.140  0.517  0.000
    occupations:
  0.989  0.000  0.000  0.000  0.000
  0.000  0.688  0.000 -0.079  0.201
  0.000  0.000  0.688  0.201  0.079
  0.000 -0.079  0.201  0.831  0.000
  0.000  0.201  0.079  0.000  0.831
atom    2   Tr[ns(na)] =   8.05166
    eigenvalues: 
  0.530  0.530  0.988  0.988  0.990
    eigenvectors:
  0.000  0.000  0.000  0.000  1.000
  0.638  0.020  0.220  0.122  0.000
  0.020  0.638  0.122  0.220  0.000
  0.013  0.329  0.473  0.185  0.000
  0.329  0.013  0.185  0.473  0.000
    occupations:
  0.990  0.000  0.000  0.000  0.000
  0.000  0.687  0.000  0.079  0.202
  0.000  0.000  0.687  0.202 -0.079
  0.000  0.079  0.202  0.831  0.000
  0.000  0.202 -0.079  0.000  0.831
atom    3   Tr[ns(na)] =   3.82244
    eigenvalues: 
  0.359  0.359  0.384  0.404  0.404
    eigenvectors:
  0.000  0.000  1.000  0.000  0.000
  0.784  0.138  0.000  0.011  0.066
  0.138  0.784  0.000  0.066  0.011
  0.012  0.065  0.000  0.782  0.140
  0.065  0.012  0.000  0.140  0.782
    occupations:
  0.384  0.000  0.000  0.000  0.000
  0.000  0.362  0.000  0.000  0.012
  0.000  0.000  0.362  0.012  0.000
  0.000  0.000  0.012  0.401  0.000
  0.000  0.012  0.000  0.000  0.401
atom    4   Tr[ns(na)] =   3.79426
    eigenvalues: 
  0.356  0.356  0.382  0.402  0.402
    eigenvectors:
  0.000  0.000  1.000  0.000  0.000
  0.782  0.139  0.000  0.012  0.068
  0.139  0.782  0.000  0.068  0.012
  0.012  0.067  0.000  0.781  0.140
  0.067  0.012  0.000  0.140  0.781
    occupations:
  0.382  0.000  0.000  0.000  0.000
  0.000  0.359  0.000  0.000  0.012
  0.000  0.000  0.359  0.012  0.000
  0.000  0.000  0.012  0.398  0.000
  0.000  0.012  0.000  0.000  0.398
atom    5   Tr[ns(na)] =   5.43088
    eigenvalues: 
  0.840  0.929  0.946
    eigenvectors:
  0.338  0.000  0.662
  0.496  0.251  0.253
  0.166  0.749  0.085
    occupations:
  0.910 -0.043  0.025
 -0.043  0.889  0.023
  0.025  0.023  0.916
atom    6   Tr[ns(na)] =   5.43088
    eigenvalues: 
  0.840  0.929  0.946
    eigenvectors:
  0.338  0.000  0.662
  0.497  0.249  0.254
  0.165  0.751  0.084
    occupations:
  0.910  0.043  0.025
  0.043  0.889 -0.023
  0.025 -0.023  0.916
atom    7   Tr[ns(na)] =   5.43088
    eigenvalues: 
  0.840  0.929  0.946
    eigenvectors:
  0.338  0.000  0.662
  0.000  1.000  0.000
  0.662  0.000  0.338
    occupations:
  0.910  0.000 -0.050
  0.000  0.929  0.000
 -0.050  0.000  0.876
atom    8   Tr[ns(na)] =   5.43091
    eigenvalues: 
  0.840  0.930  0.946
    eigenvectors:
  0.338  0.000  0.662
  0.496  0.251  0.253
  0.166  0.749  0.085
    occupations:
  0.910 -0.043  0.025
 -0.043  0.889  0.023
  0.025  0.023  0.916
atom    9   Tr[ns(na)] =   5.43091
    eigenvalues: 
  0.840  0.930  0.946
    eigenvectors:
  0.338  0.000  0.662
  0.497  0.249  0.254
  0.165  0.751  0.084
    occupations:
  0.910  0.043  0.025
  0.043  0.889 -0.023
  0.025 -0.023  0.916
atom   10   Tr[ns(na)] =   5.43091
    eigenvalues: 
  0.840  0.930  0.946
    eigenvectors:
  0.338  0.000  0.662
  0.000  1.000  0.000
  0.662  0.000  0.338
    occupations:
  0.910  0.000 -0.050
  0.000  0.930  0.000
 -0.050  0.000  0.876
N of occupied +U levels =  56.3074695
 --- exit write_ns ---
 --- in v_hubbard ---
Hubbard energy    0.2071
 -------

     total cpu time spent up to now is      213.1 secs

     total energy              =    -538.10393284 Ry
     Harris-Foulkes estimate   =    -538.10392015 Ry
     estimated scf accuracy    <       0.00000004 Ry

     iteration # 11     ecut=    30.00 Ry     beta=0.20
     Davidson diagonalization with overlap
     ethr =  4.68E-11,  avg # of iterations =  2.0
 --- enter write_ns ---
 LDA+U parameters:
U( 1)     =  3.00000000
alpha( 1) =  0.00000000
U( 2)     =  0.00000000
alpha( 2) = -0.10000000
U( 3)     =  0.00000000
alpha( 3) =  0.00000000
U( 4)     =  0.00000000
alpha( 4) =  0.00000000
atom    1   Tr[ns(na)] =   8.05375
    eigenvalues: 
  0.532  0.532  0.987  0.987  0.989
    eigenvectors:
  0.000  0.000  0.000  0.000  1.000
  0.337  0.321  0.004  0.338  0.000
  0.321  0.337  0.338  0.004  0.000
  0.285  0.058  0.518  0.140  0.000
  0.058  0.285  0.140  0.518  0.000
    occupations:
  0.989  0.000  0.000  0.000  0.000
  0.000  0.688  0.000 -0.079  0.201
  0.000  0.000  0.688  0.201  0.079
  0.000 -0.079  0.201  0.831  0.000
  0.000  0.201  0.079  0.000  0.831
atom    2   Tr[ns(na)] =   8.05167
    eigenvalues: 
  0.530  0.530  0.988  0.988  0.990
    eigenvectors:
  0.000  0.000  0.000  0.000  1.000
  0.638  0.020  0.220  0.122  0.000
  0.020  0.638  0.122  0.220  0.000
  0.013  0.329  0.473  0.185  0.000
  0.329  0.013  0.185  0.473  0.000
    occupations:
  0.990  0.000  0.000  0.000  0.000
  0.000  0.687  0.000  0.079  0.202
  0.000  0.000  0.687  0.202 -0.079
  0.000  0.079  0.202  0.831  0.000
  0.000  0.202 -0.079  0.000  0.831
atom    3   Tr[ns(na)] =   3.82250
    eigenvalues: 
  0.359  0.359  0.384  0.404  0.404
    eigenvectors:
  0.000  0.000  1.000  0.000  0.000
  0.784  0.138  0.000  0.011  0.066
  0.138  0.784  0.000  0.066  0.011
  0.012  0.065  0.000  0.783  0.140
  0.065  0.012  0.000  0.140  0.783
    occupations:
  0.384  0.000  0.000  0.000  0.000
  0.000  0.362  0.000  0.000  0.012
  0.000  0.000  0.362  0.012  0.000
  0.000  0.000  0.012  0.401  0.000
  0.000  0.012  0.000  0.000  0.401
atom    4   Tr[ns(na)] =   3.79434
    eigenvalues: 
  0.356  0.356  0.382  0.402  0.402
    eigenvectors:
  0.000  0.000  1.000  0.000  0.000
  0.782  0.139  0.000  0.012  0.068
  0.139  0.782  0.000  0.068  0.012
  0.012  0.067  0.000  0.781  0.140
  0.067  0.012  0.000  0.140  0.781
    occupations:
  0.382  0.000  0.000  0.000  0.000
  0.000  0.359  0.000  0.000  0.012
  0.000  0.000  0.359  0.012  0.000
  0.000  0.000  0.012  0.398  0.000
  0.000  0.012  0.000  0.000  0.398
atom    5   Tr[ns(na)] =   5.43086
    eigenvalues: 
  0.840  0.929  0.946
    eigenvectors:
  0.338  0.000  0.662
  0.496  0.251  0.253
  0.166  0.749  0.085
    occupations:
  0.910 -0.043  0.025
 -0.043  0.889  0.023
  0.025  0.023  0.916
atom    6   Tr[ns(na)] =   5.43086
    eigenvalues: 
  0.840  0.929  0.946
    eigenvectors:
  0.338  0.000  0.662
  0.497  0.249  0.254
  0.165  0.751  0.084
    occupations:
  0.910  0.043  0.025
  0.043  0.889 -0.023
  0.025 -0.023  0.916
atom    7   Tr[ns(na)] =   5.43086
    eigenvalues: 
  0.840  0.929  0.946
    eigenvectors:
  0.338  0.000  0.662
  0.000  1.000  0.000
  0.662  0.000  0.338
    occupations:
  0.910  0.000 -0.050
  0.000  0.929  0.000
 -0.050  0.000  0.876
atom    8   Tr[ns(na)] =   5.43089
    eigenvalues: 
  0.840  0.930  0.946
    eigenvectors:
  0.338  0.000  0.662
  0.496  0.251  0.253
  0.166  0.749  0.085
    occupations:
  0.910 -0.043  0.025
 -0.043  0.889  0.023
  0.025  0.023  0.916
atom    9   Tr[ns(na)] =   5.43089
    eigenvalues: 
  0.840  0.930  0.946
    eigenvectors:
  0.338  0.000  0.662
  0.497  0.249  0.254
  0.165  0.751  0.084
    occupations:
  0.910  0.043  0.025
  0.043  0.889 -0.023
  0.025 -0.023  0.916
atom   10   Tr[ns(na)] =   5.43089
    eigenvalues: 
  0.840  0.930  0.946
    eigenvectors:
  0.338  0.000  0.662
  0.000  1.000  0.000
  0.662  0.000  0.338
    occupations:
  0.910  0.000 -0.050
  0.000  0.930  0.000
 -0.050  0.000  0.876
N of occupied +U levels =  56.3075015
 --- exit write_ns ---
 --- in v_hubbard ---
Hubbard energy    0.2071
 -------

     total cpu time spent up to now is      240.5 secs

     total energy              =    -538.10394089 Ry
     Harris-Foulkes estimate   =    -538.10393284 Ry
     estimated scf accuracy    <       0.00000001 Ry

     iteration # 12     ecut=    30.00 Ry     beta=0.20
     Davidson diagonalization with overlap
     ethr =  1.51E-11,  avg # of iterations =  2.1
 --- enter write_ns ---
 LDA+U parameters:
U( 1)     =  3.00000000
alpha( 1) =  0.00000000
U( 2)     =  0.00000000
alpha( 2) = -0.10000000
U( 3)     =  0.00000000
alpha( 3) =  0.00000000
U( 4)     =  0.00000000
alpha( 4) =  0.00000000
atom    1   Tr[ns(na)] =   8.05380
    eigenvalues: 
  0.532  0.532  0.987  0.987  0.989
    eigenvectors:
  0.000  0.000  0.000  0.000  1.000
  0.337  0.321  0.004  0.338  0.000
  0.321  0.337  0.338  0.004  0.000
  0.285  0.058  0.518  0.140  0.000
  0.058  0.285  0.140  0.518  0.000
    occupations:
  0.989  0.000  0.000  0.000  0.000
  0.000  0.688  0.000 -0.079  0.201
  0.000  0.000  0.688  0.201  0.079
  0.000 -0.079  0.201  0.831  0.000
  0.000  0.201  0.079  0.000  0.831
atom    2   Tr[ns(na)] =   8.05173
    eigenvalues: 
  0.530  0.530  0.988  0.988  0.990
    eigenvectors:
  0.000  0.000  0.000  0.000  1.000
  0.638  0.020  0.220  0.122  0.000
  0.020  0.638  0.122  0.220  0.000
  0.013  0.329  0.473  0.185  0.000
  0.329  0.013  0.185  0.473  0.000
    occupations:
  0.990  0.000  0.000  0.000  0.000
  0.000  0.687  0.000  0.079  0.202
  0.000  0.000  0.687  0.202 -0.079
  0.000  0.079  0.202  0.831  0.000
  0.000  0.202 -0.079  0.000  0.831
atom    3   Tr[ns(na)] =   3.82246
    eigenvalues: 
  0.359  0.359  0.384  0.404  0.404
    eigenvectors:
  0.000  0.000  1.000  0.000  0.000
  0.784  0.139  0.000  0.011  0.066
  0.139  0.784  0.000  0.066  0.011
  0.012  0.065  0.000  0.783  0.140
  0.065  0.012  0.000  0.140  0.783
    occupations:
  0.384  0.000  0.000  0.000  0.000
  0.000  0.362  0.000  0.000  0.012
  0.000  0.000  0.362  0.012  0.000
  0.000  0.000  0.012  0.401  0.000
  0.000  0.012  0.000  0.000  0.401
atom    4   Tr[ns(na)] =   3.79427
    eigenvalues: 
  0.356  0.356  0.382  0.402  0.402
    eigenvectors:
  0.000  0.000  1.000  0.000  0.000
  0.782  0.139  0.000  0.012  0.068
  0.139  0.782  0.000  0.068  0.012
  0.012  0.067  0.000  0.781  0.140
  0.067  0.012  0.000  0.140  0.781
    occupations:
  0.382  0.000  0.000  0.000  0.000
  0.000  0.359  0.000  0.000  0.012
  0.000  0.000  0.359  0.012  0.000
  0.000  0.000  0.012  0.398  0.000
  0.000  0.012  0.000  0.000  0.398
atom    5   Tr[ns(na)] =   5.43086
    eigenvalues: 
  0.840  0.929  0.946
    eigenvectors:
  0.338  0.000  0.662
  0.496  0.251  0.253
  0.166  0.749  0.085
    occupations:
  0.910 -0.043  0.025
 -0.043  0.889  0.023
  0.025  0.023  0.916
atom    6   Tr[ns(na)] =   5.43086
    eigenvalues: 
  0.840  0.929  0.946
    eigenvectors:
  0.338  0.000  0.662
  0.497  0.249  0.254
  0.165  0.751  0.084
    occupations:
  0.910  0.043  0.025
  0.043  0.889 -0.023
  0.025 -0.023  0.916
atom    7   Tr[ns(na)] =   5.43086
    eigenvalues: 
  0.840  0.929  0.946
    eigenvectors:
  0.338  0.000  0.662
  0.000  1.000  0.000
  0.662  0.000  0.338
    occupations:
  0.910  0.000 -0.050
  0.000  0.929  0.000
 -0.050  0.000  0.876
atom    8   Tr[ns(na)] =   5.43088
    eigenvalues: 
  0.840  0.930  0.946
    eigenvectors:
  0.338  0.000  0.662
  0.496  0.251  0.253
  0.166  0.749  0.085
    occupations:
  0.910 -0.043  0.025
 -0.043  0.889  0.023
  0.025  0.023  0.916
atom    9   Tr[ns(na)] =   5.43088
    eigenvalues: 
  0.840  0.930  0.946
    eigenvectors:
  0.338  0.000  0.662
  0.497  0.249  0.254
  0.165  0.751  0.084
    occupations:
  0.910  0.043  0.025
  0.043  0.889 -0.023
  0.025 -0.023  0.916
atom   10   Tr[ns(na)] =   5.43088
    eigenvalues: 
  0.840  0.930  0.946
    eigenvectors:
  0.338  0.000  0.662
  0.000  1.000  0.000
  0.662  0.000  0.338
    occupations:
  0.910  0.000 -0.050
  0.000  0.930  0.000
 -0.050  0.000  0.876
N of occupied +U levels =  56.3074736
 --- exit write_ns ---
 --- in v_hubbard ---
Hubbard energy    0.2071
 -------

     total cpu time spent up to now is      267.5 secs

     End of self-consistent calculation

          k = 0.0000 0.0000 0.0000 (  2175 PWs)   bands (ev):

   -19.7859 -19.6053  -6.5633  -5.8670  -5.8670  -5.8608  -5.8608  -5.5253
    -3.8055  -3.2456  -3.2355  -3.2355  -3.0162  -3.0162   5.1700   6.8078
     6.8078   7.1558   7.1558   7.1911   7.4990   7.4990   7.6978   9.1073
     9.2808   9.2974   9.2974   9.6073   9.6073  10.0066  10.0066  10.2323
    10.4415  10.4415  10.6580  11.1194  11.1194  11.5238  11.9568  11.9568
    14.7262  14.7262  15.3868  15.3868  16.1551  16.7439

     occupation numbers 
     0.0313   0.0313   0.0313   0.0313   0.0313   0.0313   0.0313   0.0313
     0.0313   0.0313   0.0313   0.0313   0.0313   0.0313   0.0313   0.0313
     0.0313   0.0313   0.0313   0.0313   0.0313   0.0313   0.0313   0.0313
     0.0313   0.0313   0.0313   0.0312   0.0312   0.0312   0.0312   0.0312
     0.0312   0.0312   0.0312   0.0306   0.0306   0.0233   0.0063   0.0063
     0.0000   0.0000   0.0000   0.0000   0.0000   0.0000

          k =-0.2471-0.1427 0.1027 (  2181 PWs)   bands (ev):

   -19.7614 -19.6367  -6.7426  -6.3245  -5.9735  -5.8790  -5.6430  -5.5128
    -3.6050  -3.3921  -2.9325  -2.8988  -2.8552  -2.7523   5.5187   6.7746
     6.8151   6.9063   6.9319   7.1679   7.2077   7.4581   7.5870   8.2544
     8.2608   8.8148   9.5758   9.6939   9.7111   9.9577  10.2047  10.2240
    10.3865  10.3963  10.4515  11.1964  11.2825  11.3052  12.2844  12.3553
    14.2721  14.2810  15.7780  16.0334  16.9373  17.2326

     occupation numbers 
     0.1875   0.1875   0.1875   0.1875   0.1875   0.1875   0.1875   0.1875
     0.1875   0.1875   0.1875   0.1875   0.1875   0.1875   0.1875   0.1875
     0.1875   0.1875   0.1875   0.1875   0.1875   0.1875   0.1875   0.1875
     0.1875   0.1875   0.1875   0.1875   0.1875   0.1875   0.1875   0.1875
     0.1875   0.1875   0.1875   0.1807   0.1749   0.1728   0.0045   0.0025
     0.0000   0.0000   0.0000   0.0000   0.0000   0.0000

          k = 0.4942 0.2853-0.2053 (  2202 PWs)   bands (ev):

   -19.7274 -19.6781  -6.7594  -6.7285  -5.9900  -5.9830  -5.5509  -5.5461
    -3.3923  -3.3695  -2.7940  -2.7817  -2.5169  -2.4811   5.9514   5.9676
     7.0040   7.0221   7.1508   7.1652   7.3956   7.4180   7.4701   7.4966
     7.7071   7.7314   9.4175   9.4238   9.8376   9.8450  10.2442  10.2541
    10.6137  10.6330  10.7697  10.7893  11.0318  11.0499  13.2565  13.2949
    13.3402  13.3786  16.7838  16.8244  17.0827  17.1221

     occupation numbers 
     0.0938   0.0938   0.0938   0.0938   0.0938   0.0938   0.0938   0.0938
     0.0938   0.0938   0.0938   0.0938   0.0938   0.0938   0.0938   0.0938
     0.0938   0.0938   0.0938   0.0938   0.0938   0.0938   0.0938   0.0938
     0.0938   0.0938   0.0937   0.0937   0.0937   0.0937   0.0937   0.0937
     0.0937   0.0937   0.0937   0.0937   0.0929   0.0927   0.0000   0.0000
     0.0000   0.0000   0.0000   0.0000   0.0000   0.0000

          k =-0.2471 0.1427 0.2053 (  2195 PWs)   bands (ev):

   -19.7578 -19.6448  -6.8657  -6.2579  -6.0935  -5.8728  -5.6854  -5.4892
    -3.4177  -3.2541  -3.1021  -2.8930  -2.8207  -2.5527   5.5470   6.5039
     6.6931   6.8083   7.1404   7.2798   7.3567   7.4068   7.4636   8.3254
     8.3294   8.7269   9.2202   9.3268   9.8529   9.8885   9.9983  10.0727
    10.2477  10.7885  10.9311  10.9445  11.2127  11.2870  11.8743  12.7025
    13.5991  14.7438  15.9542  16.1597  16.9967  17.5135

     occupation numbers 
     0.1875   0.1875   0.1875   0.1875   0.1875   0.1875   0.1875   0.1875
     0.1875   0.1875   0.1875   0.1875   0.1875   0.1875   0.1875   0.1875
     0.1875   0.1875   0.1875   0.1875   0.1875   0.1875   0.1875   0.1875
     0.1875   0.1875   0.1875   0.1875   0.1875   0.1875   0.1875   0.1875
     0.1875   0.1874   0.1869   0.1868   0.1798   0.1745   0.0543   0.0001
     0.0000   0.0000   0.0000   0.0000   0.0000   0.0000

          k = 0.4942 0.5706-0.1027 (  2198 PWs)   bands (ev):

   -19.7367 -19.6754  -6.9721  -6.6707  -6.1477  -5.9174  -5.5436  -5.4087
    -3.3035  -3.2455  -2.8715  -2.7034  -2.5231  -2.3787   5.8173   6.1438
     6.3700   6.8793   7.0839   7.2155   7.2858   7.4637   7.4967   7.6326
     8.0205   8.5889   8.9301   9.2257   9.5403   9.7642   9.8444  10.2968
    10.3471  10.7801  10.8865  10.9644  11.1042  11.2187  12.2771  12.7067
    13.3942  14.3230  16.8717  17.0843  17.2785  17.9843

     occupation numbers 
     0.1875   0.1875   0.1875   0.1875   0.1875   0.1875   0.1875   0.1875
     0.1875   0.1875   0.1875   0.1875   0.1875   0.1875   0.1875   0.1875
     0.1875   0.1875   0.1875   0.1875   0.1875   0.1875   0.1875   0.1875
     0.1875   0.1875   0.1875   0.1875   0.1875   0.1875   0.1875   0.1875
     0.1875   0.1874   0.1871   0.1866   0.1843   0.1794   0.0048   0.0001
     0.0000   0.0000   0.0000   0.0000   0.0000   0.0000

          k = 0.2471 0.4280 0.0000 (  2203 PWs)   bands (ev):

   -19.7401 -19.6673  -6.8650  -6.6680  -6.0732  -6.0027  -5.4682  -5.3968
    -3.5239  -3.2846  -2.7958  -2.7049  -2.5629  -2.5565   5.8281   6.1584
     6.6567   6.9791   7.0393   7.1124   7.3274   7.3412   7.3974   7.7256
     7.9252   8.8714   8.8853   9.3470   9.7217   9.7414  10.0228  10.3199
    10.6005  10.6368  10.7941  10.9166  10.9313  11.3088  12.1935  13.2856
    13.3635  14.1178  16.4007  16.9631  17.3916  17.9009

     occupation numbers 
     0.1875   0.1875   0.1875   0.1875   0.1875   0.1875   0.1875   0.1875
     0.1875   0.1875   0.1875   0.1875   0.1875   0.1875   0.1875   0.1875
     0.1875   0.1875   0.1875   0.1875   0.1875   0.1875   0.1875   0.1875
     0.1875   0.1875   0.1875   0.1875   0.1875   0.1875   0.1875   0.1875
     0.1875   0.1875   0.1874   0.1870   0.1869   0.1725   0.0091   0.0000
     0.0000   0.0000   0.0000   0.0000   0.0000   0.0000

          k = 0.4942-0.2853-0.4107 (  2202 PWs)   bands (ev):

   -19.7427 -19.6762  -7.1762  -6.4633  -6.2488  -6.0176  -5.5602  -5.3134
    -3.1887  -3.1056  -3.0422  -2.6432  -2.4758  -2.2157   5.7393   5.8411
     6.1502   6.7961   7.1204   7.2279   7.2970   7.4626   7.9611   7.9685
     8.1284   8.2894   8.5858   9.3666   9.3990   9.6597  10.0143  10.0471
    10.3947  10.6887  10.8509  10.9984  11.1299  11.3507  11.8158  12.3857
    13.2970  14.7580  17.0081  17.2364  17.4785  17.5935

     occupation numbers 
     0.0938   0.0938   0.0938   0.0938   0.0938   0.0938   0.0938   0.0938
     0.0938   0.0938   0.0938   0.0938   0.0938   0.0938   0.0938   0.0938
     0.0938   0.0938   0.0938   0.0938   0.0938   0.0938   0.0938   0.0938
     0.0938   0.0938   0.0938   0.0937   0.0937   0.0937   0.0937   0.0937
     0.0937   0.0937   0.0936   0.0931   0.0917   0.0840   0.0340   0.0009
     0.0000   0.0000   0.0000   0.0000   0.0000   0.0000

          k = 0.0000 0.0000 0.3080 (  2187 PWs)   bands (ev):

   -19.7612 -19.6375  -6.6306  -6.0193  -5.9651  -5.9576  -5.8691  -5.8681
    -3.2065  -3.1395  -3.1126  -2.9565  -2.9020  -2.8784   5.5855   6.8622
     6.8975   6.9014   7.0906   7.1469   7.1546   7.4718   7.4775   8.4356
     8.4370   8.8433   9.4236   9.5220   9.5232   9.7101  10.0921  10.0958
    10.4250  10.4263  10.6471  11.2441  11.2452  11.2997  12.2566  12.2574
    14.2314  14.2341  15.8691  15.8772  16.8411  17.4454

     occupation numbers 
     0.0625   0.0625   0.0625   0.0625   0.0625   0.0625   0.0625   0.0625
     0.0625   0.0625   0.0625   0.0625   0.0625   0.0625   0.0625   0.0625
     0.0625   0.0625   0.0625   0.0625   0.0625   0.0625   0.0625   0.0625
     0.0625   0.0625   0.0625   0.0625   0.0625   0.0625   0.0625   0.0625
     0.0625   0.0625   0.0625   0.0593   0.0592   0.0578   0.0019   0.0019
     0.0000   0.0000   0.0000   0.0000   0.0000   0.0000

          k = 0.7412 0.4280 0.0000 (  2204 PWs)   bands (ev):

   -19.7398 -19.6682  -6.7516  -6.6315  -6.1663  -5.8567  -5.7076  -5.5766
    -3.1787  -3.0893  -3.0340  -2.6771  -2.6472  -2.5793   5.8688   6.4178
     6.5525   6.9972   7.0713   7.2136   7.2495   7.3811   7.4531   7.6716
     8.0111   8.6799   8.9494   9.4337   9.5146   9.6562   9.8121  10.2010
    10.6060  10.7474  10.8101  10.9890  11.0260  11.1285  12.1931  13.2072
    13.2791  14.1448  16.6525  16.6941  17.5619  17.7703

     occupation numbers 
     0.1875   0.1875   0.1875   0.1875   0.1875   0.1875   0.1875   0.1875
     0.1875   0.1875   0.1875   0.1875   0.1875   0.1875   0.1875   0.1875
     0.1875   0.1875   0.1875   0.1875   0.1875   0.1875   0.1875   0.1875
     0.1875   0.1875   0.1875   0.1875   0.1875   0.1875   0.1875   0.1875
     0.1875   0.1874   0.1873   0.1864   0.1859   0.1835   0.0091   0.0000
     0.0000   0.0000   0.0000   0.0000   0.0000   0.0000

          k = 0.4942 0.2853 0.1027 (  2211 PWs)   bands (ev):

   -19.7370 -19.6751  -6.9881  -6.5699  -6.3401  -5.7281  -5.6483  -5.3834
    -3.3165  -3.1562  -3.0289  -2.5983  -2.5560  -2.3711   5.8519   6.1261
     6.3168   6.8652   7.1071   7.1408   7.3310   7.4140   7.5734   7.6254
     8.0596   8.6429   8.9250   9.3568   9.3885   9.6300   9.9574  10.2088
    10.4296  10.8485  10.9843  11.0019  11.0419  11.0731  12.2323  12.7206
    13.4408  14.3046  16.8508  16.9072  17.5502  17.8956

     occupation numbers 
     0.1875   0.1875   0.1875   0.1875   0.1875   0.1875   0.1875   0.1875
     0.1875   0.1875   0.1875   0.1875   0.1875   0.1875   0.1875   0.1875
     0.1875   0.1875   0.1875   0.1875   0.1875   0.1875   0.1875   0.1875
     0.1875   0.1875   0.1875   0.1875   0.1875   0.1875   0.1875   0.1875
     0.1875   0.1872   0.1864   0.1862   0.1856   0.1850   0.0068   0.0000
     0.0000   0.0000   0.0000   0.0000   0.0000   0.0000

          k = 0.7412-0.4280-0.3080 (  2210 PWs)   bands (ev):

   -19.7370 -19.6757  -6.9250  -6.4795  -6.3176  -5.8216  -5.7894  -5.5099
    -3.0642  -3.0503  -2.9558  -2.7239  -2.6189  -2.4221   5.9296   6.2733
     6.3584   6.8412   7.0774   7.1923   7.3657   7.4482   7.6101   7.6442
     8.0328   8.6549   8.8065   9.3488   9.4552   9.4751   9.6249  10.1425
    10.4732  10.8512  10.9465  10.9901  11.1136  11.1342  12.1910  12.6730
    13.3895  14.2742  17.0291  17.0368  17.5189  17.8687

     occupation numbers 
     0.1875   0.1875   0.1875   0.1875   0.1875   0.1875   0.1875   0.1875
     0.1875   0.1875   0.1875   0.1875   0.1875   0.1875   0.1875   0.1875
     0.1875   0.1875   0.1875   0.1875   0.1875   0.1875   0.1875   0.1875
     0.1875   0.1875   0.1875   0.1875   0.1875   0.1875   0.1875   0.1875
     0.1875   0.1872   0.1868   0.1864   0.1840   0.1833   0.0092   0.0001
     0.0000   0.0000   0.0000   0.0000   0.0000   0.0000

          k = 0.4942-0.5706-0.2053 (  2206 PWs)   bands (ev):

   -19.7373 -19.6795  -6.9065  -6.8949  -6.0568  -6.0520  -5.4548  -5.4523
    -3.1506  -3.1346  -2.8239  -2.7962  -2.3793  -2.3747   5.9985   6.0096
     6.4980   6.5132   6.9978   7.0017   7.2977   7.3125   7.6405   7.6694
     8.6453   8.6509   8.7804   8.7934   9.4814   9.4832  10.0279  10.0295
    10.6406  10.6448  10.8433  10.8509  11.1705  11.1766  12.2427  12.2470
    13.9678  13.9780  17.3962  17.3991  17.8434  17.8467

     occupation numbers 
     0.1875   0.1875   0.1875   0.1875   0.1875   0.1875   0.1875   0.1875
     0.1875   0.1875   0.1875   0.1875   0.1875   0.1875   0.1875   0.1875
     0.1875   0.1875   0.1875   0.1875   0.1875   0.1875   0.1875   0.1875
     0.1875   0.1875   0.1875   0.1875   0.1875   0.1875   0.1875   0.1875
     0.1875   0.1875   0.1873   0.1872   0.1819   0.1816   0.0063   0.0061
     0.0000   0.0000   0.0000   0.0000   0.0000   0.0000

          k = 0.0000 0.0000-0.6160 (  2186 PWs)   bands (ev):

   -19.7281 -19.6788  -6.5503  -6.5142  -5.9779  -5.9779  -5.9522  -5.9522
    -2.9083  -2.9083  -2.8728  -2.8728  -2.7170  -2.6757   6.1896   6.2067
     7.0654   7.0654   7.0837   7.0837   7.3894   7.4134   7.6538   7.6538
     7.6787   7.6787   9.5712   9.5712   9.5799   9.5799   9.6513   9.6626
    10.8304  10.8484  10.9199  10.9199  10.9388  10.9388  13.1954  13.1954
    13.2331  13.2331  17.0667  17.0667  17.1088  17.1088

     occupation numbers 
     0.0313   0.0313   0.0313   0.0313   0.0313   0.0313   0.0313   0.0313
     0.0313   0.0313   0.0313   0.0313   0.0313   0.0313   0.0313   0.0313
     0.0313   0.0313   0.0313   0.0313   0.0313   0.0313   0.0313   0.0313
     0.0313   0.0313   0.0312   0.0312   0.0312   0.0312   0.0312   0.0312
     0.0312   0.0312   0.0312   0.0312   0.0311   0.0311   0.0000   0.0000
     0.0000   0.0000   0.0000   0.0000   0.0000   0.0000

          k = 0.4942-0.5706 0.1027 (  2198 PWs)   bands (ev):

   -19.7367 -19.6754  -6.9726  -6.6698  -6.1488  -5.9164  -5.5446  -5.4080
    -3.3043  -3.2455  -2.8716  -2.7023  -2.5237  -2.3784   5.8147   6.1498
     6.3644   6.8811   7.0852   7.2175   7.2962   7.4512   7.4811   7.6450
     8.0237   8.5923   8.9273   9.2251   9.5378   9.7644   9.8442  10.2990
    10.3467  10.7740  10.8926  10.9627  11.1111  11.2137  12.2769  12.7064
    13.3940  14.3227  16.8735  17.0814  17.2791  17.9847

     occupation numbers 
     0.1875   0.1875   0.1875   0.1875   0.1875   0.1875   0.1875   0.1875
     0.1875   0.1875   0.1875   0.1875   0.1875   0.1875   0.1875   0.1875
     0.1875   0.1875   0.1875   0.1875   0.1875   0.1875   0.1875   0.1875
     0.1875   0.1875   0.1875   0.1875   0.1875   0.1875   0.1875   0.1875
     0.1875   0.1874   0.1871   0.1866   0.1841   0.1797   0.0048   0.0001
     0.0000   0.0000   0.0000   0.0000   0.0000   0.0000

     the Fermi energy is    11.7142 ev

!    total energy              =    -538.10395529 Ry
     Harris-Foulkes estimate   =    -538.10394089 Ry
     estimated scf accuracy    <          7.7E-09 Ry

     The total energy is the sum of the following terms:

     one-electron contribution =     -32.87771708 Ry
     hartree contribution      =      83.62485073 Ry
     xc contribution           =    -199.60179072 Ry
     ewald contribution        =    -389.44315552 Ry
     Hubbard energy            =       0.20714095 Ry
     smearing contrib. (-TS)   =      -0.01328365 Ry

     convergence has been achieved in  12 iterations

     init_run     :      8.13s CPU      8.32s WALL (       1 calls)
     electrons    :    248.60s CPU    258.66s WALL (       1 calls)

     Called by init_run:
     wfcinit      :      0.00s CPU      0.00s WALL (       1 calls)
     potinit      :      0.57s CPU      0.62s WALL (       1 calls)

     Called by electrons:
     c_bands      :    160.81s CPU    165.27s WALL (      12 calls)
     sum_band     :     48.84s CPU     51.61s WALL (      12 calls)
     v_of_rho     :      4.19s CPU      4.23s WALL (      13 calls)
     v_h          :      0.25s CPU      0.25s WALL (      13 calls)
     v_xc         :      3.94s CPU      3.97s WALL (      13 calls)
     newd         :     36.17s CPU     36.87s WALL (      13 calls)
     mix_rho      :      0.60s CPU      0.60s WALL (      12 calls)

     Called by c_bands:
     init_us_2    :      1.38s CPU      1.39s WALL (     336 calls)
     cegterg      :    157.04s CPU    160.96s WALL (     168 calls)

     Called by sum_band:
     sum_band:bec :      0.13s CPU      0.13s WALL (     168 calls)
     addusdens    :     19.98s CPU     20.44s WALL (      12 calls)

     Called by *egterg:
     h_psi        :    118.84s CPU    122.14s WALL (     678 calls)
     s_psi        :      5.41s CPU      5.41s WALL (     678 calls)
     g_psi        :      0.42s CPU      0.43s WALL (     510 calls)
     cdiaghg      :      9.42s CPU      9.52s WALL (     664 calls)
     cegterg:over :      9.07s CPU      9.27s WALL (     510 calls)
     cegterg:upda :      4.36s CPU      4.37s WALL (     510 calls)
     cegterg:last :      2.94s CPU      2.95s WALL (     193 calls)

     Called by h_psi:
     h_psi:vloc   :     97.79s CPU    100.67s WALL (     678 calls)
     h_psi:vnl    :     12.26s CPU     12.40s WALL (     678 calls)
     add_vuspsi   :      5.45s CPU      5.47s WALL (     678 calls)
     vhpsi        :      8.51s CPU      8.80s WALL (     678 calls)

     General routines
     calbec       :     15.60s CPU     16.19s WALL (    1692 calls)
     fft          :      6.16s CPU      6.70s WALL (     203 calls)
     ffts         :      0.08s CPU      0.20s WALL (      25 calls)
     fftw         :     95.52s CPU    100.11s WALL (   47900 calls)
     interpolate  :      0.46s CPU      0.96s WALL (      25 calls)
     davcio       :      0.00s CPU      0.45s WALL (     350 calls)

     Parallel routines
     fft_scatter  :     47.34s CPU     52.50s WALL (   48128 calls)
     Hubbard U routines
     new_ns       :      1.33s CPU      1.56s WALL (      12 calls)
     vhpsi        :      8.51s CPU      8.80s WALL (     678 calls)

     PWSCF        :  4m17.17s CPU     4m27.55s WALL


   This run was terminated on:  14:54:19  11Nov2012            

=------------------------------------------------------------------------------=
