 
Job started on n10 at Tue Nov 13 11:48:30 EST 2012

     Program PWSCF v.5.0.1 starts on 13Nov2012 at 11:48:33 

     This program is part of the open-source Quantum ESPRESSO suite
     for quantum simulation of materials; please cite
         "P. Giannozzi et al., J. Phys.:Condens. Matter 21 395502 (2009);
          URL http://www.quantum-espresso.org", 
     in publications or presentations arising from this work. More details at
     http://www.quantum-espresso.org/quote.php

     Parallel version (MPI), running on     2 processors
     R & G space division:  proc/pool =    2

     Current dimensions of program PWSCF are:
     Max number of different atomic species (ntypx) = 10
     Max number of k-points (npk) =  40000
     Max angular momentum in pseudopotentials (lmaxx) =  3
     Reading input from CoLaO_U0_init.in
               file Co.pbe-nd-rrkjus.UPF: wavefunction(s)  4S 3D renormalized
               file Co.pbe-nd-rrkjus.UPF: wavefunction(s)  4S 3D renormalized
               file O.pbe-rrkjus.UPF: wavefunction(s)  2S renormalized

     Subspace diagonalization in iterative solution of the eigenvalue problem:
     a serial algorithm will be used


     Parallelization info
     --------------------
     sticks:   dense  smooth     PW     G-vecs:    dense   smooth      PW
     Min        1112     444    131                34808     8786    1448
     Max        1113     445    132                34809     8787    1449
     Sum        2225     889    263                69617    17573    2897


     Title: 
     GGA + U, U = 1D-40, init                                                   


     bravais-lattice index     =            5
     lattice parameter (alat)  =      10.3292  a.u.
     unit-cell volume          =     793.0599 (a.u.)^3
     number of atoms/cell      =           10
     number of atomic types    =            4
     number of electrons       =        76.00
     number of Kohn-Sham states=           46
     kinetic-energy cutoff     =      30.0000  Ry
     charge density cutoff     =     300.0000  Ry
     convergence threshold     =      1.0E-08
     mixing beta               =       0.2000
     number of iterations used =            8  plain     mixing
     Exchange-correlation      =  SLA  PW   PBE  PBE ( 1 4 3 4 0)
     EXX-fraction              =        0.00

     celldm(1)=  10.329242  celldm(2)=   0.000000  celldm(3)=   0.000000
     celldm(4)=   0.488100  celldm(5)=   0.000000  celldm(6)=   0.000000

     crystal axes: (cart. coord. in units of alat)
               a(1) = (   0.505915  -0.292090   0.811624 )  
               a(2) = (   0.000000   0.584180   0.811624 )  
               a(3) = (  -0.505915  -0.292090   0.811624 )  

     reciprocal axes: (cart. coord. in units 2 pi/alat)
               b(1) = (  0.988308 -0.570600  0.410699 )  
               b(2) = (  0.000000  1.141200  0.410699 )  
               b(3) = ( -0.988308 -0.570600  0.410699 )  


     PseudoPot. # 1 for Co read from file:
     /home/mcurnan/dft-course/Project1/example_LaCoO3/Co.pbe-nd-rrkjus.UPF
     MD5 check sum: 3e47a84addf5e975e0edeaeee2a73f59
     Pseudo is Ultrasoft + core correction, Zval =  9.0
     Generated by new atomic code, or converted to UPF format
     Using radial grid of  961 points,  6 beta functions with: 
                l(1) =   0
                l(2) =   0
                l(3) =   1
                l(4) =   1
                l(5) =   2
                l(6) =   2
     Q(r) pseudized with 0 coefficients 


     PseudoPot. # 2 for Co read from file:
     /home/mcurnan/dft-course/Project1/example_LaCoO3/Co.pbe-nd-rrkjus.UPF
     MD5 check sum: 3e47a84addf5e975e0edeaeee2a73f59
     Pseudo is Ultrasoft + core correction, Zval =  9.0
     Generated by new atomic code, or converted to UPF format
     Using radial grid of  961 points,  6 beta functions with: 
                l(1) =   0
                l(2) =   0
                l(3) =   1
                l(4) =   1
                l(5) =   2
                l(6) =   2
     Q(r) pseudized with 0 coefficients 


     PseudoPot. # 3 for La read from file:
     /home/mcurnan/dft-course/Project1/example_LaCoO3/La.pbe-nsp-van.UPF
     MD5 check sum: b2f11743f52dde65f77d1302becd7929
     Pseudo is Ultrasoft + core correction, Zval = 11.0
     Generated by new atomic code, or converted to UPF format
     Using radial grid of  907 points,  6 beta functions with: 
                l(1) =   0
                l(2) =   0
                l(3) =   1
                l(4) =   1
                l(5) =   2
                l(6) =   2
     Q(r) pseudized with  6 coefficients,  rinner =    1.200   1.200   1.200
                                                       1.200   1.200

     PseudoPot. # 4 for O  read from file:
     /home/mcurnan/dft-course/Project1/example_LaCoO3/O.pbe-rrkjus.UPF
     MD5 check sum: 390ba29e75625707450f3bd3f0eb6be9
     Pseudo is Ultrasoft, Zval =  6.0
     Generated by new atomic code, or converted to UPF format
     Using radial grid of 1269 points,  4 beta functions with: 
                l(1) =   0
                l(2) =   0
                l(3) =   1
                l(4) =   1
     Q(r) pseudized with 0 coefficients 


     atomic species   valence    mass     pseudopotential
        Co1            9.00     1.00000     Co( 1.00)
        Co2            9.00     1.00000     Co( 1.00)
        La1           11.00     1.00000     La( 1.00)
        O1             6.00     1.00000     O ( 1.00)

     Starting magnetic structure 
     atomic species   magnetization
        Co1          1.000
        Co2          1.000
        La1          0.000
        O1           0.000
 -----
     simplified LDA+U calculation, Hubbard_lmax = 2
     atomic species  L   Hubbard U  Hubbard alpha
        Co1          2    0.000000    0.000000
        Co2          2    0.000000    0.000000
        La1          2    0.000000    0.000000
        O1           1    0.000000    0.000000
 -----

      6 Sym. Ops., with inversion, found


                                    s                        frac. trans.

      isym =  1     identity                                     

 cryst.   s( 1) = (     1          0          0      )
                  (     0          1          0      )
                  (     0          0          1      )

 cart.    s( 1) = (  1.0000000  0.0000000  0.0000000 )
                  (  0.0000000  1.0000000  0.0000000 )
                  (  0.0000000  0.0000000  1.0000000 )


      isym =  2     120 deg rotation - cryst. axis [0,0,1]       

 cryst.   s( 2) = (     0          1          0      )
                  (     0          0          1      )
                  (     1          0          0      )

 cart.    s( 2) = ( -0.5000000 -0.8660254  0.0000000 )
                  (  0.8660254 -0.5000000  0.0000000 )
                  (  0.0000000  0.0000000  1.0000000 )


      isym =  3     120 deg rotation - cryst. axis [0,0,-1]      

 cryst.   s( 3) = (     0          0          1      )
                  (     1          0          0      )
                  (     0          1          0      )

 cart.    s( 3) = ( -0.5000000  0.8660254  0.0000000 )
                  ( -0.8660254 -0.5000000  0.0000000 )
                  (  0.0000000  0.0000000  1.0000000 )


      isym =  4     inversion                                    

 cryst.   s( 4) = (    -1          0          0      )
                  (     0         -1          0      )
                  (     0          0         -1      )

 cart.    s( 4) = ( -1.0000000  0.0000000  0.0000000 )
                  (  0.0000000 -1.0000000  0.0000000 )
                  (  0.0000000  0.0000000 -1.0000000 )


      isym =  5     inv. 180 deg rotation - cart. axis [0,1,0]   

 cryst.   s( 5) = (     0         -1          0      )
                  (     0          0         -1      )
                  (    -1          0          0      )

 cart.    s( 5) = (  0.5000000  0.8660254  0.0000000 )
                  ( -0.8660254  0.5000000  0.0000000 )
                  (  0.0000000  0.0000000 -1.0000000 )


      isym =  6     inv. 180 deg rotation - cart. axis [1,0,0]   

 cryst.   s( 6) = (     0          0         -1      )
                  (    -1          0          0      )
                  (     0         -1          0      )

 cart.    s( 6) = (  0.5000000 -0.8660254  0.0000000 )
                  (  0.8660254  0.5000000  0.0000000 )
                  (  0.0000000  0.0000000 -1.0000000 )


     point group S_6 (-3)   
     there are  6 classes
     the character table:

       E     C3    C3^2  i     S6^5  S6   
A_g    1.00  1.00  1.00  1.00  1.00  1.00
E_g    1.00 -0.50 -0.50  1.00 -0.50 -0.50
E_g*   1.00 -0.50 -0.50  1.00 -0.50 -0.50
A_u    1.00  1.00  1.00 -1.00 -1.00 -1.00
E_u    1.00 -0.50 -0.50 -1.00  0.50  0.50
E_u*   1.00 -0.50 -0.50 -1.00  0.50  0.50
     imaginary part
A_g    0.00  0.00  0.00  0.00  0.00  0.00
E_g    0.00  0.87 -0.87  0.00  0.87 -0.87
E_g*   0.00 -0.87  0.87  0.00 -0.87  0.87
A_u    0.00  0.00  0.00  0.00  0.00  0.00
E_u    0.00  0.87 -0.87  0.00 -0.87  0.87
E_u*   0.00 -0.87  0.87  0.00  0.87 -0.87

     the symmetry operations in each class:
     E        1
     C3       2
     C3^2     3
     i        4
     S6^5     5
     S6       6

   Cartesian axes

     site n.     atom                  positions (alat units)
         1           Co1 tau(   1) = (   0.0000000   0.0000000   0.0000000  )
         2           Co2 tau(   2) = (   0.0000000   0.0000000   1.2174358  )
         3           La1 tau(   3) = (   0.0000000   0.0000000   0.6087179  )
         4           La1 tau(   4) = (   0.0000000   0.0000000   1.8261537  )
         5           O1  tau(   5) = (  -0.2839701  -0.0933228   1.0141240  )
         6           O1  tau(   6) = (   0.0611651   0.2925867   1.0141240  )
         7           O1  tau(   7) = (   0.2228050  -0.1992639   1.0141240  )
         8           O1  tau(   8) = (  -0.0611651  -0.2925867   1.4207476  )
         9           O1  tau(   9) = (   0.2839701   0.0933228   1.4207476  )
        10           O1  tau(  10) = (  -0.2228050   0.1992639   1.4207476  )

   Crystallographic axes

     site n.     atom                  positions (cryst. coord.)
         1           Co1 tau(   1) = (  0.0000000  0.0000000  0.0000000  )
         2           Co2 tau(   2) = (  0.5000000  0.5000000  0.5000000  )
         3           La1 tau(   3) = (  0.2500000  0.2500000  0.2500000  )
         4           La1 tau(   4) = (  0.7500000  0.7500000  0.7500000  )
         5           O1  tau(   5) = (  0.1891000  0.3100000  0.7504000  )
         6           O1  tau(   6) = (  0.3100000  0.7504000  0.1891000  )
         7           O1  tau(   7) = (  0.7504000  0.1891000  0.3100000  )
         8           O1  tau(   8) = (  0.6900000  0.2496000  0.8109000  )
         9           O1  tau(   9) = (  0.8109000  0.6900000  0.2496000  )
        10           O1  tau(  10) = (  0.2496000  0.8109000  0.6900000  )

     number of k points=    28  gaussian smearing, width (Ry)=  0.0300
                       cart. coord. in units 2pi/alat
        k(    1) = (   0.0000000   0.0000000   0.0000000), wk =   0.0156250
        k(    2) = (  -0.2470771  -0.1426500   0.1026748), wk =   0.0937500
        k(    3) = (   0.4941541   0.2853000  -0.2053496), wk =   0.0468750
        k(    4) = (  -0.2470771   0.1426500   0.2053496), wk =   0.0937500
        k(    5) = (   0.4941541   0.5706001  -0.1026748), wk =   0.0937500
        k(    6) = (   0.2470771   0.4279500   0.0000000), wk =   0.0937500
        k(    7) = (   0.4941541  -0.2853000  -0.4106993), wk =   0.0468750
        k(    8) = (   0.0000000   0.0000000   0.3080244), wk =   0.0312500
        k(    9) = (   0.7412312   0.4279500   0.0000000), wk =   0.0937500
        k(   10) = (   0.4941541   0.2853000   0.1026748), wk =   0.0937500
        k(   11) = (   0.7412312  -0.4279500  -0.3080244), wk =   0.0937500
        k(   12) = (   0.4941541  -0.5706001  -0.2053496), wk =   0.0937500
        k(   13) = (   0.0000000   0.0000000  -0.6160489), wk =   0.0156250
        k(   14) = (   0.4941541  -0.5706001   0.1026748), wk =   0.0937500
        k(   15) = (   0.0000000   0.0000000   0.0000000), wk =   0.0156250
        k(   16) = (  -0.2470771  -0.1426500   0.1026748), wk =   0.0937500
        k(   17) = (   0.4941541   0.2853000  -0.2053496), wk =   0.0468750
        k(   18) = (  -0.2470771   0.1426500   0.2053496), wk =   0.0937500
        k(   19) = (   0.4941541   0.5706001  -0.1026748), wk =   0.0937500
        k(   20) = (   0.2470771   0.4279500   0.0000000), wk =   0.0937500
        k(   21) = (   0.4941541  -0.2853000  -0.4106993), wk =   0.0468750
        k(   22) = (   0.0000000   0.0000000   0.3080244), wk =   0.0312500
        k(   23) = (   0.7412312   0.4279500   0.0000000), wk =   0.0937500
        k(   24) = (   0.4941541   0.2853000   0.1026748), wk =   0.0937500
        k(   25) = (   0.7412312  -0.4279500  -0.3080244), wk =   0.0937500
        k(   26) = (   0.4941541  -0.5706001  -0.2053496), wk =   0.0937500
        k(   27) = (   0.0000000   0.0000000  -0.6160489), wk =   0.0156250
        k(   28) = (   0.4941541  -0.5706001   0.1026748), wk =   0.0937500

                       cryst. coord.
        k(    1) = (   0.0000000   0.0000000   0.0000000), wk =   0.0156250
        k(    2) = (   0.0000000   0.0000000   0.2500000), wk =   0.0937500
        k(    3) = (   0.0000000   0.0000000  -0.5000000), wk =   0.0468750
        k(    4) = (   0.0000000   0.2500000   0.2500000), wk =   0.0937500
        k(    5) = (   0.0000000   0.2500000  -0.5000000), wk =   0.0937500
        k(    6) = (   0.0000000   0.2500000  -0.2500000), wk =   0.0937500
        k(    7) = (   0.0000000  -0.5000000  -0.5000000), wk =   0.0468750
        k(    8) = (   0.2500000   0.2500000   0.2500000), wk =   0.0312500
        k(    9) = (   0.2500000   0.2500000  -0.5000000), wk =   0.0937500
        k(   10) = (   0.2500000   0.2500000  -0.2500000), wk =   0.0937500
        k(   11) = (   0.2500000  -0.5000000  -0.5000000), wk =   0.0937500
        k(   12) = (   0.2500000  -0.5000000  -0.2500000), wk =   0.0937500
        k(   13) = (  -0.5000000  -0.5000000  -0.5000000), wk =   0.0156250
        k(   14) = (   0.5000000  -0.2500000   0.0000000), wk =   0.0937500
        k(   15) = (   0.0000000   0.0000000   0.0000000), wk =   0.0156250
        k(   16) = (   0.0000000   0.0000000   0.2500000), wk =   0.0937500
        k(   17) = (   0.0000000   0.0000000  -0.5000000), wk =   0.0468750
        k(   18) = (   0.0000000   0.2500000   0.2500000), wk =   0.0937500
        k(   19) = (   0.0000000   0.2500000  -0.5000000), wk =   0.0937500
        k(   20) = (   0.0000000   0.2500000  -0.2500000), wk =   0.0937500
        k(   21) = (   0.0000000  -0.5000000  -0.5000000), wk =   0.0468750
        k(   22) = (   0.2500000   0.2500000   0.2500000), wk =   0.0312500
        k(   23) = (   0.2500000   0.2500000  -0.5000000), wk =   0.0937500
        k(   24) = (   0.2500000   0.2500000  -0.2500000), wk =   0.0937500
        k(   25) = (   0.2500000  -0.5000000  -0.5000000), wk =   0.0937500
        k(   26) = (   0.2500000  -0.5000000  -0.2500000), wk =   0.0937500
        k(   27) = (  -0.5000000  -0.5000000  -0.5000000), wk =   0.0156250
        k(   28) = (   0.5000000  -0.2500000   0.0000000), wk =   0.0937500

     Dense  grid:    69617 G-vectors     FFT dimensions: (  60,  60,  60)

     Smooth grid:    17573 G-vectors     FFT dimensions: (  40,  40,  40)

     Largest allocated arrays     est. size (Mb)     dimensions
        Kohn-Sham Wavefunctions         0.78 Mb     (   1117,   46)
        Atomic wavefunctions            1.06 Mb     (   1117,   62)
        NL pseudopotentials             2.05 Mb     (   1117,  120)
        Each V/rho on FFT grid          3.30 Mb     ( 108000,   2)
        Each G-vector array             0.27 Mb     (  34808)
        G-vector shells                 0.04 Mb     (   4682)
     Largest temporary arrays     est. size (Mb)     dimensions
        Auxiliary wavefunctions         3.14 Mb     (   1117,  184)
        Each subspace H/S matrix        0.52 Mb     ( 184, 184)
        Each <psi_i|beta_j> matrix      0.08 Mb     (    120,   46)
        Arrays for rho mixing          13.18 Mb     ( 108000,   8)

     Check: negative/imaginary core charge=   -0.000028    0.000000

     Initial potential from superposition of free atoms

     starting charge   75.93482, renormalised to   76.00000
 --- in v_hubbard ---
Hubbard energy    0.0000
 -------
     Number of +U iterations with fixed ns =  0
     Starting occupations:
 --- enter write_ns ---
 LDA+U parameters:
U( 1)     =  0.00000000
alpha( 1) =  0.00000000
U( 2)     =  0.00000000
alpha( 2) =  0.00000000
U( 3)     =  0.00000000
alpha( 3) =  0.00000000
U( 4)     =  0.00000000
alpha( 4) =  0.00000000
atom    1   Tr[ns(na)] (up, down, total) =   5.00000  2.00000  7.00000
   spin  1
    eigenvalues: 
  1.000  1.000  1.000  1.000  1.000
    eigenvectors:
  1.000  0.000  0.000  0.000  0.000
  0.000  1.000  0.000  0.000  0.000
  0.000  0.000  1.000  0.000  0.000
  0.000  0.000  0.000  1.000  0.000
  0.000  0.000  0.000  0.000  1.000
    occupations:
  1.000  0.000  0.000  0.000  0.000
  0.000  1.000  0.000  0.000  0.000
  0.000  0.000  1.000  0.000  0.000
  0.000  0.000  0.000  1.000  0.000
  0.000  0.000  0.000  0.000  1.000
   spin  2
    eigenvalues: 
  0.400  0.400  0.400  0.400  0.400
    eigenvectors:
  1.000  0.000  0.000  0.000  0.000
  0.000  1.000  0.000  0.000  0.000
  0.000  0.000  1.000  0.000  0.000
  0.000  0.000  0.000  1.000  0.000
  0.000  0.000  0.000  0.000  1.000
    occupations:
  0.400  0.000  0.000  0.000  0.000
  0.000  0.400  0.000  0.000  0.000
  0.000  0.000  0.400  0.000  0.000
  0.000  0.000  0.000  0.400  0.000
  0.000  0.000  0.000  0.000  0.400
atomic mag. moment =     3.000000
atom    2   Tr[ns(na)] (up, down, total) =   5.00000  2.00000  7.00000
   spin  1
    eigenvalues: 
  1.000  1.000  1.000  1.000  1.000
    eigenvectors:
  1.000  0.000  0.000  0.000  0.000
  0.000  1.000  0.000  0.000  0.000
  0.000  0.000  1.000  0.000  0.000
  0.000  0.000  0.000  1.000  0.000
  0.000  0.000  0.000  0.000  1.000
    occupations:
  1.000  0.000  0.000  0.000  0.000
  0.000  1.000  0.000  0.000  0.000
  0.000  0.000  1.000  0.000  0.000
  0.000  0.000  0.000  1.000  0.000
  0.000  0.000  0.000  0.000  1.000
   spin  2
    eigenvalues: 
  0.400  0.400  0.400  0.400  0.400
    eigenvectors:
  1.000  0.000  0.000  0.000  0.000
  0.000  1.000  0.000  0.000  0.000
  0.000  0.000  1.000  0.000  0.000
  0.000  0.000  0.000  1.000  0.000
  0.000  0.000  0.000  0.000  1.000
    occupations:
  0.400  0.000  0.000  0.000  0.000
  0.000  0.400  0.000  0.000  0.000
  0.000  0.000  0.400  0.000  0.000
  0.000  0.000  0.000  0.400  0.000
  0.000  0.000  0.000  0.000  0.400
atomic mag. moment =     3.000000
atom    3   Tr[ns(na)] (up, down, total) =   0.50000  0.50000  1.00000
   spin  1
    eigenvalues: 
  0.100  0.100  0.100  0.100  0.100
    eigenvectors:
  1.000  0.000  0.000  0.000  0.000
  0.000  1.000  0.000  0.000  0.000
  0.000  0.000  1.000  0.000  0.000
  0.000  0.000  0.000  1.000  0.000
  0.000  0.000  0.000  0.000  1.000
    occupations:
  0.100  0.000  0.000  0.000  0.000
  0.000  0.100  0.000  0.000  0.000
  0.000  0.000  0.100  0.000  0.000
  0.000  0.000  0.000  0.100  0.000
  0.000  0.000  0.000  0.000  0.100
   spin  2
    eigenvalues: 
  0.100  0.100  0.100  0.100  0.100
    eigenvectors:
  1.000  0.000  0.000  0.000  0.000
  0.000  1.000  0.000  0.000  0.000
  0.000  0.000  1.000  0.000  0.000
  0.000  0.000  0.000  1.000  0.000
  0.000  0.000  0.000  0.000  1.000
    occupations:
  0.100  0.000  0.000  0.000  0.000
  0.000  0.100  0.000  0.000  0.000
  0.000  0.000  0.100  0.000  0.000
  0.000  0.000  0.000  0.100  0.000
  0.000  0.000  0.000  0.000  0.100
atomic mag. moment =     0.000000
atom    4   Tr[ns(na)] (up, down, total) =   0.50000  0.50000  1.00000
   spin  1
    eigenvalues: 
  0.100  0.100  0.100  0.100  0.100
    eigenvectors:
  1.000  0.000  0.000  0.000  0.000
  0.000  1.000  0.000  0.000  0.000
  0.000  0.000  1.000  0.000  0.000
  0.000  0.000  0.000  1.000  0.000
  0.000  0.000  0.000  0.000  1.000
    occupations:
  0.100  0.000  0.000  0.000  0.000
  0.000  0.100  0.000  0.000  0.000
  0.000  0.000  0.100  0.000  0.000
  0.000  0.000  0.000  0.100  0.000
  0.000  0.000  0.000  0.000  0.100
   spin  2
    eigenvalues: 
  0.100  0.100  0.100  0.100  0.100
    eigenvectors:
  1.000  0.000  0.000  0.000  0.000
  0.000  1.000  0.000  0.000  0.000
  0.000  0.000  1.000  0.000  0.000
  0.000  0.000  0.000  1.000  0.000
  0.000  0.000  0.000  0.000  1.000
    occupations:
  0.100  0.000  0.000  0.000  0.000
  0.000  0.100  0.000  0.000  0.000
  0.000  0.000  0.100  0.000  0.000
  0.000  0.000  0.000  0.100  0.000
  0.000  0.000  0.000  0.000  0.100
atomic mag. moment =     0.000000
atom    5   Tr[ns(na)] (up, down, total) =   2.00000  2.00000  4.00000
   spin  1
    eigenvalues: 
  0.667  0.667  0.667
    eigenvectors:
  1.000  0.000  0.000
  0.000  1.000  0.000
  0.000  0.000  1.000
    occupations:
  0.667  0.000  0.000
  0.000  0.667  0.000
  0.000  0.000  0.667
   spin  2
    eigenvalues: 
  0.667  0.667  0.667
    eigenvectors:
  1.000  0.000  0.000
  0.000  1.000  0.000
  0.000  0.000  1.000
    occupations:
  0.667  0.000  0.000
  0.000  0.667  0.000
  0.000  0.000  0.667
atomic mag. moment =     0.000000
atom    6   Tr[ns(na)] (up, down, total) =   2.00000  2.00000  4.00000
   spin  1
    eigenvalues: 
  0.667  0.667  0.667
    eigenvectors:
  1.000  0.000  0.000
  0.000  1.000  0.000
  0.000  0.000  1.000
    occupations:
  0.667  0.000  0.000
  0.000  0.667  0.000
  0.000  0.000  0.667
   spin  2
    eigenvalues: 
  0.667  0.667  0.667
    eigenvectors:
  1.000  0.000  0.000
  0.000  1.000  0.000
  0.000  0.000  1.000
    occupations:
  0.667  0.000  0.000
  0.000  0.667  0.000
  0.000  0.000  0.667
atomic mag. moment =     0.000000
atom    7   Tr[ns(na)] (up, down, total) =   2.00000  2.00000  4.00000
   spin  1
    eigenvalues: 
  0.667  0.667  0.667
    eigenvectors:
  1.000  0.000  0.000
  0.000  1.000  0.000
  0.000  0.000  1.000
    occupations:
  0.667  0.000  0.000
  0.000  0.667  0.000
  0.000  0.000  0.667
   spin  2
    eigenvalues: 
  0.667  0.667  0.667
    eigenvectors:
  1.000  0.000  0.000
  0.000  1.000  0.000
  0.000  0.000  1.000
    occupations:
  0.667  0.000  0.000
  0.000  0.667  0.000
  0.000  0.000  0.667
atomic mag. moment =     0.000000
atom    8   Tr[ns(na)] (up, down, total) =   2.00000  2.00000  4.00000
   spin  1
    eigenvalues: 
  0.667  0.667  0.667
    eigenvectors:
  1.000  0.000  0.000
  0.000  1.000  0.000
  0.000  0.000  1.000
    occupations:
  0.667  0.000  0.000
  0.000  0.667  0.000
  0.000  0.000  0.667
   spin  2
    eigenvalues: 
  0.667  0.667  0.667
    eigenvectors:
  1.000  0.000  0.000
  0.000  1.000  0.000
  0.000  0.000  1.000
    occupations:
  0.667  0.000  0.000
  0.000  0.667  0.000
  0.000  0.000  0.667
atomic mag. moment =     0.000000
atom    9   Tr[ns(na)] (up, down, total) =   2.00000  2.00000  4.00000
   spin  1
    eigenvalues: 
  0.667  0.667  0.667
    eigenvectors:
  1.000  0.000  0.000
  0.000  1.000  0.000
  0.000  0.000  1.000
    occupations:
  0.667  0.000  0.000
  0.000  0.667  0.000
  0.000  0.000  0.667
   spin  2
    eigenvalues: 
  0.667  0.667  0.667
    eigenvectors:
  1.000  0.000  0.000
  0.000  1.000  0.000
  0.000  0.000  1.000
    occupations:
  0.667  0.000  0.000
  0.000  0.667  0.000
  0.000  0.000  0.667
atomic mag. moment =     0.000000
atom   10   Tr[ns(na)] (up, down, total) =   2.00000  2.00000  4.00000
   spin  1
    eigenvalues: 
  0.667  0.667  0.667
    eigenvectors:
  1.000  0.000  0.000
  0.000  1.000  0.000
  0.000  0.000  1.000
    occupations:
  0.667  0.000  0.000
  0.000  0.667  0.000
  0.000  0.000  0.667
   spin  2
    eigenvalues: 
  0.667  0.667  0.667
    eigenvectors:
  1.000  0.000  0.000
  0.000  1.000  0.000
  0.000  0.000  1.000
    occupations:
  0.667  0.000  0.000
  0.000  0.667  0.000
  0.000  0.000  0.667
atomic mag. moment =     0.000000
N of occupied +U levels =  40.0000000
 --- exit write_ns ---
 Atomic wfc used for LDA+U Projector are NOT orthogonalized
     Starting wfc are   62 randomized atomic wfcs

     total cpu time spent up to now is       19.5 secs

     per-process dynamical memory:    44.3 Mb

     Self-consistent Calculation

     iteration #  1     ecut=    30.00 Ry     beta=0.20
     Davidson diagonalization with overlap
     ethr =  1.00E-02,  avg # of iterations =  2.3
 --- enter write_ns ---
 LDA+U parameters:
U( 1)     =  0.00000000
alpha( 1) =  0.00000000
U( 2)     =  0.00000000
alpha( 2) =  0.00000000
U( 3)     =  0.00000000
alpha( 3) =  0.00000000
U( 4)     =  0.00000000
alpha( 4) =  0.00000000
atom    1   Tr[ns(na)] (up, down, total) =   4.99384  0.57600  5.56984
   spin  1
    eigenvalues: 
  0.997  0.998  0.998  1.000  1.000
    eigenvectors:
  1.000  0.000  0.000  0.000  0.000
  0.000  0.347  0.015  0.625  0.013
  0.000  0.015  0.347  0.013  0.625
  0.000  0.521  0.117  0.313  0.049
  0.000  0.117  0.521  0.049  0.313
    occupations:
  0.997  0.000  0.000  0.000  0.000
  0.000  1.000  0.000  0.001  0.000
  0.000  0.000  1.000  0.000 -0.001
  0.000  0.001  0.000  0.999  0.000
  0.000  0.000 -0.001  0.000  0.999
   spin  2
    eigenvalues: 
  0.075  0.075  0.076  0.175  0.175
    eigenvectors:
  0.000  0.000  1.000  0.000  0.000
  0.014  0.344  0.000  0.373  0.270
  0.344  0.014  0.000  0.270  0.373
  0.540  0.102  0.000  0.335  0.023
  0.102  0.540  0.000  0.023  0.335
    occupations:
  0.076  0.000  0.000  0.000  0.000
  0.000  0.139  0.000  0.027 -0.039
  0.000  0.000  0.139 -0.039 -0.027
  0.000  0.027 -0.039  0.111  0.000
  0.000 -0.039 -0.027  0.000  0.111
atomic mag. moment =     4.417844
atom    2   Tr[ns(na)] (up, down, total) =   4.99442  0.56567  5.56009
   spin  1
    eigenvalues: 
  0.997  0.998  0.998  1.001  1.001
    eigenvectors:
  1.000  0.000  0.000  0.000  0.000
  0.000  0.305  0.056  0.496  0.142
  0.000  0.056  0.305  0.142  0.496
  0.000  0.606  0.033  0.327  0.034
  0.000  0.033  0.606  0.034  0.327
    occupations:
  0.997  0.000  0.000  0.000  0.000
  0.000  1.000  0.000 -0.001  0.000
  0.000  0.000  1.000  0.000  0.001
  0.000 -0.001  0.000  0.999  0.000
  0.000  0.000  0.001  0.000  0.999
   spin  2
    eigenvalues: 
  0.074  0.074  0.074  0.172  0.172
    eigenvectors:
  0.000  0.000  1.000  0.000  0.000
  0.294  0.062  0.000  0.643  0.000
  0.062  0.294  0.000  0.000  0.643
  0.477  0.166  0.000  0.107  0.249
  0.166  0.477  0.000  0.249  0.107
    occupations:
  0.074  0.000  0.000  0.000  0.000
  0.000  0.137  0.000 -0.027 -0.039
  0.000  0.000  0.137 -0.039  0.027
  0.000 -0.027 -0.039  0.109  0.000
  0.000 -0.039  0.027  0.000  0.109
atomic mag. moment =     4.428746
atom    3   Tr[ns(na)] (up, down, total) =   2.11629  1.97551  4.09180
   spin  1
    eigenvalues: 
  0.369  0.369  0.379  0.500  0.500
    eigenvectors:
  0.000  0.000  1.000  0.000  0.000
  0.081  0.240  0.000  0.367  0.312
  0.240  0.081  0.000  0.312  0.367
  0.509  0.170  0.000  0.147  0.174
  0.170  0.509  0.000  0.174  0.147
    occupations:
  0.379  0.000  0.000  0.000  0.000
  0.000  0.458  0.000  0.000 -0.061
  0.000  0.000  0.458 -0.061  0.000
  0.000  0.000 -0.061  0.411  0.000
  0.000 -0.061  0.000  0.000  0.411
   spin  2
    eigenvalues: 
  0.344  0.352  0.352  0.464  0.464
    eigenvectors:
  1.000  0.000  0.000  0.000  0.000
  0.000  0.106  0.267  0.249  0.378
  0.000  0.267  0.106  0.378  0.249
  0.000  0.450  0.177  0.224  0.149
  0.000  0.177  0.450  0.149  0.224
    occupations:
  0.344  0.000  0.000  0.000  0.000
  0.000  0.422  0.000  0.000 -0.054
  0.000  0.000  0.422 -0.054  0.000
  0.000  0.000 -0.054  0.394  0.000
  0.000 -0.054  0.000  0.000  0.394
atomic mag. moment =     0.140783
atom    4   Tr[ns(na)] (up, down, total) =   2.11629  1.97551  4.09180
   spin  1
    eigenvalues: 
  0.369  0.369  0.379  0.500  0.500
    eigenvectors:
  0.000  0.000  1.000  0.000  0.000
  0.081  0.240  0.000  0.367  0.312
  0.240  0.081  0.000  0.312  0.367
  0.508  0.171  0.000  0.147  0.174
  0.171  0.508  0.000  0.174  0.147
    occupations:
  0.379  0.000  0.000  0.000  0.000
  0.000  0.458  0.000  0.000 -0.061
  0.000  0.000  0.458 -0.061  0.000
  0.000  0.000 -0.061  0.411  0.000
  0.000 -0.061  0.000  0.000  0.411
   spin  2
    eigenvalues: 
  0.344  0.352  0.352  0.464  0.464
    eigenvectors:
  1.000  0.000  0.000  0.000  0.000
  0.000  0.106  0.267  0.250  0.377
  0.000  0.267  0.106  0.377  0.250
  0.000  0.449  0.177  0.224  0.150
  0.000  0.177  0.449  0.150  0.224
    occupations:
  0.344  0.000  0.000  0.000  0.000
  0.000  0.422  0.000  0.000 -0.054
  0.000  0.000  0.422 -0.054  0.000
  0.000  0.000 -0.054  0.394  0.000
  0.000 -0.054  0.000  0.000  0.394
atomic mag. moment =     0.140783
atom    5   Tr[ns(na)] (up, down, total) =   2.93974  2.93081  5.87055
   spin  1
    eigenvalues: 
  0.977  0.980  0.983
    eigenvectors:
  0.224  0.000  0.776
  0.579  0.253  0.168
  0.197  0.747  0.056
    occupations:
  0.981  0.002  0.001
  0.002  0.979 -0.001
  0.001 -0.001  0.980
   spin  2
    eigenvalues: 
  0.974  0.977  0.980
    eigenvectors:
  0.272  0.000  0.728
  0.539  0.259  0.203
  0.189  0.741  0.069
    occupations:
  0.978  0.002  0.001
  0.002  0.976 -0.001
  0.001 -0.001  0.977
atomic mag. moment =     0.008930
atom    6   Tr[ns(na)] (up, down, total) =   2.93974  2.93081  5.87055
   spin  1
    eigenvalues: 
  0.977  0.980  0.983
    eigenvectors:
  0.224  0.000  0.776
  0.000  1.000  0.000
  0.776  0.000  0.224
    occupations:
  0.981  0.000 -0.003
  0.000  0.980  0.000
 -0.003  0.000  0.978
   spin  2
    eigenvalues: 
  0.974  0.977  0.980
    eigenvectors:
  0.272  0.000  0.728
  0.000  1.000  0.000
  0.728  0.000  0.272
    occupations:
  0.978  0.000 -0.003
  0.000  0.977  0.000
 -0.003  0.000  0.975
atomic mag. moment =     0.008930
atom    7   Tr[ns(na)] (up, down, total) =   2.93974  2.93081  5.87055
   spin  1
    eigenvalues: 
  0.977  0.980  0.983
    eigenvectors:
  0.224  0.000  0.776
  0.585  0.247  0.168
  0.191  0.753  0.056
    occupations:
  0.981 -0.002  0.001
 -0.002  0.979  0.001
  0.001  0.001  0.980
   spin  2
    eigenvalues: 
  0.974  0.977  0.980
    eigenvectors:
  0.272  0.000  0.728
  0.553  0.242  0.205
  0.175  0.758  0.067
    occupations:
  0.978 -0.002  0.001
 -0.002  0.976  0.001
  0.001  0.001  0.977
atomic mag. moment =     0.008930
atom    8   Tr[ns(na)] (up, down, total) =   2.93974  2.93081  5.87055
   spin  1
    eigenvalues: 
  0.977  0.980  0.983
    eigenvectors:
  0.224  0.000  0.776
  0.000  1.000  0.000
  0.776  0.000  0.224
    occupations:
  0.981  0.000 -0.003
  0.000  0.980  0.000
 -0.003  0.000  0.978
   spin  2
    eigenvalues: 
  0.974  0.977  0.980
    eigenvectors:
  0.272  0.000  0.728
  0.000  1.000  0.000
  0.728  0.000  0.272
    occupations:
  0.978  0.000 -0.003
  0.000  0.977  0.000
 -0.003  0.000  0.975
atomic mag. moment =     0.008930
atom    9   Tr[ns(na)] (up, down, total) =   2.93974  2.93081  5.87055
   spin  1
    eigenvalues: 
  0.977  0.980  0.983
    eigenvectors:
  0.224  0.000  0.776
  0.579  0.253  0.168
  0.197  0.747  0.056
    occupations:
  0.981  0.002  0.001
  0.002  0.979 -0.001
  0.001 -0.001  0.980
   spin  2
    eigenvalues: 
  0.974  0.977  0.980
    eigenvectors:
  0.272  0.000  0.728
  0.539  0.259  0.203
  0.189  0.741  0.069
    occupations:
  0.978  0.002  0.001
  0.002  0.976 -0.001
  0.001 -0.001  0.977
atomic mag. moment =     0.008930
atom   10   Tr[ns(na)] (up, down, total) =   2.93974  2.93081  5.87055
   spin  1
    eigenvalues: 
  0.977  0.980  0.983
    eigenvectors:
  0.224  0.000  0.776
  0.585  0.247  0.168
  0.191  0.753  0.056
    occupations:
  0.981 -0.002  0.001
 -0.002  0.979  0.001
  0.001  0.001  0.980
   spin  2
    eigenvalues: 
  0.974  0.977  0.980
    eigenvectors:
  0.272  0.000  0.728
  0.553  0.242  0.205
  0.175  0.758  0.067
    occupations:
  0.978 -0.002  0.001
 -0.002  0.976  0.001
  0.001  0.001  0.977
atomic mag. moment =     0.008930
N of occupied +U levels =  54.5368367
 --- exit write_ns ---
 --- in v_hubbard ---
Hubbard energy    0.0000
 -------

     total cpu time spent up to now is       46.4 secs

     total energy              =    -536.65041358 Ry
     Harris-Foulkes estimate   =    -539.70505778 Ry
     estimated scf accuracy    <       9.69767804 Ry

     total magnetization       =    10.19 Bohr mag/cell
     absolute magnetization    =    10.22 Bohr mag/cell

     iteration #  2     ecut=    30.00 Ry     beta=0.20
     Davidson diagonalization with overlap
     ethr =  1.00E-02,  avg # of iterations =  3.1
 --- enter write_ns ---
 LDA+U parameters:
U( 1)     =  0.00000000
alpha( 1) =  0.00000000
U( 2)     =  0.00000000
alpha( 2) =  0.00000000
U( 3)     =  0.00000000
alpha( 3) =  0.00000000
U( 4)     =  0.00000000
alpha( 4) =  0.00000000
atom    1   Tr[ns(na)] (up, down, total) =   4.98102  2.03379  7.01481
   spin  1
    eigenvalues: 
  0.996  0.996  0.996  0.997  0.997
    eigenvectors:
  0.000  0.000  1.000  0.000  0.000
  0.585  0.002  0.000  0.404  0.009
  0.002  0.585  0.000  0.009  0.404
  0.249  0.164  0.000  0.464  0.124
  0.164  0.249  0.000  0.124  0.464
    occupations:
  0.996  0.000  0.000  0.000  0.000
  0.000  0.996  0.000  0.000  0.000
  0.000  0.000  0.996  0.000  0.000
  0.000  0.000  0.000  0.996  0.000
  0.000  0.000  0.000  0.000  0.996
   spin  2
    eigenvalues: 
  0.352  0.352  0.439  0.439  0.453
    eigenvectors:
  0.000  0.000  0.000  0.000  1.000
  0.423  0.214  0.070  0.293  0.000
  0.214  0.423  0.293  0.070  0.000
  0.357  0.006  0.555  0.082  0.000
  0.006  0.357  0.082  0.555  0.000
    occupations:
  0.453  0.000  0.000  0.000  0.000
  0.000  0.383  0.000 -0.031  0.028
  0.000  0.000  0.383  0.028  0.031
  0.000 -0.031  0.028  0.407  0.000
  0.000  0.028  0.031  0.000  0.407
atomic mag. moment =     2.947235
atom    2   Tr[ns(na)] (up, down, total) =   4.98081  2.12490  7.10570
   spin  1
    eigenvalues: 
  0.996  0.996  0.996  0.997  0.997
    eigenvectors:
  0.000  0.000  1.000  0.000  0.000
  0.401  0.186  0.000  0.131  0.282
  0.186  0.401  0.000  0.282  0.131
  0.412  0.000  0.000  0.521  0.066
  0.000  0.412  0.000  0.066  0.521
    occupations:
  0.996  0.000  0.000  0.000  0.000
  0.000  0.996  0.000  0.000  0.000
  0.000  0.000  0.996  0.000  0.000
  0.000  0.000  0.000  0.996  0.000
  0.000  0.000  0.000  0.000  0.996
   spin  2
    eigenvalues: 
  0.350  0.350  0.470  0.470  0.485
    eigenvectors:
  0.000  0.000  0.000  0.000  1.000
  0.641  0.001  0.320  0.038  0.000
  0.001  0.641  0.038  0.320  0.000
  0.150  0.208  0.497  0.145  0.000
  0.208  0.150  0.145  0.497  0.000
    occupations:
  0.485  0.000  0.000  0.000  0.000
  0.000  0.393  0.000  0.039  0.042
  0.000  0.000  0.393  0.042 -0.039
  0.000  0.039  0.042  0.427  0.000
  0.000  0.042 -0.039  0.000  0.427
atomic mag. moment =     2.855907
atom    3   Tr[ns(na)] (up, down, total) =   1.79498  1.77561  3.57059
   spin  1
    eigenvalues: 
  0.332  0.332  0.365  0.383  0.383
    eigenvectors:
  0.000  0.000  1.000  0.000  0.000
  0.731  0.157  0.000  0.018  0.094
  0.157  0.731  0.000  0.094  0.018
  0.020  0.092  0.000  0.744  0.144
  0.092  0.020  0.000  0.144  0.744
    occupations:
  0.365  0.000  0.000  0.000  0.000
  0.000  0.337  0.000  0.000  0.016
  0.000  0.000  0.337  0.016  0.000
  0.000  0.000  0.016  0.378  0.000
  0.000  0.016  0.000  0.000  0.378
   spin  2
    eigenvalues: 
  0.325  0.325  0.363  0.381  0.381
    eigenvectors:
  0.000  0.000  1.000  0.000  0.000
  0.728  0.157  0.000  0.019  0.096
  0.157  0.728  0.000  0.096  0.019
  0.021  0.094  0.000  0.739  0.146
  0.094  0.021  0.000  0.146  0.739
    occupations:
  0.363  0.000  0.000  0.000  0.000
  0.000  0.331  0.000  0.000  0.018
  0.000  0.000  0.331  0.018  0.000
  0.000  0.000  0.018  0.375  0.000
  0.000  0.018  0.000  0.000  0.375
atomic mag. moment =     0.019375
atom    4   Tr[ns(na)] (up, down, total) =   1.79498  1.77561  3.57059
   spin  1
    eigenvalues: 
  0.332  0.332  0.365  0.383  0.383
    eigenvectors:
  0.000  0.000  1.000  0.000  0.000
  0.731  0.156  0.000  0.018  0.094
  0.156  0.731  0.000  0.094  0.018
  0.020  0.092  0.000  0.744  0.144
  0.092  0.020  0.000  0.144  0.744
    occupations:
  0.365  0.000  0.000  0.000  0.000
  0.000  0.337  0.000  0.000  0.016
  0.000  0.000  0.337  0.016  0.000
  0.000  0.000  0.016  0.378  0.000
  0.000  0.016  0.000  0.000  0.378
   spin  2
    eigenvalues: 
  0.325  0.325  0.363  0.381  0.381
    eigenvectors:
  0.000  0.000  1.000  0.000  0.000
  0.728  0.157  0.000  0.019  0.096
  0.157  0.728  0.000  0.096  0.019
  0.021  0.094  0.000  0.739  0.146
  0.094  0.021  0.000  0.146  0.739
    occupations:
  0.363  0.000  0.000  0.000  0.000
  0.000  0.331  0.000  0.000  0.018
  0.000  0.000  0.331  0.018  0.000
  0.000  0.000  0.018  0.375  0.000
  0.000  0.018  0.000  0.000  0.375
atomic mag. moment =     0.019375
atom    5   Tr[ns(na)] (up, down, total) =   2.88672  2.78806  5.67478
   spin  1
    eigenvalues: 
  0.956  0.965  0.966
    eigenvectors:
  0.196  0.804  0.000
  0.606  0.149  0.245
  0.198  0.047  0.755
    occupations:
  0.963  0.003  0.002
  0.003  0.960 -0.003
  0.002 -0.003  0.964
   spin  2
    eigenvalues: 
  0.906  0.941  0.941
    eigenvectors:
  0.322  0.674  0.005
  0.511  0.202  0.287
  0.168  0.124  0.708
    occupations:
  0.930  0.014  0.008
  0.014  0.923 -0.010
  0.008 -0.010  0.935
atomic mag. moment =     0.098660
atom    6   Tr[ns(na)] (up, down, total) =   2.88672  2.78806  5.67478
   spin  1
    eigenvalues: 
  0.956  0.965  0.966
    eigenvectors:
  0.196  0.804  0.000
  0.000  0.000  1.000
  0.804  0.196  0.000
    occupations:
  0.963  0.000 -0.003
  0.000  0.966  0.000
 -0.003  0.000  0.958
   spin  2
    eigenvalues: 
  0.906  0.941  0.941
    eigenvectors:
  0.322  0.674  0.005
  0.000  0.006  0.994
  0.678  0.320  0.002
    occupations:
  0.930  0.000 -0.017
  0.000  0.941  0.000
 -0.017  0.000  0.917
atomic mag. moment =     0.098660
atom    7   Tr[ns(na)] (up, down, total) =   2.88672  2.78806  5.67478
   spin  1
    eigenvalues: 
  0.956  0.965  0.966
    eigenvectors:
  0.196  0.804  0.000
  0.600  0.145  0.255
  0.204  0.051  0.745
    occupations:
  0.963 -0.003  0.002
 -0.003  0.960  0.003
  0.002  0.003  0.964
   spin  2
    eigenvalues: 
  0.906  0.941  0.941
    eigenvectors:
  0.322  0.674  0.005
  0.507  0.281  0.212
  0.172  0.046  0.783
    occupations:
  0.930 -0.014  0.008
 -0.014  0.923  0.011
  0.008  0.011  0.935
atomic mag. moment =     0.098660
atom    8   Tr[ns(na)] (up, down, total) =   2.88672  2.78806  5.67478
   spin  1
    eigenvalues: 
  0.956  0.965  0.966
    eigenvectors:
  0.196  0.804  0.000
  0.000  0.000  1.000
  0.804  0.196  0.000
    occupations:
  0.963  0.000 -0.003
  0.000  0.966  0.000
 -0.003  0.000  0.958
   spin  2
    eigenvalues: 
  0.906  0.941  0.941
    eigenvectors:
  0.322  0.674  0.005
  0.000  0.006  0.994
  0.678  0.320  0.002
    occupations:
  0.930  0.000 -0.017
  0.000  0.941  0.000
 -0.017  0.000  0.917
atomic mag. moment =     0.098660
atom    9   Tr[ns(na)] (up, down, total) =   2.88672  2.78806  5.67478
   spin  1
    eigenvalues: 
  0.956  0.965  0.966
    eigenvectors:
  0.196  0.804  0.000
  0.606  0.149  0.245
  0.198  0.047  0.755
    occupations:
  0.963  0.003  0.002
  0.003  0.960 -0.003
  0.002 -0.003  0.964
   spin  2
    eigenvalues: 
  0.906  0.941  0.941
    eigenvectors:
  0.322  0.674  0.005
  0.511  0.202  0.287
  0.168  0.124  0.708
    occupations:
  0.930  0.014  0.008
  0.014  0.923 -0.010
  0.008 -0.010  0.935
atomic mag. moment =     0.098660
atom   10   Tr[ns(na)] (up, down, total) =   2.88672  2.78806  5.67478
   spin  1
    eigenvalues: 
  0.956  0.965  0.966
    eigenvectors:
  0.196  0.804  0.000
  0.600  0.145  0.255
  0.204  0.051  0.745
    occupations:
  0.963 -0.003  0.002
 -0.003  0.960  0.003
  0.002  0.003  0.964
   spin  2
    eigenvalues: 
  0.906  0.941  0.941
    eigenvectors:
  0.322  0.674  0.005
  0.507  0.281  0.212
  0.172  0.046  0.783
    occupations:
  0.930 -0.014  0.008
 -0.014  0.923  0.011
  0.008  0.011  0.935
atomic mag. moment =     0.098660
N of occupied +U levels =  55.3103707
 --- exit write_ns ---
 --- in v_hubbard ---
Hubbard energy    0.0000
 -------

     total cpu time spent up to now is       72.5 secs

     total energy              =    -537.78421037 Ry
     Harris-Foulkes estimate   =    -537.77272527 Ry
     estimated scf accuracy    <       1.00284286 Ry

     total magnetization       =     8.00 Bohr mag/cell
     absolute magnetization    =     8.04 Bohr mag/cell

     iteration #  3     ecut=    30.00 Ry     beta=0.20
     Davidson diagonalization with overlap
     ethr =  1.32E-03,  avg # of iterations =  2.0
 --- enter write_ns ---
 LDA+U parameters:
U( 1)     =  0.00000000
alpha( 1) =  0.00000000
U( 2)     =  0.00000000
alpha( 2) =  0.00000000
U( 3)     =  0.00000000
alpha( 3) =  0.00000000
U( 4)     =  0.00000000
alpha( 4) =  0.00000000
atom    1   Tr[ns(na)] (up, down, total) =   4.96642  2.92210  7.88852
   spin  1
    eigenvalues: 
  0.991  0.991  0.995  0.995  0.995
    eigenvectors:
  0.000  0.000  0.000  0.000  1.000
  0.397  0.279  0.003  0.321  0.000
  0.279  0.397  0.321  0.003  0.000
  0.289  0.035  0.554  0.121  0.000
  0.035  0.289  0.121  0.554  0.000
    occupations:
  0.995  0.000  0.000  0.000  0.000
  0.000  0.992  0.000 -0.001  0.001
  0.000  0.000  0.992  0.001  0.001
  0.000 -0.001  0.001  0.993  0.000
  0.000  0.001  0.001  0.000  0.993
   spin  2
    eigenvalues: 
  0.470  0.470  0.660  0.660  0.663
    eigenvectors:
  0.000  0.000  0.000  0.000  1.000
  0.379  0.268  0.015  0.338  0.000
  0.268  0.379  0.338  0.015  0.000
  0.332  0.022  0.543  0.104  0.000
  0.022  0.332  0.104  0.543  0.000
    occupations:
  0.663  0.000  0.000  0.000  0.000
  0.000  0.537  0.000 -0.053  0.074
  0.000  0.000  0.537  0.074  0.053
  0.000 -0.053  0.074  0.593  0.000
  0.000  0.074  0.053  0.000  0.593
atomic mag. moment =     2.044328
atom    2   Tr[ns(na)] (up, down, total) =   4.96708  2.29751  7.26459
   spin  1
    eigenvalues: 
  0.991  0.991  0.995  0.995  0.995
    eigenvectors:
  0.000  0.000  0.000  0.000  1.000
  0.663  0.005  0.264  0.068  0.000
  0.005  0.663  0.068  0.264  0.000
  0.072  0.259  0.500  0.169  0.000
  0.259  0.072  0.169  0.500  0.000
    occupations:
  0.995  0.000  0.000  0.000  0.000
  0.000  0.992  0.000  0.001  0.002
  0.000  0.000  0.992  0.002 -0.001
  0.000  0.001  0.002  0.994  0.000
  0.000  0.002 -0.001  0.000  0.994
   spin  2
    eigenvalues: 
  0.437  0.437  0.474  0.474  0.475
    eigenvectors:
  0.000  0.000  0.000  0.000  1.000
  0.563  0.038  0.395  0.004  0.000
  0.038  0.563  0.004  0.395  0.000
  0.307  0.093  0.531  0.070  0.000
  0.093  0.307  0.070  0.531  0.000
    occupations:
  0.475  0.000  0.000  0.000  0.000
  0.000  0.452  0.000  0.017  0.004
  0.000  0.000  0.452  0.004 -0.017
  0.000  0.017  0.004  0.459  0.000
  0.000  0.004 -0.017  0.000  0.459
atomic mag. moment =     2.669575
atom    3   Tr[ns(na)] (up, down, total) =   1.91872  1.85136  3.77008
   spin  1
    eigenvalues: 
  0.356  0.356  0.389  0.408  0.408
    eigenvectors:
  0.000  0.000  1.000  0.000  0.000
  0.759  0.146  0.000  0.015  0.080
  0.146  0.759  0.000  0.080  0.015
  0.015  0.079  0.000  0.763  0.143
  0.079  0.015  0.000  0.143  0.763
    occupations:
  0.389  0.000  0.000  0.000  0.000
  0.000  0.361  0.000  0.000  0.015
  0.000  0.000  0.361  0.015  0.000
  0.000  0.000  0.015  0.403  0.000
  0.000  0.015  0.000  0.000  0.403
   spin  2
    eigenvalues: 
  0.342  0.342  0.379  0.394  0.394
    eigenvectors:
  0.000  0.000  1.000  0.000  0.000
  0.747  0.151  0.000  0.014  0.088
  0.151  0.747  0.000  0.088  0.014
  0.019  0.083  0.000  0.753  0.144
  0.083  0.019  0.000  0.144  0.753
    occupations:
  0.379  0.000  0.000  0.000  0.000
  0.000  0.347  0.000  0.000  0.016
  0.000  0.000  0.347  0.016  0.000
  0.000  0.000  0.016  0.389  0.000
  0.000  0.016  0.000  0.000  0.389
atomic mag. moment =     0.067363
atom    4   Tr[ns(na)] (up, down, total) =   1.91872  1.85136  3.77008
   spin  1
    eigenvalues: 
  0.356  0.356  0.389  0.408  0.408
    eigenvectors:
  0.000  0.000  1.000  0.000  0.000
  0.759  0.147  0.000  0.015  0.080
  0.147  0.759  0.000  0.080  0.015
  0.015  0.079  0.000  0.763  0.143
  0.079  0.015  0.000  0.143  0.763
    occupations:
  0.389  0.000  0.000  0.000  0.000
  0.000  0.361  0.000  0.000  0.015
  0.000  0.000  0.361  0.015  0.000
  0.000  0.000  0.015  0.403  0.000
  0.000  0.015  0.000  0.000  0.403
   spin  2
    eigenvalues: 
  0.342  0.342  0.379  0.394  0.394
    eigenvectors:
  0.000  0.000  1.000  0.000  0.000
  0.746  0.151  0.000  0.014  0.088
  0.151  0.746  0.000  0.088  0.014
  0.020  0.083  0.000  0.754  0.144
  0.083  0.020  0.000  0.144  0.754
    occupations:
  0.379  0.000  0.000  0.000  0.000
  0.000  0.347  0.000  0.000  0.016
  0.000  0.000  0.347  0.016  0.000
  0.000  0.000  0.016  0.389  0.000
  0.000  0.016  0.000  0.000  0.389
atomic mag. moment =     0.067363
atom    5   Tr[ns(na)] (up, down, total) =   2.82839  2.66018  5.48857
   spin  1
    eigenvalues: 
  0.927  0.950  0.951
    eigenvectors:
  0.316  0.684  0.000
  0.514  0.235  0.251
  0.171  0.081  0.749
    occupations:
  0.943  0.009  0.005
  0.009  0.939 -0.007
  0.005 -0.007  0.947
   spin  2
    eigenvalues: 
  0.855  0.901  0.904
    eigenvectors:
  0.342  0.657  0.001
  0.463  0.260  0.278
  0.195  0.083  0.721
    occupations:
  0.885  0.018  0.012
  0.018  0.881 -0.015
  0.012 -0.015  0.894
atomic mag. moment =     0.168212
atom    6   Tr[ns(na)] (up, down, total) =   2.82839  2.66018  5.48857
   spin  1
    eigenvalues: 
  0.927  0.950  0.951
    eigenvectors:
  0.316  0.684  0.000
  0.000  0.000  1.000
  0.684  0.316  0.000
    occupations:
  0.943  0.000 -0.011
  0.000  0.951  0.000
 -0.011  0.000  0.934
   spin  2
    eigenvalues: 
  0.855  0.901  0.904
    eigenvectors:
  0.342  0.657  0.001
  0.002  0.000  0.998
  0.656  0.343  0.001
    occupations:
  0.885  0.001 -0.022
  0.001  0.904  0.002
 -0.022  0.002  0.871
atomic mag. moment =     0.168212
atom    7   Tr[ns(na)] (up, down, total) =   2.82839  2.66018  5.48857
   spin  1
    eigenvalues: 
  0.927  0.950  0.951
    eigenvectors:
  0.316  0.684  0.000
  0.513  0.239  0.249
  0.171  0.077  0.751
    occupations:
  0.943 -0.009  0.005
 -0.009  0.939  0.007
  0.005  0.007  0.947
   spin  2
    eigenvalues: 
  0.855  0.901  0.904
    eigenvectors:
  0.342  0.657  0.001
  0.522  0.255  0.223
  0.136  0.088  0.776
    occupations:
  0.885 -0.019  0.010
 -0.019  0.878  0.014
  0.010  0.014  0.897
atomic mag. moment =     0.168212
atom    8   Tr[ns(na)] (up, down, total) =   2.82839  2.66018  5.48857
   spin  1
    eigenvalues: 
  0.927  0.950  0.951
    eigenvectors:
  0.316  0.684  0.000
  0.000  0.000  1.000
  0.684  0.316  0.000
    occupations:
  0.943  0.000 -0.011
  0.000  0.951  0.000
 -0.011  0.000  0.934
   spin  2
    eigenvalues: 
  0.855  0.901  0.904
    eigenvectors:
  0.342  0.657  0.001
  0.002  0.000  0.998
  0.656  0.343  0.001
    occupations:
  0.885  0.001 -0.022
  0.001  0.904  0.002
 -0.022  0.002  0.871
atomic mag. moment =     0.168212
atom    9   Tr[ns(na)] (up, down, total) =   2.82839  2.66018  5.48857
   spin  1
    eigenvalues: 
  0.927  0.950  0.951
    eigenvectors:
  0.316  0.684  0.000
  0.514  0.235  0.251
  0.171  0.081  0.749
    occupations:
  0.943  0.009  0.005
  0.009  0.939 -0.007
  0.005 -0.007  0.947
   spin  2
    eigenvalues: 
  0.855  0.901  0.904
    eigenvectors:
  0.342  0.657  0.001
  0.463  0.260  0.278
  0.195  0.083  0.721
    occupations:
  0.885  0.018  0.012
  0.018  0.881 -0.015
  0.012 -0.015  0.894
atomic mag. moment =     0.168212
atom   10   Tr[ns(na)] (up, down, total) =   2.82839  2.66018  5.48857
   spin  1
    eigenvalues: 
  0.927  0.950  0.951
    eigenvectors:
  0.316  0.684  0.000
  0.513  0.239  0.249
  0.171  0.077  0.751
    occupations:
  0.943 -0.009  0.005
 -0.009  0.939  0.007
  0.005  0.007  0.947
   spin  2
    eigenvalues: 
  0.855  0.901  0.904
    eigenvectors:
  0.342  0.657  0.001
  0.522  0.255  0.223
  0.136  0.088  0.776
    occupations:
  0.885 -0.019  0.010
 -0.019  0.878  0.014
  0.010  0.014  0.897
atomic mag. moment =     0.168212
N of occupied +U levels =  55.6246840
 --- exit write_ns ---
 --- in v_hubbard ---
Hubbard energy    0.0000
 -------

     total cpu time spent up to now is       96.5 secs

     total energy              =    -537.93552629 Ry
     Harris-Foulkes estimate   =    -537.90455215 Ry
     estimated scf accuracy    <       0.70854916 Ry

     total magnetization       =     7.54 Bohr mag/cell
     absolute magnetization    =     7.54 Bohr mag/cell

     iteration #  4     ecut=    30.00 Ry     beta=0.20
     Davidson diagonalization with overlap
     ethr =  9.32E-04,  avg # of iterations =  1.0
 --- enter write_ns ---
 LDA+U parameters:
U( 1)     =  0.00000000
alpha( 1) =  0.00000000
U( 2)     =  0.00000000
alpha( 2) =  0.00000000
U( 3)     =  0.00000000
alpha( 3) =  0.00000000
U( 4)     =  0.00000000
alpha( 4) =  0.00000000
atom    1   Tr[ns(na)] (up, down, total) =   4.95218  1.59564  6.54783
   spin  1
    eigenvalues: 
  0.981  0.981  0.997  0.997  0.997
    eigenvectors:
  0.000  0.000  0.000  0.000  1.000
  0.403  0.251  0.026  0.320  0.000
  0.251  0.403  0.320  0.026  0.000
  0.330  0.016  0.553  0.101  0.000
  0.016  0.330  0.101  0.553  0.000
    occupations:
  0.997  0.000  0.000  0.000  0.000
  0.000  0.986  0.000 -0.005  0.006
  0.000  0.000  0.986  0.006  0.005
  0.000 -0.005  0.006  0.991  0.000
  0.000  0.006  0.005  0.000  0.991
   spin  2
    eigenvalues: 
  0.267  0.267  0.278  0.391  0.391
    eigenvectors:
  0.000  0.000  1.000  0.000  0.000
  0.022  0.333  0.000  0.301  0.345
  0.333  0.022  0.000  0.345  0.301
  0.493  0.153  0.000  0.275  0.080
  0.153  0.493  0.000  0.080  0.275
    occupations:
  0.278  0.000  0.000  0.000  0.000
  0.000  0.347  0.000  0.015 -0.057
  0.000  0.000  0.347 -0.057 -0.015
  0.000  0.015 -0.057  0.311  0.000
  0.000 -0.057 -0.015  0.000  0.311
atomic mag. moment =     3.356540
atom    2   Tr[ns(na)] (up, down, total) =   4.96360  3.48050  8.44410
   spin  1
    eigenvalues: 
  0.989  0.989  0.995  0.995  0.995
    eigenvectors:
  0.000  0.000  0.000  0.000  1.000
  0.660  0.004  0.280  0.057  0.000
  0.004  0.660  0.057  0.280  0.000
  0.093  0.243  0.500  0.164  0.000
  0.243  0.093  0.164  0.500  0.000
    occupations:
  0.995  0.000  0.000  0.000  0.000
  0.000  0.991  0.000  0.002  0.002
  0.000  0.000  0.991  0.002 -0.002
  0.000  0.002  0.002  0.993  0.000
  0.000  0.002 -0.002  0.000  0.993
   spin  2
    eigenvalues: 
  0.476  0.476  0.842  0.842  0.844
    eigenvectors:
  0.000  0.000  0.000  0.000  1.000
  0.647  0.001  0.281  0.071  0.000
  0.001  0.647  0.071  0.281  0.000
  0.091  0.260  0.482  0.167  0.000
  0.260  0.091  0.167  0.482  0.000
    occupations:
  0.844  0.000  0.000  0.000  0.000
  0.000  0.605  0.000  0.095  0.147
  0.000  0.000  0.605  0.147 -0.095
  0.000  0.095  0.147  0.713  0.000
  0.000  0.147 -0.095  0.000  0.713
atomic mag. moment =     1.483106
atom    3   Tr[ns(na)] (up, down, total) =   1.91783  1.86577  3.78360
   spin  1
    eigenvalues: 
  0.356  0.356  0.389  0.408  0.408
    eigenvectors:
  0.000  0.000  1.000  0.000  0.000
  0.760  0.147  0.000  0.014  0.079
  0.147  0.760  0.000  0.079  0.014
  0.016  0.078  0.000  0.764  0.143
  0.078  0.016  0.000  0.143  0.764
    occupations:
  0.389  0.000  0.000  0.000  0.000
  0.000  0.361  0.000  0.000  0.015
  0.000  0.000  0.361  0.015  0.000
  0.000  0.000  0.015  0.403  0.000
  0.000  0.015  0.000  0.000  0.403
   spin  2
    eigenvalues: 
  0.345  0.345  0.381  0.397  0.397
    eigenvectors:
  0.000  0.000  1.000  0.000  0.000
  0.757  0.144  0.000  0.020  0.079
  0.144  0.757  0.000  0.079  0.020
  0.012  0.086  0.000  0.757  0.144
  0.086  0.012  0.000  0.144  0.757
    occupations:
  0.381  0.000  0.000  0.000  0.000
  0.000  0.350  0.000  0.001  0.016
  0.000  0.000  0.350  0.016 -0.001
  0.000  0.001  0.016  0.392  0.000
  0.000  0.016 -0.001  0.000  0.392
atomic mag. moment =     0.052060
atom    4   Tr[ns(na)] (up, down, total) =   1.91783  1.86577  3.78360
   spin  1
    eigenvalues: 
  0.356  0.356  0.389  0.408  0.408
    eigenvectors:
  0.000  0.000  1.000  0.000  0.000
  0.760  0.147  0.000  0.014  0.079
  0.147  0.760  0.000  0.079  0.014
  0.016  0.078  0.000  0.764  0.142
  0.078  0.016  0.000  0.142  0.764
    occupations:
  0.389  0.000  0.000  0.000  0.000
  0.000  0.361  0.000  0.000  0.015
  0.000  0.000  0.361  0.015  0.000
  0.000  0.000  0.015  0.403  0.000
  0.000  0.015  0.000  0.000  0.403
   spin  2
    eigenvalues: 
  0.345  0.345  0.381  0.397  0.397
    eigenvectors:
  0.000  0.000  1.000  0.000  0.000
  0.758  0.144  0.000  0.020  0.079
  0.144  0.758  0.000  0.079  0.020
  0.012  0.086  0.000  0.757  0.144
  0.086  0.012  0.000  0.144  0.757
    occupations:
  0.381  0.000  0.000  0.000  0.000
  0.000  0.350  0.000  0.001  0.016
  0.000  0.000  0.350  0.016 -0.001
  0.000  0.001  0.016  0.392  0.000
  0.000  0.016 -0.001  0.000  0.392
atomic mag. moment =     0.052060
atom    5   Tr[ns(na)] (up, down, total) =   2.81686  2.69366  5.51052
   spin  1
    eigenvalues: 
  0.915  0.950  0.951
    eigenvectors:
  0.333  0.666  0.001
  0.487  0.265  0.248
  0.180  0.069  0.751
    occupations:
  0.939  0.014  0.009
  0.014  0.933 -0.011
  0.009 -0.011  0.945
   spin  2
    eigenvalues: 
  0.862  0.915  0.916
    eigenvectors:
  0.334  0.656  0.010
  0.576  0.239  0.185
  0.090  0.105  0.805
    occupations:
  0.897  0.023  0.009
  0.023  0.885 -0.013
  0.009 -0.013  0.911
atomic mag. moment =     0.123200
atom    6   Tr[ns(na)] (up, down, total) =   2.81686  2.69366  5.51052
   spin  1
    eigenvalues: 
  0.915  0.950  0.951
    eigenvectors:
  0.333  0.666  0.001
  0.000  0.001  0.999
  0.667  0.333  0.000
    occupations:
  0.939  0.000 -0.017
  0.000  0.951  0.001
 -0.017  0.001  0.927
   spin  2
    eigenvalues: 
  0.862  0.915  0.916
    eigenvectors:
  0.334  0.656  0.010
  0.014  0.001  0.984
  0.652  0.342  0.006
    occupations:
  0.897 -0.004 -0.025
 -0.004  0.916 -0.005
 -0.025 -0.005  0.881
atomic mag. moment =     0.123200
atom    7   Tr[ns(na)] (up, down, total) =   2.81686  2.69366  5.51052
   spin  1
    eigenvalues: 
  0.915  0.950  0.951
    eigenvectors:
  0.333  0.666  0.001
  0.514  0.235  0.251
  0.154  0.099  0.748
    occupations:
  0.939 -0.015  0.008
 -0.015  0.933  0.010
  0.008  0.010  0.946
   spin  2
    eigenvalues: 
  0.862  0.915  0.916
    eigenvectors:
  0.334  0.656  0.010
  0.409  0.275  0.316
  0.258  0.068  0.674
    occupations:
  0.897 -0.019  0.016
 -0.019  0.894  0.018
  0.016  0.018  0.902
atomic mag. moment =     0.123200
atom    8   Tr[ns(na)] (up, down, total) =   2.81686  2.69366  5.51052
   spin  1
    eigenvalues: 
  0.915  0.950  0.951
    eigenvectors:
  0.333  0.666  0.001
  0.000  0.001  0.999
  0.667  0.333  0.000
    occupations:
  0.939  0.000 -0.017
  0.000  0.951  0.001
 -0.017  0.001  0.927
   spin  2
    eigenvalues: 
  0.862  0.915  0.916
    eigenvectors:
  0.334  0.656  0.010
  0.014  0.001  0.984
  0.652  0.342  0.006
    occupations:
  0.897 -0.004 -0.025
 -0.004  0.916 -0.005
 -0.025 -0.005  0.881
atomic mag. moment =     0.123200
atom    9   Tr[ns(na)] (up, down, total) =   2.81686  2.69366  5.51052
   spin  1
    eigenvalues: 
  0.915  0.950  0.951
    eigenvectors:
  0.333  0.666  0.001
  0.487  0.265  0.248
  0.180  0.069  0.751
    occupations:
  0.939  0.014  0.009
  0.014  0.933 -0.011
  0.009 -0.011  0.945
   spin  2
    eigenvalues: 
  0.862  0.915  0.916
    eigenvectors:
  0.334  0.656  0.010
  0.576  0.239  0.185
  0.090  0.105  0.805
    occupations:
  0.897  0.023  0.009
  0.023  0.885 -0.013
  0.009 -0.013  0.911
atomic mag. moment =     0.123200
atom   10   Tr[ns(na)] (up, down, total) =   2.81686  2.69366  5.51052
   spin  1
    eigenvalues: 
  0.915  0.950  0.951
    eigenvectors:
  0.333  0.666  0.001
  0.514  0.235  0.251
  0.154  0.099  0.748
    occupations:
  0.939 -0.015  0.008
 -0.015  0.933  0.010
  0.008  0.010  0.946
   spin  2
    eigenvalues: 
  0.862  0.915  0.916
    eigenvectors:
  0.334  0.656  0.010
  0.409  0.275  0.316
  0.258  0.068  0.674
    occupations:
  0.897 -0.019  0.016
 -0.019  0.894  0.018
  0.016  0.018  0.902
atomic mag. moment =     0.123200
N of occupied +U levels =  55.6222289
 --- exit write_ns ---

     negative rho (up, down):  0.000E+00 0.616E-05
 --- in v_hubbard ---
Hubbard energy    0.0000
 -------

     total cpu time spent up to now is      120.6 secs

     total energy              =    -538.06863766 Ry
     Harris-Foulkes estimate   =    -538.04680702 Ry
     estimated scf accuracy    <       2.01758008 Ry

     total magnetization       =     7.20 Bohr mag/cell
     absolute magnetization    =     7.20 Bohr mag/cell

     iteration #  5     ecut=    30.00 Ry     beta=0.20
     Davidson diagonalization with overlap
     ethr =  9.32E-04,  avg # of iterations =  1.0
 --- enter write_ns ---
 LDA+U parameters:
U( 1)     =  0.00000000
alpha( 1) =  0.00000000
U( 2)     =  0.00000000
alpha( 2) =  0.00000000
U( 3)     =  0.00000000
alpha( 3) =  0.00000000
U( 4)     =  0.00000000
alpha( 4) =  0.00000000
atom    1   Tr[ns(na)] (up, down, total) =   4.96816  2.34251  7.31066
   spin  1
    eigenvalues: 
  0.988  0.988  0.998  0.998  0.998
    eigenvectors:
  0.000  0.000  0.000  0.000  1.000
  0.406  0.251  0.025  0.318  0.000
  0.251  0.406  0.318  0.025  0.000
  0.326  0.017  0.555  0.102  0.000
  0.017  0.326  0.102  0.555  0.000
    occupations:
  0.998  0.000  0.000  0.000  0.000
  0.000  0.991  0.000 -0.003  0.004
  0.000  0.000  0.991  0.004  0.003
  0.000 -0.003  0.004  0.994  0.000
  0.000  0.004  0.003  0.000  0.994
   spin  2
    eigenvalues: 
  0.404  0.404  0.509  0.509  0.516
    eigenvectors:
  0.000  0.000  0.000  0.000  1.000
  0.429  0.215  0.065  0.291  0.000
  0.215  0.429  0.291  0.065  0.000
  0.350  0.007  0.558  0.086  0.000
  0.007  0.350  0.086  0.558  0.000
    occupations:
  0.516  0.000  0.000  0.000  0.000
  0.000  0.442  0.000 -0.036  0.034
  0.000  0.000  0.442  0.034  0.036
  0.000 -0.036  0.034  0.472  0.000
  0.000  0.034  0.036  0.000  0.472
atomic mag. moment =     2.625648
atom    2   Tr[ns(na)] (up, down, total) =   4.96909  2.49837  7.46746
   spin  1
    eigenvalues: 
  0.988  0.988  0.997  0.997  0.998
    eigenvectors:
  0.000  0.000  0.000  0.000  1.000
  0.655  0.003  0.295  0.047  0.000
  0.003  0.655  0.047  0.295  0.000
  0.113  0.229  0.499  0.159  0.000
  0.229  0.113  0.159  0.499  0.000
    occupations:
  0.998  0.000  0.000  0.000  0.000
  0.000  0.991  0.000  0.003  0.003
  0.000  0.000  0.991  0.003 -0.003
  0.000  0.003  0.003  0.994  0.000
  0.000  0.003 -0.003  0.000  0.994
   spin  2
    eigenvalues: 
  0.405  0.405  0.560  0.560  0.567
    eigenvectors:
  0.000  0.000  0.000  0.000  1.000
  0.646  0.001  0.311  0.042  0.000
  0.001  0.646  0.042  0.311  0.000
  0.140  0.213  0.499  0.148  0.000
  0.213  0.140  0.148  0.499  0.000
    occupations:
  0.567  0.000  0.000  0.000  0.000
  0.000  0.460  0.000  0.049  0.056
  0.000  0.000  0.460  0.056 -0.049
  0.000  0.049  0.056  0.506  0.000
  0.000  0.056 -0.049  0.000  0.506
atomic mag. moment =     2.470723
atom    3   Tr[ns(na)] (up, down, total) =   1.92029  1.87685  3.79714
   spin  1
    eigenvalues: 
  0.356  0.356  0.389  0.409  0.409
    eigenvectors:
  0.000  0.000  1.000  0.000  0.000
  0.764  0.145  0.000  0.014  0.077
  0.145  0.764  0.000  0.077  0.014
  0.015  0.076  0.000  0.767  0.142
  0.076  0.015  0.000  0.142  0.767
    occupations:
  0.389  0.000  0.000  0.000  0.000
  0.000  0.361  0.000  0.000  0.015
  0.000  0.000  0.361  0.015  0.000
  0.000  0.000  0.015  0.404  0.000
  0.000  0.015  0.000  0.000  0.404
   spin  2
    eigenvalues: 
  0.346  0.346  0.384  0.400  0.400
    eigenvectors:
  0.000  0.000  1.000  0.000  0.000
  0.752  0.148  0.000  0.016  0.084
  0.148  0.752  0.000  0.084  0.016
  0.016  0.084  0.000  0.755  0.144
  0.084  0.016  0.000  0.144  0.755
    occupations:
  0.384  0.000  0.000  0.000  0.000
  0.000  0.352  0.000  0.000  0.016
  0.000  0.000  0.352  0.016  0.000
  0.000  0.000  0.016  0.395  0.000
  0.000  0.016  0.000  0.000  0.395
atomic mag. moment =     0.043444
atom    4   Tr[ns(na)] (up, down, total) =   1.92029  1.87685  3.79714
   spin  1
    eigenvalues: 
  0.356  0.356  0.389  0.409  0.409
    eigenvectors:
  0.000  0.000  1.000  0.000  0.000
  0.764  0.145  0.000  0.014  0.077
  0.145  0.764  0.000  0.077  0.014
  0.015  0.076  0.000  0.767  0.142
  0.076  0.015  0.000  0.142  0.767
    occupations:
  0.389  0.000  0.000  0.000  0.000
  0.000  0.361  0.000  0.000  0.015
  0.000  0.000  0.361  0.015  0.000
  0.000  0.000  0.015  0.404  0.000
  0.000  0.015  0.000  0.000  0.404
   spin  2
    eigenvalues: 
  0.346  0.346  0.384  0.400  0.400
    eigenvectors:
  0.000  0.000  1.000  0.000  0.000
  0.752  0.148  0.000  0.016  0.084
  0.148  0.752  0.000  0.084  0.016
  0.016  0.084  0.000  0.755  0.144
  0.084  0.016  0.000  0.144  0.755
    occupations:
  0.384  0.000  0.000  0.000  0.000
  0.000  0.352  0.000  0.000  0.016
  0.000  0.000  0.352  0.016  0.000
  0.000  0.000  0.016  0.395  0.000
  0.000  0.016  0.000  0.000  0.395
atomic mag. moment =     0.043444
atom    5   Tr[ns(na)] (up, down, total) =   2.83892  2.70611  5.54503
   spin  1
    eigenvalues: 
  0.935  0.951  0.953
    eigenvectors:
  0.284  0.716  0.000
  0.535  0.215  0.250
  0.181  0.069  0.750
    occupations:
  0.947  0.007  0.004
  0.007  0.943 -0.006
  0.004 -0.006  0.949
   spin  2
    eigenvalues: 
  0.876  0.914  0.916
    eigenvectors:
  0.330  0.670  0.000
  0.510  0.243  0.248
  0.160  0.088  0.752
    occupations:
  0.901  0.016  0.009
  0.016  0.895 -0.012
  0.009 -0.012  0.909
atomic mag. moment =     0.132807
atom    6   Tr[ns(na)] (up, down, total) =   2.83892  2.70611  5.54503
   spin  1
    eigenvalues: 
  0.935  0.951  0.953
    eigenvectors:
  0.284  0.716  0.000
  0.000  0.000  1.000
  0.716  0.284  0.000
    occupations:
  0.947  0.000 -0.008
  0.000  0.953  0.000
 -0.008  0.000  0.939
   spin  2
    eigenvalues: 
  0.876  0.914  0.916
    eigenvectors:
  0.330  0.670  0.000
  0.000  0.000  1.000
  0.670  0.330  0.000
    occupations:
  0.901  0.000 -0.018
  0.000  0.916  0.000
 -0.018  0.000  0.889
atomic mag. moment =     0.132807
atom    7   Tr[ns(na)] (up, down, total) =   2.83892  2.70611  5.54503
   spin  1
    eigenvalues: 
  0.935  0.951  0.953
    eigenvectors:
  0.284  0.716  0.000
  0.539  0.211  0.250
  0.177  0.073  0.750
    occupations:
  0.947 -0.007  0.004
 -0.007  0.943  0.006
  0.004  0.006  0.950
   spin  2
    eigenvalues: 
  0.876  0.914  0.916
    eigenvectors:
  0.330  0.670  0.000
  0.495  0.253  0.252
  0.175  0.078  0.748
    occupations:
  0.901 -0.015  0.009
 -0.015  0.896  0.012
  0.009  0.012  0.909
atomic mag. moment =     0.132807
atom    8   Tr[ns(na)] (up, down, total) =   2.83892  2.70611  5.54503
   spin  1
    eigenvalues: 
  0.935  0.951  0.953
    eigenvectors:
  0.284  0.716  0.000
  0.000  0.000  1.000
  0.716  0.284  0.000
    occupations:
  0.947  0.000 -0.008
  0.000  0.953  0.000
 -0.008  0.000  0.939
   spin  2
    eigenvalues: 
  0.876  0.914  0.916
    eigenvectors:
  0.330  0.670  0.000
  0.000  0.000  1.000
  0.670  0.330  0.000
    occupations:
  0.901  0.000 -0.018
  0.000  0.916  0.000
 -0.018  0.000  0.889
atomic mag. moment =     0.132807
atom    9   Tr[ns(na)] (up, down, total) =   2.83892  2.70611  5.54503
   spin  1
    eigenvalues: 
  0.935  0.951  0.953
    eigenvectors:
  0.284  0.716  0.000
  0.535  0.215  0.250
  0.181  0.069  0.750
    occupations:
  0.947  0.007  0.004
  0.007  0.943 -0.006
  0.004 -0.006  0.949
   spin  2
    eigenvalues: 
  0.876  0.914  0.916
    eigenvectors:
  0.330  0.670  0.000
  0.510  0.243  0.248
  0.160  0.088  0.752
    occupations:
  0.901  0.016  0.009
  0.016  0.895 -0.012
  0.009 -0.012  0.909
atomic mag. moment =     0.132807
atom   10   Tr[ns(na)] (up, down, total) =   2.83892  2.70611  5.54503
   spin  1
    eigenvalues: 
  0.935  0.951  0.953
    eigenvectors:
  0.284  0.716  0.000
  0.539  0.211  0.250
  0.177  0.073  0.750
    occupations:
  0.947 -0.007  0.004
 -0.007  0.943  0.006
  0.004  0.006  0.950
   spin  2
    eigenvalues: 
  0.876  0.914  0.916
    eigenvectors:
  0.330  0.670  0.000
  0.495  0.253  0.252
  0.175  0.078  0.748
    occupations:
  0.901 -0.015  0.009
 -0.015  0.896  0.012
  0.009  0.012  0.909
atomic mag. moment =     0.132807
N of occupied +U levels =  55.6425723
 --- exit write_ns ---

     negative rho (up, down):  0.000E+00 0.123E-03
 --- in v_hubbard ---
Hubbard energy    0.0000
 -------

     total cpu time spent up to now is      143.3 secs

     total energy              =    -538.23536830 Ry
     Harris-Foulkes estimate   =    -538.11501773 Ry
     estimated scf accuracy    <       0.20502951 Ry

     total magnetization       =     7.53 Bohr mag/cell
     absolute magnetization    =     7.53 Bohr mag/cell

     iteration #  6     ecut=    30.00 Ry     beta=0.20
     Davidson diagonalization with overlap
     ethr =  2.70E-04,  avg # of iterations =  2.1
 --- enter write_ns ---
 LDA+U parameters:
U( 1)     =  0.00000000
alpha( 1) =  0.00000000
U( 2)     =  0.00000000
alpha( 2) =  0.00000000
U( 3)     =  0.00000000
alpha( 3) =  0.00000000
U( 4)     =  0.00000000
alpha( 4) =  0.00000000
atom    1   Tr[ns(na)] (up, down, total) =   4.86609  3.34540  8.21149
   spin  1
    eigenvalues: 
  0.936  0.936  0.998  0.998  0.998
    eigenvectors:
  0.000  0.000  0.000  0.000  1.000
  0.401  0.248  0.031  0.320  0.000
  0.248  0.401  0.320  0.031  0.000
  0.337  0.014  0.552  0.097  0.000
  0.014  0.337  0.097  0.552  0.000
    occupations:
  0.998  0.000  0.000  0.000  0.000
  0.000  0.958  0.000 -0.019  0.023
  0.000  0.000  0.958  0.023  0.019
  0.000 -0.019  0.023  0.976  0.000
  0.000  0.023  0.019  0.000  0.976
   spin  2
    eigenvalues: 
  0.494  0.494  0.777  0.790  0.790
    eigenvectors:
  0.000  0.000  1.000  0.000  0.000
  0.361  0.292  0.000  0.002  0.345
  0.292  0.361  0.000  0.345  0.002
  0.314  0.033  0.000  0.534  0.119
  0.033  0.314  0.000  0.119  0.534
    occupations:
  0.777  0.000  0.000  0.000  0.000
  0.000  0.597  0.000 -0.070  0.122
  0.000  0.000  0.597  0.122  0.070
  0.000 -0.070  0.122  0.687  0.000
  0.000  0.122  0.070  0.000  0.687
atomic mag. moment =     1.520694
atom    2   Tr[ns(na)] (up, down, total) =   4.84851  2.95435  7.80286
   spin  1
    eigenvalues: 
  0.927  0.927  0.998  0.998  0.998
    eigenvectors:
  0.000  0.000  0.000  0.000  1.000
  0.647  0.002  0.307  0.044  0.000
  0.002  0.647  0.044  0.307  0.000
  0.125  0.226  0.492  0.157  0.000
  0.226  0.125  0.157  0.492  0.000
    occupations:
  0.998  0.000  0.000  0.000  0.000
  0.000  0.952  0.000  0.022  0.026
  0.000  0.000  0.952  0.026 -0.022
  0.000  0.022  0.026  0.973  0.000
  0.000  0.026 -0.022  0.000  0.973
   spin  2
    eigenvalues: 
  0.474  0.474  0.661  0.673  0.673
    eigenvectors:
  0.000  0.000  1.000  0.000  0.000
  0.654  0.001  0.000  0.267  0.078
  0.001  0.654  0.000  0.078  0.267
  0.080  0.265  0.000  0.488  0.167
  0.265  0.080  0.000  0.167  0.488
    occupations:
  0.661  0.000  0.000  0.000  0.000
  0.000  0.542  0.000  0.049  0.081
  0.000  0.000  0.542  0.081 -0.049
  0.000  0.049  0.081  0.604  0.000
  0.000  0.081 -0.049  0.000  0.604
atomic mag. moment =     1.894157
atom    3   Tr[ns(na)] (up, down, total) =   1.96066  1.94854  3.90920
   spin  1
    eigenvalues: 
  0.367  0.367  0.396  0.415  0.415
    eigenvectors:
  0.000  0.000  1.000  0.000  0.000
  0.795  0.134  0.000  0.010  0.060
  0.134  0.795  0.000  0.060  0.010
  0.011  0.060  0.000  0.791  0.138
  0.060  0.011  0.000  0.138  0.791
    occupations:
  0.396  0.000  0.000  0.000  0.000
  0.000  0.370  0.000  0.000  0.012
  0.000  0.000  0.370  0.012  0.000
  0.000  0.000  0.012  0.412  0.000
  0.000  0.012  0.000  0.000  0.412
   spin  2
    eigenvalues: 
  0.363  0.363  0.397  0.413  0.413
    eigenvectors:
  0.000  0.000  1.000  0.000  0.000
  0.769  0.144  0.000  0.011  0.076
  0.144  0.769  0.000  0.076  0.011
  0.016  0.071  0.000  0.771  0.143
  0.071  0.016  0.000  0.143  0.771
    occupations:
  0.397  0.000  0.000  0.000  0.000
  0.000  0.367  0.000 -0.001  0.014
  0.000  0.000  0.367  0.014  0.001
  0.000 -0.001  0.014  0.409  0.000
  0.000  0.014  0.001  0.000  0.409
atomic mag. moment =     0.012124
atom    4   Tr[ns(na)] (up, down, total) =   1.96066  1.94854  3.90920
   spin  1
    eigenvalues: 
  0.367  0.367  0.396  0.415  0.415
    eigenvectors:
  0.000  0.000  1.000  0.000  0.000
  0.795  0.134  0.000  0.010  0.060
  0.134  0.795  0.000  0.060  0.010
  0.011  0.060  0.000  0.791  0.138
  0.060  0.011  0.000  0.138  0.791
    occupations:
  0.396  0.000  0.000  0.000  0.000
  0.000  0.370  0.000  0.000  0.012
  0.000  0.000  0.370  0.012  0.000
  0.000  0.000  0.012  0.412  0.000
  0.000  0.012  0.000  0.000  0.412
   spin  2
    eigenvalues: 
  0.363  0.363  0.397  0.413  0.413
    eigenvectors:
  0.000  0.000  1.000  0.000  0.000
  0.769  0.144  0.000  0.011  0.076
  0.144  0.769  0.000  0.076  0.011
  0.016  0.071  0.000  0.771  0.142
  0.071  0.016  0.000  0.142  0.771
    occupations:
  0.397  0.000  0.000  0.000  0.000
  0.000  0.367  0.000 -0.001  0.014
  0.000  0.000  0.367  0.014  0.001
  0.000 -0.001  0.014  0.409  0.000
  0.000  0.014  0.001  0.000  0.409
atomic mag. moment =     0.012124
atom    5   Tr[ns(na)] (up, down, total) =   2.73697  2.63326  5.37023
   spin  1
    eigenvalues: 
  0.849  0.943  0.945
    eigenvectors:
  0.355  0.000  0.645
  0.488  0.247  0.265
  0.157  0.753  0.090
    occupations:
  0.911  0.040  0.023
  0.040  0.898 -0.026
  0.023 -0.026  0.928
   spin  2
    eigenvalues: 
  0.842  0.894  0.897
    eigenvectors:
  0.344  0.656  0.001
  0.470  0.262  0.269
  0.187  0.082  0.731
    occupations:
  0.876  0.021  0.013
  0.021  0.870 -0.017
  0.013 -0.017  0.887
atomic mag. moment =     0.103706
atom    6   Tr[ns(na)] (up, down, total) =   2.73697  2.63326  5.37023
   spin  1
    eigenvalues: 
  0.849  0.943  0.945
    eigenvectors:
  0.355  0.000  0.645
  0.000  1.000  0.000
  0.645  0.000  0.355
    occupations:
  0.911  0.000 -0.046
  0.000  0.943  0.000
 -0.046  0.000  0.883
   spin  2
    eigenvalues: 
  0.842  0.894  0.897
    eigenvectors:
  0.344  0.656  0.001
  0.001  0.000  0.999
  0.655  0.344  0.000
    occupations:
  0.876  0.001 -0.025
  0.001  0.897  0.001
 -0.025  0.001  0.860
atomic mag. moment =     0.103706
atom    7   Tr[ns(na)] (up, down, total) =   2.73697  2.63326  5.37023
   spin  1
    eigenvalues: 
  0.849  0.943  0.945
    eigenvectors:
  0.355  0.000  0.645
  0.480  0.253  0.267
  0.165  0.747  0.088
    occupations:
  0.911 -0.040  0.023
 -0.040  0.898  0.026
  0.023  0.026  0.928
   spin  2
    eigenvalues: 
  0.842  0.894  0.897
    eigenvectors:
  0.344  0.656  0.001
  0.514  0.254  0.232
  0.142  0.090  0.768
    occupations:
  0.876 -0.022  0.011
 -0.022  0.868  0.015
  0.011  0.015  0.889
atomic mag. moment =     0.103706
atom    8   Tr[ns(na)] (up, down, total) =   2.73697  2.63326  5.37023
   spin  1
    eigenvalues: 
  0.849  0.943  0.945
    eigenvectors:
  0.355  0.000  0.645
  0.000  1.000  0.000
  0.645  0.000  0.355
    occupations:
  0.911  0.000 -0.046
  0.000  0.943  0.000
 -0.046  0.000  0.883
   spin  2
    eigenvalues: 
  0.842  0.894  0.897
    eigenvectors:
  0.344  0.656  0.001
  0.001  0.000  0.999
  0.655  0.344  0.000
    occupations:
  0.876  0.001 -0.025
  0.001  0.897  0.001
 -0.025  0.001  0.860
atomic mag. moment =     0.103706
atom    9   Tr[ns(na)] (up, down, total) =   2.73697  2.63326  5.37023
   spin  1
    eigenvalues: 
  0.849  0.943  0.945
    eigenvectors:
  0.355  0.000  0.645
  0.488  0.247  0.265
  0.157  0.753  0.090
    occupations:
  0.911  0.040  0.023
  0.040  0.898 -0.026
  0.023 -0.026  0.928
   spin  2
    eigenvalues: 
  0.842  0.894  0.897
    eigenvectors:
  0.344  0.656  0.001
  0.470  0.262  0.269
  0.187  0.082  0.731
    occupations:
  0.876  0.021  0.013
  0.021  0.870 -0.017
  0.013 -0.017  0.887
atomic mag. moment =     0.103706
atom   10   Tr[ns(na)] (up, down, total) =   2.73697  2.63326  5.37023
   spin  1
    eigenvalues: 
  0.849  0.943  0.945
    eigenvectors:
  0.355  0.000  0.645
  0.480  0.253  0.267
  0.165  0.747  0.088
    occupations:
  0.911 -0.040  0.023
 -0.040  0.898  0.026
  0.023  0.026  0.928
   spin  2
    eigenvalues: 
  0.842  0.894  0.897
    eigenvectors:
  0.344  0.656  0.001
  0.514  0.254  0.232
  0.142  0.090  0.768
    occupations:
  0.876 -0.022  0.011
 -0.022  0.868  0.015
  0.011  0.015  0.889
atomic mag. moment =     0.103706
N of occupied +U levels =  56.0541112
 --- exit write_ns ---

     negative rho (up, down):  0.000E+00 0.750E-04
 --- in v_hubbard ---
Hubbard energy    0.0000
 -------

     total cpu time spent up to now is      169.1 secs

     total energy              =    -538.33373542 Ry
     Harris-Foulkes estimate   =    -538.33337054 Ry
     estimated scf accuracy    <       0.33918582 Ry

     total magnetization       =     5.15 Bohr mag/cell
     absolute magnetization    =     5.22 Bohr mag/cell

     iteration #  7     ecut=    30.00 Ry     beta=0.20
     Davidson diagonalization with overlap
     ethr =  2.70E-04,  avg # of iterations =  1.0
 --- enter write_ns ---
 LDA+U parameters:
U( 1)     =  0.00000000
alpha( 1) =  0.00000000
U( 2)     =  0.00000000
alpha( 2) =  0.00000000
U( 3)     =  0.00000000
alpha( 3) =  0.00000000
U( 4)     =  0.00000000
alpha( 4) =  0.00000000
atom    1   Tr[ns(na)] (up, down, total) =   4.84482  3.27341  8.11823
   spin  1
    eigenvalues: 
  0.925  0.925  0.998  0.998  0.999
    eigenvectors:
  0.000  0.000  0.000  0.000  1.000
  0.403  0.246  0.033  0.318  0.000
  0.246  0.403  0.318  0.033  0.000
  0.337  0.014  0.552  0.097  0.000
  0.014  0.337  0.097  0.552  0.000
    occupations:
  0.999  0.000  0.000  0.000  0.000
  0.000  0.951  0.000 -0.023  0.027
  0.000  0.000  0.951  0.027  0.023
  0.000 -0.023  0.027  0.973  0.000
  0.000  0.027  0.023  0.000  0.973
   spin  2
    eigenvalues: 
  0.478  0.478  0.764  0.776  0.776
    eigenvectors:
  0.000  0.000  1.000  0.000  0.000
  0.363  0.290  0.000  0.003  0.344
  0.290  0.363  0.000  0.344  0.003
  0.314  0.033  0.000  0.535  0.118
  0.033  0.314  0.000  0.118  0.535
    occupations:
  0.764  0.000  0.000  0.000  0.000
  0.000  0.582  0.000 -0.072  0.123
  0.000  0.000  0.582  0.123  0.072
  0.000 -0.072  0.123  0.673  0.000
  0.000  0.123  0.072  0.000  0.673
atomic mag. moment =     1.571413
atom    2   Tr[ns(na)] (up, down, total) =   4.82777  2.94221  7.76998
   spin  1
    eigenvalues: 
  0.916  0.916  0.999  0.999  0.999
    eigenvectors:
  0.000  0.000  0.000  0.000  1.000
  0.647  0.002  0.308  0.043  0.000
  0.002  0.647  0.043  0.308  0.000
  0.127  0.224  0.492  0.157  0.000
  0.224  0.127  0.157  0.492  0.000
    occupations:
  0.999  0.000  0.000  0.000  0.000
  0.000  0.945  0.000  0.025  0.030
  0.000  0.000  0.945  0.030 -0.025
  0.000  0.025  0.030  0.970  0.000
  0.000  0.030 -0.025  0.000  0.970
   spin  2
    eigenvalues: 
  0.461  0.461  0.665  0.677  0.677
    eigenvectors:
  0.000  0.000  1.000  0.000  0.000
  0.653  0.001  0.000  0.267  0.078
  0.001  0.653  0.000  0.078  0.267
  0.081  0.265  0.000  0.488  0.167
  0.265  0.081  0.000  0.167  0.488
    occupations:
  0.665  0.000  0.000  0.000  0.000
  0.000  0.536  0.000  0.054  0.088
  0.000  0.000  0.536  0.088 -0.054
  0.000  0.054  0.088  0.603  0.000
  0.000  0.088 -0.054  0.000  0.603
atomic mag. moment =     1.885560
atom    3   Tr[ns(na)] (up, down, total) =   1.95583  1.94750  3.90334
   spin  1
    eigenvalues: 
  0.365  0.365  0.395  0.415  0.415
    eigenvectors:
  0.000  0.000  1.000  0.000  0.000
  0.791  0.136  0.000  0.011  0.062
  0.136  0.791  0.000  0.062  0.011
  0.011  0.062  0.000  0.788  0.139
  0.062  0.011  0.000  0.139  0.788
    occupations:
  0.395  0.000  0.000  0.000  0.000
  0.000  0.369  0.000  0.000  0.013
  0.000  0.000  0.369  0.013  0.000
  0.000  0.000  0.013  0.411  0.000
  0.000  0.013  0.000  0.000  0.411
   spin  2
    eigenvalues: 
  0.362  0.362  0.397  0.413  0.413
    eigenvectors:
  0.000  0.000  1.000  0.000  0.000
  0.767  0.145  0.000  0.012  0.077
  0.145  0.767  0.000  0.077  0.012
  0.016  0.073  0.000  0.768  0.143
  0.073  0.016  0.000  0.143  0.768
    occupations:
  0.397  0.000  0.000  0.000  0.000
  0.000  0.366  0.000  0.000  0.015
  0.000  0.000  0.366  0.015  0.000
  0.000  0.000  0.015  0.409  0.000
  0.000  0.015  0.000  0.000  0.409
atomic mag. moment =     0.008333
atom    4   Tr[ns(na)] (up, down, total) =   1.95583  1.94750  3.90334
   spin  1
    eigenvalues: 
  0.365  0.365  0.395  0.415  0.415
    eigenvectors:
  0.000  0.000  1.000  0.000  0.000
  0.792  0.135  0.000  0.011  0.062
  0.135  0.792  0.000  0.062  0.011
  0.011  0.062  0.000  0.788  0.139
  0.062  0.011  0.000  0.139  0.788
    occupations:
  0.395  0.000  0.000  0.000  0.000
  0.000  0.369  0.000  0.000  0.013
  0.000  0.000  0.369  0.013  0.000
  0.000  0.000  0.013  0.411  0.000
  0.000  0.013  0.000  0.000  0.411
   spin  2
    eigenvalues: 
  0.362  0.362  0.397  0.413  0.413
    eigenvectors:
  0.000  0.000  1.000  0.000  0.000
  0.767  0.144  0.000  0.012  0.077
  0.144  0.767  0.000  0.077  0.012
  0.016  0.073  0.000  0.768  0.143
  0.073  0.016  0.000  0.143  0.768
    occupations:
  0.397  0.000  0.000  0.000  0.000
  0.000  0.366  0.000  0.000  0.015
  0.000  0.000  0.366  0.015  0.000
  0.000  0.000  0.015  0.409  0.000
  0.000  0.015  0.000  0.000  0.409
atomic mag. moment =     0.008333
atom    5   Tr[ns(na)] (up, down, total) =   2.74463  2.64980  5.39443
   spin  1
    eigenvalues: 
  0.854  0.944  0.946
    eigenvectors:
  0.351  0.000  0.649
  0.491  0.248  0.262
  0.159  0.752  0.089
    occupations:
  0.914  0.038  0.022
  0.038  0.901 -0.025
  0.022 -0.025  0.930
   spin  2
    eigenvalues: 
  0.848  0.899  0.902
    eigenvectors:
  0.339  0.660  0.001
  0.477  0.260  0.263
  0.184  0.080  0.737
    occupations:
  0.882  0.020  0.013
  0.020  0.876 -0.016
  0.013 -0.016  0.892
atomic mag. moment =     0.094830
atom    6   Tr[ns(na)] (up, down, total) =   2.74463  2.64980  5.39443
   spin  1
    eigenvalues: 
  0.854  0.944  0.946
    eigenvectors:
  0.351  0.000  0.649
  0.000  1.000  0.000
  0.649  0.000  0.351
    occupations:
  0.914  0.000 -0.044
  0.000  0.944  0.000
 -0.044  0.000  0.886
   spin  2
    eigenvalues: 
  0.848  0.899  0.902
    eigenvectors:
  0.339  0.660  0.001
  0.001  0.000  0.999
  0.660  0.340  0.000
    occupations:
  0.882  0.001 -0.024
  0.001  0.902  0.001
 -0.024  0.001  0.866
atomic mag. moment =     0.094830
atom    7   Tr[ns(na)] (up, down, total) =   2.74463  2.64980  5.39443
   spin  1
    eigenvalues: 
  0.854  0.944  0.946
    eigenvectors:
  0.351  0.000  0.649
  0.484  0.252  0.264
  0.166  0.748  0.086
    occupations:
  0.914 -0.038  0.022
 -0.038  0.901  0.025
  0.022  0.025  0.930
   spin  2
    eigenvalues: 
  0.848  0.899  0.902
    eigenvectors:
  0.339  0.660  0.001
  0.513  0.249  0.237
  0.148  0.090  0.762
    occupations:
  0.882 -0.021  0.011
 -0.021  0.874  0.015
  0.011  0.015  0.894
atomic mag. moment =     0.094830
atom    8   Tr[ns(na)] (up, down, total) =   2.74463  2.64980  5.39443
   spin  1
    eigenvalues: 
  0.854  0.944  0.946
[...]

          k = 0.4942-0.5706-0.2053 (  2206 PWs)   bands (ev):

   -19.6636 -19.6636  -6.8567  -6.8365  -6.0004  -5.9994  -5.3810  -5.3749
    -3.1102  -3.1093  -2.7677  -2.7663  -2.3426  -2.3392   5.9474   5.9482
     6.8393   6.8443   6.9232   6.9264   7.3720   7.3731   7.9316   7.9578
     8.7701   8.7727   8.8954   8.8998   9.4968   9.5007   9.9932   9.9972
    10.6802  10.6962  10.8132  10.8264  11.0817  11.0983  11.4427  11.4529
    13.3044  13.3062  17.4412  17.4421  17.8894  17.8922

     occupation numbers 
     0.0938   0.0938   0.0938   0.0938   0.0938   0.0938   0.0938   0.0938
     0.0938   0.0938   0.0938   0.0938   0.0938   0.0938   0.0938   0.0938
     0.0938   0.0938   0.0938   0.0938   0.0938   0.0938   0.0938   0.0938
     0.0938   0.0938   0.0938   0.0938   0.0938   0.0938   0.0937   0.0937
     0.0937   0.0937   0.0937   0.0937   0.0937   0.0937   0.0936   0.0936
     0.0000   0.0000   0.0000   0.0000   0.0000   0.0000

          k = 0.0000 0.0000-0.6160 (  2186 PWs)   bands (ev):

   -19.6663 -19.6651  -6.4872  -6.4684  -5.9011  -5.9011  -5.8847  -5.8847
    -2.8420  -2.8420  -2.8406  -2.8406  -2.6702  -2.6699   6.2916   6.2973
     6.9595   6.9595   6.9718   6.9718   7.6946   7.7159   7.8830   7.8830
     7.9010   7.9010   9.5707   9.5707   9.5775   9.5775   9.6942   9.7038
    10.7609  10.8069  10.9257  10.9257  10.9631  10.9631  12.5098  12.5098
    12.5236  12.5236  17.1270  17.1270  17.1308  17.1308

     occupation numbers 
     0.0156   0.0156   0.0156   0.0156   0.0156   0.0156   0.0156   0.0156
     0.0156   0.0156   0.0156   0.0156   0.0156   0.0156   0.0156   0.0156
     0.0156   0.0156   0.0156   0.0156   0.0156   0.0156   0.0156   0.0156
     0.0156   0.0156   0.0156   0.0156   0.0156   0.0156   0.0156   0.0156
     0.0156   0.0156   0.0156   0.0156   0.0156   0.0156   0.0039   0.0039
     0.0036   0.0036   0.0000   0.0000   0.0000   0.0000

          k = 0.4942-0.5706 0.1027 (  2198 PWs)   bands (ev):

   -19.6855 -19.6441  -6.9227  -6.6106  -6.0940  -5.8548  -5.4672  -5.3298
    -3.2572  -3.2098  -2.8323  -2.6628  -2.4837  -2.3424   5.8275   6.1476
     6.6458   6.7505   7.0975   7.2646   7.4153   7.6363   7.7220   7.9005
     8.1773   8.7535   9.0059   9.2232   9.5167   9.7553   9.8684  10.2966
    10.4147  10.8010  10.9036  10.9474  11.0710  11.1647  11.5073  11.9120
    12.6807  13.6865  16.9268  17.1243  17.3285  18.0341

     occupation numbers 
     0.0938   0.0938   0.0938   0.0938   0.0938   0.0938   0.0938   0.0938
     0.0938   0.0938   0.0938   0.0938   0.0938   0.0938   0.0938   0.0938
     0.0938   0.0938   0.0938   0.0938   0.0938   0.0938   0.0938   0.0938
     0.0938   0.0938   0.0938   0.0938   0.0938   0.0938   0.0938   0.0937
     0.0937   0.0937   0.0937   0.0937   0.0937   0.0937   0.0935   0.0860
     0.0095   0.0000   0.0000   0.0000   0.0000   0.0000

 ------ SPIN DOWN ----------


          k = 0.0000 0.0000 0.0000 (  2175 PWs)   bands (ev):

   -19.7530 -19.5799  -6.4340  -5.7108  -5.7108  -5.6863  -5.6863  -5.3596
    -3.7078  -3.2238  -3.1101  -3.1101  -2.9672  -2.9672   5.2426   7.2931
     7.2931   7.5843   7.5843   7.7780   8.0522   8.0522   8.0954   9.4412
     9.7511   9.7511  10.0723  10.1238  10.1238  10.5960  10.5960  10.7922
    11.2415  11.2415  11.3263  12.1728  12.1728  12.7008  13.0287  13.0287
    15.3675  15.3675  15.5060  15.5060  16.2240  16.8282

     occupation numbers 
     0.0156   0.0156   0.0156   0.0156   0.0156   0.0156   0.0156   0.0156
     0.0156   0.0156   0.0156   0.0156   0.0156   0.0156   0.0156   0.0156
     0.0156   0.0156   0.0156   0.0156   0.0156   0.0156   0.0156   0.0156
     0.0156   0.0156   0.0156   0.0156   0.0156   0.0156   0.0156   0.0156
     0.0156   0.0156   0.0156   0.0107   0.0107   0.0014   0.0001   0.0001
     0.0000   0.0000   0.0000   0.0000   0.0000   0.0000

          k =-0.2471-0.1427 0.1027 (  2181 PWs)   bands (ev):

   -19.7250 -19.6023  -6.6201  -6.1804  -5.8112  -5.7203  -5.4782  -5.3408
    -3.5245  -3.3322  -2.8535  -2.8341  -2.7659  -2.6945   5.6097   6.9529
     7.3555   7.3763   7.4788   7.6868   7.6977   8.0511   8.0713   8.8252
     8.8909   9.5308   9.8069  10.0097  10.0690  10.1931  10.5407  10.5521
    11.5646  11.6094  11.6595  12.3502  12.3892  12.5168  13.1798  13.2268
    14.9346  14.9474  15.8963  16.1372  17.0172  17.3204

     occupation numbers 
     0.0938   0.0938   0.0938   0.0938   0.0938   0.0938   0.0938   0.0938
     0.0938   0.0938   0.0938   0.0938   0.0938   0.0938   0.0938   0.0938
     0.0938   0.0938   0.0938   0.0938   0.0938   0.0938   0.0938   0.0938
     0.0938   0.0938   0.0938   0.0937   0.0937   0.0937   0.0937   0.0937
     0.0933   0.0931   0.0926   0.0420   0.0371   0.0225   0.0001   0.0001
     0.0000   0.0000   0.0000   0.0000   0.0000   0.0000

          k = 0.4942 0.2853-0.2053 (  2202 PWs)   bands (ev):

   -19.6615 -19.6603  -6.6255  -6.6106  -5.8415  -5.8257  -5.3909  -5.3732
    -3.3205  -3.3199  -2.7108  -2.7095  -2.4428  -2.4405   6.1653   6.1672
     7.4392   7.4507   7.5197   7.5296   7.8749   7.8815   8.1765   8.1780
     8.4367   8.4422   9.7265   9.7366  10.0313  10.0404  10.4501  10.4628
    11.9789  11.9987  12.0728  12.0920  12.2177  12.2360  14.0014  14.0277
    14.0705  14.0975  16.8964  16.9013  17.1919  17.1972

     occupation numbers 
     0.0469   0.0469   0.0469   0.0469   0.0469   0.0469   0.0469   0.0469
     0.0469   0.0469   0.0469   0.0469   0.0469   0.0469   0.0469   0.0469
     0.0469   0.0469   0.0469   0.0469   0.0469   0.0469   0.0469   0.0469
     0.0469   0.0469   0.0469   0.0469   0.0469   0.0469   0.0469   0.0469
     0.0411   0.0404   0.0374   0.0365   0.0295   0.0284   0.0000   0.0000
     0.0000   0.0000   0.0000   0.0000   0.0000   0.0000

          k =-0.2471 0.1427 0.2053 (  2195 PWs)   bands (ev):

   -19.7204 -19.6046  -6.7447  -6.1191  -5.9530  -5.7010  -5.5268  -5.3067
    -3.3497  -3.2128  -3.0281  -2.8144  -2.7334  -2.4875   5.6634   6.9952
     7.2898   7.3139   7.3921   7.5629   7.6686   8.0822   8.1052   8.8429
     9.1202   9.1223   9.4758   9.9686  10.1339  10.2658  10.3428  10.4667
    11.2624  11.8773  11.9853  12.0528  12.4058  12.5251  12.9539  13.5186
    14.3128  15.4060  16.0484  16.2576  17.0868  17.5847

     occupation numbers 
     0.0938   0.0938   0.0938   0.0938   0.0938   0.0938   0.0938   0.0938
     0.0938   0.0938   0.0938   0.0938   0.0938   0.0938   0.0938   0.0938
     0.0938   0.0938   0.0938   0.0938   0.0938   0.0938   0.0938   0.0938
     0.0938   0.0938   0.0938   0.0937   0.0937   0.0937   0.0937   0.0937
     0.0937   0.0876   0.0817   0.0765   0.0350   0.0217   0.0012   0.0000
     0.0000   0.0000   0.0000   0.0000   0.0000   0.0000

          k = 0.4942 0.5706-0.1027 (  2198 PWs)   bands (ev):

   -19.6801 -19.6390  -6.8489  -6.5420  -6.0185  -5.7724  -5.3698  -5.2287
    -3.2493  -3.1997  -2.8080  -2.6354  -2.4532  -2.3112   6.0263   6.4161
     7.0603   7.3351   7.4228   7.4710   7.7392   8.0174   8.1364   8.2966
     8.5565   9.0932   9.3498   9.5271   9.8664   9.9807  10.1412  10.5271
    11.6351  12.0375  12.1066  12.2085  12.3452  12.3509  13.1669  13.5273
    14.1350  15.0018  16.9641  17.1863  17.3736  18.0760

     occupation numbers 
     0.0938   0.0938   0.0938   0.0938   0.0938   0.0938   0.0938   0.0938
     0.0938   0.0938   0.0938   0.0938   0.0938   0.0938   0.0938   0.0938
     0.0938   0.0938   0.0938   0.0938   0.0938   0.0938   0.0938   0.0938
     0.0938   0.0938   0.0938   0.0938   0.0938   0.0937   0.0937   0.0937
     0.0929   0.0778   0.0715   0.0601   0.0427   0.0419   0.0001   0.0000
     0.0000   0.0000   0.0000   0.0000   0.0000   0.0000

          k = 0.2471 0.4280 0.0000 (  2203 PWs)   bands (ev):

   -19.6897 -19.6317  -6.7423  -6.5298  -5.9411  -5.8570  -5.2939  -5.2148
    -3.4545  -3.2440  -2.7308  -2.6385  -2.4968  -2.4799   5.9808   6.4301
     7.2786   7.4218   7.4618   7.5264   7.5831   7.9295   8.0424   8.4015
     8.6562   9.1160   9.5739   9.6946   9.9524   9.9570  10.2207  10.5413
    11.8956  11.9091  11.9772  12.1695  12.1770  12.4547  13.1345  14.0213
    14.0874  14.8087  16.5057  17.0557  17.4718  17.9767

     occupation numbers 
     0.0938   0.0938   0.0938   0.0938   0.0938   0.0938   0.0938   0.0938
     0.0938   0.0938   0.0938   0.0938   0.0938   0.0938   0.0938   0.0938
     0.0938   0.0938   0.0938   0.0938   0.0938   0.0938   0.0938   0.0938
     0.0938   0.0938   0.0938   0.0938   0.0937   0.0937   0.0937   0.0937
     0.0868   0.0862   0.0823   0.0647   0.0638   0.0292   0.0002   0.0000
     0.0000   0.0000   0.0000   0.0000   0.0000   0.0000

          k = 0.4942-0.2853-0.4107 (  2202 PWs)   bands (ev):

   -19.6873 -19.6290  -7.0580  -6.3563  -6.1396  -5.8255  -5.4077  -5.1236
    -3.1404  -3.0796  -2.9783  -2.5789  -2.4028  -2.1480   5.9511   6.5341
     6.6395   7.2223   7.2822   7.3273   8.1056   8.1772   8.2631   8.3704
     8.7206   8.8678   8.8877   9.5511   9.7851  10.1628  10.1865  10.6091
    11.2471  11.9201  12.0415  12.2550  12.3986  12.4639  12.8927  13.2884
    14.0627  15.4283  17.0938  17.3449  17.5724  17.6389

     occupation numbers 
     0.0469   0.0469   0.0469   0.0469   0.0469   0.0469   0.0469   0.0469
     0.0469   0.0469   0.0469   0.0469   0.0469   0.0469   0.0469   0.0469
     0.0469   0.0469   0.0469   0.0469   0.0469   0.0469   0.0469   0.0469
     0.0469   0.0469   0.0469   0.0469   0.0469   0.0469   0.0469   0.0469
     0.0469   0.0428   0.0387   0.0272   0.0180   0.0141   0.0010   0.0000
     0.0000   0.0000   0.0000   0.0000   0.0000   0.0000

          k = 0.0000 0.0000 0.3080 (  2187 PWs)   bands (ev):

   -19.7248 -19.6021  -6.5061  -5.8673  -5.8027  -5.8027  -5.7097  -5.7097
    -3.1380  -3.0246  -3.0246  -2.9184  -2.8232  -2.8232   5.6604   7.2083
     7.3582   7.3582   7.5581   7.5581   7.7170   8.0806   8.0806   9.0631
     9.0631   9.5877   9.5932   9.8666   9.8666  10.0769  10.3035  10.3035
    11.6765  11.6765  11.6926  12.3654  12.3654  12.5349  13.1591  13.1591
    14.8963  14.8963  15.9839  15.9839  16.9169  17.5428

     occupation numbers 
     0.0313   0.0313   0.0313   0.0313   0.0313   0.0313   0.0313   0.0313
     0.0313   0.0313   0.0313   0.0313   0.0313   0.0313   0.0313   0.0313
     0.0313   0.0313   0.0313   0.0313   0.0313   0.0313   0.0313   0.0313
     0.0313   0.0313   0.0313   0.0313   0.0313   0.0312   0.0312   0.0312
     0.0308   0.0308   0.0308   0.0134   0.0134   0.0069   0.0001   0.0001
     0.0000   0.0000   0.0000   0.0000   0.0000   0.0000

          k = 0.7412 0.4280 0.0000 (  2204 PWs)   bands (ev):

   -19.6895 -19.6315  -6.6263  -6.4931  -6.0332  -5.7097  -5.5388  -5.4072
    -3.1023  -3.0240  -2.9866  -2.6039  -2.5882  -2.5039   6.0279   6.6168
     7.2915   7.4528   7.4561   7.5446   7.5886   7.8817   8.2282   8.3795
     8.6997   8.9905   9.6447   9.6801   9.7722   9.8397  10.0439  10.3865
    11.8882  11.9152  12.0386  12.1825  12.2217  12.4193  13.1277  13.9495
    14.0095  14.8346  16.7674  16.7768  17.6421  17.8604

     occupation numbers 
     0.0938   0.0938   0.0938   0.0938   0.0938   0.0938   0.0938   0.0938
     0.0938   0.0938   0.0938   0.0938   0.0938   0.0938   0.0938   0.0938
     0.0938   0.0938   0.0938   0.0938   0.0938   0.0938   0.0938   0.0938
     0.0938   0.0938   0.0938   0.0938   0.0938   0.0938   0.0937   0.0937
     0.0871   0.0859   0.0777   0.0632   0.0585   0.0334   0.0002   0.0000
     0.0000   0.0000   0.0000   0.0000   0.0000   0.0000

          k = 0.4942 0.2853 0.1027 (  2211 PWs)   bands (ev):

   -19.6801 -19.6390  -6.8653  -6.4370  -6.2155  -5.5625  -5.4991  -5.1991
    -3.2626  -3.1121  -2.9603  -2.5341  -2.4861  -2.3022   6.0535   6.3867
     7.0299   7.3382   7.3431   7.4685   7.7414   8.0606   8.2251   8.2422
     8.6054   9.2166   9.3526   9.5824   9.7379   9.8373  10.1972  10.5427
    11.6343  12.0685  12.1700  12.2227  12.2898  12.2941  13.1319  13.5368
    14.1790  14.9858  16.9523  16.9890  17.6541  17.9914

     occupation numbers 
     0.0938   0.0938   0.0938   0.0938   0.0938   0.0938   0.0938   0.0938
     0.0938   0.0938   0.0938   0.0938   0.0938   0.0938   0.0938   0.0938
     0.0938   0.0938   0.0938   0.0938   0.0938   0.0938   0.0938   0.0938
     0.0938   0.0938   0.0938   0.0938   0.0938   0.0938   0.0937   0.0937
     0.0929   0.0751   0.0646   0.0584   0.0498   0.0493   0.0002   0.0000
     0.0000   0.0000   0.0000   0.0000   0.0000   0.0000

          k = 0.7412-0.4280-0.3080 (  2210 PWs)   bands (ev):

   -19.6799 -19.6387  -6.8003  -6.3428  -6.1929  -5.6787  -5.6259  -5.3328
    -3.0091  -2.9831  -2.9084  -2.6604  -2.5412  -2.3543   6.1172   6.5457
     7.1144   7.3214   7.3933   7.4202   7.7585   8.1062   8.2439   8.2842
     8.6027   9.1825   9.2001   9.6826   9.7184   9.7818   9.8421  10.3822
    11.6835  12.0729  12.1534  12.2104  12.3193  12.3721  13.0947  13.4968
    14.1314  14.9521  17.1256  17.1364  17.6212  17.9607

     occupation numbers 
     0.0938   0.0938   0.0938   0.0938   0.0938   0.0938   0.0938   0.0938
     0.0938   0.0938   0.0938   0.0938   0.0938   0.0938   0.0938   0.0938
     0.0938   0.0938   0.0938   0.0938   0.0938   0.0938   0.0938   0.0938
     0.0938   0.0938   0.0938   0.0938   0.0938   0.0938   0.0938   0.0937
     0.0924   0.0747   0.0665   0.0599   0.0460   0.0392   0.0003   0.0000
     0.0000   0.0000   0.0000   0.0000   0.0000   0.0000

          k = 0.4942-0.5706-0.2053 (  2206 PWs)   bands (ev):

   -19.6584 -19.6583  -6.7843  -6.7646  -5.9273  -5.9263  -5.2776  -5.2715
    -3.1027  -3.1018  -2.7430  -2.7416  -2.3097  -2.3063   6.2419   6.2530
     7.1935   7.1986   7.3645   7.3660   7.5946   7.5969   8.4617   8.4725
     8.9377   8.9390   9.2465   9.2473   9.7168   9.7181  10.2818  10.2819
    11.8911  11.8941  12.0719  12.0834  12.3757  12.3814  13.1630  13.1666
    14.6706  14.6768  17.5048  17.5056  17.9191  17.9215

     occupation numbers 
     0.0938   0.0938   0.0938   0.0938   0.0938   0.0938   0.0938   0.0938
     0.0938   0.0938   0.0938   0.0938   0.0938   0.0938   0.0938   0.0938
     0.0938   0.0938   0.0938   0.0938   0.0938   0.0938   0.0938   0.0938
     0.0938   0.0938   0.0938   0.0938   0.0938   0.0938   0.0937   0.0937
     0.0870   0.0869   0.0748   0.0737   0.0388   0.0381   0.0002   0.0001
     0.0000   0.0000   0.0000   0.0000   0.0000   0.0000

          k = 0.0000 0.0000-0.6160 (  2186 PWs)   bands (ev):

   -19.6610 -19.6598  -6.4102  -6.3917  -5.8206  -5.8206  -5.8041  -5.8041
    -2.8107  -2.8107  -2.8090  -2.8090  -2.6541  -2.6538   6.3777   6.3825
     7.4645   7.4645   7.4754   7.4754   8.0251   8.0334   8.3460   8.3460
     8.3501   8.3501   9.8219   9.8219   9.8329   9.8329   9.8673   9.8809
    12.1231  12.1405  12.1484  12.1484  12.1675  12.1675  13.9376  13.9376
    13.9640  13.9640  17.1871  17.1871  17.1896  17.1896

     occupation numbers 
     0.0156   0.0156   0.0156   0.0156   0.0156   0.0156   0.0156   0.0156
     0.0156   0.0156   0.0156   0.0156   0.0156   0.0156   0.0156   0.0156
     0.0156   0.0156   0.0156   0.0156   0.0156   0.0156   0.0156   0.0156
     0.0156   0.0156   0.0156   0.0156   0.0156   0.0156   0.0156   0.0156
     0.0116   0.0113   0.0112   0.0112   0.0108   0.0108   0.0000   0.0000
     0.0000   0.0000   0.0000   0.0000   0.0000   0.0000

          k = 0.4942-0.5706 0.1027 (  2198 PWs)   bands (ev):

   -19.6801 -19.6390  -6.8489  -6.5389  -6.0226  -5.7756  -5.3693  -5.2242
    -3.2495  -3.1997  -2.8090  -2.6348  -2.4540  -2.3102   6.0272   6.4137
     7.0620   7.3322   7.4170   7.4739   7.7430   8.0196   8.1338   8.3022
     8.5569   9.0953   9.3445   9.5256   9.8642   9.9816  10.1409  10.5295
    11.6355  12.0297  12.1154  12.2077  12.3426  12.3525  13.1663  13.5281
    14.1350  15.0012  16.9660  17.1832  17.3745  18.0746

     occupation numbers 
     0.0938   0.0938   0.0938   0.0938   0.0938   0.0938   0.0938   0.0938
     0.0938   0.0938   0.0938   0.0938   0.0938   0.0938   0.0938   0.0938
     0.0938   0.0938   0.0938   0.0938   0.0938   0.0938   0.0938   0.0938
     0.0938   0.0938   0.0938   0.0938   0.0938   0.0937   0.0937   0.0937
     0.0929   0.0784   0.0706   0.0602   0.0430   0.0417   0.0001   0.0000
     0.0000   0.0000   0.0000   0.0000   0.0000   0.0000

     the Fermi energy is    12.3127 ev

!    total energy              =    -538.26813473 Ry
     Harris-Foulkes estimate   =    -538.26812912 Ry
     estimated scf accuracy    <          4.6E-09 Ry

     The total energy is the sum of the following terms:

     one-electron contribution =     -32.72088284 Ry
     hartree contribution      =      83.50124916 Ry
     xc contribution           =    -199.65165657 Ry
     ewald contribution        =    -389.44315552 Ry
     Hubbard energy            =       0.08701980 Ry
     smearing contrib. (-TS)   =      -0.04070874 Ry

     total magnetization       =     3.59 Bohr mag/cell
     absolute magnetization    =     3.74 Bohr mag/cell

     convergence has been achieved in  19 iterations

     init_run     :      8.44s CPU      8.57s WALL (       1 calls)
     electrons    :    485.03s CPU    488.79s WALL (       1 calls)

     Called by init_run:
     wfcinit      :      0.00s CPU      0.00s WALL (       1 calls)
     potinit      :      0.84s CPU      0.88s WALL (       1 calls)

     Called by electrons:
     c_bands      :    330.00s CPU    331.12s WALL (      19 calls)
     sum_band     :     98.11s CPU     98.74s WALL (      19 calls)
     v_of_rho     :     14.42s CPU     14.55s WALL (      20 calls)
     v_h          :      0.28s CPU      0.28s WALL (      20 calls)
     v_xc         :     14.13s CPU     14.27s WALL (      20 calls)
     newd         :     42.91s CPU     43.01s WALL (      20 calls)
     mix_rho      :      1.07s CPU      1.07s WALL (      19 calls)

     Called by c_bands:
     init_us_2    :      3.78s CPU      3.78s WALL (    1064 calls)
     cegterg      :    319.51s CPU    320.15s WALL (     532 calls)

     Called by sum_band:
     sum_band:bec :      0.38s CPU      0.40s WALL (     532 calls)
     addusdens    :     39.06s CPU     39.15s WALL (      19 calls)

     Called by *egterg:
     h_psi        :    240.38s CPU    240.87s WALL (    2005 calls)
     s_psi        :     14.02s CPU     14.03s WALL (    2005 calls)
     g_psi        :      1.18s CPU      1.16s WALL (    1473 calls)
     cdiaghg      :     23.29s CPU     23.33s WALL (    1977 calls)
     cegterg:over :     15.19s CPU     15.21s WALL (    1473 calls)
     cegterg:upda :     10.29s CPU     10.28s WALL (    1473 calls)
     cegterg:last :      6.00s CPU      5.99s WALL (     559 calls)

     Called by h_psi:
     h_psi:vloc   :    195.39s CPU    195.85s WALL (    2005 calls)
     h_psi:vnl    :     28.59s CPU     28.60s WALL (    2005 calls)
     add_vuspsi   :     14.06s CPU     14.05s WALL (    2005 calls)
     vhpsi        :     15.85s CPU     15.89s WALL (    2005 calls)

     General routines
     calbec       :     30.32s CPU     30.37s WALL (    5074 calls)
     fft          :      6.12s CPU      6.18s WALL (     608 calls)
     ffts         :      0.19s CPU      0.19s WALL (      78 calls)
     fftw         :    191.17s CPU    191.28s WALL (  144192 calls)
     interpolate  :      1.08s CPU      1.08s WALL (      78 calls)
     davcio       :      0.02s CPU      0.89s WALL (    1092 calls)

     Parallel routines
     fft_scatter  :     48.19s CPU     48.06s WALL (  144878 calls)
     Hubbard U routines
     new_ns       :      3.09s CPU      3.50s WALL (      19 calls)
     vhpsi        :     15.85s CPU     15.89s WALL (    2005 calls)

     PWSCF        :  8m13.92s CPU     8m19.54s WALL


   This run was terminated on:  12:49:22  13Nov2012            

=------------------------------------------------------------------------------=
   JOB DONE.
=------------------------------------------------------------------------------=
 
Job Ended on n10 at Tue Nov 13 12:49:22 EST 2012
 
