   JOB DONE.
=------------------------------------------------------------------------------=

     Program PWSCF v.5.0.1 starts on 11Nov2012 at 14:43:41 

     This program is part of the open-source Quantum ESPRESSO suite
     for quantum simulation of materials; please cite
         "P. Giannozzi et al., J. Phys.:Condens. Matter 21 395502 (2009);
          URL http://www.quantum-espresso.org", 
     in publications or presentations arising from this work. More details at
     http://www.quantum-espresso.org/quote.php

     Parallel version (MPI), running on     2 processors
     R & G space division:  proc/pool =    2

     Current dimensions of program PWSCF are:
     Max number of different atomic species (ntypx) = 10
     Max number of k-points (npk) =  40000
     Max angular momentum in pseudopotentials (lmaxx) =  3
     Reading input from CoLaO_U100_a-15.in
               file Co.pbe-nd-rrkjus.UPF: wavefunction(s)  4S 3D renormalized
               file O.pbe-rrkjus.UPF: wavefunction(s)  2S renormalized
               file O.pbe-rrkjus.UPF: wavefunction(s)  2S renormalized

     Subspace diagonalization in iterative solution of the eigenvalue problem:
     a serial algorithm will be used


     Parallelization info
     --------------------
     sticks:   dense  smooth     PW     G-vecs:    dense   smooth      PW
     Min        1112     444    131                34808     8786    1448
     Max        1113     445    132                34809     8787    1449
     Sum        2225     889    263                69617    17573    2897


     Title: 
     GGA + U, U = 1.000, alpha = -0.150                                         


     bravais-lattice index     =            5
     lattice parameter (alat)  =      10.3292  a.u.
     unit-cell volume          =     793.0599 (a.u.)^3
     number of atoms/cell      =           10
     number of atomic types    =            4
     number of electrons       =        76.00
     number of Kohn-Sham states=           46
     kinetic-energy cutoff     =      30.0000  Ry
     charge density cutoff     =     300.0000  Ry
     convergence threshold     =      1.0E-08
     mixing beta               =       0.2000
     number of iterations used =            8  plain     mixing
     Exchange-correlation      =  SLA  PW   PBE  PBE ( 1 4 3 4 0)
     EXX-fraction              =        0.00

     celldm(1)=  10.329242  celldm(2)=   0.000000  celldm(3)=   0.000000
     celldm(4)=   0.488100  celldm(5)=   0.000000  celldm(6)=   0.000000

     crystal axes: (cart. coord. in units of alat)
               a(1) = (   0.505915  -0.292090   0.811624 )  
               a(2) = (   0.000000   0.584180   0.811624 )  
               a(3) = (  -0.505915  -0.292090   0.811624 )  

     reciprocal axes: (cart. coord. in units 2 pi/alat)
               b(1) = (  0.988308 -0.570600  0.410699 )  
               b(2) = (  0.000000  1.141200  0.410699 )  
               b(3) = ( -0.988308 -0.570600  0.410699 )  


     PseudoPot. # 1 for Co read from file:
     /home/mcurnan/dft-course/Project1/example_LaCoO3/Co.pbe-nd-rrkjus.UPF
     MD5 check sum: 3e47a84addf5e975e0edeaeee2a73f59
     Pseudo is Ultrasoft + core correction, Zval =  9.0
     Generated by new atomic code, or converted to UPF format
     Using radial grid of  961 points,  6 beta functions with: 
                l(1) =   0
                l(2) =   0
                l(3) =   1
                l(4) =   1
                l(5) =   2
                l(6) =   2
     Q(r) pseudized with 0 coefficients 


     PseudoPot. # 2 for La read from file:
     /home/mcurnan/dft-course/Project1/example_LaCoO3/La.pbe-nsp-van.UPF
     MD5 check sum: b2f11743f52dde65f77d1302becd7929
     Pseudo is Ultrasoft + core correction, Zval = 11.0
     Generated by new atomic code, or converted to UPF format
     Using radial grid of  907 points,  6 beta functions with: 
                l(1) =   0
                l(2) =   0
                l(3) =   1
                l(4) =   1
                l(5) =   2
                l(6) =   2
     Q(r) pseudized with  6 coefficients,  rinner =    1.200   1.200   1.200
                                                       1.200   1.200

     PseudoPot. # 3 for O  read from file:
     /home/mcurnan/dft-course/Project1/example_LaCoO3/O.pbe-rrkjus.UPF
     MD5 check sum: 390ba29e75625707450f3bd3f0eb6be9
     Pseudo is Ultrasoft, Zval =  6.0
     Generated by new atomic code, or converted to UPF format
     Using radial grid of 1269 points,  4 beta functions with: 
                l(1) =   0
                l(2) =   0
                l(3) =   1
                l(4) =   1
     Q(r) pseudized with 0 coefficients 


     PseudoPot. # 4 for O  read from file:
     /home/mcurnan/dft-course/Project1/example_LaCoO3/O.pbe-rrkjus.UPF
     MD5 check sum: 390ba29e75625707450f3bd3f0eb6be9
     Pseudo is Ultrasoft, Zval =  6.0
     Generated by new atomic code, or converted to UPF format
     Using radial grid of 1269 points,  4 beta functions with: 
                l(1) =   0
                l(2) =   0
                l(3) =   1
                l(4) =   1
     Q(r) pseudized with 0 coefficients 


     atomic species   valence    mass     pseudopotential
        Co1            9.00     1.00000     Co( 1.00)
        La1           11.00     1.00000     La( 1.00)
        O1             6.00     1.00000     O ( 1.00)
        O2             6.00     1.00000     O ( 1.00)
 -----
     simplified LDA+U calculation, Hubbard_lmax = 2
     atomic species  L   Hubbard U  Hubbard alpha
        Co1          2    1.000000    0.000000
        La1          2    0.000000    0.000000
        O1           1    0.000000   -0.150000
        O2           1    0.000000    0.000000
 -----

     No symmetry found


                                    s                        frac. trans.

      isym =  1     identity                                     

 cryst.   s( 1) = (     1          0          0      )
                  (     0          1          0      )
                  (     0          0          1      )

 cart.    s( 1) = (  1.0000000  0.0000000  0.0000000 )
                  (  0.0000000  1.0000000  0.0000000 )
                  (  0.0000000  0.0000000  1.0000000 )


     point group C_1 (1)    
     there are  1 classes
     the character table:

       E    
A      1.00

     the symmetry operations in each class:
     E        1

   Cartesian axes

     site n.     atom                  positions (alat units)
         1           Co1 tau(   1) = (   0.2228050  -0.1992639   1.0141240  )
         2           Co1 tau(   2) = (  -0.2831100   0.0928263   1.4199360  )
         3           La1 tau(   3) = (  -0.2831100   0.0928263   0.8112181  )
         4           La1 tau(   4) = (   0.2228050   0.3849164   1.2170300  )
         5           O1  tau(   5) = (   0.0000000   0.0000000   0.0000000  )
         6           O2  tau(   6) = (   0.0008601   0.1861491   1.6232478  )
         7           O2  tau(   7) = (   0.1616398   0.0923297   0.8116239  )
         8           O2  tau(   8) = (  -0.0603051  -0.1064377   1.2166242  )
         9           O2  tau(   9) = (   0.4447499  -0.0004966   1.2166242  )
        10           O2  tau(  10) = (  -0.2219449   0.3854130   1.2166242  )

   Crystallographic axes

     site n.     atom                  positions (cryst. coord.)
         1           Co1 tau(   1) = (  0.7504000  0.1891000  0.3100000  )
         2           Co1 tau(   2) = (  0.2504000  0.6891000  0.8100000  )
         3           La1 tau(   3) = (  0.0004000  0.4391000  0.5600000  )
         4           La1 tau(   4) = (  0.5004000  0.9391000  0.0600000  )
         5           O1  tau(   5) = (  0.0000000  0.0000000  0.0000000  )
         6           O2  tau(   6) = (  0.5613000  0.8791000  0.5596000  )
         7           O2  tau(   7) = (  0.4404000  0.4387000  0.1209000  )
         8           O2  tau(   8) = (  0.5008000  0.3782000  0.6200000  )
         9           O2  tau(   9) = (  0.9395000  0.4991000  0.0604000  )
        10           O2  tau(  10) = (  0.0604000  0.9395000  0.4991000  )

     number of k points=    36  gaussian smearing, width (Ry)=  0.0300
                       cart. coord. in units 2pi/alat
        k(    1) = (   0.0000000   0.0000000   0.0000000), wk =   0.0312500
        k(    2) = (  -0.2470771  -0.1426500   0.1026748), wk =   0.0625000
        k(    3) = (   0.4941541   0.2853000  -0.2053496), wk =   0.0312500
        k(    4) = (  -0.2470771   0.1426500   0.2053496), wk =   0.0625000
        k(    5) = (   0.4941541   0.5706001  -0.1026748), wk =   0.0625000
        k(    6) = (   0.2470771   0.4279500   0.0000000), wk =   0.0625000
        k(    7) = (   0.4941541  -0.2853000  -0.4106993), wk =   0.0312500
        k(    8) = (   0.0000000   0.0000000   0.3080244), wk =   0.0625000
        k(    9) = (   0.7412312   0.4279500   0.0000000), wk =   0.0625000
        k(   10) = (   0.4941541   0.2853000   0.1026748), wk =   0.0625000
        k(   11) = (   0.7412312  -0.4279500  -0.3080244), wk =   0.0625000
        k(   12) = (   0.4941541  -0.5706001  -0.2053496), wk =   0.0625000
        k(   13) = (   0.0000000   0.0000000  -0.6160489), wk =   0.0312500
        k(   14) = (  -0.2470771   0.1426500  -0.1026748), wk =   0.0625000
        k(   15) = (   0.0000000   0.2853000   0.1026748), wk =   0.0625000
        k(   16) = (   0.4941541  -0.2853000   0.2053496), wk =   0.0312500
        k(   17) = (   0.0000000  -0.5706001  -0.2053496), wk =   0.0312500
        k(   18) = (  -0.2470771  -0.1426500  -0.2053496), wk =   0.0625000
        k(   19) = (   0.0000000  -0.2853000   0.2053496), wk =   0.0625000
        k(   20) = (   0.4941541  -0.5706001   0.1026748), wk =   0.0625000
        k(   21) = (  -0.7412312   0.1426500  -0.1026748), wk =   0.0625000
        k(   22) = (   0.2470771  -0.7132501  -0.1026748), wk =   0.0625000
        k(   23) = (  -0.7412312  -0.1426500   0.1026748), wk =   0.0625000
        k(   24) = (   0.2470771   0.7132501   0.1026748), wk =   0.0625000
        k(   25) = (   0.2470771  -0.4279500   0.0000000), wk =   0.0625000
        k(   26) = (  -0.4941541   0.0000000   0.0000000), wk =   0.0625000
        k(   27) = (   0.4941541   0.2853000   0.4106993), wk =   0.0312500
        k(   28) = (   0.0000000   0.5706001  -0.4106993), wk =   0.0312500
        k(   29) = (   0.7412312  -0.4279500   0.0000000), wk =   0.0625000
        k(   30) = (   0.0000000  -0.8559001   0.0000000), wk =   0.0625000
        k(   31) = (   0.4941541  -0.2853000  -0.1026748), wk =   0.0625000
        k(   32) = (   0.0000000  -0.5706001   0.1026748), wk =   0.0625000
        k(   33) = (   0.7412312   0.4279500   0.3080244), wk =   0.0625000
        k(   34) = (   0.0000000   0.8559001  -0.3080244), wk =   0.0625000
        k(   35) = (   0.2470771   0.7132501  -0.2053496), wk =   0.0625000
        k(   36) = (  -0.7412312  -0.1426500  -0.2053496), wk =   0.0625000

                       cryst. coord.
        k(    1) = (   0.0000000   0.0000000   0.0000000), wk =   0.0312500
        k(    2) = (   0.0000000   0.0000000   0.2500000), wk =   0.0625000
        k(    3) = (   0.0000000   0.0000000  -0.5000000), wk =   0.0312500
        k(    4) = (   0.0000000   0.2500000   0.2500000), wk =   0.0625000
        k(    5) = (   0.0000000   0.2500000  -0.5000000), wk =   0.0625000
        k(    6) = (   0.0000000   0.2500000  -0.2500000), wk =   0.0625000
        k(    7) = (   0.0000000  -0.5000000  -0.5000000), wk =   0.0312500
        k(    8) = (   0.2500000   0.2500000   0.2500000), wk =   0.0625000
        k(    9) = (   0.2500000   0.2500000  -0.5000000), wk =   0.0625000
        k(   10) = (   0.2500000   0.2500000  -0.2500000), wk =   0.0625000
        k(   11) = (   0.2500000  -0.5000000  -0.5000000), wk =   0.0625000
        k(   12) = (   0.2500000  -0.5000000  -0.2500000), wk =   0.0625000
        k(   13) = (  -0.5000000  -0.5000000  -0.5000000), wk =   0.0312500
        k(   14) = (  -0.2500000   0.0000000   0.0000000), wk =   0.0625000
        k(   15) = (   0.0000000   0.2500000   0.0000000), wk =   0.0625000
        k(   16) = (   0.5000000   0.0000000   0.0000000), wk =   0.0312500
        k(   17) = (   0.0000000  -0.5000000   0.0000000), wk =   0.0312500
        k(   18) = (  -0.2500000  -0.2500000   0.0000000), wk =   0.0625000
        k(   19) = (   0.2500000   0.0000000   0.2500000), wk =   0.0625000
        k(   20) = (   0.5000000  -0.2500000   0.0000000), wk =   0.0625000
        k(   21) = (  -0.5000000   0.0000000   0.2500000), wk =   0.0625000
        k(   22) = (   0.2500000  -0.5000000   0.0000000), wk =   0.0625000
        k(   23) = (  -0.2500000   0.0000000   0.5000000), wk =   0.0625000
        k(   24) = (   0.0000000   0.5000000  -0.2500000), wk =   0.0625000
        k(   25) = (   0.2500000  -0.2500000   0.0000000), wk =   0.0625000
        k(   26) = (  -0.2500000   0.0000000   0.2500000), wk =   0.0625000
        k(   27) = (   0.5000000   0.5000000   0.0000000), wk =   0.0312500
        k(   28) = (  -0.5000000   0.0000000  -0.5000000), wk =   0.0312500
        k(   29) = (   0.5000000  -0.2500000  -0.2500000), wk =   0.0625000
        k(   30) = (   0.2500000  -0.5000000   0.2500000), wk =   0.0625000
        k(   31) = (   0.2500000  -0.2500000  -0.2500000), wk =   0.0625000
        k(   32) = (   0.2500000  -0.2500000   0.2500000), wk =   0.0625000
        k(   33) = (   0.5000000   0.5000000  -0.2500000), wk =   0.0625000
        k(   34) = (  -0.5000000   0.2500000  -0.5000000), wk =   0.0625000
        k(   35) = (  -0.2500000   0.2500000  -0.5000000), wk =   0.0625000
        k(   36) = (  -0.5000000  -0.2500000   0.2500000), wk =   0.0625000

     Dense  grid:    69617 G-vectors     FFT dimensions: (  60,  60,  60)

     Smooth grid:    17573 G-vectors     FFT dimensions: (  40,  40,  40)

     Largest allocated arrays     est. size (Mb)     dimensions
        Kohn-Sham Wavefunctions         0.79 Mb     (   1119,   46)
        Atomic wavefunctions            1.06 Mb     (   1119,   62)
        NL pseudopotentials             2.05 Mb     (   1119,  120)
        Each V/rho on FFT grid          1.65 Mb     ( 108000)
        Each G-vector array             0.27 Mb     (  34808)
        G-vector shells                 0.04 Mb     (   4682)
     Largest temporary arrays     est. size (Mb)     dimensions
        Auxiliary wavefunctions         3.14 Mb     (   1119,  184)
        Each subspace H/S matrix        0.52 Mb     ( 184, 184)
        Each <psi_i|beta_j> matrix      0.08 Mb     (    120,   46)
        Arrays for rho mixing          13.18 Mb     ( 108000,   8)

     Check: negative/imaginary core charge=   -0.000028    0.000000

     The initial density is read from file :
     /home/mcurnan/dft-course/Project1/example_LaCoO3/100/O/alpha/CoLaO_U100.save/charge-density.dat

 --- in v_hubbard ---
Hubbard energy    0.0358
 -------
     Number of +U iterations with fixed ns =  0
     Starting occupations:
 --- enter write_ns ---
 LDA+U parameters:
U( 1)     =  1.00000000
alpha( 1) =  0.00000000
U( 2)     =  0.00000000
alpha( 2) =  0.00000000
U( 3)     =  0.00000000
alpha( 3) = -0.15000000
U( 4)     =  0.00000000
alpha( 4) =  0.00000000
atom    1   Tr[ns(na)] =   8.02205
    eigenvalues: 
  0.596  0.596  0.938  0.941  0.941
    eigenvectors:
  0.000  0.000  1.000  0.000  0.000
  0.057  0.598  0.000  0.178  0.167
  0.598  0.057  0.000  0.167  0.178
  0.210  0.135  0.000  0.095  0.560
  0.135  0.210  0.000  0.560  0.095
    occupations:
  0.938  0.000  0.000  0.000  0.000
  0.000  0.715  0.000 -0.060  0.152
  0.000  0.000  0.715  0.152  0.060
  0.000 -0.060  0.152  0.822  0.000
  0.000  0.152  0.060  0.000  0.822
atom    2   Tr[ns(na)] =   8.02142
    eigenvalues: 
  0.595  0.595  0.938  0.941  0.941
    eigenvectors:
  0.000  0.000  1.000  0.000  0.000
  0.332  0.323  0.000  0.023  0.322
  0.323  0.332  0.000  0.322  0.023
  0.288  0.057  0.000  0.647  0.008
  0.057  0.288  0.000  0.008  0.647
    occupations:
  0.938  0.000  0.000  0.000  0.000
  0.000  0.715  0.000  0.060  0.153
  0.000  0.000  0.715  0.153 -0.060
  0.000  0.060  0.153  0.822  0.000
  0.000  0.153 -0.060  0.000  0.822
atom    3   Tr[ns(na)] =   3.80282
    eigenvalues: 
  0.355  0.355  0.384  0.403  0.403
    eigenvectors:
  0.000  0.000  1.000  0.000  0.000
  0.065  0.856  0.000  0.058  0.021
  0.856  0.065  0.000  0.021  0.058
  0.073  0.006  0.000  0.250  0.670
  0.006  0.073  0.000  0.670  0.250
    occupations:
  0.384  0.000  0.000  0.000  0.000
  0.000  0.359  0.000  0.000  0.013
  0.000  0.000  0.359  0.013  0.000
  0.000  0.000  0.013  0.399  0.000
  0.000  0.013  0.000  0.000  0.399
atom    4   Tr[ns(na)] =   3.80282
    eigenvalues: 
  0.355  0.355  0.384  0.403  0.403
    eigenvectors:
  0.000  0.000  1.000  0.000  0.000
  0.729  0.192  0.000  0.048  0.032
  0.192  0.729  0.000  0.032  0.048
  0.017  0.062  0.000  0.359  0.562
  0.062  0.017  0.000  0.562  0.359
    occupations:
  0.384  0.000  0.000  0.000  0.000
  0.000  0.359  0.000  0.000  0.013
  0.000  0.000  0.359  0.013  0.000
  0.000  0.000  0.013  0.399  0.000
  0.000  0.013  0.000  0.000  0.399
atom    5   Tr[ns(na)] =   5.43357
    eigenvalues: 
  0.846  0.929  0.941
    eigenvectors:
  0.340  0.000  0.660
  0.496  0.250  0.255
  0.164  0.750  0.086
    occupations:
  0.909 -0.039  0.022
 -0.039  0.891  0.022
  0.022  0.022  0.917
atom    6   Tr[ns(na)] =   5.43358
    eigenvalues: 
  0.846  0.929  0.941
    eigenvectors:
  0.340  0.000  0.660
  0.494  0.250  0.256
  0.166  0.750  0.085
    occupations:
  0.909  0.039  0.022
  0.039  0.891 -0.022
  0.022 -0.022  0.917
atom    7   Tr[ns(na)] =   5.43358
    eigenvalues: 
  0.846  0.929  0.941
    eigenvectors:
  0.340  0.000  0.660
  0.000  1.000  0.000
  0.660  0.000  0.340
    occupations:
  0.909  0.000 -0.045
  0.000  0.929  0.000
 -0.045  0.000  0.879
atom    8   Tr[ns(na)] =   5.43357
    eigenvalues: 
  0.846  0.929  0.941
    eigenvectors:
  0.340  0.000  0.660
  0.496  0.250  0.255
  0.164  0.750  0.086
    occupations:
  0.909 -0.039  0.022
 -0.039  0.891  0.022
  0.022  0.022  0.917
atom    9   Tr[ns(na)] =   5.43358
    eigenvalues: 
  0.846  0.929  0.941
    eigenvectors:
  0.340  0.000  0.660
  0.494  0.250  0.256
  0.166  0.750  0.085
    occupations:
  0.909  0.039  0.022
  0.039  0.891 -0.022
  0.022 -0.022  0.917
atom   10   Tr[ns(na)] =   5.43358
    eigenvalues: 
  0.846  0.929  0.941
    eigenvectors:
  0.340  0.000  0.660
  0.000  1.000  0.000
  0.660  0.000  0.340
    occupations:
  0.909  0.000 -0.045
  0.000  0.929  0.000
 -0.045  0.000  0.879
N of occupied +U levels =  56.2505796
 --- exit write_ns ---
 LDA+U Projector read from file 
     Starting wfc from file

     total cpu time spent up to now is        7.9 secs

     per-process dynamical memory:    62.8 Mb

     Self-consistent Calculation

     iteration #  1     ecut=    30.00 Ry     beta=0.20
     Davidson diagonalization with overlap
     c_bands:  1 eigenvalues not converged
     c_bands:  1 eigenvalues not converged
     c_bands:  1 eigenvalues not converged
     c_bands:  1 eigenvalues not converged
     c_bands:  1 eigenvalues not converged
     c_bands:  1 eigenvalues not converged
     c_bands:  1 eigenvalues not converged
     c_bands:  1 eigenvalues not converged
     c_bands:  1 eigenvalues not converged
     c_bands:  1 eigenvalues not converged
     c_bands:  1 eigenvalues not converged
     c_bands:  1 eigenvalues not converged
     c_bands:  1 eigenvalues not converged
     c_bands:  1 eigenvalues not converged
     c_bands:  1 eigenvalues not converged
     c_bands:  1 eigenvalues not converged
     c_bands:  1 eigenvalues not converged
     c_bands:  1 eigenvalues not converged
     c_bands:  1 eigenvalues not converged
     c_bands:  1 eigenvalues not converged
     ethr =  1.00E-10,  avg # of iterations = 17.2
 --- enter write_ns ---
 LDA+U parameters:
U( 1)     =  1.00000000
alpha( 1) =  0.00000000
U( 2)     =  0.00000000
alpha( 2) =  0.00000000
U( 3)     =  0.00000000
alpha( 3) = -0.15000000
U( 4)     =  0.00000000
alpha( 4) =  0.00000000
atom    1   Tr[ns(na)] =   8.06996
    eigenvalues: 
  0.575  0.576  0.960  0.962  0.962
    eigenvectors:
  0.000  0.000  0.624  0.102  0.274
  0.554  0.101  0.094  0.003  0.248
  0.101  0.553  0.036  0.307  0.003
  0.168  0.178  0.156  0.466  0.032
  0.177  0.167  0.090  0.121  0.443
    occupations:
  0.961  0.000  0.000  0.000  0.000
  0.000  0.708  0.000 -0.066  0.172
  0.000  0.000  0.709  0.171  0.066
  0.000 -0.066  0.171  0.828  0.000
  0.000  0.172  0.066  0.000  0.828
atom    2   Tr[ns(na)] =   8.06677
    eigenvalues: 
  0.573  0.575  0.961  0.962  0.962
    eigenvectors:
  0.000  0.000  0.693  0.126  0.181
  0.419  0.235  0.082  0.242  0.022
  0.235  0.420  0.024  0.061  0.260
  0.026  0.319  0.004  0.310  0.340
  0.319  0.026  0.197  0.261  0.196
    occupations:
  0.961  0.000  0.000  0.000  0.001
  0.000  0.708  0.001  0.065  0.173
  0.000  0.001  0.708  0.172 -0.066
  0.000  0.065  0.172  0.829  0.000
  0.001  0.173 -0.066  0.000  0.827
atom    3   Tr[ns(na)] =   3.79626
    eigenvalues: 
  0.355  0.356  0.383  0.402  0.402
    eigenvectors:
  0.000  0.000  1.000  0.000  0.000
  0.229  0.688  0.000  0.063  0.019
  0.689  0.229  0.000  0.020  0.062
  0.061  0.021  0.000  0.226  0.692
  0.021  0.062  0.000  0.690  0.226
    occupations:
  0.383  0.000  0.000  0.000  0.000
  0.000  0.359  0.000  0.000  0.013
  0.000  0.000  0.359  0.013  0.000
  0.000  0.000  0.013  0.398  0.000
  0.000  0.013  0.000  0.000  0.398
atom    4   Tr[ns(na)] =   3.79652
    eigenvalues: 
  0.355  0.355  0.383  0.402  0.403
    eigenvectors:
  0.000  0.000  1.000  0.000  0.000
  0.691  0.232  0.000  0.057  0.020
  0.233  0.687  0.000  0.019  0.061
  0.020  0.060  0.000  0.235  0.686
  0.056  0.021  0.000  0.689  0.233
    occupations:
  0.383  0.000  0.000  0.000  0.000
  0.000  0.359  0.000  0.000  0.013
  0.000  0.000  0.359  0.013  0.000
  0.000  0.000  0.013  0.399  0.000
  0.000  0.013  0.000  0.000  0.399
atom    5   Tr[ns(na)] =   5.44414
    eigenvalues: 
  0.846  0.931  0.945
    eigenvectors:
  0.339  0.000  0.661
  0.496  0.250  0.254
  0.165  0.750  0.085
    occupations:
  0.911 -0.040  0.023
 -0.040  0.892  0.022
  0.023  0.022  0.918
atom    6   Tr[ns(na)] =   5.42037
    eigenvalues: 
  0.841  0.928  0.942
    eigenvectors:
  0.341  0.000  0.659
  0.494  0.248  0.257
  0.165  0.752  0.083
    occupations:
  0.907  0.042  0.024
  0.042  0.888 -0.023
  0.024 -0.023  0.914
atom    7   Tr[ns(na)] =   5.42038
    eigenvalues: 
  0.841  0.928  0.942
    eigenvectors:
  0.341  0.000  0.659
  0.000  1.000  0.000
  0.659  0.000  0.341
    occupations:
  0.907  0.000 -0.048
  0.000  0.928  0.000
 -0.048  0.000  0.875
atom    8   Tr[ns(na)] =   5.42035
    eigenvalues: 
  0.840  0.928  0.942
    eigenvectors:
  0.340  0.000  0.660
  0.495  0.250  0.255
  0.164  0.750  0.086
    occupations:
  0.908 -0.042  0.024
 -0.042  0.888  0.023
  0.024  0.023  0.915
atom    9   Tr[ns(na)] =   5.42040
    eigenvalues: 
  0.841  0.928  0.942
    eigenvectors:
  0.340  0.000  0.660
  0.494  0.249  0.257
  0.166  0.751  0.083
    occupations:
  0.907  0.042  0.024
  0.042  0.888 -0.023
  0.024 -0.023  0.914
atom   10   Tr[ns(na)] =   5.42040
    eigenvalues: 
  0.841  0.928  0.942
    eigenvectors:
  0.340  0.000  0.660
  0.000  1.000  0.000
  0.660  0.000  0.340
    occupations:
  0.907  0.000 -0.048
  0.000  0.928  0.000
 -0.048  0.000  0.875
N of occupied +U levels =  56.2755639
 --- exit write_ns ---
 --- in v_hubbard ---
Hubbard energy    0.0343
 -------

     total cpu time spent up to now is      120.7 secs

     total energy              =    -538.30057335 Ry
     Harris-Foulkes estimate   =    -538.30119438 Ry
     estimated scf accuracy    <       0.00365277 Ry

     iteration #  2     ecut=    30.00 Ry     beta=0.20
     Davidson diagonalization with overlap
     ethr =  4.81E-06,  avg # of iterations =  1.0
 --- enter write_ns ---
 LDA+U parameters:
U( 1)     =  1.00000000
alpha( 1) =  0.00000000
U( 2)     =  0.00000000
alpha( 2) =  0.00000000
U( 3)     =  0.00000000
alpha( 3) = -0.15000000
U( 4)     =  0.00000000
alpha( 4) =  0.00000000
atom    1   Tr[ns(na)] =   8.02833
    eigenvalues: 
  0.566  0.567  0.960  0.961  0.961
    eigenvectors:
  0.000  0.000  0.928  0.062  0.010
  0.554  0.102  0.018  0.113  0.213
  0.102  0.553  0.007  0.211  0.128
  0.169  0.176  0.030  0.572  0.053
  0.176  0.168  0.018  0.042  0.596
    occupations:
  0.960  0.000  0.000  0.000  0.000
  0.000  0.702  0.000 -0.068  0.175
  0.000  0.000  0.703  0.175  0.067
  0.000 -0.068  0.175  0.825  0.000
  0.000  0.175  0.067  0.000  0.825
atom    2   Tr[ns(na)] =   8.03639
    eigenvalues: 
  0.565  0.566  0.961  0.963  0.963
    eigenvectors:
  0.000  0.000  0.941  0.051  0.008
  0.421  0.234  0.016  0.323  0.006
  0.235  0.421  0.005  0.004  0.335
  0.025  0.319  0.001  0.038  0.617
  0.319  0.025  0.038  0.583  0.034
    occupations:
  0.961  0.000  0.000  0.000  0.000
  0.000  0.703  0.000  0.067  0.176
  0.000  0.000  0.703  0.176 -0.068
  0.000  0.067  0.176  0.826  0.000
  0.000  0.176 -0.068  0.000  0.825
atom    3   Tr[ns(na)] =   3.79596
    eigenvalues: 
  0.355  0.355  0.383  0.402  0.402
    eigenvectors:
  0.000  0.000  1.000  0.000  0.000
  0.225  0.695  0.000  0.061  0.019
  0.695  0.225  0.000  0.019  0.061
  0.060  0.020  0.000  0.225  0.695
  0.020  0.060  0.000  0.695  0.225
    occupations:
  0.383  0.000  0.000  0.000  0.000
  0.000  0.359  0.000  0.000  0.013
  0.000  0.000  0.359  0.013  0.000
  0.000  0.000  0.013  0.399  0.000
  0.000  0.013  0.000  0.000  0.399
atom    4   Tr[ns(na)] =   3.79615
    eigenvalues: 
  0.355  0.355  0.383  0.402  0.403
    eigenvectors:
  0.000  0.000  1.000  0.000  0.000
  0.682  0.239  0.000  0.060  0.019
  0.240  0.681  0.000  0.019  0.061
  0.021  0.059  0.000  0.226  0.694
  0.057  0.021  0.000  0.696  0.225
    occupations:
  0.383  0.000  0.000  0.000  0.000
  0.000  0.359  0.000  0.000  0.013
  0.000  0.000  0.359  0.013  0.000
  0.000  0.000  0.013  0.399  0.000
  0.000  0.013  0.000  0.000  0.399
atom    5   Tr[ns(na)] =   5.44380
    eigenvalues: 
  0.847  0.931  0.944
    eigenvectors:
  0.339  0.000  0.661
  0.496  0.250  0.254
  0.165  0.750  0.085
    occupations:
  0.911 -0.040  0.023
 -0.040  0.893  0.022
  0.023  0.022  0.918
atom    6   Tr[ns(na)] =   5.43373
    eigenvalues: 
  0.844  0.930  0.943
    eigenvectors:
  0.339  0.000  0.661
  0.496  0.248  0.256
  0.165  0.751  0.083
    occupations:
  0.910  0.040  0.023
  0.040  0.891 -0.022
  0.023 -0.022  0.917
atom    7   Tr[ns(na)] =   5.43372
    eigenvalues: 
  0.844  0.930  0.943
    eigenvectors:
  0.339  0.000  0.661
  0.000  1.000  0.000
  0.661  0.000  0.339
    occupations:
  0.910  0.000 -0.047
  0.000  0.930  0.000
 -0.047  0.000  0.878
atom    8   Tr[ns(na)] =   5.43464
    eigenvalues: 
  0.844  0.930  0.943
    eigenvectors:
  0.339  0.000  0.661
  0.496  0.250  0.254
  0.165  0.750  0.085
    occupations:
  0.910 -0.040  0.023
 -0.040  0.891  0.022
  0.023  0.022  0.917
atom    9   Tr[ns(na)] =   5.43353
    eigenvalues: 
  0.844  0.929  0.943
    eigenvectors:
  0.339  0.000  0.661
  0.495  0.249  0.256
  0.166  0.751  0.084
    occupations:
  0.909  0.040  0.023
  0.040  0.891 -0.022
  0.023 -0.022  0.916
atom   10   Tr[ns(na)] =   5.43353
    eigenvalues: 
  0.844  0.929  0.943
    eigenvectors:
  0.339  0.000  0.661
  0.000  1.000  0.000
  0.661  0.000  0.339
    occupations:
  0.909  0.000 -0.047
  0.000  0.929  0.000
 -0.047  0.000  0.878
N of occupied +U levels =  56.2698016
 --- exit write_ns ---
 --- in v_hubbard ---
Hubbard energy    0.0335
 -------

     total cpu time spent up to now is      155.3 secs

     total energy              =    -538.30092893 Ry
     Harris-Foulkes estimate   =    -538.30098512 Ry
     estimated scf accuracy    <       0.00189847 Ry

     iteration #  3     ecut=    30.00 Ry     beta=0.20
     Davidson diagonalization with overlap
     ethr =  2.50E-06,  avg # of iterations =  1.0
 --- enter write_ns ---
 LDA+U parameters:
U( 1)     =  1.00000000
alpha( 1) =  0.00000000
U( 2)     =  0.00000000
alpha( 2) =  0.00000000
U( 3)     =  0.00000000
alpha( 3) = -0.15000000
U( 4)     =  0.00000000
alpha( 4) =  0.00000000
atom    1   Tr[ns(na)] =   8.05341
    eigenvalues: 
  0.570  0.571  0.961  0.962  0.963
    eigenvectors:
  0.000  0.000  0.931  0.060  0.009
  0.554  0.102  0.017  0.117  0.210
  0.102  0.554  0.006  0.207  0.131
  0.169  0.176  0.029  0.571  0.056
  0.176  0.169  0.017  0.045  0.594
    occupations:
  0.962  0.000  0.000  0.000  0.000
  0.000  0.705  0.000 -0.068  0.174
  0.000  0.000  0.706  0.174  0.067
  0.000 -0.068  0.174  0.827  0.000
  0.000  0.174  0.067  0.000  0.827
atom    2   Tr[ns(na)] =   8.03148
    eigenvalues: 
  0.566  0.567  0.960  0.961  0.961
    eigenvectors:
  0.000  0.000  0.964  0.032  0.004
  0.422  0.234  0.009  0.324  0.011
  0.234  0.422  0.003  0.010  0.332
  0.025  0.319  0.001  0.024  0.632
  0.319  0.026  0.023  0.611  0.022
    occupations:
  0.960  0.000  0.000  0.000  0.000
  0.000  0.702  0.000  0.067  0.176
  0.000  0.000  0.703  0.175 -0.067
  0.000  0.067  0.175  0.826  0.000
  0.000  0.176 -0.067  0.000  0.825
atom    3   Tr[ns(na)] =   3.79626
    eigenvalues: 
  0.355  0.355  0.383  0.402  0.402
    eigenvectors:
  0.000  0.000  1.000  0.000  0.000
  0.225  0.695  0.000  0.062  0.018
  0.695  0.225  0.000  0.018  0.062
  0.060  0.020  0.000  0.218  0.702
  0.020  0.060  0.000  0.702  0.218
    occupations:
  0.383  0.000  0.000  0.000  0.000
  0.000  0.359  0.000  0.000  0.013
  0.000  0.000  0.359  0.013  0.000
  0.000  0.000  0.013  0.399  0.000
  0.000  0.013  0.000  0.000  0.399
atom    4   Tr[ns(na)] =   3.79635
    eigenvalues: 
  0.355  0.355  0.383  0.402  0.402
    eigenvectors:
  0.000  0.000  1.000  0.000  0.000
  0.677  0.244  0.000  0.060  0.019
  0.244  0.676  0.000  0.019  0.061
  0.021  0.058  0.000  0.229  0.692
  0.057  0.022  0.000  0.693  0.228
    occupations:
  0.383  0.000  0.000  0.000  0.000
  0.000  0.359  0.000  0.000  0.013
  0.000  0.000  0.359  0.013  0.000
  0.000  0.000  0.013  0.399  0.000
  0.000  0.013  0.000  0.000  0.399
atom    5   Tr[ns(na)] =   5.44020
    eigenvalues: 
  0.846  0.931  0.944
    eigenvectors:
  0.339  0.000  0.661
  0.497  0.249  0.254
  0.164  0.751  0.085
    occupations:
  0.911 -0.040  0.023
 -0.040  0.892  0.022
  0.023  0.022  0.918
atom    6   Tr[ns(na)] =   5.43072
    eigenvalues: 
  0.843  0.929  0.943
    eigenvectors:
  0.339  0.000  0.661
  0.495  0.250  0.255
  0.166  0.750  0.084
    occupations:
  0.909  0.041  0.024
  0.041  0.890 -0.023
  0.024 -0.023  0.916
atom    7   Tr[ns(na)] =   5.43072
    eigenvalues: 
  0.843  0.929  0.943
    eigenvectors:
  0.339  0.000  0.661
  0.000  1.000  0.000
  0.661  0.000  0.339
    occupations:
  0.909  0.000 -0.047
  0.000  0.929  0.000
 -0.047  0.000  0.877
atom    8   Tr[ns(na)] =   5.43142
    eigenvalues: 
  0.844  0.929  0.943
    eigenvectors:
  0.339  0.000  0.661
  0.497  0.249  0.254
  0.164  0.751  0.085
    occupations:
  0.909 -0.041  0.023
 -0.041  0.890  0.022
  0.023  0.022  0.916
atom    9   Tr[ns(na)] =   5.43060
    eigenvalues: 
  0.843  0.929  0.943
    eigenvectors:
  0.340  0.000  0.660
  0.493  0.251  0.256
  0.167  0.749  0.084
    occupations:
  0.909  0.041  0.024
  0.041  0.890 -0.023
  0.024 -0.023  0.916
atom   10   Tr[ns(na)] =   5.43059
    eigenvalues: 
  0.843  0.929  0.943
    eigenvectors:
  0.340  0.000  0.660
  0.000  1.000  0.000
  0.660  0.000  0.340
    occupations:
  0.909  0.000 -0.047
  0.000  0.929  0.000
 -0.047  0.000  0.877
N of occupied +U levels =  56.2717292
 --- exit write_ns ---
 --- in v_hubbard ---
Hubbard energy    0.0325
 -------

     total cpu time spent up to now is      188.4 secs

     total energy              =    -538.30093160 Ry
     Harris-Foulkes estimate   =    -538.30098632 Ry
     estimated scf accuracy    <       0.00126967 Ry

     iteration #  4     ecut=    30.00 Ry     beta=0.20
     Davidson diagonalization with overlap
     ethr =  1.67E-06,  avg # of iterations =  1.0
 --- enter write_ns ---
 LDA+U parameters:
U( 1)     =  1.00000000
alpha( 1) =  0.00000000
U( 2)     =  0.00000000
alpha( 2) =  0.00000000
U( 3)     =  0.00000000
alpha( 3) = -0.15000000
U( 4)     =  0.00000000
alpha( 4) =  0.00000000
atom    1   Tr[ns(na)] =   8.01017
    eigenvalues: 
  0.565  0.566  0.957  0.958  0.959
    eigenvectors:
  0.000  0.000  0.969  0.029  0.003
  0.553  0.103  0.008  0.149  0.187
  0.103  0.553  0.003  0.186  0.156
  0.168  0.177  0.013  0.555  0.088
  0.177  0.167  0.008  0.082  0.566
    occupations:
  0.957  0.000  0.000  0.000  0.000
  0.000  0.701  0.000 -0.067  0.174
  0.000  0.000  0.701  0.174  0.066
  0.000 -0.067  0.174  0.823  0.000
  0.000  0.174  0.066  0.000  0.823
atom    2   Tr[ns(na)] =   8.07568
    eigenvalues: 
  0.571  0.572  0.964  0.965  0.965
    eigenvectors:
  0.000  0.000  0.937  0.055  0.008
  0.421  0.235  0.016  0.320  0.008
  0.235  0.421  0.005  0.006  0.333
  0.025  0.320  0.001  0.034  0.621
  0.320  0.025  0.040  0.586  0.030
    occupations:
  0.964  0.000  0.000  0.000  0.000
  0.000  0.707  0.000  0.068  0.175
  0.000  0.000  0.707  0.174 -0.068
  0.000  0.068  0.174  0.830  0.000
  0.000  0.175 -0.068  0.000  0.829
atom    3   Tr[ns(na)] =   3.79657
    eigenvalues: 
  0.355  0.355  0.383  0.402  0.402
    eigenvectors:
  0.000  0.000  1.000  0.000  0.000
  0.227  0.693  0.000  0.064  0.016
  0.693  0.227  0.000  0.016  0.064
  0.060  0.020  0.000  0.189  0.731
  0.020  0.060  0.000  0.731  0.189
    occupations:
  0.383  0.000  0.000  0.000  0.000
  0.000  0.359  0.000  0.000  0.013
  0.000  0.000  0.359  0.013  0.000
  0.000  0.000  0.013  0.399  0.000
  0.000  0.013  0.000  0.000  0.399
atom    4   Tr[ns(na)] =   3.79661
    eigenvalues: 
  0.355  0.355  0.383  0.402  0.402
    eigenvectors:
  0.000  0.000  1.000  0.000  0.000
  0.668  0.253  0.000  0.060  0.019
  0.253  0.667  0.000  0.019  0.061
  0.022  0.057  0.000  0.225  0.696
  0.056  0.022  0.000  0.697  0.224
    occupations:
  0.383  0.000  0.000  0.000  0.000
  0.000  0.359  0.000  0.000  0.013
  0.000  0.000  0.359  0.013  0.000
  0.000  0.000  0.013  0.399  0.000
  0.000  0.013  0.000  0.000  0.399
atom    5   Tr[ns(na)] =   5.43969
    eigenvalues: 
  0.846  0.930  0.944
    eigenvectors:
  0.339  0.000  0.661
  0.494  0.253  0.253
  0.167  0.747  0.086
    occupations:
  0.910 -0.040  0.023
 -0.040  0.892  0.022
  0.023  0.022  0.917
atom    6   Tr[ns(na)] =   5.43052
    eigenvalues: 
  0.843  0.929  0.943
    eigenvectors:
  0.339  0.000  0.661
  0.498  0.245  0.257
  0.163  0.755  0.083
    occupations:
  0.909  0.041  0.023
  0.041  0.890 -0.022
  0.023 -0.022  0.916
atom    7   Tr[ns(na)] =   5.43052
    eigenvalues: 
  0.843  0.929  0.943
    eigenvectors:
  0.339  0.000  0.661
  0.000  1.000  0.000
  0.661  0.000  0.339
    occupations:
  0.909  0.000 -0.047
  0.000  0.929  0.000
 -0.047  0.000  0.877
atom    8   Tr[ns(na)] =   5.43105
    eigenvalues: 
  0.843  0.929  0.943
    eigenvectors:
  0.339  0.000  0.661
  0.493  0.253  0.253
  0.167  0.747  0.086
    occupations:
  0.909 -0.041  0.024
 -0.041  0.890  0.023
  0.024  0.023  0.916
atom    9   Tr[ns(na)] =   5.43045
    eigenvalues: 
  0.843  0.929  0.943
    eigenvectors:
  0.340  0.000  0.660
  0.497  0.246  0.257
  0.163  0.754  0.083
    occupations:
  0.909  0.041  0.023
  0.041  0.890 -0.022
  0.023 -0.022  0.916
atom   10   Tr[ns(na)] =   5.43044
    eigenvalues: 
  0.843  0.929  0.943
    eigenvectors:
  0.340  0.000  0.660
  0.000  1.000  0.000
  0.660  0.000  0.340
    occupations:
  0.909  0.000 -0.047
  0.000  0.929  0.000
 -0.047  0.000  0.877
N of occupied +U levels =  56.2717173
 --- exit write_ns ---
 --- in v_hubbard ---
Hubbard energy    0.0295
 -------

     total cpu time spent up to now is      223.8 secs

     total energy              =    -538.30091038 Ry
     Harris-Foulkes estimate   =    -538.30109709 Ry
     estimated scf accuracy    <       0.00301424 Ry

     iteration #  5     ecut=    30.00 Ry     beta=0.20
     Davidson diagonalization with overlap
     ethr =  1.67E-06,  avg # of iterations =  1.0
 --- enter write_ns ---
 LDA+U parameters:
U( 1)     =  1.00000000
alpha( 1) =  0.00000000
U( 2)     =  0.00000000
alpha( 2) =  0.00000000
U( 3)     =  0.00000000
alpha( 3) = -0.15000000
U( 4)     =  0.00000000
alpha( 4) =  0.00000000
atom    1   Tr[ns(na)] =   8.04425
    eigenvalues: 
  0.568  0.569  0.961  0.962  0.962
    eigenvectors:
  0.000  0.000  0.963  0.034  0.003
  0.554  0.102  0.010  0.157  0.177
  0.102  0.554  0.003  0.175  0.166
  0.169  0.175  0.015  0.542  0.099
  0.175  0.169  0.010  0.091  0.556
    occupations:
  0.961  0.000  0.000  0.000  0.000
  0.000  0.704  0.000 -0.068  0.174
  0.000  0.000  0.704  0.174  0.067
  0.000 -0.068  0.174  0.827  0.000
  0.000  0.174  0.067  0.000  0.827
atom    2   Tr[ns(na)] =   8.03981
    eigenvalues: 
  0.566  0.567  0.961  0.963  0.963
    eigenvectors:
  0.000  0.000  0.971  0.026  0.002
  0.422  0.234  0.007  0.314  0.022
  0.234  0.423  0.002  0.021  0.320
  0.025  0.319  0.001  0.008  0.647
  0.319  0.025  0.018  0.630  0.008
    occupations:
  0.961  0.000  0.000  0.000  0.000
  0.000  0.703  0.000  0.067  0.176
  0.000  0.000  0.703  0.175 -0.067
  0.000  0.067  0.175  0.827  0.000
  0.000  0.176 -0.067  0.000  0.826
atom    3   Tr[ns(na)] =   3.79734
    eigenvalues: 
  0.355  0.355  0.383  0.402  0.402
    eigenvectors:
  0.000  0.000  1.000  0.000  0.000
  0.227  0.693  0.000  0.056  0.024
  0.694  0.227  0.000  0.024  0.056
  0.059  0.020  0.000  0.281  0.639
  0.020  0.059  0.000  0.639  0.281
    occupations:
  0.383  0.000  0.000  0.000  0.000
  0.000  0.359  0.000  0.000  0.013
  0.000  0.000  0.359  0.013  0.000
  0.000  0.000  0.013  0.399  0.000
  0.000  0.013  0.000  0.000  0.399
atom    4   Tr[ns(na)] =   3.79736
    eigenvalues: 
  0.355  0.355  0.383  0.402  0.403
    eigenvectors:
  0.000  0.000  1.000  0.000  0.000
  0.647  0.275  0.000  0.058  0.020
  0.275  0.646  0.000  0.019  0.060
  0.024  0.055  0.000  0.238  0.683
  0.054  0.024  0.000  0.685  0.237
    occupations:
  0.383  0.000  0.000  0.000  0.000
  0.000  0.359  0.000  0.000  0.013
  0.000  0.000  0.359  0.013  0.000
  0.000  0.000  0.013  0.399  0.000
  0.000  0.013  0.000  0.000  0.399
atom    5   Tr[ns(na)] =   5.43965
    eigenvalues: 
  0.846  0.930  0.944
    eigenvectors:
  0.339  0.000  0.661
  0.496  0.250  0.254
  0.165  0.750  0.085
    occupations:
  0.910 -0.040  0.023
 -0.040  0.892  0.022
  0.023  0.022  0.918
atom    6   Tr[ns(na)] =   5.43067
    eigenvalues: 
  0.843  0.929  0.943
    eigenvectors:
  0.339  0.000  0.661
  0.495  0.249  0.256
  0.166  0.751  0.083
    occupations:
  0.909  0.041  0.023
  0.041  0.890 -0.023
  0.023 -0.023  0.916
atom    7   Tr[ns(na)] =   5.43067
    eigenvalues: 
  0.843  0.929  0.943
    eigenvectors:
  0.339  0.000  0.661
  0.000  1.000  0.000
  0.661  0.000  0.339
    occupations:
  0.909  0.000 -0.047
  0.000  0.929  0.000
 -0.047  0.000  0.877
atom    8   Tr[ns(na)] =   5.43078
    eigenvalues: 
  0.843  0.929  0.943
    eigenvectors:
  0.339  0.000  0.661
  0.496  0.250  0.254
  0.165  0.750  0.085
    occupations:
  0.909 -0.041  0.024
 -0.041  0.890  0.023
  0.024  0.023  0.916
atom    9   Tr[ns(na)] =   5.43067
    eigenvalues: 
  0.843  0.929  0.943
    eigenvectors:
  0.340  0.000  0.660
  0.494  0.250  0.256
  0.166  0.750  0.084
    occupations:
  0.909  0.041  0.024
  0.041  0.890 -0.023
  0.024 -0.023  0.916
atom   10   Tr[ns(na)] =   5.43068
    eigenvalues: 
  0.843  0.929  0.943
    eigenvectors:
  0.340  0.000  0.660
  0.000  1.000  0.000
  0.660  0.000  0.340
    occupations:
  0.909  0.000 -0.047
  0.000  0.929  0.000
 -0.047  0.000  0.877
N of occupied +U levels =  56.2718782
 --- exit write_ns ---
 --- in v_hubbard ---
Hubbard energy    0.0284
 -------

     total cpu time spent up to now is      247.3 secs

     total energy              =    -538.30101303 Ry
     Harris-Foulkes estimate   =    -538.30102077 Ry
     estimated scf accuracy    <       0.00006025 Ry

     iteration #  6     ecut=    30.00 Ry     beta=0.20
     Davidson diagonalization with overlap
     ethr =  7.93E-08,  avg # of iterations =  1.0
 --- enter write_ns ---
 LDA+U parameters:
U( 1)     =  1.00000000
alpha( 1) =  0.00000000
U( 2)     =  0.00000000
alpha( 2) =  0.00000000
U( 3)     =  0.00000000
alpha( 3) = -0.15000000
U( 4)     =  0.00000000
alpha( 4) =  0.00000000
atom    1   Tr[ns(na)] =   8.04255
    eigenvalues: 
  0.568  0.569  0.961  0.962  0.962
    eigenvectors:
  0.000  0.000  0.955  0.041  0.004
  0.554  0.102  0.012  0.157  0.174
  0.102  0.554  0.004  0.172  0.168
  0.169  0.175  0.018  0.537  0.102
  0.175  0.169  0.012  0.092  0.552
    occupations:
  0.961  0.000  0.000  0.000  0.000
  0.000  0.703  0.000 -0.068  0.175
  0.000  0.000  0.704  0.174  0.067
  0.000 -0.068  0.174  0.827  0.000
  0.000  0.175  0.067  0.000  0.827
atom    2   Tr[ns(na)] =   8.04128
    eigenvalues: 
  0.566  0.567  0.961  0.963  0.963
    eigenvectors:
  0.000  0.000  0.964  0.033  0.003
  0.422  0.234  0.009  0.312  0.023
  0.234  0.422  0.003  0.020  0.320
  0.025  0.319  0.001  0.008  0.647
  0.319  0.025  0.023  0.626  0.007
    occupations:
  0.961  0.000  0.000  0.000  0.000
  0.000  0.703  0.000  0.067  0.176
  0.000  0.000  0.703  0.176 -0.068
  0.000  0.067  0.176  0.827  0.000
  0.000  0.176 -0.068  0.000  0.826
atom    3   Tr[ns(na)] =   3.79736
    eigenvalues: 
  0.355  0.355  0.383  0.402  0.402
    eigenvectors:
  0.000  0.000  1.000  0.000  0.000
  0.228  0.693  0.000  0.063  0.017
  0.693  0.228  0.000  0.017  0.063
  0.059  0.020  0.000  0.198  0.722
  0.020  0.059  0.000  0.722  0.198
    occupations:
  0.383  0.000  0.000  0.000  0.000
  0.000  0.359  0.000  0.000  0.013
  0.000  0.000  0.359  0.013  0.000
  0.000  0.000  0.013  0.399  0.000
  0.000  0.013  0.000  0.000  0.399
atom    4   Tr[ns(na)] =   3.79738
    eigenvalues: 
  0.355  0.355  0.383  0.402  0.403
    eigenvectors:
  0.000  0.000  1.000  0.000  0.000
  0.614  0.308  0.000  0.059  0.019
  0.308  0.613  0.000  0.019  0.060
  0.027  0.052  0.000  0.229  0.692
  0.051  0.027  0.000  0.693  0.229
    occupations:
  0.383  0.000  0.000  0.000  0.000
  0.000  0.359  0.000  0.000  0.013
  0.000  0.000  0.359  0.013  0.000
  0.000  0.000  0.013  0.399  0.000
  0.000  0.013  0.000  0.000  0.399
atom    5   Tr[ns(na)] =   5.43981
    eigenvalues: 
  0.846  0.930  0.944
    eigenvectors:
  0.339  0.000  0.661
  0.496  0.250  0.254
  0.165  0.750  0.085
    occupations:
  0.910 -0.040  0.023
 -0.040  0.892  0.022
  0.023  0.022  0.918
atom    6   Tr[ns(na)] =   5.43063
    eigenvalues: 
  0.843  0.929  0.943
    eigenvectors:
  0.339  0.000  0.661
  0.495  0.249  0.256
  0.165  0.751  0.083
    occupations:
  0.909  0.041  0.023
  0.041  0.890 -0.023
  0.023 -0.023  0.916
atom    7   Tr[ns(na)] =   5.43063
    eigenvalues: 
  0.843  0.929  0.943
    eigenvectors:
  0.339  0.000  0.661
  0.000  1.000  0.000
  0.661  0.000  0.339
    occupations:
  0.909  0.000 -0.047
  0.000  0.929  0.000
 -0.047  0.000  0.877
atom    8   Tr[ns(na)] =   5.43103
    eigenvalues: 
  0.843  0.929  0.943
    eigenvectors:
  0.339  0.000  0.661
  0.496  0.250  0.254
  0.165  0.750  0.085
    occupations:
  0.909 -0.041  0.024
 -0.041  0.890  0.023
  0.024  0.023  0.916
atom    9   Tr[ns(na)] =   5.43056
    eigenvalues: 
  0.843  0.929  0.943
    eigenvectors:
  0.340  0.000  0.660
  0.494  0.249  0.256
  0.166  0.751  0.084
    occupations:
  0.909  0.041  0.024
  0.041  0.890 -0.023
  0.024 -0.023  0.916
atom   10   Tr[ns(na)] =   5.43055
    eigenvalues: 
  0.843  0.929  0.943
    eigenvectors:
  0.340  0.000  0.660
  0.000  1.000  0.000
  0.660  0.000  0.340
    occupations:
  0.909  0.000 -0.047
  0.000  0.929  0.000
 -0.047  0.000  0.877
N of occupied +U levels =  56.2717810
 --- exit write_ns ---
 --- in v_hubbard ---
Hubbard energy    0.0283
 -------

     total cpu time spent up to now is      271.2 secs

     total energy              =    -538.30102411 Ry
     Harris-Foulkes estimate   =    -538.30101433 Ry
     estimated scf accuracy    <       0.00000262 Ry

     iteration #  7     ecut=    30.00 Ry     beta=0.20
     Davidson diagonalization with overlap
     ethr =  3.45E-09,  avg # of iterations =  2.9
 --- enter write_ns ---
 LDA+U parameters:
U( 1)     =  1.00000000
alpha( 1) =  0.00000000
U( 2)     =  0.00000000
alpha( 2) =  0.00000000
U( 3)     =  0.00000000
alpha( 3) = -0.15000000
U( 4)     =  0.00000000
alpha( 4) =  0.00000000
atom    1   Tr[ns(na)] =   8.04236
    eigenvalues: 
  0.568  0.569  0.961  0.962  0.962
    eigenvectors:
  0.000  0.000  0.948  0.047  0.004
  0.554  0.102  0.013  0.151  0.179
  0.102  0.553  0.004  0.177  0.163
  0.169  0.175  0.021  0.540  0.095
  0.175  0.169  0.014  0.085  0.558
    occupations:
  0.961  0.000  0.000  0.000  0.000
  0.000  0.703  0.000 -0.068  0.175
  0.000  0.000  0.704  0.174  0.067
  0.000 -0.068  0.174  0.826  0.000
  0.000  0.175  0.067  0.000  0.827
atom    2   Tr[ns(na)] =   8.04153
    eigenvalues: 
  0.566  0.567  0.961  0.963  0.963
    eigenvectors:
  0.000  0.000  0.960  0.037  0.003
  0.422  0.234  0.010  0.314  0.020
  0.234  0.422  0.004  0.018  0.322
  0.025  0.319  0.001  0.011  0.645
  0.319  0.025  0.026  0.621  0.009
    occupations:
  0.961  0.000  0.000  0.000  0.000
  0.000  0.703  0.000  0.067  0.176
  0.000  0.000  0.703  0.176 -0.068
  0.000  0.067  0.176  0.827  0.000
  0.000  0.176 -0.068  0.000  0.826
atom    3   Tr[ns(na)] =   3.79702
    eigenvalues: 
  0.355  0.355  0.383  0.402  0.402
    eigenvectors:
  0.000  0.000  1.000  0.000  0.000
  0.228  0.692  0.000  0.063  0.017
  0.692  0.228  0.000  0.017  0.063
  0.059  0.020  0.000  0.201  0.719
  0.020  0.059  0.000  0.719  0.202
    occupations:
  0.383  0.000  0.000  0.000  0.000
  0.000  0.359  0.000  0.000  0.013
  0.000  0.000  0.359  0.013  0.000
  0.000  0.000  0.013  0.399  0.000
  0.000  0.013  0.000  0.000  0.399
atom    4   Tr[ns(na)] =   3.79705
    eigenvalues: 
  0.355  0.355  0.383  0.402  0.403
    eigenvectors:
  0.000  0.000  1.000  0.000  0.000
  0.422  0.500  0.000  0.059  0.019
  0.500  0.421  0.000  0.019  0.060
  0.043  0.036  0.000  0.232  0.689
  0.035  0.043  0.000  0.690  0.232
    occupations:
  0.383  0.000  0.000  0.000  0.000
  0.000  0.359  0.000  0.000  0.013
  0.000  0.000  0.359  0.013  0.000
  0.000  0.000  0.013  0.399  0.000
  0.000  0.013  0.000  0.000  0.399
atom    5   Tr[ns(na)] =   5.43989
    eigenvalues: 
  0.846  0.930  0.944
    eigenvectors:
  0.339  0.000  0.661
  0.496  0.250  0.254
  0.165  0.750  0.085
    occupations:
  0.910 -0.040  0.023
 -0.040  0.892  0.022
  0.023  0.022  0.918
atom    6   Tr[ns(na)] =   5.43068
    eigenvalues: 
  0.843  0.929  0.943
    eigenvectors:
  0.339  0.000  0.661
  0.495  0.249  0.256
  0.165  0.751  0.083
    occupations:
  0.909  0.041  0.023
  0.041  0.890 -0.023
  0.023 -0.023  0.916
atom    7   Tr[ns(na)] =   5.43068
    eigenvalues: 
  0.843  0.929  0.943
    eigenvectors:
  0.339  0.000  0.661
  0.000  1.000  0.000
  0.661  0.000  0.339
    occupations:
  0.909  0.000 -0.047
  0.000  0.929  0.000
 -0.047  0.000  0.877
atom    8   Tr[ns(na)] =   5.43120
    eigenvalues: 
  0.844  0.929  0.943
    eigenvectors:
  0.339  0.000  0.661
  0.496  0.250  0.254
  0.165  0.750  0.085
    occupations:
  0.909 -0.041  0.024
 -0.041  0.890  0.022
  0.024  0.022  0.916
atom    9   Tr[ns(na)] =   5.43060
    eigenvalues: 
  0.843  0.929  0.943
    eigenvectors:
  0.340  0.000  0.660
  0.494  0.249  0.256
  0.166  0.751  0.084
    occupations:
  0.909  0.041  0.024
  0.041  0.890 -0.023
  0.024 -0.023  0.916
atom   10   Tr[ns(na)] =   5.43060
    eigenvalues: 
  0.843  0.929  0.943
    eigenvectors:
  0.340  0.000  0.660
  0.000  1.000  0.000
  0.660  0.000  0.340
    occupations:
  0.909  0.000 -0.047
  0.000  0.929  0.000
 -0.047  0.000  0.877
N of occupied +U levels =  56.2715989
 --- exit write_ns ---
 --- in v_hubbard ---
Hubbard energy    0.0283
 -------

     total cpu time spent up to now is      300.2 secs

     total energy              =    -538.30103190 Ry
     Harris-Foulkes estimate   =    -538.30102447 Ry
     estimated scf accuracy    <       0.00000040 Ry

     iteration #  8     ecut=    30.00 Ry     beta=0.20
     Davidson diagonalization with overlap
     ethr =  5.28E-10,  avg # of iterations =  2.0
 --- enter write_ns ---
 LDA+U parameters:
U( 1)     =  1.00000000
alpha( 1) =  0.00000000
U( 2)     =  0.00000000
alpha( 2) =  0.00000000
U( 3)     =  0.00000000
alpha( 3) = -0.15000000
U( 4)     =  0.00000000
alpha( 4) =  0.00000000
atom    1   Tr[ns(na)] =   8.04233
    eigenvalues: 
  0.568  0.569  0.961  0.962  0.962
    eigenvectors:
  0.000  0.000  0.947  0.048  0.005
  0.554  0.102  0.014  0.148  0.182
  0.102  0.553  0.005  0.179  0.160
  0.169  0.176  0.021  0.543  0.092
  0.175  0.169  0.014  0.081  0.561
    occupations:
  0.961  0.000  0.000  0.000  0.000
  0.000  0.703  0.000 -0.068  0.175
  0.000  0.000  0.704  0.174  0.067
  0.000 -0.068  0.174  0.826  0.000
  0.000  0.175  0.067  0.000  0.827
atom    2   Tr[ns(na)] =   8.04175
    eigenvalues: 
  0.566  0.567  0.961  0.963  0.963
    eigenvectors:
  0.000  0.000  0.959  0.037  0.003
  0.422  0.234  0.010  0.315  0.019
  0.234  0.422  0.004  0.017  0.324
  0.025  0.319  0.001  0.012  0.643
  0.319  0.025  0.026  0.619  0.011
    occupations:
  0.962  0.000  0.000  0.000  0.000
  0.000  0.703  0.000  0.067  0.176
  0.000  0.000  0.703  0.176 -0.068
  0.000  0.067  0.176  0.827  0.000
  0.000  0.176 -0.068  0.000  0.826
atom    3   Tr[ns(na)] =   3.79687
    eigenvalues: 
  0.355  0.355  0.383  0.402  0.402
    eigenvectors:
  0.000  0.000  1.000  0.000  0.000
  0.229  0.692  0.000  0.066  0.013
  0.692  0.229  0.000  0.013  0.066
  0.059  0.020  0.000  0.158  0.762
  0.020  0.059  0.000  0.762  0.158
    occupations:
  0.383  0.000  0.000  0.000  0.000
  0.000  0.359  0.000  0.000  0.013
  0.000  0.000  0.359  0.013  0.000
  0.000  0.000  0.013  0.399  0.000
  0.000  0.013  0.000  0.000  0.399
atom    4   Tr[ns(na)] =   3.79691
    eigenvalues: 
  0.355  0.355  0.383  0.402  0.403
    eigenvectors:
  0.000  0.000  1.000  0.000  0.000
  0.428  0.494  0.000  0.059  0.019
  0.494  0.427  0.000  0.019  0.060
  0.043  0.036  0.000  0.232  0.689
  0.035  0.043  0.000  0.690  0.231
    occupations:
  0.383  0.000  0.000  0.000  0.000
  0.000  0.359  0.000  0.000  0.013
  0.000  0.000  0.359  0.013  0.000
  0.000  0.000  0.013  0.399  0.000
  0.000  0.013  0.000  0.000  0.399
atom    5   Tr[ns(na)] =   5.43992
    eigenvalues: 
  0.846  0.930  0.944
    eigenvectors:
  0.339  0.000  0.661
  0.496  0.250  0.254
  0.165  0.750  0.085
    occupations:
  0.910 -0.040  0.023
 -0.040  0.892  0.022
  0.023  0.022  0.918
atom    6   Tr[ns(na)] =   5.43069
    eigenvalues: 
  0.843  0.929  0.943
    eigenvectors:
  0.339  0.000  0.661
  0.495  0.249  0.256
  0.165  0.751  0.083
    occupations:
  0.909  0.041  0.023
  0.041  0.890 -0.023
  0.023 -0.023  0.916
atom    7   Tr[ns(na)] =   5.43069
    eigenvalues: 
  0.843  0.929  0.943
    eigenvectors:
  0.339  0.000  0.661
  0.000  1.000  0.000
  0.661  0.000  0.339
    occupations:
  0.909  0.000 -0.047
  0.000  0.929  0.000
 -0.047  0.000  0.877
atom    8   Tr[ns(na)] =   5.43115
    eigenvalues: 
  0.843  0.929  0.943
    eigenvectors:
  0.340  0.000  0.660
  0.496  0.250  0.254
  0.165  0.750  0.085
    occupations:
  0.909 -0.041  0.024
 -0.041  0.890  0.022
  0.024  0.022  0.916
atom    9   Tr[ns(na)] =   5.43061
    eigenvalues: 
  0.843  0.929  0.943
    eigenvectors:
  0.340  0.000  0.660
  0.494  0.250  0.256
  0.166  0.750  0.084
    occupations:
  0.909  0.041  0.024
  0.041  0.890 -0.023
  0.024 -0.023  0.916
atom   10   Tr[ns(na)] =   5.43061
    eigenvalues: 
  0.843  0.929  0.943
    eigenvectors:
  0.340  0.000  0.660
  0.000  1.000  0.000
  0.660  0.000  0.340
    occupations:
  0.909  0.000 -0.047
  0.000  0.929  0.000
 -0.047  0.000  0.877
N of occupied +U levels =  56.2715313
 --- exit write_ns ---
 --- in v_hubbard ---
Hubbard energy    0.0283
 -------

     total cpu time spent up to now is      326.3 secs

     total energy              =    -538.30103685 Ry
     Harris-Foulkes estimate   =    -538.30103195 Ry
     estimated scf accuracy    <       0.00000009 Ry

     iteration #  9     ecut=    30.00 Ry     beta=0.20
     Davidson diagonalization with overlap
     ethr =  1.21E-10,  avg # of iterations =  2.0
 --- enter write_ns ---
 LDA+U parameters:
U( 1)     =  1.00000000
alpha( 1) =  0.00000000
U( 2)     =  0.00000000
alpha( 2) =  0.00000000
U( 3)     =  0.00000000
alpha( 3) = -0.15000000
U( 4)     =  0.00000000
alpha( 4) =  0.00000000
atom    1   Tr[ns(na)] =   8.04245
    eigenvalues: 
  0.568  0.569  0.961  0.962  0.962
    eigenvectors:
  0.000  0.000  0.948  0.047  0.005
  0.554  0.102  0.013  0.147  0.183
  0.102  0.553  0.004  0.181  0.159
  0.169  0.176  0.021  0.545  0.090
  0.175  0.169  0.013  0.080  0.563
    occupations:
  0.961  0.000  0.000  0.000  0.000
  0.000  0.703  0.000 -0.068  0.175
  0.000  0.000  0.704  0.174  0.067
  0.000 -0.068  0.174  0.826  0.000
  0.000  0.175  0.067  0.000  0.827
atom    2   Tr[ns(na)] =   8.04158
    eigenvalues: 
  0.566  0.567  0.961  0.963  0.963
    eigenvectors:
  0.000  0.000  0.960  0.037  0.003
  0.422  0.234  0.010  0.316  0.018
  0.234  0.422  0.003  0.016  0.324
  0.025  0.319  0.001  0.013  0.642
  0.319  0.025  0.026  0.619  0.011
    occupations:
  0.961  0.000  0.000  0.000  0.000
  0.000  0.703  0.000  0.067  0.176
  0.000  0.000  0.703  0.176 -0.068
  0.000  0.067  0.176  0.827  0.000
  0.000  0.176 -0.068  0.000  0.826
atom    3   Tr[ns(na)] =   3.79695
    eigenvalues: 
  0.355  0.355  0.383  0.402  0.402
    eigenvectors:
  0.000  0.000  1.000  0.000  0.000
  0.229  0.692  0.000  0.066  0.014
  0.692  0.229  0.000  0.014  0.066
  0.059  0.020  0.000  0.167  0.754
  0.020  0.059  0.000  0.754  0.167
    occupations:
  0.383  0.000  0.000  0.000  0.000
  0.000  0.359  0.000  0.000  0.013
  0.000  0.000  0.359  0.013  0.000
  0.000  0.000  0.013  0.399  0.000
  0.000  0.013  0.000  0.000  0.399
atom    4   Tr[ns(na)] =   3.79699
    eigenvalues: 
  0.355  0.355  0.383  0.402  0.403
    eigenvectors:
  0.000  0.000  1.000  0.000  0.000
  0.342  0.580  0.000  0.059  0.019
  0.580  0.341  0.000  0.019  0.060
  0.050  0.029  0.000  0.232  0.689
  0.028  0.050  0.000  0.690  0.232
    occupations:
  0.383  0.000  0.000  0.000  0.000
  0.000  0.359  0.000  0.000  0.013
  0.000  0.000  0.359  0.013  0.000
  0.000  0.000  0.013  0.399  0.000
  0.000  0.013  0.000  0.000  0.399
atom    5   Tr[ns(na)] =   5.43989
    eigenvalues: 
  0.846  0.930  0.944
    eigenvectors:
  0.339  0.000  0.661
  0.496  0.250  0.254
  0.165  0.750  0.085
    occupations:
  0.910 -0.040  0.023
 -0.040  0.892  0.022
  0.023  0.022  0.918
atom    6   Tr[ns(na)] =   5.43068
    eigenvalues: 
  0.843  0.929  0.943
    eigenvectors:
  0.339  0.000  0.661
  0.495  0.249  0.256
  0.165  0.751  0.083
    occupations:
  0.909  0.041  0.023
  0.041  0.890 -0.023
  0.023 -0.023  0.916
atom    7   Tr[ns(na)] =   5.43068
    eigenvalues: 
  0.843  0.929  0.943
    eigenvectors:
  0.339  0.000  0.661
  0.000  1.000  0.000
  0.661  0.000  0.339
    occupations:
  0.909  0.000 -0.047
  0.000  0.929  0.000
 -0.047  0.000  0.877
atom    8   Tr[ns(na)] =   5.43115
    eigenvalues: 
  0.843  0.929  0.943
    eigenvectors:
  0.340  0.000  0.660
  0.496  0.250  0.254
  0.165  0.750  0.085
    occupations:
  0.909 -0.041  0.024
 -0.041  0.890  0.022
  0.024  0.022  0.916
atom    9   Tr[ns(na)] =   5.43060
    eigenvalues: 
  0.843  0.929  0.943
    eigenvectors:
  0.340  0.000  0.660
  0.494  0.250  0.256
  0.166  0.750  0.084
    occupations:
  0.909  0.041  0.024
  0.041  0.890 -0.023
  0.024 -0.023  0.916
atom   10   Tr[ns(na)] =   5.43060
    eigenvalues: 
  0.843  0.929  0.943
    eigenvectors:
  0.340  0.000  0.660
  0.000  1.000  0.000
  0.660  0.000  0.340
    occupations:
  0.909  0.000 -0.047
  0.000  0.929  0.000
 -0.047  0.000  0.877
N of occupied +U levels =  56.2715764
 --- exit write_ns ---
 --- in v_hubbard ---
Hubbard energy    0.0283
 -------

     total cpu time spent up to now is      351.5 secs

     total energy              =    -538.30104008 Ry
     Harris-Foulkes estimate   =    -538.30103686 Ry
     estimated scf accuracy    <       0.00000002 Ry

     iteration # 10     ecut=    30.00 Ry     beta=0.20
     Davidson diagonalization with overlap
     ethr =  3.05E-11,  avg # of iterations =  1.3
 --- enter write_ns ---
 LDA+U parameters:
U( 1)     =  1.00000000
alpha( 1) =  0.00000000
U( 2)     =  0.00000000
alpha( 2) =  0.00000000
U( 3)     =  0.00000000
alpha( 3) = -0.15000000
U( 4)     =  0.00000000
alpha( 4) =  0.00000000
atom    1   Tr[ns(na)] =   8.04240
    eigenvalues: 
  0.568  0.569  0.961  0.962  0.962
    eigenvectors:
  0.000  0.000  0.948  0.047  0.005
  0.554  0.102  0.013  0.147  0.183
  0.102  0.553  0.004  0.181  0.159
  0.169  0.176  0.021  0.545  0.090
  0.175  0.169  0.013  0.079  0.563
    occupations:
  0.961  0.000  0.000  0.000  0.000
  0.000  0.703  0.000 -0.068  0.175
  0.000  0.000  0.704  0.174  0.067
  0.000 -0.068  0.174  0.826  0.000
  0.000  0.175  0.067  0.000  0.827
atom    2   Tr[ns(na)] =   8.04167
    eigenvalues: 
  0.566  0.567  0.961  0.963  0.963
    eigenvectors:
  0.000  0.000  0.960  0.037  0.003
  0.422  0.234  0.010  0.316  0.018
  0.234  0.422  0.003  0.016  0.324
  0.025  0.319  0.001  0.013  0.642
  0.319  0.025  0.026  0.619  0.012
    occupations:
  0.962  0.000  0.000  0.000  0.000
  0.000  0.703  0.000  0.067  0.176
  0.000  0.000  0.703  0.176 -0.068
  0.000  0.067  0.176  0.827  0.000
  0.000  0.176 -0.068  0.000  0.826
atom    3   Tr[ns(na)] =   3.79694
    eigenvalues: 
  0.355  0.355  0.383  0.402  0.402
    eigenvectors:
  0.000  0.000  1.000  0.000  0.000
  0.229  0.692  0.000  0.066  0.014
  0.692  0.229  0.000  0.014  0.066
  0.059  0.020  0.000  0.168  0.752
  0.020  0.059  0.000  0.752  0.168
    occupations:
  0.383  0.000  0.000  0.000  0.000
  0.000  0.359  0.000  0.000  0.013
  0.000  0.000  0.359  0.013  0.000
  0.000  0.000  0.013  0.399  0.000
  0.000  0.013  0.000  0.000  0.399
atom    4   Tr[ns(na)] =   3.79699
    eigenvalues: 
  0.355  0.355  0.383  0.402  0.403
    eigenvectors:
  0.000  0.000  1.000  0.000  0.000
  0.419  0.502  0.000  0.059  0.019
  0.503  0.418  0.000  0.019  0.060
  0.044  0.036  0.000  0.232  0.689
  0.035  0.044  0.000  0.690  0.232
    occupations:
  0.383  0.000  0.000  0.000  0.000
  0.000  0.359  0.000  0.000  0.013
  0.000  0.000  0.359  0.013  0.000
  0.000  0.000  0.013  0.399  0.000
  0.000  0.013  0.000  0.000  0.399
atom    5   Tr[ns(na)] =   5.43990
    eigenvalues: 
  0.846  0.930  0.944
    eigenvectors:
  0.339  0.000  0.661
  0.496  0.250  0.254
  0.165  0.750  0.085
    occupations:
  0.910 -0.040  0.023
 -0.040  0.892  0.022
  0.023  0.022  0.918
atom    6   Tr[ns(na)] =   5.43067
    eigenvalues: 
  0.843  0.929  0.943
    eigenvectors:
  0.339  0.000  0.661
  0.495  0.249  0.256
  0.165  0.751  0.083
    occupations:
  0.909  0.041  0.023
  0.041  0.890 -0.023
  0.023 -0.023  0.916
atom    7   Tr[ns(na)] =   5.43067
    eigenvalues: 
  0.843  0.929  0.943
    eigenvectors:
  0.339  0.000  0.661
  0.000  1.000  0.000
  0.661  0.000  0.339
    occupations:
  0.909  0.000 -0.047
  0.000  0.929  0.000
 -0.047  0.000  0.877
atom    8   Tr[ns(na)] =   5.43115
    eigenvalues: 
  0.843  0.929  0.943
    eigenvectors:
  0.340  0.000  0.660
  0.496  0.250  0.254
  0.165  0.750  0.085
    occupations:
  0.909 -0.041  0.024
 -0.041  0.890  0.022
  0.024  0.022  0.916
atom    9   Tr[ns(na)] =   5.43059
    eigenvalues: 
  0.843  0.929  0.943
    eigenvectors:
  0.340  0.000  0.660
  0.494  0.250  0.256
  0.166  0.750  0.084
    occupations:
  0.909  0.041  0.024
  0.041  0.890 -0.023
  0.024 -0.023  0.916
atom   10   Tr[ns(na)] =   5.43059
    eigenvalues: 
  0.843  0.929  0.943
    eigenvectors:
  0.340  0.000  0.660
  0.000  1.000  0.000
  0.660  0.000  0.340
    occupations:
  0.909  0.000 -0.047
  0.000  0.929  0.000
 -0.047  0.000  0.877
N of occupied +U levels =  56.2715766
 --- exit write_ns ---
 --- in v_hubbard ---
Hubbard energy    0.0283
 -------

     total cpu time spent up to now is      377.3 secs

     End of self-consistent calculation

          k = 0.0000 0.0000 0.0000 (  2175 PWs)   bands (ev):

   -19.8017 -19.6288  -6.5379  -5.8276  -5.8276  -5.8249  -5.7858  -5.4698
    -3.7772  -3.2664  -3.2109  -3.2084  -3.0293  -3.0284   5.1676   6.8801
     6.8938   7.4927   7.5088   7.6309   7.6356   7.6859   7.7020   9.2802
     9.5960   9.6107   9.7445   9.8627   9.8679  10.3464  10.3476  10.4491
    10.4534  10.5511  10.6646  11.4156  11.4186  11.9796  12.1637  12.1670
    14.7620  14.7658  15.4245  15.4268  16.1959  16.7867

     occupation numbers 
     0.0313   0.0313   0.0313   0.0313   0.0313   0.0313   0.0313   0.0313
     0.0313   0.0313   0.0313   0.0313   0.0313   0.0313   0.0313   0.0313
     0.0313   0.0313   0.0313   0.0313   0.0313   0.0313   0.0313   0.0313
     0.0313   0.0313   0.0312   0.0312   0.0312   0.0312   0.0312   0.0312
     0.0312   0.0312   0.0312   0.0307   0.0307   0.0174   0.0097   0.0096
     0.0000   0.0000   0.0000   0.0000   0.0000   0.0000

          k =-0.2471-0.1427 0.1027 (  2181 PWs)   bands (ev):

   -19.7749 -19.6552  -6.7182  -6.2808  -5.9296  -5.8387  -5.6002  -5.4632
    -3.5895  -3.3915  -2.9314  -2.9049  -2.8461  -2.7606   5.5315   6.8557
     6.9866   7.0008   7.1935   7.4627   7.5258   7.6828   7.6902   8.5287
     8.6131   9.2279   9.6389   9.7707   9.8084  10.0077  10.3575  10.3681
    10.7746  10.7970  10.9007  11.6771  11.7322  11.7830  12.3278  12.3945
    14.3065  14.3175  15.8133  16.0692  16.9713  17.2661

     occupation numbers 
     0.0625   0.0625   0.0625   0.0625   0.0625   0.0625   0.0625   0.0625
     0.0625   0.0625   0.0625   0.0625   0.0625   0.0625   0.0625   0.0625
     0.0625   0.0625   0.0625   0.0625   0.0625   0.0625   0.0625   0.0625
     0.0625   0.0625   0.0625   0.0625   0.0625   0.0625   0.0625   0.0625
     0.0625   0.0625   0.0625   0.0552   0.0526   0.0497   0.0090   0.0061
     0.0000   0.0000   0.0000   0.0000   0.0000   0.0000

          k = 0.4942 0.2853-0.2053 (  2202 PWs)   bands (ev):

   -19.7159 -19.7140  -6.7249  -6.7008  -5.9571  -5.9401  -5.5218  -5.4940
    -3.3804  -3.3792  -2.7905  -2.7844  -2.5099  -2.5043   6.0350   6.0674
     7.1875   7.1934   7.2378   7.2607   7.5465   7.5907   7.8482   7.8700
     8.0599   8.0799   9.4949   9.4994   9.8564   9.8716  10.2639  10.2745
    11.2110  11.2157  11.3091  11.3178  11.4991  11.5052  13.2880  13.3167
    13.3735  13.4061  16.8300  16.8387  17.1301  17.1361

     occupation numbers 
     0.0313   0.0313   0.0313   0.0313   0.0313   0.0313   0.0313   0.0313
     0.0313   0.0313   0.0313   0.0313   0.0313   0.0313   0.0313   0.0313
     0.0313   0.0313   0.0313   0.0313   0.0313   0.0313   0.0313   0.0313
     0.0313   0.0313   0.0313   0.0313   0.0312   0.0312   0.0312   0.0312
     0.0312   0.0312   0.0310   0.0310   0.0302   0.0301   0.0000   0.0000
     0.0000   0.0000   0.0000   0.0000   0.0000   0.0000

          k =-0.2471 0.1427 0.2053 (  2195 PWs)   bands (ev):

   -19.7691 -19.6592  -6.8523  -6.2266  -6.0637  -5.8038  -5.6292  -5.4542
    -3.4106  -3.2638  -3.1009  -2.8917  -2.8151  -2.5621   5.5725   6.7899
     6.8919   6.9593   7.2093   7.4509   7.4814   7.7018   7.7157   8.6222
     8.7572   8.8305   9.2864   9.7394   9.9586  10.0540  10.1679  10.2808
    10.3540  11.1805  11.2883  11.3035  11.7093  11.7842  12.0535  12.7255
    13.6303  14.7813  15.9899  16.1925  17.0373  17.5364

     occupation numbers 
     0.0625   0.0625   0.0625   0.0625   0.0625   0.0625   0.0625   0.0625
     0.0625   0.0625   0.0625   0.0625   0.0625   0.0625   0.0625   0.0625
     0.0625   0.0625   0.0625   0.0625   0.0625   0.0625   0.0625   0.0625
     0.0625   0.0625   0.0625   0.0625   0.0625   0.0625   0.0625   0.0625
     0.0625   0.0624   0.0622   0.0621   0.0538   0.0497   0.0285   0.0005
     0.0000   0.0000   0.0000   0.0000   0.0000   0.0000

          k = 0.4942 0.5706-0.1027 (  2198 PWs)   bands (ev):

   -19.7316 -19.6959  -6.9570  -6.6362  -6.1299  -5.8649  -5.4882  -5.3785
    -3.3038  -3.2536  -2.8750  -2.7088  -2.5273  -2.3865   5.8970   6.2262
     6.7492   6.9936   7.1927   7.3347   7.4879   7.7019   7.8159   7.9636
     8.2454   8.8485   9.0819   9.3093   9.6306   9.7947   9.9324  10.3496
    10.8393  11.2981  11.4026  11.4747  11.6078  11.6456  12.3186  12.7346
    13.4167  14.3579  16.9035  17.1134  17.3089  18.0136

     occupation numbers 
     0.0625   0.0625   0.0625   0.0625   0.0625   0.0625   0.0625   0.0625
     0.0625   0.0625   0.0625   0.0625   0.0625   0.0625   0.0625   0.0625
     0.0625   0.0625   0.0625   0.0625   0.0625   0.0625   0.0625   0.0625
     0.0625   0.0625   0.0625   0.0625   0.0625   0.0625   0.0625   0.0625
     0.0625   0.0621   0.0615   0.0607   0.0578   0.0565   0.0095   0.0004
     0.0000   0.0000   0.0000   0.0000   0.0000   0.0000

          k = 0.2471 0.4280 0.0000 (  2203 PWs)   bands (ev):

   -19.7425 -19.6869  -6.8344  -6.6394  -6.0223  -5.9797  -5.4347  -5.3470
    -3.5150  -3.2946  -2.8024  -2.7047  -2.5651  -2.5594   5.8544   6.2935
     6.9468   7.0951   7.1997   7.2838   7.4168   7.6120   7.6816   8.0688
     8.3124   8.9030   9.3064   9.3876   9.7619   9.7759  10.0489  10.3497
    11.1535  11.1902  11.1996  11.4295  11.4553  11.7437  12.2495  13.3180
    13.3908  14.1478  16.4337  16.9924  17.4210  17.9229

     occupation numbers 
     0.0625   0.0625   0.0625   0.0625   0.0625   0.0625   0.0625   0.0625
     0.0625   0.0625   0.0625   0.0625   0.0625   0.0625   0.0625   0.0625
     0.0625   0.0625   0.0625   0.0625   0.0625   0.0625   0.0625   0.0625
     0.0625   0.0625   0.0625   0.0625   0.0625   0.0625   0.0625   0.0625
     0.0624   0.0624   0.0624   0.0612   0.0609   0.0520   0.0134   0.0000
     0.0000   0.0000   0.0000   0.0000   0.0000   0.0000

          k = 0.4942-0.2853-0.4107 (  2202 PWs)   bands (ev):

   -19.7359 -19.6893  -7.1696  -6.4525  -6.2437  -5.9327  -5.5021  -5.2856
    -3.1922  -3.1253  -3.0433  -2.6535  -2.4822  -2.2242   5.8008   6.2495
     6.2957   6.8855   7.1454   7.2558   7.7438   7.7952   8.1448   8.2783
     8.4078   8.4389   8.5993   9.3806   9.6548  10.0196  10.0642  10.2840
    10.4325  11.1423  11.3422  11.5205  11.6437  11.7677  11.9652  12.4333
    13.3162  14.7939  17.0411  17.2628  17.5212  17.6087

     occupation numbers 
     0.0313   0.0313   0.0313   0.0313   0.0313   0.0313   0.0313   0.0313
     0.0313   0.0313   0.0313   0.0313   0.0313   0.0313   0.0313   0.0313
     0.0313   0.0313   0.0313   0.0313   0.0313   0.0313   0.0313   0.0313
     0.0313   0.0313   0.0313   0.0313   0.0312   0.0312   0.0312   0.0312
     0.0312   0.0312   0.0310   0.0300   0.0283   0.0253   0.0180   0.0024
     0.0000   0.0000   0.0000   0.0000   0.0000   0.0000

          k = 0.0000 0.0000 0.3080 (  2187 PWs)   bands (ev):

   -19.7747 -19.6553  -6.6063  -5.9746  -5.9268  -5.9080  -5.8397  -5.8113
    -3.2005  -3.1121  -3.1084  -2.9684  -2.8982  -2.8948   5.5872   6.9764
     6.9921   7.1180   7.3352   7.3979   7.4115   7.6881   7.6961   8.7631
     8.7700   9.3249   9.4242   9.6138   9.6292   9.8081  10.1109  10.1251
    10.9024  10.9046  11.0014  11.7000  11.7018  11.7929  12.3043  12.3070
    14.2673  14.2710  15.9071  15.9100  16.8779  17.4798

     occupation numbers 
     0.0625   0.0625   0.0625   0.0625   0.0625   0.0625   0.0625   0.0625
     0.0625   0.0625   0.0625   0.0625   0.0625   0.0625   0.0625   0.0625
     0.0625   0.0625   0.0625   0.0625   0.0625   0.0625   0.0625   0.0625
     0.0625   0.0625   0.0625   0.0625   0.0625   0.0625   0.0625   0.0625
     0.0625   0.0625   0.0625   0.0542   0.0541   0.0491   0.0102   0.0101
     0.0000   0.0000   0.0000   0.0000   0.0000   0.0000

          k = 0.7412 0.4280 0.0000 (  2204 PWs)   bands (ev):

   -19.7420 -19.6873  -6.7273  -6.5891  -6.1385  -5.8230  -5.6694  -5.5267
    -3.1706  -3.0898  -3.0450  -2.6764  -2.6554  -2.5814   5.9117   6.4749
     6.9699   7.1342   7.1926   7.2900   7.4196   7.5574   7.8521   8.0102
     8.3325   8.8197   9.3308   9.4756   9.5820   9.6681   9.8359  10.2041
    11.1449  11.2001  11.2757  11.4881  11.4908  11.6577  12.2554  13.2388
    13.3039  14.1770  16.6882  16.7206  17.5888  17.7918

     occupation numbers 
     0.0625   0.0625   0.0625   0.0625   0.0625   0.0625   0.0625   0.0625
     0.0625   0.0625   0.0625   0.0625   0.0625   0.0625   0.0625   0.0625
     0.0625   0.0625   0.0625   0.0625   0.0625   0.0625   0.0625   0.0625
     0.0625   0.0625   0.0625   0.0625   0.0625   0.0625   0.0625   0.0625
     0.0624   0.0624   0.0622   0.0605   0.0604   0.0560   0.0131   0.0000
     0.0000   0.0000   0.0000   0.0000   0.0000   0.0000

          k = 0.4942 0.2853 0.1027 (  2211 PWs)   bands (ev):

   -19.7330 -19.6964  -6.9595  -6.5363  -6.3128  -5.6895  -5.6177  -5.3362
    -3.3163  -3.1654  -3.0295  -2.6015  -2.5597  -2.3750   5.9086   6.2175
     6.6847   6.9760   7.2001   7.2380   7.5179   7.7518   7.8604   7.9440
     8.2955   8.9478   9.0963   9.3835   9.4957   9.6630  10.0006  10.3567
    10.8522  11.3500  11.4808  11.4867  11.5442  11.5639  12.2699  12.7499
    13.4683  14.3364  16.8828  16.9332  17.5801  17.9262

     occupation numbers 
     0.0625   0.0625   0.0625   0.0625   0.0625   0.0625   0.0625   0.0625
     0.0625   0.0625   0.0625   0.0625   0.0625   0.0625   0.0625   0.0625
     0.0625   0.0625   0.0625   0.0625   0.0625   0.0625   0.0625   0.0625
     0.0625   0.0625   0.0625   0.0625   0.0625   0.0625   0.0625   0.0625
     0.0625   0.0619   0.0606   0.0605   0.0594   0.0590   0.0122   0.0004
     0.0000   0.0000   0.0000   0.0000   0.0000   0.0000

          k = 0.7412-0.4280-0.3080 (  2210 PWs)   bands (ev):

   -19.7316 -19.6958  -6.9100  -6.4419  -6.2950  -5.7844  -5.7266  -5.4804
    -3.0702  -3.0506  -2.9619  -2.7302  -2.6216  -2.4293   5.9909   6.3363
     6.7842   6.9694   7.2323   7.2605   7.5399   7.7654   7.9088   7.9682
     8.2577   8.9365   8.9503   9.4829   9.5138   9.5216   9.6437  10.2044
    10.9257  11.3629  11.4657  11.4757  11.5897  11.6307  12.2299  12.7004
    13.4109  14.3092  17.0589  17.0666  17.5475  17.9026

     occupation numbers 
     0.0625   0.0625   0.0625   0.0625   0.0625   0.0625   0.0625   0.0625
     0.0625   0.0625   0.0625   0.0625   0.0625   0.0625   0.0625   0.0625
     0.0625   0.0625   0.0625   0.0625   0.0625   0.0625   0.0625   0.0625
     0.0625   0.0625   0.0625   0.0625   0.0625   0.0625   0.0625   0.0625
     0.0625   0.0618   0.0608   0.0607   0.0583   0.0570   0.0147   0.0006
     0.0000   0.0000   0.0000   0.0000   0.0000   0.0000

          k = 0.4942-0.5706-0.2053 (  2206 PWs)   bands (ev):

   -19.7141 -19.7136  -6.8854  -6.8680  -6.0371  -6.0068  -5.4238  -5.4024
    -3.1530  -3.1525  -2.8135  -2.8083  -2.3850  -2.3816   6.0510   6.0817
     6.8758   6.8944   7.1028   7.1092   7.3903   7.4086   8.0409   8.0870
     8.7660   8.7857   8.9690   8.9862   9.5153   9.5295  10.0803  10.0903
    11.1444  11.1449  11.3592  11.3634  11.6405  11.6477  12.2931  12.2955
    13.9974  14.0074  17.4243  17.4273  17.8667  17.8679

     occupation numbers 
     0.0625   0.0625   0.0625   0.0625   0.0625   0.0625   0.0625   0.0625
     0.0625   0.0625   0.0625   0.0625   0.0625   0.0625   0.0625   0.0625
     0.0625   0.0625   0.0625   0.0625   0.0625   0.0625   0.0625   0.0625
     0.0625   0.0625   0.0625   0.0625   0.0625   0.0625   0.0625   0.0625
     0.0624   0.0624   0.0618   0.0618   0.0567   0.0564   0.0108   0.0107
     0.0000   0.0000   0.0000   0.0000   0.0000   0.0000

          k = 0.0000 0.0000-0.6160 (  2186 PWs)   bands (ev):

   -19.7158 -19.7138  -6.5126  -6.4856  -5.9393  -5.9379  -5.9357  -5.8951
    -2.8916  -2.8904  -2.8893  -2.8824  -2.7098  -2.7046   6.2601   6.2950
     7.1698   7.1965   7.2081   7.2138   7.7150   7.7524   7.9673   7.9715
     8.0020   8.0040   9.6127   9.6144   9.6341   9.6357   9.6854   9.7035
    11.3644  11.3718  11.4182  11.4228  11.4285  11.4306  13.2270  13.2313
    13.2582  13.2611  17.1130  17.1162  17.1176  17.1190

     occupation numbers 
     0.0313   0.0313   0.0313   0.0313   0.0313   0.0313   0.0313   0.0313
     0.0313   0.0313   0.0313   0.0313   0.0313   0.0313   0.0313   0.0313
     0.0313   0.0313   0.0313   0.0313   0.0313   0.0313   0.0313   0.0313
     0.0313   0.0313   0.0313   0.0313   0.0312   0.0312   0.0312   0.0312
     0.0309   0.0309   0.0307   0.0307   0.0306   0.0306   0.0000   0.0000
     0.0000   0.0000   0.0000   0.0000   0.0000   0.0000

          k =-0.2471 0.1427-0.1027 (  2181 PWs)   bands (ev):

   -19.7749 -19.6553  -6.7183  -6.2811  -5.9319  -5.8344  -5.5990  -5.4666
    -3.5876  -3.3924  -2.9306  -2.9057  -2.8471  -2.7597   5.5302   6.8523
     6.9842   7.0058   7.1936   7.4721   7.5206   7.6763   7.6944   8.5320
     8.6072   9.2323   9.6491   9.7563   9.8119  10.0053  10.3539  10.3725
    10.7754  10.7947  10.9022  11.6778  11.7320  11.7837  12.3300  12.3923
    14.3096  14.3145  15.8149  16.0667  16.9706  17.2644

     occupation numbers 
     0.0625   0.0625   0.0625   0.0625   0.0625   0.0625   0.0625   0.0625
     0.0625   0.0625   0.0625   0.0625   0.0625   0.0625   0.0625   0.0625
     0.0625   0.0625   0.0625   0.0625   0.0625   0.0625   0.0625   0.0625
     0.0625   0.0625   0.0625   0.0625   0.0625   0.0625   0.0625   0.0625
     0.0625   0.0625   0.0625   0.0552   0.0526   0.0497   0.0089   0.0062
     0.0000   0.0000   0.0000   0.0000   0.0000   0.0000

          k = 0.0000 0.2853 0.1027 (  2181 PWs)   bands (ev):

   -19.7749 -19.6552  -6.7182  -6.2807  -5.9300  -5.8384  -5.5999  -5.4636
    -3.5895  -3.3915  -2.9313  -2.9050  -2.8461  -2.7606   5.5315   6.8557
     6.9867   7.0005   7.1938   7.4630   7.5257   7.6806   7.6922   8.5284
     8.6134   9.2280   9.6386   9.7708   9.8086  10.0076  10.3562  10.3695
    10.7747  10.7969  10.9006  11.6771  11.7321  11.7831  12.3279  12.3945
    14.3066  14.3174  15.8134  16.0692  16.9713  17.2662

     occupation numbers 
     0.0625   0.0625   0.0625   0.0625   0.0625   0.0625   0.0625   0.0625
     0.0625   0.0625   0.0625   0.0625   0.0625   0.0625   0.0625   0.0625
     0.0625   0.0625   0.0625   0.0625   0.0625   0.0625   0.0625   0.0625
     0.0625   0.0625   0.0625   0.0625   0.0625   0.0625   0.0625   0.0625
     0.0625   0.0625   0.0625   0.0552   0.0526   0.0497   0.0090   0.0061
     0.0000   0.0000   0.0000   0.0000   0.0000   0.0000

          k = 0.4942-0.2853 0.2053 (  2202 PWs)   bands (ev):

   -19.7160 -19.7139  -6.7256  -6.7006  -5.9580  -5.9381  -5.5203  -5.4967
    -3.3805  -3.3777  -2.7900  -2.7857  -2.5096  -2.5040   6.0313   6.0677
     7.1663   7.2025   7.2430   7.2607   7.5655   7.5914   7.8359   7.8707
     8.0558   8.0859   9.4994   9.5061   9.8414   9.8699  10.2640  10.2796
    11.2098  11.2153  11.3093  11.3165  11.4997  11.5082  13.2891  13.3196
    13.3720  13.4037  16.8324  16.8373  17.1287  17.1327

     occupation numbers 
     0.0313   0.0313   0.0313   0.0313   0.0313   0.0313   0.0313   0.0313
     0.0313   0.0313   0.0313   0.0313   0.0313   0.0313   0.0313   0.0313
     0.0313   0.0313   0.0313   0.0313   0.0313   0.0313   0.0313   0.0313
     0.0313   0.0313   0.0313   0.0313   0.0312   0.0312   0.0312   0.0312
     0.0312   0.0312   0.0310   0.0310   0.0301   0.0301   0.0000   0.0000
     0.0000   0.0000   0.0000   0.0000   0.0000   0.0000

          k = 0.0000-0.5706-0.2053 (  2202 PWs)   bands (ev):

   -19.7159 -19.7140  -6.7258  -6.6998  -5.9591  -5.9382  -5.5193  -5.4965
    -3.3831  -3.3765  -2.7888  -2.7861  -2.5102  -2.5040   6.0351   6.0674
     7.1769   7.2058   7.2377   7.2593   7.5583   7.5786   7.8410   7.8774
     8.0515   8.0884   9.4918   9.5021   9.8569   9.8712  10.2634  10.2751
    11.2101  11.2166  11.3101  11.3168  11.4972  11.5072  13.2857  13.3191
    13.3754  13.4040  16.8327  16.8359  17.1313  17.1349

     occupation numbers 
     0.0313   0.0313   0.0313   0.0313   0.0313   0.0313   0.0313   0.0313
     0.0313   0.0313   0.0313   0.0313   0.0313   0.0313   0.0313   0.0313
     0.0313   0.0313   0.0313   0.0313   0.0313   0.0313   0.0313   0.0313
     0.0313   0.0313   0.0313   0.0313   0.0312   0.0312   0.0312   0.0312
     0.0312   0.0312   0.0310   0.0310   0.0302   0.0301   0.0000   0.0000
     0.0000   0.0000   0.0000   0.0000   0.0000   0.0000

          k =-0.2471-0.1427-0.2053 (  2195 PWs)   bands (ev):

   -19.7702 -19.6600  -6.8403  -6.2219  -6.0517  -5.8277  -5.6502  -5.4383
    -3.4101  -3.2637  -3.1005  -2.8884  -2.8129  -2.5594   5.5569   6.8155
     6.8814   6.9400   7.2154   7.4470   7.4698   7.6981   7.7213   8.6274
     8.7752   8.8317   9.2733   9.7520   9.9575  10.0534  10.1568  10.2700
    10.3567  11.1886  11.2922  11.3104  11.7092  11.7824  12.0516  12.7304
    13.6311  14.7785  15.9906  16.1913  17.0336  17.5352

     occupation numbers 
     0.0625   0.0625   0.0625   0.0625   0.0625   0.0625   0.0625   0.0625
     0.0625   0.0625   0.0625   0.0625   0.0625   0.0625   0.0625   0.0625
     0.0625   0.0625   0.0625   0.0625   0.0625   0.0625   0.0625   0.0625
     0.0625   0.0625   0.0625   0.0625   0.0625   0.0625   0.0625   0.0625
     0.0625   0.0624   0.0621   0.0621   0.0538   0.0498   0.0287   0.0004
     0.0000   0.0000   0.0000   0.0000   0.0000   0.0000

          k = 0.0000-0.2853 0.2053 (  2195 PWs)   bands (ev):

   -19.7702 -19.6600  -6.8403  -6.2217  -6.0520  -5.8277  -5.6502  -5.4383
    -3.4101  -3.2637  -3.1005  -2.8884  -2.8129  -2.5594   5.5569   6.8155
     6.8814   6.9400   7.2153   7.4490   7.4679   7.6984   7.7210   8.6276
     8.7746   8.8321   9.2732   9.7520   9.9575  10.0533  10.1568  10.2700
    10.3567  11.1886  11.2921  11.3105  11.7093  11.7824  12.0516  12.7304
    13.6311  14.7785  15.9906  16.1913  17.0336  17.5352

     occupation numbers 
     0.0625   0.0625   0.0625   0.0625   0.0625   0.0625   0.0625   0.0625
     0.0625   0.0625   0.0625   0.0625   0.0625   0.0625   0.0625   0.0625
     0.0625   0.0625   0.0625   0.0625   0.0625   0.0625   0.0625   0.0625
     0.0625   0.0625   0.0625   0.0625   0.0625   0.0625   0.0625   0.0625
     0.0625   0.0624   0.0621   0.0621   0.0538   0.0498   0.0287   0.0004
     0.0000   0.0000   0.0000   0.0000   0.0000   0.0000

          k = 0.4942-0.5706 0.1027 (  2198 PWs)   bands (ev):

   -19.7329 -19.6966  -6.9438  -6.6380  -6.1177  -5.8895  -5.5043  -5.3608
    -3.3032  -3.2529  -2.8774  -2.7038  -2.5266  -2.3820   5.8753   6.2497
     6.7238   6.9848   7.1936   7.3134   7.5031   7.7019   7.7969   7.9880
     8.2563   8.8476   9.0929   9.3179   9.6185   9.8031   9.9346  10.3425
    10.8361  11.3014  11.4048  11.4702  11.6100  11.6502  12.3164  12.7338
    13.4225  14.3547  16.9054  17.1077  17.3086  18.0131

     occupation numbers 
     0.0625   0.0625   0.0625   0.0625   0.0625   0.0625   0.0625   0.0625
     0.0625   0.0625   0.0625   0.0625   0.0625   0.0625   0.0625   0.0625
     0.0625   0.0625   0.0625   0.0625   0.0625   0.0625   0.0625   0.0625
     0.0625   0.0625   0.0625   0.0625   0.0625   0.0625   0.0625   0.0625
     0.0625   0.0621   0.0615   0.0607   0.0577   0.0563   0.0096   0.0004
     0.0000   0.0000   0.0000   0.0000   0.0000   0.0000

          k =-0.7412 0.1427-0.1027 (  2198 PWs)   bands (ev):

   -19.7329 -19.6966  -6.9434  -6.6389  -6.1166  -5.8905  -5.5033  -5.3616
    -3.3024  -3.2530  -2.8772  -2.7048  -2.5260  -2.3824   5.8768   6.2472
     6.7274   6.9842   7.1880   7.3162   7.4986   7.7061   7.8150   7.9669
     8.2604   8.8418   9.0975   9.3191   9.6203   9.8022   9.9350  10.3410
    10.8366  11.3022  11.4020  11.4708  11.6084  11.6524  12.3168  12.7340
    13.4226  14.3549  16.9035  17.1105  17.3081  18.0129

     occupation numbers 
     0.0625   0.0625   0.0625   0.0625   0.0625   0.0625   0.0625   0.0625
     0.0625   0.0625   0.0625   0.0625   0.0625   0.0625   0.0625   0.0625
     0.0625   0.0625   0.0625   0.0625   0.0625   0.0625   0.0625   0.0625
     0.0625   0.0625   0.0625   0.0625   0.0625   0.0625   0.0625   0.0625
     0.0625   0.0621   0.0615   0.0607   0.0577   0.0562   0.0096   0.0004
     0.0000   0.0000   0.0000   0.0000   0.0000   0.0000

          k = 0.2471-0.7133-0.1027 (  2198 PWs)   bands (ev):

   -19.7329 -19.6966  -6.9429  -6.6396  -6.1151  -5.8918  -5.5045  -5.3600
    -3.3025  -3.2532  -2.8767  -2.7061  -2.5260  -2.3820   5.8780   6.2472
     6.7298   6.9814   7.1857   7.3191   7.4999   7.7096   7.8105   7.9645
     8.2616   8.8423   9.0953   9.3158   9.6278   9.7973   9.9381  10.3400
    10.8365  11.3006  11.4027  11.4758  11.6051  11.6511  12.3169  12.7339
    13.4226  14.3550  16.9014  17.1138  17.3083  18.0143

     occupation numbers 
     0.0625   0.0625   0.0625   0.0625   0.0625   0.0625   0.0625   0.0625
     0.0625   0.0625   0.0625   0.0625   0.0625   0.0625   0.0625   0.0625
     0.0625   0.0625   0.0625   0.0625   0.0625   0.0625   0.0625   0.0625
     0.0625   0.0625   0.0625   0.0625   0.0625   0.0625   0.0625   0.0625
     0.0625   0.0621   0.0615   0.0607   0.0578   0.0563   0.0096   0.0004
     0.0000   0.0000   0.0000   0.0000   0.0000   0.0000

          k =-0.7412-0.1427 0.1027 (  2198 PWs)   bands (ev):

   -19.7329 -19.6966  -6.9434  -6.6386  -6.1164  -5.8908  -5.5054  -5.3593
    -3.3033  -3.2531  -2.8768  -2.7050  -2.5266  -2.3816   5.8765   6.2497
     6.7261   6.9820   7.1914   7.3163   7.5047   7.7048   7.7930   7.9856
     8.2574   8.8482   9.0908   9.3147   9.6258   9.7983   9.9378  10.3415
    10.8360  11.2998  11.4055  11.4753  11.6067  11.6489  12.3166  12.7337
    13.4225  14.3547  16.9032  17.1109  17.3088  18.0144

     occupation numbers 
     0.0625   0.0625   0.0625   0.0625   0.0625   0.0625   0.0625   0.0625
     0.0625   0.0625   0.0625   0.0625   0.0625   0.0625   0.0625   0.0625
     0.0625   0.0625   0.0625   0.0625   0.0625   0.0625   0.0625   0.0625
     0.0625   0.0625   0.0625   0.0625   0.0625   0.0625   0.0625   0.0625
     0.0625   0.0621   0.0615   0.0607   0.0578   0.0564   0.0096   0.0004
     0.0000   0.0000   0.0000   0.0000   0.0000   0.0000

          k = 0.2471 0.7133 0.1027 (  2198 PWs)   bands (ev):

   -19.7316 -19.6959  -6.9574  -6.6353  -6.1309  -5.8639  -5.4892  -5.3778
    -3.3046  -3.2534  -2.8751  -2.7077  -2.5279  -2.3861   5.8954   6.2287
     6.7456   6.9942   7.1984   7.3320   7.4926   7.6977   7.7964   7.9864
     8.2409   8.8546   9.0771   9.3079   9.6285   9.7960   9.9320  10.3511
    10.8387  11.2972  11.4055  11.4741  11.6094  11.6435  12.3182  12.7343
    13.4166  14.3576  16.9054  17.1105  17.3095  18.0138

     occupation numbers 
     0.0625   0.0625   0.0625   0.0625   0.0625   0.0625   0.0625   0.0625
     0.0625   0.0625   0.0625   0.0625   0.0625   0.0625   0.0625   0.0625
     0.0625   0.0625   0.0625   0.0625   0.0625   0.0625   0.0625   0.0625
     0.0625   0.0625   0.0625   0.0625   0.0625   0.0625   0.0625   0.0625
     0.0625   0.0621   0.0615   0.0607   0.0577   0.0566   0.0095   0.0004
     0.0000   0.0000   0.0000   0.0000   0.0000   0.0000

          k = 0.2471-0.4280 0.0000 (  2203 PWs)   bands (ev):

   -19.7423 -19.6871  -6.8415  -6.6252  -6.0511  -5.9642  -5.4217  -5.3539
    -3.5127  -3.2946  -2.7993  -2.7111  -2.5681  -2.5555   5.8700   6.2829
     6.9551   7.0916   7.1838   7.2790   7.4296   7.5988   7.6901   8.0558
     8.2983   8.9218   9.3127   9.4154   9.7500   9.7756  10.0497  10.3448
    11.1495  11.1882  11.1973  11.4263  11.4548  11.7506  12.2497  13.3151
    13.3882  14.1527  16.4346  16.9895  17.4179  17.9249

     occupation numbers 
     0.0625   0.0625   0.0625   0.0625   0.0625   0.0625   0.0625   0.0625
     0.0625   0.0625   0.0625   0.0625   0.0625   0.0625   0.0625   0.0625
     0.0625   0.0625   0.0625   0.0625   0.0625   0.0625   0.0625   0.0625
     0.0625   0.0625   0.0625   0.0625   0.0625   0.0625   0.0625   0.0625
     0.0624   0.0624   0.0624   0.0613   0.0610   0.0516   0.0134   0.0000
     0.0000   0.0000   0.0000   0.0000   0.0000   0.0000

          k =-0.4942 0.0000 0.0000 (  2203 PWs)   bands (ev):

   -19.7423 -19.6871  -6.8415  -6.6251  -6.0511  -5.9642  -5.4217  -5.3539
    -3.5127  -3.2946  -2.7993  -2.7111  -2.5683  -2.5552   5.8700   6.2829
     6.9550   7.0908   7.1863   7.2773   7.4296   7.5985   7.6903   8.0560
     8.2983   8.9218   9.3128   9.4154   9.7496   9.7761  10.0496  10.3448
    11.1495  11.1882  11.1972  11.4262  11.4547  11.7506  12.2497  13.3151
    13.3882  14.1527  16.4346  16.9895  17.4179  17.9250

     occupation numbers 
     0.0625   0.0625   0.0625   0.0625   0.0625   0.0625   0.0625   0.0625
     0.0625   0.0625   0.0625   0.0625   0.0625   0.0625   0.0625   0.0625
     0.0625   0.0625   0.0625   0.0625   0.0625   0.0625   0.0625   0.0625
     0.0625   0.0625   0.0625   0.0625   0.0625   0.0625   0.0625   0.0625
     0.0624   0.0624   0.0624   0.0613   0.0610   0.0516   0.0134   0.0000
     0.0000   0.0000   0.0000   0.0000   0.0000   0.0000

          k = 0.4942 0.2853 0.4107 (  2202 PWs)   bands (ev):

   -19.7382 -19.6908  -7.1533  -6.4458  -6.2261  -5.9653  -5.5280  -5.2670
    -3.1912  -3.1241  -3.0428  -2.6476  -2.4785  -2.2190   5.7754   6.2726
     6.2810   6.8749   7.1263   7.2343   7.7234   7.7859   8.1436   8.3102
     8.4333   8.4638   8.5753   9.4112   9.6625  10.0208  10.0544  10.2843
    10.4211  11.1420  11.3456  11.5178  11.6417  11.7762  11.9635  12.4325
    13.3234  14.7910  17.0394  17.2619  17.5176  17.6060

     occupation numbers 
     0.0313   0.0313   0.0313   0.0313   0.0313   0.0313   0.0313   0.0313
     0.0313   0.0313   0.0313   0.0313   0.0313   0.0313   0.0313   0.0313
     0.0313   0.0313   0.0313   0.0313   0.0313   0.0313   0.0313   0.0313
     0.0313   0.0313   0.0313   0.0313   0.0312   0.0312   0.0312   0.0312
     0.0312   0.0312   0.0310   0.0300   0.0283   0.0251   0.0181   0.0024
     0.0000   0.0000   0.0000   0.0000   0.0000   0.0000

          k = 0.0000 0.5706-0.4107 (  2202 PWs)   bands (ev):

   -19.7382 -19.6908  -7.1533  -6.4457  -6.2262  -5.9652  -5.5280  -5.2670
    -3.1912  -3.1241  -3.0428  -2.6476  -2.4785  -2.2190   5.7754   6.2724
     6.2811   6.8749   7.1264   7.2343   7.7244   7.7849   8.1433   8.3106
     8.4334   8.4638   8.5753   9.4111   9.6626  10.0205  10.0547  10.2843
    10.4211  11.1420  11.3456  11.5179  11.6417  11.7762  11.9635  12.4325
    13.3234  14.7910  17.0395  17.2618  17.5176  17.6061

     occupation numbers 
     0.0313   0.0313   0.0313   0.0313   0.0313   0.0313   0.0313   0.0313
     0.0313   0.0313   0.0313   0.0313   0.0313   0.0313   0.0313   0.0313
     0.0313   0.0313   0.0313   0.0313   0.0313   0.0313   0.0313   0.0313
     0.0313   0.0313   0.0313   0.0313   0.0312   0.0312   0.0312   0.0312
     0.0312   0.0312   0.0310   0.0300   0.0283   0.0251   0.0181   0.0024
     0.0000   0.0000   0.0000   0.0000   0.0000   0.0000

          k = 0.7412-0.4280 0.0000 (  2204 PWs)   bands (ev):

   -19.7422 -19.6871  -6.7201  -6.6023  -6.1318  -5.8171  -5.6594  -5.5442
    -3.1727  -3.0897  -3.0449  -2.6736  -2.6512  -2.5852   5.8921   6.4885
     6.9580   7.1418   7.2044   7.2975   7.4066   7.5634   7.8544   8.0231
     8.3461   8.7992   9.3243   9.4515   9.5854   9.6705   9.8364  10.2102
    11.1487  11.2030  11.2780  11.4895  11.4924  11.6532  12.2546  13.2416
    13.3066  14.1723  16.6859  16.7221  17.5908  17.7923

     occupation numbers 
     0.0625   0.0625   0.0625   0.0625   0.0625   0.0625   0.0625   0.0625
     0.0625   0.0625   0.0625   0.0625   0.0625   0.0625   0.0625   0.0625
     0.0625   0.0625   0.0625   0.0625   0.0625   0.0625   0.0625   0.0625
     0.0625   0.0625   0.0625   0.0625   0.0625   0.0625   0.0625   0.0625
     0.0624   0.0624   0.0622   0.0605   0.0604   0.0562   0.0131   0.0000
     0.0000   0.0000   0.0000   0.0000   0.0000   0.0000

          k = 0.0000-0.8559 0.0000 (  2204 PWs)   bands (ev):

   -19.7420 -19.6873  -6.7273  -6.5892  -6.1385  -5.8229  -5.6693  -5.5268
    -3.1706  -3.0899  -3.0449  -2.6765  -2.6554  -2.5815   5.9117   6.4749
     6.9700   7.1348   7.1904   7.2918   7.4196   7.5573   7.8523   8.0098
     8.3326   8.8198   9.3308   9.4756   9.5817   9.6685   9.8357  10.2041
    11.1450  11.2001  11.2757  11.4882  11.4906  11.6577  12.2554  13.2388
    13.3039  14.1770  16.6882  16.7205  17.5887  17.7918

     occupation numbers 
     0.0625   0.0625   0.0625   0.0625   0.0625   0.0625   0.0625   0.0625
     0.0625   0.0625   0.0625   0.0625   0.0625   0.0625   0.0625   0.0625
     0.0625   0.0625   0.0625   0.0625   0.0625   0.0625   0.0625   0.0625
     0.0625   0.0625   0.0625   0.0625   0.0625   0.0625   0.0625   0.0625
     0.0624   0.0624   0.0622   0.0605   0.0604   0.0560   0.0131   0.0000
     0.0000   0.0000   0.0000   0.0000   0.0000   0.0000

          k = 0.4942-0.2853-0.1027 (  2211 PWs)   bands (ev):

   -19.7318 -19.6957  -6.9728  -6.5339  -6.3153  -5.6835  -5.5964  -5.3509
    -3.3165  -3.1656  -3.0299  -2.6040  -2.5599  -2.3794   5.9272   6.1954
     6.7048   6.9853   7.2095   7.2464   7.5150   7.7471   7.8637   7.9376
     8.2811   8.9584   9.0826   9.3888   9.5026   9.6375   9.9969  10.3682
    10.8554  11.3482  11.4783  11.4845  11.5465  11.5626  12.2715  12.7505
    13.4626  14.3394  16.8837  16.9327  17.5793  17.9268

     occupation numbers 
     0.0625   0.0625   0.0625   0.0625   0.0625   0.0625   0.0625   0.0625
     0.0625   0.0625   0.0625   0.0625   0.0625   0.0625   0.0625   0.0625
     0.0625   0.0625   0.0625   0.0625   0.0625   0.0625   0.0625   0.0625
     0.0625   0.0625   0.0625   0.0625   0.0625   0.0625   0.0625   0.0625
     0.0625   0.0619   0.0606   0.0605   0.0594   0.0590   0.0121   0.0004
     0.0000   0.0000   0.0000   0.0000   0.0000   0.0000

          k = 0.0000-0.5706 0.1027 (  2211 PWs)   bands (ev):

   -19.7330 -19.6964  -6.9595  -6.5362  -6.3129  -5.6896  -5.6175  -5.3363
    -3.3163  -3.1653  -3.0295  -2.6016  -2.5596  -2.3751   5.9086   6.2175
     6.6848   6.9759   7.1993   7.2389   7.5182   7.7523   7.8600   7.9432
     8.2960   8.9479   9.0962   9.3834   9.4957   9.6630  10.0006  10.3567
    10.8521  11.3499  11.4820  11.4857  11.5440  11.5641  12.2699  12.7499
    13.4684  14.3364  16.8828  16.9332  17.5801  17.9262

     occupation numbers 
     0.0625   0.0625   0.0625   0.0625   0.0625   0.0625   0.0625   0.0625
     0.0625   0.0625   0.0625   0.0625   0.0625   0.0625   0.0625   0.0625
     0.0625   0.0625   0.0625   0.0625   0.0625   0.0625   0.0625   0.0625
     0.0625   0.0625   0.0625   0.0625   0.0625   0.0625   0.0625   0.0625
     0.0625   0.0619   0.0606   0.0605   0.0594   0.0590   0.0122   0.0004
     0.0000   0.0000   0.0000   0.0000   0.0000   0.0000

          k = 0.7412 0.4280 0.3080 (  2210 PWs)   bands (ev):

   -19.7328 -19.6965  -6.8955  -6.4445  -6.2899  -5.7934  -5.7517  -5.4626
    -3.0694  -3.0512  -2.9637  -2.7266  -2.6195  -2.4252   5.9699   6.3629
     6.7633   6.9588   7.2201   7.2491   7.5468   7.7734   7.9020   7.9725
     8.2728   8.9339   8.9561   9.4996   9.5161   9.5212   9.6445  10.1931
    10.9229  11.3668  11.4660  11.4741  11.5929  11.6312  12.2285  12.6997
    13.4166  14.3061  17.0571  17.0666  17.5487  17.9015

     occupation numbers 
     0.0625   0.0625   0.0625   0.0625   0.0625   0.0625   0.0625   0.0625
     0.0625   0.0625   0.0625   0.0625   0.0625   0.0625   0.0625   0.0625
     0.0625   0.0625   0.0625   0.0625   0.0625   0.0625   0.0625   0.0625
     0.0625   0.0625   0.0625   0.0625   0.0625   0.0625   0.0625   0.0625
     0.0625   0.0618   0.0608   0.0607   0.0582   0.0570   0.0148   0.0006
     0.0000   0.0000   0.0000   0.0000   0.0000   0.0000

          k = 0.0000 0.8559-0.3080 (  2210 PWs)   bands (ev):

   -19.7328 -19.6965  -6.8955  -6.4446  -6.2898  -5.7935  -5.7516  -5.4626
    -3.0694  -3.0512  -2.9637  -2.7267  -2.6195  -2.4252   5.9698   6.3629
     6.7632   6.9589   7.2203   7.2488   7.5469   7.7732   7.8997   7.9755
     8.2722   8.9332   8.9568   9.5002   9.5158   9.5212   9.6444  10.1931
    10.9229  11.3668  11.4675  11.4727  11.5929  11.6311  12.2285  12.6997
    13.4166  14.3061  17.0570  17.0667  17.5487  17.9015

     occupation numbers 
     0.0625   0.0625   0.0625   0.0625   0.0625   0.0625   0.0625   0.0625
     0.0625   0.0625   0.0625   0.0625   0.0625   0.0625   0.0625   0.0625
     0.0625   0.0625   0.0625   0.0625   0.0625   0.0625   0.0625   0.0625
     0.0625   0.0625   0.0625   0.0625   0.0625   0.0625   0.0625   0.0625
     0.0625   0.0618   0.0608   0.0607   0.0582   0.0570   0.0148   0.0006
     0.0000   0.0000   0.0000   0.0000   0.0000   0.0000

          k = 0.2471 0.7133-0.2053 (  2206 PWs)   bands (ev):

   -19.7141 -19.7136  -6.8856  -6.8677  -6.0374  -6.0066  -5.4237  -5.4024
    -3.1530  -3.1525  -2.8135  -2.8084  -2.3854  -2.3811   6.0511   6.0816
     6.8768   6.8933   7.1028   7.1094   7.3906   7.4083   8.0418   8.0861
     8.7653   8.7865   8.9692   8.9859   9.5140   9.5308  10.0801  10.0905
    11.1441  11.1451  11.3605  11.3622  11.6407  11.6475  12.2930  12.2957
    13.9974  14.0074  17.4246  17.4270  17.8649  17.8696

     occupation numbers 
     0.0625   0.0625   0.0625   0.0625   0.0625   0.0625   0.0625   0.0625
     0.0625   0.0625   0.0625   0.0625   0.0625   0.0625   0.0625   0.0625
     0.0625   0.0625   0.0625   0.0625   0.0625   0.0625   0.0625   0.0625
     0.0625   0.0625   0.0625   0.0625   0.0625   0.0625   0.0625   0.0625
     0.0624   0.0624   0.0618   0.0618   0.0567   0.0564   0.0108   0.0107
     0.0000   0.0000   0.0000   0.0000   0.0000   0.0000

          k =-0.7412-0.1427-0.2053 (  2206 PWs)   bands (ev):

   -19.7148 -19.7147  -6.8839  -6.8507  -6.0359  -6.0343  -5.4250  -5.3921
    -3.1527  -3.1507  -2.8135  -2.8123  -2.3856  -2.3716   6.0576   6.0829
     6.8716   6.8753   7.0681   7.1104   7.3884   7.3906   8.0596   8.0948
     8.7889   8.7926   8.9774   8.9793   9.5346   9.5382  10.0748  10.0756
    11.1384  11.1394  11.3609  11.3629  11.6470  11.6481  12.2912  12.2957
    13.9984  14.0084  17.4263  17.4272  17.8643  17.8668

     occupation numbers 
     0.0625   0.0625   0.0625   0.0625   0.0625   0.0625   0.0625   0.0625
     0.0625   0.0625   0.0625   0.0625   0.0625   0.0625   0.0625   0.0625
     0.0625   0.0625   0.0625   0.0625   0.0625   0.0625   0.0625   0.0625
     0.0625   0.0625   0.0625   0.0625   0.0625   0.0625   0.0625   0.0625
     0.0624   0.0624   0.0618   0.0618   0.0564   0.0564   0.0109   0.0107
     0.0000   0.0000   0.0000   0.0000   0.0000   0.0000

     the Fermi energy is    12.0215 ev

!    total energy              =    -538.30104585 Ry
     Harris-Foulkes estimate   =    -538.30104008 Ry
     estimated scf accuracy    <          2.1E-09 Ry

     The total energy is the sum of the following terms:

     one-electron contribution =     -32.92003612 Ry
     hartree contribution      =      83.64713049 Ry
     xc contribution           =    -199.57962492 Ry
     ewald contribution        =    -389.44315552 Ry
     Hubbard energy            =       0.02828509 Ry
     smearing contrib. (-TS)   =      -0.03364486 Ry

     convergence has been achieved in  10 iterations

     init_run     :      6.94s CPU      7.34s WALL (       1 calls)
     electrons    :    365.83s CPU    369.38s WALL (       1 calls)

     Called by init_run:
     wfcinit      :      0.00s CPU      0.00s WALL (       1 calls)
     potinit      :      0.28s CPU      0.60s WALL (       1 calls)

     Called by electrons:
     c_bands      :    283.66s CPU    285.35s WALL (      10 calls)
     sum_band     :     59.79s CPU     60.58s WALL (      10 calls)
     v_of_rho     :      2.90s CPU      2.92s WALL (      11 calls)
     v_h          :      0.18s CPU      0.18s WALL (      11 calls)
     v_xc         :      2.72s CPU      2.74s WALL (      11 calls)
     newd         :     20.65s CPU     20.76s WALL (      11 calls)
     mix_rho      :      0.29s CPU      0.29s WALL (      10 calls)

     Called by c_bands:
     init_us_2    :      2.74s CPU      2.76s WALL (     720 calls)
     cegterg      :    275.99s CPU    277.12s WALL (     360 calls)

     Called by sum_band:
     sum_band:bec :      0.28s CPU      0.28s WALL (     360 calls)
     addusdens    :     12.60s CPU     12.60s WALL (      10 calls)

     Called by *egterg:
     h_psi        :    198.91s CPU    199.77s WALL (    1454 calls)
     s_psi        :     11.26s CPU     11.25s WALL (    1454 calls)
     g_psi        :      0.84s CPU      0.86s WALL (    1094 calls)
     cdiaghg      :     26.94s CPU     26.97s WALL (    1418 calls)
     cegterg:over :     14.28s CPU     14.45s WALL (    1094 calls)
     cegterg:upda :      9.80s CPU      9.83s WALL (    1094 calls)
     cegterg:last :      5.74s CPU      5.75s WALL (     396 calls)

     Called by h_psi:
     h_psi:vloc   :    162.15s CPU    162.93s WALL (    1454 calls)
     h_psi:vnl    :     23.17s CPU     23.23s WALL (    1454 calls)
     add_vuspsi   :     11.27s CPU     11.32s WALL (    1454 calls)
     vhpsi        :     13.04s CPU     13.07s WALL (    1454 calls)

     General routines
     calbec       :     24.67s CPU     24.72s WALL (    3628 calls)
     fft          :      1.97s CPU      2.07s WALL (     171 calls)
     ffts         :      0.06s CPU      0.11s WALL (      21 calls)
     fftw         :    149.83s CPU    150.75s WALL (  100686 calls)
     interpolate  :      0.34s CPU      0.43s WALL (      21 calls)
     davcio       :      0.01s CPU      0.90s WALL (     756 calls)

     Parallel routines
     fft_scatter  :     43.70s CPU     44.56s WALL (  100878 calls)
     Hubbard U routines
     new_ns       :      2.47s CPU      2.88s WALL (      10 calls)
     vhpsi        :     13.04s CPU     13.07s WALL (    1454 calls)

     PWSCF        :  6m13.18s CPU     6m17.35s WALL


   This run was terminated on:  14:49:58  11Nov2012            

=------------------------------------------------------------------------------=
