   JOB DONE.
=------------------------------------------------------------------------------=

     Program PWSCF v.5.0.1 starts on 11Nov2012 at 15:13:38 

     This program is part of the open-source Quantum ESPRESSO suite
     for quantum simulation of materials; please cite
         "P. Giannozzi et al., J. Phys.:Condens. Matter 21 395502 (2009);
          URL http://www.quantum-espresso.org", 
     in publications or presentations arising from this work. More details at
     http://www.quantum-espresso.org/quote.php

     Parallel version (MPI), running on     2 processors
     R & G space division:  proc/pool =    2

     Current dimensions of program PWSCF are:
     Max number of different atomic species (ntypx) = 10
     Max number of k-points (npk) =  40000
     Max angular momentum in pseudopotentials (lmaxx) =  3
     Reading input from CoLaO_U100_a10.in
               file Co.pbe-nd-rrkjus.UPF: wavefunction(s)  4S 3D renormalized
               file O.pbe-rrkjus.UPF: wavefunction(s)  2S renormalized
               file O.pbe-rrkjus.UPF: wavefunction(s)  2S renormalized

     Subspace diagonalization in iterative solution of the eigenvalue problem:
     a serial algorithm will be used


     Parallelization info
     --------------------
     sticks:   dense  smooth     PW     G-vecs:    dense   smooth      PW
     Min        1112     444    131                34808     8786    1448
     Max        1113     445    132                34809     8787    1449
     Sum        2225     889    263                69617    17573    2897


     Title: 
     GGA + U, U = 1.000, alpha = 0.100                                          


     bravais-lattice index     =            5
     lattice parameter (alat)  =      10.3292  a.u.
     unit-cell volume          =     793.0599 (a.u.)^3
     number of atoms/cell      =           10
     number of atomic types    =            4
     number of electrons       =        76.00
     number of Kohn-Sham states=           46
     kinetic-energy cutoff     =      30.0000  Ry
     charge density cutoff     =     300.0000  Ry
     convergence threshold     =      1.0E-08
     mixing beta               =       0.2000
     number of iterations used =            8  plain     mixing
     Exchange-correlation      =  SLA  PW   PBE  PBE ( 1 4 3 4 0)
     EXX-fraction              =        0.00

     celldm(1)=  10.329242  celldm(2)=   0.000000  celldm(3)=   0.000000
     celldm(4)=   0.488100  celldm(5)=   0.000000  celldm(6)=   0.000000

     crystal axes: (cart. coord. in units of alat)
               a(1) = (   0.505915  -0.292090   0.811624 )  
               a(2) = (   0.000000   0.584180   0.811624 )  
               a(3) = (  -0.505915  -0.292090   0.811624 )  

     reciprocal axes: (cart. coord. in units 2 pi/alat)
               b(1) = (  0.988308 -0.570600  0.410699 )  
               b(2) = (  0.000000  1.141200  0.410699 )  
               b(3) = ( -0.988308 -0.570600  0.410699 )  


     PseudoPot. # 1 for Co read from file:
     /home/mcurnan/dft-course/Project1/example_LaCoO3/Co.pbe-nd-rrkjus.UPF
     MD5 check sum: 3e47a84addf5e975e0edeaeee2a73f59
     Pseudo is Ultrasoft + core correction, Zval =  9.0
     Generated by new atomic code, or converted to UPF format
     Using radial grid of  961 points,  6 beta functions with: 
                l(1) =   0
                l(2) =   0
                l(3) =   1
                l(4) =   1
                l(5) =   2
                l(6) =   2
     Q(r) pseudized with 0 coefficients 


     PseudoPot. # 2 for La read from file:
     /home/mcurnan/dft-course/Project1/example_LaCoO3/La.pbe-nsp-van.UPF
     MD5 check sum: b2f11743f52dde65f77d1302becd7929
     Pseudo is Ultrasoft + core correction, Zval = 11.0
     Generated by new atomic code, or converted to UPF format
     Using radial grid of  907 points,  6 beta functions with: 
                l(1) =   0
                l(2) =   0
                l(3) =   1
                l(4) =   1
                l(5) =   2
                l(6) =   2
     Q(r) pseudized with  6 coefficients,  rinner =    1.200   1.200   1.200
                                                       1.200   1.200

     PseudoPot. # 3 for O  read from file:
     /home/mcurnan/dft-course/Project1/example_LaCoO3/O.pbe-rrkjus.UPF
     MD5 check sum: 390ba29e75625707450f3bd3f0eb6be9
     Pseudo is Ultrasoft, Zval =  6.0
     Generated by new atomic code, or converted to UPF format
     Using radial grid of 1269 points,  4 beta functions with: 
                l(1) =   0
                l(2) =   0
                l(3) =   1
                l(4) =   1
     Q(r) pseudized with 0 coefficients 


     PseudoPot. # 4 for O  read from file:
     /home/mcurnan/dft-course/Project1/example_LaCoO3/O.pbe-rrkjus.UPF
     MD5 check sum: 390ba29e75625707450f3bd3f0eb6be9
     Pseudo is Ultrasoft, Zval =  6.0
     Generated by new atomic code, or converted to UPF format
     Using radial grid of 1269 points,  4 beta functions with: 
                l(1) =   0
                l(2) =   0
                l(3) =   1
                l(4) =   1
     Q(r) pseudized with 0 coefficients 


     atomic species   valence    mass     pseudopotential
        Co1            9.00     1.00000     Co( 1.00)
        La1           11.00     1.00000     La( 1.00)
        O1             6.00     1.00000     O ( 1.00)
        O2             6.00     1.00000     O ( 1.00)
 -----
     simplified LDA+U calculation, Hubbard_lmax = 2
     atomic species  L   Hubbard U  Hubbard alpha
        Co1          2    1.000000    0.000000
        La1          2    0.000000    0.000000
        O1           1    0.000000    0.100000
        O2           1    0.000000    0.000000
 -----

     No symmetry found


                                    s                        frac. trans.

      isym =  1     identity                                     

 cryst.   s( 1) = (     1          0          0      )
                  (     0          1          0      )
                  (     0          0          1      )

 cart.    s( 1) = (  1.0000000  0.0000000  0.0000000 )
                  (  0.0000000  1.0000000  0.0000000 )
                  (  0.0000000  0.0000000  1.0000000 )


     point group C_1 (1)    
     there are  1 classes
     the character table:

       E    
A      1.00

     the symmetry operations in each class:
     E        1

   Cartesian axes

     site n.     atom                  positions (alat units)
         1           Co1 tau(   1) = (   0.2228050  -0.1992639   1.0141240  )
         2           Co1 tau(   2) = (  -0.2831100   0.0928263   1.4199360  )
         3           La1 tau(   3) = (  -0.2831100   0.0928263   0.8112181  )
         4           La1 tau(   4) = (   0.2228050   0.3849164   1.2170300  )
         5           O1  tau(   5) = (   0.0000000   0.0000000   0.0000000  )
         6           O2  tau(   6) = (   0.0008601   0.1861491   1.6232478  )
         7           O2  tau(   7) = (   0.1616398   0.0923297   0.8116239  )
         8           O2  tau(   8) = (  -0.0603051  -0.1064377   1.2166242  )
         9           O2  tau(   9) = (   0.4447499  -0.0004966   1.2166242  )
        10           O2  tau(  10) = (  -0.2219449   0.3854130   1.2166242  )

   Crystallographic axes

     site n.     atom                  positions (cryst. coord.)
         1           Co1 tau(   1) = (  0.7504000  0.1891000  0.3100000  )
         2           Co1 tau(   2) = (  0.2504000  0.6891000  0.8100000  )
         3           La1 tau(   3) = (  0.0004000  0.4391000  0.5600000  )
         4           La1 tau(   4) = (  0.5004000  0.9391000  0.0600000  )
         5           O1  tau(   5) = (  0.0000000  0.0000000  0.0000000  )
         6           O2  tau(   6) = (  0.5613000  0.8791000  0.5596000  )
         7           O2  tau(   7) = (  0.4404000  0.4387000  0.1209000  )
         8           O2  tau(   8) = (  0.5008000  0.3782000  0.6200000  )
         9           O2  tau(   9) = (  0.9395000  0.4991000  0.0604000  )
        10           O2  tau(  10) = (  0.0604000  0.9395000  0.4991000  )

     number of k points=    36  gaussian smearing, width (Ry)=  0.0300
                       cart. coord. in units 2pi/alat
        k(    1) = (   0.0000000   0.0000000   0.0000000), wk =   0.0312500
        k(    2) = (  -0.2470771  -0.1426500   0.1026748), wk =   0.0625000
        k(    3) = (   0.4941541   0.2853000  -0.2053496), wk =   0.0312500
        k(    4) = (  -0.2470771   0.1426500   0.2053496), wk =   0.0625000
        k(    5) = (   0.4941541   0.5706001  -0.1026748), wk =   0.0625000
        k(    6) = (   0.2470771   0.4279500   0.0000000), wk =   0.0625000
        k(    7) = (   0.4941541  -0.2853000  -0.4106993), wk =   0.0312500
        k(    8) = (   0.0000000   0.0000000   0.3080244), wk =   0.0625000
        k(    9) = (   0.7412312   0.4279500   0.0000000), wk =   0.0625000
        k(   10) = (   0.4941541   0.2853000   0.1026748), wk =   0.0625000
        k(   11) = (   0.7412312  -0.4279500  -0.3080244), wk =   0.0625000
        k(   12) = (   0.4941541  -0.5706001  -0.2053496), wk =   0.0625000
        k(   13) = (   0.0000000   0.0000000  -0.6160489), wk =   0.0312500
        k(   14) = (  -0.2470771   0.1426500  -0.1026748), wk =   0.0625000
        k(   15) = (   0.0000000   0.2853000   0.1026748), wk =   0.0625000
        k(   16) = (   0.4941541  -0.2853000   0.2053496), wk =   0.0312500
        k(   17) = (   0.0000000  -0.5706001  -0.2053496), wk =   0.0312500
        k(   18) = (  -0.2470771  -0.1426500  -0.2053496), wk =   0.0625000
        k(   19) = (   0.0000000  -0.2853000   0.2053496), wk =   0.0625000
        k(   20) = (   0.4941541  -0.5706001   0.1026748), wk =   0.0625000
        k(   21) = (  -0.7412312   0.1426500  -0.1026748), wk =   0.0625000
        k(   22) = (   0.2470771  -0.7132501  -0.1026748), wk =   0.0625000
        k(   23) = (  -0.7412312  -0.1426500   0.1026748), wk =   0.0625000
        k(   24) = (   0.2470771   0.7132501   0.1026748), wk =   0.0625000
        k(   25) = (   0.2470771  -0.4279500   0.0000000), wk =   0.0625000
        k(   26) = (  -0.4941541   0.0000000   0.0000000), wk =   0.0625000
        k(   27) = (   0.4941541   0.2853000   0.4106993), wk =   0.0312500
        k(   28) = (   0.0000000   0.5706001  -0.4106993), wk =   0.0312500
        k(   29) = (   0.7412312  -0.4279500   0.0000000), wk =   0.0625000
        k(   30) = (   0.0000000  -0.8559001   0.0000000), wk =   0.0625000
        k(   31) = (   0.4941541  -0.2853000  -0.1026748), wk =   0.0625000
        k(   32) = (   0.0000000  -0.5706001   0.1026748), wk =   0.0625000
        k(   33) = (   0.7412312   0.4279500   0.3080244), wk =   0.0625000
        k(   34) = (   0.0000000   0.8559001  -0.3080244), wk =   0.0625000
        k(   35) = (   0.2470771   0.7132501  -0.2053496), wk =   0.0625000
        k(   36) = (  -0.7412312  -0.1426500  -0.2053496), wk =   0.0625000

                       cryst. coord.
        k(    1) = (   0.0000000   0.0000000   0.0000000), wk =   0.0312500
        k(    2) = (   0.0000000   0.0000000   0.2500000), wk =   0.0625000
        k(    3) = (   0.0000000   0.0000000  -0.5000000), wk =   0.0312500
        k(    4) = (   0.0000000   0.2500000   0.2500000), wk =   0.0625000
        k(    5) = (   0.0000000   0.2500000  -0.5000000), wk =   0.0625000
        k(    6) = (   0.0000000   0.2500000  -0.2500000), wk =   0.0625000
        k(    7) = (   0.0000000  -0.5000000  -0.5000000), wk =   0.0312500
        k(    8) = (   0.2500000   0.2500000   0.2500000), wk =   0.0625000
        k(    9) = (   0.2500000   0.2500000  -0.5000000), wk =   0.0625000
        k(   10) = (   0.2500000   0.2500000  -0.2500000), wk =   0.0625000
        k(   11) = (   0.2500000  -0.5000000  -0.5000000), wk =   0.0625000
        k(   12) = (   0.2500000  -0.5000000  -0.2500000), wk =   0.0625000
        k(   13) = (  -0.5000000  -0.5000000  -0.5000000), wk =   0.0312500
        k(   14) = (  -0.2500000   0.0000000   0.0000000), wk =   0.0625000
        k(   15) = (   0.0000000   0.2500000   0.0000000), wk =   0.0625000
        k(   16) = (   0.5000000   0.0000000   0.0000000), wk =   0.0312500
        k(   17) = (   0.0000000  -0.5000000   0.0000000), wk =   0.0312500
        k(   18) = (  -0.2500000  -0.2500000   0.0000000), wk =   0.0625000
        k(   19) = (   0.2500000   0.0000000   0.2500000), wk =   0.0625000
        k(   20) = (   0.5000000  -0.2500000   0.0000000), wk =   0.0625000
        k(   21) = (  -0.5000000   0.0000000   0.2500000), wk =   0.0625000
        k(   22) = (   0.2500000  -0.5000000   0.0000000), wk =   0.0625000
        k(   23) = (  -0.2500000   0.0000000   0.5000000), wk =   0.0625000
        k(   24) = (   0.0000000   0.5000000  -0.2500000), wk =   0.0625000
        k(   25) = (   0.2500000  -0.2500000   0.0000000), wk =   0.0625000
        k(   26) = (  -0.2500000   0.0000000   0.2500000), wk =   0.0625000
        k(   27) = (   0.5000000   0.5000000   0.0000000), wk =   0.0312500
        k(   28) = (  -0.5000000   0.0000000  -0.5000000), wk =   0.0312500
        k(   29) = (   0.5000000  -0.2500000  -0.2500000), wk =   0.0625000
        k(   30) = (   0.2500000  -0.5000000   0.2500000), wk =   0.0625000
        k(   31) = (   0.2500000  -0.2500000  -0.2500000), wk =   0.0625000
        k(   32) = (   0.2500000  -0.2500000   0.2500000), wk =   0.0625000
        k(   33) = (   0.5000000   0.5000000  -0.2500000), wk =   0.0625000
        k(   34) = (  -0.5000000   0.2500000  -0.5000000), wk =   0.0625000
        k(   35) = (  -0.2500000   0.2500000  -0.5000000), wk =   0.0625000
        k(   36) = (  -0.5000000  -0.2500000   0.2500000), wk =   0.0625000

     Dense  grid:    69617 G-vectors     FFT dimensions: (  60,  60,  60)

     Smooth grid:    17573 G-vectors     FFT dimensions: (  40,  40,  40)

     Largest allocated arrays     est. size (Mb)     dimensions
        Kohn-Sham Wavefunctions         0.79 Mb     (   1119,   46)
        Atomic wavefunctions            1.06 Mb     (   1119,   62)
        NL pseudopotentials             2.05 Mb     (   1119,  120)
        Each V/rho on FFT grid          1.65 Mb     ( 108000)
        Each G-vector array             0.27 Mb     (  34808)
        G-vector shells                 0.04 Mb     (   4682)
     Largest temporary arrays     est. size (Mb)     dimensions
        Auxiliary wavefunctions         3.14 Mb     (   1119,  184)
        Each subspace H/S matrix        0.52 Mb     ( 184, 184)
        Each <psi_i|beta_j> matrix      0.08 Mb     (    120,   46)
        Arrays for rho mixing          13.18 Mb     ( 108000,   8)

     Check: negative/imaginary core charge=   -0.000028    0.000000

     The initial density is read from file :
     /home/mcurnan/dft-course/Project1/example_LaCoO3/100/O/alpha/CoLaO_U100.save/charge-density.dat

 --- in v_hubbard ---
Hubbard energy    0.1356
 -------
     Number of +U iterations with fixed ns =  0
     Starting occupations:
 --- enter write_ns ---
 LDA+U parameters:
U( 1)     =  1.00000000
alpha( 1) =  0.00000000
U( 2)     =  0.00000000
alpha( 2) =  0.00000000
U( 3)     =  0.00000000
alpha( 3) =  0.10000000
U( 4)     =  0.00000000
alpha( 4) =  0.00000000
atom    1   Tr[ns(na)] =   8.02205
    eigenvalues: 
  0.596  0.596  0.938  0.941  0.941
    eigenvectors:
  0.000  0.000  1.000  0.000  0.000
  0.057  0.598  0.000  0.178  0.167
  0.598  0.057  0.000  0.167  0.178
  0.210  0.135  0.000  0.095  0.560
  0.135  0.210  0.000  0.560  0.095
    occupations:
  0.938  0.000  0.000  0.000  0.000
  0.000  0.715  0.000 -0.060  0.152
  0.000  0.000  0.715  0.152  0.060
  0.000 -0.060  0.152  0.822  0.000
  0.000  0.152  0.060  0.000  0.822
atom    2   Tr[ns(na)] =   8.02142
    eigenvalues: 
  0.595  0.595  0.938  0.941  0.941
    eigenvectors:
  0.000  0.000  1.000  0.000  0.000
  0.332  0.323  0.000  0.023  0.322
  0.323  0.332  0.000  0.322  0.023
  0.288  0.057  0.000  0.647  0.008
  0.057  0.288  0.000  0.008  0.647
    occupations:
  0.938  0.000  0.000  0.000  0.000
  0.000  0.715  0.000  0.060  0.153
  0.000  0.000  0.715  0.153 -0.060
  0.000  0.060  0.153  0.822  0.000
  0.000  0.153 -0.060  0.000  0.822
atom    3   Tr[ns(na)] =   3.80282
    eigenvalues: 
  0.355  0.355  0.384  0.403  0.403
    eigenvectors:
  0.000  0.000  1.000  0.000  0.000
  0.065  0.856  0.000  0.058  0.021
  0.856  0.065  0.000  0.021  0.058
  0.073  0.006  0.000  0.250  0.670
  0.006  0.073  0.000  0.670  0.250
    occupations:
  0.384  0.000  0.000  0.000  0.000
  0.000  0.359  0.000  0.000  0.013
  0.000  0.000  0.359  0.013  0.000
  0.000  0.000  0.013  0.399  0.000
  0.000  0.013  0.000  0.000  0.399
atom    4   Tr[ns(na)] =   3.80282
    eigenvalues: 
  0.355  0.355  0.384  0.403  0.403
    eigenvectors:
  0.000  0.000  1.000  0.000  0.000
  0.729  0.192  0.000  0.048  0.032
  0.192  0.729  0.000  0.032  0.048
  0.017  0.062  0.000  0.359  0.562
  0.062  0.017  0.000  0.562  0.359
    occupations:
  0.384  0.000  0.000  0.000  0.000
  0.000  0.359  0.000  0.000  0.013
  0.000  0.000  0.359  0.013  0.000
  0.000  0.000  0.013  0.399  0.000
  0.000  0.013  0.000  0.000  0.399
atom    5   Tr[ns(na)] =   5.43357
    eigenvalues: 
  0.846  0.929  0.941
    eigenvectors:
  0.340  0.000  0.660
  0.496  0.250  0.255
  0.164  0.750  0.086
    occupations:
  0.909 -0.039  0.022
 -0.039  0.891  0.022
  0.022  0.022  0.917
atom    6   Tr[ns(na)] =   5.43358
    eigenvalues: 
  0.846  0.929  0.941
    eigenvectors:
  0.340  0.000  0.660
  0.494  0.250  0.256
  0.166  0.750  0.085
    occupations:
  0.909  0.039  0.022
  0.039  0.891 -0.022
  0.022 -0.022  0.917
atom    7   Tr[ns(na)] =   5.43358
    eigenvalues: 
  0.846  0.929  0.941
    eigenvectors:
  0.340  0.000  0.660
  0.000  1.000  0.000
  0.660  0.000  0.340
    occupations:
  0.909  0.000 -0.045
  0.000  0.929  0.000
 -0.045  0.000  0.879
atom    8   Tr[ns(na)] =   5.43357
    eigenvalues: 
  0.846  0.929  0.941
    eigenvectors:
  0.340  0.000  0.660
  0.496  0.250  0.255
  0.164  0.750  0.086
    occupations:
  0.909 -0.039  0.022
 -0.039  0.891  0.022
  0.022  0.022  0.917
atom    9   Tr[ns(na)] =   5.43358
    eigenvalues: 
  0.846  0.929  0.941
    eigenvectors:
  0.340  0.000  0.660
  0.494  0.250  0.256
  0.166  0.750  0.085
    occupations:
  0.909  0.039  0.022
  0.039  0.891 -0.022
  0.022 -0.022  0.917
atom   10   Tr[ns(na)] =   5.43358
    eigenvalues: 
  0.846  0.929  0.941
    eigenvectors:
  0.340  0.000  0.660
  0.000  1.000  0.000
  0.660  0.000  0.340
    occupations:
  0.909  0.000 -0.045
  0.000  0.929  0.000
 -0.045  0.000  0.879
N of occupied +U levels =  56.2505796
 --- exit write_ns ---
 LDA+U Projector read from file 
     Starting wfc from file

     total cpu time spent up to now is        7.4 secs

     per-process dynamical memory:    62.8 Mb

     Self-consistent Calculation

     iteration #  1     ecut=    30.00 Ry     beta=0.20
     Davidson diagonalization with overlap
     c_bands:  1 eigenvalues not converged
     c_bands:  1 eigenvalues not converged
     c_bands:  1 eigenvalues not converged
     c_bands:  1 eigenvalues not converged
     c_bands:  1 eigenvalues not converged
     c_bands:  1 eigenvalues not converged
     c_bands:  1 eigenvalues not converged
     c_bands:  1 eigenvalues not converged
     c_bands:  1 eigenvalues not converged
     c_bands:  1 eigenvalues not converged
     c_bands:  1 eigenvalues not converged
     c_bands:  1 eigenvalues not converged
     c_bands:  1 eigenvalues not converged
     c_bands:  1 eigenvalues not converged
     c_bands:  1 eigenvalues not converged
     c_bands:  1 eigenvalues not converged
     c_bands:  1 eigenvalues not converged
     c_bands:  1 eigenvalues not converged
     c_bands:  1 eigenvalues not converged
     c_bands:  1 eigenvalues not converged
     c_bands:  1 eigenvalues not converged
     c_bands:  1 eigenvalues not converged
     ethr =  1.00E-10,  avg # of iterations = 17.2
 --- enter write_ns ---
 LDA+U parameters:
U( 1)     =  1.00000000
alpha( 1) =  0.00000000
U( 2)     =  0.00000000
alpha( 2) =  0.00000000
U( 3)     =  0.00000000
alpha( 3) =  0.10000000
U( 4)     =  0.00000000
alpha( 4) =  0.00000000
atom    1   Tr[ns(na)] =   8.08156
    eigenvalues: 
  0.578  0.579  0.961  0.962  0.962
    eigenvectors:
  0.000  0.000  0.794  0.012  0.194
  0.101  0.553  0.063  0.098  0.185
  0.554  0.101  0.008  0.244  0.093
  0.178  0.167  0.058  0.231  0.366
  0.168  0.178  0.077  0.415  0.161
    occupations:
  0.961  0.000  0.000  0.000  0.000
  0.000  0.711  0.000 -0.065  0.170
  0.000  0.000  0.710  0.170  0.066
  0.000 -0.065  0.170  0.829  0.000
  0.000  0.170  0.066  0.000  0.829
atom    2   Tr[ns(na)] =   8.07854
    eigenvalues: 
  0.576  0.577  0.961  0.962  0.963
    eigenvectors:
  0.000  0.000  0.844  0.009  0.147
  0.235  0.419  0.033  0.066  0.246
  0.419  0.235  0.021  0.277  0.048
  0.319  0.027  0.010  0.643  0.002
  0.026  0.319  0.093  0.005  0.557
    occupations:
  0.961  0.000  0.000  0.000  0.000
  0.000  0.710  0.000  0.065  0.171
  0.000  0.000  0.710  0.172 -0.065
  0.000  0.065  0.172  0.829  0.000
  0.000  0.171 -0.065  0.000  0.829
atom    3   Tr[ns(na)] =   3.80212
    eigenvalues: 
  0.356  0.356  0.383  0.403  0.403
    eigenvectors:
  0.000  0.000  1.000  0.000  0.000
  0.691  0.230  0.000  0.019  0.059
  0.231  0.691  0.000  0.060  0.019
  0.020  0.059  0.000  0.694  0.227
  0.058  0.020  0.000  0.227  0.695
    occupations:
  0.383  0.000  0.000  0.000  0.000
  0.000  0.360  0.000  0.000  0.013
  0.000  0.000  0.360  0.013  0.000
  0.000  0.000  0.013  0.399  0.000
  0.000  0.013  0.000  0.000  0.399
atom    4   Tr[ns(na)] =   3.80196
    eigenvalues: 
  0.356  0.356  0.383  0.403  0.403
    eigenvectors:
  0.000  0.000  1.000  0.000  0.000
  0.233  0.685  0.000  0.020  0.063
  0.688  0.232  0.000  0.060  0.020
  0.059  0.022  0.000  0.687  0.233
  0.021  0.061  0.000  0.234  0.684
    occupations:
  0.383  0.000  0.000  0.000  0.000
  0.000  0.360  0.000  0.000  0.013
  0.000  0.000  0.360  0.013  0.000
  0.000  0.000  0.013  0.399  0.000
  0.000  0.013  0.000  0.000  0.399
atom    5   Tr[ns(na)] =   5.40524
    eigenvalues: 
  0.837  0.925  0.940
    eigenvectors:
  0.341  0.000  0.659
  0.495  0.250  0.255
  0.164  0.750  0.086
    occupations:
  0.905 -0.042  0.024
 -0.042  0.885  0.023
  0.024  0.023  0.912
atom    6   Tr[ns(na)] =   5.42223
    eigenvalues: 
  0.841  0.928  0.942
    eigenvectors:
  0.340  0.000  0.660
  0.494  0.251  0.255
  0.166  0.749  0.086
    occupations:
  0.908  0.042  0.024
  0.042  0.889 -0.023
  0.024 -0.023  0.915
atom    7   Tr[ns(na)] =   5.42224
    eigenvalues: 
  0.841  0.928  0.942
    eigenvectors:
  0.340  0.000  0.660
  0.000  1.000  0.000
  0.660  0.000  0.340
    occupations:
  0.908  0.000 -0.048
  0.000  0.928  0.000
 -0.048  0.000  0.875
atom    8   Tr[ns(na)] =   5.42221
    eigenvalues: 
  0.841  0.928  0.942
    eigenvectors:
  0.341  0.000  0.659
  0.495  0.250  0.255
  0.164  0.750  0.086
    occupations:
  0.908 -0.041  0.024
 -0.041  0.889  0.023
  0.024  0.023  0.915
atom    9   Tr[ns(na)] =   5.42221
    eigenvalues: 
  0.841  0.928  0.942
    eigenvectors:
  0.341  0.000  0.659
  0.494  0.251  0.255
  0.165  0.749  0.086
    occupations:
  0.908  0.042  0.024
  0.042  0.889 -0.023
  0.024 -0.023  0.915
atom   10   Tr[ns(na)] =   5.42221
    eigenvalues: 
  0.841  0.928  0.942
    eigenvectors:
  0.341  0.000  0.659
  0.000  1.000  0.000
  0.659  0.000  0.341
    occupations:
  0.908  0.000 -0.048
  0.000  0.928  0.000
 -0.048  0.000  0.875
N of occupied +U levels =  56.2805177
 --- exit write_ns ---
 --- in v_hubbard ---
Hubbard energy    0.1341
 -------

     total cpu time spent up to now is       89.1 secs

     total energy              =    -538.20049502 Ry
     Harris-Foulkes estimate   =    -538.20150936 Ry
     estimated scf accuracy    <       0.00463331 Ry

     iteration #  2     ecut=    30.00 Ry     beta=0.20
     Davidson diagonalization with overlap
     ethr =  6.10E-06,  avg # of iterations =  2.0
 --- enter write_ns ---
 LDA+U parameters:
U( 1)     =  1.00000000
alpha( 1) =  0.00000000
U( 2)     =  0.00000000
alpha( 2) =  0.00000000
U( 3)     =  0.00000000
alpha( 3) =  0.10000000
U( 4)     =  0.00000000
alpha( 4) =  0.00000000
atom    1   Tr[ns(na)] =   8.02760
    eigenvalues: 
  0.566  0.567  0.960  0.961  0.961
    eigenvectors:
  0.000  0.000  0.978  0.001  0.021
  0.101  0.554  0.006  0.151  0.188
  0.554  0.102  0.002  0.193  0.150
  0.176  0.168  0.008  0.138  0.509
  0.168  0.177  0.007  0.516  0.133
    occupations:
  0.960  0.000  0.000  0.000  0.000
  0.000  0.703  0.000 -0.068  0.175
  0.000  0.000  0.702  0.175  0.068
  0.000 -0.068  0.175  0.825  0.000
  0.000  0.175  0.068  0.000  0.825
atom    2   Tr[ns(na)] =   8.03495
    eigenvalues: 
  0.565  0.566  0.961  0.962  0.963
    eigenvectors:
  0.000  0.000  0.982  0.001  0.017
  0.235  0.420  0.004  0.032  0.308
  0.420  0.235  0.002  0.312  0.031
  0.319  0.026  0.001  0.652  0.002
  0.025  0.319  0.011  0.002  0.642
    occupations:
  0.961  0.000  0.000  0.000  0.000
  0.000  0.702  0.000  0.068  0.176
  0.000  0.000  0.702  0.176 -0.068
  0.000  0.068  0.176  0.825  0.000
  0.000  0.176 -0.068  0.000  0.826
atom    3   Tr[ns(na)] =   3.80000
    eigenvalues: 
  0.356  0.356  0.383  0.403  0.403
    eigenvectors:
  0.000  0.000  1.000  0.000  0.000
  0.690  0.231  0.000  0.021  0.058
  0.231  0.690  0.000  0.058  0.021
  0.020  0.058  0.000  0.671  0.250
  0.058  0.020  0.000  0.250  0.671
    occupations:
  0.383  0.000  0.000  0.000  0.000
  0.000  0.359  0.000  0.000  0.013
  0.000  0.000  0.359  0.013  0.000
  0.000  0.000  0.013  0.399  0.000
  0.000  0.013  0.000  0.000  0.399
atom    4   Tr[ns(na)] =   3.80002
    eigenvalues: 
  0.356  0.356  0.383  0.403  0.403
    eigenvectors:
  0.000  0.000  1.000  0.000  0.000
  0.216  0.704  0.000  0.019  0.061
  0.705  0.216  0.000  0.060  0.019
  0.060  0.019  0.000  0.693  0.228
  0.019  0.061  0.000  0.228  0.692
    occupations:
  0.383  0.000  0.000  0.000  0.000
  0.000  0.359  0.000  0.000  0.013
  0.000  0.000  0.359  0.013  0.000
  0.000  0.000  0.013  0.399  0.000
  0.000  0.013  0.000  0.000  0.399
atom    5   Tr[ns(na)] =   5.42969
    eigenvalues: 
  0.843  0.929  0.943
    eigenvectors:
  0.339  0.000  0.661
  0.496  0.250  0.254
  0.165  0.750  0.085
    occupations:
  0.909 -0.041  0.023
 -0.041  0.890  0.022
  0.023  0.022  0.916
atom    6   Tr[ns(na)] =   5.43598
    eigenvalues: 
  0.845  0.930  0.943
    eigenvectors:
  0.339  0.000  0.661
  0.495  0.250  0.255
  0.166  0.750  0.085
    occupations:
  0.910  0.040  0.023
  0.040  0.891 -0.022
  0.023 -0.022  0.917
atom    7   Tr[ns(na)] =   5.43598
    eigenvalues: 
  0.845  0.930  0.943
    eigenvectors:
  0.339  0.000  0.661
  0.000  1.000  0.000
  0.661  0.000  0.339
    occupations:
  0.910  0.000 -0.046
  0.000  0.930  0.000
 -0.046  0.000  0.878
atom    8   Tr[ns(na)] =   5.43539
    eigenvalues: 
  0.845  0.930  0.943
    eigenvectors:
  0.339  0.000  0.661
  0.496  0.250  0.254
  0.165  0.750  0.085
    occupations:
  0.910 -0.040  0.023
 -0.040  0.891  0.022
  0.023  0.022  0.917
atom    9   Tr[ns(na)] =   5.43611
    eigenvalues: 
  0.845  0.930  0.943
    eigenvectors:
  0.339  0.000  0.661
  0.496  0.250  0.254
  0.165  0.750  0.084
    occupations:
  0.910  0.040  0.023
  0.040  0.891 -0.022
  0.023 -0.022  0.917
atom   10   Tr[ns(na)] =   5.43611
    eigenvalues: 
  0.845  0.930  0.943
    eigenvectors:
  0.339  0.000  0.661
  0.000  1.000  0.000
  0.661  0.000  0.339
    occupations:
  0.910  0.000 -0.046
  0.000  0.930  0.000
 -0.046  0.000  0.878
N of occupied +U levels =  56.2718455
 --- exit write_ns ---
 --- in v_hubbard ---
Hubbard energy    0.1334
 -------

     total cpu time spent up to now is      114.2 secs

     total energy              =    -538.20108252 Ry
     Harris-Foulkes estimate   =    -538.20119606 Ry
     estimated scf accuracy    <       0.00217578 Ry

     iteration #  3     ecut=    30.00 Ry     beta=0.20
     Davidson diagonalization with overlap
     ethr =  2.86E-06,  avg # of iterations =  1.0
 --- enter write_ns ---
 LDA+U parameters:
U( 1)     =  1.00000000
alpha( 1) =  0.00000000
U( 2)     =  0.00000000
alpha( 2) =  0.00000000
U( 3)     =  0.00000000
alpha( 3) =  0.10000000
U( 4)     =  0.00000000
alpha( 4) =  0.00000000
atom    1   Tr[ns(na)] =   8.05427
    eigenvalues: 
  0.570  0.571  0.961  0.962  0.962
    eigenvectors:
  0.000  0.000  0.976  0.002  0.023
  0.102  0.554  0.007  0.149  0.189
  0.554  0.102  0.002  0.195  0.148
  0.176  0.169  0.009  0.141  0.506
  0.169  0.176  0.007  0.514  0.134
    occupations:
  0.961  0.000  0.000  0.000  0.000
  0.000  0.706  0.000 -0.067  0.173
  0.000  0.000  0.705  0.174  0.068
  0.000 -0.067  0.174  0.827  0.000
  0.000  0.173  0.068  0.000  0.827
atom    2   Tr[ns(na)] =   8.03547
    eigenvalues: 
  0.567  0.568  0.960  0.961  0.962
    eigenvectors:
  0.000  0.000  0.986  0.001  0.013
  0.234  0.421  0.003  0.032  0.309
  0.421  0.234  0.001  0.313  0.031
  0.319  0.026  0.000  0.653  0.002
  0.026  0.319  0.009  0.002  0.645
    occupations:
  0.960  0.000  0.000  0.000  0.000
  0.000  0.703  0.000  0.067  0.175
  0.000  0.000  0.703  0.175 -0.067
  0.000  0.067  0.175  0.825  0.000
  0.000  0.175 -0.067  0.000  0.826
atom    3   Tr[ns(na)] =   3.79982
    eigenvalues: 
  0.356  0.356  0.383  0.403  0.403
    eigenvectors:
  0.000  0.000  1.000  0.000  0.000
  0.692  0.229  0.000  0.020  0.059
  0.229  0.692  0.000  0.059  0.020
  0.020  0.059  0.000  0.678  0.243
  0.059  0.020  0.000  0.243  0.678
    occupations:
  0.383  0.000  0.000  0.000  0.000
  0.000  0.359  0.000  0.000  0.013
  0.000  0.000  0.359  0.013  0.000
  0.000  0.000  0.013  0.399  0.000
  0.000  0.013  0.000  0.000  0.399
atom    4   Tr[ns(na)] =   3.79982
    eigenvalues: 
  0.356  0.356  0.383  0.403  0.403
    eigenvectors:
  0.000  0.000  1.000  0.000  0.000
  0.227  0.694  0.000  0.018  0.062
  0.694  0.226  0.000  0.061  0.019
  0.059  0.020  0.000  0.700  0.220
  0.020  0.060  0.000  0.221  0.700
    occupations:
  0.383  0.000  0.000  0.000  0.000
  0.000  0.359  0.000  0.000  0.013
  0.000  0.000  0.359  0.013  0.000
  0.000  0.000  0.013  0.399  0.000
  0.000  0.013  0.000  0.000  0.399
atom    5   Tr[ns(na)] =   5.42554
    eigenvalues: 
  0.842  0.928  0.942
    eigenvectors:
  0.340  0.000  0.660
  0.496  0.249  0.255
  0.164  0.751  0.085
    occupations:
  0.908 -0.041  0.024
 -0.041  0.889  0.023
  0.024  0.023  0.915
atom    6   Tr[ns(na)] =   5.43191
    eigenvalues: 
  0.844  0.929  0.943
    eigenvectors:
  0.340  0.000  0.660
  0.494  0.252  0.255
  0.167  0.748  0.085
    occupations:
  0.909  0.041  0.024
  0.041  0.891 -0.023
  0.024 -0.023  0.916
atom    7   Tr[ns(na)] =   5.43191
    eigenvalues: 
  0.844  0.929  0.943
    eigenvectors:
  0.340  0.000  0.660
  0.000  1.000  0.000
  0.660  0.000  0.340
    occupations:
  0.909  0.000 -0.047
  0.000  0.929  0.000
 -0.047  0.000  0.877
atom    8   Tr[ns(na)] =   5.43143
    eigenvalues: 
  0.844  0.929  0.943
    eigenvectors:
  0.339  0.000  0.661
  0.497  0.249  0.254
  0.164  0.751  0.085
    occupations:
  0.909 -0.041  0.023
 -0.041  0.890  0.022
  0.023  0.022  0.916
atom    9   Tr[ns(na)] =   5.43199
    eigenvalues: 
  0.844  0.929  0.943
    eigenvectors:
  0.339  0.000  0.661
  0.495  0.251  0.254
  0.166  0.749  0.085
    occupations:
  0.909  0.041  0.023
  0.041  0.890 -0.022
  0.023 -0.022  0.916
atom   10   Tr[ns(na)] =   5.43199
    eigenvalues: 
  0.844  0.929  0.943
    eigenvectors:
  0.339  0.000  0.661
  0.000  1.000  0.000
  0.661  0.000  0.339
    occupations:
  0.909  0.000 -0.047
  0.000  0.929  0.000
 -0.047  0.000  0.877
N of occupied +U levels =  56.2741659
 --- exit write_ns ---
 --- in v_hubbard ---
Hubbard energy    0.1323
 -------

     total cpu time spent up to now is      137.9 secs

     total energy              =    -538.20111760 Ry
     Harris-Foulkes estimate   =    -538.20115863 Ry
     estimated scf accuracy    <       0.00120968 Ry

     iteration #  4     ecut=    30.00 Ry     beta=0.20
     Davidson diagonalization with overlap
     ethr =  1.59E-06,  avg # of iterations =  1.0
 --- enter write_ns ---
 LDA+U parameters:
U( 1)     =  1.00000000
alpha( 1) =  0.00000000
U( 2)     =  0.00000000
alpha( 2) =  0.00000000
U( 3)     =  0.00000000
alpha( 3) =  0.10000000
U( 4)     =  0.00000000
alpha( 4) =  0.00000000
atom    1   Tr[ns(na)] =   8.01135
    eigenvalues: 
  0.566  0.567  0.957  0.958  0.958
    eigenvectors:
  0.000  0.000  0.988  0.001  0.011
  0.103  0.553  0.003  0.152  0.189
  0.553  0.103  0.001  0.192  0.151
  0.177  0.167  0.004  0.140  0.512
  0.168  0.177  0.003  0.515  0.137
    occupations:
  0.957  0.000  0.000  0.000  0.000
  0.000  0.701  0.000 -0.066  0.174
  0.000  0.000  0.701  0.174  0.067
  0.000 -0.066  0.174  0.823  0.000
  0.000  0.174  0.067  0.000  0.823
atom    2   Tr[ns(na)] =   8.08020
    eigenvalues: 
  0.572  0.573  0.965  0.965  0.966
    eigenvectors:
  0.000  0.000  0.976  0.002  0.022
  0.235  0.420  0.006  0.034  0.304
  0.420  0.235  0.002  0.310  0.032
  0.320  0.025  0.001  0.653  0.002
  0.025  0.319  0.015  0.002  0.639
    occupations:
  0.965  0.000  0.000  0.000  0.000
  0.000  0.708  0.000  0.068  0.174
  0.000  0.000  0.708  0.174 -0.068
  0.000  0.068  0.174  0.830  0.000
  0.000  0.174 -0.068  0.000  0.830
atom    3   Tr[ns(na)] =   3.79972
    eigenvalues: 
  0.356  0.356  0.383  0.403  0.403
    eigenvectors:
  0.000  0.000  1.000  0.000  0.000
  0.692  0.229  0.000  0.013  0.066
  0.229  0.692  0.000  0.066  0.013
  0.020  0.059  0.000  0.770  0.151
  0.059  0.020  0.000  0.151  0.770
    occupations:
  0.383  0.000  0.000  0.000  0.000
  0.000  0.359  0.000  0.000  0.013
  0.000  0.000  0.359  0.013  0.000
  0.000  0.000  0.013  0.399  0.000
  0.000  0.013  0.000  0.000  0.399
atom    4   Tr[ns(na)] =   3.79971
    eigenvalues: 
  0.356  0.356  0.383  0.403  0.403
    eigenvectors:
  0.000  0.000  1.000  0.000  0.000
  0.264  0.657  0.000  0.018  0.062
  0.658  0.263  0.000  0.061  0.018
  0.056  0.023  0.000  0.708  0.213
  0.023  0.057  0.000  0.213  0.708
    occupations:
  0.383  0.000  0.000  0.000  0.000
  0.000  0.359  0.000  0.000  0.013
  0.000  0.000  0.359  0.013  0.000
  0.000  0.000  0.013  0.399  0.000
  0.000  0.013  0.000  0.000  0.399
atom    5   Tr[ns(na)] =   5.42532
    eigenvalues: 
  0.842  0.928  0.942
    eigenvectors:
  0.340  0.000  0.660
  0.493  0.254  0.254
  0.168  0.746  0.086
    occupations:
  0.908 -0.041  0.024
 -0.041  0.889  0.023
  0.024  0.023  0.915
atom    6   Tr[ns(na)] =   5.43157
    eigenvalues: 
  0.844  0.929  0.943
    eigenvectors:
  0.340  0.000  0.660
  0.497  0.247  0.255
  0.163  0.753  0.084
    occupations:
  0.909  0.041  0.023
  0.041  0.890 -0.022
  0.023 -0.022  0.916
atom    7   Tr[ns(na)] =   5.43157
    eigenvalues: 
  0.844  0.929  0.943
    eigenvectors:
  0.340  0.000  0.660
  0.000  1.000  0.000
  0.660  0.000  0.340
    occupations:
  0.909  0.000 -0.047
  0.000  0.929  0.000
 -0.047  0.000  0.877
atom    8   Tr[ns(na)] =   5.43120
    eigenvalues: 
  0.844  0.929  0.943
    eigenvectors:
  0.339  0.000  0.661
  0.493  0.254  0.253
  0.167  0.746  0.086
    occupations:
  0.909 -0.040  0.024
 -0.040  0.890  0.023
  0.024  0.023  0.916
atom    9   Tr[ns(na)] =   5.43162
    eigenvalues: 
  0.844  0.929  0.943
    eigenvectors:
  0.339  0.000  0.661
  0.498  0.247  0.255
  0.163  0.753  0.084
    occupations:
  0.909  0.041  0.023
  0.041  0.890 -0.022
  0.023 -0.022  0.916
atom   10   Tr[ns(na)] =   5.43162
    eigenvalues: 
  0.844  0.929  0.943
    eigenvectors:
  0.339  0.000  0.661
  0.000  1.000  0.000
  0.661  0.000  0.339
    occupations:
  0.909  0.000 -0.047
  0.000  0.929  0.000
 -0.047  0.000  0.877
N of occupied +U levels =  56.2738771
 --- exit write_ns ---
 --- in v_hubbard ---
Hubbard energy    0.1289
 -------

     total cpu time spent up to now is      166.8 secs

     total energy              =    -538.20107358 Ry
     Harris-Foulkes estimate   =    -538.20128480 Ry
     estimated scf accuracy    <       0.00323684 Ry

     iteration #  5     ecut=    30.00 Ry     beta=0.20
     Davidson diagonalization with overlap
     ethr =  1.59E-06,  avg # of iterations =  1.0
 --- enter write_ns ---
 LDA+U parameters:
U( 1)     =  1.00000000
alpha( 1) =  0.00000000
U( 2)     =  0.00000000
alpha( 2) =  0.00000000
U( 3)     =  0.00000000
alpha( 3) =  0.10000000
U( 4)     =  0.00000000
alpha( 4) =  0.00000000
atom    1   Tr[ns(na)] =   8.04775
    eigenvalues: 
  0.569  0.570  0.961  0.962  0.962
    eigenvectors:
  0.000  0.000  0.986  0.001  0.014
  0.103  0.554  0.004  0.140  0.200
  0.554  0.103  0.001  0.203  0.139
  0.175  0.169  0.005  0.155  0.496
  0.169  0.175  0.004  0.500  0.152
    occupations:
  0.961  0.000  0.000  0.000  0.000
  0.000  0.705  0.000 -0.067  0.174
  0.000  0.000  0.704  0.174  0.068
  0.000 -0.067  0.174  0.827  0.000
  0.000  0.174  0.068  0.000  0.827
atom    2   Tr[ns(na)] =   8.04473
    eigenvalues: 
  0.568  0.568  0.961  0.963  0.963
    eigenvectors:
  0.000  0.000  0.989  0.001  0.011
  0.234  0.423  0.003  0.038  0.302
  0.422  0.234  0.001  0.305  0.037
  0.318  0.025  0.000  0.656  0.001
  0.025  0.318  0.007  0.000  0.649
    occupations:
  0.961  0.000  0.000  0.000  0.000
  0.000  0.704  0.000  0.067  0.175
  0.000  0.000  0.704  0.175 -0.067
  0.000  0.067  0.175  0.827  0.000
  0.000  0.175 -0.067  0.000  0.827
atom    3   Tr[ns(na)] =   3.79976
    eigenvalues: 
  0.356  0.356  0.383  0.403  0.403
    eigenvectors:
  0.000  0.000  1.000  0.000  0.000
  0.693  0.229  0.000  0.008  0.070
  0.229  0.693  0.000  0.071  0.008
  0.020  0.058  0.000  0.824  0.098
  0.058  0.020  0.000  0.098  0.824
    occupations:
  0.383  0.000  0.000  0.000  0.000
  0.000  0.359  0.000  0.000  0.013
  0.000  0.000  0.359  0.013  0.000
  0.000  0.000  0.013  0.399  0.000
  0.000  0.013  0.000  0.000  0.399
atom    4   Tr[ns(na)] =   3.79974
    eigenvalues: 
  0.356  0.356  0.383  0.403  0.403
    eigenvectors:
  0.000  0.000  1.000  0.000  0.000
  0.253  0.668  0.000  0.019  0.060
  0.669  0.253  0.000  0.059  0.019
  0.056  0.022  0.000  0.691  0.230
  0.022  0.057  0.000  0.230  0.690
    occupations:
  0.383  0.000  0.000  0.000  0.000
  0.000  0.359  0.000  0.000  0.013
  0.000  0.000  0.359  0.013  0.000
  0.000  0.000  0.013  0.399  0.000
  0.000  0.013  0.000  0.000  0.399
atom    5   Tr[ns(na)] =   5.42509
    eigenvalues: 
  0.842  0.928  0.942
    eigenvectors:
  0.340  0.000  0.660
  0.496  0.250  0.254
  0.165  0.750  0.085
    occupations:
  0.908 -0.041  0.024
 -0.041  0.889  0.023
  0.024  0.023  0.915
atom    6   Tr[ns(na)] =   5.43136
    eigenvalues: 
  0.844  0.929  0.943
    eigenvectors:
  0.340  0.000  0.660
  0.495  0.251  0.254
  0.166  0.749  0.085
    occupations:
  0.909  0.041  0.024
  0.041  0.890 -0.023
  0.024 -0.023  0.916
atom    7   Tr[ns(na)] =   5.43136
    eigenvalues: 
  0.844  0.929  0.943
    eigenvectors:
  0.340  0.000  0.660
  0.000  1.000  0.000
  0.660  0.000  0.340
    occupations:
  0.909  0.000 -0.047
  0.000  0.929  0.000
 -0.047  0.000  0.877
atom    8   Tr[ns(na)] =   5.43131
    eigenvalues: 
  0.844  0.929  0.943
    eigenvectors:
  0.339  0.000  0.661
  0.496  0.250  0.254
  0.165  0.750  0.085
    occupations:
  0.909 -0.041  0.023
 -0.041  0.890  0.022
  0.023  0.022  0.916
atom    9   Tr[ns(na)] =   5.43133
    eigenvalues: 
  0.844  0.929  0.943
    eigenvectors:
  0.339  0.000  0.661
  0.495  0.251  0.254
  0.166  0.749  0.085
    occupations:
  0.909  0.041  0.023
  0.041  0.890 -0.023
  0.023 -0.023  0.916
atom   10   Tr[ns(na)] =   5.43132
    eigenvalues: 
  0.844  0.929  0.943
    eigenvectors:
  0.339  0.000  0.661
  0.000  1.000  0.000
  0.661  0.000  0.339
    occupations:
  0.909  0.000 -0.047
  0.000  0.929  0.000
 -0.047  0.000  0.877
N of occupied +U levels =  56.2737459
 --- exit write_ns ---
 --- in v_hubbard ---
Hubbard energy    0.1282
 -------

     total cpu time spent up to now is      193.5 secs

     total energy              =    -538.20118953 Ry
     Harris-Foulkes estimate   =    -538.20119088 Ry
     estimated scf accuracy    <       0.00002594 Ry

     iteration #  6     ecut=    30.00 Ry     beta=0.20
     Davidson diagonalization with overlap
     ethr =  3.41E-08,  avg # of iterations =  2.0
 --- enter write_ns ---
 LDA+U parameters:
U( 1)     =  1.00000000
alpha( 1) =  0.00000000
U( 2)     =  0.00000000
alpha( 2) =  0.00000000
U( 3)     =  0.00000000
alpha( 3) =  0.10000000
U( 4)     =  0.00000000
alpha( 4) =  0.00000000
atom    1   Tr[ns(na)] =   8.04563
    eigenvalues: 
  0.569  0.569  0.961  0.962  0.962
    eigenvectors:
  0.000  0.000  0.983  0.001  0.016
  0.102  0.554  0.005  0.137  0.202
  0.554  0.103  0.001  0.207  0.136
  0.175  0.169  0.006  0.161  0.489
  0.169  0.175  0.005  0.495  0.156
    occupations:
  0.961  0.000  0.000  0.000  0.000
  0.000  0.704  0.000 -0.067  0.174
  0.000  0.000  0.704  0.174  0.068
  0.000 -0.067  0.174  0.827  0.000
  0.000  0.174  0.068  0.000  0.827
atom    2   Tr[ns(na)] =   8.04432
    eigenvalues: 
  0.567  0.568  0.961  0.963  0.963
    eigenvectors:
  0.000  0.000  0.986  0.001  0.013
  0.234  0.422  0.003  0.041  0.299
  0.422  0.234  0.001  0.303  0.040
  0.319  0.025  0.000  0.656  0.000
  0.025  0.319  0.009  0.000  0.648
    occupations:
  0.961  0.000  0.000  0.000  0.000
  0.000  0.703  0.000  0.067  0.175
  0.000  0.000  0.703  0.175 -0.067
  0.000  0.067  0.175  0.827  0.000
  0.000  0.175 -0.067  0.000  0.827
atom    3   Tr[ns(na)] =   3.79979
    eigenvalues: 
  0.356  0.356  0.383  0.403  0.403
    eigenvectors:
  0.000  0.000  1.000  0.000  0.000
  0.692  0.230  0.000  0.011  0.068
  0.230  0.692  0.000  0.068  0.011
  0.020  0.058  0.000  0.791  0.131
  0.058  0.020  0.000  0.131  0.791
    occupations:
  0.383  0.000  0.000  0.000  0.000
  0.000  0.359  0.000  0.000  0.013
  0.000  0.000  0.359  0.013  0.000
  0.000  0.000  0.013  0.399  0.000
  0.000  0.013  0.000  0.000  0.399
atom    4   Tr[ns(na)] =   3.79977
    eigenvalues: 
  0.356  0.356  0.383  0.403  0.403
    eigenvectors:
  0.000  0.000  1.000  0.000  0.000
  0.414  0.507  0.000  0.019  0.060
  0.508  0.414  0.000  0.060  0.019
  0.042  0.036  0.000  0.693  0.228
  0.036  0.043  0.000  0.229  0.692
    occupations:
  0.383  0.000  0.000  0.000  0.000
  0.000  0.359  0.000  0.000  0.013
  0.000  0.000  0.359  0.013  0.000
  0.000  0.000  0.013  0.399  0.000
  0.000  0.013  0.000  0.000  0.399
atom    5   Tr[ns(na)] =   5.42548
    eigenvalues: 
  0.842  0.928  0.942
    eigenvectors:
  0.340  0.000  0.660
  0.496  0.250  0.254
  0.165  0.750  0.085
    occupations:
  0.908 -0.041  0.024
 -0.041  0.889  0.023
  0.024  0.023  0.915
atom    6   Tr[ns(na)] =   5.43175
    eigenvalues: 
  0.844  0.929  0.943
    eigenvectors:
  0.340  0.000  0.660
  0.495  0.251  0.254
  0.166  0.749  0.085
    occupations:
  0.909  0.041  0.023
  0.041  0.890 -0.023
  0.023 -0.023  0.916
atom    7   Tr[ns(na)] =   5.43175
    eigenvalues: 
  0.844  0.929  0.943
    eigenvectors:
  0.340  0.000  0.660
  0.000  1.000  0.000
  0.660  0.000  0.340
    occupations:
  0.909  0.000 -0.047
  0.000  0.929  0.000
 -0.047  0.000  0.877
atom    8   Tr[ns(na)] =   5.43146
    eigenvalues: 
  0.844  0.929  0.943
    eigenvectors:
  0.339  0.000  0.661
  0.496  0.250  0.254
  0.165  0.750  0.085
    occupations:
  0.909 -0.041  0.023
 -0.041  0.890  0.022
  0.023  0.022  0.916
atom    9   Tr[ns(na)] =   5.43179
    eigenvalues: 
  0.844  0.929  0.943
    eigenvectors:
  0.339  0.000  0.661
  0.495  0.250  0.254
  0.165  0.750  0.085
    occupations:
  0.909  0.041  0.023
  0.041  0.890 -0.022
  0.023 -0.022  0.916
atom   10   Tr[ns(na)] =   5.43179
    eigenvalues: 
  0.844  0.929  0.943
    eigenvectors:
  0.339  0.000  0.661
  0.000  1.000  0.000
  0.661  0.000  0.339
    occupations:
  0.909  0.000 -0.047
  0.000  0.929  0.000
 -0.047  0.000  0.877
N of occupied +U levels =  56.2735230
 --- exit write_ns ---
 --- in v_hubbard ---
Hubbard energy    0.1281
 -------

     total cpu time spent up to now is      220.2 secs

     total energy              =    -538.20120060 Ry
     Harris-Foulkes estimate   =    -538.20119102 Ry
     estimated scf accuracy    <       0.00000244 Ry

     iteration #  7     ecut=    30.00 Ry     beta=0.20
     Davidson diagonalization with overlap
     ethr =  3.21E-09,  avg # of iterations =  2.0
 --- enter write_ns ---
 LDA+U parameters:
U( 1)     =  1.00000000
alpha( 1) =  0.00000000
U( 2)     =  0.00000000
alpha( 2) =  0.00000000
U( 3)     =  0.00000000
alpha( 3) =  0.10000000
U( 4)     =  0.00000000
alpha( 4) =  0.00000000
atom    1   Tr[ns(na)] =   8.04508
    eigenvalues: 
  0.569  0.569  0.961  0.962  0.962
    eigenvectors:
  0.000  0.000  0.980  0.001  0.019
  0.102  0.554  0.006  0.136  0.202
  0.554  0.102  0.001  0.207  0.135
  0.175  0.169  0.007  0.162  0.487
  0.169  0.176  0.006  0.493  0.156
    occupations:
  0.961  0.000  0.000  0.000  0.000
  0.000  0.704  0.000 -0.067  0.174
  0.000  0.000  0.704  0.174  0.068
  0.000 -0.067  0.174  0.827  0.000
  0.000  0.174  0.068  0.000  0.827
atom    2   Tr[ns(na)] =   8.04506
    eigenvalues: 
  0.567  0.568  0.961  0.963  0.963
    eigenvectors:
  0.000  0.000  0.984  0.001  0.015
  0.235  0.421  0.004  0.042  0.298
  0.421  0.234  0.002  0.302  0.040
  0.319  0.025  0.000  0.655  0.000
  0.025  0.319  0.010  0.000  0.646
    occupations:
  0.961  0.000  0.000  0.000  0.000
  0.000  0.704  0.000  0.067  0.175
  0.000  0.000  0.704  0.175 -0.067
  0.000  0.067  0.175  0.827  0.000
  0.000  0.175 -0.067  0.000  0.827
atom    3   Tr[ns(na)] =   3.79986
    eigenvalues: 
  0.356  0.356  0.383  0.403  0.403
    eigenvectors:
  0.000  0.000  1.000  0.000  0.000
  0.692  0.230  0.000  0.011  0.068
  0.230  0.692  0.000  0.068  0.011
  0.020  0.058  0.000  0.790  0.132
  0.058  0.020  0.000  0.132  0.790
    occupations:
  0.383  0.000  0.000  0.000  0.000
  0.000  0.359  0.000  0.000  0.013
  0.000  0.000  0.359  0.013  0.000
  0.000  0.000  0.013  0.399  0.000
  0.000  0.013  0.000  0.000  0.399
atom    4   Tr[ns(na)] =   3.79983
    eigenvalues: 
  0.356  0.356  0.383  0.403  0.403
    eigenvectors:
  0.000  0.000  1.000  0.000  0.000
  0.807  0.114  0.000  0.019  0.060
  0.114  0.808  0.000  0.059  0.019
  0.010  0.068  0.000  0.692  0.230
  0.069  0.010  0.000  0.230  0.691
    occupations:
  0.383  0.000  0.000  0.000  0.000
  0.000  0.359  0.000  0.000  0.013
  0.000  0.000  0.359  0.013  0.000
  0.000  0.000  0.013  0.399  0.000
  0.000  0.013  0.000  0.000  0.399
atom    5   Tr[ns(na)] =   5.42543
    eigenvalues: 
  0.842  0.928  0.942
    eigenvectors:
  0.340  0.000  0.660
  0.496  0.250  0.254
  0.165  0.750  0.085
    occupations:
  0.908 -0.041  0.024
 -0.041  0.889  0.023
  0.024  0.023  0.915
atom    6   Tr[ns(na)] =   5.43172
    eigenvalues: 
  0.844  0.929  0.943
    eigenvectors:
  0.340  0.000  0.660
  0.495  0.251  0.255
  0.166  0.749  0.085
    occupations:
  0.909  0.041  0.023
  0.041  0.890 -0.022
  0.023 -0.022  0.916
atom    7   Tr[ns(na)] =   5.43172
    eigenvalues: 
  0.844  0.929  0.943
    eigenvectors:
  0.340  0.000  0.660
  0.000  1.000  0.000
  0.660  0.000  0.340
    occupations:
  0.909  0.000 -0.047
  0.000  0.929  0.000
 -0.047  0.000  0.877
atom    8   Tr[ns(na)] =   5.43135
    eigenvalues: 
  0.844  0.929  0.943
    eigenvectors:
  0.340  0.000  0.660
  0.496  0.250  0.254
  0.165  0.750  0.085
    occupations:
  0.909 -0.041  0.023
 -0.041  0.890  0.022
  0.023  0.022  0.916
atom    9   Tr[ns(na)] =   5.43178
    eigenvalues: 
  0.844  0.929  0.943
    eigenvectors:
  0.339  0.000  0.661
  0.495  0.250  0.254
  0.165  0.750  0.085
    occupations:
  0.909  0.041  0.023
  0.041  0.890 -0.022
  0.023 -0.022  0.916
atom   10   Tr[ns(na)] =   5.43178
    eigenvalues: 
  0.844  0.929  0.943
    eigenvectors:
  0.339  0.000  0.661
  0.000  1.000  0.000
  0.661  0.000  0.339
    occupations:
  0.909  0.000 -0.047
  0.000  0.929  0.000
 -0.047  0.000  0.877
N of occupied +U levels =  56.2736210
 --- exit write_ns ---
 --- in v_hubbard ---
Hubbard energy    0.1281
 -------

     total cpu time spent up to now is      246.3 secs

     total energy              =    -538.20120809 Ry
     Harris-Foulkes estimate   =    -538.20120091 Ry
     estimated scf accuracy    <       0.00000053 Ry

     iteration #  8     ecut=    30.00 Ry     beta=0.20
     Davidson diagonalization with overlap
     ethr =  6.95E-10,  avg # of iterations =  1.6
 --- enter write_ns ---
 LDA+U parameters:
U( 1)     =  1.00000000
alpha( 1) =  0.00000000
U( 2)     =  0.00000000
alpha( 2) =  0.00000000
U( 3)     =  0.00000000
alpha( 3) =  0.10000000
U( 4)     =  0.00000000
alpha( 4) =  0.00000000
atom    1   Tr[ns(na)] =   8.04551
    eigenvalues: 
  0.569  0.569  0.961  0.962  0.962
    eigenvectors:
  0.000  0.000  0.980  0.001  0.019
  0.102  0.554  0.006  0.138  0.200
  0.554  0.102  0.001  0.205  0.137
  0.175  0.169  0.007  0.158  0.490
  0.169  0.176  0.006  0.497  0.153
    occupations:
  0.961  0.000  0.000  0.000  0.000
  0.000  0.704  0.000 -0.067  0.174
  0.000  0.000  0.704  0.174  0.068
  0.000 -0.067  0.174  0.827  0.000
  0.000  0.174  0.068  0.000  0.827
atom    2   Tr[ns(na)] =   8.04461
    eigenvalues: 
  0.567  0.568  0.961  0.963  0.963
    eigenvectors:
  0.000  0.000  0.984  0.001  0.015
  0.235  0.421  0.004  0.041  0.300
  0.421  0.234  0.002  0.303  0.039
  0.319  0.025  0.000  0.655  0.000
  0.025  0.319  0.010  0.000  0.646
    occupations:
  0.961  0.000  0.000  0.000  0.000
  0.000  0.704  0.000  0.067  0.175
  0.000  0.000  0.704  0.175 -0.067
  0.000  0.067  0.175  0.827  0.000
  0.000  0.175 -0.067  0.000  0.827
atom    3   Tr[ns(na)] =   3.79984
    eigenvalues: 
  0.356  0.356  0.383  0.403  0.403
    eigenvectors:
  0.000  0.000  1.000  0.000  0.000
  0.692  0.230  0.000  0.010  0.068
  0.230  0.692  0.000  0.068  0.010
  0.020  0.058  0.000  0.795  0.127
  0.058  0.020  0.000  0.127  0.795
    occupations:
  0.383  0.000  0.000  0.000  0.000
  0.000  0.359  0.000  0.000  0.013
  0.000  0.000  0.359  0.013  0.000
  0.000  0.000  0.013  0.399  0.000
  0.000  0.013  0.000  0.000  0.399
atom    4   Tr[ns(na)] =   3.79982
    eigenvalues: 
  0.356  0.356  0.383  0.403  0.403
    eigenvectors:
  0.000  0.000  1.000  0.000  0.000
  0.812  0.109  0.000  0.019  0.060
  0.109  0.812  0.000  0.059  0.019
  0.010  0.069  0.000  0.690  0.231
  0.070  0.010  0.000  0.231  0.690
    occupations:
  0.383  0.000  0.000  0.000  0.000
  0.000  0.359  0.000  0.000  0.013
  0.000  0.000  0.359  0.013  0.000
  0.000  0.000  0.013  0.399  0.000
  0.000  0.013  0.000  0.000  0.399
atom    5   Tr[ns(na)] =   5.42544
    eigenvalues: 
  0.842  0.928  0.942
    eigenvectors:
  0.340  0.000  0.660
  0.496  0.250  0.254
  0.165  0.750  0.085
    occupations:
  0.908 -0.041  0.024
 -0.041  0.889  0.023
  0.024  0.023  0.915
atom    6   Tr[ns(na)] =   5.43173
    eigenvalues: 
  0.844  0.929  0.943
    eigenvectors:
  0.340  0.000  0.660
  0.495  0.251  0.255
  0.166  0.749  0.085
    occupations:
  0.909  0.041  0.023
  0.041  0.890 -0.022
  0.023 -0.022  0.916
atom    7   Tr[ns(na)] =   5.43173
    eigenvalues: 
  0.844  0.929  0.943
    eigenvectors:
  0.340  0.000  0.660
  0.000  1.000  0.000
  0.660  0.000  0.340
    occupations:
  0.909  0.000 -0.047
  0.000  0.929  0.000
 -0.047  0.000  0.877
atom    8   Tr[ns(na)] =   5.43139
    eigenvalues: 
  0.844  0.929  0.943
    eigenvectors:
  0.340  0.000  0.660
  0.496  0.250  0.254
  0.165  0.750  0.085
    occupations:
  0.909 -0.041  0.023
 -0.041  0.890  0.022
  0.023  0.022  0.916
atom    9   Tr[ns(na)] =   5.43177
    eigenvalues: 
  0.844  0.929  0.943
    eigenvectors:
  0.339  0.000  0.661
  0.495  0.250  0.254
  0.165  0.750  0.085
    occupations:
  0.909  0.041  0.023
  0.041  0.890 -0.022
  0.023 -0.022  0.916
atom   10   Tr[ns(na)] =   5.43177
    eigenvalues: 
  0.844  0.929  0.943
    eigenvectors:
  0.339  0.000  0.661
  0.000  1.000  0.000
  0.661  0.000  0.339
    occupations:
  0.909  0.000 -0.047
  0.000  0.929  0.000
 -0.047  0.000  0.877
N of occupied +U levels =  56.2736098
 --- exit write_ns ---
 --- in v_hubbard ---
Hubbard energy    0.1281
 -------

     total cpu time spent up to now is      273.2 secs

     total energy              =    -538.20121293 Ry
     Harris-Foulkes estimate   =    -538.20120813 Ry
     estimated scf accuracy    <       0.00000009 Ry

     iteration #  9     ecut=    30.00 Ry     beta=0.20
     Davidson diagonalization with overlap
     ethr =  1.12E-10,  avg # of iterations =  2.4
 --- enter write_ns ---
 LDA+U parameters:
U( 1)     =  1.00000000
alpha( 1) =  0.00000000
U( 2)     =  0.00000000
alpha( 2) =  0.00000000
U( 3)     =  0.00000000
alpha( 3) =  0.10000000
U( 4)     =  0.00000000
alpha( 4) =  0.00000000
atom    1   Tr[ns(na)] =   8.04538
    eigenvalues: 
  0.569  0.569  0.961  0.962  0.962
    eigenvectors:
  0.000  0.000  0.980  0.001  0.019
  0.102  0.554  0.005  0.140  0.199
  0.554  0.102  0.001  0.204  0.139
  0.176  0.168  0.007  0.156  0.493
  0.169  0.176  0.006  0.499  0.151
    occupations:
  0.961  0.000  0.000  0.000  0.000
  0.000  0.704  0.000 -0.067  0.174
  0.000  0.000  0.704  0.174  0.068
  0.000 -0.067  0.174  0.827  0.000
  0.000  0.174  0.068  0.000  0.827
atom    2   Tr[ns(na)] =   8.04477
    eigenvalues: 
  0.567  0.568  0.961  0.963  0.963
    eigenvectors:
  0.000  0.000  0.984  0.001  0.015
  0.235  0.421  0.004  0.040  0.301
  0.421  0.234  0.002  0.304  0.038
  0.319  0.025  0.000  0.655  0.000
  0.025  0.319  0.010  0.000  0.646
    occupations:
  0.961  0.000  0.000  0.000  0.000
  0.000  0.704  0.000  0.067  0.175
  0.000  0.000  0.704  0.175 -0.067
  0.000  0.067  0.175  0.827  0.000
  0.000  0.175 -0.067  0.000  0.827
atom    3   Tr[ns(na)] =   3.79981
    eigenvalues: 
  0.356  0.356  0.383  0.403  0.403
    eigenvectors:
  0.000  0.000  1.000  0.000  0.000
  0.692  0.230  0.000  0.008  0.070
  0.230  0.692  0.000  0.070  0.008
  0.020  0.058  0.000  0.822  0.100
  0.058  0.020  0.000  0.100  0.822
    occupations:
  0.383  0.000  0.000  0.000  0.000
  0.000  0.359  0.000  0.000  0.013
  0.000  0.000  0.359  0.013  0.000
  0.000  0.000  0.013  0.399  0.000
  0.000  0.013  0.000  0.000  0.399
atom    4   Tr[ns(na)] =   3.79978
    eigenvalues: 
  0.356  0.356  0.383  0.403  0.403
    eigenvectors:
  0.000  0.000  1.000  0.000  0.000
  0.796  0.125  0.000  0.019  0.060
  0.125  0.796  0.000  0.059  0.020
  0.011  0.067  0.000  0.688  0.233
  0.068  0.011  0.000  0.233  0.687
    occupations:
  0.383  0.000  0.000  0.000  0.000
  0.000  0.359  0.000  0.000  0.013
  0.000  0.000  0.359  0.013  0.000
  0.000  0.000  0.013  0.399  0.000
  0.000  0.013  0.000  0.000  0.399
atom    5   Tr[ns(na)] =   5.42544
    eigenvalues: 
  0.842  0.928  0.942
    eigenvectors:
  0.340  0.000  0.660
  0.496  0.250  0.254
  0.165  0.750  0.085
    occupations:
  0.908 -0.041  0.024
 -0.041  0.889  0.023
  0.024  0.023  0.915
atom    6   Tr[ns(na)] =   5.43173
    eigenvalues: 
  0.844  0.929  0.943
    eigenvectors:
  0.340  0.000  0.660
  0.495  0.251  0.255
  0.166  0.749  0.085
    occupations:
  0.909  0.041  0.023
  0.041  0.890 -0.022
  0.023 -0.022  0.916
atom    7   Tr[ns(na)] =   5.43173
    eigenvalues: 
  0.844  0.929  0.943
    eigenvectors:
  0.340  0.000  0.660
  0.000  1.000  0.000
  0.660  0.000  0.340
    occupations:
  0.909  0.000 -0.047
  0.000  0.929  0.000
 -0.047  0.000  0.877
atom    8   Tr[ns(na)] =   5.43140
    eigenvalues: 
  0.844  0.929  0.943
    eigenvectors:
  0.339  0.000  0.661
  0.496  0.250  0.254
  0.165  0.750  0.085
    occupations:
  0.909 -0.041  0.023
 -0.041  0.890  0.022
  0.023  0.022  0.916
atom    9   Tr[ns(na)] =   5.43177
    eigenvalues: 
  0.844  0.929  0.943
    eigenvectors:
  0.339  0.000  0.661
  0.495  0.250  0.254
  0.165  0.750  0.085
    occupations:
  0.909  0.041  0.023
  0.041  0.890 -0.022
  0.023 -0.022  0.916
atom   10   Tr[ns(na)] =   5.43177
    eigenvalues: 
  0.844  0.929  0.943
    eigenvectors:
  0.339  0.000  0.661
  0.000  1.000  0.000
  0.661  0.000  0.339
    occupations:
  0.909  0.000 -0.047
  0.000  0.929  0.000
 -0.047  0.000  0.877
N of occupied +U levels =  56.2735889
 --- exit write_ns ---
 --- in v_hubbard ---
Hubbard energy    0.1281
 -------

     total cpu time spent up to now is      305.5 secs

     total energy              =    -538.20121604 Ry
     Harris-Foulkes estimate   =    -538.20121294 Ry
     estimated scf accuracy    <       0.00000001 Ry

     iteration # 10     ecut=    30.00 Ry     beta=0.20
     Davidson diagonalization with overlap
     ethr =  1.57E-11,  avg # of iterations =  1.8
 --- enter write_ns ---
 LDA+U parameters:
U( 1)     =  1.00000000
alpha( 1) =  0.00000000
U( 2)     =  0.00000000
alpha( 2) =  0.00000000
U( 3)     =  0.00000000
alpha( 3) =  0.10000000
U( 4)     =  0.00000000
alpha( 4) =  0.00000000
atom    1   Tr[ns(na)] =   8.04545
    eigenvalues: 
  0.569  0.569  0.961  0.962  0.962
    eigenvectors:
  0.000  0.000  0.980  0.001  0.019
  0.102  0.554  0.005  0.140  0.199
  0.554  0.102  0.001  0.204  0.138
  0.176  0.168  0.007  0.156  0.493
  0.169  0.176  0.006  0.499  0.151
    occupations:
  0.961  0.000  0.000  0.000  0.000
  0.000  0.704  0.000 -0.067  0.174
  0.000  0.000  0.704  0.174  0.068
  0.000 -0.067  0.174  0.827  0.000
  0.000  0.174  0.068  0.000  0.827
atom    2   Tr[ns(na)] =   8.04472
    eigenvalues: 
  0.567  0.568  0.961  0.963  0.963
    eigenvectors:
  0.000  0.000  0.984  0.001  0.015
  0.235  0.422  0.004  0.040  0.300
  0.421  0.234  0.002  0.304  0.039
  0.319  0.025  0.000  0.655  0.000
  0.025  0.319  0.010  0.000  0.646
    occupations:
  0.961  0.000  0.000  0.000  0.000
  0.000  0.704  0.000  0.067  0.175
  0.000  0.000  0.704  0.175 -0.067
  0.000  0.067  0.175  0.827  0.000
  0.000  0.175 -0.067  0.000  0.827
atom    3   Tr[ns(na)] =   3.79981
    eigenvalues: 
  0.356  0.356  0.383  0.403  0.403
    eigenvectors:
  0.000  0.000  1.000  0.000  0.000
  0.692  0.230  0.000  0.009  0.070
  0.230  0.691  0.000  0.070  0.009
  0.020  0.058  0.000  0.814  0.107
  0.058  0.020  0.000  0.107  0.814
    occupations:
  0.383  0.000  0.000  0.000  0.000
  0.000  0.359  0.000  0.000  0.013
  0.000  0.000  0.359  0.013  0.000
  0.000  0.000  0.013  0.399  0.000
  0.000  0.013  0.000  0.000  0.399
atom    4   Tr[ns(na)] =   3.79978
    eigenvalues: 
  0.356  0.356  0.383  0.403  0.403
    eigenvectors:
  0.000  0.000  1.000  0.000  0.000
  0.791  0.129  0.000  0.019  0.060
  0.129  0.792  0.000  0.059  0.020
  0.012  0.067  0.000  0.688  0.233
  0.068  0.011  0.000  0.233  0.687
    occupations:
  0.383  0.000  0.000  0.000  0.000
  0.000  0.359  0.000  0.000  0.013
  0.000  0.000  0.359  0.013  0.000
  0.000  0.000  0.013  0.399  0.000
  0.000  0.013  0.000  0.000  0.399
atom    5   Tr[ns(na)] =   5.42544
    eigenvalues: 
  0.842  0.928  0.942
    eigenvectors:
  0.340  0.000  0.660
  0.496  0.250  0.254
  0.165  0.750  0.085
    occupations:
  0.908 -0.041  0.024
 -0.041  0.889  0.023
  0.024  0.023  0.915
atom    6   Tr[ns(na)] =   5.43173
    eigenvalues: 
  0.844  0.929  0.943
    eigenvectors:
  0.340  0.000  0.660
  0.495  0.251  0.255
  0.166  0.749  0.085
    occupations:
  0.909  0.041  0.023
  0.041  0.890 -0.022
  0.023 -0.022  0.916
atom    7   Tr[ns(na)] =   5.43173
    eigenvalues: 
  0.844  0.929  0.943
    eigenvectors:
  0.340  0.000  0.660
  0.000  1.000  0.000
  0.660  0.000  0.340
    occupations:
  0.909  0.000 -0.047
  0.000  0.929  0.000
 -0.047  0.000  0.877
atom    8   Tr[ns(na)] =   5.43139
    eigenvalues: 
  0.844  0.929  0.943
    eigenvectors:
  0.339  0.000  0.661
  0.496  0.250  0.254
  0.165  0.750  0.085
    occupations:
  0.909 -0.041  0.023
 -0.041  0.890  0.022
  0.023  0.022  0.916
atom    9   Tr[ns(na)] =   5.43178
    eigenvalues: 
  0.844  0.929  0.943
    eigenvectors:
  0.339  0.000  0.661
  0.495  0.250  0.254
  0.165  0.750  0.085
    occupations:
  0.909  0.041  0.023
  0.041  0.890 -0.022
  0.023 -0.022  0.916
atom   10   Tr[ns(na)] =   5.43177
    eigenvalues: 
  0.844  0.929  0.943
    eigenvectors:
  0.339  0.000  0.661
  0.000  1.000  0.000
  0.661  0.000  0.339
    occupations:
  0.909  0.000 -0.047
  0.000  0.929  0.000
 -0.047  0.000  0.877
N of occupied +U levels =  56.2735871
 --- exit write_ns ---
 --- in v_hubbard ---
Hubbard energy    0.1281
 -------

     total cpu time spent up to now is      332.1 secs

     End of self-consistent calculation

          k = 0.0000 0.0000 0.0000 (  2175 PWs)   bands (ev):

   -19.7971 -19.6236  -6.5468  -5.8456  -5.8183  -5.8164  -5.8155  -5.4814
    -3.7664  -3.2593  -3.2034  -3.2017  -3.0224  -3.0217   5.2137   6.9065
     6.9151   7.5306   7.5419   7.6590   7.6650   7.7159   7.7334   9.3090
     9.6265   9.6356   9.7649   9.8845   9.8883  10.3630  10.3638  10.4739
    10.4766  10.5697  10.6886  11.4321  11.4342  11.9990  12.1827  12.1849
    14.7800  14.7825  15.4263  15.4279  16.1960  16.7841

     occupation numbers 
     0.0313   0.0313   0.0313   0.0313   0.0313   0.0313   0.0313   0.0313
     0.0313   0.0313   0.0313   0.0313   0.0313   0.0313   0.0313   0.0313
     0.0313   0.0313   0.0313   0.0313   0.0313   0.0313   0.0313   0.0313
     0.0313   0.0313   0.0312   0.0312   0.0312   0.0312   0.0312   0.0312
     0.0312   0.0312   0.0312   0.0307   0.0307   0.0174   0.0097   0.0096
     0.0000   0.0000   0.0000   0.0000   0.0000   0.0000

          k =-0.2471-0.1427 0.1027 (  2181 PWs)   bands (ev):

   -19.7693 -19.6493  -6.7256  -6.2866  -5.9369  -5.8435  -5.6087  -5.4759
    -3.5796  -3.3838  -2.9261  -2.9003  -2.8420  -2.7557   5.5745   6.8916
     7.0104   7.0269   7.2252   7.5006   7.5544   7.7071   7.7210   8.5560
     8.6354   9.2542   9.6710   9.7879   9.8328  10.0302  10.3806  10.3934
    10.7927  10.8130  10.9196  11.6958  11.7507  11.8024  12.3465  12.4107
    14.3256  14.3328  15.8157  16.0692  16.9718  17.2661

     occupation numbers 
     0.0625   0.0625   0.0625   0.0625   0.0625   0.0625   0.0625   0.0625
     0.0625   0.0625   0.0625   0.0625   0.0625   0.0625   0.0625   0.0625
     0.0625   0.0625   0.0625   0.0625   0.0625   0.0625   0.0625   0.0625
     0.0625   0.0625   0.0625   0.0625   0.0625   0.0625   0.0625   0.0625
     0.0625   0.0625   0.0625   0.0552   0.0526   0.0496   0.0090   0.0062
     0.0000   0.0000   0.0000   0.0000   0.0000   0.0000

          k = 0.4942 0.2853-0.2053 (  2202 PWs)   bands (ev):

   -19.7090 -19.7077  -6.7292  -6.7082  -5.9625  -5.9468  -5.5239  -5.5107
    -3.3751  -3.3698  -2.7846  -2.7832  -2.5067  -2.5024   6.0800   6.1007
     7.2071   7.2272   7.2678   7.2872   7.5930   7.6135   7.8678   7.8992
     8.0793   8.1138   9.5214   9.5289   9.8791   9.8902  10.2897  10.3002
    11.2278  11.2337  11.3280  11.3343  11.5169  11.5264  13.3049  13.3370
    13.3916  13.4207  16.8343  16.8375  17.1317  17.1349

     occupation numbers 
     0.0313   0.0313   0.0313   0.0313   0.0313   0.0313   0.0313   0.0313
     0.0313   0.0313   0.0313   0.0313   0.0313   0.0313   0.0313   0.0313
     0.0313   0.0313   0.0313   0.0313   0.0313   0.0313   0.0313   0.0313
     0.0313   0.0313   0.0313   0.0313   0.0312   0.0312   0.0312   0.0312
     0.0312   0.0312   0.0310   0.0310   0.0302   0.0301   0.0000   0.0000
     0.0000   0.0000   0.0000   0.0000   0.0000   0.0000

          k =-0.2471 0.1427 0.2053 (  2195 PWs)   bands (ev):

   -19.7644 -19.6539  -6.8448  -6.2261  -6.0571  -5.8407  -5.6590  -5.4470
    -3.4028  -3.2569  -3.0938  -2.8833  -2.8081  -2.5563   5.5974   6.8509
     6.9044   6.9706   7.2460   7.4809   7.4986   7.7323   7.7428   8.6537
     8.8017   8.8576   9.2989   9.7773   9.9823  10.0781  10.1798  10.2914
    10.3735  11.2080  11.3084  11.3309  11.7279  11.8009  12.0692  12.7484
    13.6482  14.7957  15.9915  16.1926  17.0339  17.5367

     occupation numbers 
     0.0625   0.0625   0.0625   0.0625   0.0625   0.0625   0.0625   0.0625
     0.0625   0.0625   0.0625   0.0625   0.0625   0.0625   0.0625   0.0625
     0.0625   0.0625   0.0625   0.0625   0.0625   0.0625   0.0625   0.0625
     0.0625   0.0625   0.0625   0.0625   0.0625   0.0625   0.0625   0.0625
     0.0625   0.0624   0.0621   0.0621   0.0537   0.0497   0.0287   0.0004
     0.0000   0.0000   0.0000   0.0000   0.0000   0.0000

          k = 0.4942 0.5706-0.1027 (  2198 PWs)   bands (ev):

   -19.7262 -19.6899  -6.9458  -6.6452  -6.1197  -5.9021  -5.5135  -5.3702
    -3.2956  -3.2469  -2.8728  -2.7020  -2.5230  -2.3799   5.9143   6.2843
     6.7604   7.0074   7.2165   7.3469   7.5305   7.7383   7.8386   7.9921
     8.2894   8.8670   9.1235   9.3438   9.6485   9.8260   9.9617  10.3636
    10.8539  11.3196  11.4203  11.4914  11.6249  11.6713  12.3337  12.7509
    13.4407  14.3722  16.9034  17.1136  17.3095  18.0151

     occupation numbers 
     0.0625   0.0625   0.0625   0.0625   0.0625   0.0625   0.0625   0.0625
     0.0625   0.0625   0.0625   0.0625   0.0625   0.0625   0.0625   0.0625
     0.0625   0.0625   0.0625   0.0625   0.0625   0.0625   0.0625   0.0625
     0.0625   0.0625   0.0625   0.0625   0.0625   0.0625   0.0625   0.0625
     0.0625   0.0621   0.0615   0.0607   0.0578   0.0562   0.0096   0.0004
     0.0000   0.0000   0.0000   0.0000   0.0000   0.0000

          k = 0.2471 0.4280 0.0000 (  2203 PWs)   bands (ev):

   -19.7358 -19.6805  -6.8481  -6.6283  -6.0611  -5.9683  -5.4282  -5.3678
    -3.5039  -3.2877  -2.7949  -2.7090  -2.5646  -2.5526   5.9115   6.3188
     6.9889   7.1182   7.2123   7.3034   7.4648   7.6261   7.7186   8.0807
     8.3212   8.9505   9.3362   9.4448   9.7768   9.7975  10.0749  10.3686
    11.1673  11.2053  11.2149  11.4444  11.4723  11.7702  12.2669  13.3323
    13.4053  14.1707  16.4363  16.9904  17.4187  17.9258

     occupation numbers 
     0.0625   0.0625   0.0625   0.0625   0.0625   0.0625   0.0625   0.0625
     0.0625   0.0625   0.0625   0.0625   0.0625   0.0625   0.0625   0.0625
     0.0625   0.0625   0.0625   0.0625   0.0625   0.0625   0.0625   0.0625
     0.0625   0.0625   0.0625   0.0625   0.0625   0.0625   0.0625   0.0625
     0.0624   0.0624   0.0624   0.0613   0.0610   0.0515   0.0135   0.0000
     0.0000   0.0000   0.0000   0.0000   0.0000   0.0000

          k = 0.4942-0.2853-0.4107 (  2202 PWs)   bands (ev):

   -19.7313 -19.6840  -7.1555  -6.4493  -6.2294  -5.9783  -5.5386  -5.2762
    -3.1854  -3.1191  -3.0366  -2.6447  -2.4759  -2.2174   5.8106   6.3062
     6.3151   6.8983   7.1582   7.2653   7.7520   7.8064   8.1714   8.3448
     8.4598   8.4911   8.6042   9.4428   9.6907  10.0471  10.0783  10.2992
    10.4430  11.1578  11.3636  11.5357  11.6595  11.7962  11.9804  12.4493
    13.3417  14.8083  17.0398  17.2635  17.5181  17.6076

     occupation numbers 
     0.0313   0.0313   0.0313   0.0313   0.0313   0.0313   0.0313   0.0313
     0.0313   0.0313   0.0313   0.0313   0.0313   0.0313   0.0313   0.0313
     0.0313   0.0313   0.0313   0.0313   0.0313   0.0313   0.0313   0.0313
     0.0313   0.0313   0.0313   0.0313   0.0312   0.0312   0.0312   0.0312
     0.0312   0.0312   0.0309   0.0300   0.0283   0.0250   0.0182   0.0024
     0.0000   0.0000   0.0000   0.0000   0.0000   0.0000

          k = 0.0000 0.0000 0.3080 (  2187 PWs)   bands (ev):

   -19.7691 -19.6494  -6.6136  -5.9805  -5.9293  -5.9155  -5.8410  -5.8293
    -3.1952  -3.1049  -3.1025  -2.9639  -2.8927  -2.8906   5.6307   7.0047
     7.0137   7.1542   7.3661   7.4314   7.4420   7.7174   7.7224   8.7895
     8.7940   9.3487   9.4523   9.6398   9.6506   9.8317  10.1371  10.1470
    10.9206  10.9221  11.0207  11.7185  11.7198  11.8120  12.3221  12.3238
    14.2850  14.2875  15.9090  15.9109  16.8786  17.4804

     occupation numbers 
     0.0625   0.0625   0.0625   0.0625   0.0625   0.0625   0.0625   0.0625
     0.0625   0.0625   0.0625   0.0625   0.0625   0.0625   0.0625   0.0625
     0.0625   0.0625   0.0625   0.0625   0.0625   0.0625   0.0625   0.0625
     0.0625   0.0625   0.0625   0.0625   0.0625   0.0625   0.0625   0.0625
     0.0625   0.0625   0.0625   0.0542   0.0541   0.0490   0.0102   0.0101
     0.0000   0.0000   0.0000   0.0000   0.0000   0.0000

          k = 0.7412 0.4280 0.0000 (  2204 PWs)   bands (ev):

   -19.7356 -19.6805  -6.7289  -6.6012  -6.1402  -5.8258  -5.6728  -5.5463
    -3.1655  -3.0840  -3.0408  -2.6709  -2.6504  -2.5809   5.9397   6.5193
     6.9947   7.1667   7.2254   7.3234   7.4453   7.5891   7.8808   8.0435
     8.3647   8.8359   9.3497   9.4899   9.6081   9.6956   9.8604  10.2326
    11.1652  11.2201  11.2946  11.5073  11.5094  11.6738  12.2720  13.2576
    13.3228  14.1919  16.6887  16.7225  17.5912  17.7938

     occupation numbers 
     0.0625   0.0625   0.0625   0.0625   0.0625   0.0625   0.0625   0.0625
     0.0625   0.0625   0.0625   0.0625   0.0625   0.0625   0.0625   0.0625
     0.0625   0.0625   0.0625   0.0625   0.0625   0.0625   0.0625   0.0625
     0.0625   0.0625   0.0625   0.0625   0.0625   0.0625   0.0625   0.0625
     0.0624   0.0624   0.0622   0.0605   0.0604   0.0561   0.0131   0.0000
     0.0000   0.0000   0.0000   0.0000   0.0000   0.0000

          k = 0.4942 0.2853 0.1027 (  2211 PWs)   bands (ev):

   -19.7255 -19.6892  -6.9722  -6.5397  -6.3193  -5.6916  -5.6169  -5.3551
    -3.3099  -3.1603  -3.0238  -2.6004  -2.5570  -2.3756   5.9575   6.2404
     6.7289   7.0063   7.2377   7.2736   7.5461   7.7790   7.8884   7.9666
     8.3138   8.9790   9.1138   9.4121   9.5256   9.6749  10.0228  10.3871
    10.8718  11.3670  11.4984  11.5031  11.5633  11.5817  12.2878  12.7672
    13.4826  14.3557  16.8850  16.9340  17.5812  17.9277

     occupation numbers 
     0.0625   0.0625   0.0625   0.0625   0.0625   0.0625   0.0625   0.0625
     0.0625   0.0625   0.0625   0.0625   0.0625   0.0625   0.0625   0.0625
     0.0625   0.0625   0.0625   0.0625   0.0625   0.0625   0.0625   0.0625
     0.0625   0.0625   0.0625   0.0625   0.0625   0.0625   0.0625   0.0625
     0.0625   0.0619   0.0606   0.0605   0.0594   0.0590   0.0122   0.0004
     0.0000   0.0000   0.0000   0.0000   0.0000   0.0000

          k = 0.7412-0.4280-0.3080 (  2210 PWs)   bands (ev):

   -19.7261 -19.6898  -6.8978  -6.4503  -6.2945  -5.8072  -5.7567  -5.4709
    -3.0641  -3.0452  -2.9601  -2.7236  -2.6162  -2.4228   6.0061   6.3992
     6.7947   6.9833   7.2508   7.2783   7.5777   7.8029   7.9263   8.0011
     8.3000   8.9577   8.9839   9.5260   9.5413   9.5492   9.6701  10.2160
    10.9408  11.3852  11.4852  11.4911  11.6117  11.6497  12.2451  12.7165
    13.4347  14.3233  17.0590  17.0671  17.5505  17.9028

     occupation numbers 
     0.0625   0.0625   0.0625   0.0625   0.0625   0.0625   0.0625   0.0625
     0.0625   0.0625   0.0625   0.0625   0.0625   0.0625   0.0625   0.0625
     0.0625   0.0625   0.0625   0.0625   0.0625   0.0625   0.0625   0.0625
     0.0625   0.0625   0.0625   0.0625   0.0625   0.0625   0.0625   0.0625
     0.0625   0.0618   0.0608   0.0607   0.0582   0.0570   0.0149   0.0006
     0.0000   0.0000   0.0000   0.0000   0.0000   0.0000

          k = 0.4942-0.5706-0.2053 (  2206 PWs)   bands (ev):

   -19.7074 -19.7071  -6.8836  -6.8681  -6.0467  -6.0246  -5.4271  -5.4138
    -3.1472  -3.1467  -2.8099  -2.8064  -2.3806  -2.3769   6.0932   6.1144
     6.9064   6.9164   7.1220   7.1289   7.4182   7.4303   8.0768   8.1155
     8.8051   8.8202   8.9970   9.0085   9.5509   9.5625  10.1008  10.1081
    11.1590  11.1598  11.3785  11.3797  11.6621  11.6668  12.3095  12.3120
    14.0159  14.0251  17.4274  17.4289  17.8656  17.8695

     occupation numbers 
     0.0625   0.0625   0.0625   0.0625   0.0625   0.0625   0.0625   0.0625
     0.0625   0.0625   0.0625   0.0625   0.0625   0.0625   0.0625   0.0625
     0.0625   0.0625   0.0625   0.0625   0.0625   0.0625   0.0625   0.0625
     0.0625   0.0625   0.0625   0.0625   0.0625   0.0625   0.0625   0.0625
     0.0624   0.0624   0.0618   0.0618   0.0565   0.0564   0.0109   0.0108
     0.0000   0.0000   0.0000   0.0000   0.0000   0.0000

          k = 0.0000 0.0000-0.6160 (  2186 PWs)   bands (ev):

   -19.7089 -19.7075  -6.5159  -6.4932  -5.9544  -5.9285  -5.9268  -5.9252
    -2.8880  -2.8833  -2.8823  -2.8813  -2.7069  -2.7038   6.3057   6.3280
     7.2107   7.2159   7.2281   7.2442   7.7479   7.7797   7.9964   7.9979
     8.0269   8.0287   9.6429   9.6438   9.6538   9.6593   9.7104   9.7283
    11.3834  11.3900  11.4383  11.4399  11.4458  11.4488  13.2455  13.2476
    13.2752  13.2779  17.1159  17.1170  17.1183  17.1204

     occupation numbers 
     0.0313   0.0313   0.0313   0.0313   0.0313   0.0313   0.0313   0.0313
     0.0313   0.0313   0.0313   0.0313   0.0313   0.0313   0.0313   0.0313
     0.0313   0.0313   0.0313   0.0313   0.0313   0.0313   0.0313   0.0313
     0.0313   0.0313   0.0313   0.0313   0.0312   0.0312   0.0312   0.0312
     0.0309   0.0309   0.0307   0.0307   0.0306   0.0306   0.0000   0.0000
     0.0000   0.0000   0.0000   0.0000   0.0000   0.0000

          k =-0.2471 0.1427-0.1027 (  2181 PWs)   bands (ev):

   -19.7693 -19.6493  -6.7255  -6.2864  -5.9354  -5.8465  -5.6090  -5.4739
    -3.5809  -3.3832  -2.9267  -2.8998  -2.8413  -2.7563   5.5753   6.8937
     7.0178   7.0186   7.2247   7.4935   7.5587   7.7122   7.7174   8.5538
     8.6394   9.2513   9.6648   9.7951   9.8321  10.0322  10.3792  10.3941
    10.7922  10.8145  10.9185  11.6953  11.7510  11.8018  12.3450  12.4122
    14.3239  14.3344  15.8147  16.0709  16.9723  17.2673

     occupation numbers 
     0.0625   0.0625   0.0625   0.0625   0.0625   0.0625   0.0625   0.0625
     0.0625   0.0625   0.0625   0.0625   0.0625   0.0625   0.0625   0.0625
     0.0625   0.0625   0.0625   0.0625   0.0625   0.0625   0.0625   0.0625
     0.0625   0.0625   0.0625   0.0625   0.0625   0.0625   0.0625   0.0625
     0.0625   0.0625   0.0625   0.0552   0.0526   0.0497   0.0091   0.0061
     0.0000   0.0000   0.0000   0.0000   0.0000   0.0000

          k = 0.0000 0.2853 0.1027 (  2181 PWs)   bands (ev):

   -19.7693 -19.6493  -6.7256  -6.2867  -5.9366  -5.8438  -5.6089  -5.4757
    -3.5796  -3.3838  -2.9262  -2.9002  -2.8420  -2.7557   5.5745   6.8916
     7.0103   7.0271   7.2251   7.5004   7.5545   7.7083   7.7199   8.5562
     8.6352   9.2542   9.6712   9.7879   9.8326  10.0303  10.3815  10.3925
    10.7926  10.8131  10.9196  11.6958  11.7508  11.8023  12.3464  12.4107
    14.3255  14.3329  15.8157  16.0692  16.9718  17.2661

     occupation numbers 
     0.0625   0.0625   0.0625   0.0625   0.0625   0.0625   0.0625   0.0625
     0.0625   0.0625   0.0625   0.0625   0.0625   0.0625   0.0625   0.0625
     0.0625   0.0625   0.0625   0.0625   0.0625   0.0625   0.0625   0.0625
     0.0625   0.0625   0.0625   0.0625   0.0625   0.0625   0.0625   0.0625
     0.0625   0.0625   0.0625   0.0552   0.0526   0.0496   0.0090   0.0062
     0.0000   0.0000   0.0000   0.0000   0.0000   0.0000

          k = 0.4942-0.2853 0.2053 (  2202 PWs)   bands (ev):

   -19.7091 -19.7077  -6.7286  -6.7085  -5.9623  -5.9479  -5.5241  -5.5096
    -3.3743  -3.3715  -2.7852  -2.7820  -2.5067  -2.5028   6.0798   6.1033
     7.2103   7.2313   7.2666   7.2863   7.5831   7.6090   7.8730   7.9029
     8.0810   8.1101   9.5189   9.5242   9.8803   9.9001  10.2867  10.2994
    11.2286  11.2338  11.3282  11.3349  11.5162  11.5245  13.3044  13.3350
    13.3918  13.4229  16.8331  16.8380  17.1329  17.1368

     occupation numbers 
     0.0313   0.0313   0.0313   0.0313   0.0313   0.0313   0.0313   0.0313
     0.0313   0.0313   0.0313   0.0313   0.0313   0.0313   0.0313   0.0313
     0.0313   0.0313   0.0313   0.0313   0.0313   0.0313   0.0313   0.0313
     0.0313   0.0313   0.0313   0.0313   0.0312   0.0312   0.0312   0.0312
     0.0312   0.0312   0.0310   0.0310   0.0302   0.0301   0.0000   0.0000
     0.0000   0.0000   0.0000   0.0000   0.0000   0.0000

          k = 0.0000-0.5706-0.2053 (  2202 PWs)   bands (ev):

   -19.7090 -19.7077  -6.7284  -6.7092  -5.9605  -5.9487  -5.5265  -5.5082
    -3.3727  -3.3721  -2.7862  -2.7816  -2.5064  -2.5027   6.0800   6.1007
     7.2125   7.2221   7.2654   7.2892   7.5845   7.6220   7.8730   7.8939
     8.0852   8.1078   9.5242   9.5263   9.8788   9.8905  10.2899  10.3000
    11.2284  11.2330  11.3273  11.3350  11.5183  11.5249  13.3064  13.3356
    13.3900  13.4222  16.8322  16.8397  17.1307  17.1358

     occupation numbers 
     0.0313   0.0313   0.0313   0.0313   0.0313   0.0313   0.0313   0.0313
     0.0313   0.0313   0.0313   0.0313   0.0313   0.0313   0.0313   0.0313
     0.0313   0.0313   0.0313   0.0313   0.0313   0.0313   0.0313   0.0313
     0.0313   0.0313   0.0313   0.0313   0.0312   0.0312   0.0312   0.0312
     0.0312   0.0312   0.0310   0.0310   0.0301   0.0301   0.0000   0.0000
     0.0000   0.0000   0.0000   0.0000   0.0000   0.0000

          k =-0.2471-0.1427-0.2053 (  2195 PWs)   bands (ev):

   -19.7637 -19.6534  -6.8537  -6.2291  -6.0644  -5.8205  -5.6498  -5.4568
    -3.4032  -3.2569  -3.0941  -2.8857  -2.8095  -2.5581   5.6075   6.8352
     6.9109   6.9824   7.2414   7.4813   7.5091   7.7282   7.7456   8.6513
     8.7891   8.8566   9.3080   9.7689   9.9833  10.0778  10.1866  10.2998
    10.3717  11.2025  11.3071  11.3248  11.7278  11.8021  12.0705  12.7451
    13.6477  14.7976  15.9911  16.1935  17.0365  17.5375

     occupation numbers 
     0.0625   0.0625   0.0625   0.0625   0.0625   0.0625   0.0625   0.0625
     0.0625   0.0625   0.0625   0.0625   0.0625   0.0625   0.0625   0.0625
     0.0625   0.0625   0.0625   0.0625   0.0625   0.0625   0.0625   0.0625
     0.0625   0.0625   0.0625   0.0625   0.0625   0.0625   0.0625   0.0625
     0.0625   0.0624   0.0622   0.0621   0.0537   0.0497   0.0286   0.0005
     0.0000   0.0000   0.0000   0.0000   0.0000   0.0000

          k = 0.0000-0.2853 0.2053 (  2195 PWs)   bands (ev):

   -19.7637 -19.6534  -6.8537  -6.2292  -6.0643  -5.8206  -5.6498  -5.4568
    -3.4032  -3.2569  -3.0941  -2.8857  -2.8095  -2.5581   5.6075   6.8352
     6.9109   6.9825   7.2414   7.4804   7.5100   7.7280   7.7458   8.6512
     8.7895   8.8564   9.3080   9.7688   9.9833  10.0778  10.1866  10.2998
    10.3717  11.2025  11.3072  11.3247  11.7278  11.8022  12.0705  12.7451
    13.6477  14.7976  15.9911  16.1935  17.0365  17.5375

     occupation numbers 
     0.0625   0.0625   0.0625   0.0625   0.0625   0.0625   0.0625   0.0625
     0.0625   0.0625   0.0625   0.0625   0.0625   0.0625   0.0625   0.0625
     0.0625   0.0625   0.0625   0.0625   0.0625   0.0625   0.0625   0.0625
     0.0625   0.0625   0.0625   0.0625   0.0625   0.0625   0.0625   0.0625
     0.0625   0.0624   0.0622   0.0621   0.0537   0.0497   0.0286   0.0005
     0.0000   0.0000   0.0000   0.0000   0.0000   0.0000

          k = 0.4942-0.5706 0.1027 (  2198 PWs)   bands (ev):

   -19.7254 -19.6894  -6.9565  -6.6415  -6.1299  -5.8822  -5.5069  -5.3795
    -3.2973  -3.2473  -2.8714  -2.7038  -2.5245  -2.3821   5.9254   6.2737
     6.7702   7.0138   7.2260   7.3572   7.5273   7.7306   7.8218   8.0120
     8.2746   8.8777   9.1088   9.3363   9.6530   9.8220   9.9593  10.3709
    10.8552  11.3160  11.4235  11.4935  11.6261  11.6644  12.3346  12.7511
    13.4366  14.3739  16.9053  17.1127  17.3107  18.0155

     occupation numbers 
     0.0625   0.0625   0.0625   0.0625   0.0625   0.0625   0.0625   0.0625
     0.0625   0.0625   0.0625   0.0625   0.0625   0.0625   0.0625   0.0625
     0.0625   0.0625   0.0625   0.0625   0.0625   0.0625   0.0625   0.0625
     0.0625   0.0625   0.0625   0.0625   0.0625   0.0625   0.0625   0.0625
     0.0625   0.0621   0.0615   0.0607   0.0577   0.0564   0.0096   0.0004
     0.0000   0.0000   0.0000   0.0000   0.0000   0.0000

          k =-0.7412 0.1427-0.1027 (  2198 PWs)   bands (ev):

   -19.7254 -19.6894  -6.9560  -6.6424  -6.1287  -5.8832  -5.5060  -5.3803
    -3.2965  -3.2473  -2.8712  -2.7048  -2.5239  -2.3825   5.9270   6.2712
     6.7738   7.0133   7.2203   7.3600   7.5225   7.7352   7.8404   7.9901
     8.2790   8.8717   9.1134   9.3375   9.6551   9.8209   9.9597  10.3695
    10.8558  11.3168  11.4207  11.4941  11.6245  11.6666  12.3349  12.7513
    13.4367  14.3741  16.9034  17.1156  17.3101  18.0154

     occupation numbers 
     0.0625   0.0625   0.0625   0.0625   0.0625   0.0625   0.0625   0.0625
     0.0625   0.0625   0.0625   0.0625   0.0625   0.0625   0.0625   0.0625
     0.0625   0.0625   0.0625   0.0625   0.0625   0.0625   0.0625   0.0625
     0.0625   0.0625   0.0625   0.0625   0.0625   0.0625   0.0625   0.0625
     0.0625   0.0621   0.0615   0.0607   0.0578   0.0564   0.0096   0.0004
     0.0000   0.0000   0.0000   0.0000   0.0000   0.0000

          k = 0.2471-0.7133-0.1027 (  2198 PWs)   bands (ev):

   -19.7254 -19.6894  -6.9563  -6.6419  -6.1297  -5.8823  -5.5052  -5.3814
    -3.2964  -3.2472  -2.8716  -2.7039  -2.5240  -2.3827   5.9263   6.2709
     6.7725   7.0149   7.2219   7.3581   7.5218   7.7330   7.8427   7.9921
     8.2782   8.8714   9.1147   9.3397   9.6503   9.8240   9.9578  10.3701
    10.8559  11.3179  11.4202  11.4907  11.6267  11.6675  12.3348  12.7514
    13.4367  14.3741  16.9049  17.1133  17.3100  18.0144

     occupation numbers 
     0.0625   0.0625   0.0625   0.0625   0.0625   0.0625   0.0625   0.0625
     0.0625   0.0625   0.0625   0.0625   0.0625   0.0625   0.0625   0.0625
     0.0625   0.0625   0.0625   0.0625   0.0625   0.0625   0.0625   0.0625
     0.0625   0.0625   0.0625   0.0625   0.0625   0.0625   0.0625   0.0625
     0.0625   0.0621   0.0615   0.0607   0.0577   0.0563   0.0096   0.0004
     0.0000   0.0000   0.0000   0.0000   0.0000   0.0000

          k =-0.7412-0.1427 0.1027 (  2198 PWs)   bands (ev):

   -19.7254 -19.6894  -6.9568  -6.6410  -6.1308  -5.8813  -5.5062  -5.3806
    -3.2972  -3.2471  -2.8718  -2.7029  -2.5246  -2.3824   5.9247   6.2735
     6.7689   7.0154   7.2275   7.3554   7.5264   7.7287   7.8240   8.0139
     8.2739   8.8773   9.1100   9.3384   9.6483   9.8250   9.9574  10.3716
    10.8553  11.3170  11.4231  11.4900  11.6283  11.6653  12.3345  12.7511
    13.4366  14.3739  16.9068  17.1105  17.3105  18.0146

     occupation numbers 
     0.0625   0.0625   0.0625   0.0625   0.0625   0.0625   0.0625   0.0625
     0.0625   0.0625   0.0625   0.0625   0.0625   0.0625   0.0625   0.0625
     0.0625   0.0625   0.0625   0.0625   0.0625   0.0625   0.0625   0.0625
     0.0625   0.0625   0.0625   0.0625   0.0625   0.0625   0.0625   0.0625
     0.0625   0.0621   0.0615   0.0607   0.0577   0.0564   0.0096   0.0004
     0.0000   0.0000   0.0000   0.0000   0.0000   0.0000

          k = 0.2471 0.7133 0.1027 (  2198 PWs)   bands (ev):

   -19.7262 -19.6899  -6.9463  -6.6442  -6.1209  -5.9011  -5.5144  -5.3695
    -3.2964  -3.2469  -2.8729  -2.7010  -2.5236  -2.3795   5.9128   6.2869
     6.7567   7.0080   7.2221   7.3441   7.5352   7.7338   7.8208   8.0129
     8.2853   8.8728   9.1190   9.3427   9.6466   9.8269   9.9614  10.3651
    10.8534  11.3188  11.4230  11.4908  11.6265  11.6691  12.3334  12.7506
    13.4406  14.3719  16.9053  17.1108  17.3101  18.0151

     occupation numbers 
     0.0625   0.0625   0.0625   0.0625   0.0625   0.0625   0.0625   0.0625
     0.0625   0.0625   0.0625   0.0625   0.0625   0.0625   0.0625   0.0625
     0.0625   0.0625   0.0625   0.0625   0.0625   0.0625   0.0625   0.0625
     0.0625   0.0625   0.0625   0.0625   0.0625   0.0625   0.0625   0.0625
     0.0625   0.0621   0.0615   0.0607   0.0577   0.0563   0.0096   0.0004
     0.0000   0.0000   0.0000   0.0000   0.0000   0.0000

          k = 0.2471-0.4280 0.0000 (  2203 PWs)   bands (ev):

   -19.7359 -19.6804  -6.8434  -6.6381  -6.0408  -5.9792  -5.4387  -5.3614
    -3.5053  -3.2878  -2.7970  -2.7045  -2.5634  -2.5547   5.9010   6.3262
     6.9830   7.1201   7.2215   7.3092   7.4552   7.6344   7.7134   8.0898
     8.3307   8.9380   9.3319   9.4268   9.7806   9.8013  10.0742  10.3720
    11.1698  11.2066  11.2169  11.4465  11.4729  11.7655  12.2668  13.3340
    13.4072  14.1674  16.4357  16.9924  17.4209  17.9254

     occupation numbers 
     0.0625   0.0625   0.0625   0.0625   0.0625   0.0625   0.0625   0.0625
     0.0625   0.0625   0.0625   0.0625   0.0625   0.0625   0.0625   0.0625
     0.0625   0.0625   0.0625   0.0625   0.0625   0.0625   0.0625   0.0625
     0.0625   0.0625   0.0625   0.0625   0.0625   0.0625   0.0625   0.0625
     0.0624   0.0624   0.0624   0.0613   0.0609   0.0518   0.0135   0.0000
     0.0000   0.0000   0.0000   0.0000   0.0000   0.0000

          k =-0.4942 0.0000 0.0000 (  2203 PWs)   bands (ev):

   -19.7359 -19.6804  -6.8434  -6.6382  -6.0408  -5.9792  -5.4387  -5.3614
    -3.5054  -3.2878  -2.7970  -2.7045  -2.5632  -2.5549   5.9010   6.3262
     6.9830   7.1206   7.2199   7.3104   7.4552   7.6346   7.7133   8.0896
     8.3307   8.9380   9.3319   9.4268   9.7810   9.8008  10.0743  10.3719
    11.1698  11.2066  11.2169  11.4465  11.4729  11.7655  12.2668  13.3340
    13.4072  14.1674  16.4357  16.9924  17.4208  17.9244

     occupation numbers 
     0.0625   0.0625   0.0625   0.0625   0.0625   0.0625   0.0625   0.0625
     0.0625   0.0625   0.0625   0.0625   0.0625   0.0625   0.0625   0.0625
     0.0625   0.0625   0.0625   0.0625   0.0625   0.0625   0.0625   0.0625
     0.0625   0.0625   0.0625   0.0625   0.0625   0.0625   0.0625   0.0625
     0.0624   0.0624   0.0624   0.0613   0.0609   0.0518   0.0135   0.0000
     0.0000   0.0000   0.0000   0.0000   0.0000   0.0000

          k = 0.4942 0.2853 0.4107 (  2202 PWs)   bands (ev):

   -19.7298 -19.6829  -7.1674  -6.4537  -6.2409  -5.9537  -5.5237  -5.2881
    -3.1861  -3.1200  -3.0369  -2.6488  -2.4783  -2.2208   5.8267   6.2949
     6.3207   6.9046   7.1716   7.2803   7.7608   7.8155   8.1736   8.3230
     8.4438   8.4743   8.6216   9.4220   9.6858  10.0455  10.0848  10.2990
    10.4510  11.1580  11.3612  11.5376  11.6609  11.7904  11.9816  12.4498
    13.3368  14.8103  17.0410  17.2641  17.5205  17.6094

     occupation numbers 
     0.0313   0.0313   0.0313   0.0313   0.0313   0.0313   0.0313   0.0313
     0.0313   0.0313   0.0313   0.0313   0.0313   0.0313   0.0313   0.0313
     0.0313   0.0313   0.0313   0.0313   0.0313   0.0313   0.0313   0.0313
     0.0313   0.0313   0.0313   0.0313   0.0312   0.0312   0.0312   0.0312
     0.0312   0.0312   0.0310   0.0300   0.0283   0.0252   0.0181   0.0024
     0.0000   0.0000   0.0000   0.0000   0.0000   0.0000

          k = 0.0000 0.5706-0.4107 (  2202 PWs)   bands (ev):

   -19.7298 -19.6829  -7.1674  -6.4538  -6.2407  -5.9537  -5.5238  -5.2881
    -3.1861  -3.1200  -3.0369  -2.6488  -2.4783  -2.2208   5.8267   6.2949
     6.3207   6.9046   7.1716   7.2802   7.7602   7.8161   8.1738   8.3228
     8.4437   8.4743   8.6217   9.4221   9.6858  10.0457  10.0847  10.2990
    10.4510  11.1580  11.3613  11.5375  11.6609  11.7904  11.9816  12.4498
    13.3368  14.8103  17.0409  17.2642  17.5205  17.6094

     occupation numbers 
     0.0313   0.0313   0.0313   0.0313   0.0313   0.0313   0.0313   0.0313
     0.0313   0.0313   0.0313   0.0313   0.0313   0.0313   0.0313   0.0313
     0.0313   0.0313   0.0313   0.0313   0.0313   0.0313   0.0313   0.0313
     0.0313   0.0313   0.0313   0.0313   0.0312   0.0312   0.0312   0.0312
     0.0312   0.0312   0.0310   0.0300   0.0283   0.0252   0.0181   0.0024
     0.0000   0.0000   0.0000   0.0000   0.0000   0.0000

          k = 0.7412-0.4280 0.0000 (  2204 PWs)   bands (ev):

   -19.7355 -19.6807  -6.7336  -6.5923  -6.1456  -5.8302  -5.6767  -5.5364
    -3.1641  -3.0841  -3.0408  -2.6737  -2.6522  -2.5784   5.9526   6.5105
     7.0022   7.1633   7.2177   7.3165   7.4548   7.5846   7.8801   8.0341
     8.3556   8.8494   9.3543   9.5041   9.6076   9.6936   9.8607  10.2284
    11.1629  11.2178  11.2931  11.5062  11.5084  11.6768  12.2726  13.2560
    13.3208  14.1950  16.6902  16.7214  17.5898  17.7935

     occupation numbers 
     0.0625   0.0625   0.0625   0.0625   0.0625   0.0625   0.0625   0.0625
     0.0625   0.0625   0.0625   0.0625   0.0625   0.0625   0.0625   0.0625
     0.0625   0.0625   0.0625   0.0625   0.0625   0.0625   0.0625   0.0625
     0.0625   0.0625   0.0625   0.0625   0.0625   0.0625   0.0625   0.0625
     0.0624   0.0624   0.0622   0.0605   0.0604   0.0560   0.0131   0.0000
     0.0000   0.0000   0.0000   0.0000   0.0000   0.0000

          k = 0.0000-0.8559 0.0000 (  2204 PWs)   bands (ev):

   -19.7356 -19.6805  -6.7290  -6.6011  -6.1402  -5.8259  -5.6728  -5.5462
    -3.1655  -3.0840  -3.0409  -2.6708  -2.6504  -2.5808   5.9397   6.5193
     6.9946   7.1663   7.2269   7.3223   7.4452   7.5891   7.8806   8.0438
     8.3647   8.8359   9.3497   9.4899   9.6083   9.6953   9.8605  10.2326
    11.1651  11.2201  11.2946  11.5072  11.5095  11.6737  12.2720  13.2576
    13.3228  14.1919  16.6886  16.7225  17.5912  17.7938

     occupation numbers 
     0.0625   0.0625   0.0625   0.0625   0.0625   0.0625   0.0625   0.0625
     0.0625   0.0625   0.0625   0.0625   0.0625   0.0625   0.0625   0.0625
     0.0625   0.0625   0.0625   0.0625   0.0625   0.0625   0.0625   0.0625
     0.0625   0.0625   0.0625   0.0625   0.0625   0.0625   0.0625   0.0625
     0.0624   0.0624   0.0622   0.0605   0.0604   0.0561   0.0131   0.0000
     0.0000   0.0000   0.0000   0.0000   0.0000   0.0000

          k = 0.4942-0.2853-0.1027 (  2211 PWs)   bands (ev):

   -19.7263 -19.6897  -6.9623  -6.5422  -6.3179  -5.7009  -5.6251  -5.3458
    -3.3097  -3.1602  -3.0236  -2.5985  -2.5570  -2.3728   5.9458   6.2546
     6.7164   7.0007   7.2301   7.2680   7.5488   7.7818   7.8853   7.9714
     8.3236   8.9717   9.1225   9.4089   9.5205   9.6923  10.0256  10.3792
    10.8696  11.3682  11.5001  11.5046  11.5619  11.5825  12.2868  12.7668
    13.4865  14.3537  16.8844  16.9343  17.5817  17.9274

     occupation numbers 
     0.0625   0.0625   0.0625   0.0625   0.0625   0.0625   0.0625   0.0625
     0.0625   0.0625   0.0625   0.0625   0.0625   0.0625   0.0625   0.0625
     0.0625   0.0625   0.0625   0.0625   0.0625   0.0625   0.0625   0.0625
     0.0625   0.0625   0.0625   0.0625   0.0625   0.0625   0.0625   0.0625
     0.0625   0.0619   0.0606   0.0605   0.0594   0.0590   0.0122   0.0004
     0.0000   0.0000   0.0000   0.0000   0.0000   0.0000

          k = 0.0000-0.5706 0.1027 (  2211 PWs)   bands (ev):

   -19.7255 -19.6892  -6.9722  -6.5397  -6.3193  -5.6916  -5.6170  -5.3550
    -3.3099  -3.1603  -3.0238  -2.6003  -2.5571  -2.3756   5.9575   6.2405
     6.7289   7.0063   7.2384   7.2729   7.5459   7.7788   7.8883   7.9674
     8.3135   8.9789   9.1139   9.4122   9.5255   9.6749  10.0228  10.3870
    10.8718  11.3670  11.4978  11.5037  11.5635  11.5815  12.2878  12.7672
    13.4826  14.3557  16.8850  16.9340  17.5812  17.9277

     occupation numbers 
     0.0625   0.0625   0.0625   0.0625   0.0625   0.0625   0.0625   0.0625
     0.0625   0.0625   0.0625   0.0625   0.0625   0.0625   0.0625   0.0625
     0.0625   0.0625   0.0625   0.0625   0.0625   0.0625   0.0625   0.0625
     0.0625   0.0625   0.0625   0.0625   0.0625   0.0625   0.0625   0.0625
     0.0625   0.0619   0.0606   0.0605   0.0594   0.0590   0.0122   0.0004
     0.0000   0.0000   0.0000   0.0000   0.0000   0.0000

          k = 0.7412 0.4280 0.3080 (  2210 PWs)   bands (ev):

   -19.7253 -19.6893  -6.9087  -6.4474  -6.2977  -5.7897  -5.7526  -5.4819
    -3.0647  -3.0447  -2.9589  -2.7260  -2.6176  -2.4254   6.0193   6.3822
     6.8076   6.9898   7.2587   7.2878   7.5723   7.7981   7.9304   7.9989
     8.2899   8.9646   8.9754   9.5216   9.5400   9.5426   9.6689  10.2237
    10.9427  11.3827  11.4849  11.4923  11.6095  11.6494  12.2459  12.7170
    13.4308  14.3253  17.0598  17.0676  17.5496  17.9031

     occupation numbers 
     0.0625   0.0625   0.0625   0.0625   0.0625   0.0625   0.0625   0.0625
     0.0625   0.0625   0.0625   0.0625   0.0625   0.0625   0.0625   0.0625
     0.0625   0.0625   0.0625   0.0625   0.0625   0.0625   0.0625   0.0625
     0.0625   0.0625   0.0625   0.0625   0.0625   0.0625   0.0625   0.0625
     0.0625   0.0618   0.0608   0.0607   0.0582   0.0570   0.0148   0.0006
     0.0000   0.0000   0.0000   0.0000   0.0000   0.0000

          k = 0.0000 0.8559-0.3080 (  2210 PWs)   bands (ev):

   -19.7253 -19.6893  -6.9087  -6.4474  -6.2977  -5.7896  -5.7527  -5.4819
    -3.0647  -3.0447  -2.9589  -2.7260  -2.6177  -2.4254   6.0193   6.3822
     6.8076   6.9897   7.2585   7.2881   7.5722   7.7981   7.9324   7.9966
     8.2903   8.9659   8.9742   9.5215   9.5387   9.5439   9.6690  10.2237
    10.9427  11.3827  11.4841  11.4931  11.6095  11.6494  12.2459  12.7170
    13.4308  14.3253  17.0599  17.0675  17.5496  17.9031

     occupation numbers 
     0.0625   0.0625   0.0625   0.0625   0.0625   0.0625   0.0625   0.0625
     0.0625   0.0625   0.0625   0.0625   0.0625   0.0625   0.0625   0.0625
     0.0625   0.0625   0.0625   0.0625   0.0625   0.0625   0.0625   0.0625
     0.0625   0.0625   0.0625   0.0625   0.0625   0.0625   0.0625   0.0625
     0.0625   0.0618   0.0608   0.0607   0.0582   0.0570   0.0148   0.0006
     0.0000   0.0000   0.0000   0.0000   0.0000   0.0000

          k = 0.2471 0.7133-0.2053 (  2206 PWs)   bands (ev):

   -19.7074 -19.7071  -6.8834  -6.8683  -6.0464  -6.0249  -5.4271  -5.4138
    -3.1472  -3.1467  -2.8100  -2.8064  -2.3802  -2.3773   6.0931   6.1145
     6.9054   6.9174   7.1222   7.1288   7.4179   7.4306   8.0761   8.1161
     8.8059   8.8193   8.9968   9.0088   9.5522   9.5612  10.1010  10.1079
    11.1592  11.1596  11.3774  11.3808  11.6619  11.6669  12.3096  12.3119
    14.0159  14.0252  17.4271  17.4292  17.8670  17.8681

     occupation numbers 
     0.0625   0.0625   0.0625   0.0625   0.0625   0.0625   0.0625   0.0625
     0.0625   0.0625   0.0625   0.0625   0.0625   0.0625   0.0625   0.0625
     0.0625   0.0625   0.0625   0.0625   0.0625   0.0625   0.0625   0.0625
     0.0625   0.0625   0.0625   0.0625   0.0625   0.0625   0.0625   0.0625
     0.0624   0.0624   0.0618   0.0618   0.0565   0.0563   0.0109   0.0108
     0.0000   0.0000   0.0000   0.0000   0.0000   0.0000

          k =-0.7412-0.1427-0.2053 (  2206 PWs)   bands (ev):

   -19.7067 -19.7066  -6.8947  -6.8699  -6.0270  -6.0254  -5.4348  -5.4131
    -3.1484  -3.1470  -2.8073  -2.8063  -2.3866  -2.3772   6.0922   6.1101
     6.9171   6.9201   7.1223   7.1510   7.4302   7.4322   8.0703   8.1056
     8.8014   8.8039   9.0014   9.0030   9.5455   9.5488  10.1108  10.1114
    11.1629  11.1637  11.3778  11.3797  11.6616  11.6627  12.3096  12.3131
    14.0151  14.0245  17.4272  17.4279  17.8675  17.8700

     occupation numbers 
     0.0625   0.0625   0.0625   0.0625   0.0625   0.0625   0.0625   0.0625
     0.0625   0.0625   0.0625   0.0625   0.0625   0.0625   0.0625   0.0625
     0.0625   0.0625   0.0625   0.0625   0.0625   0.0625   0.0625   0.0625
     0.0625   0.0625   0.0625   0.0625   0.0625   0.0625   0.0625   0.0625
     0.0624   0.0624   0.0618   0.0618   0.0565   0.0565   0.0109   0.0107
     0.0000   0.0000   0.0000   0.0000   0.0000   0.0000

     the Fermi energy is    12.0394 ev

!    total energy              =    -538.20122160 Ry
     Harris-Foulkes estimate   =    -538.20121604 Ry
     estimated scf accuracy    <          1.6E-09 Ry

     The total energy is the sum of the following terms:

     one-electron contribution =     -32.91207492 Ry
     hartree contribution      =      83.63655138 Ry
     xc contribution           =    -199.57694232 Ry
     ewald contribution        =    -389.44315552 Ry
     Hubbard energy            =       0.12811560 Ry
     smearing contrib. (-TS)   =      -0.03371582 Ry

     convergence has been achieved in  10 iterations

     init_run     :      6.75s CPU      6.93s WALL (       1 calls)
     electrons    :    320.81s CPU    324.70s WALL (       1 calls)

     Called by init_run:
     wfcinit      :      0.00s CPU      0.00s WALL (       1 calls)
     potinit      :      0.27s CPU      0.37s WALL (       1 calls)

     Called by electrons:
     c_bands      :    248.47s CPU    250.90s WALL (      10 calls)
     sum_band     :     51.98s CPU     52.78s WALL (      10 calls)
     v_of_rho     :      2.83s CPU      2.84s WALL (      11 calls)
     v_h          :      0.16s CPU      0.16s WALL (      11 calls)
     v_xc         :      2.67s CPU      2.68s WALL (      11 calls)
     newd         :     18.51s CPU     18.56s WALL (      11 calls)
     mix_rho      :      0.26s CPU      0.27s WALL (      10 calls)

     Called by c_bands:
     init_us_2    :      2.67s CPU      2.69s WALL (     720 calls)
     cegterg      :    241.07s CPU    243.05s WALL (     360 calls)

     Called by sum_band:
     sum_band:bec :      0.27s CPU      0.27s WALL (     360 calls)
     addusdens    :     11.38s CPU     11.42s WALL (      10 calls)

     Called by *egterg:
     h_psi        :    172.06s CPU    173.67s WALL (    1510 calls)
     s_psi        :      9.96s CPU      9.95s WALL (    1510 calls)
     g_psi        :      0.86s CPU      0.84s WALL (    1150 calls)
     cdiaghg      :     24.63s CPU     24.73s WALL (    1474 calls)
     cegterg:over :     12.37s CPU     12.41s WALL (    1150 calls)
     cegterg:upda :      7.91s CPU      7.95s WALL (    1150 calls)
     cegterg:last :      4.84s CPU      4.85s WALL (     396 calls)

     Called by h_psi:
     h_psi:vloc   :    138.61s CPU    140.08s WALL (    1510 calls)
     h_psi:vnl    :     21.21s CPU     21.24s WALL (    1510 calls)
     add_vuspsi   :      9.88s CPU      9.89s WALL (    1510 calls)
     vhpsi        :     11.78s CPU     11.88s WALL (    1510 calls)

     General routines
     calbec       :     23.94s CPU     24.08s WALL (    3740 calls)
     fft          :      2.10s CPU      2.12s WALL (     171 calls)
     ffts         :      0.05s CPU      0.05s WALL (      21 calls)
     fftw         :    135.04s CPU    136.61s WALL (  100110 calls)
     interpolate  :      0.32s CPU      0.32s WALL (      21 calls)
     davcio       :      0.01s CPU      0.76s WALL (     756 calls)

     Parallel routines
     fft_scatter  :     35.86s CPU     37.19s WALL (  100302 calls)
     Hubbard U routines
     new_ns       :      2.30s CPU      2.62s WALL (      10 calls)
     vhpsi        :     11.78s CPU     11.88s WALL (    1510 calls)

     PWSCF        :  5m27.99s CPU     5m32.11s WALL


   This run was terminated on:  15:19:10  11Nov2012            

=------------------------------------------------------------------------------=
