   JOB DONE.
=------------------------------------------------------------------------------=

     Program PWSCF v.5.0.1 starts on 11Nov2012 at 14:50:13 

     This program is part of the open-source Quantum ESPRESSO suite
     for quantum simulation of materials; please cite
         "P. Giannozzi et al., J. Phys.:Condens. Matter 21 395502 (2009);
          URL http://www.quantum-espresso.org", 
     in publications or presentations arising from this work. More details at
     http://www.quantum-espresso.org/quote.php

     Parallel version (MPI), running on     2 processors
     R & G space division:  proc/pool =    2

     Current dimensions of program PWSCF are:
     Max number of different atomic species (ntypx) = 10
     Max number of k-points (npk) =  40000
     Max angular momentum in pseudopotentials (lmaxx) =  3
     Reading input from CoLaO_U100_a-10.in
               file Co.pbe-nd-rrkjus.UPF: wavefunction(s)  4S 3D renormalized
               file O.pbe-rrkjus.UPF: wavefunction(s)  2S renormalized
               file O.pbe-rrkjus.UPF: wavefunction(s)  2S renormalized

     Subspace diagonalization in iterative solution of the eigenvalue problem:
     a serial algorithm will be used


     Parallelization info
     --------------------
     sticks:   dense  smooth     PW     G-vecs:    dense   smooth      PW
     Min        1112     444    131                34808     8786    1448
     Max        1113     445    132                34809     8787    1449
     Sum        2225     889    263                69617    17573    2897


     Title: 
     GGA + U, U = 1.000, alpha = -0.100                                         


     bravais-lattice index     =            5
     lattice parameter (alat)  =      10.3292  a.u.
     unit-cell volume          =     793.0599 (a.u.)^3
     number of atoms/cell      =           10
     number of atomic types    =            4
     number of electrons       =        76.00
     number of Kohn-Sham states=           46
     kinetic-energy cutoff     =      30.0000  Ry
     charge density cutoff     =     300.0000  Ry
     convergence threshold     =      1.0E-08
     mixing beta               =       0.2000
     number of iterations used =            8  plain     mixing
     Exchange-correlation      =  SLA  PW   PBE  PBE ( 1 4 3 4 0)
     EXX-fraction              =        0.00

     celldm(1)=  10.329242  celldm(2)=   0.000000  celldm(3)=   0.000000
     celldm(4)=   0.488100  celldm(5)=   0.000000  celldm(6)=   0.000000

     crystal axes: (cart. coord. in units of alat)
               a(1) = (   0.505915  -0.292090   0.811624 )  
               a(2) = (   0.000000   0.584180   0.811624 )  
               a(3) = (  -0.505915  -0.292090   0.811624 )  

     reciprocal axes: (cart. coord. in units 2 pi/alat)
               b(1) = (  0.988308 -0.570600  0.410699 )  
               b(2) = (  0.000000  1.141200  0.410699 )  
               b(3) = ( -0.988308 -0.570600  0.410699 )  


     PseudoPot. # 1 for Co read from file:
     /home/mcurnan/dft-course/Project1/example_LaCoO3/Co.pbe-nd-rrkjus.UPF
     MD5 check sum: 3e47a84addf5e975e0edeaeee2a73f59
     Pseudo is Ultrasoft + core correction, Zval =  9.0
     Generated by new atomic code, or converted to UPF format
     Using radial grid of  961 points,  6 beta functions with: 
                l(1) =   0
                l(2) =   0
                l(3) =   1
                l(4) =   1
                l(5) =   2
                l(6) =   2
     Q(r) pseudized with 0 coefficients 


     PseudoPot. # 2 for La read from file:
     /home/mcurnan/dft-course/Project1/example_LaCoO3/La.pbe-nsp-van.UPF
     MD5 check sum: b2f11743f52dde65f77d1302becd7929
     Pseudo is Ultrasoft + core correction, Zval = 11.0
     Generated by new atomic code, or converted to UPF format
     Using radial grid of  907 points,  6 beta functions with: 
                l(1) =   0
                l(2) =   0
                l(3) =   1
                l(4) =   1
                l(5) =   2
                l(6) =   2
     Q(r) pseudized with  6 coefficients,  rinner =    1.200   1.200   1.200
                                                       1.200   1.200

     PseudoPot. # 3 for O  read from file:
     /home/mcurnan/dft-course/Project1/example_LaCoO3/O.pbe-rrkjus.UPF
     MD5 check sum: 390ba29e75625707450f3bd3f0eb6be9
     Pseudo is Ultrasoft, Zval =  6.0
     Generated by new atomic code, or converted to UPF format
     Using radial grid of 1269 points,  4 beta functions with: 
                l(1) =   0
                l(2) =   0
                l(3) =   1
                l(4) =   1
     Q(r) pseudized with 0 coefficients 


     PseudoPot. # 4 for O  read from file:
     /home/mcurnan/dft-course/Project1/example_LaCoO3/O.pbe-rrkjus.UPF
     MD5 check sum: 390ba29e75625707450f3bd3f0eb6be9
     Pseudo is Ultrasoft, Zval =  6.0
     Generated by new atomic code, or converted to UPF format
     Using radial grid of 1269 points,  4 beta functions with: 
                l(1) =   0
                l(2) =   0
                l(3) =   1
                l(4) =   1
     Q(r) pseudized with 0 coefficients 


     atomic species   valence    mass     pseudopotential
        Co1            9.00     1.00000     Co( 1.00)
        La1           11.00     1.00000     La( 1.00)
        O1             6.00     1.00000     O ( 1.00)
        O2             6.00     1.00000     O ( 1.00)
 -----
     simplified LDA+U calculation, Hubbard_lmax = 2
     atomic species  L   Hubbard U  Hubbard alpha
        Co1          2    1.000000    0.000000
        La1          2    0.000000    0.000000
        O1           1    0.000000   -0.100000
        O2           1    0.000000    0.000000
 -----

     No symmetry found


                                    s                        frac. trans.

      isym =  1     identity                                     

 cryst.   s( 1) = (     1          0          0      )
                  (     0          1          0      )
                  (     0          0          1      )

 cart.    s( 1) = (  1.0000000  0.0000000  0.0000000 )
                  (  0.0000000  1.0000000  0.0000000 )
                  (  0.0000000  0.0000000  1.0000000 )


     point group C_1 (1)    
     there are  1 classes
     the character table:

       E    
A      1.00

     the symmetry operations in each class:
     E        1

   Cartesian axes

     site n.     atom                  positions (alat units)
         1           Co1 tau(   1) = (   0.2228050  -0.1992639   1.0141240  )
         2           Co1 tau(   2) = (  -0.2831100   0.0928263   1.4199360  )
         3           La1 tau(   3) = (  -0.2831100   0.0928263   0.8112181  )
         4           La1 tau(   4) = (   0.2228050   0.3849164   1.2170300  )
         5           O1  tau(   5) = (   0.0000000   0.0000000   0.0000000  )
         6           O2  tau(   6) = (   0.0008601   0.1861491   1.6232478  )
         7           O2  tau(   7) = (   0.1616398   0.0923297   0.8116239  )
         8           O2  tau(   8) = (  -0.0603051  -0.1064377   1.2166242  )
         9           O2  tau(   9) = (   0.4447499  -0.0004966   1.2166242  )
        10           O2  tau(  10) = (  -0.2219449   0.3854130   1.2166242  )

   Crystallographic axes

     site n.     atom                  positions (cryst. coord.)
         1           Co1 tau(   1) = (  0.7504000  0.1891000  0.3100000  )
         2           Co1 tau(   2) = (  0.2504000  0.6891000  0.8100000  )
         3           La1 tau(   3) = (  0.0004000  0.4391000  0.5600000  )
         4           La1 tau(   4) = (  0.5004000  0.9391000  0.0600000  )
         5           O1  tau(   5) = (  0.0000000  0.0000000  0.0000000  )
         6           O2  tau(   6) = (  0.5613000  0.8791000  0.5596000  )
         7           O2  tau(   7) = (  0.4404000  0.4387000  0.1209000  )
         8           O2  tau(   8) = (  0.5008000  0.3782000  0.6200000  )
         9           O2  tau(   9) = (  0.9395000  0.4991000  0.0604000  )
        10           O2  tau(  10) = (  0.0604000  0.9395000  0.4991000  )

     number of k points=    36  gaussian smearing, width (Ry)=  0.0300
                       cart. coord. in units 2pi/alat
        k(    1) = (   0.0000000   0.0000000   0.0000000), wk =   0.0312500
        k(    2) = (  -0.2470771  -0.1426500   0.1026748), wk =   0.0625000
        k(    3) = (   0.4941541   0.2853000  -0.2053496), wk =   0.0312500
        k(    4) = (  -0.2470771   0.1426500   0.2053496), wk =   0.0625000
        k(    5) = (   0.4941541   0.5706001  -0.1026748), wk =   0.0625000
        k(    6) = (   0.2470771   0.4279500   0.0000000), wk =   0.0625000
        k(    7) = (   0.4941541  -0.2853000  -0.4106993), wk =   0.0312500
        k(    8) = (   0.0000000   0.0000000   0.3080244), wk =   0.0625000
        k(    9) = (   0.7412312   0.4279500   0.0000000), wk =   0.0625000
        k(   10) = (   0.4941541   0.2853000   0.1026748), wk =   0.0625000
        k(   11) = (   0.7412312  -0.4279500  -0.3080244), wk =   0.0625000
        k(   12) = (   0.4941541  -0.5706001  -0.2053496), wk =   0.0625000
        k(   13) = (   0.0000000   0.0000000  -0.6160489), wk =   0.0312500
        k(   14) = (  -0.2470771   0.1426500  -0.1026748), wk =   0.0625000
        k(   15) = (   0.0000000   0.2853000   0.1026748), wk =   0.0625000
        k(   16) = (   0.4941541  -0.2853000   0.2053496), wk =   0.0312500
        k(   17) = (   0.0000000  -0.5706001  -0.2053496), wk =   0.0312500
        k(   18) = (  -0.2470771  -0.1426500  -0.2053496), wk =   0.0625000
        k(   19) = (   0.0000000  -0.2853000   0.2053496), wk =   0.0625000
        k(   20) = (   0.4941541  -0.5706001   0.1026748), wk =   0.0625000
        k(   21) = (  -0.7412312   0.1426500  -0.1026748), wk =   0.0625000
        k(   22) = (   0.2470771  -0.7132501  -0.1026748), wk =   0.0625000
        k(   23) = (  -0.7412312  -0.1426500   0.1026748), wk =   0.0625000
        k(   24) = (   0.2470771   0.7132501   0.1026748), wk =   0.0625000
        k(   25) = (   0.2470771  -0.4279500   0.0000000), wk =   0.0625000
        k(   26) = (  -0.4941541   0.0000000   0.0000000), wk =   0.0625000
        k(   27) = (   0.4941541   0.2853000   0.4106993), wk =   0.0312500
        k(   28) = (   0.0000000   0.5706001  -0.4106993), wk =   0.0312500
        k(   29) = (   0.7412312  -0.4279500   0.0000000), wk =   0.0625000
        k(   30) = (   0.0000000  -0.8559001   0.0000000), wk =   0.0625000
        k(   31) = (   0.4941541  -0.2853000  -0.1026748), wk =   0.0625000
        k(   32) = (   0.0000000  -0.5706001   0.1026748), wk =   0.0625000
        k(   33) = (   0.7412312   0.4279500   0.3080244), wk =   0.0625000
        k(   34) = (   0.0000000   0.8559001  -0.3080244), wk =   0.0625000
        k(   35) = (   0.2470771   0.7132501  -0.2053496), wk =   0.0625000
        k(   36) = (  -0.7412312  -0.1426500  -0.2053496), wk =   0.0625000

                       cryst. coord.
        k(    1) = (   0.0000000   0.0000000   0.0000000), wk =   0.0312500
        k(    2) = (   0.0000000   0.0000000   0.2500000), wk =   0.0625000
        k(    3) = (   0.0000000   0.0000000  -0.5000000), wk =   0.0312500
        k(    4) = (   0.0000000   0.2500000   0.2500000), wk =   0.0625000
        k(    5) = (   0.0000000   0.2500000  -0.5000000), wk =   0.0625000
        k(    6) = (   0.0000000   0.2500000  -0.2500000), wk =   0.0625000
        k(    7) = (   0.0000000  -0.5000000  -0.5000000), wk =   0.0312500
        k(    8) = (   0.2500000   0.2500000   0.2500000), wk =   0.0625000
        k(    9) = (   0.2500000   0.2500000  -0.5000000), wk =   0.0625000
        k(   10) = (   0.2500000   0.2500000  -0.2500000), wk =   0.0625000
        k(   11) = (   0.2500000  -0.5000000  -0.5000000), wk =   0.0625000
        k(   12) = (   0.2500000  -0.5000000  -0.2500000), wk =   0.0625000
        k(   13) = (  -0.5000000  -0.5000000  -0.5000000), wk =   0.0312500
        k(   14) = (  -0.2500000   0.0000000   0.0000000), wk =   0.0625000
        k(   15) = (   0.0000000   0.2500000   0.0000000), wk =   0.0625000
        k(   16) = (   0.5000000   0.0000000   0.0000000), wk =   0.0312500
        k(   17) = (   0.0000000  -0.5000000   0.0000000), wk =   0.0312500
        k(   18) = (  -0.2500000  -0.2500000   0.0000000), wk =   0.0625000
        k(   19) = (   0.2500000   0.0000000   0.2500000), wk =   0.0625000
        k(   20) = (   0.5000000  -0.2500000   0.0000000), wk =   0.0625000
        k(   21) = (  -0.5000000   0.0000000   0.2500000), wk =   0.0625000
        k(   22) = (   0.2500000  -0.5000000   0.0000000), wk =   0.0625000
        k(   23) = (  -0.2500000   0.0000000   0.5000000), wk =   0.0625000
        k(   24) = (   0.0000000   0.5000000  -0.2500000), wk =   0.0625000
        k(   25) = (   0.2500000  -0.2500000   0.0000000), wk =   0.0625000
        k(   26) = (  -0.2500000   0.0000000   0.2500000), wk =   0.0625000
        k(   27) = (   0.5000000   0.5000000   0.0000000), wk =   0.0312500
        k(   28) = (  -0.5000000   0.0000000  -0.5000000), wk =   0.0312500
        k(   29) = (   0.5000000  -0.2500000  -0.2500000), wk =   0.0625000
        k(   30) = (   0.2500000  -0.5000000   0.2500000), wk =   0.0625000
        k(   31) = (   0.2500000  -0.2500000  -0.2500000), wk =   0.0625000
        k(   32) = (   0.2500000  -0.2500000   0.2500000), wk =   0.0625000
        k(   33) = (   0.5000000   0.5000000  -0.2500000), wk =   0.0625000
        k(   34) = (  -0.5000000   0.2500000  -0.5000000), wk =   0.0625000
        k(   35) = (  -0.2500000   0.2500000  -0.5000000), wk =   0.0625000
        k(   36) = (  -0.5000000  -0.2500000   0.2500000), wk =   0.0625000

     Dense  grid:    69617 G-vectors     FFT dimensions: (  60,  60,  60)

     Smooth grid:    17573 G-vectors     FFT dimensions: (  40,  40,  40)

     Largest allocated arrays     est. size (Mb)     dimensions
        Kohn-Sham Wavefunctions         0.79 Mb     (   1119,   46)
        Atomic wavefunctions            1.06 Mb     (   1119,   62)
        NL pseudopotentials             2.05 Mb     (   1119,  120)
        Each V/rho on FFT grid          1.65 Mb     ( 108000)
        Each G-vector array             0.27 Mb     (  34808)
        G-vector shells                 0.04 Mb     (   4682)
     Largest temporary arrays     est. size (Mb)     dimensions
        Auxiliary wavefunctions         3.14 Mb     (   1119,  184)
        Each subspace H/S matrix        0.52 Mb     ( 184, 184)
        Each <psi_i|beta_j> matrix      0.08 Mb     (    120,   46)
        Arrays for rho mixing          13.18 Mb     ( 108000,   8)

     Check: negative/imaginary core charge=   -0.000028    0.000000

     The initial density is read from file :
     /home/mcurnan/dft-course/Project1/example_LaCoO3/100/O/alpha/CoLaO_U100.save/charge-density.dat

 --- in v_hubbard ---
Hubbard energy    0.0558
 -------
     Number of +U iterations with fixed ns =  0
     Starting occupations:
 --- enter write_ns ---
 LDA+U parameters:
U( 1)     =  1.00000000
alpha( 1) =  0.00000000
U( 2)     =  0.00000000
alpha( 2) =  0.00000000
U( 3)     =  0.00000000
alpha( 3) = -0.10000000
U( 4)     =  0.00000000
alpha( 4) =  0.00000000
atom    1   Tr[ns(na)] =   8.02205
    eigenvalues: 
  0.596  0.596  0.938  0.941  0.941
    eigenvectors:
  0.000  0.000  1.000  0.000  0.000
  0.057  0.598  0.000  0.178  0.167
  0.598  0.057  0.000  0.167  0.178
  0.210  0.135  0.000  0.095  0.560
  0.135  0.210  0.000  0.560  0.095
    occupations:
  0.938  0.000  0.000  0.000  0.000
  0.000  0.715  0.000 -0.060  0.152
  0.000  0.000  0.715  0.152  0.060
  0.000 -0.060  0.152  0.822  0.000
  0.000  0.152  0.060  0.000  0.822
atom    2   Tr[ns(na)] =   8.02142
    eigenvalues: 
  0.595  0.595  0.938  0.941  0.941
    eigenvectors:
  0.000  0.000  1.000  0.000  0.000
  0.332  0.323  0.000  0.023  0.322
  0.323  0.332  0.000  0.322  0.023
  0.288  0.057  0.000  0.647  0.008
  0.057  0.288  0.000  0.008  0.647
    occupations:
  0.938  0.000  0.000  0.000  0.000
  0.000  0.715  0.000  0.060  0.153
  0.000  0.000  0.715  0.153 -0.060
  0.000  0.060  0.153  0.822  0.000
  0.000  0.153 -0.060  0.000  0.822
atom    3   Tr[ns(na)] =   3.80282
    eigenvalues: 
  0.355  0.355  0.384  0.403  0.403
    eigenvectors:
  0.000  0.000  1.000  0.000  0.000
  0.065  0.856  0.000  0.058  0.021
  0.856  0.065  0.000  0.021  0.058
  0.073  0.006  0.000  0.250  0.670
  0.006  0.073  0.000  0.670  0.250
    occupations:
  0.384  0.000  0.000  0.000  0.000
  0.000  0.359  0.000  0.000  0.013
  0.000  0.000  0.359  0.013  0.000
  0.000  0.000  0.013  0.399  0.000
  0.000  0.013  0.000  0.000  0.399
atom    4   Tr[ns(na)] =   3.80282
    eigenvalues: 
  0.355  0.355  0.384  0.403  0.403
    eigenvectors:
  0.000  0.000  1.000  0.000  0.000
  0.729  0.192  0.000  0.048  0.032
  0.192  0.729  0.000  0.032  0.048
  0.017  0.062  0.000  0.359  0.562
  0.062  0.017  0.000  0.562  0.359
    occupations:
  0.384  0.000  0.000  0.000  0.000
  0.000  0.359  0.000  0.000  0.013
  0.000  0.000  0.359  0.013  0.000
  0.000  0.000  0.013  0.399  0.000
  0.000  0.013  0.000  0.000  0.399
atom    5   Tr[ns(na)] =   5.43357
    eigenvalues: 
  0.846  0.929  0.941
    eigenvectors:
  0.340  0.000  0.660
  0.496  0.250  0.255
  0.164  0.750  0.086
    occupations:
  0.909 -0.039  0.022
 -0.039  0.891  0.022
  0.022  0.022  0.917
atom    6   Tr[ns(na)] =   5.43358
    eigenvalues: 
  0.846  0.929  0.941
    eigenvectors:
  0.340  0.000  0.660
  0.494  0.250  0.256
  0.166  0.750  0.085
    occupations:
  0.909  0.039  0.022
  0.039  0.891 -0.022
  0.022 -0.022  0.917
atom    7   Tr[ns(na)] =   5.43358
    eigenvalues: 
  0.846  0.929  0.941
    eigenvectors:
  0.340  0.000  0.660
  0.000  1.000  0.000
  0.660  0.000  0.340
    occupations:
  0.909  0.000 -0.045
  0.000  0.929  0.000
 -0.045  0.000  0.879
atom    8   Tr[ns(na)] =   5.43357
    eigenvalues: 
  0.846  0.929  0.941
    eigenvectors:
  0.340  0.000  0.660
  0.496  0.250  0.255
  0.164  0.750  0.086
    occupations:
  0.909 -0.039  0.022
 -0.039  0.891  0.022
  0.022  0.022  0.917
atom    9   Tr[ns(na)] =   5.43358
    eigenvalues: 
  0.846  0.929  0.941
    eigenvectors:
  0.340  0.000  0.660
  0.494  0.250  0.256
  0.166  0.750  0.085
    occupations:
  0.909  0.039  0.022
  0.039  0.891 -0.022
  0.022 -0.022  0.917
atom   10   Tr[ns(na)] =   5.43358
    eigenvalues: 
  0.846  0.929  0.941
    eigenvectors:
  0.340  0.000  0.660
  0.000  1.000  0.000
  0.660  0.000  0.340
    occupations:
  0.909  0.000 -0.045
  0.000  0.929  0.000
 -0.045  0.000  0.879
N of occupied +U levels =  56.2505796
 --- exit write_ns ---
 LDA+U Projector read from file 
     Starting wfc from file

     total cpu time spent up to now is        7.7 secs

     per-process dynamical memory:    62.8 Mb

     Self-consistent Calculation

     iteration #  1     ecut=    30.00 Ry     beta=0.20
     Davidson diagonalization with overlap
     c_bands:  1 eigenvalues not converged
     c_bands:  1 eigenvalues not converged
     c_bands:  1 eigenvalues not converged
     c_bands:  1 eigenvalues not converged
     c_bands:  1 eigenvalues not converged
     c_bands:  1 eigenvalues not converged
     c_bands:  1 eigenvalues not converged
     c_bands:  1 eigenvalues not converged
     c_bands:  1 eigenvalues not converged
     c_bands:  1 eigenvalues not converged
     c_bands:  1 eigenvalues not converged
     c_bands:  1 eigenvalues not converged
     c_bands:  1 eigenvalues not converged
     c_bands:  1 eigenvalues not converged
     c_bands:  1 eigenvalues not converged
     c_bands:  1 eigenvalues not converged
     c_bands:  1 eigenvalues not converged
     c_bands:  1 eigenvalues not converged
     c_bands:  1 eigenvalues not converged
     c_bands:  1 eigenvalues not converged
     c_bands:  1 eigenvalues not converged
     ethr =  1.00E-10,  avg # of iterations = 17.4
 --- enter write_ns ---
 LDA+U parameters:
U( 1)     =  1.00000000
alpha( 1) =  0.00000000
U( 2)     =  0.00000000
alpha( 2) =  0.00000000
U( 3)     =  0.00000000
alpha( 3) = -0.10000000
U( 4)     =  0.00000000
alpha( 4) =  0.00000000
atom    1   Tr[ns(na)] =   8.07215
    eigenvalues: 
  0.575  0.577  0.961  0.962  0.962
    eigenvectors:
  0.000  0.000  0.709  0.134  0.157
  0.554  0.101  0.074  0.004  0.267
  0.101  0.553  0.027  0.295  0.024
  0.168  0.178  0.119  0.532  0.003
  0.178  0.168  0.072  0.034  0.549
    occupations:
  0.961  0.000  0.000  0.000  0.000
  0.000  0.709  0.000 -0.066  0.171
  0.000  0.000  0.710  0.171  0.066
  0.000 -0.066  0.171  0.828  0.000
  0.000  0.171  0.066  0.000  0.829
atom    2   Tr[ns(na)] =   8.06899
    eigenvalues: 
  0.574  0.575  0.961  0.962  0.962
    eigenvectors:
  0.000  0.000  0.786  0.135  0.078
  0.419  0.235  0.056  0.288  0.002
  0.235  0.420  0.018  0.011  0.316
  0.026  0.319  0.003  0.159  0.493
  0.319  0.026  0.137  0.407  0.111
    occupations:
  0.961  0.000  0.000  0.000  0.000
  0.000  0.708  0.000  0.065  0.173
  0.000  0.000  0.708  0.172 -0.066
  0.000  0.065  0.172  0.829  0.000
  0.000  0.173 -0.066  0.000  0.828
atom    3   Tr[ns(na)] =   3.79742
    eigenvalues: 
  0.355  0.356  0.383  0.402  0.403
    eigenvectors:
  0.000  0.000  1.000  0.000  0.000
  0.229  0.689  0.000  0.063  0.019
  0.690  0.229  0.000  0.020  0.062
  0.060  0.021  0.000  0.226  0.692
  0.021  0.061  0.000  0.691  0.227
    occupations:
  0.383  0.000  0.000  0.000  0.000
  0.000  0.359  0.000  0.000  0.013
  0.000  0.000  0.359  0.013  0.000
  0.000  0.000  0.013  0.399  0.000
  0.000  0.013  0.000  0.000  0.398
atom    4   Tr[ns(na)] =   3.79759
    eigenvalues: 
  0.355  0.355  0.383  0.402  0.403
    eigenvectors:
  0.000  0.000  1.000  0.000  0.000
  0.690  0.232  0.000  0.058  0.020
  0.233  0.687  0.000  0.019  0.061
  0.020  0.060  0.000  0.234  0.686
  0.057  0.021  0.000  0.688  0.233
    occupations:
  0.383  0.000  0.000  0.000  0.000
  0.000  0.359  0.000  0.000  0.013
  0.000  0.000  0.359  0.013  0.000
  0.000  0.000  0.013  0.399  0.000
  0.000  0.013  0.000  0.000  0.399
atom    5   Tr[ns(na)] =   5.43678
    eigenvalues: 
  0.844  0.930  0.944
    eigenvectors:
  0.340  0.000  0.660
  0.496  0.250  0.254
  0.164  0.750  0.085
    occupations:
  0.910 -0.041  0.024
 -0.041  0.891  0.022
  0.024  0.022  0.917
atom    6   Tr[ns(na)] =   5.42072
    eigenvalues: 
  0.841  0.928  0.942
    eigenvectors:
  0.341  0.000  0.659
  0.494  0.249  0.257
  0.165  0.751  0.084
    occupations:
  0.907  0.042  0.024
  0.042  0.888 -0.023
  0.024 -0.023  0.915
atom    7   Tr[ns(na)] =   5.42073
    eigenvalues: 
  0.841  0.928  0.942
    eigenvectors:
  0.341  0.000  0.659
  0.000  1.000  0.000
  0.659  0.000  0.341
    occupations:
  0.907  0.000 -0.048
  0.000  0.928  0.000
 -0.048  0.000  0.875
atom    8   Tr[ns(na)] =   5.42071
    eigenvalues: 
  0.840  0.928  0.942
    eigenvectors:
  0.340  0.000  0.660
  0.495  0.250  0.255
  0.164  0.750  0.086
    occupations:
  0.908 -0.042  0.024
 -0.042  0.888  0.023
  0.024  0.023  0.915
atom    9   Tr[ns(na)] =   5.42074
    eigenvalues: 
  0.841  0.928  0.942
    eigenvectors:
  0.340  0.000  0.660
  0.494  0.249  0.257
  0.166  0.751  0.084
    occupations:
  0.907  0.042  0.024
  0.042  0.888 -0.023
  0.024 -0.023  0.915
atom   10   Tr[ns(na)] =   5.42074
    eigenvalues: 
  0.841  0.928  0.942
    eigenvectors:
  0.340  0.000  0.660
  0.000  1.000  0.000
  0.660  0.000  0.340
    occupations:
  0.907  0.000 -0.048
  0.000  0.928  0.000
 -0.048  0.000  0.875
N of occupied +U levels =  56.2765782
 --- exit write_ns ---
 --- in v_hubbard ---
Hubbard energy    0.0543
 -------

     total cpu time spent up to now is      106.0 secs

     total energy              =    -538.28056957 Ry
     Harris-Foulkes estimate   =    -538.28120099 Ry
     estimated scf accuracy    <       0.00364353 Ry

     iteration #  2     ecut=    30.00 Ry     beta=0.20
     Davidson diagonalization with overlap
     ethr =  4.79E-06,  avg # of iterations =  1.1
 --- enter write_ns ---
 LDA+U parameters:
U( 1)     =  1.00000000
alpha( 1) =  0.00000000
U( 2)     =  0.00000000
alpha( 2) =  0.00000000
U( 3)     =  0.00000000
alpha( 3) = -0.10000000
U( 4)     =  0.00000000
alpha( 4) =  0.00000000
atom    1   Tr[ns(na)] =   8.02830
    eigenvalues: 
  0.566  0.567  0.960  0.961  0.961
    eigenvectors:
  0.000  0.000  0.967  0.030  0.004
  0.553  0.102  0.008  0.138  0.198
  0.102  0.553  0.003  0.196  0.146
  0.169  0.176  0.013  0.569  0.073
  0.176  0.169  0.008  0.067  0.580
    occupations:
  0.960  0.000  0.000  0.000  0.000
  0.000  0.702  0.000 -0.068  0.175
  0.000  0.000  0.703  0.175  0.067
  0.000 -0.068  0.175  0.825  0.000
  0.000  0.175  0.067  0.000  0.825
atom    2   Tr[ns(na)] =   8.03624
    eigenvalues: 
  0.565  0.566  0.961  0.962  0.963
    eigenvectors:
  0.000  0.000  0.973  0.024  0.003
  0.421  0.234  0.007  0.327  0.011
  0.234  0.421  0.002  0.010  0.332
  0.025  0.319  0.000  0.023  0.631
  0.320  0.025  0.017  0.616  0.022
    occupations:
  0.961  0.000  0.000  0.000  0.000
  0.000  0.703  0.000  0.067  0.176
  0.000  0.000  0.703  0.176 -0.068
  0.000  0.067  0.176  0.826  0.000
  0.000  0.176 -0.068  0.000  0.826
atom    3   Tr[ns(na)] =   3.79677
    eigenvalues: 
  0.355  0.355  0.383  0.402  0.402
    eigenvectors:
  0.000  0.000  1.000  0.000  0.000
  0.225  0.695  0.000  0.062  0.019
  0.695  0.225  0.000  0.019  0.061
  0.060  0.020  0.000  0.221  0.699
  0.020  0.060  0.000  0.699  0.221
    occupations:
  0.383  0.000  0.000  0.000  0.000
  0.000  0.359  0.000  0.000  0.013
  0.000  0.000  0.359  0.013  0.000
  0.000  0.000  0.013  0.399  0.000
  0.000  0.013  0.000  0.000  0.399
atom    4   Tr[ns(na)] =   3.79691
    eigenvalues: 
  0.355  0.355  0.383  0.402  0.403
    eigenvectors:
  0.000  0.000  1.000  0.000  0.000
  0.683  0.238  0.000  0.060  0.019
  0.239  0.682  0.000  0.018  0.061
  0.021  0.059  0.000  0.222  0.699
  0.058  0.021  0.000  0.700  0.221
    occupations:
  0.383  0.000  0.000  0.000  0.000
  0.000  0.359  0.000  0.000  0.013
  0.000  0.000  0.359  0.013  0.000
  0.000  0.000  0.013  0.399  0.000
  0.000  0.013  0.000  0.000  0.399
atom    5   Tr[ns(na)] =   5.44089
    eigenvalues: 
  0.846  0.931  0.944
    eigenvectors:
  0.339  0.000  0.661
  0.496  0.250  0.254
  0.165  0.750  0.085
    occupations:
  0.911 -0.040  0.023
 -0.040  0.892  0.022
  0.023  0.022  0.918
atom    6   Tr[ns(na)] =   5.43416
    eigenvalues: 
  0.844  0.930  0.943
    eigenvectors:
  0.339  0.000  0.661
  0.496  0.249  0.255
  0.165  0.751  0.084
    occupations:
  0.910  0.040  0.023
  0.040  0.891 -0.022
  0.023 -0.022  0.917
atom    7   Tr[ns(na)] =   5.43416
    eigenvalues: 
  0.844  0.930  0.943
    eigenvectors:
  0.339  0.000  0.661
  0.000  1.000  0.000
  0.661  0.000  0.339
    occupations:
  0.910  0.000 -0.047
  0.000  0.930  0.000
 -0.047  0.000  0.878
atom    8   Tr[ns(na)] =   5.43476
    eigenvalues: 
  0.845  0.930  0.943
    eigenvectors:
  0.339  0.000  0.661
  0.496  0.250  0.254
  0.165  0.750  0.085
    occupations:
  0.910 -0.040  0.023
 -0.040  0.891  0.022
  0.023  0.022  0.917
atom    9   Tr[ns(na)] =   5.43403
    eigenvalues: 
  0.844  0.930  0.943
    eigenvectors:
  0.339  0.000  0.661
  0.495  0.249  0.255
  0.166  0.751  0.084
    occupations:
  0.910  0.040  0.023
  0.040  0.891 -0.022
  0.023 -0.022  0.917
atom   10   Tr[ns(na)] =   5.43403
    eigenvalues: 
  0.844  0.930  0.943
    eigenvectors:
  0.339  0.000  0.661
  0.000  1.000  0.000
  0.661  0.000  0.339
    occupations:
  0.910  0.000 -0.047
  0.000  0.930  0.000
 -0.047  0.000  0.878
N of occupied +U levels =  56.2702514
 --- exit write_ns ---
 --- in v_hubbard ---
Hubbard energy    0.0535
 -------

     total cpu time spent up to now is      133.1 secs

     total energy              =    -538.28094138 Ry
     Harris-Foulkes estimate   =    -538.28100361 Ry
     estimated scf accuracy    <       0.00193189 Ry

     iteration #  3     ecut=    30.00 Ry     beta=0.20
     Davidson diagonalization with overlap
     ethr =  2.54E-06,  avg # of iterations =  1.0
 --- enter write_ns ---
 LDA+U parameters:
U( 1)     =  1.00000000
alpha( 1) =  0.00000000
U( 2)     =  0.00000000
alpha( 2) =  0.00000000
U( 3)     =  0.00000000
alpha( 3) = -0.10000000
U( 4)     =  0.00000000
alpha( 4) =  0.00000000
atom    1   Tr[ns(na)] =   8.05307
    eigenvalues: 
  0.570  0.571  0.961  0.962  0.962
    eigenvectors:
  0.000  0.000  0.968  0.028  0.003
  0.554  0.102  0.008  0.141  0.195
  0.102  0.553  0.003  0.194  0.148
  0.169  0.176  0.013  0.567  0.075
  0.176  0.169  0.008  0.069  0.578
    occupations:
  0.961  0.000  0.000  0.000  0.000
  0.000  0.705  0.000 -0.068  0.174
  0.000  0.000  0.706  0.174  0.067
  0.000 -0.068  0.174  0.827  0.000
  0.000  0.174  0.067  0.000  0.827
atom    2   Tr[ns(na)] =   8.03232
    eigenvalues: 
  0.566  0.567  0.960  0.961  0.961
    eigenvectors:
  0.000  0.000  0.984  0.015  0.002
  0.422  0.233  0.004  0.325  0.015
  0.234  0.422  0.001  0.014  0.329
  0.025  0.319  0.000  0.016  0.640
  0.319  0.026  0.010  0.630  0.015
    occupations:
  0.960  0.000  0.000  0.000  0.000
  0.000  0.703  0.000  0.067  0.175
  0.000  0.000  0.703  0.175 -0.067
  0.000  0.067  0.175  0.826  0.000
  0.000  0.175 -0.067  0.000  0.825
atom    3   Tr[ns(na)] =   3.79697
    eigenvalues: 
  0.355  0.355  0.383  0.402  0.402
    eigenvectors:
  0.000  0.000  1.000  0.000  0.000
  0.224  0.697  0.000  0.062  0.018
  0.697  0.224  0.000  0.018  0.062
  0.060  0.020  0.000  0.212  0.708
  0.020  0.060  0.000  0.708  0.212
    occupations:
  0.383  0.000  0.000  0.000  0.000
  0.000  0.359  0.000  0.000  0.013
  0.000  0.000  0.359  0.013  0.000
  0.000  0.000  0.013  0.399  0.000
  0.000  0.013  0.000  0.000  0.399
atom    4   Tr[ns(na)] =   3.79703
    eigenvalues: 
  0.355  0.355  0.383  0.402  0.403
    eigenvectors:
  0.000  0.000  1.000  0.000  0.000
  0.671  0.250  0.000  0.060  0.019
  0.250  0.670  0.000  0.019  0.061
  0.022  0.057  0.000  0.227  0.694
  0.057  0.022  0.000  0.695  0.226
    occupations:
  0.383  0.000  0.000  0.000  0.000
  0.000  0.359  0.000  0.000  0.013
  0.000  0.000  0.359  0.013  0.000
  0.000  0.000  0.013  0.399  0.000
  0.000  0.013  0.000  0.000  0.399
atom    5   Tr[ns(na)] =   5.43733
    eigenvalues: 
  0.845  0.930  0.943
    eigenvectors:
  0.339  0.000  0.661
  0.497  0.249  0.254
  0.164  0.751  0.085
    occupations:
  0.910 -0.040  0.023
 -0.040  0.891  0.022
  0.023  0.022  0.917
atom    6   Tr[ns(na)] =   5.43103
    eigenvalues: 
  0.844  0.929  0.943
    eigenvectors:
  0.339  0.000  0.661
  0.494  0.250  0.255
  0.166  0.750  0.084
    occupations:
  0.909  0.041  0.024
  0.041  0.890 -0.023
  0.024 -0.023  0.916
atom    7   Tr[ns(na)] =   5.43103
    eigenvalues: 
  0.844  0.929  0.943
    eigenvectors:
  0.339  0.000  0.661
  0.000  1.000  0.000
  0.661  0.000  0.339
    occupations:
  0.909  0.000 -0.047
  0.000  0.929  0.000
 -0.047  0.000  0.877
atom    8   Tr[ns(na)] =   5.43150
    eigenvalues: 
  0.844  0.929  0.943
    eigenvectors:
  0.339  0.000  0.661
  0.497  0.249  0.254
  0.164  0.751  0.085
    occupations:
  0.909 -0.041  0.023
 -0.041  0.890  0.022
  0.023  0.022  0.916
atom    9   Tr[ns(na)] =   5.43095
    eigenvalues: 
  0.844  0.929  0.943
    eigenvectors:
  0.340  0.000  0.660
  0.494  0.251  0.255
  0.167  0.749  0.084
    occupations:
  0.909  0.041  0.024
  0.041  0.890 -0.023
  0.024 -0.023  0.916
atom   10   Tr[ns(na)] =   5.43095
    eigenvalues: 
  0.843  0.929  0.943
    eigenvectors:
  0.340  0.000  0.660
  0.000  1.000  0.000
  0.660  0.000  0.340
    occupations:
  0.909  0.000 -0.047
  0.000  0.929  0.000
 -0.047  0.000  0.877
N of occupied +U levels =  56.2721854
 --- exit write_ns ---
 --- in v_hubbard ---
Hubbard energy    0.0525
 -------

     total cpu time spent up to now is      162.9 secs

     total energy              =    -538.28094967 Ry
     Harris-Foulkes estimate   =    -538.28099869 Ry
     estimated scf accuracy    <       0.00125331 Ry

     iteration #  4     ecut=    30.00 Ry     beta=0.20
     Davidson diagonalization with overlap
     ethr =  1.65E-06,  avg # of iterations =  1.0
 --- enter write_ns ---
 LDA+U parameters:
U( 1)     =  1.00000000
alpha( 1) =  0.00000000
U( 2)     =  0.00000000
alpha( 2) =  0.00000000
U( 3)     =  0.00000000
alpha( 3) = -0.10000000
U( 4)     =  0.00000000
alpha( 4) =  0.00000000
atom    1   Tr[ns(na)] =   8.01032
    eigenvalues: 
  0.565  0.566  0.957  0.958  0.958
    eigenvectors:
  0.000  0.000  0.986  0.013  0.001
  0.553  0.103  0.004  0.162  0.179
  0.103  0.553  0.001  0.178  0.165
  0.168  0.177  0.006  0.550  0.100
  0.177  0.168  0.004  0.097  0.555
    occupations:
  0.957  0.000  0.000  0.000  0.000
  0.000  0.701  0.000 -0.067  0.174
  0.000  0.000  0.701  0.174  0.066
  0.000 -0.067  0.174  0.823  0.000
  0.000  0.174  0.066  0.000  0.823
atom    2   Tr[ns(na)] =   8.07653
    eigenvalues: 
  0.571  0.572  0.964  0.965  0.965
    eigenvectors:
  0.000  0.000  0.970  0.027  0.003
  0.421  0.235  0.008  0.323  0.014
  0.235  0.421  0.003  0.012  0.329
  0.025  0.320  0.000  0.020  0.635
  0.320  0.025  0.019  0.618  0.019
    occupations:
  0.964  0.000  0.000  0.000  0.000
  0.000  0.707  0.000  0.068  0.175
  0.000  0.000  0.707  0.174 -0.068
  0.000  0.068  0.174  0.830  0.000
  0.000  0.175 -0.068  0.000  0.830
atom    3   Tr[ns(na)] =   3.79721
    eigenvalues: 
  0.355  0.355  0.383  0.402  0.402
    eigenvectors:
  0.000  0.000  1.000  0.000  0.000
  0.226  0.695  0.000  0.065  0.015
  0.695  0.226  0.000  0.015  0.065
  0.060  0.020  0.000  0.178  0.742
  0.020  0.060  0.000  0.742  0.178
    occupations:
  0.383  0.000  0.000  0.000  0.000
  0.000  0.359  0.000  0.000  0.013
  0.000  0.000  0.359  0.013  0.000
  0.000  0.000  0.013  0.399  0.000
  0.000  0.013  0.000  0.000  0.399
atom    4   Tr[ns(na)] =   3.79723
    eigenvalues: 
  0.355  0.355  0.383  0.402  0.403
    eigenvectors:
  0.000  0.000  1.000  0.000  0.000
  0.657  0.264  0.000  0.060  0.019
  0.264  0.656  0.000  0.019  0.061
  0.023  0.056  0.000  0.223  0.697
  0.056  0.023  0.000  0.698  0.223
    occupations:
  0.383  0.000  0.000  0.000  0.000
  0.000  0.359  0.000  0.000  0.013
  0.000  0.000  0.359  0.013  0.000
  0.000  0.000  0.013  0.399  0.000
  0.000  0.013  0.000  0.000  0.399
atom    5   Tr[ns(na)] =   5.43688
    eigenvalues: 
  0.845  0.930  0.943
    eigenvectors:
  0.339  0.000  0.661
  0.493  0.253  0.253
  0.167  0.747  0.086
    occupations:
  0.910 -0.040  0.023
 -0.040  0.891  0.022
  0.023  0.022  0.917
atom    6   Tr[ns(na)] =   5.43075
    eigenvalues: 
  0.843  0.929  0.943
    eigenvectors:
  0.339  0.000  0.661
  0.498  0.246  0.256
  0.163  0.754  0.083
    occupations:
  0.909  0.041  0.023
  0.041  0.890 -0.022
  0.023 -0.022  0.916
atom    7   Tr[ns(na)] =   5.43075
    eigenvalues: 
  0.843  0.929  0.943
    eigenvectors:
  0.339  0.000  0.661
  0.000  1.000  0.000
  0.661  0.000  0.339
    occupations:
  0.909  0.000 -0.047
  0.000  0.929  0.000
 -0.047  0.000  0.877
atom    8   Tr[ns(na)] =   5.43110
    eigenvalues: 
  0.844  0.929  0.943
    eigenvectors:
  0.339  0.000  0.661
  0.493  0.254  0.253
  0.167  0.746  0.086
    occupations:
  0.909 -0.041  0.024
 -0.041  0.890  0.023
  0.024  0.023  0.916
atom    9   Tr[ns(na)] =   5.43070
    eigenvalues: 
  0.843  0.929  0.943
    eigenvectors:
  0.340  0.000  0.660
  0.497  0.246  0.256
  0.163  0.754  0.083
    occupations:
  0.909  0.041  0.023
  0.041  0.890 -0.022
  0.023 -0.022  0.916
atom   10   Tr[ns(na)] =   5.43069
    eigenvalues: 
  0.843  0.929  0.943
    eigenvectors:
  0.340  0.000  0.660
  0.000  1.000  0.000
  0.660  0.000  0.340
    occupations:
  0.909  0.000 -0.047
  0.000  0.929  0.000
 -0.047  0.000  0.877
N of occupied +U levels =  56.2721504
 --- exit write_ns ---
 --- in v_hubbard ---
Hubbard energy    0.0491
 -------

     total cpu time spent up to now is      192.7 secs

     total energy              =    -538.28091804 Ry
     Harris-Foulkes estimate   =    -538.28111333 Ry
     estimated scf accuracy    <       0.00306078 Ry

     iteration #  5     ecut=    30.00 Ry     beta=0.20
     Davidson diagonalization with overlap
     ethr =  1.65E-06,  avg # of iterations =  1.0
 --- enter write_ns ---
 LDA+U parameters:
U( 1)     =  1.00000000
alpha( 1) =  0.00000000
U( 2)     =  0.00000000
alpha( 2) =  0.00000000
U( 3)     =  0.00000000
alpha( 3) = -0.10000000
U( 4)     =  0.00000000
alpha( 4) =  0.00000000
atom    1   Tr[ns(na)] =   8.04489
    eigenvalues: 
  0.568  0.569  0.961  0.962  0.962
    eigenvectors:
  0.000  0.000  0.983  0.015  0.001
  0.554  0.103  0.004  0.173  0.166
  0.103  0.554  0.001  0.165  0.177
  0.169  0.175  0.006  0.535  0.115
  0.175  0.169  0.005  0.111  0.541
    occupations:
  0.961  0.000  0.000  0.000  0.000
  0.000  0.704  0.000 -0.068  0.174
  0.000  0.000  0.704  0.174  0.067
  0.000 -0.068  0.174  0.827  0.000
  0.000  0.174  0.067  0.000  0.827
atom    2   Tr[ns(na)] =   8.04161
    eigenvalues: 
  0.567  0.567  0.961  0.963  0.963
    eigenvectors:
  0.000  0.000  0.987  0.012  0.001
  0.423  0.233  0.003  0.312  0.028
  0.234  0.423  0.001  0.027  0.315
  0.025  0.319  0.000  0.004  0.652
  0.319  0.025  0.008  0.644  0.004
    occupations:
  0.961  0.000  0.000  0.000  0.000
  0.000  0.703  0.000  0.067  0.176
  0.000  0.000  0.703  0.175 -0.067
  0.000  0.067  0.175  0.827  0.000
  0.000  0.176 -0.067  0.000  0.827
atom    3   Tr[ns(na)] =   3.79793
    eigenvalues: 
  0.355  0.356  0.383  0.402  0.402
    eigenvectors:
  0.000  0.000  1.000  0.000  0.000
  0.225  0.696  0.000  0.059  0.021
  0.696  0.225  0.000  0.021  0.058
  0.059  0.020  0.000  0.248  0.673
  0.020  0.059  0.000  0.673  0.248
    occupations:
  0.383  0.000  0.000  0.000  0.000
  0.000  0.359  0.000  0.000  0.013
  0.000  0.000  0.359  0.013  0.000
  0.000  0.000  0.013  0.399  0.000
  0.000  0.013  0.000  0.000  0.399
atom    4   Tr[ns(na)] =   3.79794
    eigenvalues: 
  0.355  0.355  0.383  0.403  0.403
    eigenvectors:
  0.000  0.000  1.000  0.000  0.000
  0.634  0.287  0.000  0.058  0.020
  0.287  0.634  0.000  0.020  0.059
  0.025  0.054  0.000  0.239  0.682
  0.053  0.025  0.000  0.683  0.238
    occupations:
  0.383  0.000  0.000  0.000  0.000
  0.000  0.359  0.000  0.000  0.013
  0.000  0.000  0.359  0.013  0.000
  0.000  0.000  0.013  0.399  0.000
  0.000  0.013  0.000  0.000  0.399
atom    5   Tr[ns(na)] =   5.43674
    eigenvalues: 
  0.845  0.930  0.943
    eigenvectors:
  0.339  0.000  0.661
  0.496  0.250  0.254
  0.165  0.750  0.085
    occupations:
  0.910 -0.040  0.023
 -0.040  0.891  0.022
  0.023  0.022  0.917
atom    6   Tr[ns(na)] =   5.43063
    eigenvalues: 
  0.843  0.929  0.943
    eigenvectors:
  0.339  0.000  0.661
  0.495  0.249  0.256
  0.166  0.751  0.084
    occupations:
  0.909  0.041  0.023
  0.041  0.890 -0.023
  0.023 -0.023  0.916
atom    7   Tr[ns(na)] =   5.43064
    eigenvalues: 
  0.843  0.929  0.943
    eigenvectors:
  0.339  0.000  0.661
  0.000  1.000  0.000
  0.661  0.000  0.339
    occupations:
  0.909  0.000 -0.047
  0.000  0.929  0.000
 -0.047  0.000  0.877
atom    8   Tr[ns(na)] =   5.43066
    eigenvalues: 
  0.843  0.929  0.943
    eigenvectors:
  0.339  0.000  0.661
  0.496  0.250  0.254
  0.165  0.750  0.085
    occupations:
  0.909 -0.041  0.023
 -0.041  0.890  0.023
  0.023  0.023  0.916
atom    9   Tr[ns(na)] =   5.43065
    eigenvalues: 
  0.843  0.929  0.943
    eigenvectors:
  0.340  0.000  0.660
  0.494  0.250  0.256
  0.166  0.750  0.084
    occupations:
  0.909  0.041  0.024
  0.041  0.890 -0.023
  0.024 -0.023  0.916
atom   10   Tr[ns(na)] =   5.43065
    eigenvalues: 
  0.843  0.929  0.943
    eigenvectors:
  0.340  0.000  0.660
  0.000  1.000  0.000
  0.660  0.000  0.340
    occupations:
  0.909  0.000 -0.047
  0.000  0.929  0.000
 -0.047  0.000  0.877
N of occupied +U levels =  56.2723490
 --- exit write_ns ---
 --- in v_hubbard ---
Hubbard energy    0.0484
 -------

     total cpu time spent up to now is      222.9 secs

     total energy              =    -538.28102724 Ry
     Harris-Foulkes estimate   =    -538.28102801 Ry
     estimated scf accuracy    <       0.00002648 Ry

     iteration #  6     ecut=    30.00 Ry     beta=0.20
     Davidson diagonalization with overlap
     ethr =  3.48E-08,  avg # of iterations =  2.0
 --- enter write_ns ---
 LDA+U parameters:
U( 1)     =  1.00000000
alpha( 1) =  0.00000000
U( 2)     =  0.00000000
alpha( 2) =  0.00000000
U( 3)     =  0.00000000
alpha( 3) = -0.10000000
U( 4)     =  0.00000000
alpha( 4) =  0.00000000
atom    1   Tr[ns(na)] =   8.04313
    eigenvalues: 
  0.568  0.569  0.961  0.962  0.962
    eigenvectors:
  0.000  0.000  0.980  0.019  0.001
  0.554  0.103  0.005  0.173  0.165
  0.102  0.554  0.002  0.164  0.178
  0.169  0.175  0.008  0.532  0.116
  0.175  0.169  0.005  0.112  0.539
    occupations:
  0.961  0.000  0.000  0.000  0.000
  0.000  0.703  0.000 -0.068  0.174
  0.000  0.000  0.704  0.174  0.067
  0.000 -0.068  0.174  0.827  0.000
  0.000  0.174  0.067  0.000  0.827
atom    2   Tr[ns(na)] =   8.04186
    eigenvalues: 
  0.567  0.567  0.961  0.963  0.963
    eigenvectors:
  0.000  0.000  0.984  0.015  0.001
  0.423  0.234  0.004  0.312  0.028
  0.234  0.423  0.001  0.026  0.316
  0.025  0.319  0.000  0.004  0.652
  0.319  0.025  0.010  0.642  0.004
    occupations:
  0.961  0.000  0.000  0.000  0.000
  0.000  0.703  0.000  0.067  0.176
  0.000  0.000  0.703  0.176 -0.067
  0.000  0.067  0.176  0.827  0.000
  0.000  0.176 -0.067  0.000  0.827
atom    3   Tr[ns(na)] =   3.79786
    eigenvalues: 
  0.355  0.356  0.383  0.402  0.402
    eigenvectors:
  0.000  0.000  1.000  0.000  0.000
  0.227  0.693  0.000  0.064  0.016
  0.694  0.227  0.000  0.016  0.064
  0.059  0.020  0.000  0.187  0.733
  0.020  0.059  0.000  0.733  0.187
    occupations:
  0.383  0.000  0.000  0.000  0.000
  0.000  0.359  0.000  0.000  0.013
  0.000  0.000  0.359  0.013  0.000
  0.000  0.000  0.013  0.399  0.000
  0.000  0.013  0.000  0.000  0.399
atom    4   Tr[ns(na)] =   3.79788
    eigenvalues: 
  0.355  0.355  0.383  0.403  0.403
    eigenvectors:
  0.000  0.000  1.000  0.000  0.000
  0.578  0.343  0.000  0.059  0.019
  0.344  0.578  0.000  0.019  0.060
  0.030  0.049  0.000  0.227  0.694
  0.048  0.030  0.000  0.695  0.227
    occupations:
  0.383  0.000  0.000  0.000  0.000
  0.000  0.359  0.000  0.000  0.013
  0.000  0.000  0.359  0.013  0.000
  0.000  0.000  0.013  0.399  0.000
  0.000  0.013  0.000  0.000  0.399
atom    5   Tr[ns(na)] =   5.43697
    eigenvalues: 
  0.845  0.930  0.943
    eigenvectors:
  0.339  0.000  0.661
  0.496  0.250  0.254
  0.165  0.750  0.085
    occupations:
  0.910 -0.040  0.023
 -0.040  0.891  0.022
  0.023  0.022  0.917
atom    6   Tr[ns(na)] =   5.43085
    eigenvalues: 
  0.844  0.929  0.943
    eigenvectors:
  0.339  0.000  0.661
  0.495  0.249  0.256
  0.165  0.751  0.084
    occupations:
  0.909  0.041  0.023
  0.041  0.890 -0.023
  0.023 -0.023  0.916
atom    7   Tr[ns(na)] =   5.43086
    eigenvalues: 
  0.844  0.929  0.943
    eigenvectors:
  0.339  0.000  0.661
  0.000  1.000  0.000
  0.661  0.000  0.339
    occupations:
  0.909  0.000 -0.047
  0.000  0.929  0.000
 -0.047  0.000  0.877
atom    8   Tr[ns(na)] =   5.43111
    eigenvalues: 
  0.844  0.929  0.943
    eigenvectors:
  0.339  0.000  0.661
  0.496  0.250  0.254
  0.165  0.750  0.085
    occupations:
  0.909 -0.041  0.023
 -0.041  0.890  0.022
  0.023  0.022  0.916
atom    9   Tr[ns(na)] =   5.43081
    eigenvalues: 
  0.844  0.929  0.943
    eigenvectors:
  0.340  0.000  0.660
  0.495  0.250  0.256
  0.166  0.750  0.084
    occupations:
  0.909  0.041  0.024
  0.041  0.890 -0.023
  0.024 -0.023  0.916
atom   10   Tr[ns(na)] =   5.43080
    eigenvalues: 
  0.844  0.929  0.943
    eigenvectors:
  0.340  0.000  0.660
  0.000  1.000  0.000
  0.660  0.000  0.340
    occupations:
  0.909  0.000 -0.047
  0.000  0.929  0.000
 -0.047  0.000  0.877
N of occupied +U levels =  56.2721415
 --- exit write_ns ---
 --- in v_hubbard ---
Hubbard energy    0.0483
 -------

     total cpu time spent up to now is      253.1 secs

     total energy              =    -538.28103821 Ry
     Harris-Foulkes estimate   =    -538.28102842 Ry
     estimated scf accuracy    <       0.00000256 Ry

     iteration #  7     ecut=    30.00 Ry     beta=0.20
     Davidson diagonalization with overlap
     ethr =  3.37E-09,  avg # of iterations =  2.1
 --- enter write_ns ---
 LDA+U parameters:
U( 1)     =  1.00000000
alpha( 1) =  0.00000000
U( 2)     =  0.00000000
alpha( 2) =  0.00000000
U( 3)     =  0.00000000
alpha( 3) = -0.10000000
U( 4)     =  0.00000000
alpha( 4) =  0.00000000
atom    1   Tr[ns(na)] =   8.04278
    eigenvalues: 
  0.568  0.569  0.961  0.962  0.962
    eigenvectors:
  0.000  0.000  0.975  0.023  0.002
  0.554  0.102  0.007  0.168  0.169
  0.102  0.553  0.002  0.168  0.174
  0.169  0.175  0.010  0.536  0.110
  0.175  0.169  0.007  0.105  0.544
    occupations:
  0.961  0.000  0.000  0.000  0.000
  0.000  0.704  0.000 -0.068  0.174
  0.000  0.000  0.704  0.174  0.067
  0.000 -0.068  0.174  0.826  0.000
  0.000  0.174  0.067  0.000  0.827
atom    2   Tr[ns(na)] =   8.04244
    eigenvalues: 
  0.567  0.567  0.961  0.963  0.963
    eigenvectors:
  0.000  0.000  0.981  0.018  0.001
  0.422  0.234  0.005  0.315  0.025
  0.234  0.422  0.002  0.023  0.319
  0.025  0.319  0.000  0.007  0.649
  0.319  0.025  0.012  0.638  0.006
    occupations:
  0.962  0.000  0.000  0.000  0.000
  0.000  0.703  0.000  0.067  0.176
  0.000  0.000  0.703  0.176 -0.067
  0.000  0.067  0.176  0.827  0.000
  0.000  0.176 -0.067  0.000  0.827
atom    3   Tr[ns(na)] =   3.79753
    eigenvalues: 
  0.355  0.355  0.383  0.402  0.402
    eigenvectors:
  0.000  0.000  1.000  0.000  0.000
  0.228  0.692  0.000  0.063  0.017
  0.692  0.228  0.000  0.017  0.063
  0.059  0.020  0.000  0.198  0.722
  0.020  0.059  0.000  0.722  0.198
    occupations:
  0.383  0.000  0.000  0.000  0.000
  0.000  0.359  0.000  0.000  0.013
  0.000  0.000  0.359  0.013  0.000
  0.000  0.000  0.013  0.399  0.000
  0.000  0.013  0.000  0.000  0.399
atom    4   Tr[ns(na)] =   3.79755
    eigenvalues: 
  0.355  0.355  0.383  0.402  0.403
    eigenvectors:
  0.000  0.000  1.000  0.000  0.000
  0.519  0.403  0.000  0.059  0.019
  0.403  0.518  0.000  0.019  0.060
  0.035  0.044  0.000  0.231  0.690
  0.043  0.035  0.000  0.690  0.231
    occupations:
  0.383  0.000  0.000  0.000  0.000
  0.000  0.359  0.000  0.000  0.013
  0.000  0.000  0.359  0.013  0.000
  0.000  0.000  0.013  0.399  0.000
  0.000  0.013  0.000  0.000  0.399
atom    5   Tr[ns(na)] =   5.43706
    eigenvalues: 
  0.845  0.930  0.943
    eigenvectors:
  0.339  0.000  0.661
  0.496  0.250  0.254
  0.165  0.750  0.085
    occupations:
  0.910 -0.040  0.023
 -0.040  0.891  0.022
  0.023  0.022  0.917
atom    6   Tr[ns(na)] =   5.43087
    eigenvalues: 
  0.844  0.929  0.943
    eigenvectors:
  0.339  0.000  0.661
  0.495  0.249  0.256
  0.165  0.751  0.084
    occupations:
  0.909  0.041  0.023
  0.041  0.890 -0.023
  0.023 -0.023  0.916
atom    7   Tr[ns(na)] =   5.43087
    eigenvalues: 
  0.844  0.929  0.943
    eigenvectors:
  0.339  0.000  0.661
  0.000  1.000  0.000
  0.661  0.000  0.339
    occupations:
  0.909  0.000 -0.047
  0.000  0.929  0.000
 -0.047  0.000  0.877
atom    8   Tr[ns(na)] =   5.43125
    eigenvalues: 
  0.844  0.929  0.943
    eigenvectors:
  0.340  0.000  0.660
  0.496  0.250  0.254
  0.165  0.750  0.085
    occupations:
  0.909 -0.041  0.023
 -0.041  0.890  0.022
  0.023  0.022  0.916
atom    9   Tr[ns(na)] =   5.43081
    eigenvalues: 
  0.844  0.929  0.943
    eigenvectors:
  0.340  0.000  0.660
  0.495  0.250  0.256
  0.166  0.750  0.084
    occupations:
  0.909  0.041  0.024
  0.041  0.890 -0.023
  0.024 -0.023  0.916
atom   10   Tr[ns(na)] =   5.43081
    eigenvalues: 
  0.844  0.929  0.943
    eigenvectors:
  0.340  0.000  0.660
  0.000  1.000  0.000
  0.660  0.000  0.340
    occupations:
  0.909  0.000 -0.047
  0.000  0.929  0.000
 -0.047  0.000  0.877
N of occupied +U levels =  56.2719792
 --- exit write_ns ---
 --- in v_hubbard ---
Hubbard energy    0.0483
 -------

     total cpu time spent up to now is      284.7 secs

     total energy              =    -538.28104595 Ry
     Harris-Foulkes estimate   =    -538.28103856 Ry
     estimated scf accuracy    <       0.00000035 Ry

     iteration #  8     ecut=    30.00 Ry     beta=0.20
     Davidson diagonalization with overlap
     ethr =  4.63E-10,  avg # of iterations =  2.0
 --- enter write_ns ---
 LDA+U parameters:
U( 1)     =  1.00000000
alpha( 1) =  0.00000000
U( 2)     =  0.00000000
alpha( 2) =  0.00000000
U( 3)     =  0.00000000
alpha( 3) = -0.10000000
U( 4)     =  0.00000000
alpha( 4) =  0.00000000
atom    1   Tr[ns(na)] =   8.04306
    eigenvalues: 
  0.568  0.569  0.961  0.962  0.962
    eigenvectors:
  0.000  0.000  0.976  0.022  0.002
  0.553  0.103  0.006  0.167  0.171
  0.102  0.553  0.002  0.170  0.172
  0.169  0.175  0.009  0.539  0.107
  0.175  0.169  0.006  0.102  0.547
    occupations:
  0.961  0.000  0.000  0.000  0.000
  0.000  0.704  0.000 -0.068  0.174
  0.000  0.000  0.704  0.174  0.067
  0.000 -0.068  0.174  0.826  0.000
  0.000  0.174  0.067  0.000  0.827
atom    2   Tr[ns(na)] =   8.04216
    eigenvalues: 
  0.566  0.567  0.961  0.963  0.963
    eigenvectors:
  0.000  0.000  0.982  0.017  0.001
  0.422  0.234  0.005  0.316  0.024
  0.234  0.422  0.002  0.022  0.320
  0.025  0.319  0.000  0.007  0.648
  0.319  0.025  0.012  0.638  0.007
    occupations:
  0.961  0.000  0.000  0.000  0.000
  0.000  0.703  0.000  0.067  0.176
  0.000  0.000  0.703  0.176 -0.067
  0.000  0.067  0.176  0.827  0.000
  0.000  0.176 -0.067  0.000  0.826
atom    3   Tr[ns(na)] =   3.79748
    eigenvalues: 
  0.355  0.355  0.383  0.402  0.402
    eigenvectors:
  0.000  0.000  1.000  0.000  0.000
  0.229  0.692  0.000  0.065  0.014
  0.692  0.229  0.000  0.014  0.065
  0.059  0.020  0.000  0.171  0.750
  0.020  0.059  0.000  0.750  0.171
    occupations:
  0.383  0.000  0.000  0.000  0.000
  0.000  0.359  0.000  0.000  0.013
  0.000  0.000  0.359  0.013  0.000
  0.000  0.000  0.013  0.399  0.000
  0.000  0.013  0.000  0.000  0.399
atom    4   Tr[ns(na)] =   3.79751
    eigenvalues: 
  0.355  0.355  0.383  0.402  0.403
    eigenvectors:
  0.000  0.000  1.000  0.000  0.000
  0.493  0.428  0.000  0.059  0.019
  0.428  0.493  0.000  0.019  0.060
  0.037  0.042  0.000  0.232  0.689
  0.041  0.037  0.000  0.690  0.232
    occupations:
  0.383  0.000  0.000  0.000  0.000
  0.000  0.359  0.000  0.000  0.013
  0.000  0.000  0.359  0.013  0.000
  0.000  0.000  0.013  0.399  0.000
  0.000  0.013  0.000  0.000  0.399
atom    5   Tr[ns(na)] =   5.43706
    eigenvalues: 
  0.845  0.930  0.943
    eigenvectors:
  0.339  0.000  0.661
  0.496  0.250  0.254
  0.165  0.750  0.085
    occupations:
  0.910 -0.040  0.023
 -0.040  0.891  0.022
  0.023  0.022  0.917
atom    6   Tr[ns(na)] =   5.43090
    eigenvalues: 
  0.844  0.929  0.943
    eigenvectors:
  0.339  0.000  0.661
  0.495  0.249  0.256
  0.165  0.751  0.084
    occupations:
  0.909  0.041  0.023
  0.041  0.890 -0.023
  0.023 -0.023  0.916
atom    7   Tr[ns(na)] =   5.43090
    eigenvalues: 
  0.844  0.929  0.943
    eigenvectors:
  0.339  0.000  0.661
  0.000  1.000  0.000
  0.661  0.000  0.339
    occupations:
  0.909  0.000 -0.047
  0.000  0.929  0.000
 -0.047  0.000  0.877
atom    8   Tr[ns(na)] =   5.43119
    eigenvalues: 
  0.844  0.929  0.943
    eigenvectors:
  0.340  0.000  0.660
  0.496  0.250  0.254
  0.165  0.750  0.085
    occupations:
  0.909 -0.041  0.023
 -0.041  0.890  0.022
  0.023  0.022  0.916
atom    9   Tr[ns(na)] =   5.43085
    eigenvalues: 
  0.844  0.929  0.943
    eigenvectors:
  0.340  0.000  0.660
  0.494  0.250  0.256
  0.166  0.750  0.084
    occupations:
  0.909  0.041  0.024
  0.041  0.890 -0.023
  0.024 -0.023  0.916
atom   10   Tr[ns(na)] =   5.43085
    eigenvalues: 
  0.844  0.929  0.943
    eigenvectors:
  0.340  0.000  0.660
  0.000  1.000  0.000
  0.660  0.000  0.340
    occupations:
  0.909  0.000 -0.047
  0.000  0.929  0.000
 -0.047  0.000  0.877
N of occupied +U levels =  56.2719586
 --- exit write_ns ---
 --- in v_hubbard ---
Hubbard energy    0.0483
 -------

     total cpu time spent up to now is      315.0 secs

     total energy              =    -538.28105091 Ry
     Harris-Foulkes estimate   =    -538.28104598 Ry
     estimated scf accuracy    <       0.00000008 Ry

     iteration #  9     ecut=    30.00 Ry     beta=0.20
     Davidson diagonalization with overlap
     ethr =  1.09E-10,  avg # of iterations =  2.0
 --- enter write_ns ---
 LDA+U parameters:
U( 1)     =  1.00000000
alpha( 1) =  0.00000000
U( 2)     =  0.00000000
alpha( 2) =  0.00000000
U( 3)     =  0.00000000
alpha( 3) = -0.10000000
U( 4)     =  0.00000000
alpha( 4) =  0.00000000
atom    1   Tr[ns(na)] =   8.04294
    eigenvalues: 
  0.568  0.569  0.961  0.962  0.962
    eigenvectors:
  0.000  0.000  0.976  0.022  0.002
  0.553  0.103  0.006  0.165  0.173
  0.102  0.553  0.002  0.172  0.171
  0.169  0.175  0.009  0.541  0.105
  0.175  0.169  0.006  0.100  0.549
    occupations:
  0.961  0.000  0.000  0.000  0.000
  0.000  0.704  0.000 -0.068  0.174
  0.000  0.000  0.704  0.174  0.067
  0.000 -0.068  0.174  0.826  0.000
  0.000  0.174  0.067  0.000  0.827
atom    2   Tr[ns(na)] =   8.04234
    eigenvalues: 
  0.567  0.567  0.961  0.963  0.963
    eigenvectors:
  0.000  0.000  0.982  0.017  0.001
  0.422  0.234  0.005  0.317  0.023
  0.234  0.422  0.002  0.022  0.321
  0.025  0.319  0.000  0.008  0.648
  0.319  0.025  0.012  0.637  0.007
    occupations:
  0.962  0.000  0.000  0.000  0.000
  0.000  0.703  0.000  0.067  0.176
  0.000  0.000  0.703  0.176 -0.067
  0.000  0.067  0.176  0.827  0.000
  0.000  0.176 -0.067  0.000  0.826
atom    3   Tr[ns(na)] =   3.79751
    eigenvalues: 
  0.355  0.355  0.383  0.402  0.402
    eigenvectors:
  0.000  0.000  1.000  0.000  0.000
  0.229  0.692  0.000  0.065  0.014
  0.692  0.229  0.000  0.014  0.065
  0.059  0.020  0.000  0.169  0.752
  0.020  0.059  0.000  0.752  0.169
    occupations:
  0.383  0.000  0.000  0.000  0.000
  0.000  0.359  0.000  0.000  0.013
  0.000  0.000  0.359  0.013  0.000
  0.000  0.000  0.013  0.399  0.000
  0.000  0.013  0.000  0.000  0.399
atom    4   Tr[ns(na)] =   3.79753
    eigenvalues: 
  0.355  0.355  0.383  0.402  0.403
    eigenvectors:
  0.000  0.000  1.000  0.000  0.000
  0.421  0.500  0.000  0.059  0.019
  0.500  0.421  0.000  0.019  0.060
  0.043  0.036  0.000  0.232  0.689
  0.035  0.044  0.000  0.690  0.231
    occupations:
  0.383  0.000  0.000  0.000  0.000
  0.000  0.359  0.000  0.000  0.013
  0.000  0.000  0.359  0.013  0.000
  0.000  0.000  0.013  0.399  0.000
  0.000  0.013  0.000  0.000  0.399
atom    5   Tr[ns(na)] =   5.43705
    eigenvalues: 
  0.845  0.930  0.943
    eigenvectors:
  0.339  0.000  0.661
  0.496  0.250  0.254
  0.165  0.750  0.085
    occupations:
  0.910 -0.040  0.023
 -0.040  0.891  0.022
  0.023  0.022  0.917
atom    6   Tr[ns(na)] =   5.43088
    eigenvalues: 
  0.844  0.929  0.943
    eigenvectors:
  0.339  0.000  0.661
  0.495  0.249  0.256
  0.165  0.751  0.084
    occupations:
  0.909  0.041  0.023
  0.041  0.890 -0.023
  0.023 -0.023  0.916
atom    7   Tr[ns(na)] =   5.43088
    eigenvalues: 
  0.844  0.929  0.943
    eigenvectors:
  0.339  0.000  0.661
  0.000  1.000  0.000
  0.661  0.000  0.339
    occupations:
  0.909  0.000 -0.047
  0.000  0.929  0.000
 -0.047  0.000  0.877
atom    8   Tr[ns(na)] =   5.43120
    eigenvalues: 
  0.844  0.929  0.943
    eigenvectors:
  0.340  0.000  0.660
  0.496  0.250  0.254
  0.165  0.750  0.085
    occupations:
  0.909 -0.041  0.023
 -0.041  0.890  0.022
  0.023  0.022  0.916
atom    9   Tr[ns(na)] =   5.43082
    eigenvalues: 
  0.844  0.929  0.943
    eigenvectors:
  0.340  0.000  0.660
  0.494  0.250  0.256
  0.166  0.750  0.084
    occupations:
  0.909  0.041  0.024
  0.041  0.890 -0.023
  0.024 -0.023  0.916
atom   10   Tr[ns(na)] =   5.43082
    eigenvalues: 
  0.844  0.929  0.943
    eigenvectors:
  0.340  0.000  0.660
  0.000  1.000  0.000
  0.660  0.000  0.340
    occupations:
  0.909  0.000 -0.047
  0.000  0.929  0.000
 -0.047  0.000  0.877
N of occupied +U levels =  56.2719820
 --- exit write_ns ---
 --- in v_hubbard ---
Hubbard energy    0.0483
 -------

     total cpu time spent up to now is      345.3 secs

     total energy              =    -538.28105410 Ry
     Harris-Foulkes estimate   =    -538.28105093 Ry
     estimated scf accuracy    <       0.00000001 Ry

     iteration # 10     ecut=    30.00 Ry     beta=0.20
     Davidson diagonalization with overlap
     ethr =  1.77E-11,  avg # of iterations =  2.0
 --- enter write_ns ---
 LDA+U parameters:
U( 1)     =  1.00000000
alpha( 1) =  0.00000000
U( 2)     =  0.00000000
alpha( 2) =  0.00000000
U( 3)     =  0.00000000
alpha( 3) = -0.10000000
U( 4)     =  0.00000000
alpha( 4) =  0.00000000
atom    1   Tr[ns(na)] =   8.04300
    eigenvalues: 
  0.568  0.569  0.961  0.962  0.962
    eigenvectors:
  0.000  0.000  0.976  0.022  0.002
  0.553  0.103  0.006  0.165  0.173
  0.102  0.553  0.002  0.171  0.171
  0.169  0.175  0.009  0.541  0.105
  0.175  0.169  0.006  0.100  0.549
    occupations:
  0.961  0.000  0.000  0.000  0.000
  0.000  0.704  0.000 -0.068  0.174
  0.000  0.000  0.704  0.174  0.067
  0.000 -0.068  0.174  0.826  0.000
  0.000  0.174  0.067  0.000  0.827
atom    2   Tr[ns(na)] =   8.04228
    eigenvalues: 
  0.567  0.567  0.961  0.963  0.963
    eigenvectors:
  0.000  0.000  0.982  0.017  0.001
  0.422  0.234  0.005  0.317  0.023
  0.234  0.422  0.002  0.022  0.320
  0.025  0.319  0.000  0.008  0.648
  0.319  0.025  0.012  0.637  0.007
    occupations:
  0.961  0.000  0.000  0.000  0.000
  0.000  0.703  0.000  0.067  0.176
  0.000  0.000  0.703  0.176 -0.067
  0.000  0.067  0.176  0.827  0.000
  0.000  0.176 -0.067  0.000  0.826
atom    3   Tr[ns(na)] =   3.79751
    eigenvalues: 
  0.355  0.355  0.383  0.402  0.402
    eigenvectors:
  0.000  0.000  1.000  0.000  0.000
  0.229  0.692  0.000  0.065  0.014
  0.692  0.229  0.000  0.014  0.065
  0.059  0.020  0.000  0.167  0.753
  0.020  0.059  0.000  0.753  0.167
    occupations:
  0.383  0.000  0.000  0.000  0.000
  0.000  0.359  0.000  0.000  0.013
  0.000  0.000  0.359  0.013  0.000
  0.000  0.000  0.013  0.399  0.000
  0.000  0.013  0.000  0.000  0.399
atom    4   Tr[ns(na)] =   3.79754
    eigenvalues: 
  0.355  0.355  0.383  0.402  0.403
    eigenvectors:
  0.000  0.000  1.000  0.000  0.000
  0.444  0.478  0.000  0.059  0.019
  0.478  0.443  0.000  0.019  0.060
  0.041  0.038  0.000  0.232  0.689
  0.037  0.042  0.000  0.690  0.232
    occupations:
  0.383  0.000  0.000  0.000  0.000
  0.000  0.359  0.000  0.000  0.013
  0.000  0.000  0.359  0.013  0.000
  0.000  0.000  0.013  0.399  0.000
  0.000  0.013  0.000  0.000  0.399
atom    5   Tr[ns(na)] =   5.43705
    eigenvalues: 
  0.845  0.930  0.943
    eigenvectors:
  0.339  0.000  0.661
  0.496  0.250  0.254
  0.165  0.750  0.085
    occupations:
  0.910 -0.040  0.023
 -0.040  0.891  0.022
  0.023  0.022  0.917
atom    6   Tr[ns(na)] =   5.43088
    eigenvalues: 
  0.844  0.929  0.943
    eigenvectors:
  0.339  0.000  0.661
  0.495  0.249  0.256
  0.165  0.751  0.084
    occupations:
  0.909  0.041  0.023
  0.041  0.890 -0.023
  0.023 -0.023  0.916
atom    7   Tr[ns(na)] =   5.43088
    eigenvalues: 
  0.844  0.929  0.943
    eigenvectors:
  0.339  0.000  0.661
  0.000  1.000  0.000
  0.661  0.000  0.339
    occupations:
  0.909  0.000 -0.047
  0.000  0.929  0.000
 -0.047  0.000  0.877
atom    8   Tr[ns(na)] =   5.43119
    eigenvalues: 
  0.844  0.929  0.943
    eigenvectors:
  0.340  0.000  0.660
  0.496  0.250  0.254
  0.165  0.750  0.085
    occupations:
  0.909 -0.041  0.023
 -0.041  0.890  0.022
  0.023  0.022  0.916
atom    9   Tr[ns(na)] =   5.43083
    eigenvalues: 
  0.844  0.929  0.943
    eigenvectors:
  0.340  0.000  0.660
  0.494  0.250  0.256
  0.166  0.750  0.084
    occupations:
  0.909  0.041  0.024
  0.041  0.890 -0.023
  0.024 -0.023  0.916
atom   10   Tr[ns(na)] =   5.43083
    eigenvalues: 
  0.844  0.929  0.943
    eigenvectors:
  0.340  0.000  0.660
  0.000  1.000  0.000
  0.660  0.000  0.340
    occupations:
  0.909  0.000 -0.047
  0.000  0.929  0.000
 -0.047  0.000  0.877
N of occupied +U levels =  56.2719832
 --- exit write_ns ---
 --- in v_hubbard ---
Hubbard energy    0.0483
 -------

     total cpu time spent up to now is      372.3 secs

     End of self-consistent calculation

          k = 0.0000 0.0000 0.0000 (  2175 PWs)   bands (ev):

   -19.8008 -19.6278  -6.5393  -5.8258  -5.8255  -5.8231  -5.7971  -5.4729
    -3.7750  -3.2650  -3.2090  -3.2074  -3.0278  -3.0272   5.1770   6.8873
     6.8963   7.5026   7.5135   7.6376   7.6414   7.6927   7.7061   9.2862
     9.6042   9.6139   9.7485   9.8675   9.8711  10.3498  10.3506  10.4546
    10.4574  10.5546  10.6693  11.4192  11.4212  11.9834  12.1678  12.1700
    14.7661  14.7686  15.4252  15.4267  16.1959  16.7862

     occupation numbers 
     0.0313   0.0313   0.0313   0.0313   0.0313   0.0313   0.0313   0.0313
     0.0313   0.0313   0.0313   0.0313   0.0313   0.0313   0.0313   0.0313
     0.0313   0.0313   0.0313   0.0313   0.0313   0.0313   0.0313   0.0313
     0.0313   0.0313   0.0312   0.0312   0.0312   0.0312   0.0312   0.0312
     0.0312   0.0312   0.0312   0.0307   0.0307   0.0174   0.0097   0.0096
     0.0000   0.0000   0.0000   0.0000   0.0000   0.0000

          k =-0.2471-0.1427 0.1027 (  2181 PWs)   bands (ev):

   -19.7738 -19.6540  -6.7193  -6.2817  -5.9305  -5.8398  -5.6019  -5.4667
    -3.5875  -3.3899  -2.9303  -2.9040  -2.8453  -2.7597   5.5403   6.8634
     6.9932   7.0040   7.1999   7.4702   7.5316   7.6887   7.6951   8.5342
     8.6176   9.2331   9.6456   9.7742   9.8130  10.0121  10.3621  10.3729
    10.7782  10.8001  10.9043  11.6808  11.7359  11.7868  12.3315  12.3977
    14.3104  14.3204  15.8138  16.0692  16.9714  17.2661

     occupation numbers 
     0.0625   0.0625   0.0625   0.0625   0.0625   0.0625   0.0625   0.0625
     0.0625   0.0625   0.0625   0.0625   0.0625   0.0625   0.0625   0.0625
     0.0625   0.0625   0.0625   0.0625   0.0625   0.0625   0.0625   0.0625
     0.0625   0.0625   0.0625   0.0625   0.0625   0.0625   0.0625   0.0625
     0.0625   0.0625   0.0625   0.0552   0.0526   0.0497   0.0090   0.0061
     0.0000   0.0000   0.0000   0.0000   0.0000   0.0000

          k = 0.4942 0.2853-0.2053 (  2202 PWs)   bands (ev):

   -19.7143 -19.7130  -6.7230  -6.7046  -5.9551  -5.9442  -5.5197  -5.5005
    -3.3786  -3.3780  -2.7890  -2.7844  -2.5085  -2.5047   6.0485   6.0700
     7.1937   7.2002   7.2433   7.2647   7.5566   7.5942   7.8535   7.8746
     8.0636   8.0864   9.5017   9.5039   9.8623   9.8738  10.2692  10.2792
    11.2144  11.2191  11.3131  11.3208  11.5026  11.5093  13.2914  13.3207
    13.3769  13.4090  16.8310  16.8384  17.1306  17.1357

     occupation numbers 
     0.0313   0.0313   0.0313   0.0313   0.0313   0.0313   0.0313   0.0313
     0.0313   0.0313   0.0313   0.0313   0.0313   0.0313   0.0313   0.0313
     0.0313   0.0313   0.0313   0.0313   0.0313   0.0313   0.0313   0.0313
     0.0313   0.0313   0.0313   0.0313   0.0312   0.0312   0.0312   0.0312
     0.0312   0.0312   0.0310   0.0310   0.0302   0.0301   0.0000   0.0000
     0.0000   0.0000   0.0000   0.0000   0.0000   0.0000

          k =-0.2471 0.1427 0.2053 (  2195 PWs)   bands (ev):

   -19.7681 -19.6581  -6.8507  -6.2260  -6.0622  -5.8096  -5.6371  -5.4530
    -3.4090  -3.2624  -3.0995  -2.8901  -2.8137  -2.5609   5.5776   6.8027
     6.8943   6.9615   7.2165   7.4567   7.4849   7.7080   7.7211   8.6290
     8.7659   8.8358   9.2889   9.7469   9.9635  10.0585  10.1702  10.2829
    10.3578  11.1859  11.2929  11.3082  11.7129  11.7874  12.0566  12.7300
    13.6338  14.7841  15.9903  16.1925  17.0367  17.5365

     occupation numbers 
     0.0625   0.0625   0.0625   0.0625   0.0625   0.0625   0.0625   0.0625
     0.0625   0.0625   0.0625   0.0625   0.0625   0.0625   0.0625   0.0625
     0.0625   0.0625   0.0625   0.0625   0.0625   0.0625   0.0625   0.0625
     0.0625   0.0625   0.0625   0.0625   0.0625   0.0625   0.0625   0.0625
     0.0625   0.0624   0.0622   0.0621   0.0538   0.0497   0.0285   0.0005
     0.0000   0.0000   0.0000   0.0000   0.0000   0.0000

          k = 0.4942 0.5706-0.1027 (  2198 PWs)   bands (ev):

   -19.7305 -19.6947  -6.9547  -6.6376  -6.1278  -5.8717  -5.4940  -5.3770
    -3.3021  -3.2522  -2.8745  -2.7074  -2.5264  -2.3851   5.9006   6.2381
     6.7514   6.9964   7.1976   7.3371   7.4964   7.7094   7.8207   7.9691
     8.2539   8.8523   9.0903   9.3162   9.6341   9.8008   9.9381  10.3523
    10.8421  11.3023  11.4060  11.4780  11.6111  11.6506  12.3215  12.7378
    13.4214  14.3607  16.9035  17.1134  17.3090  18.0138

     occupation numbers 
     0.0625   0.0625   0.0625   0.0625   0.0625   0.0625   0.0625   0.0625
     0.0625   0.0625   0.0625   0.0625   0.0625   0.0625   0.0625   0.0625
     0.0625   0.0625   0.0625   0.0625   0.0625   0.0625   0.0625   0.0625
     0.0625   0.0625   0.0625   0.0625   0.0625   0.0625   0.0625   0.0625
     0.0625   0.0621   0.0615   0.0607   0.0578   0.0564   0.0095   0.0004
     0.0000   0.0000   0.0000   0.0000   0.0000   0.0000

          k = 0.2471 0.4280 0.0000 (  2203 PWs)   bands (ev):

   -19.7412 -19.6856  -6.8368  -6.6372  -6.0298  -5.9774  -5.4333  -5.3518
    -3.5127  -3.2932  -2.8009  -2.7055  -2.5651  -2.5581   5.8661   6.2987
     6.9553   7.0998   7.2021   7.2878   7.4261   7.6148   7.6891   8.0711
     8.3141   8.9125   9.3123   9.3992   9.7648   9.7800  10.0540  10.3534
    11.1562  11.1932  11.2026  11.4324  11.4586  11.7489  12.2529  13.3208
    13.3936  14.1523  16.4343  16.9921  17.4206  17.9238

     occupation numbers 
     0.0625   0.0625   0.0625   0.0625   0.0625   0.0625   0.0625   0.0625
     0.0625   0.0625   0.0625   0.0625   0.0625   0.0625   0.0625   0.0625
     0.0625   0.0625   0.0625   0.0625   0.0625   0.0625   0.0625   0.0625
     0.0625   0.0625   0.0625   0.0625   0.0625   0.0625   0.0625   0.0625
     0.0624   0.0624   0.0624   0.0612   0.0609   0.0519   0.0134   0.0000
     0.0000   0.0000   0.0000   0.0000   0.0000   0.0000

          k = 0.4942-0.2853-0.4107 (  2202 PWs)   bands (ev):

   -19.7350 -19.6882  -7.1668  -6.4516  -6.2408  -5.9409  -5.5104  -5.2838
    -3.1908  -3.1241  -3.0419  -2.6517  -2.4809  -2.2229   5.8027   6.2629
     6.2978   6.8880   7.1479   7.2577   7.7454   7.7974   8.1506   8.2913
     8.4186   8.4492   8.6003   9.3928   9.6620  10.0249  10.0669  10.2870
    10.4345  11.1453  11.3464  11.5235  11.6468  11.7733  11.9682  12.4364
    13.3212  14.7967  17.0409  17.2629  17.5206  17.6085

     occupation numbers 
     0.0313   0.0313   0.0313   0.0313   0.0313   0.0313   0.0313   0.0313
     0.0313   0.0313   0.0313   0.0313   0.0313   0.0313   0.0313   0.0313
     0.0313   0.0313   0.0313   0.0313   0.0313   0.0313   0.0313   0.0313
     0.0313   0.0313   0.0313   0.0313   0.0312   0.0312   0.0312   0.0312
     0.0312   0.0312   0.0310   0.0300   0.0283   0.0253   0.0181   0.0024
     0.0000   0.0000   0.0000   0.0000   0.0000   0.0000

          k = 0.0000 0.0000 0.3080 (  2187 PWs)   bands (ev):

   -19.7735 -19.6541  -6.6074  -5.9740  -5.9246  -5.9112  -5.8376  -5.8202
    -3.1994  -3.1102  -3.1077  -2.9675  -2.8966  -2.8945   5.5962   6.9845
     6.9946   7.1252   7.3418   7.4061   7.4154   7.6950   7.7002   8.7693
     8.7739   9.3296   9.4300   9.6209   9.6313   9.8127  10.1179  10.1274
    10.9063  10.9077  11.0052  11.7039  11.7051  11.7966  12.3082  12.3100
    14.2712  14.2737  15.9079  15.9098  16.8781  17.4796

     occupation numbers 
     0.0625   0.0625   0.0625   0.0625   0.0625   0.0625   0.0625   0.0625
     0.0625   0.0625   0.0625   0.0625   0.0625   0.0625   0.0625   0.0625
     0.0625   0.0625   0.0625   0.0625   0.0625   0.0625   0.0625   0.0625
     0.0625   0.0625   0.0625   0.0625   0.0625   0.0625   0.0625   0.0625
     0.0625   0.0625   0.0625   0.0542   0.0541   0.0491   0.0102   0.0101
     0.0000   0.0000   0.0000   0.0000   0.0000   0.0000

          k = 0.7412 0.4280 0.0000 (  2204 PWs)   bands (ev):

   -19.7407 -19.6859  -6.7271  -6.5916  -6.1387  -5.8233  -5.6699  -5.5316
    -3.1696  -3.0886  -3.0442  -2.6753  -2.6544  -2.5814   5.9176   6.4840
     6.9750   7.1414   7.1991   7.2960   7.4249   7.5635   7.8582   8.0165
     8.3389   8.8229   9.3346   9.4785   9.5873   9.6733   9.8407  10.2096
    11.1490  11.2039  11.2794  11.4920  11.4942  11.6608  12.2586  13.2426
    13.3075  14.1799  16.6883  16.7210  17.5893  17.7922

     occupation numbers 
     0.0625   0.0625   0.0625   0.0625   0.0625   0.0625   0.0625   0.0625
     0.0625   0.0625   0.0625   0.0625   0.0625   0.0625   0.0625   0.0625
     0.0625   0.0625   0.0625   0.0625   0.0625   0.0625   0.0625   0.0625
     0.0625   0.0625   0.0625   0.0625   0.0625   0.0625   0.0625   0.0625
     0.0624   0.0624   0.0622   0.0605   0.0604   0.0560   0.0131   0.0000
     0.0000   0.0000   0.0000   0.0000   0.0000   0.0000

          k = 0.4942 0.2853 0.1027 (  2211 PWs)   bands (ev):

   -19.7315 -19.6950  -6.9617  -6.5368  -6.3142  -5.6896  -5.6177  -5.3405
    -3.3150  -3.1643  -3.0283  -2.6012  -2.5592  -2.3752   5.9188   6.2220
     6.6939   6.9823   7.2076   7.2448   7.5238   7.7575   7.8660   7.9481
     8.2990   8.9540   9.0998   9.3894   9.5013   9.6653  10.0050  10.3626
    10.8560  11.3533  11.4843  11.4899  11.5480  11.5673  12.2734  12.7533
    13.4711  14.3402  16.8833  16.9333  17.5803  17.9265

     occupation numbers 
     0.0625   0.0625   0.0625   0.0625   0.0625   0.0625   0.0625   0.0625
     0.0625   0.0625   0.0625   0.0625   0.0625   0.0625   0.0625   0.0625
     0.0625   0.0625   0.0625   0.0625   0.0625   0.0625   0.0625   0.0625
     0.0625   0.0625   0.0625   0.0625   0.0625   0.0625   0.0625   0.0625
     0.0625   0.0619   0.0606   0.0605   0.0594   0.0590   0.0122   0.0004
     0.0000   0.0000   0.0000   0.0000   0.0000   0.0000

          k = 0.7412-0.4280-0.3080 (  2210 PWs)   bands (ev):

   -19.7305 -19.6946  -6.9076  -6.4429  -6.2949  -5.7846  -5.7375  -5.4786
    -3.0690  -3.0495  -2.9615  -2.7288  -2.6206  -2.4280   5.9940   6.3491
     6.7862   6.9722   7.2361   7.2641   7.5474   7.7734   7.9125   7.9744
     8.2660   8.9442   8.9537   9.4945   9.5193   9.5242   9.6484  10.2067
    10.9286  11.3674  11.4696  11.4787  11.5940  11.6344  12.2328  12.7035
    13.4156  14.3119  17.0590  17.0666  17.5481  17.9025

     occupation numbers 
     0.0625   0.0625   0.0625   0.0625   0.0625   0.0625   0.0625   0.0625
     0.0625   0.0625   0.0625   0.0625   0.0625   0.0625   0.0625   0.0625
     0.0625   0.0625   0.0625   0.0625   0.0625   0.0625   0.0625   0.0625
     0.0625   0.0625   0.0625   0.0625   0.0625   0.0625   0.0625   0.0625
     0.0625   0.0618   0.0608   0.0607   0.0583   0.0570   0.0147   0.0006
     0.0000   0.0000   0.0000   0.0000   0.0000   0.0000

          k = 0.4942-0.5706-0.2053 (  2206 PWs)   bands (ev):

   -19.7126 -19.7123  -6.8836  -6.8691  -6.0347  -6.0144  -5.4218  -5.4078
    -3.1518  -3.1514  -2.8121  -2.8086  -2.3838  -2.3810   6.0631   6.0850
     6.8841   6.8969   7.1066   7.1131   7.3981   7.4105   8.0504   8.0909
     8.7766   8.7897   8.9767   8.9883   9.5245   9.5338  10.0857  10.0923
    11.1473  11.1477  11.3631  11.3665  11.6456  11.6506  12.2963  12.2987
    14.0013  14.0106  17.4252  17.4274  17.8667  17.8679

     occupation numbers 
     0.0625   0.0625   0.0625   0.0625   0.0625   0.0625   0.0625   0.0625
     0.0625   0.0625   0.0625   0.0625   0.0625   0.0625   0.0625   0.0625
     0.0625   0.0625   0.0625   0.0625   0.0625   0.0625   0.0625   0.0625
     0.0625   0.0625   0.0625   0.0625   0.0625   0.0625   0.0625   0.0625
     0.0624   0.0624   0.0618   0.0618   0.0566   0.0564   0.0108   0.0107
     0.0000   0.0000   0.0000   0.0000   0.0000   0.0000

          k = 0.0000 0.0000-0.6160 (  2186 PWs)   bands (ev):

   -19.7141 -19.7128  -6.5107  -6.4890  -5.9371  -5.9358  -5.9337  -5.9074
    -2.8898  -2.8888  -2.8878  -2.8833  -2.7086  -2.7052   6.2740   6.2973
     7.1830   7.1993   7.2115   7.2167   7.7238   7.7559   7.9748   7.9773
     8.0059   8.0075   9.6214   9.6234   9.6366   9.6377   9.6909   9.7060
    11.3685  11.3751  11.4230  11.4259  11.4319  11.4335  13.2314  13.2341
    13.2618  13.2638  17.1143  17.1163  17.1177  17.1188

     occupation numbers 
     0.0313   0.0313   0.0313   0.0313   0.0313   0.0313   0.0313   0.0313
     0.0313   0.0313   0.0313   0.0313   0.0313   0.0313   0.0313   0.0313
     0.0313   0.0313   0.0313   0.0313   0.0313   0.0313   0.0313   0.0313
     0.0313   0.0313   0.0313   0.0313   0.0312   0.0312   0.0312   0.0312
     0.0309   0.0309   0.0307   0.0307   0.0306   0.0306   0.0000   0.0000
     0.0000   0.0000   0.0000   0.0000   0.0000   0.0000

          k =-0.2471 0.1427-0.1027 (  2181 PWs)   bands (ev):

   -19.7738 -19.6540  -6.7194  -6.2819  -5.9320  -5.8369  -5.6011  -5.4689
    -3.5862  -3.3906  -2.9297  -2.9045  -2.8460  -2.7590   5.5395   6.8612
     6.9905   7.0083   7.2001   7.4768   7.5279   7.6837   7.6986   8.5364
     8.6135   9.2360   9.6523   9.7650   9.8151  10.0104  10.3602  10.3754
    10.7787  10.7986  10.9054  11.6812  11.7357  11.7872  12.3329  12.3962
    14.3124  14.3184  15.8149  16.0675  16.9709  17.2650

     occupation numbers 
     0.0625   0.0625   0.0625   0.0625   0.0625   0.0625   0.0625   0.0625
     0.0625   0.0625   0.0625   0.0625   0.0625   0.0625   0.0625   0.0625
     0.0625   0.0625   0.0625   0.0625   0.0625   0.0625   0.0625   0.0625
     0.0625   0.0625   0.0625   0.0625   0.0625   0.0625   0.0625   0.0625
     0.0625   0.0625   0.0625   0.0552   0.0526   0.0497   0.0089   0.0062
     0.0000   0.0000   0.0000   0.0000   0.0000   0.0000

          k = 0.0000 0.2853 0.1027 (  2181 PWs)   bands (ev):

   -19.7738 -19.6540  -6.7193  -6.2817  -5.9308  -5.8396  -5.6016  -5.4669
    -3.5875  -3.3899  -2.9302  -2.9041  -2.8453  -2.7596   5.5403   6.8634
     6.9933   7.0038   7.2001   7.4705   7.5315   7.6870   7.6967   8.5340
     8.6177   9.2331   9.6454   9.7743   9.8131  10.0120  10.3612  10.3738
    10.7783  10.8000  10.9043  11.6808  11.7358  11.7868  12.3315  12.3977
    14.3104  14.3203  15.8138  16.0692  16.9714  17.2662

     occupation numbers 
     0.0625   0.0625   0.0625   0.0625   0.0625   0.0625   0.0625   0.0625
     0.0625   0.0625   0.0625   0.0625   0.0625   0.0625   0.0625   0.0625
     0.0625   0.0625   0.0625   0.0625   0.0625   0.0625   0.0625   0.0625
     0.0625   0.0625   0.0625   0.0625   0.0625   0.0625   0.0625   0.0625
     0.0625   0.0625   0.0625   0.0552   0.0526   0.0497   0.0090   0.0061
     0.0000   0.0000   0.0000   0.0000   0.0000   0.0000

          k = 0.4942-0.2853 0.2053 (  2202 PWs)   bands (ev):

   -19.7143 -19.7129  -6.7236  -6.7044  -5.9561  -5.9425  -5.5183  -5.5027
    -3.3793  -3.3764  -2.7886  -2.7854  -2.5084  -2.5045   6.0460   6.0702
     7.1798   7.2056   7.2469   7.2648   7.5691   7.5950   7.8453   7.8748
     8.0611   8.0903   9.5040   9.5091   9.8526   9.8724  10.2697  10.2823
    11.2136  11.2188  11.3132  11.3199  11.5030  11.5113  13.2921  13.3227
    13.3761  13.4072  16.8326  16.8375  17.1297  17.1335

     occupation numbers 
     0.0313   0.0313   0.0313   0.0313   0.0313   0.0313   0.0313   0.0313
     0.0313   0.0313   0.0313   0.0313   0.0313   0.0313   0.0313   0.0313
     0.0313   0.0313   0.0313   0.0313   0.0313   0.0313   0.0313   0.0313
     0.0313   0.0313   0.0313   0.0313   0.0312   0.0312   0.0312   0.0312
     0.0312   0.0312   0.0310   0.0310   0.0301   0.0301   0.0000   0.0000
     0.0000   0.0000   0.0000   0.0000   0.0000   0.0000

          k = 0.0000-0.5706-0.2053 (  2202 PWs)   bands (ev):

   -19.7143 -19.7130  -6.7239  -6.7037  -5.9570  -5.9423  -5.5171  -5.5030
    -3.3810  -3.3756  -2.7874  -2.7860  -2.5088  -2.5044   6.0485   6.0699
     7.1858   7.2090   7.2438   7.2634   7.5654   7.5852   7.8482   7.8800
     8.0580   8.0922   9.4988   9.5066   9.8626   9.8735  10.2689  10.2796
    11.2138  11.2197  11.3138  11.3200  11.5013  11.5107  13.2899  13.3222
    13.3783  13.4075  16.8330  16.8363  17.1315  17.1347

     occupation numbers 
     0.0313   0.0313   0.0313   0.0313   0.0313   0.0313   0.0313   0.0313
     0.0313   0.0313   0.0313   0.0313   0.0313   0.0313   0.0313   0.0313
     0.0313   0.0313   0.0313   0.0313   0.0313   0.0313   0.0313   0.0313
     0.0313   0.0313   0.0313   0.0313   0.0312   0.0312   0.0312   0.0312
     0.0312   0.0312   0.0310   0.0310   0.0302   0.0301   0.0000   0.0000
     0.0000   0.0000   0.0000   0.0000   0.0000   0.0000

          k =-0.2471-0.1427-0.2053 (  2195 PWs)   bands (ev):

   -19.7689 -19.6586  -6.8426  -6.2229  -6.0543  -5.8263  -5.6501  -5.4426
    -3.4086  -3.2623  -3.0992  -2.8878  -2.8123  -2.5592   5.5673   6.8196
     6.8874   6.9488   7.2206   7.4545   7.4765   7.7064   7.7240   8.6323
     8.7780   8.8366   9.2800   9.7553   9.9627  10.0582  10.1629  10.2755
    10.3596  11.1913  11.2951  11.3132  11.7129  11.7862  12.0553  12.7333
    13.6343  14.7822  15.9907  16.1918  17.0342  17.5357

     occupation numbers 
     0.0625   0.0625   0.0625   0.0625   0.0625   0.0625   0.0625   0.0625
     0.0625   0.0625   0.0625   0.0625   0.0625   0.0625   0.0625   0.0625
     0.0625   0.0625   0.0625   0.0625   0.0625   0.0625   0.0625   0.0625
     0.0625   0.0625   0.0625   0.0625   0.0625   0.0625   0.0625   0.0625
     0.0625   0.0624   0.0621   0.0621   0.0538   0.0497   0.0286   0.0004
     0.0000   0.0000   0.0000   0.0000   0.0000   0.0000

          k = 0.0000-0.2853 0.2053 (  2195 PWs)   bands (ev):

   -19.7689 -19.6586  -6.8426  -6.2228  -6.0545  -5.8263  -5.6501  -5.4426
    -3.4087  -3.2623  -3.0992  -2.8878  -2.8122  -2.5592   5.5673   6.8195
     6.8874   6.9488   7.2206   7.4558   7.4752   7.7067   7.7237   8.6324
     8.7776   8.8369   9.2800   9.7553   9.9627  10.0582  10.1629  10.2755
    10.3596  11.1913  11.2951  11.3133  11.7129  11.7862  12.0553  12.7333
    13.6343  14.7822  15.9907  16.1917  17.0342  17.5357

     occupation numbers 
     0.0625   0.0625   0.0625   0.0625   0.0625   0.0625   0.0625   0.0625
     0.0625   0.0625   0.0625   0.0625   0.0625   0.0625   0.0625   0.0625
     0.0625   0.0625   0.0625   0.0625   0.0625   0.0625   0.0625   0.0625
     0.0625   0.0625   0.0625   0.0625   0.0625   0.0625   0.0625   0.0625
     0.0625   0.0624   0.0621   0.0621   0.0538   0.0497   0.0286   0.0004
     0.0000   0.0000   0.0000   0.0000   0.0000   0.0000

          k = 0.4942-0.5706 0.1027 (  2198 PWs)   bands (ev):

   -19.7313 -19.6951  -6.9459  -6.6387  -6.1201  -5.8881  -5.5045  -5.3653
    -3.3020  -3.2518  -2.8762  -2.7037  -2.5262  -2.3821   5.8858   6.2544
     6.7335   6.9908   7.1999   7.3218   7.5083   7.7080   7.8016   7.9926
     8.2598   8.8535   9.0960   9.3215   9.6254   9.8067   9.9395  10.3481
    10.8398  11.3042  11.4085  11.4748  11.6131  11.6530  12.3200  12.7371
    13.4252  14.3585  16.9054  17.1087  17.3091  18.0136

     occupation numbers 
     0.0625   0.0625   0.0625   0.0625   0.0625   0.0625   0.0625   0.0625
     0.0625   0.0625   0.0625   0.0625   0.0625   0.0625   0.0625   0.0625
     0.0625   0.0625   0.0625   0.0625   0.0625   0.0625   0.0625   0.0625
     0.0625   0.0625   0.0625   0.0625   0.0625   0.0625   0.0625   0.0625
     0.0625   0.0621   0.0615   0.0607   0.0577   0.0563   0.0096   0.0004
     0.0000   0.0000   0.0000   0.0000   0.0000   0.0000

          k =-0.7412 0.1427-0.1027 (  2198 PWs)   bands (ev):

   -19.7313 -19.6951  -6.9455  -6.6396  -6.1189  -5.8891  -5.5035  -5.3660
    -3.3012  -3.2519  -2.8760  -2.7048  -2.5256  -2.3825   5.8873   6.2519
     6.7371   6.9901   7.1943   7.3246   7.5037   7.7122   7.8199   7.9713
     8.2640   8.8477   9.1006   9.3227   9.6273   9.8058   9.9398  10.3466
    10.8403  11.3051  11.4057  11.4754  11.6115  11.6552  12.3203  12.7374
    13.4253  14.3587  16.9035  17.1115  17.3085  18.0134

     occupation numbers 
     0.0625   0.0625   0.0625   0.0625   0.0625   0.0625   0.0625   0.0625
     0.0625   0.0625   0.0625   0.0625   0.0625   0.0625   0.0625   0.0625
     0.0625   0.0625   0.0625   0.0625   0.0625   0.0625   0.0625   0.0625
     0.0625   0.0625   0.0625   0.0625   0.0625   0.0625   0.0625   0.0625
     0.0625   0.0621   0.0615   0.0607   0.0578   0.0562   0.0096   0.0004
     0.0000   0.0000   0.0000   0.0000   0.0000   0.0000

          k = 0.2471-0.7133-0.1027 (  2198 PWs)   bands (ev):

   -19.7313 -19.6951  -6.9452  -6.6401  -6.1180  -5.8899  -5.5043  -5.3650
    -3.3013  -3.2520  -2.8756  -2.7056  -2.5255  -2.3822   5.8881   6.2520
     6.7387   6.9884   7.1927   7.3265   7.5046   7.7146   7.8170   7.9696
     8.2648   8.8481   9.0992   9.3205   9.6323   9.8026   9.9419  10.3459
    10.8403  11.3040  11.4061  11.4787  11.6094  11.6543  12.3204  12.7373
    13.4253  14.3587  16.9021  17.1137  17.3086  18.0144

     occupation numbers 
     0.0625   0.0625   0.0625   0.0625   0.0625   0.0625   0.0625   0.0625
     0.0625   0.0625   0.0625   0.0625   0.0625   0.0625   0.0625   0.0625
     0.0625   0.0625   0.0625   0.0625   0.0625   0.0625   0.0625   0.0625
     0.0625   0.0625   0.0625   0.0625   0.0625   0.0625   0.0625   0.0625
     0.0625   0.0621   0.0615   0.0607   0.0578   0.0563   0.0096   0.0004
     0.0000   0.0000   0.0000   0.0000   0.0000   0.0000

          k =-0.7412-0.1427 0.1027 (  2198 PWs)   bands (ev):

   -19.7313 -19.6951  -6.9457  -6.6391  -6.1192  -5.8889  -5.5052  -5.3642
    -3.3021  -3.2519  -2.8758  -2.7046  -2.5262  -2.3818   5.8865   6.2545
     6.7350   6.9889   7.1985   7.3238   7.5093   7.7099   7.7991   7.9909
     8.2605   8.8539   9.0946   9.3194   9.6303   9.8036   9.9415  10.3474
    10.8397  11.3032  11.4089  11.4781  11.6110  11.6521  12.3201  12.7371
    13.4252  14.3585  16.9040  17.1109  17.3092  18.0144

     occupation numbers 
     0.0625   0.0625   0.0625   0.0625   0.0625   0.0625   0.0625   0.0625
     0.0625   0.0625   0.0625   0.0625   0.0625   0.0625   0.0625   0.0625
     0.0625   0.0625   0.0625   0.0625   0.0625   0.0625   0.0625   0.0625
     0.0625   0.0625   0.0625   0.0625   0.0625   0.0625   0.0625   0.0625
     0.0625   0.0621   0.0615   0.0607   0.0578   0.0564   0.0096   0.0004
     0.0000   0.0000   0.0000   0.0000   0.0000   0.0000

          k = 0.2471 0.7133 0.1027 (  2198 PWs)   bands (ev):

   -19.7305 -19.6947  -6.9552  -6.6367  -6.1288  -5.8708  -5.4950  -5.3763
    -3.3029  -3.2521  -2.8747  -2.7064  -2.5271  -2.3848   5.8990   6.2406
     6.7478   6.9969   7.2033   7.3344   7.5011   7.7050   7.8016   7.9915
     8.2495   8.8582   9.0855   9.3149   9.6321   9.8020   9.9376  10.3538
    10.8416  11.3015  11.4089  11.4773  11.6127  11.6484  12.3212  12.7375
    13.4213  14.3604  16.9054  17.1106  17.3096  18.0140

     occupation numbers 
     0.0625   0.0625   0.0625   0.0625   0.0625   0.0625   0.0625   0.0625
     0.0625   0.0625   0.0625   0.0625   0.0625   0.0625   0.0625   0.0625
     0.0625   0.0625   0.0625   0.0625   0.0625   0.0625   0.0625   0.0625
     0.0625   0.0625   0.0625   0.0625   0.0625   0.0625   0.0625   0.0625
     0.0625   0.0621   0.0615   0.0607   0.0577   0.0565   0.0095   0.0004
     0.0000   0.0000   0.0000   0.0000   0.0000   0.0000

          k = 0.2471-0.4280 0.0000 (  2203 PWs)   bands (ev):

   -19.7410 -19.6857  -6.8415  -6.6277  -6.0490  -5.9670  -5.4242  -5.3568
    -3.5112  -3.2932  -2.7988  -2.7098  -2.5669  -2.5555   5.8766   6.2916
     6.9609   7.0976   7.1917   7.2842   7.4349   7.6060   7.6947   8.0624
     8.3047   8.9250   9.3165   9.4177   9.7575   9.7792  10.0545  10.3501
    11.1536  11.1918  11.2009  11.4303  11.4582  11.7535  12.2530  13.3189
    13.3919  14.1555  16.4349  16.9901  17.4185  17.9245

     occupation numbers 
     0.0625   0.0625   0.0625   0.0625   0.0625   0.0625   0.0625   0.0625
     0.0625   0.0625   0.0625   0.0625   0.0625   0.0625   0.0625   0.0625
     0.0625   0.0625   0.0625   0.0625   0.0625   0.0625   0.0625   0.0625
     0.0625   0.0625   0.0625   0.0625   0.0625   0.0625   0.0625   0.0625
     0.0624   0.0624   0.0624   0.0613   0.0610   0.0517   0.0134   0.0000
     0.0000   0.0000   0.0000   0.0000   0.0000   0.0000

          k =-0.4942 0.0000 0.0000 (  2203 PWs)   bands (ev):

   -19.7410 -19.6857  -6.8415  -6.6277  -6.0491  -5.9671  -5.4242  -5.3568
    -3.5112  -3.2932  -2.7988  -2.7098  -2.5671  -2.5554   5.8766   6.2916
     6.9609   7.0971   7.1935   7.2830   7.4349   7.6059   7.6948   8.0625
     8.3047   8.9250   9.3166   9.4176   9.7572   9.7797  10.0544  10.3501
    11.1536  11.1919  11.2009  11.4302  11.4582  11.7535  12.2530  13.3189
    13.3919  14.1555  16.4348  16.9901  17.4185  17.9249

     occupation numbers 
     0.0625   0.0625   0.0625   0.0625   0.0625   0.0625   0.0625   0.0625
     0.0625   0.0625   0.0625   0.0625   0.0625   0.0625   0.0625   0.0625
     0.0625   0.0625   0.0625   0.0625   0.0625   0.0625   0.0625   0.0625
     0.0625   0.0625   0.0625   0.0625   0.0625   0.0625   0.0625   0.0625
     0.0624   0.0624   0.0624   0.0613   0.0610   0.0517   0.0134   0.0000
     0.0000   0.0000   0.0000   0.0000   0.0000   0.0000

          k = 0.4942 0.2853 0.4107 (  2202 PWs)   bands (ev):

   -19.7365 -19.6892  -7.1558  -6.4471  -6.2292  -5.9630  -5.5271  -5.2716
    -3.1901  -3.1233  -3.0416  -2.6478  -2.4785  -2.2194   5.7860   6.2824
     6.2839   6.8811   7.1351   7.2432   7.7328   7.7906   8.1495   8.3127
     8.4354   8.4659   8.5840   9.4133   9.6671  10.0258  10.0604  10.2872
    10.4269  11.1451  11.3487  11.5217  11.6455  11.7790  11.9670  12.4359
    13.3260  14.7948  17.0398  17.2623  17.5182  17.6067

     occupation numbers 
     0.0313   0.0313   0.0313   0.0313   0.0313   0.0313   0.0313   0.0313
     0.0313   0.0313   0.0313   0.0313   0.0313   0.0313   0.0313   0.0313
     0.0313   0.0313   0.0313   0.0313   0.0313   0.0313   0.0313   0.0313
     0.0313   0.0313   0.0313   0.0313   0.0312   0.0312   0.0312   0.0312
     0.0312   0.0312   0.0310   0.0300   0.0283   0.0251   0.0181   0.0024
     0.0000   0.0000   0.0000   0.0000   0.0000   0.0000

          k = 0.0000 0.5706-0.4107 (  2202 PWs)   bands (ev):

   -19.7365 -19.6892  -7.1558  -6.4470  -6.2293  -5.9630  -5.5271  -5.2716
    -3.1901  -3.1233  -3.0416  -2.6478  -2.4785  -2.2194   5.7860   6.2820
     6.2843   6.8811   7.1351   7.2432   7.7335   7.7899   8.1494   8.3129
     8.4354   8.4658   8.5840   9.4133   9.6672  10.0256  10.0606  10.2872
    10.4268  11.1451  11.3486  11.5217  11.6454  11.7789  11.9670  12.4359
    13.3260  14.7948  17.0398  17.2623  17.5182  17.6067

     occupation numbers 
     0.0313   0.0313   0.0313   0.0313   0.0313   0.0313   0.0313   0.0313
     0.0313   0.0313   0.0313   0.0313   0.0313   0.0313   0.0313   0.0313
     0.0313   0.0313   0.0313   0.0313   0.0313   0.0313   0.0313   0.0313
     0.0313   0.0313   0.0313   0.0313   0.0312   0.0312   0.0312   0.0312
     0.0312   0.0312   0.0310   0.0300   0.0283   0.0251   0.0181   0.0024
     0.0000   0.0000   0.0000   0.0000   0.0000   0.0000

          k = 0.7412-0.4280 0.0000 (  2204 PWs)   bands (ev):

   -19.7408 -19.6858  -6.7223  -6.6004  -6.1341  -5.8193  -5.6639  -5.5428
    -3.1709  -3.0885  -3.0441  -2.6733  -2.6518  -2.5839   5.9046   6.4931
     6.9671   7.1461   7.2070   7.3013   7.4161   7.5677   7.8595   8.0252
     8.3479   8.8092   9.3302   9.4628   9.5893   9.6749   9.8409  10.2137
    11.1515  11.2059  11.2809  11.4930  11.4953  11.6579  12.2581  13.2444
    13.3094  14.1768  16.6868  16.7220  17.5906  17.7926

     occupation numbers 
     0.0625   0.0625   0.0625   0.0625   0.0625   0.0625   0.0625   0.0625
     0.0625   0.0625   0.0625   0.0625   0.0625   0.0625   0.0625   0.0625
     0.0625   0.0625   0.0625   0.0625   0.0625   0.0625   0.0625   0.0625
     0.0625   0.0625   0.0625   0.0625   0.0625   0.0625   0.0625   0.0625
     0.0624   0.0624   0.0622   0.0605   0.0604   0.0561   0.0131   0.0000
     0.0000   0.0000   0.0000   0.0000   0.0000   0.0000

          k = 0.0000-0.8559 0.0000 (  2204 PWs)   bands (ev):

   -19.7407 -19.6859  -6.7271  -6.5916  -6.1387  -5.8233  -5.6698  -5.5317
    -3.1696  -3.0887  -3.0441  -2.6753  -2.6544  -2.5814   5.9176   6.4840
     6.9750   7.1419   7.1976   7.2971   7.4249   7.5635   7.8583   8.0162
     8.3389   8.8229   9.3346   9.4785   9.5871   9.6736   9.8406  10.2096
    11.1490  11.2039  11.2794  11.4921  11.4941  11.6609  12.2586  13.2426
    13.3075  14.1799  16.6883  16.7209  17.5892  17.7922

     occupation numbers 
     0.0625   0.0625   0.0625   0.0625   0.0625   0.0625   0.0625   0.0625
     0.0625   0.0625   0.0625   0.0625   0.0625   0.0625   0.0625   0.0625
     0.0625   0.0625   0.0625   0.0625   0.0625   0.0625   0.0625   0.0625
     0.0625   0.0625   0.0625   0.0625   0.0625   0.0625   0.0625   0.0625
     0.0624   0.0624   0.0622   0.0605   0.0604   0.0560   0.0131   0.0000
     0.0000   0.0000   0.0000   0.0000   0.0000   0.0000

          k = 0.4942-0.2853-0.1027 (  2211 PWs)   bands (ev):

   -19.7307 -19.6945  -6.9706  -6.5350  -6.3158  -5.6847  -5.6047  -5.3501
    -3.3151  -3.1645  -3.0286  -2.6029  -2.5593  -2.3781   5.9311   6.2074
     6.7071   6.9884   7.2141   7.2504   7.5217   7.7544   7.8684   7.9437
     8.2894   8.9610   9.0907   9.3929   9.5061   9.6482  10.0024  10.3704
    10.8581  11.3522  11.4827  11.4884  11.5495  11.5664  12.2745  12.7537
    13.4673  14.3422  16.8838  16.9330  17.5798  17.9269

     occupation numbers 
     0.0625   0.0625   0.0625   0.0625   0.0625   0.0625   0.0625   0.0625
     0.0625   0.0625   0.0625   0.0625   0.0625   0.0625   0.0625   0.0625
     0.0625   0.0625   0.0625   0.0625   0.0625   0.0625   0.0625   0.0625
     0.0625   0.0625   0.0625   0.0625   0.0625   0.0625   0.0625   0.0625
     0.0625   0.0619   0.0606   0.0605   0.0594   0.0590   0.0121   0.0004
     0.0000   0.0000   0.0000   0.0000   0.0000   0.0000

          k = 0.0000-0.5706 0.1027 (  2211 PWs)   bands (ev):

   -19.7315 -19.6950  -6.9617  -6.5367  -6.3142  -5.6897  -5.6176  -5.3406
    -3.3150  -3.1643  -3.0283  -2.6012  -2.5591  -2.3752   5.9188   6.2220
     6.6939   6.9823   7.2070   7.2454   7.5240   7.7578   7.8658   7.9476
     8.2994   8.9540   9.0997   9.3893   9.5014   9.6653  10.0050  10.3627
    10.8560  11.3533  11.4851  11.4892  11.5478  11.5674  12.2734  12.7533
    13.4711  14.3402  16.8833  16.9333  17.5803  17.9265

     occupation numbers 
     0.0625   0.0625   0.0625   0.0625   0.0625   0.0625   0.0625   0.0625
     0.0625   0.0625   0.0625   0.0625   0.0625   0.0625   0.0625   0.0625
     0.0625   0.0625   0.0625   0.0625   0.0625   0.0625   0.0625   0.0625
     0.0625   0.0625   0.0625   0.0625   0.0625   0.0625   0.0625   0.0625
     0.0625   0.0619   0.0606   0.0605   0.0594   0.0590   0.0122   0.0004
     0.0000   0.0000   0.0000   0.0000   0.0000   0.0000

          k = 0.7412 0.4280 0.3080 (  2210 PWs)   bands (ev):

   -19.7313 -19.6951  -6.8977  -6.4448  -6.2916  -5.7924  -5.7521  -5.4670
    -3.0685  -3.0499  -2.9627  -2.7265  -2.6192  -2.4253   5.9802   6.3667
     6.7725   6.9652   7.2279   7.2562   7.5521   7.7786   7.9079   7.9772
     8.2761   8.9403   8.9596   9.5053   9.5208   9.5243   9.6491  10.1991
    10.9268  11.3700  11.4698  11.4776  11.5961  11.6347  12.2319  12.7031
    13.4194  14.3099  17.0579  17.0666  17.5489  17.9018

     occupation numbers 
     0.0625   0.0625   0.0625   0.0625   0.0625   0.0625   0.0625   0.0625
     0.0625   0.0625   0.0625   0.0625   0.0625   0.0625   0.0625   0.0625
     0.0625   0.0625   0.0625   0.0625   0.0625   0.0625   0.0625   0.0625
     0.0625   0.0625   0.0625   0.0625   0.0625   0.0625   0.0625   0.0625
     0.0625   0.0618   0.0608   0.0607   0.0582   0.0570   0.0148   0.0006
     0.0000   0.0000   0.0000   0.0000   0.0000   0.0000

          k = 0.0000 0.8559-0.3080 (  2210 PWs)   bands (ev):

   -19.7313 -19.6951  -6.8977  -6.4449  -6.2915  -5.7924  -5.7520  -5.4670
    -3.0685  -3.0499  -2.9627  -2.7265  -2.6192  -2.4253   5.9801   6.3668
     6.7725   6.9653   7.2281   7.2560   7.5522   7.7785   7.9063   7.9793
     8.2757   8.9397   8.9601   9.5057   9.5208   9.5241   9.6490  10.1991
    10.9268  11.3699  11.4708  11.4766  11.5961  11.6347  12.2319  12.7031
    13.4194  14.3099  17.0578  17.0667  17.5489  17.9018

     occupation numbers 
     0.0625   0.0625   0.0625   0.0625   0.0625   0.0625   0.0625   0.0625
     0.0625   0.0625   0.0625   0.0625   0.0625   0.0625   0.0625   0.0625
     0.0625   0.0625   0.0625   0.0625   0.0625   0.0625   0.0625   0.0625
     0.0625   0.0625   0.0625   0.0625   0.0625   0.0625   0.0625   0.0625
     0.0625   0.0618   0.0608   0.0607   0.0582   0.0570   0.0148   0.0006
     0.0000   0.0000   0.0000   0.0000   0.0000   0.0000

          k = 0.2471 0.7133-0.2053 (  2206 PWs)   bands (ev):

   -19.7126 -19.7123  -6.8838  -6.8689  -6.0349  -6.0142  -5.4218  -5.4078
    -3.1518  -3.1513  -2.8121  -2.8087  -2.3842  -2.3806   6.0631   6.0849
     6.8851   6.8958   7.1066   7.1132   7.3983   7.4102   8.0510   8.0902
     8.7760   8.7904   8.9769   8.9881   9.5233   9.5350  10.0855  10.0925
    11.1471  11.1479  11.3642  11.3654  11.6458  11.6504  12.2962  12.2988
    14.0013  14.0106  17.4256  17.4270  17.8654  17.8693

     occupation numbers 
     0.0625   0.0625   0.0625   0.0625   0.0625   0.0625   0.0625   0.0625
     0.0625   0.0625   0.0625   0.0625   0.0625   0.0625   0.0625   0.0625
     0.0625   0.0625   0.0625   0.0625   0.0625   0.0625   0.0625   0.0625
     0.0625   0.0625   0.0625   0.0625   0.0625   0.0625   0.0625   0.0625
     0.0624   0.0624   0.0618   0.0618   0.0566   0.0564   0.0109   0.0107
     0.0000   0.0000   0.0000   0.0000   0.0000   0.0000

          k =-0.7412-0.1427-0.2053 (  2206 PWs)   bands (ev):

   -19.7131 -19.7131  -6.8821  -6.8581  -6.0341  -6.0326  -5.4227  -5.4008
    -3.1516  -3.1502  -2.8122  -2.8112  -2.3841  -2.3746   6.0674   6.0859
     6.8812   6.8844   7.0844   7.1130   7.3966   7.3986   8.0617   8.0970
     8.7918   8.7944   8.9822   8.9839   9.5369   9.5402  10.0819  10.0826
    11.1433  11.1441  11.3642  11.3661  11.6498  11.6509  12.2952  12.2987
    14.0020  14.0113  17.4266  17.4272  17.8650  17.8674

     occupation numbers 
     0.0625   0.0625   0.0625   0.0625   0.0625   0.0625   0.0625   0.0625
     0.0625   0.0625   0.0625   0.0625   0.0625   0.0625   0.0625   0.0625
     0.0625   0.0625   0.0625   0.0625   0.0625   0.0625   0.0625   0.0625
     0.0625   0.0625   0.0625   0.0625   0.0625   0.0625   0.0625   0.0625
     0.0624   0.0624   0.0618   0.0618   0.0564   0.0564   0.0109   0.0107
     0.0000   0.0000   0.0000   0.0000   0.0000   0.0000

     the Fermi energy is    12.0250 ev

!    total energy              =    -538.28105982 Ry
     Harris-Foulkes estimate   =    -538.28105410 Ry
     estimated scf accuracy    <          1.7E-09 Ry

     The total energy is the sum of the following terms:

     one-electron contribution =     -32.91849223 Ry
     hartree contribution      =      83.64504851 Ry
     xc contribution           =    -199.57909585 Ry
     ewald contribution        =    -389.44315552 Ry
     Hubbard energy            =       0.04829348 Ry
     smearing contrib. (-TS)   =      -0.03365821 Ry

     convergence has been achieved in  10 iterations

     init_run     :      6.98s CPU      7.19s WALL (       1 calls)
     electrons    :    361.85s CPU    364.59s WALL (       1 calls)

     Called by init_run:
     wfcinit      :      0.00s CPU      0.00s WALL (       1 calls)
     potinit      :      0.27s CPU      0.30s WALL (       1 calls)

     Called by electrons:
     c_bands      :    277.48s CPU    278.87s WALL (      10 calls)
     sum_band     :     60.85s CPU     61.57s WALL (      10 calls)
     v_of_rho     :      2.97s CPU      2.98s WALL (      11 calls)
     v_h          :      0.18s CPU      0.18s WALL (      11 calls)
     v_xc         :      2.78s CPU      2.80s WALL (      11 calls)
     newd         :     21.60s CPU     21.66s WALL (      11 calls)
     mix_rho      :      0.34s CPU      0.34s WALL (      10 calls)

     Called by c_bands:
     init_us_2    :      2.99s CPU      3.00s WALL (     720 calls)
     cegterg      :    269.53s CPU    270.29s WALL (     360 calls)

     Called by sum_band:
     sum_band:bec :      0.28s CPU      0.27s WALL (     360 calls)
     addusdens    :     12.20s CPU     12.25s WALL (      10 calls)

     Called by *egterg:
     h_psi        :    196.22s CPU    196.87s WALL (    1493 calls)
     s_psi        :     10.97s CPU     10.99s WALL (    1493 calls)
     g_psi        :      0.83s CPU      0.84s WALL (    1133 calls)
     cdiaghg      :     24.94s CPU     24.97s WALL (    1457 calls)
     cegterg:over :     13.26s CPU     13.28s WALL (    1133 calls)
     cegterg:upda :      9.09s CPU      9.09s WALL (    1133 calls)
     cegterg:last :      5.68s CPU      5.68s WALL (     396 calls)

     Called by h_psi:
     h_psi:vloc   :    159.65s CPU    160.21s WALL (    1493 calls)
     h_psi:vnl    :     23.48s CPU     23.50s WALL (    1493 calls)
     add_vuspsi   :     11.30s CPU     11.31s WALL (    1493 calls)
     vhpsi        :     12.50s CPU     12.58s WALL (    1493 calls)

     General routines
     calbec       :     25.07s CPU     25.14s WALL (    3706 calls)
     fft          :      2.04s CPU      2.15s WALL (     171 calls)
     ffts         :      0.06s CPU      0.14s WALL (      21 calls)
     fftw         :    145.94s CPU    146.49s WALL (   99820 calls)
     interpolate  :      0.36s CPU      0.49s WALL (      21 calls)
     davcio       :      0.01s CPU      1.11s WALL (     756 calls)

     Parallel routines
     fft_scatter  :     42.13s CPU     42.60s WALL (  100012 calls)
     Hubbard U routines
     new_ns       :      2.52s CPU      3.01s WALL (      10 calls)
     vhpsi        :     12.50s CPU     12.58s WALL (    1493 calls)

     PWSCF        :  6m 9.26s CPU     6m12.39s WALL


   This run was terminated on:  14:56:25  11Nov2012            

=------------------------------------------------------------------------------=
