   JOB DONE.
=------------------------------------------------------------------------------=

     Program PWSCF v.5.0.1 starts on 11Nov2012 at 15:19:17 

     This program is part of the open-source Quantum ESPRESSO suite
     for quantum simulation of materials; please cite
         "P. Giannozzi et al., J. Phys.:Condens. Matter 21 395502 (2009);
          URL http://www.quantum-espresso.org", 
     in publications or presentations arising from this work. More details at
     http://www.quantum-espresso.org/quote.php

     Parallel version (MPI), running on     2 processors
     R & G space division:  proc/pool =    2

     Current dimensions of program PWSCF are:
     Max number of different atomic species (ntypx) = 10
     Max number of k-points (npk) =  40000
     Max angular momentum in pseudopotentials (lmaxx) =  3
     Reading input from CoLaO_U100_a15.in
               file Co.pbe-nd-rrkjus.UPF: wavefunction(s)  4S 3D renormalized
               file O.pbe-rrkjus.UPF: wavefunction(s)  2S renormalized
               file O.pbe-rrkjus.UPF: wavefunction(s)  2S renormalized

     Subspace diagonalization in iterative solution of the eigenvalue problem:
     a serial algorithm will be used


     Parallelization info
     --------------------
     sticks:   dense  smooth     PW     G-vecs:    dense   smooth      PW
     Min        1112     444    131                34808     8786    1448
     Max        1113     445    132                34809     8787    1449
     Sum        2225     889    263                69617    17573    2897


     Title: 
     GGA + U, U = 1.000, alpha = 0.150                                          


     bravais-lattice index     =            5
     lattice parameter (alat)  =      10.3292  a.u.
     unit-cell volume          =     793.0599 (a.u.)^3
     number of atoms/cell      =           10
     number of atomic types    =            4
     number of electrons       =        76.00
     number of Kohn-Sham states=           46
     kinetic-energy cutoff     =      30.0000  Ry
     charge density cutoff     =     300.0000  Ry
     convergence threshold     =      1.0E-08
     mixing beta               =       0.2000
     number of iterations used =            8  plain     mixing
     Exchange-correlation      =  SLA  PW   PBE  PBE ( 1 4 3 4 0)
     EXX-fraction              =        0.00

     celldm(1)=  10.329242  celldm(2)=   0.000000  celldm(3)=   0.000000
     celldm(4)=   0.488100  celldm(5)=   0.000000  celldm(6)=   0.000000

     crystal axes: (cart. coord. in units of alat)
               a(1) = (   0.505915  -0.292090   0.811624 )  
               a(2) = (   0.000000   0.584180   0.811624 )  
               a(3) = (  -0.505915  -0.292090   0.811624 )  

     reciprocal axes: (cart. coord. in units 2 pi/alat)
               b(1) = (  0.988308 -0.570600  0.410699 )  
               b(2) = (  0.000000  1.141200  0.410699 )  
               b(3) = ( -0.988308 -0.570600  0.410699 )  


     PseudoPot. # 1 for Co read from file:
     /home/mcurnan/dft-course/Project1/example_LaCoO3/Co.pbe-nd-rrkjus.UPF
     MD5 check sum: 3e47a84addf5e975e0edeaeee2a73f59
     Pseudo is Ultrasoft + core correction, Zval =  9.0
     Generated by new atomic code, or converted to UPF format
     Using radial grid of  961 points,  6 beta functions with: 
                l(1) =   0
                l(2) =   0
                l(3) =   1
                l(4) =   1
                l(5) =   2
                l(6) =   2
     Q(r) pseudized with 0 coefficients 


     PseudoPot. # 2 for La read from file:
     /home/mcurnan/dft-course/Project1/example_LaCoO3/La.pbe-nsp-van.UPF
     MD5 check sum: b2f11743f52dde65f77d1302becd7929
     Pseudo is Ultrasoft + core correction, Zval = 11.0
     Generated by new atomic code, or converted to UPF format
     Using radial grid of  907 points,  6 beta functions with: 
                l(1) =   0
                l(2) =   0
                l(3) =   1
                l(4) =   1
                l(5) =   2
                l(6) =   2
     Q(r) pseudized with  6 coefficients,  rinner =    1.200   1.200   1.200
                                                       1.200   1.200

     PseudoPot. # 3 for O  read from file:
     /home/mcurnan/dft-course/Project1/example_LaCoO3/O.pbe-rrkjus.UPF
     MD5 check sum: 390ba29e75625707450f3bd3f0eb6be9
     Pseudo is Ultrasoft, Zval =  6.0
     Generated by new atomic code, or converted to UPF format
     Using radial grid of 1269 points,  4 beta functions with: 
                l(1) =   0
                l(2) =   0
                l(3) =   1
                l(4) =   1
     Q(r) pseudized with 0 coefficients 


     PseudoPot. # 4 for O  read from file:
     /home/mcurnan/dft-course/Project1/example_LaCoO3/O.pbe-rrkjus.UPF
     MD5 check sum: 390ba29e75625707450f3bd3f0eb6be9
     Pseudo is Ultrasoft, Zval =  6.0
     Generated by new atomic code, or converted to UPF format
     Using radial grid of 1269 points,  4 beta functions with: 
                l(1) =   0
                l(2) =   0
                l(3) =   1
                l(4) =   1
     Q(r) pseudized with 0 coefficients 


     atomic species   valence    mass     pseudopotential
        Co1            9.00     1.00000     Co( 1.00)
        La1           11.00     1.00000     La( 1.00)
        O1             6.00     1.00000     O ( 1.00)
        O2             6.00     1.00000     O ( 1.00)
 -----
     simplified LDA+U calculation, Hubbard_lmax = 2
     atomic species  L   Hubbard U  Hubbard alpha
        Co1          2    1.000000    0.000000
        La1          2    0.000000    0.000000
        O1           1    0.000000    0.150000
        O2           1    0.000000    0.000000
 -----

     No symmetry found


                                    s                        frac. trans.

      isym =  1     identity                                     

 cryst.   s( 1) = (     1          0          0      )
                  (     0          1          0      )
                  (     0          0          1      )

 cart.    s( 1) = (  1.0000000  0.0000000  0.0000000 )
                  (  0.0000000  1.0000000  0.0000000 )
                  (  0.0000000  0.0000000  1.0000000 )


     point group C_1 (1)    
     there are  1 classes
     the character table:

       E    
A      1.00

     the symmetry operations in each class:
     E        1

   Cartesian axes

     site n.     atom                  positions (alat units)
         1           Co1 tau(   1) = (   0.2228050  -0.1992639   1.0141240  )
         2           Co1 tau(   2) = (  -0.2831100   0.0928263   1.4199360  )
         3           La1 tau(   3) = (  -0.2831100   0.0928263   0.8112181  )
         4           La1 tau(   4) = (   0.2228050   0.3849164   1.2170300  )
         5           O1  tau(   5) = (   0.0000000   0.0000000   0.0000000  )
         6           O2  tau(   6) = (   0.0008601   0.1861491   1.6232478  )
         7           O2  tau(   7) = (   0.1616398   0.0923297   0.8116239  )
         8           O2  tau(   8) = (  -0.0603051  -0.1064377   1.2166242  )
         9           O2  tau(   9) = (   0.4447499  -0.0004966   1.2166242  )
        10           O2  tau(  10) = (  -0.2219449   0.3854130   1.2166242  )

   Crystallographic axes

     site n.     atom                  positions (cryst. coord.)
         1           Co1 tau(   1) = (  0.7504000  0.1891000  0.3100000  )
         2           Co1 tau(   2) = (  0.2504000  0.6891000  0.8100000  )
         3           La1 tau(   3) = (  0.0004000  0.4391000  0.5600000  )
         4           La1 tau(   4) = (  0.5004000  0.9391000  0.0600000  )
         5           O1  tau(   5) = (  0.0000000  0.0000000  0.0000000  )
         6           O2  tau(   6) = (  0.5613000  0.8791000  0.5596000  )
         7           O2  tau(   7) = (  0.4404000  0.4387000  0.1209000  )
         8           O2  tau(   8) = (  0.5008000  0.3782000  0.6200000  )
         9           O2  tau(   9) = (  0.9395000  0.4991000  0.0604000  )
        10           O2  tau(  10) = (  0.0604000  0.9395000  0.4991000  )

     number of k points=    36  gaussian smearing, width (Ry)=  0.0300
                       cart. coord. in units 2pi/alat
        k(    1) = (   0.0000000   0.0000000   0.0000000), wk =   0.0312500
        k(    2) = (  -0.2470771  -0.1426500   0.1026748), wk =   0.0625000
        k(    3) = (   0.4941541   0.2853000  -0.2053496), wk =   0.0312500
        k(    4) = (  -0.2470771   0.1426500   0.2053496), wk =   0.0625000
        k(    5) = (   0.4941541   0.5706001  -0.1026748), wk =   0.0625000
        k(    6) = (   0.2470771   0.4279500   0.0000000), wk =   0.0625000
        k(    7) = (   0.4941541  -0.2853000  -0.4106993), wk =   0.0312500
        k(    8) = (   0.0000000   0.0000000   0.3080244), wk =   0.0625000
        k(    9) = (   0.7412312   0.4279500   0.0000000), wk =   0.0625000
        k(   10) = (   0.4941541   0.2853000   0.1026748), wk =   0.0625000
        k(   11) = (   0.7412312  -0.4279500  -0.3080244), wk =   0.0625000
        k(   12) = (   0.4941541  -0.5706001  -0.2053496), wk =   0.0625000
        k(   13) = (   0.0000000   0.0000000  -0.6160489), wk =   0.0312500
        k(   14) = (  -0.2470771   0.1426500  -0.1026748), wk =   0.0625000
        k(   15) = (   0.0000000   0.2853000   0.1026748), wk =   0.0625000
        k(   16) = (   0.4941541  -0.2853000   0.2053496), wk =   0.0312500
        k(   17) = (   0.0000000  -0.5706001  -0.2053496), wk =   0.0312500
        k(   18) = (  -0.2470771  -0.1426500  -0.2053496), wk =   0.0625000
        k(   19) = (   0.0000000  -0.2853000   0.2053496), wk =   0.0625000
        k(   20) = (   0.4941541  -0.5706001   0.1026748), wk =   0.0625000
        k(   21) = (  -0.7412312   0.1426500  -0.1026748), wk =   0.0625000
        k(   22) = (   0.2470771  -0.7132501  -0.1026748), wk =   0.0625000
        k(   23) = (  -0.7412312  -0.1426500   0.1026748), wk =   0.0625000
        k(   24) = (   0.2470771   0.7132501   0.1026748), wk =   0.0625000
        k(   25) = (   0.2470771  -0.4279500   0.0000000), wk =   0.0625000
        k(   26) = (  -0.4941541   0.0000000   0.0000000), wk =   0.0625000
        k(   27) = (   0.4941541   0.2853000   0.4106993), wk =   0.0312500
        k(   28) = (   0.0000000   0.5706001  -0.4106993), wk =   0.0312500
        k(   29) = (   0.7412312  -0.4279500   0.0000000), wk =   0.0625000
        k(   30) = (   0.0000000  -0.8559001   0.0000000), wk =   0.0625000
        k(   31) = (   0.4941541  -0.2853000  -0.1026748), wk =   0.0625000
        k(   32) = (   0.0000000  -0.5706001   0.1026748), wk =   0.0625000
        k(   33) = (   0.7412312   0.4279500   0.3080244), wk =   0.0625000
        k(   34) = (   0.0000000   0.8559001  -0.3080244), wk =   0.0625000
        k(   35) = (   0.2470771   0.7132501  -0.2053496), wk =   0.0625000
        k(   36) = (  -0.7412312  -0.1426500  -0.2053496), wk =   0.0625000

                       cryst. coord.
        k(    1) = (   0.0000000   0.0000000   0.0000000), wk =   0.0312500
        k(    2) = (   0.0000000   0.0000000   0.2500000), wk =   0.0625000
        k(    3) = (   0.0000000   0.0000000  -0.5000000), wk =   0.0312500
        k(    4) = (   0.0000000   0.2500000   0.2500000), wk =   0.0625000
        k(    5) = (   0.0000000   0.2500000  -0.5000000), wk =   0.0625000
        k(    6) = (   0.0000000   0.2500000  -0.2500000), wk =   0.0625000
        k(    7) = (   0.0000000  -0.5000000  -0.5000000), wk =   0.0312500
        k(    8) = (   0.2500000   0.2500000   0.2500000), wk =   0.0625000
        k(    9) = (   0.2500000   0.2500000  -0.5000000), wk =   0.0625000
        k(   10) = (   0.2500000   0.2500000  -0.2500000), wk =   0.0625000
        k(   11) = (   0.2500000  -0.5000000  -0.5000000), wk =   0.0625000
        k(   12) = (   0.2500000  -0.5000000  -0.2500000), wk =   0.0625000
        k(   13) = (  -0.5000000  -0.5000000  -0.5000000), wk =   0.0312500
        k(   14) = (  -0.2500000   0.0000000   0.0000000), wk =   0.0625000
        k(   15) = (   0.0000000   0.2500000   0.0000000), wk =   0.0625000
        k(   16) = (   0.5000000   0.0000000   0.0000000), wk =   0.0312500
        k(   17) = (   0.0000000  -0.5000000   0.0000000), wk =   0.0312500
        k(   18) = (  -0.2500000  -0.2500000   0.0000000), wk =   0.0625000
        k(   19) = (   0.2500000   0.0000000   0.2500000), wk =   0.0625000
        k(   20) = (   0.5000000  -0.2500000   0.0000000), wk =   0.0625000
        k(   21) = (  -0.5000000   0.0000000   0.2500000), wk =   0.0625000
        k(   22) = (   0.2500000  -0.5000000   0.0000000), wk =   0.0625000
        k(   23) = (  -0.2500000   0.0000000   0.5000000), wk =   0.0625000
        k(   24) = (   0.0000000   0.5000000  -0.2500000), wk =   0.0625000
        k(   25) = (   0.2500000  -0.2500000   0.0000000), wk =   0.0625000
        k(   26) = (  -0.2500000   0.0000000   0.2500000), wk =   0.0625000
        k(   27) = (   0.5000000   0.5000000   0.0000000), wk =   0.0312500
        k(   28) = (  -0.5000000   0.0000000  -0.5000000), wk =   0.0312500
        k(   29) = (   0.5000000  -0.2500000  -0.2500000), wk =   0.0625000
        k(   30) = (   0.2500000  -0.5000000   0.2500000), wk =   0.0625000
        k(   31) = (   0.2500000  -0.2500000  -0.2500000), wk =   0.0625000
        k(   32) = (   0.2500000  -0.2500000   0.2500000), wk =   0.0625000
        k(   33) = (   0.5000000   0.5000000  -0.2500000), wk =   0.0625000
        k(   34) = (  -0.5000000   0.2500000  -0.5000000), wk =   0.0625000
        k(   35) = (  -0.2500000   0.2500000  -0.5000000), wk =   0.0625000
        k(   36) = (  -0.5000000  -0.2500000   0.2500000), wk =   0.0625000

     Dense  grid:    69617 G-vectors     FFT dimensions: (  60,  60,  60)

     Smooth grid:    17573 G-vectors     FFT dimensions: (  40,  40,  40)

     Largest allocated arrays     est. size (Mb)     dimensions
        Kohn-Sham Wavefunctions         0.79 Mb     (   1119,   46)
        Atomic wavefunctions            1.06 Mb     (   1119,   62)
        NL pseudopotentials             2.05 Mb     (   1119,  120)
        Each V/rho on FFT grid          1.65 Mb     ( 108000)
        Each G-vector array             0.27 Mb     (  34808)
        G-vector shells                 0.04 Mb     (   4682)
     Largest temporary arrays     est. size (Mb)     dimensions
        Auxiliary wavefunctions         3.14 Mb     (   1119,  184)
        Each subspace H/S matrix        0.52 Mb     ( 184, 184)
        Each <psi_i|beta_j> matrix      0.08 Mb     (    120,   46)
        Arrays for rho mixing          13.18 Mb     ( 108000,   8)

     Check: negative/imaginary core charge=   -0.000028    0.000000

     The initial density is read from file :
     /home/mcurnan/dft-course/Project1/example_LaCoO3/100/O/alpha/CoLaO_U100.save/charge-density.dat

 --- in v_hubbard ---
Hubbard energy    0.1556
 -------
     Number of +U iterations with fixed ns =  0
     Starting occupations:
 --- enter write_ns ---
 LDA+U parameters:
U( 1)     =  1.00000000
alpha( 1) =  0.00000000
U( 2)     =  0.00000000
alpha( 2) =  0.00000000
U( 3)     =  0.00000000
alpha( 3) =  0.15000000
U( 4)     =  0.00000000
alpha( 4) =  0.00000000
atom    1   Tr[ns(na)] =   8.02205
    eigenvalues: 
  0.596  0.596  0.938  0.941  0.941
    eigenvectors:
  0.000  0.000  1.000  0.000  0.000
  0.057  0.598  0.000  0.178  0.167
  0.598  0.057  0.000  0.167  0.178
  0.210  0.135  0.000  0.095  0.560
  0.135  0.210  0.000  0.560  0.095
    occupations:
  0.938  0.000  0.000  0.000  0.000
  0.000  0.715  0.000 -0.060  0.152
  0.000  0.000  0.715  0.152  0.060
  0.000 -0.060  0.152  0.822  0.000
  0.000  0.152  0.060  0.000  0.822
atom    2   Tr[ns(na)] =   8.02142
    eigenvalues: 
  0.595  0.595  0.938  0.941  0.941
    eigenvectors:
  0.000  0.000  1.000  0.000  0.000
  0.332  0.323  0.000  0.023  0.322
  0.323  0.332  0.000  0.322  0.023
  0.288  0.057  0.000  0.647  0.008
  0.057  0.288  0.000  0.008  0.647
    occupations:
  0.938  0.000  0.000  0.000  0.000
  0.000  0.715  0.000  0.060  0.153
  0.000  0.000  0.715  0.153 -0.060
  0.000  0.060  0.153  0.822  0.000
  0.000  0.153 -0.060  0.000  0.822
atom    3   Tr[ns(na)] =   3.80282
    eigenvalues: 
  0.355  0.355  0.384  0.403  0.403
    eigenvectors:
  0.000  0.000  1.000  0.000  0.000
  0.065  0.856  0.000  0.058  0.021
  0.856  0.065  0.000  0.021  0.058
  0.073  0.006  0.000  0.250  0.670
  0.006  0.073  0.000  0.670  0.250
    occupations:
  0.384  0.000  0.000  0.000  0.000
  0.000  0.359  0.000  0.000  0.013
  0.000  0.000  0.359  0.013  0.000
  0.000  0.000  0.013  0.399  0.000
  0.000  0.013  0.000  0.000  0.399
atom    4   Tr[ns(na)] =   3.80282
    eigenvalues: 
  0.355  0.355  0.384  0.403  0.403
    eigenvectors:
  0.000  0.000  1.000  0.000  0.000
  0.729  0.192  0.000  0.048  0.032
  0.192  0.729  0.000  0.032  0.048
  0.017  0.062  0.000  0.359  0.562
  0.062  0.017  0.000  0.562  0.359
    occupations:
  0.384  0.000  0.000  0.000  0.000
  0.000  0.359  0.000  0.000  0.013
  0.000  0.000  0.359  0.013  0.000
  0.000  0.000  0.013  0.399  0.000
  0.000  0.013  0.000  0.000  0.399
atom    5   Tr[ns(na)] =   5.43357
    eigenvalues: 
  0.846  0.929  0.941
    eigenvectors:
  0.340  0.000  0.660
  0.496  0.250  0.255
  0.164  0.750  0.086
    occupations:
  0.909 -0.039  0.022
 -0.039  0.891  0.022
  0.022  0.022  0.917
atom    6   Tr[ns(na)] =   5.43358
    eigenvalues: 
  0.846  0.929  0.941
    eigenvectors:
  0.340  0.000  0.660
  0.494  0.250  0.256
  0.166  0.750  0.085
    occupations:
  0.909  0.039  0.022
  0.039  0.891 -0.022
  0.022 -0.022  0.917
atom    7   Tr[ns(na)] =   5.43358
    eigenvalues: 
  0.846  0.929  0.941
    eigenvectors:
  0.340  0.000  0.660
  0.000  1.000  0.000
  0.660  0.000  0.340
    occupations:
  0.909  0.000 -0.045
  0.000  0.929  0.000
 -0.045  0.000  0.879
atom    8   Tr[ns(na)] =   5.43357
    eigenvalues: 
  0.846  0.929  0.941
    eigenvectors:
  0.340  0.000  0.660
  0.496  0.250  0.255
  0.164  0.750  0.086
    occupations:
  0.909 -0.039  0.022
 -0.039  0.891  0.022
  0.022  0.022  0.917
atom    9   Tr[ns(na)] =   5.43358
    eigenvalues: 
  0.846  0.929  0.941
    eigenvectors:
  0.340  0.000  0.660
  0.494  0.250  0.256
  0.166  0.750  0.085
    occupations:
  0.909  0.039  0.022
  0.039  0.891 -0.022
  0.022 -0.022  0.917
atom   10   Tr[ns(na)] =   5.43358
    eigenvalues: 
  0.846  0.929  0.941
    eigenvectors:
  0.340  0.000  0.660
  0.000  1.000  0.000
  0.660  0.000  0.340
    occupations:
  0.909  0.000 -0.045
  0.000  0.929  0.000
 -0.045  0.000  0.879
N of occupied +U levels =  56.2505796
 --- exit write_ns ---
 LDA+U Projector read from file 
     Starting wfc from file

     total cpu time spent up to now is        7.5 secs

     per-process dynamical memory:    62.8 Mb

     Self-consistent Calculation

     iteration #  1     ecut=    30.00 Ry     beta=0.20
     Davidson diagonalization with overlap
     c_bands:  1 eigenvalues not converged
     c_bands:  1 eigenvalues not converged
     c_bands:  1 eigenvalues not converged
     c_bands:  1 eigenvalues not converged
     c_bands:  1 eigenvalues not converged
     c_bands:  1 eigenvalues not converged
     c_bands:  1 eigenvalues not converged
     c_bands:  1 eigenvalues not converged
     c_bands:  1 eigenvalues not converged
     c_bands:  1 eigenvalues not converged
     c_bands:  1 eigenvalues not converged
     c_bands:  1 eigenvalues not converged
     c_bands:  1 eigenvalues not converged
     c_bands:  1 eigenvalues not converged
     c_bands:  1 eigenvalues not converged
     c_bands:  1 eigenvalues not converged
     c_bands:  1 eigenvalues not converged
     c_bands:  1 eigenvalues not converged
     c_bands:  1 eigenvalues not converged
     c_bands:  1 eigenvalues not converged
     c_bands:  1 eigenvalues not converged
     ethr =  1.00E-10,  avg # of iterations = 17.5
 --- enter write_ns ---
 LDA+U parameters:
U( 1)     =  1.00000000
alpha( 1) =  0.00000000
U( 2)     =  0.00000000
alpha( 2) =  0.00000000
U( 3)     =  0.00000000
alpha( 3) =  0.15000000
U( 4)     =  0.00000000
alpha( 4) =  0.00000000
atom    1   Tr[ns(na)] =   8.08410
    eigenvalues: 
  0.578  0.580  0.961  0.961  0.962
    eigenvectors:
  0.000  0.000  0.730  0.017  0.254
  0.101  0.553  0.085  0.087  0.175
  0.554  0.101  0.009  0.253  0.083
  0.178  0.167  0.070  0.251  0.334
  0.168  0.178  0.107  0.392  0.155
    occupations:
  0.961  0.000  0.000  0.000  0.000
  0.000  0.712  0.000 -0.065  0.170
  0.000  0.000  0.710  0.170  0.066
  0.000 -0.065  0.170  0.830  0.000
  0.000  0.170  0.066  0.000  0.829
atom    2   Tr[ns(na)] =   8.08111
    eigenvalues: 
  0.576  0.578  0.961  0.962  0.963
    eigenvectors:
  0.000  0.000  0.776  0.013  0.210
  0.235  0.420  0.045  0.075  0.225
  0.419  0.235  0.033  0.266  0.048
  0.319  0.027  0.017  0.635  0.002
  0.026  0.319  0.130  0.011  0.514
    occupations:
  0.961  0.000  0.000  0.000 -0.001
  0.000  0.710 -0.001  0.065  0.171
  0.000 -0.001  0.710  0.171 -0.065
  0.000  0.065  0.171  0.829  0.000
 -0.001  0.171 -0.065  0.000  0.830
atom    3   Tr[ns(na)] =   3.80330
    eigenvalues: 
  0.356  0.356  0.383  0.403  0.403
    eigenvectors:
  0.000  0.000  1.000  0.000  0.000
  0.692  0.230  0.000  0.019  0.058
  0.231  0.691  0.000  0.060  0.018
  0.020  0.058  0.000  0.695  0.227
  0.057  0.020  0.000  0.227  0.695
    occupations:
  0.383  0.000  0.000  0.000  0.000
  0.000  0.360  0.000  0.000  0.013
  0.000  0.000  0.360  0.013  0.000
  0.000  0.000  0.013  0.399  0.000
  0.000  0.013  0.000  0.000  0.400
atom    4   Tr[ns(na)] =   3.80308
    eigenvalues: 
  0.356  0.356  0.384  0.403  0.403
    eigenvectors:
  0.000  0.000  1.000  0.000  0.000
  0.233  0.684  0.000  0.019  0.064
  0.688  0.231  0.000  0.060  0.021
  0.059  0.022  0.000  0.687  0.232
  0.021  0.062  0.000  0.234  0.683
    occupations:
  0.384  0.000  0.000  0.000  0.000
  0.000  0.360  0.000  0.000  0.013
  0.000  0.000  0.360  0.013  0.000
  0.000  0.000  0.013  0.399  0.000
  0.000  0.013  0.000  0.000  0.399
atom    5   Tr[ns(na)] =   5.39678
    eigenvalues: 
  0.835  0.924  0.939
    eigenvectors:
  0.342  0.000  0.658
  0.494  0.250  0.256
  0.164  0.750  0.086
    occupations:
  0.904 -0.043  0.025
 -0.043  0.884  0.023
  0.025  0.023  0.911
atom    6   Tr[ns(na)] =   5.42264
    eigenvalues: 
  0.841  0.928  0.942
    eigenvectors:
  0.340  0.000  0.660
  0.494  0.252  0.254
  0.166  0.748  0.086
    occupations:
  0.908  0.042  0.024
  0.042  0.889 -0.023
  0.024 -0.023  0.915
atom    7   Tr[ns(na)] =   5.42265
    eigenvalues: 
  0.841  0.928  0.942
    eigenvectors:
  0.340  0.000  0.660
  0.000  1.000  0.000
  0.660  0.000  0.340
    occupations:
  0.908  0.000 -0.048
  0.000  0.928  0.000
 -0.048  0.000  0.875
atom    8   Tr[ns(na)] =   5.42260
    eigenvalues: 
  0.841  0.928  0.942
    eigenvectors:
  0.341  0.000  0.659
  0.495  0.250  0.255
  0.164  0.750  0.086
    occupations:
  0.908 -0.041  0.024
 -0.041  0.889  0.023
  0.024  0.023  0.915
atom    9   Tr[ns(na)] =   5.42260
    eigenvalues: 
  0.841  0.928  0.942
    eigenvectors:
  0.341  0.000  0.659
  0.494  0.251  0.255
  0.165  0.749  0.086
    occupations:
  0.908  0.042  0.024
  0.042  0.889 -0.023
  0.024 -0.023  0.915
atom   10   Tr[ns(na)] =   5.42260
    eigenvalues: 
  0.841  0.928  0.942
    eigenvectors:
  0.341  0.000  0.659
  0.000  1.000  0.000
  0.659  0.000  0.341
    occupations:
  0.908  0.000 -0.048
  0.000  0.928  0.000
 -0.048  0.000  0.875
N of occupied +U levels =  56.2814663
 --- exit write_ns ---
 --- in v_hubbard ---
Hubbard energy    0.1540
 -------

     total cpu time spent up to now is       96.3 secs

     total energy              =    -538.18045262 Ry
     Harris-Foulkes estimate   =    -538.18166094 Ry
     estimated scf accuracy    <       0.00517622 Ry

     iteration #  2     ecut=    30.00 Ry     beta=0.20
     Davidson diagonalization with overlap
     ethr =  6.81E-06,  avg # of iterations =  2.0
 --- enter write_ns ---
 LDA+U parameters:
U( 1)     =  1.00000000
alpha( 1) =  0.00000000
U( 2)     =  0.00000000
alpha( 2) =  0.00000000
U( 3)     =  0.00000000
alpha( 3) =  0.15000000
U( 4)     =  0.00000000
alpha( 4) =  0.00000000
atom    1   Tr[ns(na)] =   8.02728
    eigenvalues: 
  0.565  0.567  0.960  0.961  0.961
    eigenvectors:
  0.000  0.000  0.958  0.003  0.040
  0.101  0.553  0.012  0.147  0.186
  0.554  0.102  0.003  0.197  0.145
  0.176  0.168  0.015  0.144  0.496
  0.169  0.177  0.013  0.509  0.133
    occupations:
  0.960  0.000  0.000  0.000  0.000
  0.000  0.703  0.000 -0.067  0.175
  0.000  0.000  0.702  0.175  0.068
  0.000 -0.067  0.175  0.825  0.000
  0.000  0.175  0.068  0.000  0.825
atom    2   Tr[ns(na)] =   8.03446
    eigenvalues: 
  0.565  0.566  0.961  0.962  0.963
    eigenvectors:
  0.000  0.000  0.965  0.002  0.033
  0.235  0.420  0.008  0.034  0.302
  0.420  0.235  0.004  0.310  0.032
  0.319  0.026  0.001  0.652  0.002
  0.025  0.319  0.022  0.001  0.632
    occupations:
  0.961  0.000  0.000  0.000  0.000
  0.000  0.702  0.000  0.068  0.176
  0.000  0.000  0.702  0.176 -0.067
  0.000  0.068  0.176  0.825  0.000
  0.000  0.176 -0.067  0.000  0.826
atom    3   Tr[ns(na)] =   3.80071
    eigenvalues: 
  0.356  0.356  0.383  0.403  0.403
    eigenvectors:
  0.000  0.000  1.000  0.000  0.000
  0.691  0.231  0.000  0.021  0.058
  0.231  0.691  0.000  0.058  0.021
  0.020  0.058  0.000  0.670  0.251
  0.058  0.020  0.000  0.251  0.670
    occupations:
  0.383  0.000  0.000  0.000  0.000
  0.000  0.359  0.000  0.000  0.013
  0.000  0.000  0.359  0.013  0.000
  0.000  0.000  0.013  0.399  0.000
  0.000  0.013  0.000  0.000  0.399
atom    4   Tr[ns(na)] =   3.80070
    eigenvalues: 
  0.356  0.356  0.383  0.403  0.403
    eigenvectors:
  0.000  0.000  1.000  0.000  0.000
  0.227  0.693  0.000  0.019  0.061
  0.695  0.226  0.000  0.060  0.019
  0.059  0.020  0.000  0.696  0.225
  0.020  0.060  0.000  0.225  0.695
    occupations:
  0.383  0.000  0.000  0.000  0.000
  0.000  0.359  0.000  0.000  0.013
  0.000  0.000  0.359  0.013  0.000
  0.000  0.000  0.013  0.399  0.000
  0.000  0.013  0.000  0.000  0.399
atom    5   Tr[ns(na)] =   5.42723
    eigenvalues: 
  0.843  0.929  0.942
    eigenvectors:
  0.339  0.000  0.661
  0.496  0.250  0.254
  0.165  0.750  0.085
    occupations:
  0.909 -0.041  0.024
 -0.041  0.890  0.022
  0.024  0.022  0.916
atom    6   Tr[ns(na)] =   5.43645
    eigenvalues: 
  0.845  0.930  0.943
    eigenvectors:
  0.339  0.000  0.661
  0.495  0.251  0.254
  0.166  0.749  0.085
    occupations:
  0.910  0.040  0.023
  0.040  0.891 -0.022
  0.023 -0.022  0.917
atom    7   Tr[ns(na)] =   5.43646
    eigenvalues: 
  0.845  0.930  0.943
    eigenvectors:
  0.339  0.000  0.661
  0.000  1.000  0.000
  0.661  0.000  0.339
    occupations:
  0.910  0.000 -0.046
  0.000  0.930  0.000
 -0.046  0.000  0.878
atom    8   Tr[ns(na)] =   5.43555
    eigenvalues: 
  0.845  0.930  0.943
    eigenvectors:
  0.339  0.000  0.661
  0.496  0.250  0.254
  0.165  0.750  0.085
    occupations:
  0.910 -0.040  0.023
 -0.040  0.891  0.022
  0.023  0.022  0.917
atom    9   Tr[ns(na)] =   5.43665
    eigenvalues: 
  0.845  0.930  0.943
    eigenvectors:
  0.339  0.000  0.661
  0.496  0.250  0.254
  0.165  0.750  0.085
    occupations:
  0.910  0.040  0.023
  0.040  0.891 -0.022
  0.023 -0.022  0.917
atom   10   Tr[ns(na)] =   5.43665
    eigenvalues: 
  0.845  0.930  0.943
    eigenvectors:
  0.339  0.000  0.661
  0.000  1.000  0.000
  0.661  0.000  0.339
    occupations:
  0.910  0.000 -0.046
  0.000  0.930  0.000
 -0.046  0.000  0.878
N of occupied +U levels =  56.2721333
 --- exit write_ns ---
 --- in v_hubbard ---
Hubbard energy    0.1533
 -------

     total cpu time spent up to now is      126.2 secs

     total energy              =    -538.18114042 Ry
     Harris-Foulkes estimate   =    -538.18127309 Ry
     estimated scf accuracy    <       0.00226298 Ry

     iteration #  3     ecut=    30.00 Ry     beta=0.20
     Davidson diagonalization with overlap
     ethr =  2.98E-06,  avg # of iterations =  1.0
 --- enter write_ns ---
 LDA+U parameters:
U( 1)     =  1.00000000
alpha( 1) =  0.00000000
U( 2)     =  0.00000000
alpha( 2) =  0.00000000
U( 3)     =  0.00000000
alpha( 3) =  0.15000000
U( 4)     =  0.00000000
alpha( 4) =  0.00000000
atom    1   Tr[ns(na)] =   8.05481
    eigenvalues: 
  0.570  0.571  0.961  0.962  0.962
    eigenvectors:
  0.000  0.000  0.952  0.003  0.045
  0.102  0.553  0.013  0.143  0.189
  0.554  0.102  0.003  0.201  0.140
  0.176  0.169  0.017  0.151  0.488
  0.169  0.176  0.015  0.503  0.138
    occupations:
  0.961  0.000  0.000  0.000  0.000
  0.000  0.706  0.000 -0.067  0.173
  0.000  0.000  0.705  0.174  0.068
  0.000 -0.067  0.174  0.827  0.000
  0.000  0.173  0.068  0.000  0.827
atom    2   Tr[ns(na)] =   8.03632
    eigenvalues: 
  0.567  0.568  0.960  0.961  0.962
    eigenvectors:
  0.000  0.000  0.972  0.002  0.027
  0.234  0.422  0.007  0.035  0.303
  0.421  0.234  0.003  0.309  0.032
  0.319  0.026  0.001  0.653  0.001
  0.026  0.319  0.018  0.001  0.637
    occupations:
  0.960  0.000  0.000  0.000  0.000
  0.000  0.703  0.000  0.067  0.175
  0.000  0.000  0.703  0.175 -0.067
  0.000  0.067  0.175  0.825  0.000
  0.000  0.175 -0.067  0.000  0.826
atom    3   Tr[ns(na)] =   3.80052
    eigenvalues: 
  0.356  0.356  0.383  0.403  0.403
    eigenvectors:
  0.000  0.000  1.000  0.000  0.000
  0.692  0.229  0.000  0.020  0.059
  0.229  0.692  0.000  0.059  0.020
  0.020  0.058  0.000  0.682  0.240
  0.058  0.020  0.000  0.240  0.682
    occupations:
  0.383  0.000  0.000  0.000  0.000
  0.000  0.359  0.000  0.000  0.013
  0.000  0.000  0.359  0.013  0.000
  0.000  0.000  0.013  0.399  0.000
  0.000  0.013  0.000  0.000  0.399
atom    4   Tr[ns(na)] =   3.80049
    eigenvalues: 
  0.356  0.356  0.383  0.403  0.403
    eigenvectors:
  0.000  0.000  1.000  0.000  0.000
  0.241  0.679  0.000  0.018  0.061
  0.681  0.240  0.000  0.060  0.019
  0.058  0.022  0.000  0.697  0.223
  0.021  0.059  0.000  0.224  0.696
    occupations:
  0.383  0.000  0.000  0.000  0.000
  0.000  0.359  0.000  0.000  0.013
  0.000  0.000  0.359  0.013  0.000
  0.000  0.000  0.013  0.399  0.000
  0.000  0.013  0.000  0.000  0.399
atom    5   Tr[ns(na)] =   5.42255
    eigenvalues: 
  0.841  0.928  0.942
    eigenvectors:
  0.340  0.000  0.660
  0.496  0.249  0.255
  0.164  0.751  0.085
    occupations:
  0.908 -0.041  0.024
 -0.041  0.889  0.023
  0.024  0.023  0.915
atom    6   Tr[ns(na)] =   5.43209
    eigenvalues: 
  0.844  0.929  0.943
    eigenvectors:
  0.340  0.000  0.660
  0.494  0.252  0.254
  0.167  0.748  0.085
    occupations:
  0.909  0.041  0.024
  0.041  0.891 -0.022
  0.024 -0.022  0.916
atom    7   Tr[ns(na)] =   5.43209
    eigenvalues: 
  0.844  0.929  0.943
    eigenvectors:
  0.340  0.000  0.660
  0.000  1.000  0.000
  0.660  0.000  0.340
    occupations:
  0.909  0.000 -0.047
  0.000  0.929  0.000
 -0.047  0.000  0.878
atom    8   Tr[ns(na)] =   5.43137
    eigenvalues: 
  0.844  0.929  0.943
    eigenvectors:
  0.339  0.000  0.661
  0.497  0.249  0.254
  0.164  0.751  0.085
    occupations:
  0.909 -0.041  0.023
 -0.041  0.890  0.022
  0.023  0.022  0.916
atom    9   Tr[ns(na)] =   5.43221
    eigenvalues: 
  0.844  0.929  0.943
    eigenvectors:
  0.339  0.000  0.661
  0.495  0.251  0.254
  0.166  0.749  0.085
    occupations:
  0.909  0.041  0.023
  0.041  0.891 -0.022
  0.023 -0.022  0.916
atom   10   Tr[ns(na)] =   5.43221
    eigenvalues: 
  0.844  0.929  0.943
    eigenvectors:
  0.339  0.000  0.661
  0.000  1.000  0.000
  0.661  0.000  0.339
    occupations:
  0.909  0.000 -0.047
  0.000  0.929  0.000
 -0.047  0.000  0.877
N of occupied +U levels =  56.2746537
 --- exit write_ns ---
 --- in v_hubbard ---
Hubbard energy    0.1522
 -------

     total cpu time spent up to now is      155.1 secs

     total energy              =    -538.18118588 Ry
     Harris-Foulkes estimate   =    -538.18122602 Ry
     estimated scf accuracy    <       0.00119682 Ry

     iteration #  4     ecut=    30.00 Ry     beta=0.20
     Davidson diagonalization with overlap
     ethr =  1.57E-06,  avg # of iterations =  1.0
 --- enter write_ns ---
 LDA+U parameters:
U( 1)     =  1.00000000
alpha( 1) =  0.00000000
U( 2)     =  0.00000000
alpha( 2) =  0.00000000
U( 3)     =  0.00000000
alpha( 3) =  0.15000000
U( 4)     =  0.00000000
alpha( 4) =  0.00000000
atom    1   Tr[ns(na)] =   8.01147
    eigenvalues: 
  0.566  0.567  0.956  0.958  0.958
    eigenvectors:
  0.000  0.000  0.975  0.001  0.023
  0.103  0.553  0.007  0.146  0.192
  0.553  0.103  0.002  0.198  0.145
  0.177  0.167  0.009  0.149  0.498
  0.168  0.177  0.007  0.506  0.142
    occupations:
  0.957  0.000  0.000  0.000  0.000
  0.000  0.702  0.000 -0.066  0.174
  0.000  0.000  0.701  0.174  0.067
  0.000 -0.066  0.174  0.823  0.000
  0.000  0.174  0.067  0.000  0.823
atom    2   Tr[ns(na)] =   8.08125
    eigenvalues: 
  0.572  0.573  0.965  0.965  0.966
    eigenvectors:
  0.000  0.000  0.952  0.003  0.045
  0.235  0.421  0.011  0.039  0.293
  0.421  0.235  0.005  0.304  0.035
  0.320  0.025  0.002  0.653  0.001
  0.025  0.320  0.030  0.000  0.625
    occupations:
  0.965  0.000  0.000  0.000  0.000
  0.000  0.708  0.000  0.068  0.174
  0.000  0.000  0.708  0.174 -0.067
  0.000  0.068  0.174  0.830  0.000
  0.000  0.174 -0.067  0.000  0.830
atom    3   Tr[ns(na)] =   3.80035
    eigenvalues: 
  0.356  0.356  0.383  0.403  0.403
    eigenvectors:
  0.000  0.000  1.000  0.000  0.000
  0.692  0.229  0.000  0.015  0.063
  0.229  0.692  0.000  0.063  0.015
  0.020  0.059  0.000  0.735  0.186
  0.058  0.020  0.000  0.186  0.735
    occupations:
  0.383  0.000  0.000  0.000  0.000
  0.000  0.359  0.000  0.000  0.013
  0.000  0.000  0.359  0.013  0.000
  0.000  0.000  0.013  0.399  0.000
  0.000  0.013  0.000  0.000  0.399
atom    4   Tr[ns(na)] =   3.80033
    eigenvalues: 
  0.356  0.356  0.383  0.403  0.403
    eigenvectors:
  0.000  0.000  1.000  0.000  0.000
  0.284  0.637  0.000  0.018  0.062
  0.638  0.283  0.000  0.061  0.019
  0.054  0.025  0.000  0.704  0.217
  0.025  0.055  0.000  0.218  0.702
    occupations:
  0.383  0.000  0.000  0.000  0.000
  0.000  0.359  0.000  0.000  0.013
  0.000  0.000  0.359  0.013  0.000
  0.000  0.000  0.013  0.399  0.000
  0.000  0.013  0.000  0.000  0.399
atom    5   Tr[ns(na)] =   5.42236
    eigenvalues: 
  0.841  0.928  0.942
    eigenvectors:
  0.340  0.000  0.660
  0.493  0.254  0.254
  0.168  0.746  0.086
    occupations:
  0.908 -0.041  0.024
 -0.041  0.889  0.023
  0.024  0.023  0.915
atom    6   Tr[ns(na)] =   5.43179
    eigenvalues: 
  0.844  0.929  0.943
    eigenvectors:
  0.340  0.000  0.660
  0.497  0.248  0.255
  0.163  0.752  0.085
    occupations:
  0.909  0.041  0.023
  0.041  0.890 -0.022
  0.023 -0.022  0.916
atom    7   Tr[ns(na)] =   5.43179
    eigenvalues: 
  0.844  0.929  0.943
    eigenvectors:
  0.340  0.000  0.660
  0.000  1.000  0.000
  0.660  0.000  0.340
    occupations:
  0.909  0.000 -0.047
  0.000  0.929  0.000
 -0.047  0.000  0.877
atom    8   Tr[ns(na)] =   5.43125
    eigenvalues: 
  0.844  0.929  0.943
    eigenvectors:
  0.339  0.000  0.661
  0.493  0.254  0.253
  0.168  0.746  0.086
    occupations:
  0.909 -0.040  0.024
 -0.040  0.890  0.023
  0.024  0.023  0.916
atom    9   Tr[ns(na)] =   5.43185
    eigenvalues: 
  0.844  0.929  0.943
    eigenvectors:
  0.339  0.000  0.661
  0.498  0.247  0.255
  0.162  0.753  0.084
    occupations:
  0.909  0.041  0.023
  0.041  0.890 -0.022
  0.023 -0.022  0.917
atom   10   Tr[ns(na)] =   5.43185
    eigenvalues: 
  0.844  0.929  0.943
    eigenvectors:
  0.339  0.000  0.661
  0.000  1.000  0.000
  0.661  0.000  0.339
    occupations:
  0.909  0.000 -0.047
  0.000  0.929  0.000
 -0.047  0.000  0.877
N of occupied +U levels =  56.2742852
 --- exit write_ns ---
 --- in v_hubbard ---
Hubbard energy    0.1493
 -------

     total cpu time spent up to now is      182.1 secs

     total energy              =    -538.18114108 Ry
     Harris-Foulkes estimate   =    -538.18135593 Ry
     estimated scf accuracy    <       0.00329959 Ry

     iteration #  5     ecut=    30.00 Ry     beta=0.20
     Davidson diagonalization with overlap
     ethr =  1.57E-06,  avg # of iterations =  1.0
 --- enter write_ns ---
 LDA+U parameters:
U( 1)     =  1.00000000
alpha( 1) =  0.00000000
U( 2)     =  0.00000000
alpha( 2) =  0.00000000
U( 3)     =  0.00000000
alpha( 3) =  0.15000000
U( 4)     =  0.00000000
alpha( 4) =  0.00000000
atom    1   Tr[ns(na)] =   8.04882
    eigenvalues: 
  0.569  0.570  0.961  0.962  0.962
    eigenvectors:
  0.000  0.000  0.968  0.002  0.030
  0.102  0.554  0.009  0.135  0.200
  0.554  0.103  0.002  0.208  0.133
  0.175  0.169  0.011  0.164  0.481
  0.169  0.175  0.010  0.491  0.155
    occupations:
  0.961  0.000  0.000  0.000  0.000
  0.000  0.705  0.000 -0.067  0.174
  0.000  0.000  0.704  0.174  0.068
  0.000 -0.067  0.174  0.827  0.000
  0.000  0.174  0.068  0.000  0.827
atom    2   Tr[ns(na)] =   8.04428
    eigenvalues: 
  0.567  0.568  0.961  0.963  0.963
    eigenvectors:
  0.000  0.000  0.975  0.001  0.023
  0.234  0.423  0.006  0.042  0.296
  0.423  0.233  0.003  0.302  0.040
  0.319  0.025  0.001  0.655  0.000
  0.025  0.319  0.015  0.000  0.641
    occupations:
  0.961  0.000  0.000  0.000  0.000
  0.000  0.704  0.000  0.067  0.175
  0.000  0.000  0.704  0.175 -0.067
  0.000  0.067  0.175  0.827  0.000
  0.000  0.175 -0.067  0.000  0.827
atom    3   Tr[ns(na)] =   3.80022
    eigenvalues: 
  0.356  0.356  0.383  0.403  0.403
    eigenvectors:
  0.000  0.000  1.000  0.000  0.000
  0.693  0.229  0.000  0.005  0.073
  0.229  0.693  0.000  0.073  0.005
  0.020  0.058  0.000  0.853  0.069
  0.058  0.020  0.000  0.069  0.853
    occupations:
  0.383  0.000  0.000  0.000  0.000
  0.000  0.359  0.000  0.000  0.013
  0.000  0.000  0.359  0.013  0.000
  0.000  0.000  0.013  0.399  0.000
  0.000  0.013  0.000  0.000  0.399
atom    4   Tr[ns(na)] =   3.80020
    eigenvalues: 
  0.356  0.356  0.383  0.403  0.403
    eigenvectors:
  0.000  0.000  1.000  0.000  0.000
  0.263  0.658  0.000  0.019  0.061
  0.659  0.262  0.000  0.059  0.019
  0.055  0.023  0.000  0.692  0.230
  0.023  0.057  0.000  0.230  0.690
    occupations:
  0.383  0.000  0.000  0.000  0.000
  0.000  0.359  0.000  0.000  0.013
  0.000  0.000  0.359  0.013  0.000
  0.000  0.000  0.013  0.399  0.000
  0.000  0.013  0.000  0.000  0.399
atom    5   Tr[ns(na)] =   5.42218
    eigenvalues: 
  0.841  0.928  0.942
    eigenvectors:
  0.340  0.000  0.660
  0.496  0.250  0.254
  0.164  0.750  0.085
    occupations:
  0.908 -0.041  0.024
 -0.041  0.889  0.023
  0.024  0.023  0.915
atom    6   Tr[ns(na)] =   5.43171
    eigenvalues: 
  0.844  0.929  0.943
    eigenvectors:
  0.340  0.000  0.660
  0.494  0.252  0.254
  0.166  0.748  0.086
    occupations:
  0.909  0.041  0.024
  0.041  0.890 -0.023
  0.024 -0.023  0.916
atom    7   Tr[ns(na)] =   5.43172
    eigenvalues: 
  0.844  0.929  0.943
    eigenvectors:
  0.340  0.000  0.660
  0.000  1.000  0.000
  0.660  0.000  0.340
    occupations:
  0.909  0.000 -0.047
  0.000  0.929  0.000
 -0.047  0.000  0.877
atom    8   Tr[ns(na)] =   5.43158
    eigenvalues: 
  0.844  0.929  0.943
    eigenvectors:
  0.339  0.000  0.661
  0.496  0.250  0.254
  0.165  0.750  0.085
    occupations:
  0.909 -0.041  0.023
 -0.041  0.890  0.022
  0.023  0.022  0.916
atom    9   Tr[ns(na)] =   5.43169
    eigenvalues: 
  0.844  0.929  0.943
    eigenvectors:
  0.339  0.000  0.661
  0.495  0.251  0.254
  0.166  0.749  0.085
    occupations:
  0.909  0.041  0.023
  0.041  0.890 -0.022
  0.023 -0.022  0.916
atom   10   Tr[ns(na)] =   5.43168
    eigenvalues: 
  0.844  0.929  0.943
    eigenvectors:
  0.339  0.000  0.661
  0.000  1.000  0.000
  0.661  0.000  0.339
    occupations:
  0.909  0.000 -0.047
  0.000  0.929  0.000
 -0.047  0.000  0.877
N of occupied +U levels =  56.2740605
 --- exit write_ns ---
 --- in v_hubbard ---
Hubbard energy    0.1481
 -------

     total cpu time spent up to now is      207.6 secs

     total energy              =    -538.18125715 Ry
     Harris-Foulkes estimate   =    -538.18126506 Ry
     estimated scf accuracy    <       0.00005872 Ry

     iteration #  6     ecut=    30.00 Ry     beta=0.20
     Davidson diagonalization with overlap
     ethr =  7.73E-08,  avg # of iterations =  1.0
 --- enter write_ns ---
 LDA+U parameters:
U( 1)     =  1.00000000
alpha( 1) =  0.00000000
U( 2)     =  0.00000000
alpha( 2) =  0.00000000
U( 3)     =  0.00000000
alpha( 3) =  0.15000000
U( 4)     =  0.00000000
alpha( 4) =  0.00000000
atom    1   Tr[ns(na)] =   8.04630
    eigenvalues: 
  0.569  0.570  0.961  0.962  0.962
    eigenvectors:
  0.000  0.000  0.965  0.002  0.034
  0.102  0.554  0.010  0.130  0.204
  0.554  0.102  0.002  0.213  0.128
  0.175  0.169  0.012  0.172  0.472
  0.169  0.175  0.011  0.483  0.162
    occupations:
  0.961  0.000  0.000  0.000  0.000
  0.000  0.705  0.000 -0.067  0.174
  0.000  0.000  0.704  0.174  0.068
  0.000 -0.067  0.174  0.827  0.000
  0.000  0.174  0.068  0.000  0.827
atom    2   Tr[ns(na)] =   8.04496
    eigenvalues: 
  0.567  0.568  0.961  0.963  0.963
    eigenvectors:
  0.000  0.000  0.972  0.001  0.027
  0.234  0.423  0.007  0.045  0.292
  0.422  0.234  0.003  0.298  0.043
  0.319  0.025  0.001  0.655  0.000
  0.025  0.319  0.018  0.000  0.639
    occupations:
  0.961  0.000  0.000  0.000  0.000
  0.000  0.704  0.000  0.067  0.175
  0.000  0.000  0.704  0.175 -0.067
  0.000  0.067  0.175  0.827  0.000
  0.000  0.175 -0.067  0.000  0.827
atom    3   Tr[ns(na)] =   3.80028
    eigenvalues: 
  0.356  0.356  0.383  0.403  0.403
    eigenvectors:
  0.000  0.000  1.000  0.000  0.000
  0.693  0.229  0.000  0.011  0.067
  0.229  0.693  0.000  0.067  0.011
  0.020  0.058  0.000  0.787  0.135
  0.058  0.020  0.000  0.135  0.787
    occupations:
  0.383  0.000  0.000  0.000  0.000
  0.000  0.359  0.000  0.000  0.013
  0.000  0.000  0.359  0.013  0.000
  0.000  0.000  0.013  0.399  0.000
  0.000  0.013  0.000  0.000  0.399
atom    4   Tr[ns(na)] =   3.80024
    eigenvalues: 
  0.356  0.356  0.383  0.403  0.403
    eigenvectors:
  0.000  0.000  1.000  0.000  0.000
  0.464  0.456  0.000  0.019  0.061
  0.458  0.464  0.000  0.060  0.019
  0.038  0.041  0.000  0.695  0.226
  0.040  0.039  0.000  0.226  0.694
    occupations:
  0.383  0.000  0.000  0.000  0.000
  0.000  0.359  0.000  0.000  0.013
  0.000  0.000  0.359  0.013  0.000
  0.000  0.000  0.013  0.399  0.000
  0.000  0.013  0.000  0.000  0.399
atom    5   Tr[ns(na)] =   5.42251
    eigenvalues: 
  0.841  0.928  0.942
    eigenvectors:
  0.340  0.000  0.660
  0.496  0.250  0.254
  0.165  0.750  0.085
    occupations:
  0.908 -0.041  0.024
 -0.041  0.889  0.023
  0.024  0.023  0.915
atom    6   Tr[ns(na)] =   5.43197
    eigenvalues: 
  0.844  0.929  0.943
    eigenvectors:
  0.340  0.000  0.660
  0.494  0.252  0.254
  0.166  0.748  0.086
    occupations:
  0.909  0.041  0.023
  0.041  0.890 -0.022
  0.023 -0.022  0.916
atom    7   Tr[ns(na)] =   5.43197
    eigenvalues: 
  0.844  0.929  0.943
    eigenvectors:
  0.340  0.000  0.660
  0.000  1.000  0.000
  0.660  0.000  0.340
    occupations:
  0.909  0.000 -0.047
  0.000  0.929  0.000
 -0.047  0.000  0.877
atom    8   Tr[ns(na)] =   5.43155
    eigenvalues: 
  0.844  0.929  0.943
    eigenvectors:
  0.339  0.000  0.661
  0.496  0.250  0.254
  0.165  0.750  0.085
    occupations:
  0.909 -0.041  0.023
 -0.041  0.890  0.022
  0.023  0.022  0.916
atom    9   Tr[ns(na)] =   5.43204
    eigenvalues: 
  0.844  0.929  0.943
    eigenvectors:
  0.339  0.000  0.661
  0.495  0.251  0.254
  0.165  0.749  0.085
    occupations:
  0.909  0.041  0.023
  0.041  0.890 -0.022
  0.023 -0.022  0.916
atom   10   Tr[ns(na)] =   5.43203
    eigenvalues: 
  0.844  0.929  0.943
    eigenvectors:
  0.339  0.000  0.661
  0.000  1.000  0.000
  0.661  0.000  0.339
    occupations:
  0.909  0.000 -0.047
  0.000  0.929  0.000
 -0.047  0.000  0.877
N of occupied +U levels =  56.2738485
 --- exit write_ns ---
 --- in v_hubbard ---
Hubbard energy    0.1480
 -------

     total cpu time spent up to now is      234.2 secs

     total energy              =    -538.18126812 Ry
     Harris-Foulkes estimate   =    -538.18125866 Ry
     estimated scf accuracy    <       0.00000242 Ry

     iteration #  7     ecut=    30.00 Ry     beta=0.20
     Davidson diagonalization with overlap
     ethr =  3.18E-09,  avg # of iterations =  3.0
 --- enter write_ns ---
 LDA+U parameters:
U( 1)     =  1.00000000
alpha( 1) =  0.00000000
U( 2)     =  0.00000000
alpha( 2) =  0.00000000
U( 3)     =  0.00000000
alpha( 3) =  0.15000000
U( 4)     =  0.00000000
alpha( 4) =  0.00000000
atom    1   Tr[ns(na)] =   8.04608
    eigenvalues: 
  0.569  0.570  0.961  0.962  0.962
    eigenvectors:
  0.000  0.000  0.961  0.002  0.038
  0.102  0.553  0.011  0.131  0.202
  0.554  0.102  0.003  0.212  0.129
  0.175  0.169  0.014  0.170  0.472
  0.169  0.176  0.012  0.484  0.159
    occupations:
  0.961  0.000  0.000  0.000  0.000
  0.000  0.705  0.000 -0.067  0.174
  0.000  0.000  0.704  0.174  0.068
  0.000 -0.067  0.174  0.827  0.000
  0.000  0.174  0.068  0.000  0.827
atom    2   Tr[ns(na)] =   8.04531
    eigenvalues: 
  0.567  0.568  0.961  0.963  0.963
    eigenvectors:
  0.000  0.000  0.968  0.002  0.030
  0.234  0.422  0.007  0.045  0.292
  0.422  0.234  0.003  0.299  0.042
  0.319  0.025  0.001  0.655  0.000
  0.025  0.319  0.020  0.000  0.636
    occupations:
  0.961  0.000  0.000  0.000  0.000
  0.000  0.704  0.000  0.067  0.175
  0.000  0.000  0.704  0.175 -0.067
  0.000  0.067  0.175  0.827  0.000
  0.000  0.175 -0.067  0.000  0.827
atom    3   Tr[ns(na)] =   3.80042
    eigenvalues: 
  0.356  0.356  0.383  0.403  0.403
    eigenvectors:
  0.000  0.000  1.000  0.000  0.000
  0.692  0.230  0.000  0.009  0.069
  0.230  0.692  0.000  0.069  0.009
  0.020  0.058  0.000  0.807  0.114
  0.058  0.020  0.000  0.114  0.807
    occupations:
  0.383  0.000  0.000  0.000  0.000
  0.000  0.359  0.000  0.000  0.013
  0.000  0.000  0.359  0.013  0.000
  0.000  0.000  0.013  0.399  0.000
  0.000  0.013  0.000  0.000  0.399
atom    4   Tr[ns(na)] =   3.80039
    eigenvalues: 
  0.356  0.356  0.383  0.403  0.403
    eigenvectors:
  0.000  0.000  1.000  0.000  0.000
  0.771  0.150  0.000  0.019  0.060
  0.149  0.772  0.000  0.059  0.019
  0.014  0.065  0.000  0.690  0.231
  0.066  0.013  0.000  0.232  0.689
    occupations:
  0.383  0.000  0.000  0.000  0.000
  0.000  0.359  0.000  0.000  0.013
  0.000  0.000  0.359  0.013  0.000
  0.000  0.000  0.013  0.399  0.000
  0.000  0.013  0.000  0.000  0.399
atom    5   Tr[ns(na)] =   5.42253
    eigenvalues: 
  0.841  0.928  0.942
    eigenvectors:
  0.340  0.000  0.660
  0.496  0.250  0.254
  0.165  0.750  0.085
    occupations:
  0.908 -0.041  0.024
 -0.041  0.889  0.023
  0.024  0.023  0.915
atom    6   Tr[ns(na)] =   5.43193
    eigenvalues: 
  0.844  0.929  0.943
    eigenvectors:
  0.340  0.000  0.660
  0.494  0.251  0.254
  0.166  0.749  0.086
    occupations:
  0.909  0.041  0.023
  0.041  0.890 -0.022
  0.023 -0.022  0.916
atom    7   Tr[ns(na)] =   5.43193
    eigenvalues: 
  0.844  0.929  0.943
    eigenvectors:
  0.340  0.000  0.660
  0.000  1.000  0.000
  0.660  0.000  0.340
    occupations:
  0.909  0.000 -0.047
  0.000  0.929  0.000
 -0.047  0.000  0.877
atom    8   Tr[ns(na)] =   5.43138
    eigenvalues: 
  0.844  0.929  0.943
    eigenvectors:
  0.339  0.000  0.661
  0.496  0.250  0.254
  0.165  0.750  0.085
    occupations:
  0.909 -0.041  0.023
 -0.041  0.890  0.022
  0.023  0.022  0.916
atom    9   Tr[ns(na)] =   5.43201
    eigenvalues: 
  0.844  0.929  0.943
    eigenvectors:
  0.339  0.000  0.661
  0.495  0.251  0.254
  0.165  0.749  0.085
    occupations:
  0.909  0.041  0.023
  0.041  0.890 -0.022
  0.023 -0.022  0.916
atom   10   Tr[ns(na)] =   5.43201
    eigenvalues: 
  0.844  0.929  0.943
    eigenvectors:
  0.339  0.000  0.661
  0.000  1.000  0.000
  0.661  0.000  0.339
    occupations:
  0.909  0.000 -0.047
  0.000  0.929  0.000
 -0.047  0.000  0.877
N of occupied +U levels =  56.2740037
 --- exit write_ns ---
 --- in v_hubbard ---
Hubbard energy    0.1480
 -------

     total cpu time spent up to now is      266.0 secs

     total energy              =    -538.18127547 Ry
     Harris-Foulkes estimate   =    -538.18126850 Ry
     estimated scf accuracy    <       0.00000038 Ry

     iteration #  8     ecut=    30.00 Ry     beta=0.20
     Davidson diagonalization with overlap
     ethr =  4.95E-10,  avg # of iterations =  2.0
 --- enter write_ns ---
 LDA+U parameters:
U( 1)     =  1.00000000
alpha( 1) =  0.00000000
U( 2)     =  0.00000000
alpha( 2) =  0.00000000
U( 3)     =  0.00000000
alpha( 3) =  0.15000000
U( 4)     =  0.00000000
alpha( 4) =  0.00000000
atom    1   Tr[ns(na)] =   8.04595
    eigenvalues: 
  0.569  0.570  0.961  0.962  0.962
    eigenvectors:
  0.000  0.000  0.960  0.002  0.038
  0.102  0.553  0.011  0.133  0.201
  0.554  0.102  0.003  0.211  0.130
  0.175  0.169  0.014  0.168  0.474
  0.169  0.176  0.012  0.486  0.157
    occupations:
  0.961  0.000  0.000  0.000  0.000
  0.000  0.705  0.000 -0.067  0.174
  0.000  0.000  0.704  0.174  0.068
  0.000 -0.067  0.174  0.827  0.000
  0.000  0.174  0.068  0.000  0.827
atom    2   Tr[ns(na)] =   8.04536
    eigenvalues: 
  0.567  0.568  0.961  0.963  0.963
    eigenvectors:
  0.000  0.000  0.968  0.002  0.031
  0.234  0.422  0.008  0.044  0.292
  0.421  0.234  0.003  0.300  0.041
  0.319  0.025  0.001  0.655  0.000
  0.025  0.319  0.020  0.000  0.636
    occupations:
  0.961  0.000  0.000  0.000  0.000
  0.000  0.704  0.000  0.067  0.175
  0.000  0.000  0.704  0.175 -0.067
  0.000  0.067  0.175  0.827  0.000
  0.000  0.175 -0.067  0.000  0.827
atom    3   Tr[ns(na)] =   3.80044
    eigenvalues: 
  0.356  0.356  0.383  0.403  0.403
    eigenvectors:
  0.000  0.000  1.000  0.000  0.000
  0.692  0.230  0.000  0.009  0.069
  0.230  0.692  0.000  0.069  0.009
  0.020  0.058  0.000  0.813  0.108
  0.058  0.020  0.000  0.108  0.813
    occupations:
  0.383  0.000  0.000  0.000  0.000
  0.000  0.359  0.000  0.000  0.013
  0.000  0.000  0.359  0.013  0.000
  0.000  0.000  0.013  0.399  0.000
  0.000  0.013  0.000  0.000  0.399
atom    4   Tr[ns(na)] =   3.80040
    eigenvalues: 
  0.356  0.356  0.383  0.403  0.403
    eigenvectors:
  0.000  0.000  1.000  0.000  0.000
  0.792  0.129  0.000  0.019  0.060
  0.129  0.793  0.000  0.059  0.019
  0.012  0.067  0.000  0.689  0.232
  0.068  0.011  0.000  0.232  0.688
    occupations:
  0.383  0.000  0.000  0.000  0.000
  0.000  0.359  0.000  0.000  0.013
  0.000  0.000  0.359  0.013  0.000
  0.000  0.000  0.013  0.399  0.000
  0.000  0.013  0.000  0.000  0.399
atom    5   Tr[ns(na)] =   5.42248
    eigenvalues: 
  0.841  0.928  0.942
    eigenvectors:
  0.340  0.000  0.660
  0.496  0.250  0.254
  0.165  0.750  0.085
    occupations:
  0.908 -0.041  0.024
 -0.041  0.889  0.023
  0.024  0.023  0.915
atom    6   Tr[ns(na)] =   5.43194
    eigenvalues: 
  0.844  0.929  0.943
    eigenvectors:
  0.340  0.000  0.660
  0.494  0.251  0.254
  0.166  0.749  0.086
    occupations:
  0.909  0.041  0.023
  0.041  0.891 -0.022
  0.023 -0.022  0.916
atom    7   Tr[ns(na)] =   5.43195
    eigenvalues: 
  0.844  0.929  0.943
    eigenvectors:
  0.340  0.000  0.660
  0.000  1.000  0.000
  0.660  0.000  0.340
    occupations:
  0.909  0.000 -0.047
  0.000  0.929  0.000
 -0.047  0.000  0.877
atom    8   Tr[ns(na)] =   5.43145
    eigenvalues: 
  0.844  0.929  0.943
    eigenvectors:
  0.339  0.000  0.660
  0.496  0.250  0.254
  0.165  0.750  0.085
    occupations:
  0.909 -0.041  0.023
 -0.041  0.890  0.022
  0.023  0.022  0.916
atom    9   Tr[ns(na)] =   5.43202
    eigenvalues: 
  0.844  0.929  0.943
    eigenvectors:
  0.339  0.000  0.661
  0.495  0.250  0.254
  0.165  0.750  0.085
    occupations:
  0.909  0.041  0.023
  0.041  0.890 -0.022
  0.023 -0.022  0.916
atom   10   Tr[ns(na)] =   5.43202
    eigenvalues: 
  0.844  0.929  0.943
    eigenvectors:
  0.339  0.000  0.661
  0.000  1.000  0.000
  0.661  0.000  0.339
    occupations:
  0.909  0.000 -0.047
  0.000  0.929  0.000
 -0.047  0.000  0.877
N of occupied +U levels =  56.2740089
 --- exit write_ns ---
 --- in v_hubbard ---
Hubbard energy    0.1480
 -------

     total cpu time spent up to now is      293.2 secs

     total energy              =    -538.18128031 Ry
     Harris-Foulkes estimate   =    -538.18127551 Ry
     estimated scf accuracy    <       0.00000009 Ry

     iteration #  9     ecut=    30.00 Ry     beta=0.20
     Davidson diagonalization with overlap
     ethr =  1.15E-10,  avg # of iterations =  2.0
 --- enter write_ns ---
 LDA+U parameters:
U( 1)     =  1.00000000
alpha( 1) =  0.00000000
U( 2)     =  0.00000000
alpha( 2) =  0.00000000
U( 3)     =  0.00000000
alpha( 3) =  0.15000000
U( 4)     =  0.00000000
alpha( 4) =  0.00000000
atom    1   Tr[ns(na)] =   8.04615
    eigenvalues: 
  0.569  0.570  0.961  0.962  0.962
    eigenvectors:
  0.000  0.000  0.960  0.002  0.038
  0.102  0.554  0.011  0.134  0.200
  0.554  0.102  0.003  0.210  0.131
  0.175  0.168  0.014  0.166  0.476
  0.169  0.176  0.012  0.488  0.155
    occupations:
  0.961  0.000  0.000  0.000  0.000
  0.000  0.705  0.000 -0.067  0.174
  0.000  0.000  0.704  0.174  0.068
  0.000 -0.067  0.174  0.827  0.000
  0.000  0.174  0.068  0.000  0.827
atom    2   Tr[ns(na)] =   8.04531
    eigenvalues: 
  0.567  0.568  0.961  0.963  0.963
    eigenvectors:
  0.000  0.000  0.968  0.002  0.030
  0.234  0.422  0.008  0.043  0.293
  0.421  0.234  0.003  0.300  0.041
  0.319  0.025  0.001  0.655  0.000
  0.025  0.319  0.020  0.000  0.636
    occupations:
  0.961  0.000  0.000  0.000  0.000
  0.000  0.704  0.000  0.067  0.175
  0.000  0.000  0.704  0.175 -0.067
  0.000  0.067  0.175  0.827  0.000
  0.000  0.175 -0.067  0.000  0.827
atom    3   Tr[ns(na)] =   3.80039
    eigenvalues: 
  0.356  0.356  0.383  0.403  0.403
    eigenvectors:
  0.000  0.000  1.000  0.000  0.000
  0.692  0.230  0.000  0.008  0.071
  0.230  0.692  0.000  0.071  0.008
  0.020  0.058  0.000  0.827  0.095
  0.058  0.020  0.000  0.095  0.827
    occupations:
  0.383  0.000  0.000  0.000  0.000
  0.000  0.359  0.000  0.000  0.013
  0.000  0.000  0.359  0.013  0.000
  0.000  0.000  0.013  0.399  0.000
  0.000  0.013  0.000  0.000  0.399
atom    4   Tr[ns(na)] =   3.80036
    eigenvalues: 
  0.356  0.356  0.383  0.403  0.403
    eigenvectors:
  0.000  0.000  1.000  0.000  0.000
  0.788  0.133  0.000  0.019  0.060
  0.132  0.789  0.000  0.059  0.020
  0.012  0.067  0.000  0.689  0.233
  0.068  0.012  0.000  0.233  0.687
    occupations:
  0.383  0.000  0.000  0.000  0.000
  0.000  0.359  0.000  0.000  0.013
  0.000  0.000  0.359  0.013  0.000
  0.000  0.000  0.013  0.399  0.000
  0.000  0.013  0.000  0.000  0.399
atom    5   Tr[ns(na)] =   5.42248
    eigenvalues: 
  0.841  0.928  0.942
    eigenvectors:
  0.340  0.000  0.660
  0.496  0.250  0.254
  0.165  0.750  0.085
    occupations:
  0.908 -0.041  0.024
 -0.041  0.889  0.023
  0.024  0.023  0.915
atom    6   Tr[ns(na)] =   5.43193
    eigenvalues: 
  0.844  0.929  0.943
    eigenvectors:
  0.340  0.000  0.660
  0.494  0.251  0.254
  0.166  0.749  0.086
    occupations:
  0.909  0.041  0.023
  0.041  0.891 -0.022
  0.023 -0.022  0.916
atom    7   Tr[ns(na)] =   5.43193
    eigenvalues: 
  0.844  0.929  0.943
    eigenvectors:
  0.340  0.000  0.660
  0.000  1.000  0.000
  0.660  0.000  0.340
    occupations:
  0.909  0.000 -0.047
  0.000  0.929  0.000
 -0.047  0.000  0.877
atom    8   Tr[ns(na)] =   5.43144
    eigenvalues: 
  0.844  0.929  0.943
    eigenvectors:
  0.339  0.000  0.661
  0.496  0.250  0.254
  0.165  0.750  0.085
    occupations:
  0.909 -0.041  0.023
 -0.041  0.890  0.022
  0.023  0.022  0.916
atom    9   Tr[ns(na)] =   5.43200
    eigenvalues: 
  0.844  0.929  0.943
    eigenvectors:
  0.339  0.000  0.661
  0.495  0.251  0.254
  0.165  0.749  0.085
    occupations:
  0.909  0.041  0.023
  0.041  0.890 -0.022
  0.023 -0.022  0.916
atom   10   Tr[ns(na)] =   5.43200
    eigenvalues: 
  0.844  0.929  0.943
    eigenvectors:
  0.339  0.000  0.661
  0.000  1.000  0.000
  0.661  0.000  0.339
    occupations:
  0.909  0.000 -0.047
  0.000  0.929  0.000
 -0.047  0.000  0.877
N of occupied +U levels =  56.2739901
 --- exit write_ns ---
 --- in v_hubbard ---
Hubbard energy    0.1480
 -------

     total cpu time spent up to now is      318.3 secs

     total energy              =    -538.18128338 Ry
     Harris-Foulkes estimate   =    -538.18128032 Ry
     estimated scf accuracy    <       0.00000002 Ry

     iteration # 10     ecut=    30.00 Ry     beta=0.20
     Davidson diagonalization with overlap
     ethr =  2.34E-11,  avg # of iterations =  2.0
 --- enter write_ns ---
 LDA+U parameters:
U( 1)     =  1.00000000
alpha( 1) =  0.00000000
U( 2)     =  0.00000000
alpha( 2) =  0.00000000
U( 3)     =  0.00000000
alpha( 3) =  0.15000000
U( 4)     =  0.00000000
alpha( 4) =  0.00000000
atom    1   Tr[ns(na)] =   8.04604
    eigenvalues: 
  0.569  0.570  0.961  0.962  0.962
    eigenvectors:
  0.000  0.000  0.960  0.002  0.038
  0.102  0.554  0.011  0.134  0.200
  0.554  0.102  0.003  0.210  0.131
  0.175  0.168  0.014  0.166  0.476
  0.169  0.176  0.012  0.488  0.155
    occupations:
  0.961  0.000  0.000  0.000  0.000
  0.000  0.705  0.000 -0.067  0.174
  0.000  0.000  0.704  0.174  0.068
  0.000 -0.067  0.174  0.827  0.000
  0.000  0.174  0.068  0.000  0.827
atom    2   Tr[ns(na)] =   8.04535
    eigenvalues: 
  0.567  0.568  0.961  0.963  0.963
    eigenvectors:
  0.000  0.000  0.968  0.002  0.030
  0.234  0.422  0.008  0.043  0.293
  0.421  0.234  0.003  0.300  0.041
  0.319  0.025  0.001  0.655  0.000
  0.025  0.319  0.020  0.000  0.636
    occupations:
  0.961  0.000  0.000  0.000  0.000
  0.000  0.704  0.000  0.067  0.175
  0.000  0.000  0.704  0.175 -0.067
  0.000  0.067  0.175  0.827  0.000
  0.000  0.175 -0.067  0.000  0.827
atom    3   Tr[ns(na)] =   3.80038
    eigenvalues: 
  0.356  0.356  0.383  0.403  0.403
    eigenvectors:
  0.000  0.000  1.000  0.000  0.000
  0.692  0.230  0.000  0.008  0.070
  0.230  0.692  0.000  0.070  0.008
  0.020  0.058  0.000  0.825  0.097
  0.058  0.020  0.000  0.097  0.825
    occupations:
  0.383  0.000  0.000  0.000  0.000
  0.000  0.359  0.000  0.000  0.013
  0.000  0.000  0.359  0.013  0.000
  0.000  0.000  0.013  0.399  0.000
  0.000  0.013  0.000  0.000  0.399
atom    4   Tr[ns(na)] =   3.80034
    eigenvalues: 
  0.356  0.356  0.383  0.403  0.403
    eigenvectors:
  0.000  0.000  1.000  0.000  0.000
  0.782  0.139  0.000  0.019  0.060
  0.138  0.783  0.000  0.059  0.020
  0.013  0.066  0.000  0.689  0.233
  0.067  0.012  0.000  0.233  0.688
    occupations:
  0.383  0.000  0.000  0.000  0.000
  0.000  0.359  0.000  0.000  0.013
  0.000  0.000  0.359  0.013  0.000
  0.000  0.000  0.013  0.399  0.000
  0.000  0.013  0.000  0.000  0.399
atom    5   Tr[ns(na)] =   5.42249
    eigenvalues: 
  0.841  0.928  0.942
    eigenvectors:
  0.340  0.000  0.660
  0.496  0.250  0.254
  0.165  0.750  0.085
    occupations:
  0.908 -0.041  0.024
 -0.041  0.889  0.023
  0.024  0.023  0.915
atom    6   Tr[ns(na)] =   5.43195
    eigenvalues: 
  0.844  0.929  0.943
    eigenvectors:
  0.340  0.000  0.660
  0.494  0.251  0.254
  0.166  0.749  0.086
    occupations:
  0.909  0.041  0.023
  0.041  0.891 -0.022
  0.023 -0.022  0.916
atom    7   Tr[ns(na)] =   5.43195
    eigenvalues: 
  0.844  0.929  0.943
    eigenvectors:
  0.340  0.000  0.660
  0.000  1.000  0.000
  0.660  0.000  0.340
    occupations:
  0.909  0.000 -0.047
  0.000  0.929  0.000
 -0.047  0.000  0.877
atom    8   Tr[ns(na)] =   5.43145
    eigenvalues: 
  0.844  0.929  0.943
    eigenvectors:
  0.339  0.000  0.661
  0.496  0.250  0.254
  0.165  0.750  0.085
    occupations:
  0.909 -0.041  0.023
 -0.041  0.890  0.022
  0.023  0.022  0.916
atom    9   Tr[ns(na)] =   5.43202
    eigenvalues: 
  0.844  0.929  0.943
    eigenvectors:
  0.339  0.000  0.661
  0.495  0.251  0.254
  0.165  0.749  0.085
    occupations:
  0.909  0.041  0.023
  0.041  0.890 -0.022
  0.023 -0.022  0.916
atom   10   Tr[ns(na)] =   5.43202
    eigenvalues: 
  0.844  0.929  0.943
    eigenvectors:
  0.339  0.000  0.661
  0.000  1.000  0.000
  0.661  0.000  0.339
    occupations:
  0.909  0.000 -0.047
  0.000  0.929  0.000
 -0.047  0.000  0.877
N of occupied +U levels =  56.2739751
 --- exit write_ns ---
 --- in v_hubbard ---
Hubbard energy    0.1480
 -------

     total cpu time spent up to now is      345.2 secs

     End of self-consistent calculation

          k = 0.0000 0.0000 0.0000 (  2175 PWs)   bands (ev):

   -19.7962 -19.6225  -6.5492  -5.8583  -5.8164  -5.8142  -5.8136  -5.4827
    -3.7643  -3.2579  -3.2024  -3.1999  -3.0212  -3.0202   5.2226   6.9091
     6.9219   7.5344   7.5516   7.6625   7.6720   7.7205   7.7427   9.3144
     9.6296   9.6430   9.7690   9.8880   9.8938  10.3661  10.3674  10.4781
    10.4821  10.5737  10.6935  11.4349  11.4381  12.0030  12.1860  12.1893
    14.7830  14.7867  15.4261  15.4285  16.1960  16.7835

     occupation numbers 
     0.0313   0.0313   0.0313   0.0313   0.0313   0.0313   0.0313   0.0313
     0.0313   0.0313   0.0313   0.0313   0.0313   0.0313   0.0313   0.0313
     0.0313   0.0313   0.0313   0.0313   0.0313   0.0313   0.0313   0.0313
     0.0313   0.0313   0.0312   0.0312   0.0312   0.0312   0.0312   0.0312
     0.0312   0.0312   0.0312   0.0307   0.0307   0.0174   0.0097   0.0096
     0.0000   0.0000   0.0000   0.0000   0.0000   0.0000

          k =-0.2471-0.1427 0.1027 (  2181 PWs)   bands (ev):

   -19.7682 -19.6481  -6.7277  -6.2882  -5.9392  -5.8441  -5.6103  -5.4772
    -3.5777  -3.3823  -2.9251  -2.8994  -2.8411  -2.7546   5.5827   6.8980
     7.0133   7.0342   7.2315   7.5081   7.5602   7.7113   7.7280   8.5614
     8.6399   9.2596   9.6770   9.7912   9.8380  10.0348  10.3852  10.3988
    10.7963  10.8164  10.9235  11.6997  11.7545  11.8064  12.3503  12.4140
    14.3292  14.3362  15.8162  16.0691  16.9719  17.2661

     occupation numbers 
     0.0625   0.0625   0.0625   0.0625   0.0625   0.0625   0.0625   0.0625
     0.0625   0.0625   0.0625   0.0625   0.0625   0.0625   0.0625   0.0625
     0.0625   0.0625   0.0625   0.0625   0.0625   0.0625   0.0625   0.0625
     0.0625   0.0625   0.0625   0.0625   0.0625   0.0625   0.0625   0.0625
     0.0625   0.0625   0.0625   0.0552   0.0526   0.0496   0.0090   0.0062
     0.0000   0.0000   0.0000   0.0000   0.0000   0.0000

          k = 0.4942 0.2853-0.2053 (  2202 PWs)   bands (ev):

   -19.7080 -19.7061  -6.7343  -6.7062  -5.9674  -5.9447  -5.5290  -5.5085
    -3.3743  -3.3677  -2.7846  -2.7818  -2.5070  -2.5010   6.0827   6.1132
     7.2102   7.2319   7.2727   7.2957   7.5993   7.6213   7.8704   7.9061
     8.0834   8.1209   9.5258   9.5354   9.8815   9.8963  10.2946  10.3060
    11.2310  11.2376  11.3314  11.3382  11.5206  11.5308  13.3082  13.3412
    13.3955  13.4237  16.8346  16.8379  17.1315  17.1351

     occupation numbers 
     0.0313   0.0313   0.0313   0.0313   0.0313   0.0313   0.0313   0.0313
     0.0313   0.0313   0.0313   0.0313   0.0313   0.0313   0.0313   0.0313
     0.0313   0.0313   0.0313   0.0313   0.0313   0.0313   0.0313   0.0313
     0.0313   0.0313   0.0313   0.0313   0.0312   0.0312   0.0312   0.0312
     0.0312   0.0312   0.0310   0.0310   0.0302   0.0301   0.0000   0.0000
     0.0000   0.0000   0.0000   0.0000   0.0000   0.0000

          k =-0.2471 0.1427 0.2053 (  2195 PWs)   bands (ev):

   -19.7635 -19.6529  -6.8434  -6.2268  -6.0562  -5.8499  -5.6623  -5.4454
    -3.4012  -3.2555  -3.0924  -2.8817  -2.8067  -2.5552   5.6022   6.8621
     6.9069   6.9729   7.2535   7.4871   7.5023   7.7381   7.7482   8.6592
     8.8109   8.8633   9.3014   9.7849   9.9868  10.0834  10.1822  10.2936
    10.3776  11.2136  11.3119  11.3372  11.7317  11.8043  12.0724  12.7530
    13.6518  14.7987  15.9918  16.1926  17.0332  17.5367

     occupation numbers 
     0.0625   0.0625   0.0625   0.0625   0.0625   0.0625   0.0625   0.0625
     0.0625   0.0625   0.0625   0.0625   0.0625   0.0625   0.0625   0.0625
     0.0625   0.0625   0.0625   0.0625   0.0625   0.0625   0.0625   0.0625
     0.0625   0.0625   0.0625   0.0625   0.0625   0.0625   0.0625   0.0625
     0.0625   0.0624   0.0621   0.0620   0.0537   0.0497   0.0287   0.0004
     0.0000   0.0000   0.0000   0.0000   0.0000   0.0000

          k = 0.4942 0.5706-0.1027 (  2198 PWs)   bands (ev):

   -19.7251 -19.6886  -6.9436  -6.6476  -6.1178  -5.9103  -5.5174  -5.3684
    -3.2940  -3.2456  -2.8723  -2.7007  -2.5221  -2.3785   5.9176   6.2956
     6.7627   7.0102   7.2210   7.3493   7.5390   7.7454   7.8426   7.9980
     8.2986   8.8706   9.1317   9.3506   9.6522   9.8326   9.9679  10.3665
    10.8570  11.3240  11.4239  11.4948  11.6284  11.6766  12.3369  12.7542
    13.4456  14.3751  16.9034  17.1136  17.3097  18.0155

     occupation numbers 
     0.0625   0.0625   0.0625   0.0625   0.0625   0.0625   0.0625   0.0625
     0.0625   0.0625   0.0625   0.0625   0.0625   0.0625   0.0625   0.0625
     0.0625   0.0625   0.0625   0.0625   0.0625   0.0625   0.0625   0.0625
     0.0625   0.0625   0.0625   0.0625   0.0625   0.0625   0.0625   0.0625
     0.0625   0.0621   0.0615   0.0607   0.0578   0.0561   0.0096   0.0004
     0.0000   0.0000   0.0000   0.0000   0.0000   0.0000

          k = 0.2471 0.4280 0.0000 (  2203 PWs)   bands (ev):

   -19.7345 -19.6792  -6.8514  -6.6260  -6.0692  -5.9660  -5.4272  -5.3710
    -3.5017  -3.2864  -2.7934  -2.7099  -2.5644  -2.5512   5.9224   6.3237
     6.9972   7.1226   7.2150   7.3072   7.4749   7.6290   7.7258   8.0832
     8.3230   8.9599   9.3422   9.4560   9.7798   9.8022  10.0803  10.3726
    11.1701  11.2085  11.2181  11.4474  11.4758  11.7757  12.2705  13.3352
    13.4083  14.1753  16.4368  16.9900  17.4182  17.9268

     occupation numbers 
     0.0625   0.0625   0.0625   0.0625   0.0625   0.0625   0.0625   0.0625
     0.0625   0.0625   0.0625   0.0625   0.0625   0.0625   0.0625   0.0625
     0.0625   0.0625   0.0625   0.0625   0.0625   0.0625   0.0625   0.0625
     0.0625   0.0625   0.0625   0.0625   0.0625   0.0625   0.0625   0.0625
     0.0624   0.0624   0.0624   0.0613   0.0610   0.0514   0.0135   0.0000
     0.0000   0.0000   0.0000   0.0000   0.0000   0.0000

          k = 0.4942-0.2853-0.4107 (  2202 PWs)   bands (ev):

   -19.7304 -19.6829  -7.1526  -6.4492  -6.2265  -5.9888  -5.5443  -5.2743
    -3.1840  -3.1179  -3.0353  -2.6429  -2.4746  -2.2161   5.8126   6.3083
     6.3277   6.9009   7.1608   7.2673   7.7537   7.8086   8.1759   8.3585
     8.4696   8.5017   8.6053   9.4555   9.6978  10.0530  10.0813  10.3024
    10.4451  11.1610  11.3680  11.5389  11.6627  11.8021  11.9836  12.4526
    13.3469  14.8113  17.0395  17.2636  17.5175  17.6074

     occupation numbers 
     0.0313   0.0313   0.0313   0.0313   0.0313   0.0313   0.0313   0.0313
     0.0313   0.0313   0.0313   0.0313   0.0313   0.0313   0.0313   0.0313
     0.0313   0.0313   0.0313   0.0313   0.0313   0.0313   0.0313   0.0313
     0.0313   0.0313   0.0313   0.0313   0.0312   0.0312   0.0312   0.0312
     0.0312   0.0312   0.0309   0.0300   0.0283   0.0249   0.0182   0.0024
     0.0000   0.0000   0.0000   0.0000   0.0000   0.0000

          k = 0.0000 0.0000 0.3080 (  2187 PWs)   bands (ev):

   -19.7680 -19.6482  -6.6157  -5.9862  -5.9326  -5.9132  -5.8430  -5.8272
    -3.1942  -3.1041  -3.1005  -2.9631  -2.8921  -2.8891   5.6390   7.0072
     7.0203   7.1614   7.3717   7.4354   7.4516   7.7218   7.7292   8.7933
     8.8001   9.3536   9.4576   9.6420   9.6583   9.8367  10.1395  10.1545
    10.9239  10.9261  11.0247  11.7219  11.7238  11.8160  12.3252  12.3278
    14.2879  14.2916  15.9088  15.9116  16.8787  17.4815

     occupation numbers 
     0.0625   0.0625   0.0625   0.0625   0.0625   0.0625   0.0625   0.0625
     0.0625   0.0625   0.0625   0.0625   0.0625   0.0625   0.0625   0.0625
     0.0625   0.0625   0.0625   0.0625   0.0625   0.0625   0.0625   0.0625
     0.0625   0.0625   0.0625   0.0625   0.0625   0.0625   0.0625   0.0625
     0.0625   0.0625   0.0625   0.0542   0.0541   0.0490   0.0103   0.0101
     0.0000   0.0000   0.0000   0.0000   0.0000   0.0000

          k = 0.7412 0.4280 0.0000 (  2204 PWs)   bands (ev):

   -19.7343 -19.6792  -6.7303  -6.6035  -6.1407  -5.8268  -5.6737  -5.5489
    -3.1645  -3.0828  -3.0400  -2.6698  -2.6494  -2.5806   5.9449   6.5278
     6.9994   7.1723   7.2317   7.3313   7.4501   7.5956   7.8860   8.0507
     8.3712   8.8392   9.3534   9.4926   9.6131   9.7016   9.8655  10.2386
    11.1691  11.2244  11.2985  11.5109  11.5136  11.6771  12.2755  13.2614
    13.3268  14.1949  16.6887  16.7228  17.5917  17.7942

     occupation numbers 
     0.0625   0.0625   0.0625   0.0625   0.0625   0.0625   0.0625   0.0625
     0.0625   0.0625   0.0625   0.0625   0.0625   0.0625   0.0625   0.0625
     0.0625   0.0625   0.0625   0.0625   0.0625   0.0625   0.0625   0.0625
     0.0625   0.0625   0.0625   0.0625   0.0625   0.0625   0.0625   0.0625
     0.0624   0.0624   0.0622   0.0605   0.0604   0.0561   0.0131   0.0000
     0.0000   0.0000   0.0000   0.0000   0.0000   0.0000

          k = 0.4942 0.2853 0.1027 (  2211 PWs)   bands (ev):

   -19.7240 -19.6878  -6.9754  -6.5406  -6.3205  -5.6926  -5.6164  -5.3581
    -3.3086  -3.1593  -3.0227  -2.6003  -2.5564  -2.3756   5.9667   6.2451
     6.7373   7.0120   7.2452   7.2813   7.5515   7.7841   7.8938   7.9718
     8.3176   8.9853   9.1173   9.4176   9.5320   9.6775  10.0273  10.3933
    10.8759  11.3705  11.5019  11.5065  11.5672  11.5855  12.2915  12.7708
    13.4855  14.3596  16.8853  16.9342  17.5814  17.9280

     occupation numbers 
     0.0625   0.0625   0.0625   0.0625   0.0625   0.0625   0.0625   0.0625
     0.0625   0.0625   0.0625   0.0625   0.0625   0.0625   0.0625   0.0625
     0.0625   0.0625   0.0625   0.0625   0.0625   0.0625   0.0625   0.0625
     0.0625   0.0625   0.0625   0.0625   0.0625   0.0625   0.0625   0.0625
     0.0625   0.0619   0.0606   0.0605   0.0594   0.0590   0.0122   0.0004
     0.0000   0.0000   0.0000   0.0000   0.0000   0.0000

          k = 0.7412-0.4280-0.3080 (  2210 PWs)   bands (ev):

   -19.7250 -19.6886  -6.8954  -6.4532  -6.2944  -5.8173  -5.7563  -5.4689
    -3.0629  -3.0442  -2.9597  -2.7222  -2.6151  -2.4214   6.0090   6.4113
     6.7968   6.9861   7.2543   7.2818   7.5854   7.8097   7.9297   8.0082
     8.3086   8.9599   8.9925   9.5291   9.5465   9.5602   9.6763  10.2183
    10.9439  11.3897  11.4891  11.4945  11.6163  11.6537  12.2482  12.7199
    13.4395  14.3262  17.0590  17.0673  17.5511  17.9030

     occupation numbers 
     0.0625   0.0625   0.0625   0.0625   0.0625   0.0625   0.0625   0.0625
     0.0625   0.0625   0.0625   0.0625   0.0625   0.0625   0.0625   0.0625
     0.0625   0.0625   0.0625   0.0625   0.0625   0.0625   0.0625   0.0625
     0.0625   0.0625   0.0625   0.0625   0.0625   0.0625   0.0625   0.0625
     0.0625   0.0618   0.0608   0.0607   0.0582   0.0570   0.0149   0.0006
     0.0000   0.0000   0.0000   0.0000   0.0000   0.0000

          k = 0.4942-0.5706-0.2053 (  2206 PWs)   bands (ev):

   -19.7062 -19.7057  -6.8856  -6.8662  -6.0551  -6.0221  -5.4313  -5.4118
    -3.1461  -3.1455  -2.8102  -2.8051  -2.3800  -2.3757   6.0964   6.1256
     6.9089   6.9240   7.1259   7.1330   7.4202   7.4385   8.0808   8.1236
     8.8089   8.8312   8.9993   9.0166   9.5554   9.5719  10.1029  10.1140
    11.1620  11.1629  11.3819  11.3836  11.6651  11.6721  12.3128  12.3155
    14.0193  14.0292  17.4274  17.4298  17.8652  17.8699

     occupation numbers 
     0.0625   0.0625   0.0625   0.0625   0.0625   0.0625   0.0625   0.0625
     0.0625   0.0625   0.0625   0.0625   0.0625   0.0625   0.0625   0.0625
     0.0625   0.0625   0.0625   0.0625   0.0625   0.0625   0.0625   0.0625
     0.0625   0.0625   0.0625   0.0625   0.0625   0.0625   0.0625   0.0625
     0.0624   0.0624   0.0618   0.0618   0.0566   0.0563   0.0109   0.0108
     0.0000   0.0000   0.0000   0.0000   0.0000   0.0000

          k = 0.0000 0.0000-0.6160 (  2186 PWs)   bands (ev):

   -19.7079 -19.7059  -6.5211  -6.4913  -5.9654  -5.9265  -5.9245  -5.9229
    -2.8892  -2.8818  -2.8808  -2.8796  -2.7072  -2.7026   6.3081   6.3407
     7.2136   7.2194   7.2310   7.2569   7.7513   7.7880   7.9999   8.0020
     8.0335   8.0360   9.6449   9.6463   9.6585   9.6684   9.7130   9.7382
    11.3867  11.3942  11.4414  11.4434  11.4492  11.4540  13.2485  13.2513
    13.2782  13.2824  17.1156  17.1170  17.1185  17.1217

     occupation numbers 
     0.0313   0.0313   0.0313   0.0313   0.0313   0.0313   0.0313   0.0313
     0.0313   0.0313   0.0313   0.0313   0.0313   0.0313   0.0313   0.0313
     0.0313   0.0313   0.0313   0.0313   0.0313   0.0313   0.0313   0.0313
     0.0313   0.0313   0.0313   0.0313   0.0312   0.0312   0.0312   0.0312
     0.0309   0.0309   0.0307   0.0307   0.0306   0.0306   0.0000   0.0000
     0.0000   0.0000   0.0000   0.0000   0.0000   0.0000

          k =-0.2471 0.1427-0.1027 (  2181 PWs)   bands (ev):

   -19.7682 -19.6481  -6.7275  -6.2879  -5.9372  -5.8485  -5.6107  -5.4744
    -3.5796  -3.3813  -2.9259  -2.8986  -2.8401  -2.7556   5.5839   6.9010
     7.0212   7.0252   7.2306   7.4974   7.5667   7.7177   7.7239   8.5581
     8.6460   9.2552   9.6678   9.8010   9.8378  10.0380  10.3822  10.4006
    10.7957  10.8186  10.9219  11.6989  11.7549  11.8056  12.3481  12.4162
    14.3268  14.3385  15.8146  16.0717  16.9727  17.2679

     occupation numbers 
     0.0625   0.0625   0.0625   0.0625   0.0625   0.0625   0.0625   0.0625
     0.0625   0.0625   0.0625   0.0625   0.0625   0.0625   0.0625   0.0625
     0.0625   0.0625   0.0625   0.0625   0.0625   0.0625   0.0625   0.0625
     0.0625   0.0625   0.0625   0.0625   0.0625   0.0625   0.0625   0.0625
     0.0625   0.0625   0.0625   0.0552   0.0526   0.0497   0.0091   0.0061
     0.0000   0.0000   0.0000   0.0000   0.0000   0.0000

          k = 0.0000 0.2853 0.1027 (  2181 PWs)   bands (ev):

   -19.7682 -19.6481  -6.7276  -6.2883  -5.9388  -5.8445  -5.6106  -5.4769
    -3.5777  -3.3823  -2.9252  -2.8992  -2.8411  -2.7547   5.5827   6.8980
     7.0131   7.0345   7.2313   7.5078   7.5603   7.7129   7.7267   8.5617
     8.6396   9.2596   9.6773   9.7912   9.8378  10.0350  10.3865  10.3975
    10.7962  10.8165  10.9236  11.6997  11.7546  11.8063  12.3503  12.4140
    14.3291  14.3363  15.8162  16.0691  16.9719  17.2660

     occupation numbers 
     0.0625   0.0625   0.0625   0.0625   0.0625   0.0625   0.0625   0.0625
     0.0625   0.0625   0.0625   0.0625   0.0625   0.0625   0.0625   0.0625
     0.0625   0.0625   0.0625   0.0625   0.0625   0.0625   0.0625   0.0625
     0.0625   0.0625   0.0625   0.0625   0.0625   0.0625   0.0625   0.0625
     0.0625   0.0625   0.0625   0.0552   0.0526   0.0496   0.0090   0.0062
     0.0000   0.0000   0.0000   0.0000   0.0000   0.0000

          k = 0.4942-0.2853 0.2053 (  2202 PWs)   bands (ev):

   -19.7081 -19.7060  -6.7335  -6.7065  -5.9676  -5.9458  -5.5285  -5.5076
    -3.3731  -3.3703  -2.7849  -2.7805  -2.5069  -2.5016   6.0824   6.1170
     7.2135   7.2383   7.2721   7.2947   7.5865   7.6123   7.8771   7.9131
     8.0857   8.1155   9.5217   9.5288   9.8829   9.9115  10.2896  10.3054
    11.2323  11.2378  11.3318  11.3391  11.5195  11.5281  13.3076  13.3381
    13.3955  13.4272  16.8332  16.8382  17.1336  17.1377

     occupation numbers 
     0.0313   0.0313   0.0313   0.0313   0.0313   0.0313   0.0313   0.0313
     0.0313   0.0313   0.0313   0.0313   0.0313   0.0313   0.0313   0.0313
     0.0313   0.0313   0.0313   0.0313   0.0313   0.0313   0.0313   0.0313
     0.0313   0.0313   0.0313   0.0313   0.0312   0.0312   0.0312   0.0312
     0.0312   0.0312   0.0310   0.0310   0.0302   0.0301   0.0000   0.0000
     0.0000   0.0000   0.0000   0.0000   0.0000   0.0000

          k = 0.0000-0.5706-0.2053 (  2202 PWs)   bands (ev):

   -19.7080 -19.7061  -6.7333  -6.7073  -5.9654  -5.9466  -5.5315  -5.5060
    -3.3716  -3.3704  -2.7862  -2.7801  -2.5067  -2.5013   6.0826   6.1132
     7.2174   7.2255   7.2694   7.2982   7.5883   7.6323   7.8776   7.8989
     8.0924   8.1118   9.5288   9.5328   9.8811   9.8966  10.2949  10.3057
    11.2319  11.2366  11.3304  11.3391  11.5228  11.5286  13.3103  13.3392
    13.3930  13.4261  16.8318  16.8407  17.1302  17.1363

     occupation numbers 
     0.0313   0.0313   0.0313   0.0313   0.0313   0.0313   0.0313   0.0313
     0.0313   0.0313   0.0313   0.0313   0.0313   0.0313   0.0313   0.0313
     0.0313   0.0313   0.0313   0.0313   0.0313   0.0313   0.0313   0.0313
     0.0313   0.0313   0.0313   0.0313   0.0312   0.0312   0.0312   0.0312
     0.0312   0.0312   0.0310   0.0310   0.0301   0.0301   0.0000   0.0000
     0.0000   0.0000   0.0000   0.0000   0.0000   0.0000

          k =-0.2471-0.1427-0.2053 (  2195 PWs)   bands (ev):

   -19.7624 -19.6521  -6.8570  -6.2312  -6.0668  -5.8190  -5.6498  -5.4597
    -3.4018  -3.2555  -3.0928  -2.8852  -2.8087  -2.5578   5.6172   6.8390
     6.9167   6.9904   7.2465   7.4874   7.5185   7.7311   7.7534   8.6559
     8.7919   8.8617   9.3151   9.7724   9.9884  10.0827  10.1922  10.3066
    10.3748  11.2054  11.3101  11.3278  11.7316  11.8063  12.0744  12.7482
    13.6511  14.8015  15.9911  16.1939  17.0371  17.5380

     occupation numbers 
     0.0625   0.0625   0.0625   0.0625   0.0625   0.0625   0.0625   0.0625
     0.0625   0.0625   0.0625   0.0625   0.0625   0.0625   0.0625   0.0625
     0.0625   0.0625   0.0625   0.0625   0.0625   0.0625   0.0625   0.0625
     0.0625   0.0625   0.0625   0.0625   0.0625   0.0625   0.0625   0.0625
     0.0625   0.0624   0.0622   0.0621   0.0537   0.0496   0.0286   0.0005
     0.0000   0.0000   0.0000   0.0000   0.0000   0.0000

          k = 0.0000-0.2853 0.2053 (  2195 PWs)   bands (ev):

   -19.7624 -19.6521  -6.8569  -6.2314  -6.0666  -5.8191  -5.6498  -5.4597
    -3.4018  -3.2555  -3.0928  -2.8851  -2.8088  -2.5578   5.6172   6.8390
     6.9166   6.9905   7.2466   7.4862   7.5197   7.7308   7.7536   8.6557
     8.7924   8.8614   9.3151   9.7723   9.9884  10.0828  10.1922  10.3066
    10.3748  11.2054  11.3103  11.3277  11.7315  11.8063  12.0744  12.7482
    13.6511  14.8015  15.9911  16.1939  17.0371  17.5379

     occupation numbers 
     0.0625   0.0625   0.0625   0.0625   0.0625   0.0625   0.0625   0.0625
     0.0625   0.0625   0.0625   0.0625   0.0625   0.0625   0.0625   0.0625
     0.0625   0.0625   0.0625   0.0625   0.0625   0.0625   0.0625   0.0625
     0.0625   0.0625   0.0625   0.0625   0.0625   0.0625   0.0625   0.0625
     0.0625   0.0624   0.0622   0.0621   0.0537   0.0496   0.0286   0.0005
     0.0000   0.0000   0.0000   0.0000   0.0000   0.0000

          k = 0.4942-0.5706 0.1027 (  2198 PWs)   bands (ev):

   -19.7239 -19.6880  -6.9597  -6.6422  -6.1325  -5.8807  -5.5079  -5.3822
    -3.2962  -3.2461  -2.8702  -2.7038  -2.5241  -2.3820   5.9347   6.2786
     6.7788   7.0193   7.2327   7.3665   7.5317   7.7358   7.8271   8.0171
     8.2785   8.8838   9.1120   9.3401   9.6598   9.8260   9.9644  10.3768
    10.8592  11.3190  11.4274  11.4983  11.6294  11.6673  12.3383  12.7547
    13.4396  14.3778  16.9053  17.1138  17.3111  18.0159

     occupation numbers 
     0.0625   0.0625   0.0625   0.0625   0.0625   0.0625   0.0625   0.0625
     0.0625   0.0625   0.0625   0.0625   0.0625   0.0625   0.0625   0.0625
     0.0625   0.0625   0.0625   0.0625   0.0625   0.0625   0.0625   0.0625
     0.0625   0.0625   0.0625   0.0625   0.0625   0.0625   0.0625   0.0625
     0.0625   0.0621   0.0615   0.0607   0.0578   0.0565   0.0096   0.0004
     0.0000   0.0000   0.0000   0.0000   0.0000   0.0000

          k =-0.7412 0.1427-0.1027 (  2198 PWs)   bands (ev):

   -19.7239 -19.6880  -6.9593  -6.6431  -6.1313  -5.8816  -5.5070  -5.3830
    -3.2954  -3.2462  -2.8700  -2.7049  -2.5234  -2.3824   5.9363   6.2761
     6.7825   7.0188   7.2269   7.3692   7.5269   7.7405   7.8457   7.9951
     8.2829   8.8778   9.1167   9.3413   9.6619   9.8249   9.9648  10.3753
    10.8598  11.3198  11.4245  11.4989  11.6279  11.6695  12.3387  12.7549
    13.4397  14.3780  16.9034  17.1166  17.3105  18.0158

     occupation numbers 
     0.0625   0.0625   0.0625   0.0625   0.0625   0.0625   0.0625   0.0625
     0.0625   0.0625   0.0625   0.0625   0.0625   0.0625   0.0625   0.0625
     0.0625   0.0625   0.0625   0.0625   0.0625   0.0625   0.0625   0.0625
     0.0625   0.0625   0.0625   0.0625   0.0625   0.0625   0.0625   0.0625
     0.0625   0.0621   0.0615   0.0606   0.0578   0.0564   0.0096   0.0004
     0.0000   0.0000   0.0000   0.0000   0.0000   0.0000

          k = 0.2471-0.7133-0.1027 (  2198 PWs)   bands (ev):

   -19.7239 -19.6880  -6.9597  -6.6424  -6.1328  -5.8803  -5.5059  -5.3846
    -3.2952  -3.2461  -2.8706  -2.7035  -2.5236  -2.3828   5.9354   6.2756
     6.7805   7.0212   7.2293   7.3665   7.5259   7.7373   7.8489   7.9982
     8.2817   8.8773   9.1185   9.3446   9.6548   9.8294   9.9620  10.3763
    10.8599  11.3214  11.4239  11.4937  11.6312  11.6709  12.3385  12.7550
    13.4397  14.3780  16.9056  17.1132  17.3103  18.0144

     occupation numbers 
     0.0625   0.0625   0.0625   0.0625   0.0625   0.0625   0.0625   0.0625
     0.0625   0.0625   0.0625   0.0625   0.0625   0.0625   0.0625   0.0625
     0.0625   0.0625   0.0625   0.0625   0.0625   0.0625   0.0625   0.0625
     0.0625   0.0625   0.0625   0.0625   0.0625   0.0625   0.0625   0.0625
     0.0625   0.0621   0.0615   0.0607   0.0577   0.0563   0.0096   0.0004
     0.0000   0.0000   0.0000   0.0000   0.0000   0.0000

          k =-0.7412-0.1427 0.1027 (  2198 PWs)   bands (ev):

   -19.7239 -19.6880  -6.9602  -6.6415  -6.1338  -5.8794  -5.5069  -5.3839
    -3.2960  -3.2459  -2.8708  -2.7025  -2.5242  -2.3824   5.9338   6.2782
     6.7770   7.0217   7.2349   7.3637   7.5305   7.7331   7.8302   8.0200
     8.2774   8.8832   9.1138   9.3432   9.6529   9.8305   9.9616  10.3777
    10.8593  11.3206  11.4267  11.4931  11.6328  11.6687  12.3382  12.7547
    13.4396  14.3778  16.9075  17.1104  17.3109  18.0146

     occupation numbers 
     0.0625   0.0625   0.0625   0.0625   0.0625   0.0625   0.0625   0.0625
     0.0625   0.0625   0.0625   0.0625   0.0625   0.0625   0.0625   0.0625
     0.0625   0.0625   0.0625   0.0625   0.0625   0.0625   0.0625   0.0625
     0.0625   0.0625   0.0625   0.0625   0.0625   0.0625   0.0625   0.0625
     0.0625   0.0621   0.0615   0.0607   0.0577   0.0564   0.0096   0.0004
     0.0000   0.0000   0.0000   0.0000   0.0000   0.0000

          k = 0.2471 0.7133 0.1027 (  2198 PWs)   bands (ev):

   -19.7251 -19.6886  -6.9441  -6.6466  -6.1191  -5.9093  -5.5183  -5.3677
    -3.2948  -3.2455  -2.8725  -2.6997  -2.5227  -2.3782   5.9162   6.2981
     6.7589   7.0108   7.2266   7.3465   7.5438   7.7408   7.8253   8.0183
     8.2945   8.8764   9.1273   9.3496   9.6503   9.8333   9.9676  10.3680
    10.8564  11.3232  11.4266  11.4943  11.6301  11.6744  12.3366  12.7540
    13.4455  14.3749  16.9052  17.1108  17.3103  18.0155

     occupation numbers 
     0.0625   0.0625   0.0625   0.0625   0.0625   0.0625   0.0625   0.0625
     0.0625   0.0625   0.0625   0.0625   0.0625   0.0625   0.0625   0.0625
     0.0625   0.0625   0.0625   0.0625   0.0625   0.0625   0.0625   0.0625
     0.0625   0.0625   0.0625   0.0625   0.0625   0.0625   0.0625   0.0625
     0.0625   0.0621   0.0615   0.0607   0.0577   0.0562   0.0097   0.0004
     0.0000   0.0000   0.0000   0.0000   0.0000   0.0000

          k = 0.2471-0.4280 0.0000 (  2203 PWs)   bands (ev):

   -19.7347 -19.6790  -6.8445  -6.6408  -6.0389  -5.9824  -5.4430  -5.3612
    -3.5039  -3.2865  -2.7966  -2.7032  -2.5629  -2.5540   5.9066   6.3347
     6.9882   7.1253   7.2282   7.3168   7.4601   7.6413   7.7182   8.0969
     8.3373   8.9413   9.3358   9.4291   9.7845   9.8087  10.0792  10.3776
    11.1738  11.2104  11.2212  11.4506  11.4767  11.7686  12.2703  13.3377
    13.4112  14.1705  16.4359  16.9930  17.4215  17.9257

     occupation numbers 
     0.0625   0.0625   0.0625   0.0625   0.0625   0.0625   0.0625   0.0625
     0.0625   0.0625   0.0625   0.0625   0.0625   0.0625   0.0625   0.0625
     0.0625   0.0625   0.0625   0.0625   0.0625   0.0625   0.0625   0.0625
     0.0625   0.0625   0.0625   0.0625   0.0625   0.0625   0.0625   0.0625
     0.0624   0.0624   0.0624   0.0612   0.0609   0.0518   0.0135   0.0000
     0.0000   0.0000   0.0000   0.0000   0.0000   0.0000

          k =-0.4942 0.0000 0.0000 (  2203 PWs)   bands (ev):

   -19.7347 -19.6790  -6.8444  -6.6408  -6.0387  -5.9825  -5.4431  -5.3613
    -3.5039  -3.2864  -2.7966  -2.7032  -2.5625  -2.5544   5.9067   6.3347
     6.9883   7.1261   7.2258   7.3184   7.4602   7.6416   7.7180   8.0967
     8.3373   8.9413   9.3358   9.4291   9.7849   9.8081  10.0794  10.3776
    11.1738  11.2103  11.2212  11.4507  11.4768  11.7686  12.2703  13.3377
    13.4112  14.1705  16.4359  16.9930  17.4214  17.9249

     occupation numbers 
     0.0625   0.0625   0.0625   0.0625   0.0625   0.0625   0.0625   0.0625
     0.0625   0.0625   0.0625   0.0625   0.0625   0.0625   0.0625   0.0625
     0.0625   0.0625   0.0625   0.0625   0.0625   0.0625   0.0625   0.0625
     0.0625   0.0625   0.0625   0.0625   0.0625   0.0625   0.0625   0.0625
     0.0624   0.0624   0.0624   0.0612   0.0609   0.0518   0.0135   0.0000
     0.0000   0.0000   0.0000   0.0000   0.0000   0.0000

          k = 0.4942 0.2853 0.4107 (  2202 PWs)   bands (ev):

   -19.7281 -19.6814  -7.1707  -6.4558  -6.2435  -5.9514  -5.5230  -5.2918
    -3.1850  -3.1192  -3.0358  -2.6491  -2.4782  -2.2210   5.8364   6.2977
     6.3298   6.9102   7.1810   7.2898   7.7658   7.8229   8.1796   8.3256
     8.4459   8.4764   8.6317   9.4242   9.6905  10.0504  10.0909  10.3020
    10.4573  11.1613  11.3645  11.5416  11.6649  11.7933  11.9854  12.4534
    13.3396  14.8142  17.0412  17.2646  17.5211  17.6101

     occupation numbers 
     0.0313   0.0313   0.0313   0.0313   0.0313   0.0313   0.0313   0.0313
     0.0313   0.0313   0.0313   0.0313   0.0313   0.0313   0.0313   0.0313
     0.0313   0.0313   0.0313   0.0313   0.0313   0.0313   0.0313   0.0313
     0.0313   0.0313   0.0313   0.0313   0.0312   0.0312   0.0312   0.0312
     0.0312   0.0312   0.0310   0.0300   0.0283   0.0252   0.0181   0.0024
     0.0000   0.0000   0.0000   0.0000   0.0000   0.0000

          k = 0.0000 0.5706-0.4107 (  2202 PWs)   bands (ev):

   -19.7281 -19.6814  -7.1707  -6.4560  -6.2433  -5.9514  -5.5231  -5.2918
    -3.1851  -3.1192  -3.0357  -2.6491  -2.4782  -2.2210   5.8364   6.2977
     6.3298   6.9102   7.1810   7.2898   7.7649   7.8237   8.1799   8.3253
     8.4458   8.4764   8.6318   9.4243   9.6904  10.0507  10.0908  10.3020
    10.4573  11.1613  11.3645  11.5415  11.6649  11.7934  11.9853  12.4534
    13.3396  14.8142  17.0412  17.2647  17.5211  17.6101

     occupation numbers 
     0.0313   0.0313   0.0313   0.0313   0.0313   0.0313   0.0313   0.0313
     0.0313   0.0313   0.0313   0.0313   0.0313   0.0313   0.0313   0.0313
     0.0313   0.0313   0.0313   0.0313   0.0313   0.0313   0.0313   0.0313
     0.0313   0.0313   0.0313   0.0313   0.0312   0.0312   0.0312   0.0312
     0.0312   0.0312   0.0310   0.0300   0.0283   0.0252   0.0181   0.0024
     0.0000   0.0000   0.0000   0.0000   0.0000   0.0000

          k = 0.7412-0.4280 0.0000 (  2204 PWs)   bands (ev):

   -19.7342 -19.6794  -6.7370  -6.5902  -6.1490  -5.8333  -5.6787  -5.5347
    -3.1624  -3.0831  -3.0399  -2.6742  -2.6517  -2.5771   5.9641   6.5147
     7.0106   7.1676   7.2204   7.3204   7.4647   7.5888   7.8853   8.0363
     8.3575   8.8594   9.3605   9.5133   9.6129   9.6984   9.8662  10.2322
    11.1658  11.2209  11.2962  11.5092  11.5120  11.6816  12.2763  13.2590
    13.3237  14.1996  16.6911  16.7213  17.5895  17.7937

     occupation numbers 
     0.0625   0.0625   0.0625   0.0625   0.0625   0.0625   0.0625   0.0625
     0.0625   0.0625   0.0625   0.0625   0.0625   0.0625   0.0625   0.0625
     0.0625   0.0625   0.0625   0.0625   0.0625   0.0625   0.0625   0.0625
     0.0625   0.0625   0.0625   0.0625   0.0625   0.0625   0.0625   0.0625
     0.0624   0.0624   0.0622   0.0605   0.0604   0.0559   0.0131   0.0000
     0.0000   0.0000   0.0000   0.0000   0.0000   0.0000

          k = 0.0000-0.8559 0.0000 (  2204 PWs)   bands (ev):

   -19.7343 -19.6792  -6.7304  -6.6034  -6.1407  -5.8269  -5.6738  -5.5487
    -3.1644  -3.0828  -3.0400  -2.6698  -2.6494  -2.5806   5.9449   6.5277
     6.9994   7.1716   7.2340   7.3297   7.4501   7.5956   7.8858   8.0511
     8.3712   8.8392   9.3534   9.4926   9.6135   9.7012   9.8657  10.2385
    11.1691  11.2244  11.2986  11.5108  11.5137  11.6771  12.2755  13.2614
    13.3268  14.1949  16.6887  16.7229  17.5917  17.7942

     occupation numbers 
     0.0625   0.0625   0.0625   0.0625   0.0625   0.0625   0.0625   0.0625
     0.0625   0.0625   0.0625   0.0625   0.0625   0.0625   0.0625   0.0625
     0.0625   0.0625   0.0625   0.0625   0.0625   0.0625   0.0625   0.0625
     0.0625   0.0625   0.0625   0.0625   0.0625   0.0625   0.0625   0.0625
     0.0624   0.0624   0.0622   0.0605   0.0604   0.0561   0.0131   0.0000
     0.0000   0.0000   0.0000   0.0000   0.0000   0.0000

          k = 0.4942-0.2853-0.1027 (  2211 PWs)   bands (ev):

   -19.7253 -19.6885  -6.9603  -6.5448  -6.3185  -5.7079  -5.6270  -5.3445
    -3.3083  -3.1591  -3.0223  -2.5974  -2.5563  -2.3715   5.9493   6.2662
     6.7188   7.0038   7.2335   7.2727   7.5556   7.7882   7.8891   7.9790
     8.3323   8.9744   9.1302   9.4128   9.5243   9.7036  10.0316  10.3815
    10.8725  11.3722  11.5044  11.5088  11.5650  11.5868  12.2900  12.7702
    13.4914  14.3566  16.8845  16.9346  17.5822  17.9276

     occupation numbers 
     0.0625   0.0625   0.0625   0.0625   0.0625   0.0625   0.0625   0.0625
     0.0625   0.0625   0.0625   0.0625   0.0625   0.0625   0.0625   0.0625
     0.0625   0.0625   0.0625   0.0625   0.0625   0.0625   0.0625   0.0625
     0.0625   0.0625   0.0625   0.0625   0.0625   0.0625   0.0625   0.0625
     0.0625   0.0619   0.0606   0.0605   0.0594   0.0589   0.0123   0.0004
     0.0000   0.0000   0.0000   0.0000   0.0000   0.0000

          k = 0.0000-0.5706 0.1027 (  2211 PWs)   bands (ev):

   -19.7240 -19.6878  -6.9754  -6.5406  -6.3204  -5.6925  -5.6167  -5.3580
    -3.3086  -3.1593  -3.0227  -2.6002  -2.5565  -2.3756   5.9666   6.2452
     6.7372   7.0120   7.2463   7.2802   7.5512   7.7839   7.8937   7.9730
     8.3171   8.9853   9.1174   9.4177   9.5319   9.6775  10.0273  10.3932
    10.8759  11.3705  11.5010  11.5074  11.5674  11.5853  12.2915  12.7708
    13.4855  14.3596  16.8853  16.9342  17.5815  17.9280

     occupation numbers 
     0.0625   0.0625   0.0625   0.0625   0.0625   0.0625   0.0625   0.0625
     0.0625   0.0625   0.0625   0.0625   0.0625   0.0625   0.0625   0.0625
     0.0625   0.0625   0.0625   0.0625   0.0625   0.0625   0.0625   0.0625
     0.0625   0.0625   0.0625   0.0625   0.0625   0.0625   0.0625   0.0625
     0.0625   0.0619   0.0606   0.0605   0.0594   0.0590   0.0122   0.0004
     0.0000   0.0000   0.0000   0.0000   0.0000   0.0000

          k = 0.7412 0.4280 0.3080 (  2210 PWs)   bands (ev):

   -19.7238 -19.6879  -6.9120  -6.4484  -6.2990  -5.7895  -5.7524  -5.4850
    -3.0638  -3.0434  -2.9580  -2.7259  -2.6172  -2.4253   6.0286   6.3860
     6.8159   6.9956   7.2661   7.2967   7.5771   7.8026   7.9355   8.0051
     8.2935   8.9696   8.9805   9.5243   9.5442   9.5490   9.6743  10.2300
    10.9468  11.3859  11.4887  11.4962  11.6130  11.6532  12.2495  12.7206
    13.4338  14.3292  17.0599  17.0682  17.5498  17.9034

     occupation numbers 
     0.0625   0.0625   0.0625   0.0625   0.0625   0.0625   0.0625   0.0625
     0.0625   0.0625   0.0625   0.0625   0.0625   0.0625   0.0625   0.0625
     0.0625   0.0625   0.0625   0.0625   0.0625   0.0625   0.0625   0.0625
     0.0625   0.0625   0.0625   0.0625   0.0625   0.0625   0.0625   0.0625
     0.0625   0.0618   0.0608   0.0607   0.0582   0.0570   0.0148   0.0006
     0.0000   0.0000   0.0000   0.0000   0.0000   0.0000

          k = 0.0000 0.8559-0.3080 (  2210 PWs)   bands (ev):

   -19.7238 -19.6879  -6.9120  -6.4483  -6.2991  -5.7894  -5.7525  -5.4850
    -3.0638  -3.0434  -2.9580  -2.7259  -2.6173  -2.4253   6.0286   6.3860
     6.8160   6.9956   7.2657   7.2970   7.5770   7.8026   7.9385   8.0015
     8.2941   8.9718   8.9784   9.5242   9.5427   9.5504   9.6744  10.2299
    10.9468  11.3860  11.4875  11.4973  11.6130  11.6532  12.2495  12.7206
    13.4338  14.3292  17.0601  17.0681  17.5498  17.9034

     occupation numbers 
     0.0625   0.0625   0.0625   0.0625   0.0625   0.0625   0.0625   0.0625
     0.0625   0.0625   0.0625   0.0625   0.0625   0.0625   0.0625   0.0625
     0.0625   0.0625   0.0625   0.0625   0.0625   0.0625   0.0625   0.0625
     0.0625   0.0625   0.0625   0.0625   0.0625   0.0625   0.0625   0.0625
     0.0625   0.0618   0.0608   0.0607   0.0582   0.0570   0.0148   0.0006
     0.0000   0.0000   0.0000   0.0000   0.0000   0.0000

          k = 0.2471 0.7133-0.2053 (  2206 PWs)   bands (ev):

   -19.7062 -19.7057  -6.8854  -6.8665  -6.0549  -6.0224  -5.4313  -5.4118
    -3.1461  -3.1455  -2.8102  -2.8050  -2.3795  -2.3762   6.0964   6.1257
     6.9079   6.9250   7.1261   7.1327   7.4199   7.4388   8.0799   8.1245
     8.8096   8.8303   8.9991   9.0169   9.5568   9.5706  10.1031  10.1137
    11.1622  11.1627  11.3807  11.3849  11.6649  11.6723  12.3130  12.3153
    14.0192  14.0292  17.4271  17.4301  17.8670  17.8681

     occupation numbers 
     0.0625   0.0625   0.0625   0.0625   0.0625   0.0625   0.0625   0.0625
     0.0625   0.0625   0.0625   0.0625   0.0625   0.0625   0.0625   0.0625
     0.0625   0.0625   0.0625   0.0625   0.0625   0.0625   0.0625   0.0625
     0.0625   0.0625   0.0625   0.0625   0.0625   0.0625   0.0625   0.0625
     0.0624   0.0624   0.0618   0.0618   0.0566   0.0563   0.0109   0.0108
     0.0000   0.0000   0.0000   0.0000   0.0000   0.0000

          k =-0.7412-0.1427-0.2053 (  2206 PWs)   bands (ev):

   -19.7051 -19.7049  -6.9032  -6.8680  -6.0252  -6.0235  -5.4430  -5.4107
    -3.1479  -3.1458  -2.8062  -2.8049  -2.3894  -2.3756   6.0952   6.1188
     6.9254   6.9287   7.1250   7.1674   7.4387   7.4410   8.0725   8.1078
     8.8033   8.8069   9.0062   9.0079   9.5475   9.5512  10.1181  10.1187
    11.1678  11.1689  11.3812  11.3832  11.6646  11.6657  12.3128  12.3173
    14.0181  14.0282  17.4272  17.4281  17.8681  17.8707

     occupation numbers 
     0.0625   0.0625   0.0625   0.0625   0.0625   0.0625   0.0625   0.0625
     0.0625   0.0625   0.0625   0.0625   0.0625   0.0625   0.0625   0.0625
     0.0625   0.0625   0.0625   0.0625   0.0625   0.0625   0.0625   0.0625
     0.0625   0.0625   0.0625   0.0625   0.0625   0.0625   0.0625   0.0625
     0.0624   0.0624   0.0618   0.0618   0.0566   0.0565   0.0109   0.0107
     0.0000   0.0000   0.0000   0.0000   0.0000   0.0000

     the Fermi energy is    12.0431 ev

!    total energy              =    -538.18128892 Ry
     Harris-Foulkes estimate   =    -538.18128338 Ry
     estimated scf accuracy    <          2.2E-09 Ry

     The total energy is the sum of the following terms:

     one-electron contribution =     -32.91046742 Ry
     hartree contribution      =      83.63444921 Ry
     xc contribution           =    -199.57640126 Ry
     ewald contribution        =    -389.44315552 Ry
     Hubbard energy            =       0.14801715 Ry
     smearing contrib. (-TS)   =      -0.03373108 Ry

     convergence has been achieved in  10 iterations

     init_run     :      6.75s CPU      6.94s WALL (       1 calls)
     electrons    :    334.03s CPU    337.71s WALL (       1 calls)

     Called by init_run:
     wfcinit      :      0.00s CPU      0.00s WALL (       1 calls)
     potinit      :      0.27s CPU      0.30s WALL (       1 calls)

     Called by electrons:
     c_bands      :    257.76s CPU    260.95s WALL (      10 calls)
     sum_band     :     55.19s CPU     54.74s WALL (      10 calls)
     v_of_rho     :      2.86s CPU      2.88s WALL (      11 calls)
     v_h          :      0.16s CPU      0.16s WALL (      11 calls)
     v_xc         :      2.70s CPU      2.72s WALL (      11 calls)
     newd         :     19.21s CPU     19.31s WALL (      11 calls)
     mix_rho      :      0.26s CPU      0.27s WALL (      10 calls)

     Called by c_bands:
     init_us_2    :      2.56s CPU      2.56s WALL (     720 calls)
     cegterg      :    250.60s CPU    253.38s WALL (     360 calls)

     Called by sum_band:
     sum_band:bec :      0.27s CPU      0.27s WALL (     360 calls)
     addusdens    :     12.13s CPU     11.15s WALL (      10 calls)

     Called by *egterg:
     h_psi        :    179.04s CPU    180.65s WALL (    1530 calls)
     s_psi        :      9.73s CPU      9.75s WALL (    1530 calls)
     g_psi        :      0.87s CPU      0.84s WALL (    1170 calls)
     cdiaghg      :     26.59s CPU     27.01s WALL (    1494 calls)
     cegterg:over :     13.08s CPU     13.42s WALL (    1170 calls)
     cegterg:upda :      7.96s CPU      7.98s WALL (    1170 calls)
     cegterg:last :      4.78s CPU      4.79s WALL (     396 calls)

     Called by h_psi:
     h_psi:vloc   :    144.32s CPU    145.71s WALL (    1530 calls)
     h_psi:vnl    :     21.04s CPU     21.15s WALL (    1530 calls)
     add_vuspsi   :      9.84s CPU      9.84s WALL (    1530 calls)
     vhpsi        :     13.28s CPU     13.40s WALL (    1530 calls)

     General routines
     calbec       :     25.30s CPU     25.53s WALL (    3780 calls)
     fft          :      2.33s CPU      2.42s WALL (     171 calls)
     ffts         :      0.06s CPU      0.06s WALL (      21 calls)
     fftw         :    144.03s CPU    145.60s WALL (  100506 calls)
     interpolate  :      0.33s CPU      0.35s WALL (      21 calls)
     davcio       :      0.01s CPU      0.72s WALL (     756 calls)

     Parallel routines
     fft_scatter  :     44.06s CPU     45.44s WALL (  100698 calls)
     Hubbard U routines
     new_ns       :      2.45s CPU      2.78s WALL (      10 calls)
     vhpsi        :     13.28s CPU     13.40s WALL (    1530 calls)

     PWSCF        :  5m41.19s CPU     5m45.19s WALL


   This run was terminated on:  15:25: 2  11Nov2012            

=------------------------------------------------------------------------------=
