   JOB DONE.
=------------------------------------------------------------------------------=

     Program PWSCF v.5.0.1 starts on 11Nov2012 at 14:56:34 

     This program is part of the open-source Quantum ESPRESSO suite
     for quantum simulation of materials; please cite
         "P. Giannozzi et al., J. Phys.:Condens. Matter 21 395502 (2009);
          URL http://www.quantum-espresso.org", 
     in publications or presentations arising from this work. More details at
     http://www.quantum-espresso.org/quote.php

     Parallel version (MPI), running on     2 processors
     R & G space division:  proc/pool =    2

     Current dimensions of program PWSCF are:
     Max number of different atomic species (ntypx) = 10
     Max number of k-points (npk) =  40000
     Max angular momentum in pseudopotentials (lmaxx) =  3
     Reading input from CoLaO_U100_a-5.in
               file Co.pbe-nd-rrkjus.UPF: wavefunction(s)  4S 3D renormalized
               file O.pbe-rrkjus.UPF: wavefunction(s)  2S renormalized
               file O.pbe-rrkjus.UPF: wavefunction(s)  2S renormalized

     Subspace diagonalization in iterative solution of the eigenvalue problem:
     a serial algorithm will be used


     Parallelization info
     --------------------
     sticks:   dense  smooth     PW     G-vecs:    dense   smooth      PW
     Min        1112     444    131                34808     8786    1448
     Max        1113     445    132                34809     8787    1449
     Sum        2225     889    263                69617    17573    2897


     Title: 
     GGA + U, U = 1.000, alpha = -0.050                                         


     bravais-lattice index     =            5
     lattice parameter (alat)  =      10.3292  a.u.
     unit-cell volume          =     793.0599 (a.u.)^3
     number of atoms/cell      =           10
     number of atomic types    =            4
     number of electrons       =        76.00
     number of Kohn-Sham states=           46
     kinetic-energy cutoff     =      30.0000  Ry
     charge density cutoff     =     300.0000  Ry
     convergence threshold     =      1.0E-08
     mixing beta               =       0.2000
     number of iterations used =            8  plain     mixing
     Exchange-correlation      =  SLA  PW   PBE  PBE ( 1 4 3 4 0)
     EXX-fraction              =        0.00

     celldm(1)=  10.329242  celldm(2)=   0.000000  celldm(3)=   0.000000
     celldm(4)=   0.488100  celldm(5)=   0.000000  celldm(6)=   0.000000

     crystal axes: (cart. coord. in units of alat)
               a(1) = (   0.505915  -0.292090   0.811624 )  
               a(2) = (   0.000000   0.584180   0.811624 )  
               a(3) = (  -0.505915  -0.292090   0.811624 )  

     reciprocal axes: (cart. coord. in units 2 pi/alat)
               b(1) = (  0.988308 -0.570600  0.410699 )  
               b(2) = (  0.000000  1.141200  0.410699 )  
               b(3) = ( -0.988308 -0.570600  0.410699 )  


     PseudoPot. # 1 for Co read from file:
     /home/mcurnan/dft-course/Project1/example_LaCoO3/Co.pbe-nd-rrkjus.UPF
     MD5 check sum: 3e47a84addf5e975e0edeaeee2a73f59
     Pseudo is Ultrasoft + core correction, Zval =  9.0
     Generated by new atomic code, or converted to UPF format
     Using radial grid of  961 points,  6 beta functions with: 
                l(1) =   0
                l(2) =   0
                l(3) =   1
                l(4) =   1
                l(5) =   2
                l(6) =   2
     Q(r) pseudized with 0 coefficients 


     PseudoPot. # 2 for La read from file:
     /home/mcurnan/dft-course/Project1/example_LaCoO3/La.pbe-nsp-van.UPF
     MD5 check sum: b2f11743f52dde65f77d1302becd7929
     Pseudo is Ultrasoft + core correction, Zval = 11.0
     Generated by new atomic code, or converted to UPF format
     Using radial grid of  907 points,  6 beta functions with: 
                l(1) =   0
                l(2) =   0
                l(3) =   1
                l(4) =   1
                l(5) =   2
                l(6) =   2
     Q(r) pseudized with  6 coefficients,  rinner =    1.200   1.200   1.200
                                                       1.200   1.200

     PseudoPot. # 3 for O  read from file:
     /home/mcurnan/dft-course/Project1/example_LaCoO3/O.pbe-rrkjus.UPF
     MD5 check sum: 390ba29e75625707450f3bd3f0eb6be9
     Pseudo is Ultrasoft, Zval =  6.0
     Generated by new atomic code, or converted to UPF format
     Using radial grid of 1269 points,  4 beta functions with: 
                l(1) =   0
                l(2) =   0
                l(3) =   1
                l(4) =   1
     Q(r) pseudized with 0 coefficients 


     PseudoPot. # 4 for O  read from file:
     /home/mcurnan/dft-course/Project1/example_LaCoO3/O.pbe-rrkjus.UPF
     MD5 check sum: 390ba29e75625707450f3bd3f0eb6be9
     Pseudo is Ultrasoft, Zval =  6.0
     Generated by new atomic code, or converted to UPF format
     Using radial grid of 1269 points,  4 beta functions with: 
                l(1) =   0
                l(2) =   0
                l(3) =   1
                l(4) =   1
     Q(r) pseudized with 0 coefficients 


     atomic species   valence    mass     pseudopotential
        Co1            9.00     1.00000     Co( 1.00)
        La1           11.00     1.00000     La( 1.00)
        O1             6.00     1.00000     O ( 1.00)
        O2             6.00     1.00000     O ( 1.00)
 -----
     simplified LDA+U calculation, Hubbard_lmax = 2
     atomic species  L   Hubbard U  Hubbard alpha
        Co1          2    1.000000    0.000000
        La1          2    0.000000    0.000000
        O1           1    0.000000   -0.050000
        O2           1    0.000000    0.000000
 -----

     No symmetry found


                                    s                        frac. trans.

      isym =  1     identity                                     

 cryst.   s( 1) = (     1          0          0      )
                  (     0          1          0      )
                  (     0          0          1      )

 cart.    s( 1) = (  1.0000000  0.0000000  0.0000000 )
                  (  0.0000000  1.0000000  0.0000000 )
                  (  0.0000000  0.0000000  1.0000000 )


     point group C_1 (1)    
     there are  1 classes
     the character table:

       E    
A      1.00

     the symmetry operations in each class:
     E        1

   Cartesian axes

     site n.     atom                  positions (alat units)
         1           Co1 tau(   1) = (   0.2228050  -0.1992639   1.0141240  )
         2           Co1 tau(   2) = (  -0.2831100   0.0928263   1.4199360  )
         3           La1 tau(   3) = (  -0.2831100   0.0928263   0.8112181  )
         4           La1 tau(   4) = (   0.2228050   0.3849164   1.2170300  )
         5           O1  tau(   5) = (   0.0000000   0.0000000   0.0000000  )
         6           O2  tau(   6) = (   0.0008601   0.1861491   1.6232478  )
         7           O2  tau(   7) = (   0.1616398   0.0923297   0.8116239  )
         8           O2  tau(   8) = (  -0.0603051  -0.1064377   1.2166242  )
         9           O2  tau(   9) = (   0.4447499  -0.0004966   1.2166242  )
        10           O2  tau(  10) = (  -0.2219449   0.3854130   1.2166242  )

   Crystallographic axes

     site n.     atom                  positions (cryst. coord.)
         1           Co1 tau(   1) = (  0.7504000  0.1891000  0.3100000  )
         2           Co1 tau(   2) = (  0.2504000  0.6891000  0.8100000  )
         3           La1 tau(   3) = (  0.0004000  0.4391000  0.5600000  )
         4           La1 tau(   4) = (  0.5004000  0.9391000  0.0600000  )
         5           O1  tau(   5) = (  0.0000000  0.0000000  0.0000000  )
         6           O2  tau(   6) = (  0.5613000  0.8791000  0.5596000  )
         7           O2  tau(   7) = (  0.4404000  0.4387000  0.1209000  )
         8           O2  tau(   8) = (  0.5008000  0.3782000  0.6200000  )
         9           O2  tau(   9) = (  0.9395000  0.4991000  0.0604000  )
        10           O2  tau(  10) = (  0.0604000  0.9395000  0.4991000  )

     number of k points=    36  gaussian smearing, width (Ry)=  0.0300
                       cart. coord. in units 2pi/alat
        k(    1) = (   0.0000000   0.0000000   0.0000000), wk =   0.0312500
        k(    2) = (  -0.2470771  -0.1426500   0.1026748), wk =   0.0625000
        k(    3) = (   0.4941541   0.2853000  -0.2053496), wk =   0.0312500
        k(    4) = (  -0.2470771   0.1426500   0.2053496), wk =   0.0625000
        k(    5) = (   0.4941541   0.5706001  -0.1026748), wk =   0.0625000
        k(    6) = (   0.2470771   0.4279500   0.0000000), wk =   0.0625000
        k(    7) = (   0.4941541  -0.2853000  -0.4106993), wk =   0.0312500
        k(    8) = (   0.0000000   0.0000000   0.3080244), wk =   0.0625000
        k(    9) = (   0.7412312   0.4279500   0.0000000), wk =   0.0625000
        k(   10) = (   0.4941541   0.2853000   0.1026748), wk =   0.0625000
        k(   11) = (   0.7412312  -0.4279500  -0.3080244), wk =   0.0625000
        k(   12) = (   0.4941541  -0.5706001  -0.2053496), wk =   0.0625000
        k(   13) = (   0.0000000   0.0000000  -0.6160489), wk =   0.0312500
        k(   14) = (  -0.2470771   0.1426500  -0.1026748), wk =   0.0625000
        k(   15) = (   0.0000000   0.2853000   0.1026748), wk =   0.0625000
        k(   16) = (   0.4941541  -0.2853000   0.2053496), wk =   0.0312500
        k(   17) = (   0.0000000  -0.5706001  -0.2053496), wk =   0.0312500
        k(   18) = (  -0.2470771  -0.1426500  -0.2053496), wk =   0.0625000
        k(   19) = (   0.0000000  -0.2853000   0.2053496), wk =   0.0625000
        k(   20) = (   0.4941541  -0.5706001   0.1026748), wk =   0.0625000
        k(   21) = (  -0.7412312   0.1426500  -0.1026748), wk =   0.0625000
        k(   22) = (   0.2470771  -0.7132501  -0.1026748), wk =   0.0625000
        k(   23) = (  -0.7412312  -0.1426500   0.1026748), wk =   0.0625000
        k(   24) = (   0.2470771   0.7132501   0.1026748), wk =   0.0625000
        k(   25) = (   0.2470771  -0.4279500   0.0000000), wk =   0.0625000
        k(   26) = (  -0.4941541   0.0000000   0.0000000), wk =   0.0625000
        k(   27) = (   0.4941541   0.2853000   0.4106993), wk =   0.0312500
        k(   28) = (   0.0000000   0.5706001  -0.4106993), wk =   0.0312500
        k(   29) = (   0.7412312  -0.4279500   0.0000000), wk =   0.0625000
        k(   30) = (   0.0000000  -0.8559001   0.0000000), wk =   0.0625000
        k(   31) = (   0.4941541  -0.2853000  -0.1026748), wk =   0.0625000
        k(   32) = (   0.0000000  -0.5706001   0.1026748), wk =   0.0625000
        k(   33) = (   0.7412312   0.4279500   0.3080244), wk =   0.0625000
        k(   34) = (   0.0000000   0.8559001  -0.3080244), wk =   0.0625000
        k(   35) = (   0.2470771   0.7132501  -0.2053496), wk =   0.0625000
        k(   36) = (  -0.7412312  -0.1426500  -0.2053496), wk =   0.0625000

                       cryst. coord.
        k(    1) = (   0.0000000   0.0000000   0.0000000), wk =   0.0312500
        k(    2) = (   0.0000000   0.0000000   0.2500000), wk =   0.0625000
        k(    3) = (   0.0000000   0.0000000  -0.5000000), wk =   0.0312500
        k(    4) = (   0.0000000   0.2500000   0.2500000), wk =   0.0625000
        k(    5) = (   0.0000000   0.2500000  -0.5000000), wk =   0.0625000
        k(    6) = (   0.0000000   0.2500000  -0.2500000), wk =   0.0625000
        k(    7) = (   0.0000000  -0.5000000  -0.5000000), wk =   0.0312500
        k(    8) = (   0.2500000   0.2500000   0.2500000), wk =   0.0625000
        k(    9) = (   0.2500000   0.2500000  -0.5000000), wk =   0.0625000
        k(   10) = (   0.2500000   0.2500000  -0.2500000), wk =   0.0625000
        k(   11) = (   0.2500000  -0.5000000  -0.5000000), wk =   0.0625000
        k(   12) = (   0.2500000  -0.5000000  -0.2500000), wk =   0.0625000
        k(   13) = (  -0.5000000  -0.5000000  -0.5000000), wk =   0.0312500
        k(   14) = (  -0.2500000   0.0000000   0.0000000), wk =   0.0625000
        k(   15) = (   0.0000000   0.2500000   0.0000000), wk =   0.0625000
        k(   16) = (   0.5000000   0.0000000   0.0000000), wk =   0.0312500
        k(   17) = (   0.0000000  -0.5000000   0.0000000), wk =   0.0312500
        k(   18) = (  -0.2500000  -0.2500000   0.0000000), wk =   0.0625000
        k(   19) = (   0.2500000   0.0000000   0.2500000), wk =   0.0625000
        k(   20) = (   0.5000000  -0.2500000   0.0000000), wk =   0.0625000
        k(   21) = (  -0.5000000   0.0000000   0.2500000), wk =   0.0625000
        k(   22) = (   0.2500000  -0.5000000   0.0000000), wk =   0.0625000
        k(   23) = (  -0.2500000   0.0000000   0.5000000), wk =   0.0625000
        k(   24) = (   0.0000000   0.5000000  -0.2500000), wk =   0.0625000
        k(   25) = (   0.2500000  -0.2500000   0.0000000), wk =   0.0625000
        k(   26) = (  -0.2500000   0.0000000   0.2500000), wk =   0.0625000
        k(   27) = (   0.5000000   0.5000000   0.0000000), wk =   0.0312500
        k(   28) = (  -0.5000000   0.0000000  -0.5000000), wk =   0.0312500
        k(   29) = (   0.5000000  -0.2500000  -0.2500000), wk =   0.0625000
        k(   30) = (   0.2500000  -0.5000000   0.2500000), wk =   0.0625000
        k(   31) = (   0.2500000  -0.2500000  -0.2500000), wk =   0.0625000
        k(   32) = (   0.2500000  -0.2500000   0.2500000), wk =   0.0625000
        k(   33) = (   0.5000000   0.5000000  -0.2500000), wk =   0.0625000
        k(   34) = (  -0.5000000   0.2500000  -0.5000000), wk =   0.0625000
        k(   35) = (  -0.2500000   0.2500000  -0.5000000), wk =   0.0625000
        k(   36) = (  -0.5000000  -0.2500000   0.2500000), wk =   0.0625000

     Dense  grid:    69617 G-vectors     FFT dimensions: (  60,  60,  60)

     Smooth grid:    17573 G-vectors     FFT dimensions: (  40,  40,  40)

     Largest allocated arrays     est. size (Mb)     dimensions
        Kohn-Sham Wavefunctions         0.79 Mb     (   1119,   46)
        Atomic wavefunctions            1.06 Mb     (   1119,   62)
        NL pseudopotentials             2.05 Mb     (   1119,  120)
        Each V/rho on FFT grid          1.65 Mb     ( 108000)
        Each G-vector array             0.27 Mb     (  34808)
        G-vector shells                 0.04 Mb     (   4682)
     Largest temporary arrays     est. size (Mb)     dimensions
        Auxiliary wavefunctions         3.14 Mb     (   1119,  184)
        Each subspace H/S matrix        0.52 Mb     ( 184, 184)
        Each <psi_i|beta_j> matrix      0.08 Mb     (    120,   46)
        Arrays for rho mixing          13.18 Mb     ( 108000,   8)

     Check: negative/imaginary core charge=   -0.000028    0.000000

     The initial density is read from file :
     /home/mcurnan/dft-course/Project1/example_LaCoO3/100/O/alpha/CoLaO_U100.save/charge-density.dat

 --- in v_hubbard ---
Hubbard energy    0.0757
 -------
     Number of +U iterations with fixed ns =  0
     Starting occupations:
 --- enter write_ns ---
 LDA+U parameters:
U( 1)     =  1.00000000
alpha( 1) =  0.00000000
U( 2)     =  0.00000000
alpha( 2) =  0.00000000
U( 3)     =  0.00000000
alpha( 3) = -0.05000000
U( 4)     =  0.00000000
alpha( 4) =  0.00000000
atom    1   Tr[ns(na)] =   8.02205
    eigenvalues: 
  0.596  0.596  0.938  0.941  0.941
    eigenvectors:
  0.000  0.000  1.000  0.000  0.000
  0.057  0.598  0.000  0.178  0.167
  0.598  0.057  0.000  0.167  0.178
  0.210  0.135  0.000  0.095  0.560
  0.135  0.210  0.000  0.560  0.095
    occupations:
  0.938  0.000  0.000  0.000  0.000
  0.000  0.715  0.000 -0.060  0.152
  0.000  0.000  0.715  0.152  0.060
  0.000 -0.060  0.152  0.822  0.000
  0.000  0.152  0.060  0.000  0.822
atom    2   Tr[ns(na)] =   8.02142
    eigenvalues: 
  0.595  0.595  0.938  0.941  0.941
    eigenvectors:
  0.000  0.000  1.000  0.000  0.000
  0.332  0.323  0.000  0.023  0.322
  0.323  0.332  0.000  0.322  0.023
  0.288  0.057  0.000  0.647  0.008
  0.057  0.288  0.000  0.008  0.647
    occupations:
  0.938  0.000  0.000  0.000  0.000
  0.000  0.715  0.000  0.060  0.153
  0.000  0.000  0.715  0.153 -0.060
  0.000  0.060  0.153  0.822  0.000
  0.000  0.153 -0.060  0.000  0.822
atom    3   Tr[ns(na)] =   3.80282
    eigenvalues: 
  0.355  0.355  0.384  0.403  0.403
    eigenvectors:
  0.000  0.000  1.000  0.000  0.000
  0.065  0.856  0.000  0.058  0.021
  0.856  0.065  0.000  0.021  0.058
  0.073  0.006  0.000  0.250  0.670
  0.006  0.073  0.000  0.670  0.250
    occupations:
  0.384  0.000  0.000  0.000  0.000
  0.000  0.359  0.000  0.000  0.013
  0.000  0.000  0.359  0.013  0.000
  0.000  0.000  0.013  0.399  0.000
  0.000  0.013  0.000  0.000  0.399
atom    4   Tr[ns(na)] =   3.80282
    eigenvalues: 
  0.355  0.355  0.384  0.403  0.403
    eigenvectors:
  0.000  0.000  1.000  0.000  0.000
  0.729  0.192  0.000  0.048  0.032
  0.192  0.729  0.000  0.032  0.048
  0.017  0.062  0.000  0.359  0.562
  0.062  0.017  0.000  0.562  0.359
    occupations:
  0.384  0.000  0.000  0.000  0.000
  0.000  0.359  0.000  0.000  0.013
  0.000  0.000  0.359  0.013  0.000
  0.000  0.000  0.013  0.399  0.000
  0.000  0.013  0.000  0.000  0.399
atom    5   Tr[ns(na)] =   5.43357
    eigenvalues: 
  0.846  0.929  0.941
    eigenvectors:
  0.340  0.000  0.660
  0.496  0.250  0.255
  0.164  0.750  0.086
    occupations:
  0.909 -0.039  0.022
 -0.039  0.891  0.022
  0.022  0.022  0.917
atom    6   Tr[ns(na)] =   5.43358
    eigenvalues: 
  0.846  0.929  0.941
    eigenvectors:
  0.340  0.000  0.660
  0.494  0.250  0.256
  0.166  0.750  0.085
    occupations:
  0.909  0.039  0.022
  0.039  0.891 -0.022
  0.022 -0.022  0.917
atom    7   Tr[ns(na)] =   5.43358
    eigenvalues: 
  0.846  0.929  0.941
    eigenvectors:
  0.340  0.000  0.660
  0.000  1.000  0.000
  0.660  0.000  0.340
    occupations:
  0.909  0.000 -0.045
  0.000  0.929  0.000
 -0.045  0.000  0.879
atom    8   Tr[ns(na)] =   5.43357
    eigenvalues: 
  0.846  0.929  0.941
    eigenvectors:
  0.340  0.000  0.660
  0.496  0.250  0.255
  0.164  0.750  0.086
    occupations:
  0.909 -0.039  0.022
 -0.039  0.891  0.022
  0.022  0.022  0.917
atom    9   Tr[ns(na)] =   5.43358
    eigenvalues: 
  0.846  0.929  0.941
    eigenvectors:
  0.340  0.000  0.660
  0.494  0.250  0.256
  0.166  0.750  0.085
    occupations:
  0.909  0.039  0.022
  0.039  0.891 -0.022
  0.022 -0.022  0.917
atom   10   Tr[ns(na)] =   5.43358
    eigenvalues: 
  0.846  0.929  0.941
    eigenvectors:
  0.340  0.000  0.660
  0.000  1.000  0.000
  0.660  0.000  0.340
    occupations:
  0.909  0.000 -0.045
  0.000  0.929  0.000
 -0.045  0.000  0.879
N of occupied +U levels =  56.2505796
 --- exit write_ns ---
 LDA+U Projector read from file 
     Starting wfc from file

     total cpu time spent up to now is        7.7 secs

     per-process dynamical memory:    62.8 Mb

     Self-consistent Calculation

     iteration #  1     ecut=    30.00 Ry     beta=0.20
     Davidson diagonalization with overlap
     c_bands:  1 eigenvalues not converged
     c_bands:  1 eigenvalues not converged
     c_bands:  1 eigenvalues not converged
     c_bands:  1 eigenvalues not converged
     c_bands:  1 eigenvalues not converged
     c_bands:  1 eigenvalues not converged
     c_bands:  1 eigenvalues not converged
     c_bands:  1 eigenvalues not converged
     c_bands:  1 eigenvalues not converged
     c_bands:  1 eigenvalues not converged
     c_bands:  1 eigenvalues not converged
     c_bands:  1 eigenvalues not converged
     c_bands:  1 eigenvalues not converged
     c_bands:  1 eigenvalues not converged
     c_bands:  1 eigenvalues not converged
     c_bands:  1 eigenvalues not converged
     c_bands:  1 eigenvalues not converged
     c_bands:  1 eigenvalues not converged
     c_bands:  1 eigenvalues not converged
     c_bands:  1 eigenvalues not converged
     c_bands:  1 eigenvalues not converged
     ethr =  1.00E-10,  avg # of iterations = 17.2
 --- enter write_ns ---
 LDA+U parameters:
U( 1)     =  1.00000000
alpha( 1) =  0.00000000
U( 2)     =  0.00000000
alpha( 2) =  0.00000000
U( 3)     =  0.00000000
alpha( 3) = -0.05000000
U( 4)     =  0.00000000
alpha( 4) =  0.00000000
atom    1   Tr[ns(na)] =   8.07440
    eigenvalues: 
  0.576  0.577  0.961  0.962  0.962
    eigenvectors:
  0.000  0.000  0.866  0.106  0.029
  0.553  0.101  0.035  0.082  0.228
  0.101  0.553  0.011  0.227  0.107
  0.168  0.178  0.053  0.568  0.034
  0.178  0.168  0.035  0.018  0.602
    occupations:
  0.961  0.000  0.000  0.000  0.000
  0.000  0.709  0.000 -0.066  0.171
  0.000  0.000  0.710  0.171  0.066
  0.000 -0.066  0.171  0.828  0.000
  0.000  0.171  0.066  0.000  0.829
atom    2   Tr[ns(na)] =   8.07127
    eigenvalues: 
  0.575  0.575  0.961  0.962  0.962
    eigenvectors:
  0.000  0.000  0.919  0.068  0.012
  0.420  0.234  0.021  0.317  0.008
  0.235  0.420  0.007  0.005  0.333
  0.026  0.319  0.002  0.035  0.618
  0.319  0.026  0.051  0.575  0.028
    occupations:
  0.961  0.000  0.000  0.000  0.000
  0.000  0.709  0.000  0.065  0.172
  0.000  0.000  0.709  0.172 -0.066
  0.000  0.065  0.172  0.829  0.000
  0.000  0.172 -0.066  0.000  0.828
atom    3   Tr[ns(na)] =   3.79859
    eigenvalues: 
  0.355  0.356  0.383  0.402  0.403
    eigenvectors:
  0.000  0.000  1.000  0.000  0.000
  0.229  0.690  0.000  0.062  0.019
  0.691  0.229  0.000  0.019  0.061
  0.060  0.021  0.000  0.227  0.692
  0.021  0.060  0.000  0.692  0.227
    occupations:
  0.383  0.000  0.000  0.000  0.000
  0.000  0.359  0.000  0.000  0.013
  0.000  0.000  0.359  0.013  0.000
  0.000  0.000  0.013  0.399  0.000
  0.000  0.013  0.000  0.000  0.399
atom    4   Tr[ns(na)] =   3.79867
    eigenvalues: 
  0.355  0.356  0.383  0.403  0.403
    eigenvectors:
  0.000  0.000  1.000  0.000  0.000
  0.689  0.232  0.000  0.059  0.020
  0.233  0.687  0.000  0.019  0.061
  0.020  0.059  0.000  0.234  0.686
  0.058  0.021  0.000  0.687  0.233
    occupations:
  0.383  0.000  0.000  0.000  0.000
  0.000  0.359  0.000  0.000  0.013
  0.000  0.000  0.359  0.013  0.000
  0.000  0.000  0.013  0.399  0.000
  0.000  0.013  0.000  0.000  0.399
atom    5   Tr[ns(na)] =   5.42921
    eigenvalues: 
  0.843  0.929  0.943
    eigenvectors:
  0.340  0.000  0.660
  0.495  0.250  0.255
  0.164  0.750  0.085
    occupations:
  0.909 -0.041  0.024
 -0.041  0.890  0.023
  0.024  0.023  0.916
atom    6   Tr[ns(na)] =   5.42108
    eigenvalues: 
  0.841  0.928  0.942
    eigenvectors:
  0.341  0.000  0.659
  0.494  0.249  0.256
  0.165  0.751  0.084
    occupations:
  0.908  0.042  0.024
  0.042  0.888 -0.023
  0.024 -0.023  0.915
atom    7   Tr[ns(na)] =   5.42109
    eigenvalues: 
  0.841  0.928  0.942
    eigenvectors:
  0.341  0.000  0.659
  0.000  1.000  0.000
  0.659  0.000  0.341
    occupations:
  0.908  0.000 -0.048
  0.000  0.928  0.000
 -0.048  0.000  0.875
atom    8   Tr[ns(na)] =   5.42108
    eigenvalues: 
  0.841  0.928  0.942
    eigenvectors:
  0.340  0.000  0.660
  0.495  0.250  0.255
  0.164  0.750  0.086
    occupations:
  0.908 -0.042  0.024
 -0.042  0.888  0.023
  0.024  0.023  0.915
atom    9   Tr[ns(na)] =   5.42109
    eigenvalues: 
  0.841  0.928  0.942
    eigenvectors:
  0.340  0.000  0.660
  0.494  0.250  0.256
  0.165  0.750  0.084
    occupations:
  0.908  0.042  0.024
  0.042  0.888 -0.023
  0.024 -0.023  0.915
atom   10   Tr[ns(na)] =   5.42109
    eigenvalues: 
  0.841  0.928  0.942
    eigenvectors:
  0.340  0.000  0.660
  0.000  1.000  0.000
  0.660  0.000  0.340
    occupations:
  0.908  0.000 -0.048
  0.000  0.928  0.000
 -0.048  0.000  0.875
N of occupied +U levels =  56.2775820
 --- exit write_ns ---
 --- in v_hubbard ---
Hubbard energy    0.0743
 -------

     total cpu time spent up to now is       84.5 secs

     total energy              =    -538.26056144 Ry
     Harris-Foulkes estimate   =    -538.26123503 Ry
     estimated scf accuracy    <       0.00372987 Ry

     iteration #  2     ecut=    30.00 Ry     beta=0.20
     Davidson diagonalization with overlap
     ethr =  4.91E-06,  avg # of iterations =  1.2
 --- enter write_ns ---
 LDA+U parameters:
U( 1)     =  1.00000000
alpha( 1) =  0.00000000
U( 2)     =  0.00000000
alpha( 2) =  0.00000000
U( 3)     =  0.00000000
alpha( 3) = -0.05000000
U( 4)     =  0.00000000
alpha( 4) =  0.00000000
atom    1   Tr[ns(na)] =   8.02823
    eigenvalues: 
  0.566  0.566  0.960  0.961  0.961
    eigenvectors:
  0.000  0.000  0.992  0.007  0.001
  0.553  0.102  0.002  0.155  0.188
  0.102  0.553  0.001  0.188  0.157
  0.169  0.176  0.003  0.566  0.086
  0.176  0.169  0.002  0.084  0.569
    occupations:
  0.960  0.000  0.000  0.000  0.000
  0.000  0.702  0.000 -0.068  0.175
  0.000  0.000  0.702  0.175  0.068
  0.000 -0.068  0.175  0.825  0.000
  0.000  0.175  0.068  0.000  0.825
atom    2   Tr[ns(na)] =   8.03603
    eigenvalues: 
  0.566  0.566  0.961  0.962  0.963
    eigenvectors:
  0.000  0.000  0.994  0.006  0.001
  0.421  0.234  0.002  0.328  0.015
  0.234  0.421  0.001  0.015  0.330
  0.025  0.320  0.000  0.016  0.639
  0.320  0.025  0.004  0.635  0.016
    occupations:
  0.961  0.000  0.000  0.000  0.000
  0.000  0.703  0.000  0.068  0.176
  0.000  0.000  0.703  0.176 -0.068
  0.000  0.068  0.176  0.826  0.000
  0.000  0.176 -0.068  0.000  0.826
atom    3   Tr[ns(na)] =   3.79762
    eigenvalues: 
  0.355  0.355  0.383  0.402  0.403
    eigenvectors:
  0.000  0.000  1.000  0.000  0.000
  0.223  0.697  0.000  0.063  0.017
  0.697  0.223  0.000  0.017  0.062
  0.060  0.020  0.000  0.206  0.714
  0.020  0.060  0.000  0.714  0.206
    occupations:
  0.383  0.000  0.000  0.000  0.000
  0.000  0.359  0.000  0.000  0.013
  0.000  0.000  0.359  0.013  0.000
  0.000  0.000  0.013  0.399  0.000
  0.000  0.013  0.000  0.000  0.399
atom    4   Tr[ns(na)] =   3.79769
    eigenvalues: 
  0.355  0.355  0.383  0.403  0.403
    eigenvectors:
  0.000  0.000  1.000  0.000  0.000
  0.683  0.238  0.000  0.061  0.018
  0.238  0.682  0.000  0.018  0.062
  0.021  0.059  0.000  0.217  0.704
  0.058  0.021  0.000  0.704  0.217
    occupations:
  0.383  0.000  0.000  0.000  0.000
  0.000  0.359  0.000  0.000  0.013
  0.000  0.000  0.359  0.013  0.000
  0.000  0.000  0.013  0.399  0.000
  0.000  0.013  0.000  0.000  0.399
atom    5   Tr[ns(na)] =   5.43801
    eigenvalues: 
  0.845  0.930  0.943
    eigenvectors:
  0.339  0.000  0.661
  0.496  0.250  0.254
  0.165  0.750  0.085
    occupations:
  0.910 -0.040  0.023
 -0.040  0.892  0.022
  0.023  0.022  0.917
atom    6   Tr[ns(na)] =   5.43460
    eigenvalues: 
  0.845  0.930  0.943
    eigenvectors:
  0.339  0.000  0.661
  0.496  0.249  0.255
  0.165  0.751  0.084
    occupations:
  0.910  0.040  0.023
  0.040  0.891 -0.022
  0.023 -0.022  0.917
atom    7   Tr[ns(na)] =   5.43459
    eigenvalues: 
  0.845  0.930  0.943
    eigenvectors:
  0.339  0.000  0.661
  0.000  1.000  0.000
  0.661  0.000  0.339
    occupations:
  0.910  0.000 -0.047
  0.000  0.930  0.000
 -0.047  0.000  0.878
atom    8   Tr[ns(na)] =   5.43488
    eigenvalues: 
  0.845  0.930  0.943
    eigenvectors:
  0.339  0.000  0.661
  0.496  0.250  0.254
  0.165  0.750  0.085
    occupations:
  0.910 -0.040  0.023
 -0.040  0.891  0.022
  0.023  0.022  0.917
atom    9   Tr[ns(na)] =   5.43453
    eigenvalues: 
  0.845  0.930  0.943
    eigenvectors:
  0.339  0.000  0.661
  0.495  0.250  0.255
  0.165  0.750  0.084
    occupations:
  0.910  0.040  0.023
  0.040  0.891 -0.022
  0.023 -0.022  0.917
atom   10   Tr[ns(na)] =   5.43453
    eigenvalues: 
  0.845  0.930  0.943
    eigenvectors:
  0.339  0.000  0.661
  0.000  1.000  0.000
  0.661  0.000  0.339
    occupations:
  0.910  0.000 -0.047
  0.000  0.930  0.000
 -0.047  0.000  0.878
N of occupied +U levels =  56.2707109
 --- exit write_ns ---
 --- in v_hubbard ---
Hubbard energy    0.0735
 -------

     total cpu time spent up to now is      108.5 secs

     total energy              =    -538.26096318 Ry
     Harris-Foulkes estimate   =    -538.26103313 Ry
     estimated scf accuracy    <       0.00197235 Ry

     iteration #  3     ecut=    30.00 Ry     beta=0.20
     Davidson diagonalization with overlap
     ethr =  2.60E-06,  avg # of iterations =  1.0
 --- enter write_ns ---
 LDA+U parameters:
U( 1)     =  1.00000000
alpha( 1) =  0.00000000
U( 2)     =  0.00000000
alpha( 2) =  0.00000000
U( 3)     =  0.00000000
alpha( 3) = -0.05000000
U( 4)     =  0.00000000
alpha( 4) =  0.00000000
atom    1   Tr[ns(na)] =   8.05300
    eigenvalues: 
  0.570  0.570  0.961  0.962  0.962
    eigenvectors:
  0.000  0.000  0.993  0.007  0.001
  0.553  0.102  0.002  0.158  0.185
  0.102  0.553  0.001  0.185  0.159
  0.169  0.176  0.003  0.563  0.089
  0.175  0.169  0.002  0.088  0.566
    occupations:
  0.961  0.000  0.000  0.000  0.000
  0.000  0.705  0.000 -0.068  0.174
  0.000  0.000  0.705  0.174  0.067
  0.000 -0.068  0.174  0.827  0.000
  0.000  0.174  0.067  0.000  0.827
atom    2   Tr[ns(na)] =   8.03308
    eigenvalues: 
  0.567  0.567  0.960  0.961  0.961
    eigenvectors:
  0.000  0.000  0.996  0.004  0.000
  0.422  0.233  0.001  0.325  0.019
  0.233  0.422  0.000  0.019  0.325
  0.025  0.319  0.000  0.011  0.645
  0.319  0.025  0.002  0.642  0.011
    occupations:
  0.960  0.000  0.000  0.000  0.000
  0.000  0.703  0.000  0.067  0.175
  0.000  0.000  0.703  0.175 -0.067
  0.000  0.067  0.175  0.826  0.000
  0.000  0.175 -0.067  0.000  0.825
atom    3   Tr[ns(na)] =   3.79769
    eigenvalues: 
  0.355  0.355  0.383  0.402  0.403
    eigenvectors:
  0.000  0.000  1.000  0.000  0.000
  0.225  0.695  0.000  0.064  0.016
  0.695  0.225  0.000  0.016  0.064
  0.060  0.020  0.000  0.193  0.727
  0.020  0.060  0.000  0.727  0.193
    occupations:
  0.383  0.000  0.000  0.000  0.000
  0.000  0.359  0.000  0.000  0.013
  0.000  0.000  0.359  0.013  0.000
  0.000  0.000  0.013  0.399  0.000
  0.000  0.013  0.000  0.000  0.399
atom    4   Tr[ns(na)] =   3.79772
    eigenvalues: 
  0.355  0.355  0.383  0.403  0.403
    eigenvectors:
  0.000  0.000  1.000  0.000  0.000
  0.685  0.236  0.000  0.061  0.018
  0.236  0.684  0.000  0.018  0.061
  0.021  0.059  0.000  0.221  0.699
  0.058  0.021  0.000  0.700  0.221
    occupations:
  0.383  0.000  0.000  0.000  0.000
  0.000  0.359  0.000  0.000  0.013
  0.000  0.000  0.359  0.013  0.000
  0.000  0.000  0.013  0.399  0.000
  0.000  0.013  0.000  0.000  0.399
atom    5   Tr[ns(na)] =   5.43446
    eigenvalues: 
  0.844  0.930  0.943
    eigenvectors:
  0.339  0.000  0.661
  0.497  0.249  0.254
  0.164  0.751  0.085
    occupations:
  0.910 -0.041  0.023
 -0.041  0.891  0.022
  0.023  0.022  0.917
atom    6   Tr[ns(na)] =   5.43131
    eigenvalues: 
  0.844  0.929  0.943
    eigenvectors:
  0.339  0.000  0.661
  0.494  0.251  0.255
  0.166  0.749  0.084
    occupations:
  0.909  0.041  0.024
  0.041  0.890 -0.023
  0.024 -0.023  0.916
atom    7   Tr[ns(na)] =   5.43131
    eigenvalues: 
  0.844  0.929  0.943
    eigenvectors:
  0.339  0.000  0.661
  0.000  1.000  0.000
  0.661  0.000  0.339
    occupations:
  0.909  0.000 -0.047
  0.000  0.929  0.000
 -0.047  0.000  0.877
atom    8   Tr[ns(na)] =   5.43155
    eigenvalues: 
  0.844  0.929  0.943
    eigenvectors:
  0.339  0.000  0.661
  0.497  0.249  0.254
  0.164  0.751  0.085
    occupations:
  0.909 -0.041  0.023
 -0.041  0.890  0.022
  0.023  0.022  0.916
atom    9   Tr[ns(na)] =   5.43127
    eigenvalues: 
  0.844  0.929  0.943
    eigenvectors:
  0.340  0.000  0.660
  0.494  0.251  0.255
  0.166  0.749  0.084
    occupations:
  0.909  0.041  0.024
  0.041  0.890 -0.023
  0.024 -0.023  0.916
atom   10   Tr[ns(na)] =   5.43127
    eigenvalues: 
  0.844  0.929  0.943
    eigenvectors:
  0.340  0.000  0.660
  0.000  1.000  0.000
  0.660  0.000  0.340
    occupations:
  0.909  0.000 -0.047
  0.000  0.929  0.000
 -0.047  0.000  0.877
N of occupied +U levels =  56.2726625
 --- exit write_ns ---
 --- in v_hubbard ---
Hubbard energy    0.0725
 -------

     total cpu time spent up to now is      134.5 secs

     total energy              =    -538.26097699 Ry
     Harris-Foulkes estimate   =    -538.26102219 Ry
     estimated scf accuracy    <       0.00124110 Ry

     iteration #  4     ecut=    30.00 Ry     beta=0.20
     Davidson diagonalization with overlap
     ethr =  1.63E-06,  avg # of iterations =  1.0
 --- enter write_ns ---
 LDA+U parameters:
U( 1)     =  1.00000000
alpha( 1) =  0.00000000
U( 2)     =  0.00000000
alpha( 2) =  0.00000000
U( 3)     =  0.00000000
alpha( 3) = -0.05000000
U( 4)     =  0.00000000
alpha( 4) =  0.00000000
atom    1   Tr[ns(na)] =   8.01051
    eigenvalues: 
  0.566  0.566  0.957  0.958  0.958
    eigenvectors:
  0.000  0.000  0.997  0.003  0.000
  0.552  0.103  0.001  0.172  0.172
  0.103  0.552  0.000  0.172  0.173
  0.168  0.177  0.001  0.544  0.110
  0.177  0.168  0.001  0.109  0.545
    occupations:
  0.957  0.000  0.000  0.000  0.000
  0.000  0.701  0.000 -0.067  0.174
  0.000  0.000  0.701  0.174  0.066
  0.000 -0.067  0.174  0.823  0.000
  0.000  0.174  0.066  0.000  0.823
atom    2   Tr[ns(na)] =   8.07737
    eigenvalues: 
  0.571  0.572  0.964  0.965  0.965
    eigenvectors:
  0.000  0.000  0.993  0.007  0.001
  0.421  0.234  0.002  0.323  0.019
  0.234  0.421  0.001  0.019  0.325
  0.025  0.320  0.000  0.011  0.644
  0.320  0.025  0.005  0.640  0.011
    occupations:
  0.964  0.000  0.000  0.000  0.000
  0.000  0.707  0.000  0.068  0.174
  0.000  0.000  0.707  0.174 -0.068
  0.000  0.068  0.174  0.830  0.000
  0.000  0.174 -0.068  0.000  0.830
atom    3   Tr[ns(na)] =   3.79784
    eigenvalues: 
  0.355  0.355  0.383  0.402  0.403
    eigenvectors:
  0.000  0.000  1.000  0.000  0.000
  0.227  0.693  0.000  0.067  0.013
  0.693  0.227  0.000  0.013  0.067
  0.059  0.020  0.000  0.155  0.766
  0.020  0.059  0.000  0.766  0.155
    occupations:
  0.383  0.000  0.000  0.000  0.000
  0.000  0.359  0.000  0.000  0.013
  0.000  0.000  0.359  0.013  0.000
  0.000  0.000  0.013  0.399  0.000
  0.000  0.013  0.000  0.000  0.399
atom    4   Tr[ns(na)] =   3.79785
    eigenvalues: 
  0.355  0.355  0.383  0.403  0.403
    eigenvectors:
  0.000  0.000  1.000  0.000  0.000
  0.669  0.252  0.000  0.061  0.018
  0.252  0.669  0.000  0.018  0.061
  0.022  0.057  0.000  0.219  0.702
  0.057  0.022  0.000  0.702  0.219
    occupations:
  0.383  0.000  0.000  0.000  0.000
  0.000  0.359  0.000  0.000  0.013
  0.000  0.000  0.359  0.013  0.000
  0.000  0.000  0.013  0.399  0.000
  0.000  0.013  0.000  0.000  0.399
atom    5   Tr[ns(na)] =   5.43403
    eigenvalues: 
  0.844  0.930  0.943
    eigenvectors:
  0.339  0.000  0.661
  0.493  0.254  0.253
  0.167  0.746  0.086
    occupations:
  0.910 -0.040  0.024
 -0.040  0.891  0.023
  0.024  0.023  0.916
atom    6   Tr[ns(na)] =   5.43097
    eigenvalues: 
  0.844  0.929  0.943
    eigenvectors:
  0.339  0.000  0.661
  0.498  0.246  0.256
  0.163  0.754  0.083
    occupations:
  0.909  0.041  0.023
  0.041  0.890 -0.022
  0.023 -0.022  0.916
atom    7   Tr[ns(na)] =   5.43097
    eigenvalues: 
  0.844  0.929  0.943
    eigenvectors:
  0.339  0.000  0.661
  0.000  1.000  0.000
  0.661  0.000  0.339
    occupations:
  0.909  0.000 -0.047
  0.000  0.929  0.000
 -0.047  0.000  0.877
atom    8   Tr[ns(na)] =   5.43115
    eigenvalues: 
  0.844  0.929  0.943
    eigenvectors:
  0.339  0.000  0.661
  0.493  0.254  0.253
  0.167  0.746  0.086
    occupations:
  0.909 -0.041  0.024
 -0.041  0.890  0.023
  0.024  0.023  0.916
atom    9   Tr[ns(na)] =   5.43095
    eigenvalues: 
  0.844  0.929  0.943
    eigenvectors:
  0.340  0.000  0.660
  0.497  0.246  0.256
  0.163  0.754  0.083
    occupations:
  0.909  0.041  0.023
  0.041  0.890 -0.022
  0.023 -0.022  0.916
atom   10   Tr[ns(na)] =   5.43095
    eigenvalues: 
  0.844  0.929  0.943
    eigenvectors:
  0.340  0.000  0.660
  0.000  1.000  0.000
  0.660  0.000  0.340
    occupations:
  0.909  0.000 -0.047
  0.000  0.929  0.000
 -0.047  0.000  0.877
N of occupied +U levels =  56.2725815
 --- exit write_ns ---
 --- in v_hubbard ---
Hubbard energy    0.0687
 -------

     total cpu time spent up to now is      160.5 secs

     total energy              =    -538.26093531 Ry
     Harris-Foulkes estimate   =    -538.26114005 Ry
     estimated scf accuracy    <       0.00310472 Ry

     iteration #  5     ecut=    30.00 Ry     beta=0.20
     Davidson diagonalization with overlap
     ethr =  1.63E-06,  avg # of iterations =  1.0
 --- enter write_ns ---
 LDA+U parameters:
U( 1)     =  1.00000000
alpha( 1) =  0.00000000
U( 2)     =  0.00000000
alpha( 2) =  0.00000000
U( 3)     =  0.00000000
alpha( 3) = -0.05000000
U( 4)     =  0.00000000
alpha( 4) =  0.00000000
atom    1   Tr[ns(na)] =   8.04550
    eigenvalues: 
  0.569  0.569  0.961  0.962  0.962
    eigenvectors:
  0.000  0.000  0.996  0.004  0.000
  0.553  0.103  0.001  0.187  0.156
  0.103  0.553  0.000  0.156  0.188
  0.169  0.175  0.002  0.525  0.130
  0.175  0.169  0.001  0.129  0.526
    occupations:
  0.961  0.000  0.000  0.000  0.000
  0.000  0.704  0.000 -0.068  0.174
  0.000  0.000  0.704  0.174  0.067
  0.000 -0.068  0.174  0.827  0.000
  0.000  0.174  0.067  0.000  0.827
atom    2   Tr[ns(na)] =   8.04334
    eigenvalues: 
  0.567  0.568  0.961  0.963  0.963
    eigenvectors:
  0.000  0.000  0.997  0.003  0.000
  0.423  0.233  0.001  0.309  0.034
  0.233  0.423  0.000  0.034  0.309
  0.025  0.319  0.000  0.001  0.655
  0.319  0.025  0.002  0.653  0.001
    occupations:
  0.961  0.000  0.000  0.000  0.000
  0.000  0.703  0.000  0.067  0.175
  0.000  0.000  0.703  0.175 -0.067
  0.000  0.067  0.175  0.827  0.000
  0.000  0.175 -0.067  0.000  0.827
atom    3   Tr[ns(na)] =   3.79847
    eigenvalues: 
  0.355  0.356  0.383  0.403  0.403
    eigenvectors:
  0.000  0.000  1.000  0.000  0.000
  0.227  0.694  0.000  0.063  0.016
  0.694  0.227  0.000  0.016  0.063
  0.059  0.020  0.000  0.191  0.730
  0.020  0.059  0.000  0.730  0.191
    occupations:
  0.383  0.000  0.000  0.000  0.000
  0.000  0.359  0.000  0.000  0.013
  0.000  0.000  0.359  0.013  0.000
  0.000  0.000  0.013  0.399  0.000
  0.000  0.013  0.000  0.000  0.399
atom    4   Tr[ns(na)] =   3.79848
    eigenvalues: 
  0.356  0.356  0.383  0.403  0.403
    eigenvectors:
  0.000  0.000  1.000  0.000  0.000
  0.674  0.247  0.000  0.059  0.020
  0.247  0.674  0.000  0.019  0.059
  0.022  0.057  0.000  0.235  0.686
  0.057  0.022  0.000  0.686  0.235
    occupations:
  0.383  0.000  0.000  0.000  0.000
  0.000  0.359  0.000  0.000  0.013
  0.000  0.000  0.359  0.013  0.000
  0.000  0.000  0.013  0.399  0.000
  0.000  0.013  0.000  0.000  0.399
atom    5   Tr[ns(na)] =   5.43375
    eigenvalues: 
  0.844  0.930  0.943
    eigenvectors:
  0.339  0.000  0.661
  0.496  0.250  0.254
  0.165  0.750  0.085
    occupations:
  0.909 -0.040  0.023
 -0.040  0.891  0.022
  0.023  0.022  0.917
atom    6   Tr[ns(na)] =   5.43065
    eigenvalues: 
  0.843  0.929  0.943
    eigenvectors:
  0.339  0.000  0.661
  0.495  0.250  0.255
  0.166  0.750  0.084
    occupations:
  0.909  0.041  0.023
  0.041  0.890 -0.023
  0.023 -0.023  0.916
atom    7   Tr[ns(na)] =   5.43065
    eigenvalues: 
  0.843  0.929  0.943
    eigenvectors:
  0.339  0.000  0.661
  0.000  1.000  0.000
  0.661  0.000  0.339
    occupations:
  0.909  0.000 -0.047
  0.000  0.929  0.000
 -0.047  0.000  0.877
atom    8   Tr[ns(na)] =   5.43063
    eigenvalues: 
  0.843  0.929  0.943
    eigenvectors:
  0.339  0.000  0.661
  0.496  0.250  0.254
  0.165  0.750  0.085
    occupations:
  0.909 -0.041  0.023
 -0.041  0.890  0.023
  0.023  0.023  0.916
atom    9   Tr[ns(na)] =   5.43066
    eigenvalues: 
  0.843  0.929  0.943
    eigenvectors:
  0.340  0.000  0.660
  0.495  0.250  0.255
  0.166  0.750  0.084
    occupations:
  0.909  0.041  0.024
  0.041  0.890 -0.023
  0.024 -0.023  0.916
atom   10   Tr[ns(na)] =   5.43067
    eigenvalues: 
  0.843  0.929  0.943
    eigenvectors:
  0.340  0.000  0.660
  0.000  1.000  0.000
  0.660  0.000  0.340
    occupations:
  0.909  0.000 -0.047
  0.000  0.929  0.000
 -0.047  0.000  0.877
N of occupied +U levels =  56.2727849
 --- exit write_ns ---
 --- in v_hubbard ---
Hubbard energy    0.0683
 -------

     total cpu time spent up to now is      186.1 secs

     total energy              =    -538.26105153 Ry
     Harris-Foulkes estimate   =    -538.26104515 Ry
     estimated scf accuracy    <       0.00001276 Ry

     iteration #  6     ecut=    30.00 Ry     beta=0.20
     Davidson diagonalization with overlap
     ethr =  1.68E-08,  avg # of iterations =  2.3
 --- enter write_ns ---
 LDA+U parameters:
U( 1)     =  1.00000000
alpha( 1) =  0.00000000
U( 2)     =  0.00000000
alpha( 2) =  0.00000000
U( 3)     =  0.00000000
alpha( 3) = -0.05000000
U( 4)     =  0.00000000
alpha( 4) =  0.00000000
atom    1   Tr[ns(na)] =   8.04369
    eigenvalues: 
  0.568  0.569  0.961  0.962  0.962
    eigenvectors:
  0.000  0.000  0.995  0.005  0.000
  0.554  0.103  0.001  0.186  0.156
  0.103  0.553  0.000  0.156  0.188
  0.169  0.175  0.002  0.524  0.130
  0.175  0.169  0.001  0.129  0.526
    occupations:
  0.961  0.000  0.000  0.000  0.000
  0.000  0.704  0.000 -0.068  0.174
  0.000  0.000  0.704  0.174  0.068
  0.000 -0.068  0.174  0.827  0.000
  0.000  0.174  0.068  0.000  0.827
atom    2   Tr[ns(na)] =   8.04244
    eigenvalues: 
  0.567  0.567  0.961  0.963  0.963
    eigenvectors:
  0.000  0.000  0.996  0.004  0.000
  0.423  0.233  0.001  0.310  0.032
  0.233  0.423  0.000  0.032  0.311
  0.025  0.319  0.000  0.002  0.654
  0.319  0.025  0.002  0.652  0.002
    occupations:
  0.961  0.000  0.000  0.000  0.000
  0.000  0.703  0.000  0.067  0.176
  0.000  0.000  0.703  0.176 -0.067
  0.000  0.067  0.176  0.827  0.000
  0.000  0.176 -0.067  0.000  0.827
atom    3   Tr[ns(na)] =   3.79839
    eigenvalues: 
  0.355  0.356  0.383  0.403  0.403
    eigenvectors:
  0.000  0.000  1.000  0.000  0.000
  0.227  0.694  0.000  0.063  0.016
  0.694  0.227  0.000  0.016  0.063
  0.059  0.020  0.000  0.195  0.726
  0.020  0.059  0.000  0.726  0.195
    occupations:
  0.383  0.000  0.000  0.000  0.000
  0.000  0.359  0.000  0.000  0.013
  0.000  0.000  0.359  0.013  0.000
  0.000  0.000  0.013  0.399  0.000
  0.000  0.013  0.000  0.000  0.399
atom    4   Tr[ns(na)] =   3.79840
    eigenvalues: 
  0.355  0.355  0.383  0.403  0.403
    eigenvectors:
  0.000  0.000  1.000  0.000  0.000
  0.635  0.287  0.000  0.060  0.019
  0.287  0.634  0.000  0.019  0.060
  0.025  0.054  0.000  0.230  0.692
  0.053  0.025  0.000  0.692  0.229
    occupations:
  0.383  0.000  0.000  0.000  0.000
  0.000  0.359  0.000  0.000  0.013
  0.000  0.000  0.359  0.013  0.000
  0.000  0.000  0.013  0.399  0.000
  0.000  0.013  0.000  0.000  0.399
atom    5   Tr[ns(na)] =   5.43413
    eigenvalues: 
  0.844  0.930  0.943
    eigenvectors:
  0.339  0.000  0.661
  0.496  0.250  0.254
  0.165  0.750  0.085
    occupations:
  0.910 -0.040  0.023
 -0.040  0.891  0.022
  0.023  0.022  0.917
atom    6   Tr[ns(na)] =   5.43108
    eigenvalues: 
  0.844  0.929  0.943
    eigenvectors:
  0.339  0.000  0.661
  0.495  0.250  0.255
  0.166  0.750  0.084
    occupations:
  0.909  0.041  0.023
  0.041  0.890 -0.023
  0.023 -0.023  0.916
atom    7   Tr[ns(na)] =   5.43108
    eigenvalues: 
  0.844  0.929  0.943
    eigenvectors:
  0.339  0.000  0.661
  0.000  1.000  0.000
  0.661  0.000  0.339
    occupations:
  0.909  0.000 -0.047
  0.000  0.929  0.000
 -0.047  0.000  0.877
atom    8   Tr[ns(na)] =   5.43120
    eigenvalues: 
  0.844  0.929  0.943
    eigenvectors:
  0.339  0.000  0.661
  0.496  0.250  0.254
  0.165  0.750  0.085
    occupations:
  0.909 -0.041  0.023
 -0.041  0.890  0.022
  0.023  0.022  0.916
atom    9   Tr[ns(na)] =   5.43105
    eigenvalues: 
  0.844  0.929  0.943
    eigenvectors:
  0.340  0.000  0.660
  0.495  0.250  0.255
  0.166  0.750  0.084
    occupations:
  0.909  0.041  0.023
  0.041  0.890 -0.023
  0.023 -0.023  0.916
atom   10   Tr[ns(na)] =   5.43105
    eigenvalues: 
  0.844  0.929  0.943
    eigenvectors:
  0.340  0.000  0.660
  0.000  1.000  0.000
  0.660  0.000  0.340
    occupations:
  0.909  0.000 -0.047
  0.000  0.929  0.000
 -0.047  0.000  0.877
N of occupied +U levels =  56.2725148
 --- exit write_ns ---
 --- in v_hubbard ---
Hubbard energy    0.0683
 -------

     total cpu time spent up to now is      216.8 secs

     total energy              =    -538.26106275 Ry
     Harris-Foulkes estimate   =    -538.26105303 Ry
     estimated scf accuracy    <       0.00000258 Ry

     iteration #  7     ecut=    30.00 Ry     beta=0.20
     Davidson diagonalization with overlap
     ethr =  3.40E-09,  avg # of iterations =  2.0
 --- enter write_ns ---
 LDA+U parameters:
U( 1)     =  1.00000000
alpha( 1) =  0.00000000
U( 2)     =  0.00000000
alpha( 2) =  0.00000000
U( 3)     =  0.00000000
alpha( 3) = -0.05000000
U( 4)     =  0.00000000
alpha( 4) =  0.00000000
atom    1   Tr[ns(na)] =   8.04322
    eigenvalues: 
  0.568  0.569  0.961  0.962  0.962
    eigenvectors:
  0.000  0.000  0.993  0.006  0.000
  0.553  0.103  0.002  0.182  0.160
  0.103  0.553  0.001  0.160  0.184
  0.169  0.175  0.003  0.529  0.124
  0.175  0.169  0.002  0.123  0.531
    occupations:
  0.961  0.000  0.000  0.000  0.000
  0.000  0.704  0.000 -0.068  0.174
  0.000  0.000  0.704  0.174  0.067
  0.000 -0.068  0.174  0.826  0.000
  0.000  0.174  0.067  0.000  0.827
atom    2   Tr[ns(na)] =   8.04335
    eigenvalues: 
  0.567  0.567  0.962  0.963  0.963
    eigenvectors:
  0.000  0.000  0.995  0.005  0.000
  0.422  0.233  0.001  0.314  0.029
  0.233  0.423  0.000  0.029  0.315
  0.025  0.319  0.000  0.003  0.652
  0.319  0.025  0.003  0.649  0.003
    occupations:
  0.962  0.000  0.000  0.000  0.000
  0.000  0.703  0.000  0.067  0.176
  0.000  0.000  0.703  0.176 -0.067
  0.000  0.067  0.176  0.827  0.000
  0.000  0.176 -0.067  0.000  0.827
atom    3   Tr[ns(na)] =   3.79803
    eigenvalues: 
  0.355  0.355  0.383  0.403  0.403
    eigenvectors:
  0.000  0.000  1.000  0.000  0.000
  0.228  0.693  0.000  0.061  0.018
  0.693  0.228  0.000  0.018  0.061
  0.059  0.020  0.000  0.213  0.708
  0.020  0.059  0.000  0.708  0.213
    occupations:
  0.383  0.000  0.000  0.000  0.000
  0.000  0.359  0.000  0.000  0.013
  0.000  0.000  0.359  0.013  0.000
  0.000  0.000  0.013  0.399  0.000
  0.000  0.013  0.000  0.000  0.399
atom    4   Tr[ns(na)] =   3.79804
    eigenvalues: 
  0.355  0.355  0.383  0.403  0.403
    eigenvectors:
  0.000  0.000  1.000  0.000  0.000
  0.603  0.318  0.000  0.059  0.020
  0.318  0.603  0.000  0.019  0.059
  0.028  0.051  0.000  0.236  0.685
  0.051  0.028  0.000  0.686  0.236
    occupations:
  0.383  0.000  0.000  0.000  0.000
  0.000  0.359  0.000  0.000  0.013
  0.000  0.000  0.359  0.013  0.000
  0.000  0.000  0.013  0.399  0.000
  0.000  0.013  0.000  0.000  0.399
atom    5   Tr[ns(na)] =   5.43420
    eigenvalues: 
  0.844  0.930  0.943
    eigenvectors:
  0.339  0.000  0.661
  0.496  0.250  0.254
  0.165  0.750  0.085
    occupations:
  0.910 -0.040  0.023
 -0.040  0.891  0.022
  0.023  0.022  0.917
atom    6   Tr[ns(na)] =   5.43108
    eigenvalues: 
  0.844  0.929  0.943
    eigenvectors:
  0.339  0.000  0.661
  0.495  0.250  0.255
  0.165  0.750  0.084
    occupations:
  0.909  0.041  0.023
  0.041  0.890 -0.023
  0.023 -0.023  0.916
atom    7   Tr[ns(na)] =   5.43108
    eigenvalues: 
  0.844  0.929  0.943
    eigenvectors:
  0.339  0.000  0.661
  0.000  1.000  0.000
  0.661  0.000  0.339
    occupations:
  0.909  0.000 -0.047
  0.000  0.929  0.000
 -0.047  0.000  0.877
atom    8   Tr[ns(na)] =   5.43128
    eigenvalues: 
  0.844  0.929  0.943
    eigenvectors:
  0.340  0.000  0.660
  0.496  0.250  0.254
  0.165  0.750  0.085
    occupations:
  0.909 -0.041  0.023
 -0.041  0.890  0.022
  0.023  0.022  0.916
atom    9   Tr[ns(na)] =   5.43105
    eigenvalues: 
  0.844  0.929  0.943
    eigenvectors:
  0.340  0.000  0.660
  0.495  0.250  0.256
  0.166  0.750  0.084
    occupations:
  0.909  0.041  0.023
  0.041  0.890 -0.023
  0.023 -0.023  0.916
atom   10   Tr[ns(na)] =   5.43104
    eigenvalues: 
  0.844  0.929  0.943
    eigenvectors:
  0.340  0.000  0.660
  0.000  1.000  0.000
  0.660  0.000  0.340
    occupations:
  0.909  0.000 -0.047
  0.000  0.929  0.000
 -0.047  0.000  0.877
N of occupied +U levels =  56.2723604
 --- exit write_ns ---
 --- in v_hubbard ---
Hubbard energy    0.0683
 -------

     total cpu time spent up to now is      248.0 secs

     total energy              =    -538.26107051 Ry
     Harris-Foulkes estimate   =    -538.26106318 Ry
     estimated scf accuracy    <       0.00000062 Ry

     iteration #  8     ecut=    30.00 Ry     beta=0.20
     Davidson diagonalization with overlap
     ethr =  8.21E-10,  avg # of iterations =  1.0
 --- enter write_ns ---
 LDA+U parameters:
U( 1)     =  1.00000000
alpha( 1) =  0.00000000
U( 2)     =  0.00000000
alpha( 2) =  0.00000000
U( 3)     =  0.00000000
alpha( 3) = -0.05000000
U( 4)     =  0.00000000
alpha( 4) =  0.00000000
atom    1   Tr[ns(na)] =   8.04375
    eigenvalues: 
  0.568  0.569  0.961  0.962  0.962
    eigenvectors:
  0.000  0.000  0.994  0.006  0.000
  0.553  0.103  0.002  0.181  0.161
  0.103  0.553  0.000  0.161  0.182
  0.169  0.175  0.002  0.531  0.122
  0.175  0.169  0.002  0.121  0.534
    occupations:
  0.961  0.000  0.000  0.000  0.000
  0.000  0.704  0.000 -0.068  0.174
  0.000  0.000  0.704  0.174  0.068
  0.000 -0.068  0.174  0.827  0.000
  0.000  0.174  0.068  0.000  0.827
atom    2   Tr[ns(na)] =   8.04264
    eigenvalues: 
  0.567  0.567  0.961  0.963  0.963
    eigenvectors:
  0.000  0.000  0.996  0.004  0.000
  0.423  0.233  0.001  0.315  0.029
  0.233  0.423  0.000  0.028  0.315
  0.025  0.319  0.000  0.004  0.652
  0.319  0.025  0.003  0.649  0.004
    occupations:
  0.961  0.000  0.000  0.000  0.000
  0.000  0.703  0.000  0.067  0.176
  0.000  0.000  0.703  0.176 -0.067
  0.000  0.067  0.176  0.827  0.000
  0.000  0.176 -0.067  0.000  0.827
atom    3   Tr[ns(na)] =   3.79808
    eigenvalues: 
  0.355  0.356  0.383  0.403  0.403
    eigenvectors:
  0.000  0.000  1.000  0.000  0.000
  0.228  0.693  0.000  0.063  0.016
  0.693  0.228  0.000  0.016  0.063
  0.059  0.020  0.000  0.196  0.725
  0.020  0.059  0.000  0.725  0.196
    occupations:
  0.383  0.000  0.000  0.000  0.000
  0.000  0.359  0.000  0.000  0.013
  0.000  0.000  0.359  0.013  0.000
  0.000  0.000  0.013  0.399  0.000
  0.000  0.013  0.000  0.000  0.399
atom    4   Tr[ns(na)] =   3.79809
    eigenvalues: 
  0.355  0.355  0.383  0.403  0.403
    eigenvectors:
  0.000  0.000  1.000  0.000  0.000
  0.589  0.332  0.000  0.059  0.019
  0.332  0.589  0.000  0.019  0.060
  0.029  0.050  0.000  0.234  0.687
  0.050  0.029  0.000  0.687  0.234
    occupations:
  0.383  0.000  0.000  0.000  0.000
  0.000  0.359  0.000  0.000  0.013
  0.000  0.000  0.359  0.013  0.000
  0.000  0.000  0.013  0.399  0.000
  0.000  0.013  0.000  0.000  0.399
atom    5   Tr[ns(na)] =   5.43419
    eigenvalues: 
  0.844  0.930  0.943
    eigenvectors:
  0.339  0.000  0.661
  0.496  0.250  0.254
  0.165  0.750  0.085
    occupations:
  0.910 -0.040  0.023
 -0.040  0.891  0.022
  0.023  0.022  0.917
atom    6   Tr[ns(na)] =   5.43111
    eigenvalues: 
  0.844  0.929  0.943
    eigenvectors:
  0.339  0.000  0.661
  0.495  0.250  0.255
  0.166  0.750  0.084
    occupations:
  0.909  0.041  0.023
  0.041  0.890 -0.023
  0.023 -0.023  0.916
atom    7   Tr[ns(na)] =   5.43111
    eigenvalues: 
  0.844  0.929  0.943
    eigenvectors:
  0.339  0.000  0.661
  0.000  1.000  0.000
  0.661  0.000  0.339
    occupations:
  0.909  0.000 -0.047
  0.000  0.929  0.000
 -0.047  0.000  0.877
atom    8   Tr[ns(na)] =   5.43125
    eigenvalues: 
  0.844  0.929  0.943
    eigenvectors:
  0.340  0.000  0.660
  0.496  0.250  0.254
  0.165  0.750  0.085
    occupations:
  0.909 -0.041  0.023
 -0.041  0.890  0.022
  0.023  0.022  0.916
atom    9   Tr[ns(na)] =   5.43108
    eigenvalues: 
  0.844  0.929  0.943
    eigenvectors:
  0.340  0.000  0.660
  0.495  0.250  0.255
  0.166  0.750  0.084
    occupations:
  0.909  0.041  0.024
  0.041  0.890 -0.023
  0.024 -0.023  0.916
atom   10   Tr[ns(na)] =   5.43108
    eigenvalues: 
  0.844  0.929  0.943
    eigenvectors:
  0.340  0.000  0.660
  0.000  1.000  0.000
  0.660  0.000  0.340
    occupations:
  0.909  0.000 -0.047
  0.000  0.929  0.000
 -0.047  0.000  0.877
N of occupied +U levels =  56.2723785
 --- exit write_ns ---
 --- in v_hubbard ---
Hubbard energy    0.0683
 -------

     total cpu time spent up to now is      274.8 secs

     total energy              =    -538.26107545 Ry
     Harris-Foulkes estimate   =    -538.26107057 Ry
     estimated scf accuracy    <       0.00000015 Ry

     iteration #  9     ecut=    30.00 Ry     beta=0.20
     Davidson diagonalization with overlap
     ethr =  2.02E-10,  avg # of iterations =  2.0
 --- enter write_ns ---
 LDA+U parameters:
U( 1)     =  1.00000000
alpha( 1) =  0.00000000
U( 2)     =  0.00000000
alpha( 2) =  0.00000000
U( 3)     =  0.00000000
alpha( 3) = -0.05000000
U( 4)     =  0.00000000
alpha( 4) =  0.00000000
atom    1   Tr[ns(na)] =   8.04352
    eigenvalues: 
  0.568  0.569  0.961  0.962  0.962
    eigenvectors:
  0.000  0.000  0.994  0.006  0.000
  0.553  0.103  0.002  0.180  0.163
  0.103  0.553  0.000  0.163  0.181
  0.169  0.175  0.002  0.534  0.120
  0.175  0.169  0.002  0.119  0.536
    occupations:
  0.961  0.000  0.000  0.000  0.000
  0.000  0.704  0.000 -0.068  0.174
  0.000  0.000  0.704  0.174  0.067
  0.000 -0.068  0.174  0.827  0.000
  0.000  0.174  0.067  0.000  0.827
atom    2   Tr[ns(na)] =   8.04296
    eigenvalues: 
  0.567  0.567  0.961  0.963  0.963
    eigenvectors:
  0.000  0.000  0.995  0.004  0.000
  0.423  0.233  0.001  0.315  0.028
  0.233  0.423  0.000  0.027  0.316
  0.025  0.319  0.000  0.004  0.652
  0.319  0.025  0.003  0.649  0.004
    occupations:
  0.961  0.000  0.000  0.000  0.000
  0.000  0.703  0.000  0.067  0.176
  0.000  0.000  0.703  0.176 -0.067
  0.000  0.067  0.176  0.827  0.000
  0.000  0.176 -0.067  0.000  0.827
atom    3   Tr[ns(na)] =   3.79808
    eigenvalues: 
  0.355  0.356  0.383  0.403  0.403
    eigenvectors:
  0.000  0.000  1.000  0.000  0.000
  0.228  0.693  0.000  0.065  0.014
  0.693  0.228  0.000  0.014  0.065
  0.059  0.020  0.000  0.168  0.753
  0.020  0.059  0.000  0.753  0.168
    occupations:
  0.383  0.000  0.000  0.000  0.000
  0.000  0.359  0.000  0.000  0.013
  0.000  0.000  0.359  0.013  0.000
  0.000  0.000  0.013  0.399  0.000
  0.000  0.013  0.000  0.000  0.399
atom    4   Tr[ns(na)] =   3.79809
    eigenvalues: 
  0.355  0.355  0.383  0.403  0.403
    eigenvectors:
  0.000  0.000  1.000  0.000  0.000
  0.581  0.341  0.000  0.059  0.019
  0.341  0.580  0.000  0.019  0.060
  0.030  0.049  0.000  0.232  0.689
  0.049  0.030  0.000  0.690  0.231
    occupations:
  0.383  0.000  0.000  0.000  0.000
  0.000  0.359  0.000  0.000  0.013
  0.000  0.000  0.359  0.013  0.000
  0.000  0.000  0.013  0.399  0.000
  0.000  0.013  0.000  0.000  0.399
atom    5   Tr[ns(na)] =   5.43418
    eigenvalues: 
  0.844  0.930  0.943
    eigenvectors:
  0.339  0.000  0.661
  0.496  0.250  0.254
  0.165  0.750  0.085
    occupations:
  0.910 -0.040  0.023
 -0.040  0.891  0.022
  0.023  0.022  0.917
atom    6   Tr[ns(na)] =   5.43109
    eigenvalues: 
  0.844  0.929  0.943
    eigenvectors:
  0.339  0.000  0.661
  0.495  0.250  0.255
  0.166  0.750  0.084
    occupations:
  0.909  0.041  0.023
  0.041  0.890 -0.023
  0.023 -0.023  0.916
atom    7   Tr[ns(na)] =   5.43109
    eigenvalues: 
  0.844  0.929  0.943
    eigenvectors:
  0.339  0.000  0.661
  0.000  1.000  0.000
  0.661  0.000  0.339
    occupations:
  0.909  0.000 -0.047
  0.000  0.929  0.000
 -0.047  0.000  0.877
atom    8   Tr[ns(na)] =   5.43124
    eigenvalues: 
  0.844  0.929  0.943
    eigenvectors:
  0.340  0.000  0.660
  0.496  0.250  0.254
  0.165  0.750  0.085
    occupations:
  0.909 -0.041  0.023
 -0.041  0.890  0.022
  0.023  0.022  0.916
atom    9   Tr[ns(na)] =   5.43107
    eigenvalues: 
  0.844  0.929  0.943
    eigenvectors:
  0.340  0.000  0.660
  0.495  0.250  0.255
  0.166  0.750  0.084
    occupations:
  0.909  0.041  0.024
  0.041  0.890 -0.023
  0.024 -0.023  0.916
atom   10   Tr[ns(na)] =   5.43107
    eigenvalues: 
  0.844  0.929  0.943
    eigenvectors:
  0.340  0.000  0.660
  0.000  1.000  0.000
  0.660  0.000  0.340
    occupations:
  0.909  0.000 -0.047
  0.000  0.929  0.000
 -0.047  0.000  0.877
N of occupied +U levels =  56.2723918
 --- exit write_ns ---
 --- in v_hubbard ---
Hubbard energy    0.0683
 -------

     total cpu time spent up to now is      305.2 secs

     total energy              =    -538.26107863 Ry
     Harris-Foulkes estimate   =    -538.26107547 Ry
     estimated scf accuracy    <       0.00000002 Ry

     iteration # 10     ecut=    30.00 Ry     beta=0.20
     Davidson diagonalization with overlap
     ethr =  2.94E-11,  avg # of iterations =  2.1
 --- enter write_ns ---
 LDA+U parameters:
U( 1)     =  1.00000000
alpha( 1) =  0.00000000
U( 2)     =  0.00000000
alpha( 2) =  0.00000000
U( 3)     =  0.00000000
alpha( 3) = -0.05000000
U( 4)     =  0.00000000
alpha( 4) =  0.00000000
atom    1   Tr[ns(na)] =   8.04361
    eigenvalues: 
  0.568  0.569  0.961  0.962  0.962
    eigenvectors:
  0.000  0.000  0.994  0.006  0.000
  0.553  0.103  0.002  0.180  0.162
  0.103  0.553  0.000  0.162  0.181
  0.169  0.175  0.002  0.533  0.121
  0.175  0.169  0.002  0.119  0.535
    occupations:
  0.961  0.000  0.000  0.000  0.000
  0.000  0.704  0.000 -0.068  0.174
  0.000  0.000  0.704  0.174  0.067
  0.000 -0.068  0.174  0.827  0.000
  0.000  0.174  0.067  0.000  0.827
atom    2   Tr[ns(na)] =   8.04288
    eigenvalues: 
  0.567  0.567  0.961  0.963  0.963
    eigenvectors:
  0.000  0.000  0.995  0.004  0.000
  0.423  0.233  0.001  0.315  0.028
  0.233  0.423  0.000  0.028  0.316
  0.025  0.319  0.000  0.004  0.652
  0.319  0.025  0.003  0.649  0.004
    occupations:
  0.961  0.000  0.000  0.000  0.000
  0.000  0.703  0.000  0.067  0.176
  0.000  0.000  0.703  0.176 -0.067
  0.000  0.067  0.176  0.827  0.000
  0.000  0.176 -0.067  0.000  0.827
atom    3   Tr[ns(na)] =   3.79809
    eigenvalues: 
  0.355  0.356  0.383  0.403  0.403
    eigenvectors:
  0.000  0.000  1.000  0.000  0.000
  0.228  0.693  0.000  0.065  0.014
  0.693  0.228  0.000  0.014  0.065
  0.059  0.020  0.000  0.168  0.753
  0.020  0.059  0.000  0.753  0.168
    occupations:
  0.383  0.000  0.000  0.000  0.000
  0.000  0.359  0.000  0.000  0.013
  0.000  0.000  0.359  0.013  0.000
  0.000  0.000  0.013  0.399  0.000
  0.000  0.013  0.000  0.000  0.399
atom    4   Tr[ns(na)] =   3.79810
    eigenvalues: 
  0.355  0.355  0.383  0.403  0.403
    eigenvectors:
  0.000  0.000  1.000  0.000  0.000
  0.566  0.355  0.000  0.059  0.019
  0.355  0.566  0.000  0.019  0.060
  0.031  0.048  0.000  0.231  0.690
  0.048  0.031  0.000  0.690  0.231
    occupations:
  0.383  0.000  0.000  0.000  0.000
  0.000  0.359  0.000  0.000  0.013
  0.000  0.000  0.359  0.013  0.000
  0.000  0.000  0.013  0.399  0.000
  0.000  0.013  0.000  0.000  0.399
atom    5   Tr[ns(na)] =   5.43418
    eigenvalues: 
  0.844  0.930  0.943
    eigenvectors:
  0.339  0.000  0.661
  0.496  0.250  0.254
  0.165  0.750  0.085
    occupations:
  0.910 -0.040  0.023
 -0.040  0.891  0.022
  0.023  0.022  0.917
atom    6   Tr[ns(na)] =   5.43109
    eigenvalues: 
  0.844  0.929  0.943
    eigenvectors:
  0.339  0.000  0.661
  0.495  0.250  0.255
  0.166  0.750  0.084
    occupations:
  0.909  0.041  0.023
  0.041  0.890 -0.023
  0.023 -0.023  0.916
atom    7   Tr[ns(na)] =   5.43109
    eigenvalues: 
  0.844  0.929  0.943
    eigenvectors:
  0.339  0.000  0.661
  0.000  1.000  0.000
  0.661  0.000  0.339
    occupations:
  0.909  0.000 -0.047
  0.000  0.929  0.000
 -0.047  0.000  0.877
atom    8   Tr[ns(na)] =   5.43124
    eigenvalues: 
  0.844  0.929  0.943
    eigenvectors:
  0.339  0.000  0.660
  0.496  0.250  0.254
  0.165  0.750  0.085
    occupations:
  0.909 -0.041  0.023
 -0.041  0.890  0.022
  0.023  0.022  0.916
atom    9   Tr[ns(na)] =   5.43106
    eigenvalues: 
  0.844  0.929  0.943
    eigenvectors:
  0.340  0.000  0.660
  0.495  0.250  0.255
  0.166  0.750  0.084
    occupations:
  0.909  0.041  0.024
  0.041  0.890 -0.023
  0.024 -0.023  0.916
atom   10   Tr[ns(na)] =   5.43106
    eigenvalues: 
  0.844  0.929  0.943
    eigenvectors:
  0.340  0.000  0.660
  0.000  1.000  0.000
  0.660  0.000  0.340
    occupations:
  0.909  0.000 -0.047
  0.000  0.929  0.000
 -0.047  0.000  0.877
N of occupied +U levels =  56.2723914
 --- exit write_ns ---
 --- in v_hubbard ---
Hubbard energy    0.0683
 -------

     total cpu time spent up to now is      331.4 secs

     End of self-consistent calculation

          k = 0.0000 0.0000 0.0000 (  2175 PWs)   bands (ev):

   -19.7999 -19.6267  -6.5409  -5.8239  -5.8233  -5.8212  -5.8087  -5.4756
    -3.7729  -3.2636  -3.2072  -3.2064  -3.0263  -3.0260   5.1863   6.8944
     6.8988   7.5125   7.5180   7.6443   7.6466   7.6996   7.7110   9.2920
     9.6123   9.6171   9.7525   9.8725   9.8743  10.3533  10.3537  10.4601
    10.4614  10.5582  10.6740  11.4229  11.4239  11.9872  12.1721  12.1732
    14.7701  14.7714  15.4258  15.4266  16.1960  16.7857

     occupation numbers 
     0.0313   0.0313   0.0313   0.0313   0.0313   0.0313   0.0313   0.0313
     0.0313   0.0313   0.0313   0.0313   0.0313   0.0313   0.0313   0.0313
     0.0313   0.0313   0.0313   0.0313   0.0313   0.0313   0.0313   0.0313
     0.0313   0.0313   0.0312   0.0312   0.0312   0.0312   0.0312   0.0312
     0.0312   0.0312   0.0312   0.0307   0.0307   0.0174   0.0097   0.0096
     0.0000   0.0000   0.0000   0.0000   0.0000   0.0000

          k =-0.2471-0.1427 0.1027 (  2181 PWs)   bands (ev):

   -19.7727 -19.6529  -6.7206  -6.2827  -5.9316  -5.8409  -5.6035  -5.4697
    -3.5855  -3.3884  -2.9292  -2.9031  -2.8445  -2.7587   5.5491   6.8709
     6.9991   7.0081   7.2063   7.4778   7.5373   7.6939   7.7008   8.5397
     8.6220   9.2383   9.6522   9.7777   9.8177  10.0165  10.3667  10.3778
    10.7818  10.8033  10.9081  11.6845  11.7396  11.7906  12.3352  12.4009
    14.3142  14.3233  15.8143  16.0692  16.9715  17.2661

     occupation numbers 
     0.0625   0.0625   0.0625   0.0625   0.0625   0.0625   0.0625   0.0625
     0.0625   0.0625   0.0625   0.0625   0.0625   0.0625   0.0625   0.0625
     0.0625   0.0625   0.0625   0.0625   0.0625   0.0625   0.0625   0.0625
     0.0625   0.0625   0.0625   0.0625   0.0625   0.0625   0.0625   0.0625
     0.0625   0.0625   0.0625   0.0552   0.0526   0.0497   0.0090   0.0062
     0.0000   0.0000   0.0000   0.0000   0.0000   0.0000

          k = 0.4942 0.2853-0.2053 (  2202 PWs)   bands (ev):

   -19.7126 -19.7120  -6.7218  -6.7079  -5.9531  -5.9485  -5.5175  -5.5067
    -3.3776  -3.3760  -2.7876  -2.7844  -2.5073  -2.5049   6.0616   6.0727
     7.1975   7.2083   7.2494   7.2690   7.5666   7.5979   7.8580   7.8800
     8.0674   8.0930   9.5078   9.5091   9.8679   9.8764  10.2745  10.2841
    11.2178  11.2226  11.3170  11.3239  11.5061  11.5134  13.2949  13.3247
    13.3805  13.4119  16.8320  16.8380  17.1310  17.1353

     occupation numbers 
     0.0313   0.0313   0.0313   0.0313   0.0313   0.0313   0.0313   0.0313
     0.0313   0.0313   0.0313   0.0313   0.0313   0.0313   0.0313   0.0313
     0.0313   0.0313   0.0313   0.0313   0.0313   0.0313   0.0313   0.0313
     0.0313   0.0313   0.0313   0.0313   0.0312   0.0312   0.0312   0.0312
     0.0312   0.0312   0.0310   0.0310   0.0302   0.0301   0.0000   0.0000
     0.0000   0.0000   0.0000   0.0000   0.0000   0.0000

          k =-0.2471 0.1427 0.2053 (  2195 PWs)   bands (ev):

   -19.7672 -19.6571  -6.8492  -6.2257  -6.0607  -5.8162  -5.6441  -5.4516
    -3.4074  -3.2610  -3.0981  -2.8884  -2.8123  -2.5598   5.5827   6.8153
     6.8968   6.9637   7.2237   7.4625   7.4883   7.7142   7.7266   8.6356
     8.7747   8.8411   9.2914   9.7544   9.9683  10.0632  10.1726  10.2850
    10.3617  11.1914  11.2971  11.3134  11.7166  11.7907  12.0597  12.7346
    13.6374  14.7870  15.9906  16.1926  17.0360  17.5365

     occupation numbers 
     0.0625   0.0625   0.0625   0.0625   0.0625   0.0625   0.0625   0.0625
     0.0625   0.0625   0.0625   0.0625   0.0625   0.0625   0.0625   0.0625
     0.0625   0.0625   0.0625   0.0625   0.0625   0.0625   0.0625   0.0625
     0.0625   0.0625   0.0625   0.0625   0.0625   0.0625   0.0625   0.0625
     0.0625   0.0624   0.0621   0.0621   0.0538   0.0497   0.0286   0.0005
     0.0000   0.0000   0.0000   0.0000   0.0000   0.0000

          k = 0.4942 0.5706-0.1027 (  2198 PWs)   bands (ev):

   -19.7294 -19.6935  -6.9524  -6.6392  -6.1257  -5.8789  -5.4994  -5.3754
    -3.3005  -3.2509  -2.8741  -2.7061  -2.5256  -2.3838   5.9041   6.2498
     6.7536   6.9991   7.2024   7.3396   7.5049   7.7167   7.8255   7.9748
     8.2625   8.8560   9.0987   9.3232   9.6377   9.8069   9.9438  10.3551
    10.8450  11.3066  11.4096  11.4813  11.6145  11.6557  12.3245  12.7410
    13.4262  14.3635  16.9035  17.1135  17.3092  18.0141

     occupation numbers 
     0.0625   0.0625   0.0625   0.0625   0.0625   0.0625   0.0625   0.0625
     0.0625   0.0625   0.0625   0.0625   0.0625   0.0625   0.0625   0.0625
     0.0625   0.0625   0.0625   0.0625   0.0625   0.0625   0.0625   0.0625
     0.0625   0.0625   0.0625   0.0625   0.0625   0.0625   0.0625   0.0625
     0.0625   0.0621   0.0615   0.0607   0.0578   0.0564   0.0095   0.0004
     0.0000   0.0000   0.0000   0.0000   0.0000   0.0000

          k = 0.2471 0.4280 0.0000 (  2203 PWs)   bands (ev):

   -19.7398 -19.6843  -6.8393  -6.6350  -6.0374  -5.9751  -5.4319  -5.3562
    -3.5105  -3.2918  -2.7994  -2.7064  -2.5651  -2.5567   5.8777   6.3039
     6.9638   7.1045   7.2046   7.2918   7.4356   7.6176   7.6966   8.0735
     8.3159   8.9220   9.3183   9.4107   9.7678   9.7842  10.0591  10.3571
    11.1590  11.1962  11.2056  11.4354  11.4620  11.7541  12.2564  13.3236
    13.3965  14.1569  16.4348  16.9917  17.4201  17.9242

     occupation numbers 
     0.0625   0.0625   0.0625   0.0625   0.0625   0.0625   0.0625   0.0625
     0.0625   0.0625   0.0625   0.0625   0.0625   0.0625   0.0625   0.0625
     0.0625   0.0625   0.0625   0.0625   0.0625   0.0625   0.0625   0.0625
     0.0625   0.0625   0.0625   0.0625   0.0625   0.0625   0.0625   0.0625
     0.0624   0.0624   0.0624   0.0613   0.0609   0.0518   0.0134   0.0000
     0.0000   0.0000   0.0000   0.0000   0.0000   0.0000

          k = 0.4942-0.2853-0.4107 (  2202 PWs)   bands (ev):

   -19.7341 -19.6871  -7.1640  -6.4507  -6.2380  -5.9495  -5.5182  -5.2819
    -3.1895  -3.1229  -3.0406  -2.6499  -2.4796  -2.2215   5.8047   6.2762
     6.2999   6.8905   7.1505   7.2596   7.7470   7.7997   8.1562   8.3045
     8.4291   8.4596   8.6013   9.4052   9.6692  10.0303  10.0697  10.2900
    10.4366  11.1484  11.3506  11.5265  11.6499  11.7789  11.9712  12.4396
    13.3263  14.7996  17.0406  17.2631  17.5199  17.6083

     occupation numbers 
     0.0313   0.0313   0.0313   0.0313   0.0313   0.0313   0.0313   0.0313
     0.0313   0.0313   0.0313   0.0313   0.0313   0.0313   0.0313   0.0313
     0.0313   0.0313   0.0313   0.0313   0.0313   0.0313   0.0313   0.0313
     0.0313   0.0313   0.0313   0.0313   0.0312   0.0312   0.0312   0.0312
     0.0312   0.0312   0.0310   0.0300   0.0283   0.0252   0.0181   0.0024
     0.0000   0.0000   0.0000   0.0000   0.0000   0.0000

          k = 0.0000 0.0000 0.3080 (  2187 PWs)   bands (ev):

   -19.7724 -19.6530  -6.6087  -5.9739  -5.9223  -5.9153  -5.8356  -5.8276
    -3.1983  -3.1083  -3.1070  -2.9666  -2.8951  -2.8941   5.6050   6.9922
     6.9971   7.1324   7.3482   7.4146   7.4194   7.7018   7.7044   8.7756
     8.7778   9.3343   9.4358   9.6282   9.6334   9.8174  10.1250  10.1298
    10.9102  10.9109  11.0090  11.7078  11.7084  11.8004  12.3120  12.3129
    14.2753  14.2765  15.9086  15.9096  16.8782  17.4797

     occupation numbers 
     0.0625   0.0625   0.0625   0.0625   0.0625   0.0625   0.0625   0.0625
     0.0625   0.0625   0.0625   0.0625   0.0625   0.0625   0.0625   0.0625
     0.0625   0.0625   0.0625   0.0625   0.0625   0.0625   0.0625   0.0625
     0.0625   0.0625   0.0625   0.0625   0.0625   0.0625   0.0625   0.0625
     0.0625   0.0625   0.0625   0.0542   0.0541   0.0491   0.0102   0.0101
     0.0000   0.0000   0.0000   0.0000   0.0000   0.0000

          k = 0.7412 0.4280 0.0000 (  2204 PWs)   bands (ev):

   -19.7394 -19.6846  -6.7271  -6.5940  -6.1390  -5.8238  -5.6705  -5.5360
    -3.1685  -3.0875  -3.0433  -2.6741  -2.6534  -2.5813   5.9233   6.4930
     6.9800   7.1483   7.2057   7.3022   7.4301   7.5698   7.8641   8.0230
     8.3453   8.8262   9.3384   9.4814   9.5926   9.6786   9.8455  10.2152
    11.1531  11.2078  11.2832  11.4959  11.4978  11.6640  12.2619  13.2464
    13.3112  14.1829  16.6884  16.7213  17.5897  17.7926

     occupation numbers 
     0.0625   0.0625   0.0625   0.0625   0.0625   0.0625   0.0625   0.0625
     0.0625   0.0625   0.0625   0.0625   0.0625   0.0625   0.0625   0.0625
     0.0625   0.0625   0.0625   0.0625   0.0625   0.0625   0.0625   0.0625
     0.0625   0.0625   0.0625   0.0625   0.0625   0.0625   0.0625   0.0625
     0.0624   0.0624   0.0622   0.0605   0.0604   0.0560   0.0131   0.0000
     0.0000   0.0000   0.0000   0.0000   0.0000   0.0000

          k = 0.4942 0.2853 0.1027 (  2211 PWs)   bands (ev):

   -19.7300 -19.6935  -6.9640  -6.5374  -6.3155  -5.6899  -5.6176  -5.3445
    -3.3137  -3.1633  -3.0272  -2.6009  -2.5587  -2.3754   5.9289   6.2266
     6.7029   6.9885   7.2151   7.2517   7.5295   7.7631   7.8717   7.9525
     8.3026   8.9602   9.1033   9.3952   9.5072   9.6676  10.0094  10.3687
    10.8599  11.3567  11.4879  11.4931  11.5518  11.5707  12.2770  12.7568
    13.4740  14.3441  16.8837  16.9335  17.5806  17.9268

     occupation numbers 
     0.0625   0.0625   0.0625   0.0625   0.0625   0.0625   0.0625   0.0625
     0.0625   0.0625   0.0625   0.0625   0.0625   0.0625   0.0625   0.0625
     0.0625   0.0625   0.0625   0.0625   0.0625   0.0625   0.0625   0.0625
     0.0625   0.0625   0.0625   0.0625   0.0625   0.0625   0.0625   0.0625
     0.0625   0.0619   0.0606   0.0605   0.0594   0.0590   0.0122   0.0004
     0.0000   0.0000   0.0000   0.0000   0.0000   0.0000

          k = 0.7412-0.4280-0.3080 (  2210 PWs)   bands (ev):

   -19.7294 -19.6934  -6.9051  -6.4442  -6.2948  -5.7864  -5.7465  -5.4767
    -3.0678  -3.0484  -2.9612  -2.7275  -2.6195  -2.4267   5.9971   6.3619
     6.7883   6.9750   7.2399   7.2677   7.5549   7.7811   7.9161   7.9808
     8.2744   8.9496   8.9593   9.5054   9.5249   9.5275   9.6534  10.2090
    10.9316  11.3718  11.4735  11.4817  11.5983  11.6382  12.2358  12.7068
    13.4203  14.3147  17.0590  17.0667  17.5487  17.9024

     occupation numbers 
     0.0625   0.0625   0.0625   0.0625   0.0625   0.0625   0.0625   0.0625
     0.0625   0.0625   0.0625   0.0625   0.0625   0.0625   0.0625   0.0625
     0.0625   0.0625   0.0625   0.0625   0.0625   0.0625   0.0625   0.0625
     0.0625   0.0625   0.0625   0.0625   0.0625   0.0625   0.0625   0.0625
     0.0625   0.0618   0.0608   0.0607   0.0582   0.0570   0.0148   0.0006
     0.0000   0.0000   0.0000   0.0000   0.0000   0.0000

          k = 0.4942-0.5706-0.2053 (  2206 PWs)   bands (ev):

   -19.7113 -19.7111  -6.8823  -6.8699  -6.0322  -6.0221  -5.4198  -5.4130
    -3.1506  -3.1502  -2.8108  -2.8089  -2.3828  -2.3802   6.0744   6.0888
     6.8923   6.8994   7.1105   7.1170   7.4059   7.4125   8.0588   8.0956
     8.7874   8.7936   8.9845   8.9906   9.5337   9.5383  10.0911  10.0944
    11.1502  11.1507  11.3671  11.3696  11.6508  11.6535  12.2996  12.3020
    14.0051  14.0140  17.4261  17.4274  17.8666  17.8682

     occupation numbers 
     0.0625   0.0625   0.0625   0.0625   0.0625   0.0625   0.0625   0.0625
     0.0625   0.0625   0.0625   0.0625   0.0625   0.0625   0.0625   0.0625
     0.0625   0.0625   0.0625   0.0625   0.0625   0.0625   0.0625   0.0625
     0.0625   0.0625   0.0625   0.0625   0.0625   0.0625   0.0625   0.0625
     0.0624   0.0624   0.0618   0.0618   0.0565   0.0564   0.0109   0.0107
     0.0000   0.0000   0.0000   0.0000   0.0000   0.0000

          k = 0.0000 0.0000-0.6160 (  2186 PWs)   bands (ev):

   -19.7125 -19.7118  -6.5095  -6.4920  -5.9349  -5.9337  -5.9316  -5.9193
    -2.8881  -2.8874  -2.8863  -2.8843  -2.7074  -2.7057   6.2875   6.2997
     7.1951   7.2022   7.2158   7.2195   7.7316   7.7602   7.9817   7.9828
     8.0105   8.0114   9.6299   9.6312   9.6394   9.6400   9.6969   9.7089
    11.3725  11.3785  11.4277  11.4290  11.4355  11.4364  13.2356  13.2369
    13.2655  13.2666  17.1154  17.1164  17.1179  17.1185

     occupation numbers 
     0.0313   0.0313   0.0313   0.0313   0.0313   0.0313   0.0313   0.0313
     0.0313   0.0313   0.0313   0.0313   0.0313   0.0313   0.0313   0.0313
     0.0313   0.0313   0.0313   0.0313   0.0313   0.0313   0.0313   0.0313
     0.0313   0.0313   0.0313   0.0313   0.0312   0.0312   0.0312   0.0312
     0.0309   0.0309   0.0307   0.0307   0.0306   0.0306   0.0000   0.0000
     0.0000   0.0000   0.0000   0.0000   0.0000   0.0000

          k =-0.2471 0.1427-0.1027 (  2181 PWs)   bands (ev):

   -19.7727 -19.6529  -6.7207  -6.2828  -5.9324  -5.8395  -5.6032  -5.4707
    -3.5849  -3.3887  -2.9290  -2.9034  -2.8448  -2.7584   5.5487   6.8698
     6.9970   7.0108   7.2064   7.4812   7.5353   7.6912   7.7028   8.5408
     8.6200   9.2398   9.6555   9.7733   9.8186  10.0157  10.3661  10.3787
    10.7820  10.8025  10.9086  11.6847  11.7395  11.7908  12.3359  12.4001
    14.3152  14.3224  15.8148  16.0684  16.9713  17.2656

     occupation numbers 
     0.0625   0.0625   0.0625   0.0625   0.0625   0.0625   0.0625   0.0625
     0.0625   0.0625   0.0625   0.0625   0.0625   0.0625   0.0625   0.0625
     0.0625   0.0625   0.0625   0.0625   0.0625   0.0625   0.0625   0.0625
     0.0625   0.0625   0.0625   0.0625   0.0625   0.0625   0.0625   0.0625
     0.0625   0.0625   0.0625   0.0552   0.0526   0.0497   0.0090   0.0062
     0.0000   0.0000   0.0000   0.0000   0.0000   0.0000

          k = 0.0000 0.2853 0.1027 (  2181 PWs)   bands (ev):

   -19.7727 -19.6529  -6.7206  -6.2827  -5.9318  -5.8408  -5.6034  -5.4698
    -3.5855  -3.3884  -2.9292  -2.9031  -2.8445  -2.7587   5.5491   6.8709
     6.9992   7.0079   7.2064   7.4780   7.5373   7.6930   7.7016   8.5396
     8.6221   9.2383   9.6521   9.7777   9.8178  10.0165  10.3663  10.3783
    10.7818  10.8032  10.9081  11.6845  11.7395  11.7906  12.3352  12.4009
    14.3143  14.3233  15.8143  16.0692  16.9715  17.2662

     occupation numbers 
     0.0625   0.0625   0.0625   0.0625   0.0625   0.0625   0.0625   0.0625
     0.0625   0.0625   0.0625   0.0625   0.0625   0.0625   0.0625   0.0625
     0.0625   0.0625   0.0625   0.0625   0.0625   0.0625   0.0625   0.0625
     0.0625   0.0625   0.0625   0.0625   0.0625   0.0625   0.0625   0.0625
     0.0625   0.0625   0.0625   0.0552   0.0526   0.0497   0.0090   0.0062
     0.0000   0.0000   0.0000   0.0000   0.0000   0.0000

          k = 0.4942-0.2853 0.2053 (  2202 PWs)   bands (ev):

   -19.7126 -19.7120  -6.7222  -6.7077  -5.9542  -5.9470  -5.5164  -5.5082
    -3.3780  -3.3752  -2.7873  -2.7851  -2.5073  -2.5047   6.0604   6.0728
     7.1918   7.2097   7.2511   7.2692   7.5727   7.5986   7.8541   7.8798
     8.0663   8.0950   9.5084   9.5122   9.8636   9.8752  10.2750  10.2854
    11.2174  11.2225  11.3170  11.3234  11.5064  11.5144  13.2952  13.3257
    13.3801  13.4109  16.8327  16.8376  17.1306  17.1342

     occupation numbers 
     0.0313   0.0313   0.0313   0.0313   0.0313   0.0313   0.0313   0.0313
     0.0313   0.0313   0.0313   0.0313   0.0313   0.0313   0.0313   0.0313
     0.0313   0.0313   0.0313   0.0313   0.0313   0.0313   0.0313   0.0313
     0.0313   0.0313   0.0313   0.0313   0.0312   0.0312   0.0312   0.0312
     0.0312   0.0312   0.0310   0.0310   0.0301   0.0301   0.0000   0.0000
     0.0000   0.0000   0.0000   0.0000   0.0000   0.0000

          k = 0.0000-0.5706-0.2053 (  2202 PWs)   bands (ev):

   -19.7126 -19.7120  -6.7224  -6.7073  -5.9550  -5.9466  -5.5151  -5.5091
    -3.3789  -3.3748  -2.7864  -2.7857  -2.5076  -2.5047   6.0617   6.0726
     7.1938   7.2123   7.2500   7.2682   7.5713   7.5931   7.8552   7.8828
     8.0646   8.0960   9.5057   9.5111   9.8681   9.8762  10.2743  10.2843
    11.2175  11.2229  11.3174  11.3235  11.5055  11.5141  13.2941  13.3255
    13.3812  13.4111  16.8331  16.8369  17.1316  17.1348

     occupation numbers 
     0.0313   0.0313   0.0313   0.0313   0.0313   0.0313   0.0313   0.0313
     0.0313   0.0313   0.0313   0.0313   0.0313   0.0313   0.0313   0.0313
     0.0313   0.0313   0.0313   0.0313   0.0313   0.0313   0.0313   0.0313
     0.0313   0.0313   0.0313   0.0313   0.0312   0.0312   0.0312   0.0312
     0.0312   0.0312   0.0310   0.0310   0.0302   0.0301   0.0000   0.0000
     0.0000   0.0000   0.0000   0.0000   0.0000   0.0000

          k =-0.2471-0.1427-0.2053 (  2195 PWs)   bands (ev):

   -19.7676 -19.6573  -6.8451  -6.2241  -6.0569  -5.8249  -5.6500  -5.4466
    -3.4073  -3.2610  -3.0979  -2.8873  -2.8116  -2.5589   5.5776   6.8236
     6.8934   6.9575   7.2259   7.4617   7.4838   7.7140   7.7274   8.6371
     8.7808   8.8416   9.2869   9.7586   9.9679  10.0631  10.1690  10.2812
    10.3626  11.1941  11.2981  11.3161  11.7166  11.7901  12.0590  12.7362
    13.6376  14.7860  15.9908  16.1922  17.0348  17.5361

     occupation numbers 
     0.0625   0.0625   0.0625   0.0625   0.0625   0.0625   0.0625   0.0625
     0.0625   0.0625   0.0625   0.0625   0.0625   0.0625   0.0625   0.0625
     0.0625   0.0625   0.0625   0.0625   0.0625   0.0625   0.0625   0.0625
     0.0625   0.0625   0.0625   0.0625   0.0625   0.0625   0.0625   0.0625
     0.0625   0.0624   0.0621   0.0621   0.0538   0.0497   0.0286   0.0004
     0.0000   0.0000   0.0000   0.0000   0.0000   0.0000

          k = 0.0000-0.2853 0.2053 (  2195 PWs)   bands (ev):

   -19.7676 -19.6573  -6.8451  -6.2241  -6.0570  -5.8249  -5.6500  -5.4466
    -3.4073  -3.2610  -3.0979  -2.8873  -2.8116  -2.5589   5.5776   6.8235
     6.8934   6.9575   7.2258   7.4623   7.4832   7.7142   7.7272   8.6372
     8.7806   8.8417   9.2869   9.7586   9.9679  10.0631  10.1690  10.2812
    10.3626  11.1941  11.2980  11.3161  11.7166  11.7901  12.0590  12.7362
    13.6376  14.7860  15.9908  16.1922  17.0348  17.5361

     occupation numbers 
     0.0625   0.0625   0.0625   0.0625   0.0625   0.0625   0.0625   0.0625
     0.0625   0.0625   0.0625   0.0625   0.0625   0.0625   0.0625   0.0625
     0.0625   0.0625   0.0625   0.0625   0.0625   0.0625   0.0625   0.0625
     0.0625   0.0625   0.0625   0.0625   0.0625   0.0625   0.0625   0.0625
     0.0625   0.0624   0.0621   0.0621   0.0538   0.0497   0.0286   0.0004
     0.0000   0.0000   0.0000   0.0000   0.0000   0.0000

          k = 0.4942-0.5706 0.1027 (  2198 PWs)   bands (ev):

   -19.7298 -19.6937  -6.9482  -6.6394  -6.1224  -5.8866  -5.5048  -5.3694
    -3.3008  -3.2506  -2.8750  -2.7037  -2.5258  -2.3822   5.8960   6.2592
     6.7430   6.9966   7.2064   7.3305   7.5133   7.7139   7.8065   7.9973
     8.2634   8.8595   9.0992   9.3252   9.6324   9.8105   9.9444  10.3537
    10.8436  11.3071  11.4122  11.4794  11.6163  11.6558  12.3236  12.7406
    13.4281  14.3623  16.9054  17.1097  17.3095  18.0140

     occupation numbers 
     0.0625   0.0625   0.0625   0.0625   0.0625   0.0625   0.0625   0.0625
     0.0625   0.0625   0.0625   0.0625   0.0625   0.0625   0.0625   0.0625
     0.0625   0.0625   0.0625   0.0625   0.0625   0.0625   0.0625   0.0625
     0.0625   0.0625   0.0625   0.0625   0.0625   0.0625   0.0625   0.0625
     0.0625   0.0621   0.0615   0.0607   0.0577   0.0564   0.0096   0.0004
     0.0000   0.0000   0.0000   0.0000   0.0000   0.0000

          k =-0.7412 0.1427-0.1027 (  2198 PWs)   bands (ev):

   -19.7298 -19.6937  -6.9478  -6.6403  -6.1213  -5.8876  -5.5039  -5.3701
    -3.3000  -3.2507  -2.8748  -2.7048  -2.5252  -2.3825   5.8976   6.2567
     6.7466   6.9961   7.2007   7.3332   7.5087   7.7182   7.8249   7.9759
     8.2676   8.8536   9.1038   9.3264   9.6343   9.8095   9.9448  10.3522
    10.8441  11.3080  11.4094  11.4800  11.6147  11.6580  12.3239  12.7408
    13.4282  14.3625  16.9035  17.1125  17.3089  18.0139

     occupation numbers 
     0.0625   0.0625   0.0625   0.0625   0.0625   0.0625   0.0625   0.0625
     0.0625   0.0625   0.0625   0.0625   0.0625   0.0625   0.0625   0.0625
     0.0625   0.0625   0.0625   0.0625   0.0625   0.0625   0.0625   0.0625
     0.0625   0.0625   0.0625   0.0625   0.0625   0.0625   0.0625   0.0625
     0.0625   0.0621   0.0615   0.0607   0.0578   0.0563   0.0096   0.0004
     0.0000   0.0000   0.0000   0.0000   0.0000   0.0000

          k = 0.2471-0.7133-0.1027 (  2198 PWs)   bands (ev):

   -19.7298 -19.6937  -6.9476  -6.6405  -6.1208  -5.8880  -5.5043  -5.3696
    -3.3001  -3.2508  -2.8746  -2.7052  -2.5251  -2.3824   5.8979   6.2567
     6.7473   6.9952   7.1999   7.3342   7.5091   7.7194   7.8235   7.9750
     8.2681   8.8538   9.1031   9.3253   9.6368   9.8079   9.9458  10.3519
    10.8441  11.3074  11.4096  11.4817  11.6136  11.6576  12.3240  12.7408
    13.4282  14.3625  16.9028  17.1136  17.3090  18.0144

     occupation numbers 
     0.0625   0.0625   0.0625   0.0625   0.0625   0.0625   0.0625   0.0625
     0.0625   0.0625   0.0625   0.0625   0.0625   0.0625   0.0625   0.0625
     0.0625   0.0625   0.0625   0.0625   0.0625   0.0625   0.0625   0.0625
     0.0625   0.0625   0.0625   0.0625   0.0625   0.0625   0.0625   0.0625
     0.0625   0.0621   0.0615   0.0607   0.0578   0.0563   0.0096   0.0004
     0.0000   0.0000   0.0000   0.0000   0.0000   0.0000

          k =-0.7412-0.1427 0.1027 (  2198 PWs)   bands (ev):

   -19.7298 -19.6937  -6.9481  -6.6396  -6.1220  -5.8870  -5.5052  -5.3689
    -3.3008  -3.2507  -2.8748  -2.7042  -2.5258  -2.3820   5.8964   6.2593
     6.7437   6.9957   7.2056   7.3314   7.5138   7.7148   7.8053   7.9965
     8.2638   8.8597   9.0985   9.3241   9.6348   9.8089   9.9454  10.3534
    10.8435  11.3066  11.4124  11.4811  11.6152  11.6554  12.3236  12.7406
    13.4281  14.3623  16.9047  17.1108  17.3095  18.0145

     occupation numbers 
     0.0625   0.0625   0.0625   0.0625   0.0625   0.0625   0.0625   0.0625
     0.0625   0.0625   0.0625   0.0625   0.0625   0.0625   0.0625   0.0625
     0.0625   0.0625   0.0625   0.0625   0.0625   0.0625   0.0625   0.0625
     0.0625   0.0625   0.0625   0.0625   0.0625   0.0625   0.0625   0.0625
     0.0625   0.0621   0.0615   0.0607   0.0577   0.0564   0.0096   0.0004
     0.0000   0.0000   0.0000   0.0000   0.0000   0.0000

          k = 0.2471 0.7133 0.1027 (  2198 PWs)   bands (ev):

   -19.7294 -19.6935  -6.9529  -6.6383  -6.1268  -5.8779  -5.5004  -5.3747
    -3.3013  -3.2508  -2.8742  -2.7051  -2.5262  -2.3835   5.9025   6.2524
     6.7500   6.9997   7.2081   7.3368   7.5096   7.7124   7.8066   7.9968
     8.2582   8.8619   9.0940   9.3219   9.6357   9.8081   9.9434  10.3566
    10.8445  11.3058  11.4124  11.4807  11.6161  11.6535  12.3242  12.7408
    13.4261  14.3633  16.9054  17.1107  17.3097  18.0143

     occupation numbers 
     0.0625   0.0625   0.0625   0.0625   0.0625   0.0625   0.0625   0.0625
     0.0625   0.0625   0.0625   0.0625   0.0625   0.0625   0.0625   0.0625
     0.0625   0.0625   0.0625   0.0625   0.0625   0.0625   0.0625   0.0625
     0.0625   0.0625   0.0625   0.0625   0.0625   0.0625   0.0625   0.0625
     0.0625   0.0621   0.0615   0.0607   0.0577   0.0564   0.0096   0.0004
     0.0000   0.0000   0.0000   0.0000   0.0000   0.0000

          k = 0.2471-0.4280 0.0000 (  2203 PWs)   bands (ev):

   -19.7398 -19.6844  -6.8416  -6.6303  -6.0469  -5.9700  -5.4272  -5.3589
    -3.5097  -3.2918  -2.7984  -2.7085  -2.5659  -2.5555   5.8830   6.3003
     6.9667   7.1035   7.1996   7.2897   7.4401   7.6133   7.6993   8.0691
     8.3111   8.9282   9.3204   9.4199   9.7646   9.7835  10.0594  10.3554
    11.1577  11.1955  11.2048  11.4343  11.4618  11.7565  12.2564  13.3227
    13.3956  14.1585  16.4351  16.9907  17.4191  17.9250

     occupation numbers 
     0.0625   0.0625   0.0625   0.0625   0.0625   0.0625   0.0625   0.0625
     0.0625   0.0625   0.0625   0.0625   0.0625   0.0625   0.0625   0.0625
     0.0625   0.0625   0.0625   0.0625   0.0625   0.0625   0.0625   0.0625
     0.0625   0.0625   0.0625   0.0625   0.0625   0.0625   0.0625   0.0625
     0.0624   0.0624   0.0624   0.0613   0.0610   0.0517   0.0134   0.0000
     0.0000   0.0000   0.0000   0.0000   0.0000   0.0000

          k =-0.4942 0.0000 0.0000 (  2203 PWs)   bands (ev):

   -19.7398 -19.6844  -6.8416  -6.6302  -6.0470  -5.9700  -5.4272  -5.3589
    -3.5097  -3.2918  -2.7984  -2.7085  -2.5660  -2.5554   5.8829   6.3003
     6.9667   7.1032   7.2004   7.2892   7.4401   7.6132   7.6994   8.0691
     8.3111   8.9282   9.3204   9.4199   9.7644   9.7837  10.0593  10.3555
    11.1577  11.1955  11.2048  11.4343  11.4618  11.7565  12.2564  13.3227
    13.3956  14.1585  16.4351  16.9907  17.4191  17.9249

     occupation numbers 
     0.0625   0.0625   0.0625   0.0625   0.0625   0.0625   0.0625   0.0625
     0.0625   0.0625   0.0625   0.0625   0.0625   0.0625   0.0625   0.0625
     0.0625   0.0625   0.0625   0.0625   0.0625   0.0625   0.0625   0.0625
     0.0625   0.0625   0.0625   0.0625   0.0625   0.0625   0.0625   0.0625
     0.0624   0.0624   0.0624   0.0613   0.0610   0.0517   0.0134   0.0000
     0.0000   0.0000   0.0000   0.0000   0.0000   0.0000

          k = 0.4942 0.2853 0.4107 (  2202 PWs)   bands (ev):

   -19.7348 -19.6877  -7.1585  -6.4485  -6.2323  -5.9607  -5.5262  -5.2760
    -3.1891  -3.1224  -3.0404  -2.6480  -2.4784  -2.2198   5.7964   6.2865
     6.2924   6.8872   7.1440   7.2523   7.7412   7.7960   8.1555   8.3153
     8.4374   8.4679   8.5930   9.4155   9.6718  10.0308  10.0665  10.2901
    10.4327  11.1483  11.3518  11.5256  11.6492  11.7818  11.9706  12.4394
    13.3287  14.7986  17.0401  17.2628  17.5188  17.6074

     occupation numbers 
     0.0313   0.0313   0.0313   0.0313   0.0313   0.0313   0.0313   0.0313
     0.0313   0.0313   0.0313   0.0313   0.0313   0.0313   0.0313   0.0313
     0.0313   0.0313   0.0313   0.0313   0.0313   0.0313   0.0313   0.0313
     0.0313   0.0313   0.0313   0.0313   0.0312   0.0312   0.0312   0.0312
     0.0312   0.0312   0.0310   0.0300   0.0283   0.0251   0.0181   0.0024
     0.0000   0.0000   0.0000   0.0000   0.0000   0.0000

          k = 0.0000 0.5706-0.4107 (  2202 PWs)   bands (ev):

   -19.7348 -19.6877  -7.1585  -6.4485  -6.2323  -5.9607  -5.5262  -5.2760
    -3.1891  -3.1224  -3.0404  -2.6480  -2.4784  -2.2198   5.7964   6.2864
     6.2924   6.8872   7.1440   7.2523   7.7416   7.7956   8.1554   8.3154
     8.4375   8.4679   8.5930   9.4155   9.6718  10.0307  10.0666  10.2901
    10.4327  11.1483  11.3518  11.5256  11.6492  11.7818  11.9706  12.4394
    13.3287  14.7986  17.0401  17.2628  17.5188  17.6074

     occupation numbers 
     0.0313   0.0313   0.0313   0.0313   0.0313   0.0313   0.0313   0.0313
     0.0313   0.0313   0.0313   0.0313   0.0313   0.0313   0.0313   0.0313
     0.0313   0.0313   0.0313   0.0313   0.0313   0.0313   0.0313   0.0313
     0.0313   0.0313   0.0313   0.0313   0.0312   0.0312   0.0312   0.0312
     0.0312   0.0312   0.0310   0.0300   0.0283   0.0251   0.0181   0.0024
     0.0000   0.0000   0.0000   0.0000   0.0000   0.0000

          k = 0.7412-0.4280 0.0000 (  2204 PWs)   bands (ev):

   -19.7395 -19.6845  -6.7247  -6.5984  -6.1366  -5.8217  -5.6678  -5.5413
    -3.1692  -3.0874  -3.0433  -2.6731  -2.6522  -2.5825   5.9168   6.4975
     6.9761   7.1505   7.2097   7.3051   7.4256   7.5719   7.8647   8.0274
     8.3498   8.8193   9.3361   9.4737   9.5935   9.6795   9.8456  10.2173
    11.1543  11.2089  11.2839  11.4964  11.4983  11.6625  12.2617  13.2473
    13.3122  14.1813  16.6876  16.7218  17.5904  17.7928

     occupation numbers 
     0.0625   0.0625   0.0625   0.0625   0.0625   0.0625   0.0625   0.0625
     0.0625   0.0625   0.0625   0.0625   0.0625   0.0625   0.0625   0.0625
     0.0625   0.0625   0.0625   0.0625   0.0625   0.0625   0.0625   0.0625
     0.0625   0.0625   0.0625   0.0625   0.0625   0.0625   0.0625   0.0625
     0.0624   0.0624   0.0622   0.0605   0.0604   0.0561   0.0131   0.0000
     0.0000   0.0000   0.0000   0.0000   0.0000   0.0000

          k = 0.0000-0.8559 0.0000 (  2204 PWs)   bands (ev):

   -19.7394 -19.6846  -6.7271  -6.5941  -6.1390  -5.8237  -5.6704  -5.5360
    -3.1685  -3.0875  -3.0433  -2.6742  -2.6534  -2.5813   5.9233   6.4930
     6.9800   7.1485   7.2049   7.3028   7.4301   7.5698   7.8642   8.0228
     8.3453   8.8262   9.3384   9.4814   9.5925   9.6788   9.8455  10.2152
    11.1531  11.2078  11.2831  11.4960  11.4977  11.6640  12.2619  13.2464
    13.3112  14.1829  16.6884  16.7213  17.5897  17.7926

     occupation numbers 
     0.0625   0.0625   0.0625   0.0625   0.0625   0.0625   0.0625   0.0625
     0.0625   0.0625   0.0625   0.0625   0.0625   0.0625   0.0625   0.0625
     0.0625   0.0625   0.0625   0.0625   0.0625   0.0625   0.0625   0.0625
     0.0625   0.0625   0.0625   0.0625   0.0625   0.0625   0.0625   0.0625
     0.0624   0.0624   0.0622   0.0605   0.0604   0.0560   0.0131   0.0000
     0.0000   0.0000   0.0000   0.0000   0.0000   0.0000

          k = 0.4942-0.2853-0.1027 (  2211 PWs)   bands (ev):

   -19.7296 -19.6933  -6.9685  -6.5364  -6.3163  -5.6870  -5.6118  -5.3492
    -3.3138  -3.1634  -3.0274  -2.6018  -2.5588  -2.3768   5.9349   6.2193
     6.7094   6.9915   7.2185   7.2545   7.5284   7.7616   7.8730   7.9502
     8.2978   8.9637   9.0988   9.3969   9.5096   9.6591  10.0081  10.3725
    10.8610  11.3561  11.4870  11.4924  11.5526  11.5703  12.2775  12.7569
    13.4720  14.3450  16.8840  16.9333  17.5803  17.9270

     occupation numbers 
     0.0625   0.0625   0.0625   0.0625   0.0625   0.0625   0.0625   0.0625
     0.0625   0.0625   0.0625   0.0625   0.0625   0.0625   0.0625   0.0625
     0.0625   0.0625   0.0625   0.0625   0.0625   0.0625   0.0625   0.0625
     0.0625   0.0625   0.0625   0.0625   0.0625   0.0625   0.0625   0.0625
     0.0625   0.0619   0.0606   0.0605   0.0594   0.0590   0.0121   0.0004
     0.0000   0.0000   0.0000   0.0000   0.0000   0.0000

          k = 0.0000-0.5706 0.1027 (  2211 PWs)   bands (ev):

   -19.7300 -19.6935  -6.9640  -6.5374  -6.3155  -5.6899  -5.6176  -5.3446
    -3.3137  -3.1633  -3.0272  -2.6009  -2.5587  -2.3754   5.9289   6.2266
     6.7029   6.9885   7.2148   7.2520   7.5296   7.7632   7.8716   7.9522
     8.3028   8.9602   9.1033   9.3952   9.5072   9.6676  10.0094  10.3687
    10.8599  11.3567  11.4882  11.4928  11.5517  11.5708  12.2770  12.7568
    13.4740  14.3440  16.8837  16.9335  17.5806  17.9268

     occupation numbers 
     0.0625   0.0625   0.0625   0.0625   0.0625   0.0625   0.0625   0.0625
     0.0625   0.0625   0.0625   0.0625   0.0625   0.0625   0.0625   0.0625
     0.0625   0.0625   0.0625   0.0625   0.0625   0.0625   0.0625   0.0625
     0.0625   0.0625   0.0625   0.0625   0.0625   0.0625   0.0625   0.0625
     0.0625   0.0619   0.0606   0.0605   0.0594   0.0590   0.0122   0.0004
     0.0000   0.0000   0.0000   0.0000   0.0000   0.0000

          k = 0.7412 0.4280 0.3080 (  2210 PWs)   bands (ev):

   -19.7298 -19.6936  -6.9002  -6.4453  -6.2932  -5.7914  -5.7524  -5.4711
    -3.0675  -3.0486  -2.9618  -2.7263  -2.6188  -2.4254   5.9903   6.3706
     6.7816   6.9715   7.2358   7.2636   7.5573   7.7837   7.9138   7.9821
     8.2795   8.9467   8.9632   9.5105   9.5256   9.5279   9.6538  10.2051
    10.9307  11.3731  11.4736  11.4811  11.5994  11.6383  12.2354  12.7066
    13.4222  14.3137  17.0585  17.0667  17.5491  17.9022

     occupation numbers 
     0.0625   0.0625   0.0625   0.0625   0.0625   0.0625   0.0625   0.0625
     0.0625   0.0625   0.0625   0.0625   0.0625   0.0625   0.0625   0.0625
     0.0625   0.0625   0.0625   0.0625   0.0625   0.0625   0.0625   0.0625
     0.0625   0.0625   0.0625   0.0625   0.0625   0.0625   0.0625   0.0625
     0.0625   0.0618   0.0608   0.0607   0.0582   0.0570   0.0148   0.0006
     0.0000   0.0000   0.0000   0.0000   0.0000   0.0000

          k = 0.0000 0.8559-0.3080 (  2210 PWs)   bands (ev):

   -19.7298 -19.6936  -6.9001  -6.4453  -6.2932  -5.7915  -5.7524  -5.4711
    -3.0675  -3.0486  -2.9618  -2.7263  -2.6188  -2.4254   5.9902   6.3706
     6.7815   6.9716   7.2359   7.2634   7.5573   7.7837   7.9130   7.9832
     8.2792   8.9463   8.9635   9.5106   9.5259   9.5274   9.6537  10.2051
    10.9307  11.3731  11.4741  11.4807  11.5994  11.6383  12.2354  12.7066
    13.4222  14.3137  17.0585  17.0667  17.5491  17.9022

     occupation numbers 
     0.0625   0.0625   0.0625   0.0625   0.0625   0.0625   0.0625   0.0625
     0.0625   0.0625   0.0625   0.0625   0.0625   0.0625   0.0625   0.0625
     0.0625   0.0625   0.0625   0.0625   0.0625   0.0625   0.0625   0.0625
     0.0625   0.0625   0.0625   0.0625   0.0625   0.0625   0.0625   0.0625
     0.0625   0.0618   0.0608   0.0607   0.0582   0.0570   0.0148   0.0006
     0.0000   0.0000   0.0000   0.0000   0.0000   0.0000

          k = 0.2471 0.7133-0.2053 (  2206 PWs)   bands (ev):

   -19.7113 -19.7111  -6.8824  -6.8698  -6.0324  -6.0219  -5.4198  -5.4130
    -3.1506  -3.1502  -2.8107  -2.8090  -2.3830  -2.3800   6.0744   6.0888
     6.8932   6.8984   7.1104   7.1171   7.4062   7.4122   8.0591   8.0952
     8.7867   8.7944   8.9847   8.9903   9.5325   9.5394  10.0909  10.0947
    11.1501  11.1508  11.3677  11.3689  11.6509  11.6533  12.2995  12.3021
    14.0051  14.0140  17.4264  17.4271  17.8658  17.8689

     occupation numbers 
     0.0625   0.0625   0.0625   0.0625   0.0625   0.0625   0.0625   0.0625
     0.0625   0.0625   0.0625   0.0625   0.0625   0.0625   0.0625   0.0625
     0.0625   0.0625   0.0625   0.0625   0.0625   0.0625   0.0625   0.0625
     0.0625   0.0625   0.0625   0.0625   0.0625   0.0625   0.0625   0.0625
     0.0624   0.0624   0.0618   0.0618   0.0565   0.0564   0.0109   0.0107
     0.0000   0.0000   0.0000   0.0000   0.0000   0.0000

          k =-0.7412-0.1427-0.2053 (  2206 PWs)   bands (ev):

   -19.7115 -19.7115  -6.8809  -6.8651  -6.0323  -6.0308  -5.4203  -5.4094
    -3.1504  -3.1497  -2.8109  -2.8100  -2.3826  -2.3773   6.0763   6.0895
     6.8906   6.8935   7.1004   7.1158   7.4049   7.4068   8.0638   8.0991
     8.7947   8.7962   8.9870   8.9886   9.5391   9.5422  10.0891  10.0898
    11.1482  11.1488  11.3676  11.3694  11.6527  11.6538  12.2991  12.3019
    14.0055  14.0143  17.4268  17.4273  17.8656  17.8680

     occupation numbers 
     0.0625   0.0625   0.0625   0.0625   0.0625   0.0625   0.0625   0.0625
     0.0625   0.0625   0.0625   0.0625   0.0625   0.0625   0.0625   0.0625
     0.0625   0.0625   0.0625   0.0625   0.0625   0.0625   0.0625   0.0625
     0.0625   0.0625   0.0625   0.0625   0.0625   0.0625   0.0625   0.0625
     0.0624   0.0624   0.0618   0.0618   0.0565   0.0564   0.0109   0.0107
     0.0000   0.0000   0.0000   0.0000   0.0000   0.0000

     the Fermi energy is    12.0285 ev

!    total energy              =    -538.26108430 Ry
     Harris-Foulkes estimate   =    -538.26107863 Ry
     estimated scf accuracy    <          1.6E-09 Ry

     The total energy is the sum of the following terms:

     one-electron contribution =     -32.91687975 Ry
     hartree contribution      =      83.64289683 Ry
     xc contribution           =    -199.57855476 Ry
     ewald contribution        =    -389.44315552 Ry
     Hubbard energy            =       0.06828100 Ry
     smearing contrib. (-TS)   =      -0.03367210 Ry

     convergence has been achieved in  10 iterations

     init_run     :      6.75s CPU      6.89s WALL (       1 calls)
     electrons    :    318.52s CPU    323.72s WALL (       1 calls)

     Called by init_run:
     wfcinit      :      0.00s CPU      0.00s WALL (       1 calls)
     potinit      :      0.28s CPU      0.34s WALL (       1 calls)

     Called by electrons:
     c_bands      :    244.51s CPU    247.94s WALL (      10 calls)
     sum_band     :     53.43s CPU     54.04s WALL (      10 calls)
     v_of_rho     :      2.88s CPU      2.89s WALL (      11 calls)
     v_h          :      0.15s CPU      0.15s WALL (      11 calls)
     v_xc         :      2.73s CPU      2.73s WALL (      11 calls)
     newd         :     18.65s CPU     18.76s WALL (      11 calls)
     mix_rho      :      0.28s CPU      0.28s WALL (      10 calls)

     Called by c_bands:
     init_us_2    :      2.75s CPU      2.76s WALL (     720 calls)
     cegterg      :    236.95s CPU    239.95s WALL (     360 calls)

     Called by sum_band:
     sum_band:bec :      0.28s CPU      0.27s WALL (     360 calls)
     addusdens    :     11.49s CPU     11.52s WALL (      10 calls)

     Called by *egterg:
     h_psi        :    171.89s CPU    174.36s WALL (    1473 calls)
     s_psi        :      9.74s CPU      9.78s WALL (    1473 calls)
     g_psi        :      0.80s CPU      0.82s WALL (    1113 calls)
     cdiaghg      :     21.52s CPU     21.62s WALL (    1437 calls)
     cegterg:over :     11.92s CPU     12.21s WALL (    1113 calls)
     cegterg:upda :      7.20s CPU      7.23s WALL (    1113 calls)
     cegterg:last :      4.83s CPU      4.85s WALL (     396 calls)

     Called by h_psi:
     h_psi:vloc   :    138.78s CPU    141.05s WALL (    1473 calls)
     h_psi:vnl    :     21.01s CPU     21.16s WALL (    1473 calls)
     add_vuspsi   :      9.81s CPU      9.82s WALL (    1473 calls)
     vhpsi        :     11.60s CPU     11.67s WALL (    1473 calls)

     General routines
     calbec       :     23.89s CPU     24.10s WALL (    3666 calls)
     fft          :      1.95s CPU      2.11s WALL (     171 calls)
     ffts         :      0.06s CPU      0.15s WALL (      21 calls)
     fftw         :    136.04s CPU    138.43s WALL (   98896 calls)
     interpolate  :      0.34s CPU      0.58s WALL (      21 calls)
     davcio       :      0.01s CPU      0.76s WALL (     756 calls)

     Parallel routines
     fft_scatter  :     38.05s CPU     40.34s WALL (   99088 calls)
     Hubbard U routines
     new_ns       :      2.32s CPU      2.62s WALL (      10 calls)
     vhpsi        :     11.60s CPU     11.67s WALL (    1473 calls)

     PWSCF        :  5m25.69s CPU     5m31.41s WALL


   This run was terminated on:  15: 2: 6  11Nov2012            

=------------------------------------------------------------------------------=
