   JOB DONE.
=------------------------------------------------------------------------------=

     Program PWSCF v.5.0.1 starts on 13Nov2012 at 13:22:35 

     This program is part of the open-source Quantum ESPRESSO suite
     for quantum simulation of materials; please cite
         "P. Giannozzi et al., J. Phys.:Condens. Matter 21 395502 (2009);
          URL http://www.quantum-espresso.org", 
     in publications or presentations arising from this work. More details at
     http://www.quantum-espresso.org/quote.php

     Parallel version (MPI), running on     2 processors
     R & G space division:  proc/pool =    2

     Current dimensions of program PWSCF are:
     Max number of different atomic species (ntypx) = 10
     Max number of k-points (npk) =  40000
     Max angular momentum in pseudopotentials (lmaxx) =  3
     Reading input from CoLaO_U0_a15.in
               file Co.pbe-nd-rrkjus.UPF: wavefunction(s)  4S 3D renormalized
               file O.pbe-rrkjus.UPF: wavefunction(s)  2S renormalized
               file O.pbe-rrkjus.UPF: wavefunction(s)  2S renormalized

     Subspace diagonalization in iterative solution of the eigenvalue problem:
     a serial algorithm will be used


     Parallelization info
     --------------------
     sticks:   dense  smooth     PW     G-vecs:    dense   smooth      PW
     Min        1112     444    131                34808     8786    1448
     Max        1113     445    132                34809     8787    1449
     Sum        2225     889    263                69617    17573    2897


     Title: 
     GGA + U, U = 1D-40, alpha = 0.150                                          


     bravais-lattice index     =            5
     lattice parameter (alat)  =      10.3292  a.u.
     unit-cell volume          =     793.0599 (a.u.)^3
     number of atoms/cell      =           10
     number of atomic types    =            4
     number of electrons       =        76.00
     number of Kohn-Sham states=           46
     kinetic-energy cutoff     =      30.0000  Ry
     charge density cutoff     =     300.0000  Ry
     convergence threshold     =      1.0E-08
     mixing beta               =       0.2000
     number of iterations used =            8  plain     mixing
     Exchange-correlation      =  SLA  PW   PBE  PBE ( 1 4 3 4 0)
     EXX-fraction              =        0.00

     celldm(1)=  10.329242  celldm(2)=   0.000000  celldm(3)=   0.000000
     celldm(4)=   0.488100  celldm(5)=   0.000000  celldm(6)=   0.000000

     crystal axes: (cart. coord. in units of alat)
               a(1) = (   0.505915  -0.292090   0.811624 )  
               a(2) = (   0.000000   0.584180   0.811624 )  
               a(3) = (  -0.505915  -0.292090   0.811624 )  

     reciprocal axes: (cart. coord. in units 2 pi/alat)
               b(1) = (  0.988308 -0.570600  0.410699 )  
               b(2) = (  0.000000  1.141200  0.410699 )  
               b(3) = ( -0.988308 -0.570600  0.410699 )  


     PseudoPot. # 1 for Co read from file:
     /home/mcurnan/dft-course/Project1/example_LaCoO3/Co.pbe-nd-rrkjus.UPF
     MD5 check sum: 3e47a84addf5e975e0edeaeee2a73f59
     Pseudo is Ultrasoft + core correction, Zval =  9.0
     Generated by new atomic code, or converted to UPF format
     Using radial grid of  961 points,  6 beta functions with: 
                l(1) =   0
                l(2) =   0
                l(3) =   1
                l(4) =   1
                l(5) =   2
                l(6) =   2
     Q(r) pseudized with 0 coefficients 


     PseudoPot. # 2 for La read from file:
     /home/mcurnan/dft-course/Project1/example_LaCoO3/La.pbe-nsp-van.UPF
     MD5 check sum: b2f11743f52dde65f77d1302becd7929
     Pseudo is Ultrasoft + core correction, Zval = 11.0
     Generated by new atomic code, or converted to UPF format
     Using radial grid of  907 points,  6 beta functions with: 
                l(1) =   0
                l(2) =   0
                l(3) =   1
                l(4) =   1
                l(5) =   2
                l(6) =   2
     Q(r) pseudized with  6 coefficients,  rinner =    1.200   1.200   1.200
                                                       1.200   1.200

     PseudoPot. # 3 for O  read from file:
     /home/mcurnan/dft-course/Project1/example_LaCoO3/O.pbe-rrkjus.UPF
     MD5 check sum: 390ba29e75625707450f3bd3f0eb6be9
     Pseudo is Ultrasoft, Zval =  6.0
     Generated by new atomic code, or converted to UPF format
     Using radial grid of 1269 points,  4 beta functions with: 
                l(1) =   0
                l(2) =   0
                l(3) =   1
                l(4) =   1
     Q(r) pseudized with 0 coefficients 


     PseudoPot. # 4 for O  read from file:
     /home/mcurnan/dft-course/Project1/example_LaCoO3/O.pbe-rrkjus.UPF
     MD5 check sum: 390ba29e75625707450f3bd3f0eb6be9
     Pseudo is Ultrasoft, Zval =  6.0
     Generated by new atomic code, or converted to UPF format
     Using radial grid of 1269 points,  4 beta functions with: 
                l(1) =   0
                l(2) =   0
                l(3) =   1
                l(4) =   1
     Q(r) pseudized with 0 coefficients 


     atomic species   valence    mass     pseudopotential
        Co1            9.00     1.00000     Co( 1.00)
        La1           11.00     1.00000     La( 1.00)
        O1             6.00     1.00000     O ( 1.00)
        O2             6.00     1.00000     O ( 1.00)

     Starting magnetic structure 
     atomic species   magnetization
        Co1          1.000
        La1          0.000
        O1           0.000
        O2           0.000
 -----
     simplified LDA+U calculation, Hubbard_lmax = 2
     atomic species  L   Hubbard U  Hubbard alpha
        Co1          2    0.000000    0.000000
        La1          2    0.000000    0.000000
        O1           1    0.000000    0.150000
        O2           1    0.000000    0.000000
 -----

     No symmetry found


                                    s                        frac. trans.

      isym =  1     identity                                     

 cryst.   s( 1) = (     1          0          0      )
                  (     0          1          0      )
                  (     0          0          1      )

 cart.    s( 1) = (  1.0000000  0.0000000  0.0000000 )
                  (  0.0000000  1.0000000  0.0000000 )
                  (  0.0000000  0.0000000  1.0000000 )


     point group C_1 (1)    
     there are  1 classes
     the character table:

       E    
A      1.00

     the symmetry operations in each class:
     E        1

   Cartesian axes

     site n.     atom                  positions (alat units)
         1           Co1 tau(   1) = (   0.2228050  -0.1992639   1.0141240  )
         2           Co1 tau(   2) = (  -0.2831100   0.0928263   1.4199360  )
         3           La1 tau(   3) = (  -0.2831100   0.0928263   0.8112181  )
         4           La1 tau(   4) = (   0.2228050   0.3849164   1.2170300  )
         5           O1  tau(   5) = (   0.0000000   0.0000000   0.0000000  )
         6           O2  tau(   6) = (   0.0008601   0.1861491   1.6232478  )
         7           O2  tau(   7) = (   0.1616398   0.0923297   0.8116239  )
         8           O2  tau(   8) = (  -0.0603051  -0.1064377   1.2166242  )
         9           O2  tau(   9) = (   0.4447499  -0.0004966   1.2166242  )
        10           O2  tau(  10) = (  -0.2219449   0.3854130   1.2166242  )

   Crystallographic axes

     site n.     atom                  positions (cryst. coord.)
         1           Co1 tau(   1) = (  0.7504000  0.1891000  0.3100000  )
         2           Co1 tau(   2) = (  0.2504000  0.6891000  0.8100000  )
         3           La1 tau(   3) = (  0.0004000  0.4391000  0.5600000  )
         4           La1 tau(   4) = (  0.5004000  0.9391000  0.0600000  )
         5           O1  tau(   5) = (  0.0000000  0.0000000  0.0000000  )
         6           O2  tau(   6) = (  0.5613000  0.8791000  0.5596000  )
         7           O2  tau(   7) = (  0.4404000  0.4387000  0.1209000  )
         8           O2  tau(   8) = (  0.5008000  0.3782000  0.6200000  )
         9           O2  tau(   9) = (  0.9395000  0.4991000  0.0604000  )
        10           O2  tau(  10) = (  0.0604000  0.9395000  0.4991000  )

     number of k points=    72  gaussian smearing, width (Ry)=  0.0300
                       cart. coord. in units 2pi/alat
        k(    1) = (   0.0000000   0.0000000   0.0000000), wk =   0.0156250
        k(    2) = (  -0.2470771  -0.1426500   0.1026748), wk =   0.0312500
        k(    3) = (   0.4941541   0.2853000  -0.2053496), wk =   0.0156250
        k(    4) = (  -0.2470771   0.1426500   0.2053496), wk =   0.0312500
        k(    5) = (   0.4941541   0.5706001  -0.1026748), wk =   0.0312500
        k(    6) = (   0.2470771   0.4279500   0.0000000), wk =   0.0312500
        k(    7) = (   0.4941541  -0.2853000  -0.4106993), wk =   0.0156250
        k(    8) = (   0.0000000   0.0000000   0.3080244), wk =   0.0312500
        k(    9) = (   0.7412312   0.4279500   0.0000000), wk =   0.0312500
        k(   10) = (   0.4941541   0.2853000   0.1026748), wk =   0.0312500
        k(   11) = (   0.7412312  -0.4279500  -0.3080244), wk =   0.0312500
        k(   12) = (   0.4941541  -0.5706001  -0.2053496), wk =   0.0312500
        k(   13) = (   0.0000000   0.0000000  -0.6160489), wk =   0.0156250
        k(   14) = (  -0.2470771   0.1426500  -0.1026748), wk =   0.0312500
        k(   15) = (   0.0000000   0.2853000   0.1026748), wk =   0.0312500
        k(   16) = (   0.4941541  -0.2853000   0.2053496), wk =   0.0156250
        k(   17) = (   0.0000000  -0.5706001  -0.2053496), wk =   0.0156250
        k(   18) = (  -0.2470771  -0.1426500  -0.2053496), wk =   0.0312500
        k(   19) = (   0.0000000  -0.2853000   0.2053496), wk =   0.0312500
        k(   20) = (   0.4941541  -0.5706001   0.1026748), wk =   0.0312500
        k(   21) = (  -0.7412312   0.1426500  -0.1026748), wk =   0.0312500
        k(   22) = (   0.2470771  -0.7132501  -0.1026748), wk =   0.0312500
        k(   23) = (  -0.7412312  -0.1426500   0.1026748), wk =   0.0312500
        k(   24) = (   0.2470771   0.7132501   0.1026748), wk =   0.0312500
        k(   25) = (   0.2470771  -0.4279500   0.0000000), wk =   0.0312500
        k(   26) = (  -0.4941541   0.0000000   0.0000000), wk =   0.0312500
        k(   27) = (   0.4941541   0.2853000   0.4106993), wk =   0.0156250
        k(   28) = (   0.0000000   0.5706001  -0.4106993), wk =   0.0156250
        k(   29) = (   0.7412312  -0.4279500   0.0000000), wk =   0.0312500
        k(   30) = (   0.0000000  -0.8559001   0.0000000), wk =   0.0312500
        k(   31) = (   0.4941541  -0.2853000  -0.1026748), wk =   0.0312500
        k(   32) = (   0.0000000  -0.5706001   0.1026748), wk =   0.0312500
        k(   33) = (   0.7412312   0.4279500   0.3080244), wk =   0.0312500
        k(   34) = (   0.0000000   0.8559001  -0.3080244), wk =   0.0312500
        k(   35) = (   0.2470771   0.7132501  -0.2053496), wk =   0.0312500
        k(   36) = (  -0.7412312  -0.1426500  -0.2053496), wk =   0.0312500
        k(   37) = (   0.0000000   0.0000000   0.0000000), wk =   0.0156250
        k(   38) = (  -0.2470771  -0.1426500   0.1026748), wk =   0.0312500
        k(   39) = (   0.4941541   0.2853000  -0.2053496), wk =   0.0156250
        k(   40) = (  -0.2470771   0.1426500   0.2053496), wk =   0.0312500
        k(   41) = (   0.4941541   0.5706001  -0.1026748), wk =   0.0312500
        k(   42) = (   0.2470771   0.4279500   0.0000000), wk =   0.0312500
        k(   43) = (   0.4941541  -0.2853000  -0.4106993), wk =   0.0156250
        k(   44) = (   0.0000000   0.0000000   0.3080244), wk =   0.0312500
        k(   45) = (   0.7412312   0.4279500   0.0000000), wk =   0.0312500
        k(   46) = (   0.4941541   0.2853000   0.1026748), wk =   0.0312500
        k(   47) = (   0.7412312  -0.4279500  -0.3080244), wk =   0.0312500
        k(   48) = (   0.4941541  -0.5706001  -0.2053496), wk =   0.0312500
        k(   49) = (   0.0000000   0.0000000  -0.6160489), wk =   0.0156250
        k(   50) = (  -0.2470771   0.1426500  -0.1026748), wk =   0.0312500
        k(   51) = (   0.0000000   0.2853000   0.1026748), wk =   0.0312500
        k(   52) = (   0.4941541  -0.2853000   0.2053496), wk =   0.0156250
        k(   53) = (   0.0000000  -0.5706001  -0.2053496), wk =   0.0156250
        k(   54) = (  -0.2470771  -0.1426500  -0.2053496), wk =   0.0312500
        k(   55) = (   0.0000000  -0.2853000   0.2053496), wk =   0.0312500
        k(   56) = (   0.4941541  -0.5706001   0.1026748), wk =   0.0312500
        k(   57) = (  -0.7412312   0.1426500  -0.1026748), wk =   0.0312500
        k(   58) = (   0.2470771  -0.7132501  -0.1026748), wk =   0.0312500
        k(   59) = (  -0.7412312  -0.1426500   0.1026748), wk =   0.0312500
        k(   60) = (   0.2470771   0.7132501   0.1026748), wk =   0.0312500
        k(   61) = (   0.2470771  -0.4279500   0.0000000), wk =   0.0312500
        k(   62) = (  -0.4941541   0.0000000   0.0000000), wk =   0.0312500
        k(   63) = (   0.4941541   0.2853000   0.4106993), wk =   0.0156250
        k(   64) = (   0.0000000   0.5706001  -0.4106993), wk =   0.0156250
        k(   65) = (   0.7412312  -0.4279500   0.0000000), wk =   0.0312500
        k(   66) = (   0.0000000  -0.8559001   0.0000000), wk =   0.0312500
        k(   67) = (   0.4941541  -0.2853000  -0.1026748), wk =   0.0312500
        k(   68) = (   0.0000000  -0.5706001   0.1026748), wk =   0.0312500
        k(   69) = (   0.7412312   0.4279500   0.3080244), wk =   0.0312500
        k(   70) = (   0.0000000   0.8559001  -0.3080244), wk =   0.0312500
        k(   71) = (   0.2470771   0.7132501  -0.2053496), wk =   0.0312500
        k(   72) = (  -0.7412312  -0.1426500  -0.2053496), wk =   0.0312500

                       cryst. coord.
        k(    1) = (   0.0000000   0.0000000   0.0000000), wk =   0.0156250
        k(    2) = (   0.0000000   0.0000000   0.2500000), wk =   0.0312500
        k(    3) = (   0.0000000   0.0000000  -0.5000000), wk =   0.0156250
        k(    4) = (   0.0000000   0.2500000   0.2500000), wk =   0.0312500
        k(    5) = (   0.0000000   0.2500000  -0.5000000), wk =   0.0312500
        k(    6) = (   0.0000000   0.2500000  -0.2500000), wk =   0.0312500
        k(    7) = (   0.0000000  -0.5000000  -0.5000000), wk =   0.0156250
        k(    8) = (   0.2500000   0.2500000   0.2500000), wk =   0.0312500
        k(    9) = (   0.2500000   0.2500000  -0.5000000), wk =   0.0312500
        k(   10) = (   0.2500000   0.2500000  -0.2500000), wk =   0.0312500
        k(   11) = (   0.2500000  -0.5000000  -0.5000000), wk =   0.0312500
        k(   12) = (   0.2500000  -0.5000000  -0.2500000), wk =   0.0312500
        k(   13) = (  -0.5000000  -0.5000000  -0.5000000), wk =   0.0156250
        k(   14) = (  -0.2500000   0.0000000   0.0000000), wk =   0.0312500
        k(   15) = (   0.0000000   0.2500000   0.0000000), wk =   0.0312500
        k(   16) = (   0.5000000   0.0000000   0.0000000), wk =   0.0156250
        k(   17) = (   0.0000000  -0.5000000   0.0000000), wk =   0.0156250
        k(   18) = (  -0.2500000  -0.2500000   0.0000000), wk =   0.0312500
        k(   19) = (   0.2500000   0.0000000   0.2500000), wk =   0.0312500
        k(   20) = (   0.5000000  -0.2500000   0.0000000), wk =   0.0312500
        k(   21) = (  -0.5000000   0.0000000   0.2500000), wk =   0.0312500
        k(   22) = (   0.2500000  -0.5000000   0.0000000), wk =   0.0312500
        k(   23) = (  -0.2500000   0.0000000   0.5000000), wk =   0.0312500
        k(   24) = (   0.0000000   0.5000000  -0.2500000), wk =   0.0312500
        k(   25) = (   0.2500000  -0.2500000   0.0000000), wk =   0.0312500
        k(   26) = (  -0.2500000   0.0000000   0.2500000), wk =   0.0312500
        k(   27) = (   0.5000000   0.5000000   0.0000000), wk =   0.0156250
        k(   28) = (  -0.5000000   0.0000000  -0.5000000), wk =   0.0156250
        k(   29) = (   0.5000000  -0.2500000  -0.2500000), wk =   0.0312500
        k(   30) = (   0.2500000  -0.5000000   0.2500000), wk =   0.0312500
        k(   31) = (   0.2500000  -0.2500000  -0.2500000), wk =   0.0312500
        k(   32) = (   0.2500000  -0.2500000   0.2500000), wk =   0.0312500
        k(   33) = (   0.5000000   0.5000000  -0.2500000), wk =   0.0312500
        k(   34) = (  -0.5000000   0.2500000  -0.5000000), wk =   0.0312500
        k(   35) = (  -0.2500000   0.2500000  -0.5000000), wk =   0.0312500
        k(   36) = (  -0.5000000  -0.2500000   0.2500000), wk =   0.0312500
        k(   37) = (   0.0000000   0.0000000   0.0000000), wk =   0.0156250
        k(   38) = (   0.0000000   0.0000000   0.2500000), wk =   0.0312500
        k(   39) = (   0.0000000   0.0000000  -0.5000000), wk =   0.0156250
        k(   40) = (   0.0000000   0.2500000   0.2500000), wk =   0.0312500
        k(   41) = (   0.0000000   0.2500000  -0.5000000), wk =   0.0312500
        k(   42) = (   0.0000000   0.2500000  -0.2500000), wk =   0.0312500
        k(   43) = (   0.0000000  -0.5000000  -0.5000000), wk =   0.0156250
        k(   44) = (   0.2500000   0.2500000   0.2500000), wk =   0.0312500
        k(   45) = (   0.2500000   0.2500000  -0.5000000), wk =   0.0312500
        k(   46) = (   0.2500000   0.2500000  -0.2500000), wk =   0.0312500
        k(   47) = (   0.2500000  -0.5000000  -0.5000000), wk =   0.0312500
        k(   48) = (   0.2500000  -0.5000000  -0.2500000), wk =   0.0312500
        k(   49) = (  -0.5000000  -0.5000000  -0.5000000), wk =   0.0156250
        k(   50) = (  -0.2500000   0.0000000   0.0000000), wk =   0.0312500
        k(   51) = (   0.0000000   0.2500000   0.0000000), wk =   0.0312500
        k(   52) = (   0.5000000   0.0000000   0.0000000), wk =   0.0156250
        k(   53) = (   0.0000000  -0.5000000   0.0000000), wk =   0.0156250
        k(   54) = (  -0.2500000  -0.2500000   0.0000000), wk =   0.0312500
        k(   55) = (   0.2500000   0.0000000   0.2500000), wk =   0.0312500
        k(   56) = (   0.5000000  -0.2500000   0.0000000), wk =   0.0312500
        k(   57) = (  -0.5000000   0.0000000   0.2500000), wk =   0.0312500
        k(   58) = (   0.2500000  -0.5000000   0.0000000), wk =   0.0312500
        k(   59) = (  -0.2500000   0.0000000   0.5000000), wk =   0.0312500
        k(   60) = (   0.0000000   0.5000000  -0.2500000), wk =   0.0312500
        k(   61) = (   0.2500000  -0.2500000   0.0000000), wk =   0.0312500
        k(   62) = (  -0.2500000   0.0000000   0.2500000), wk =   0.0312500
        k(   63) = (   0.5000000   0.5000000   0.0000000), wk =   0.0156250
        k(   64) = (  -0.5000000   0.0000000  -0.5000000), wk =   0.0156250
        k(   65) = (   0.5000000  -0.2500000  -0.2500000), wk =   0.0312500
        k(   66) = (   0.2500000  -0.5000000   0.2500000), wk =   0.0312500
        k(   67) = (   0.2500000  -0.2500000  -0.2500000), wk =   0.0312500
        k(   68) = (   0.2500000  -0.2500000   0.2500000), wk =   0.0312500
        k(   69) = (   0.5000000   0.5000000  -0.2500000), wk =   0.0312500
        k(   70) = (  -0.5000000   0.2500000  -0.5000000), wk =   0.0312500
        k(   71) = (  -0.2500000   0.2500000  -0.5000000), wk =   0.0312500
        k(   72) = (  -0.5000000  -0.2500000   0.2500000), wk =   0.0312500

     Dense  grid:    69617 G-vectors     FFT dimensions: (  60,  60,  60)

     Smooth grid:    17573 G-vectors     FFT dimensions: (  40,  40,  40)

     Largest allocated arrays     est. size (Mb)     dimensions
        Kohn-Sham Wavefunctions         0.79 Mb     (   1119,   46)
        Atomic wavefunctions            1.06 Mb     (   1119,   62)
        NL pseudopotentials             2.05 Mb     (   1119,  120)
        Each V/rho on FFT grid          3.30 Mb     ( 108000,   2)
        Each G-vector array             0.27 Mb     (  34808)
        G-vector shells                 0.04 Mb     (   4682)
     Largest temporary arrays     est. size (Mb)     dimensions
        Auxiliary wavefunctions         3.14 Mb     (   1119,  184)
        Each subspace H/S matrix        0.52 Mb     ( 184, 184)
        Each <psi_i|beta_j> matrix      0.08 Mb     (    120,   46)
        Arrays for rho mixing          13.18 Mb     ( 108000,   8)

     Check: negative/imaginary core charge=   -0.000028    0.000000

     The initial density is read from file :
     /home/mcurnan/dft-course/Project1/example_LaCoO3/0/O/alpha/CoLaO_U0.save/charge-density.dat

 --- in v_hubbard ---
Hubbard energy    0.0600
 -------
     Number of +U iterations with fixed ns =  0
     Starting occupations:
 --- enter write_ns ---
 LDA+U parameters:
U( 1)     =  0.00000000
alpha( 1) =  0.00000000
U( 2)     =  0.00000000
alpha( 2) =  0.00000000
U( 3)     =  0.00000000
alpha( 3) =  0.15000000
U( 4)     =  0.00000000
alpha( 4) =  0.00000000
atom    1   Tr[ns(na)] (up, down, total) =   4.56592  3.37374  7.93966
   spin  1
    eigenvalues: 
  0.785  0.785  0.999  0.999  0.999
    eigenvectors:
  0.000  0.000  0.000  0.000  1.000
  0.130  0.516  0.189  0.165  0.000
  0.516  0.130  0.165  0.189  0.000
  0.034  0.320  0.646  0.000  0.000
  0.320  0.034  0.000  0.646  0.000
    occupations:
  0.999  0.000  0.000  0.000  0.000
  0.000  0.861  0.000 -0.073  0.072
  0.000  0.000  0.861  0.072  0.073
  0.000 -0.073  0.072  0.923  0.000
  0.000  0.072  0.073  0.000  0.923
   spin  2
    eigenvalues: 
  0.474  0.474  0.773  0.826  0.826
    eigenvectors:
  0.000  0.000  1.000  0.000  0.000
  0.000  0.639  0.000  0.203  0.158
  0.639  0.000  0.000  0.158  0.203
  0.344  0.017  0.000  0.149  0.490
  0.017  0.344  0.000  0.490  0.149
    occupations:
  0.773  0.000  0.000  0.000  0.000
  0.000  0.601  0.000 -0.037  0.165
  0.000  0.000  0.601  0.165  0.037
  0.000 -0.037  0.165  0.699  0.000
  0.000  0.165  0.037  0.000  0.699
atomic mag. moment =     1.192178
atom    2   Tr[ns(na)] (up, down, total) =   4.67288  3.22474  7.89762
   spin  1
    eigenvalues: 
  0.838  0.838  0.999  0.999  0.999
    eigenvectors:
  0.000  0.000  0.000  0.000  1.000
  0.018  0.628  0.244  0.110  0.000
  0.628  0.018  0.110  0.244  0.000
  0.235  0.119  0.025  0.622  0.000
  0.119  0.235  0.622  0.025  0.000
    occupations:
  0.999  0.000  0.000  0.000  0.000
  0.000  0.895  0.000  0.054  0.054
  0.000  0.000  0.895  0.054 -0.054
  0.000  0.054  0.054  0.942  0.000
  0.000  0.054 -0.054  0.000  0.942
   spin  2
    eigenvalues: 
  0.459  0.459  0.730  0.788  0.788
    eigenvectors:
  0.000  0.000  1.000  0.000  0.000
  0.517  0.119  0.000  0.010  0.355
  0.119  0.517  0.000  0.355  0.010
  0.143  0.222  0.000  0.633  0.003
  0.222  0.143  0.000  0.003  0.633
    occupations:
  0.730  0.000  0.000  0.000  0.000
  0.000  0.579  0.000  0.036  0.154
  0.000  0.000  0.579  0.154 -0.036
  0.000  0.036  0.154  0.668  0.000
  0.000  0.154 -0.036  0.000  0.668
atomic mag. moment =     1.448145
atom    3   Tr[ns(na)] (up, down, total) =   1.91460  1.90025  3.81485
   spin  1
    eigenvalues: 
  0.357  0.357  0.387  0.407  0.407
    eigenvectors:
  0.000  0.000  1.000  0.000  0.000
  0.130  0.794  0.000  0.024  0.052
  0.794  0.130  0.000  0.052  0.024
  0.065  0.011  0.000  0.640  0.284
  0.011  0.065  0.000  0.284  0.640
    occupations:
  0.387  0.000  0.000  0.000  0.000
  0.000  0.361  0.000  0.000  0.013
  0.000  0.000  0.361  0.013  0.000
  0.000  0.000  0.013  0.403  0.000
  0.000  0.013  0.000  0.000  0.403
   spin  2
    eigenvalues: 
  0.353  0.353  0.387  0.404  0.404
    eigenvectors:
  0.000  0.000  1.000  0.000  0.000
  0.322  0.588  0.000  0.074  0.016
  0.588  0.322  0.000  0.016  0.074
  0.060  0.030  0.000  0.174  0.736
  0.030  0.060  0.000  0.736  0.174
    occupations:
  0.387  0.000  0.000  0.000  0.000
  0.000  0.358  0.000  0.000  0.015
  0.000  0.000  0.358  0.015  0.000
  0.000  0.000  0.015  0.399  0.000
  0.000  0.015  0.000  0.000  0.399
atomic mag. moment =     0.014344
atom    4   Tr[ns(na)] (up, down, total) =   1.91459  1.90025  3.81485
   spin  1
    eigenvalues: 
  0.357  0.357  0.387  0.407  0.407
    eigenvectors:
  0.000  0.000  1.000  0.000  0.000
  0.720  0.204  0.000  0.032  0.044
  0.204  0.720  0.000  0.044  0.032
  0.017  0.058  0.000  0.521  0.403
  0.058  0.017  0.000  0.403  0.521
    occupations:
  0.387  0.000  0.000  0.000  0.000
  0.000  0.361  0.000  0.000  0.013
  0.000  0.000  0.361  0.013  0.000
  0.000  0.000  0.013  0.403  0.000
  0.000  0.013  0.000  0.000  0.403
   spin  2
    eigenvalues: 
  0.353  0.353  0.387  0.404  0.404
    eigenvectors:
  0.000  0.000  1.000  0.000  0.000
  0.723  0.187  0.000  0.047  0.043
  0.187  0.723  0.000  0.043  0.047
  0.020  0.070  0.000  0.419  0.491
  0.070  0.020  0.000  0.491  0.419
    occupations:
  0.387  0.000  0.000  0.000  0.000
  0.000  0.358  0.000  0.000  0.015
  0.000  0.000  0.358  0.015  0.000
  0.000  0.000  0.015  0.399  0.000
  0.000  0.015  0.000  0.000  0.399
atomic mag. moment =     0.014343
atom    5   Tr[ns(na)] (up, down, total) =   2.74224  2.70308  5.44532
   spin  1
    eigenvalues: 
  0.844  0.947  0.951
    eigenvectors:
  0.337  0.000  0.663
  0.508  0.244  0.248
  0.155  0.756  0.089
    occupations:
  0.915 -0.044  0.025
 -0.044  0.896  0.029
  0.025  0.029  0.932
   spin  2
    eigenvalues: 
  0.864  0.920  0.920
    eigenvectors:
  0.333  0.044  0.622
  0.514  0.111  0.376
  0.153  0.845  0.002
    occupations:
  0.901 -0.023  0.013
 -0.023  0.891  0.016
  0.013  0.016  0.911
atomic mag. moment =     0.039165
atom    6   Tr[ns(na)] (up, down, total) =   2.74225  2.70308  5.44533
   spin  1
    eigenvalues: 
  0.844  0.947  0.951
    eigenvectors:
  0.337  0.000  0.663
  0.487  0.256  0.257
  0.176  0.744  0.080
    occupations:
  0.915  0.044  0.026
  0.044  0.898 -0.030
  0.026 -0.030  0.929
   spin  2
    eigenvalues: 
  0.864  0.920  0.920
    eigenvectors:
  0.333  0.045  0.622
  0.486  0.398  0.116
  0.181  0.558  0.262
    occupations:
  0.901  0.022  0.014
  0.022  0.893 -0.016
  0.014 -0.016  0.910
atomic mag. moment =     0.039166
atom    7   Tr[ns(na)] (up, down, total) =   2.74225  2.70308  5.44533
   spin  1
    eigenvalues: 
  0.844  0.947  0.951
    eigenvectors:
  0.337  0.000  0.663
  0.000  1.000  0.000
  0.663  0.000  0.337
    occupations:
  0.915  0.001 -0.051
  0.001  0.947  0.001
 -0.051  0.001  0.880
   spin  2
    eigenvalues: 
  0.864  0.920  0.920
    eigenvectors:
  0.333  0.051  0.616
  0.000  0.916  0.084
  0.666  0.033  0.301
    occupations:
  0.901  0.001 -0.026
  0.001  0.920  0.001
 -0.026  0.001  0.883
atomic mag. moment =     0.039166
atom    8   Tr[ns(na)] (up, down, total) =   2.74225  2.70308  5.44532
   spin  1
    eigenvalues: 
  0.844  0.947  0.951
    eigenvectors:
  0.337  0.000  0.663
  0.508  0.244  0.248
  0.155  0.756  0.089
    occupations:
  0.915 -0.044  0.025
 -0.044  0.896  0.029
  0.025  0.029  0.932
   spin  2
    eigenvalues: 
  0.864  0.920  0.920
    eigenvectors:
  0.333  0.045  0.622
  0.514  0.109  0.377
  0.153  0.845  0.002
    occupations:
  0.901 -0.023  0.013
 -0.023  0.891  0.016
  0.013  0.016  0.911
atomic mag. moment =     0.039170
atom    9   Tr[ns(na)] (up, down, total) =   2.74225  2.70308  5.44533
   spin  1
    eigenvalues: 
  0.844  0.947  0.951
    eigenvectors:
  0.337  0.000  0.663
  0.487  0.256  0.257
  0.176  0.744  0.080
    occupations:
  0.915  0.044  0.026
  0.044  0.898 -0.030
  0.026 -0.030  0.929
   spin  2
    eigenvalues: 
  0.864  0.920  0.920
    eigenvectors:
  0.333  0.044  0.622
  0.486  0.397  0.117
  0.181  0.559  0.260
    occupations:
  0.901  0.022  0.014
  0.022  0.893 -0.016
  0.014 -0.016  0.910
atomic mag. moment =     0.039164
atom   10   Tr[ns(na)] (up, down, total) =   2.74225  2.70308  5.44533
   spin  1
    eigenvalues: 
  0.844  0.947  0.951
    eigenvectors:
  0.337  0.000  0.663
  0.000  1.000  0.000
  0.663  0.000  0.337
    occupations:
  0.915  0.001 -0.051
  0.001  0.947  0.001
 -0.051  0.001  0.880
   spin  2
    eigenvalues: 
  0.864  0.920  0.920
    eigenvectors:
  0.333  0.045  0.621
  0.000  0.925  0.075
  0.666  0.030  0.304
    occupations:
  0.901  0.001 -0.026
  0.001  0.920  0.001
 -0.026  0.001  0.883
atomic mag. moment =     0.039164
N of occupied +U levels =  56.1389441
 --- exit write_ns ---
 LDA+U Projector read from file 
     Starting wfc from file

     total cpu time spent up to now is        8.4 secs

     per-process dynamical memory:   100.5 Mb

     Self-consistent Calculation

     iteration #  1     ecut=    30.00 Ry     beta=0.20
     Davidson diagonalization with overlap
     c_bands:  1 eigenvalues not converged
     c_bands:  1 eigenvalues not converged
     c_bands:  1 eigenvalues not converged
     c_bands:  1 eigenvalues not converged
     c_bands:  1 eigenvalues not converged
     c_bands:  1 eigenvalues not converged
     c_bands:  1 eigenvalues not converged
     c_bands:  1 eigenvalues not converged
     c_bands:  1 eigenvalues not converged
     c_bands:  1 eigenvalues not converged
     c_bands:  1 eigenvalues not converged
     c_bands:  1 eigenvalues not converged
     c_bands:  1 eigenvalues not converged
     c_bands:  1 eigenvalues not converged
     c_bands:  1 eigenvalues not converged
     c_bands:  1 eigenvalues not converged
     c_bands:  1 eigenvalues not converged
     c_bands:  1 eigenvalues not converged
     c_bands:  1 eigenvalues not converged
     c_bands:  1 eigenvalues not converged
     c_bands:  1 eigenvalues not converged
     c_bands:  1 eigenvalues not converged
     c_bands:  1 eigenvalues not converged
     c_bands:  1 eigenvalues not converged
     c_bands:  1 eigenvalues not converged
     c_bands:  1 eigenvalues not converged
     c_bands:  1 eigenvalues not converged
     c_bands:  1 eigenvalues not converged
     c_bands:  1 eigenvalues not converged
     c_bands:  1 eigenvalues not converged
     c_bands:  1 eigenvalues not converged
     ethr =  1.00E-10,  avg # of iterations = 16.8
 --- enter write_ns ---
 LDA+U parameters:
U( 1)     =  0.00000000
alpha( 1) =  0.00000000
U( 2)     =  0.00000000
alpha( 2) =  0.00000000
U( 3)     =  0.00000000
alpha( 3) =  0.15000000
U( 4)     =  0.00000000
alpha( 4) =  0.00000000
atom    1   Tr[ns(na)] (up, down, total) =   4.56763  3.38003  7.94766
   spin  1
    eigenvalues: 
  0.786  0.786  0.999  0.999  0.999
    eigenvectors:
  0.000  0.000  0.006  0.005  0.989
  0.024  0.622  0.010  0.343  0.001
  0.623  0.024  0.342  0.009  0.003
  0.108  0.245  0.212  0.428  0.007
  0.245  0.109  0.430  0.215  0.000
    occupations:
  0.999  0.000  0.000  0.000  0.000
  0.000  0.861  0.000 -0.072  0.072
  0.000  0.000  0.861  0.072  0.072
  0.000 -0.072  0.072  0.923  0.000
  0.000  0.072  0.072  0.000  0.923
   spin  2
    eigenvalues: 
  0.475  0.477  0.774  0.827  0.828
    eigenvectors:
  0.000  0.000  0.999  0.000  0.001
  0.123  0.516  0.000  0.138  0.223
  0.516  0.123  0.000  0.223  0.138
  0.221  0.140  0.000  0.256  0.382
  0.140  0.220  0.000  0.383  0.256
    occupations:
  0.774 -0.001  0.000  0.001 -0.001
 -0.001  0.603 -0.001 -0.036  0.164
  0.000 -0.001  0.602  0.165  0.037
  0.001 -0.036  0.165  0.700 -0.001
 -0.001  0.164  0.037 -0.001  0.700
atomic mag. moment =     1.187609
atom    2   Tr[ns(na)] (up, down, total) =   4.67342  3.23053  7.90395
   spin  1
    eigenvalues: 
  0.838  0.839  0.999  0.999  0.999
    eigenvectors:
  0.000  0.000  0.010  0.011  0.978
  0.324  0.322  0.205  0.141  0.008
  0.322  0.324  0.146  0.209  0.000
  0.000  0.354  0.635  0.006  0.005
  0.354  0.000  0.005  0.633  0.009
    occupations:
  0.999  0.000  0.000  0.000  0.000
  0.000  0.895  0.000  0.054  0.054
  0.000  0.000  0.895  0.054 -0.054
  0.000  0.054  0.054  0.942  0.000
  0.000  0.054 -0.054  0.000  0.942
   spin  2
    eigenvalues: 
  0.460  0.462  0.731  0.788  0.790
    eigenvectors:
  0.000  0.000  0.999  0.000  0.001
  0.200  0.435  0.000  0.056  0.309
  0.435  0.201  0.000  0.309  0.056
  0.317  0.047  0.000  0.617  0.019
  0.047  0.317  0.000  0.019  0.616
    occupations:
  0.731 -0.001  0.000  0.000 -0.001
 -0.001  0.581 -0.001  0.036  0.154
  0.000 -0.001  0.580  0.154 -0.035
  0.000  0.036  0.154  0.669  0.000
 -0.001  0.154 -0.035  0.000  0.670
atomic mag. moment =     1.442893
atom    3   Tr[ns(na)] (up, down, total) =   1.91652  1.90192  3.81844
   spin  1
    eigenvalues: 
  0.357  0.358  0.387  0.407  0.408
    eigenvectors:
  0.000  0.000  0.999  0.000  0.000
  0.697  0.229  0.000  0.017  0.056
  0.230  0.696  0.000  0.057  0.017
  0.019  0.055  0.000  0.703  0.223
  0.054  0.019  0.000  0.222  0.704
    occupations:
  0.387  0.000  0.000  0.000  0.000
  0.000  0.361  0.000  0.000  0.013
  0.000  0.000  0.361  0.013  0.000
  0.000  0.000  0.013  0.404  0.000
  0.000  0.013  0.000  0.000  0.404
   spin  2
    eigenvalues: 
  0.353  0.353  0.387  0.404  0.404
    eigenvectors:
  0.000  0.000  1.000  0.000  0.000
  0.683  0.229  0.000  0.020  0.067
  0.230  0.682  0.000  0.069  0.020
  0.023  0.065  0.000  0.689  0.223
  0.064  0.024  0.000  0.222  0.690
    occupations:
  0.387  0.000  0.000  0.000  0.000
  0.000  0.358  0.000  0.000  0.014
  0.000  0.000  0.358  0.014  0.000
  0.000  0.000  0.014  0.400  0.000
  0.000  0.014  0.000  0.000  0.400
atomic mag. moment =     0.014600
atom    4   Tr[ns(na)] (up, down, total) =   1.91629  1.90182  3.81811
   spin  1
    eigenvalues: 
  0.357  0.358  0.387  0.407  0.407
    eigenvectors:
  0.000  0.000  1.000  0.000  0.000
  0.236  0.686  0.000  0.019  0.060
  0.690  0.234  0.000  0.056  0.020
  0.055  0.021  0.000  0.687  0.237
  0.020  0.059  0.000  0.238  0.683
    occupations:
  0.387  0.000  0.000  0.000  0.000
  0.000  0.361  0.000  0.000  0.013
  0.000  0.000  0.361  0.013  0.000
  0.000  0.000  0.013  0.403  0.000
  0.000  0.013  0.000  0.000  0.403
   spin  2
    eigenvalues: 
  0.353  0.354  0.387  0.404  0.404
    eigenvectors:
  0.000  0.000  1.000  0.000  0.000
  0.235  0.673  0.000  0.023  0.070
  0.677  0.233  0.000  0.066  0.024
  0.065  0.025  0.000  0.664  0.246
  0.024  0.068  0.000  0.247  0.660
    occupations:
  0.387  0.000  0.000  0.000  0.000
  0.000  0.358  0.000  0.000  0.015
  0.000  0.000  0.358  0.014  0.000
  0.000  0.000  0.014  0.399  0.000
  0.000  0.015  0.000  0.000  0.399
atomic mag. moment =     0.014466
atom    5   Tr[ns(na)] (up, down, total) =   2.73190  2.69011  5.42201
   spin  1
    eigenvalues: 
  0.837  0.946  0.950
    eigenvectors:
  0.338  0.000  0.662
  0.507  0.244  0.249
  0.156  0.756  0.089
    occupations:
  0.912 -0.047  0.026
 -0.047  0.891  0.030
  0.026  0.030  0.929
   spin  2
    eigenvalues: 
  0.860  0.915  0.916
    eigenvectors:
  0.334  0.663  0.002
  0.514  0.229  0.257
  0.152  0.107  0.741
    occupations:
  0.896 -0.023  0.012
 -0.023  0.887  0.016
  0.012  0.016  0.907
atomic mag. moment =     0.041795
atom    6   Tr[ns(na)] (up, down, total) =   2.74256  2.70378  5.44634
   spin  1
    eigenvalues: 
  0.844  0.947  0.951
    eigenvectors:
  0.336  0.000  0.664
  0.488  0.258  0.254
  0.176  0.742  0.082
    occupations:
  0.915  0.043  0.026
  0.043  0.898 -0.030
  0.026 -0.030  0.930
   spin  2
    eigenvalues: 
  0.864  0.920  0.920
    eigenvectors:
  0.334  0.012  0.655
  0.485  0.338  0.176
  0.181  0.650  0.169
    occupations:
  0.901  0.023  0.014
  0.023  0.893 -0.016
  0.014 -0.016  0.910
atomic mag. moment =     0.038781
atom    7   Tr[ns(na)] (up, down, total) =   2.74256  2.70378  5.44634
   spin  1
    eigenvalues: 
  0.844  0.947  0.951
    eigenvectors:
  0.336  0.000  0.664
  0.000  1.000  0.000
  0.664  0.000  0.336
    occupations:
  0.915  0.001 -0.051
  0.001  0.947  0.001
 -0.051  0.001  0.880
   spin  2
    eigenvalues: 
  0.864  0.920  0.920
    eigenvectors:
  0.334  0.003  0.663
  0.000  0.993  0.007
  0.666  0.004  0.330
    occupations:
  0.901  0.001 -0.026
  0.001  0.920  0.001
 -0.026  0.001  0.883
atomic mag. moment =     0.038781
atom    8   Tr[ns(na)] (up, down, total) =   2.74354  2.70365  5.44718
   spin  1
    eigenvalues: 
  0.845  0.947  0.951
    eigenvectors:
  0.337  0.000  0.663
  0.508  0.244  0.248
  0.156  0.756  0.089
    occupations:
  0.915 -0.044  0.024
 -0.044  0.896  0.028
  0.024  0.028  0.932
   spin  2
    eigenvalues: 
  0.864  0.920  0.920
    eigenvectors:
  0.334  0.569  0.098
  0.513  0.081  0.405
  0.153  0.350  0.497
    occupations:
  0.901 -0.023  0.013
 -0.023  0.891  0.016
  0.013  0.016  0.911
atomic mag. moment =     0.039891
atom    9   Tr[ns(na)] (up, down, total) =   2.74261  2.70372  5.44633
   spin  1
    eigenvalues: 
  0.844  0.947  0.951
    eigenvectors:
  0.338  0.000  0.662
  0.485  0.261  0.254
  0.177  0.739  0.084
    occupations:
  0.915  0.043  0.026
  0.043  0.898 -0.030
  0.026 -0.030  0.929
   spin  2
    eigenvalues: 
  0.864  0.920  0.920
    eigenvectors:
  0.333  0.005  0.662
  0.486  0.316  0.198
  0.181  0.679  0.141
    occupations:
  0.901  0.023  0.014
  0.023  0.893 -0.016
  0.014 -0.016  0.910
atomic mag. moment =     0.038894
atom   10   Tr[ns(na)] (up, down, total) =   2.74261  2.70372  5.44633
   spin  1
    eigenvalues: 
  0.844  0.947  0.951
    eigenvectors:
  0.338  0.000  0.662
  0.000  1.000  0.000
  0.662  0.000  0.338
    occupations:
  0.915  0.001 -0.051
  0.001  0.947  0.001
 -0.051  0.001  0.880
   spin  2
    eigenvalues: 
  0.864  0.920  0.920
    eigenvectors:
  0.333  0.009  0.658
  0.000  0.983  0.016
  0.666  0.008  0.326
    occupations:
  0.901  0.001 -0.026
  0.001  0.920  0.001
 -0.026  0.001  0.883
atomic mag. moment =     0.038894
N of occupied +U levels =  56.1426919
 --- exit write_ns ---
 --- in v_hubbard ---
Hubbard energy    0.0600
 -------

     total cpu time spent up to now is      194.8 secs

     total energy              =    -538.29537513 Ry
     Harris-Foulkes estimate   =    -538.29552511 Ry
     estimated scf accuracy    <       0.00046183 Ry

     total magnetization       =     3.53 Bohr mag/cell
     absolute magnetization    =     3.69 Bohr mag/cell

     iteration #  2     ecut=    30.00 Ry     beta=0.20
     Davidson diagonalization with overlap
     ethr =  6.08E-07,  avg # of iterations =  2.0
 --- enter write_ns ---
 LDA+U parameters:
U( 1)     =  0.00000000
alpha( 1) =  0.00000000
U( 2)     =  0.00000000
alpha( 2) =  0.00000000
U( 3)     =  0.00000000
alpha( 3) =  0.15000000
U( 4)     =  0.00000000
alpha( 4) =  0.00000000
atom    1   Tr[ns(na)] (up, down, total) =   4.56448  3.36776  7.93224
   spin  1
    eigenvalues: 
  0.784  0.784  0.999  0.999  0.999
    eigenvectors:
  0.000  0.000  0.001  0.001  0.998
  0.046  0.600  0.013  0.341  0.000
  0.600  0.047  0.340  0.013  0.000
  0.083  0.270  0.198  0.448  0.000
  0.270  0.084  0.448  0.197  0.001
    occupations:
  0.999  0.000  0.000  0.000  0.000
  0.000  0.860  0.000 -0.073  0.072
  0.000  0.000  0.860  0.072  0.073
  0.000 -0.073  0.072  0.923  0.000
  0.000  0.072  0.073  0.000  0.923
   spin  2
    eigenvalues: 
  0.473  0.475  0.771  0.824  0.824
    eigenvectors:
  0.000  0.000  1.000  0.000  0.000
  0.124  0.515  0.000  0.121  0.240
  0.515  0.124  0.000  0.240  0.121
  0.220  0.141  0.000  0.288  0.351
  0.141  0.220  0.000  0.351  0.288
    occupations:
  0.771  0.000  0.000  0.000  0.000
  0.000  0.601  0.000 -0.036  0.164
  0.000  0.000  0.600  0.164  0.037
  0.000 -0.036  0.164  0.698  0.000
  0.000  0.164  0.037  0.000  0.698
atomic mag. moment =     1.196719
atom    2   Tr[ns(na)] (up, down, total) =   4.67383  3.23138  7.90521
   spin  1
    eigenvalues: 
  0.838  0.839  0.999  0.999  0.999
    eigenvectors:
  0.000  0.000  0.004  0.013  0.983
  0.299  0.347  0.187  0.166  0.000
  0.347  0.299  0.165  0.183  0.006
  0.000  0.353  0.643  0.000  0.003
  0.354  0.000  0.001  0.637  0.008
    occupations:
  0.999  0.000  0.000  0.000  0.000
  0.000  0.895  0.000  0.054  0.054
  0.000  0.000  0.895  0.054 -0.054
  0.000  0.054  0.054  0.942  0.000
  0.000  0.054 -0.054  0.000  0.942
   spin  2
    eigenvalues: 
  0.459  0.460  0.732  0.790  0.790
    eigenvectors:
  0.000  0.000  1.000  0.000  0.000
  0.200  0.435  0.000  0.086  0.278
  0.435  0.200  0.000  0.278  0.086
  0.318  0.047  0.000  0.588  0.048
  0.047  0.318  0.000  0.048  0.588
    occupations:
  0.732  0.000  0.000  0.000  0.000
  0.000  0.580  0.000  0.037  0.155
  0.000  0.000  0.580  0.155 -0.036
  0.000  0.037  0.155  0.669  0.000
  0.000  0.155 -0.036  0.000  0.670
atomic mag. moment =     1.442452
atom    3   Tr[ns(na)] (up, down, total) =   1.91565  1.90124  3.81689
   spin  1
    eigenvalues: 
  0.357  0.357  0.387  0.407  0.407
    eigenvectors:
  0.000  0.000  1.000  0.000  0.000
  0.697  0.228  0.000  0.016  0.059
  0.228  0.697  0.000  0.059  0.016
  0.019  0.056  0.000  0.717  0.208
  0.056  0.019  0.000  0.208  0.717
    occupations:
  0.387  0.000  0.000  0.000  0.000
  0.000  0.361  0.000  0.000  0.013
  0.000  0.000  0.361  0.013  0.000
  0.000  0.000  0.013  0.403  0.000
  0.000  0.013  0.000  0.000  0.403
   spin  2
    eigenvalues: 
  0.353  0.353  0.387  0.404  0.404
    eigenvectors:
  0.000  0.000  1.000  0.000  0.000
  0.684  0.226  0.000  0.070  0.019
  0.226  0.685  0.000  0.019  0.070
  0.023  0.066  0.000  0.206  0.705
  0.066  0.023  0.000  0.705  0.206
    occupations:
  0.387  0.000  0.000  0.000  0.000
  0.000  0.358  0.000  0.000  0.014
  0.000  0.000  0.358  0.014  0.000
  0.000  0.000  0.014  0.399  0.000
  0.000  0.014  0.000  0.000  0.399
atomic mag. moment =     0.014403
atom    4   Tr[ns(na)] (up, down, total) =   1.91559  1.90127  3.81686
   spin  1
    eigenvalues: 
  0.357  0.357  0.387  0.407  0.407
    eigenvectors:
  0.000  0.000  1.000  0.000  0.000
  0.716  0.208  0.000  0.018  0.058
  0.208  0.717  0.000  0.057  0.018
  0.018  0.058  0.000  0.697  0.227
  0.059  0.018  0.000  0.228  0.696
    occupations:
  0.387  0.000  0.000  0.000  0.000
  0.000  0.361  0.000  0.000  0.013
  0.000  0.000  0.361  0.013  0.000
  0.000  0.000  0.013  0.403  0.000
  0.000  0.013  0.000  0.000  0.403
   spin  2
    eigenvalues: 
  0.353  0.353  0.387  0.404  0.404
    eigenvectors:
  0.000  0.000  1.000  0.000  0.000
  0.699  0.211  0.000  0.022  0.068
  0.211  0.700  0.000  0.067  0.022
  0.022  0.067  0.000  0.676  0.235
  0.068  0.022  0.000  0.235  0.675
    occupations:
  0.387  0.000  0.000  0.000  0.000
  0.000  0.358  0.000  0.000  0.015
  0.000  0.000  0.358  0.014  0.000
  0.000  0.000  0.014  0.399  0.000
  0.000  0.015  0.000  0.000  0.399
atomic mag. moment =     0.014320
atom    5   Tr[ns(na)] (up, down, total) =   2.73885  2.69837  5.43722
   spin  1
    eigenvalues: 
  0.841  0.947  0.951
    eigenvectors:
  0.337  0.000  0.663
  0.508  0.244  0.248
  0.155  0.756  0.089
    occupations:
  0.914 -0.045  0.025
 -0.045  0.894  0.029
  0.025  0.029  0.931
   spin  2
    eigenvalues: 
  0.862  0.918  0.918
    eigenvectors:
  0.334  0.654  0.013
  0.513  0.190  0.297
  0.153  0.157  0.690
    occupations:
  0.899 -0.023  0.013
 -0.023  0.889  0.016
  0.013  0.016  0.910
atomic mag. moment =     0.040480
atom    6   Tr[ns(na)] (up, down, total) =   2.74270  2.70379  5.44649
   spin  1
    eigenvalues: 
  0.844  0.947  0.951
    eigenvectors:
  0.337  0.000  0.663
  0.487  0.259  0.254
  0.177  0.741  0.083
    occupations:
  0.915  0.043  0.026
  0.043  0.898 -0.030
  0.026 -0.030  0.929
   spin  2
    eigenvalues: 
  0.864  0.920  0.920
    eigenvectors:
  0.334  0.027  0.639
  0.486  0.370  0.144
  0.180  0.603  0.217
    occupations:
  0.901  0.022  0.014
  0.022  0.893 -0.016
  0.014 -0.016  0.910
atomic mag. moment =     0.038909
atom    7   Tr[ns(na)] (up, down, total) =   2.74270  2.70379  5.44649
   spin  1
    eigenvalues: 
  0.844  0.947  0.951
    eigenvectors:
  0.337  0.000  0.663
  0.000  1.000  0.000
  0.663  0.000  0.337
    occupations:
  0.915  0.001 -0.051
  0.001  0.947  0.001
 -0.051  0.001  0.880
   spin  2
    eigenvalues: 
  0.864  0.920  0.920
    eigenvectors:
  0.334  0.025  0.642
  0.000  0.958  0.042
  0.666  0.018  0.317
    occupations:
  0.901  0.001 -0.026
  0.001  0.920  0.001
 -0.026  0.001  0.883
atomic mag. moment =     0.038912
atom    8   Tr[ns(na)] (up, down, total) =   2.74258  2.70310  5.44567
   spin  1
    eigenvalues: 
  0.844  0.947  0.951
    eigenvectors:
  0.337  0.000  0.663
  0.508  0.244  0.248
  0.155  0.756  0.089
    occupations:
  0.915 -0.044  0.024
 -0.044  0.896  0.028
  0.024  0.028  0.932
   spin  2
    eigenvalues: 
  0.864  0.920  0.920
    eigenvectors:
  0.333  0.168  0.499
  0.513  0.026  0.461
  0.154  0.806  0.040
    occupations:
  0.901 -0.023  0.013
 -0.023  0.891  0.016
  0.013  0.016  0.911
atomic mag. moment =     0.039480
atom    9   Tr[ns(na)] (up, down, total) =   2.74282  2.70387  5.44669
   spin  1
    eigenvalues: 
  0.844  0.947  0.951
    eigenvectors:
  0.337  0.000  0.663
  0.487  0.259  0.254
  0.177  0.741  0.082
    occupations:
  0.915  0.043  0.026
  0.043  0.898 -0.030
  0.026 -0.030  0.929
   spin  2
    eigenvalues: 
  0.864  0.920  0.920
    eigenvectors:
  0.333  0.015  0.652
  0.487  0.344  0.168
  0.180  0.641  0.179
    occupations:
  0.901  0.022  0.014
  0.022  0.893 -0.016
  0.014 -0.016  0.910
atomic mag. moment =     0.038958
atom   10   Tr[ns(na)] (up, down, total) =   2.74282  2.70387  5.44669
   spin  1
    eigenvalues: 
  0.844  0.947  0.951
    eigenvectors:
  0.337  0.000  0.663
  0.000  1.000  0.000
  0.663  0.000  0.337
    occupations:
  0.915  0.001 -0.051
  0.001  0.947  0.001
 -0.051  0.001  0.880
   spin  2
    eigenvalues: 
  0.864  0.920  0.920
    eigenvectors:
  0.333  0.027  0.640
  0.000  0.954  0.046
  0.667  0.019  0.314
    occupations:
  0.901  0.001 -0.026
  0.001  0.920  0.001
 -0.026  0.001  0.883
atomic mag. moment =     0.038954
N of occupied +U levels =  56.1404424
 --- exit write_ns ---
 --- in v_hubbard ---
Hubbard energy    0.0600
 -------

     total cpu time spent up to now is      249.6 secs

     total energy              =    -538.29541857 Ry
     Harris-Foulkes estimate   =    -538.29544964 Ry
     estimated scf accuracy    <       0.00012146 Ry

     total magnetization       =     3.54 Bohr mag/cell
     absolute magnetization    =     3.69 Bohr mag/cell

     iteration #  3     ecut=    30.00 Ry     beta=0.20
     Davidson diagonalization with overlap
     ethr =  1.60E-07,  avg # of iterations =  2.0
 --- enter write_ns ---
 LDA+U parameters:
U( 1)     =  0.00000000
alpha( 1) =  0.00000000
U( 2)     =  0.00000000
alpha( 2) =  0.00000000
U( 3)     =  0.00000000
alpha( 3) =  0.15000000
U( 4)     =  0.00000000
alpha( 4) =  0.00000000
atom    1   Tr[ns(na)] (up, down, total) =   4.57348  3.40864  7.98213
   spin  1
    eigenvalues: 
  0.789  0.789  0.999  0.999  0.999
    eigenvectors:
  0.000  0.000  0.001  0.001  0.998
  0.048  0.598  0.012  0.341  0.000
  0.598  0.048  0.341  0.012  0.000
  0.082  0.272  0.201  0.446  0.000
  0.272  0.082  0.445  0.200  0.001
    occupations:
  0.999  0.000  0.000  0.000  0.000
  0.000  0.863  0.000 -0.071  0.071
  0.000  0.000  0.863  0.070  0.071
  0.000 -0.071  0.070  0.924  0.000
  0.000  0.071  0.071  0.000  0.924
   spin  2
    eigenvalues: 
  0.476  0.477  0.784  0.836  0.836
    eigenvectors:
  0.000  0.000  1.000  0.000  0.000
  0.123  0.516  0.000  0.138  0.223
  0.517  0.123  0.000  0.223  0.138
  0.219  0.142  0.000  0.252  0.387
  0.142  0.219  0.000  0.387  0.252
    occupations:
  0.784  0.000  0.000  0.000  0.000
  0.000  0.606  0.000 -0.038  0.168
  0.000  0.000  0.606  0.168  0.039
  0.000 -0.038  0.168  0.706  0.000
  0.000  0.168  0.039  0.000  0.706
atomic mag. moment =     1.164843
atom    2   Tr[ns(na)] (up, down, total) =   4.66622  3.19303  7.85924
   spin  1
    eigenvalues: 
  0.835  0.835  0.999  0.999  0.999
    eigenvectors:
  0.000  0.000  0.003  0.005  0.993
  0.299  0.348  0.188  0.166  0.000
  0.347  0.298  0.165  0.187  0.003
  0.001  0.353  0.644  0.001  0.002
  0.353  0.000  0.001  0.643  0.003
    occupations:
  0.999  0.000  0.000  0.000  0.000
  0.000  0.893  0.000  0.056  0.056
  0.000  0.000  0.893  0.056 -0.056
  0.000  0.056  0.056  0.941  0.000
  0.000  0.056 -0.056  0.000  0.941
   spin  2
    eigenvalues: 
  0.458  0.459  0.719  0.779  0.779
    eigenvectors:
  0.000  0.000  1.000  0.000  0.000
  0.199  0.436  0.000  0.043  0.322
  0.436  0.198  0.000  0.322  0.043
  0.317  0.048  0.000  0.625  0.010
  0.048  0.317  0.000  0.010  0.625
    occupations:
  0.719  0.000  0.000  0.000  0.000
  0.000  0.575  0.000  0.034  0.150
  0.000  0.000  0.575  0.151 -0.034
  0.000  0.034  0.151  0.661  0.000
  0.000  0.150 -0.034  0.000  0.662
atomic mag. moment =     1.473189
atom    3   Tr[ns(na)] (up, down, total) =   1.91565  1.90124  3.81689
   spin  1
    eigenvalues: 
  0.357  0.357  0.387  0.407  0.407
    eigenvectors:
  0.000  0.000  1.000  0.000  0.000
  0.697  0.228  0.000  0.016  0.060
  0.228  0.696  0.000  0.060  0.016
  0.019  0.056  0.000  0.724  0.201
  0.056  0.019  0.000  0.201  0.724
    occupations:
  0.387  0.000  0.000  0.000  0.000
  0.000  0.361  0.000  0.000  0.013
  0.000  0.000  0.361  0.013  0.000
  0.000  0.000  0.013  0.403  0.000
  0.000  0.013  0.000  0.000  0.403
   spin  2
    eigenvalues: 
  0.353  0.353  0.387  0.404  0.404
    eigenvectors:
  0.000  0.000  1.000  0.000  0.000
  0.684  0.226  0.000  0.062  0.028
  0.226  0.684  0.000  0.028  0.062
  0.024  0.066  0.000  0.300  0.610
  0.066  0.024  0.000  0.610  0.300
    occupations:
  0.387  0.000  0.000  0.000  0.000
  0.000  0.358  0.000  0.000  0.014
  0.000  0.000  0.358  0.014  0.000
  0.000  0.000  0.014  0.399  0.000
  0.000  0.014  0.000  0.000  0.399
atomic mag. moment =     0.014413
atom    4   Tr[ns(na)] (up, down, total) =   1.91560  1.90127  3.81686
   spin  1
    eigenvalues: 
  0.357  0.357  0.387  0.407  0.407
    eigenvectors:
  0.000  0.000  1.000  0.000  0.000
  0.716  0.208  0.000  0.018  0.058
  0.207  0.717  0.000  0.057  0.018
  0.018  0.058  0.000  0.698  0.227
  0.059  0.018  0.000  0.227  0.697
    occupations:
  0.387  0.000  0.000  0.000  0.000
  0.000  0.361  0.000  0.000  0.013
  0.000  0.000  0.361  0.013  0.000
  0.000  0.000  0.013  0.403  0.000
  0.000  0.013  0.000  0.000  0.403
   spin  2
    eigenvalues: 
  0.353  0.353  0.387  0.404  0.404
    eigenvectors:
  0.000  0.000  1.000  0.000  0.000
  0.699  0.211  0.000  0.022  0.068
  0.211  0.699  0.000  0.067  0.022
  0.023  0.067  0.000  0.670  0.241
  0.068  0.022  0.000  0.241  0.669
    occupations:
  0.387  0.000  0.000  0.000  0.000
  0.000  0.358  0.000  0.000  0.015
  0.000  0.000  0.358  0.014  0.000
  0.000  0.000  0.014  0.399  0.000
  0.000  0.015  0.000  0.000  0.399
atomic mag. moment =     0.014329
atom    5   Tr[ns(na)] (up, down, total) =   2.73840  2.69810  5.43650
   spin  1
    eigenvalues: 
  0.841  0.947  0.951
    eigenvectors:
  0.337  0.000  0.663
  0.506  0.245  0.249
  0.157  0.755  0.088
    occupations:
  0.914 -0.046  0.025
 -0.046  0.894  0.029
  0.025  0.029  0.931
   spin  2
    eigenvalues: 
  0.862  0.918  0.918
    eigenvectors:
  0.334  0.622  0.044
  0.518  0.137  0.345
  0.148  0.241  0.611
    occupations:
  0.899 -0.023  0.012
 -0.023  0.889  0.016
  0.012  0.016  0.910
atomic mag. moment =     0.040306
atom    6   Tr[ns(na)] (up, down, total) =   2.74230  2.70356  5.44585
   spin  1
    eigenvalues: 
  0.844  0.947  0.951
    eigenvectors:
  0.337  0.000  0.663
  0.488  0.258  0.254
  0.175  0.742  0.083
    occupations:
  0.915  0.044  0.026
  0.044  0.898 -0.030
  0.026 -0.030  0.930
   spin  2
    eigenvalues: 
  0.864  0.920  0.920
    eigenvectors:
  0.334  0.040  0.626
  0.481  0.400  0.120
  0.186  0.560  0.254
    occupations:
  0.901  0.022  0.014
  0.022  0.893 -0.017
  0.014 -0.017  0.909
atomic mag. moment =     0.038737
atom    7   Tr[ns(na)] (up, down, total) =   2.74230  2.70356  5.44586
   spin  1
    eigenvalues: 
  0.844  0.947  0.951
    eigenvectors:
  0.337  0.000  0.663
  0.000  1.000  0.000
  0.663  0.000  0.337
    occupations:
  0.915  0.001 -0.051
  0.001  0.947  0.001
 -0.051  0.001  0.880
   spin  2
    eigenvalues: 
  0.864  0.920  0.920
    eigenvectors:
  0.334  0.028  0.638
  0.001  0.949  0.050
  0.666  0.022  0.312
    occupations:
  0.901  0.001 -0.026
  0.001  0.920  0.001
 -0.026  0.001  0.883
atomic mag. moment =     0.038737
atom    8   Tr[ns(na)] (up, down, total) =   2.74234  2.70306  5.44540
   spin  1
    eigenvalues: 
  0.844  0.947  0.951
    eigenvectors:
  0.337  0.000  0.663
  0.506  0.245  0.249
  0.157  0.755  0.088
    occupations:
  0.915 -0.044  0.025
 -0.044  0.896  0.029
  0.025  0.029  0.931
   spin  2
    eigenvalues: 
  0.864  0.920  0.920
    eigenvectors:
  0.333  0.094  0.573
  0.518  0.061  0.421
  0.149  0.845  0.006
    occupations:
  0.901 -0.023  0.012
 -0.023  0.891  0.015
  0.012  0.015  0.911
atomic mag. moment =     0.039287
atom    9   Tr[ns(na)] (up, down, total) =   2.74238  2.70359  5.44597
   spin  1
    eigenvalues: 
  0.844  0.947  0.951
    eigenvectors:
  0.337  0.000  0.663
  0.488  0.258  0.254
  0.175  0.742  0.083
    occupations:
  0.915  0.044  0.026
  0.044  0.898 -0.030
  0.026 -0.030  0.930
   spin  2
    eigenvalues: 
  0.864  0.920  0.920
    eigenvectors:
  0.333  0.027  0.640
  0.482  0.378  0.139
  0.185  0.594  0.221
    occupations:
  0.901  0.022  0.014
  0.022  0.893 -0.017
  0.014 -0.017  0.909
atomic mag. moment =     0.038790
atom   10   Tr[ns(na)] (up, down, total) =   2.74238  2.70359  5.44597
   spin  1
    eigenvalues: 
  0.844  0.947  0.951
    eigenvectors:
  0.337  0.000  0.663
  0.000  1.000  0.000
  0.663  0.000  0.337
    occupations:
  0.915  0.001 -0.051
  0.001  0.947  0.001
 -0.051  0.001  0.880
   spin  2
    eigenvalues: 
  0.864  0.920  0.920
    eigenvectors:
  0.333  0.031  0.636
  0.001  0.945  0.054
  0.666  0.024  0.310
    occupations:
  0.901  0.001 -0.026
  0.001  0.920  0.001
 -0.026  0.001  0.883
atomic mag. moment =     0.038789
N of occupied +U levels =  56.1406687
 --- exit write_ns ---
 --- in v_hubbard ---
Hubbard energy    0.0600
 -------

     total cpu time spent up to now is      298.9 secs

     total energy              =    -538.29537523 Ry
     Harris-Foulkes estimate   =    -538.29551665 Ry
     estimated scf accuracy    <       0.00322027 Ry

     total magnetization       =     3.54 Bohr mag/cell
     absolute magnetization    =     3.69 Bohr mag/cell

     iteration #  4     ecut=    30.00 Ry     beta=0.20
     Davidson diagonalization with overlap
     ethr =  1.60E-07,  avg # of iterations =  1.3
 --- enter write_ns ---
 LDA+U parameters:
U( 1)     =  0.00000000
alpha( 1) =  0.00000000
U( 2)     =  0.00000000
alpha( 2) =  0.00000000
U( 3)     =  0.00000000
alpha( 3) =  0.15000000
U( 4)     =  0.00000000
alpha( 4) =  0.00000000
atom    1   Tr[ns(na)] (up, down, total) =   4.56622  3.37526  7.94149
   spin  1
    eigenvalues: 
  0.785  0.785  0.999  0.999  0.999
    eigenvectors:
  0.000  0.000  0.001  0.001  0.998
  0.048  0.598  0.013  0.340  0.000
  0.599  0.048  0.340  0.013  0.000
  0.082  0.271  0.197  0.449  0.000
  0.271  0.083  0.449  0.196  0.001
    occupations:
  0.999  0.000  0.000  0.000  0.000
  0.000  0.861  0.000 -0.073  0.072
  0.000  0.000  0.861  0.072  0.073
  0.000 -0.073  0.072  0.923  0.000
  0.000  0.072  0.073  0.000  0.923
   spin  2
    eigenvalues: 
  0.474  0.475  0.773  0.826  0.826
    eigenvectors:
  0.000  0.000  1.000  0.000  0.000
  0.124  0.515  0.000  0.142  0.219
  0.515  0.124  0.000  0.219  0.142
  0.220  0.141  0.000  0.249  0.390
  0.141  0.220  0.000  0.390  0.249
    occupations:
  0.773  0.000  0.000  0.000  0.000
  0.000  0.602  0.000 -0.036  0.165
  0.000  0.000  0.601  0.165  0.037
  0.000 -0.036  0.165  0.699  0.000
  0.000  0.165  0.037  0.000  0.699
atomic mag. moment =     1.190962
atom    2   Tr[ns(na)] (up, down, total) =   4.67293  3.22763  7.90056
   spin  1
    eigenvalues: 
  0.838  0.838  0.999  0.999  0.999
    eigenvectors:
  0.000  0.000  0.003  0.007  0.990
  0.304  0.343  0.185  0.169  0.000
  0.342  0.304  0.168  0.183  0.003
  0.000  0.354  0.644  0.000  0.002
  0.354  0.000  0.000  0.641  0.004
    occupations:
  0.999  0.000  0.000  0.000  0.000
  0.000  0.895  0.000  0.054  0.054
  0.000  0.000  0.895  0.054 -0.054
  0.000  0.054  0.054  0.942  0.000
  0.000  0.054 -0.054  0.000  0.942
   spin  2
    eigenvalues: 
  0.459  0.461  0.731  0.789  0.789
    eigenvectors:
  0.000  0.000  1.000  0.000  0.000
  0.200  0.435  0.000  0.036  0.328
  0.435  0.200  0.000  0.329  0.036
  0.318  0.047  0.000  0.630  0.005
  0.047  0.318  0.000  0.005  0.630
    occupations:
  0.731  0.000  0.000  0.000  0.000
  0.000  0.580  0.000  0.036  0.154
  0.000  0.000  0.580  0.154 -0.036
  0.000  0.036  0.154  0.669  0.000
  0.000  0.154 -0.036  0.000  0.669
atomic mag. moment =     1.445300
atom    3   Tr[ns(na)] (up, down, total) =   1.91565  1.90120  3.81685
   spin  1
    eigenvalues: 
  0.357  0.357  0.387  0.407  0.407
    eigenvectors:
  0.000  0.000  1.000  0.000  0.000
  0.696  0.228  0.000  0.015  0.060
  0.228  0.696  0.000  0.060  0.015
  0.019  0.056  0.000  0.729  0.196
  0.056  0.019  0.000  0.196  0.729
    occupations:
  0.387  0.000  0.000  0.000  0.000
  0.000  0.361  0.000  0.000  0.013
  0.000  0.000  0.361  0.013  0.000
  0.000  0.000  0.013  0.403  0.000
  0.000  0.013  0.000  0.000  0.403
   spin  2
    eigenvalues: 
  0.353  0.353  0.387  0.404  0.404
    eigenvectors:
  0.000  0.000  1.000  0.000  0.000
  0.684  0.226  0.000  0.066  0.023
  0.226  0.684  0.000  0.023  0.066
  0.024  0.066  0.000  0.252  0.659
  0.066  0.024  0.000  0.659  0.252
    occupations:
  0.387  0.000  0.000  0.000  0.000
  0.000  0.358  0.000  0.000  0.014
  0.000  0.000  0.358  0.014  0.000
  0.000  0.000  0.014  0.399  0.000
  0.000  0.014  0.000  0.000  0.399
atomic mag. moment =     0.014448
atom    4   Tr[ns(na)] (up, down, total) =   1.91560  1.90123  3.81683
   spin  1
    eigenvalues: 
  0.357  0.357  0.387  0.407  0.407
    eigenvectors:
  0.000  0.000  1.000  0.000  0.000
  0.713  0.211  0.000  0.018  0.058
  0.211  0.714  0.000  0.057  0.018
  0.018  0.057  0.000  0.697  0.228
  0.058  0.018  0.000  0.228  0.696
    occupations:
  0.387  0.000  0.000  0.000  0.000
  0.000  0.361  0.000  0.000  0.013
  0.000  0.000  0.361  0.013  0.000
  0.000  0.000  0.013  0.403  0.000
  0.000  0.013  0.000  0.000  0.403
   spin  2
    eigenvalues: 
  0.353  0.353  0.387  0.404  0.404
    eigenvectors:
  0.000  0.000  1.000  0.000  0.000
  0.695  0.215  0.000  0.022  0.068
  0.214  0.696  0.000  0.067  0.022
  0.023  0.067  0.000  0.672  0.239
  0.068  0.022  0.000  0.239  0.671
    occupations:
  0.387  0.000  0.000  0.000  0.000
  0.000  0.358  0.000  0.000  0.015
  0.000  0.000  0.358  0.014  0.000
  0.000  0.000  0.014  0.399  0.000
  0.000  0.015  0.000  0.000  0.399
atomic mag. moment =     0.014364
atom    5   Tr[ns(na)] (up, down, total) =   2.73849  2.69794  5.43643
   spin  1
    eigenvalues: 
  0.841  0.947  0.951
    eigenvectors:
  0.337  0.000  0.663
  0.507  0.244  0.249
  0.155  0.756  0.089
    occupations:
  0.914 -0.046  0.025
 -0.046  0.894  0.029
  0.025  0.029  0.931
   spin  2
    eigenvalues: 
  0.862  0.918  0.918
    eigenvectors:
  0.334  0.651  0.015
  0.514  0.184  0.303
  0.153  0.165  0.682
    occupations:
  0.899 -0.023  0.013
 -0.023  0.889  0.016
  0.013  0.016  0.909
atomic mag. moment =     0.040548
atom    6   Tr[ns(na)] (up, down, total) =   2.74237  2.70341  5.44578
   spin  1
    eigenvalues: 
  0.844  0.947  0.951
    eigenvectors:
  0.337  0.000  0.663
  0.487  0.259  0.254
  0.176  0.741  0.083
    occupations:
  0.915  0.043  0.026
  0.043  0.898 -0.030
  0.026 -0.030  0.929
   spin  2
    eigenvalues: 
  0.864  0.920  0.920
    eigenvectors:
  0.334  0.035  0.631
  0.485  0.385  0.130
  0.181  0.580  0.239
    occupations:
  0.901  0.022  0.014
  0.022  0.893 -0.016
  0.014 -0.016  0.910
atomic mag. moment =     0.038958
atom    7   Tr[ns(na)] (up, down, total) =   2.74237  2.70341  5.44578
   spin  1
    eigenvalues: 
  0.844  0.947  0.951
    eigenvectors:
  0.337  0.000  0.663
  0.000  1.000  0.000
  0.663  0.000  0.337
    occupations:
  0.915  0.001 -0.051
  0.001  0.947  0.001
 -0.051  0.001  0.880
   spin  2
    eigenvalues: 
  0.864  0.920  0.920
    eigenvectors:
  0.334  0.019  0.648
  0.000  0.967  0.032
  0.666  0.014  0.320
    occupations:
  0.901  0.001 -0.026
  0.001  0.920  0.001
 -0.026  0.001  0.883
atomic mag. moment =     0.038961
atom    8   Tr[ns(na)] (up, down, total) =   2.74247  2.70296  5.44543
   spin  1
    eigenvalues: 
  0.844  0.947  0.951
    eigenvectors:
  0.337  0.000  0.663
  0.508  0.244  0.248
  0.156  0.756  0.089
    occupations:
  0.915 -0.044  0.025
 -0.044  0.896  0.028
  0.025  0.028  0.932
   spin  2
    eigenvalues: 
  0.864  0.920  0.920
    eigenvectors:
  0.333  0.108  0.558
  0.513  0.055  0.432
  0.153  0.837  0.010
    occupations:
  0.901 -0.023  0.013
 -0.023  0.891  0.016
  0.013  0.016  0.911
atomic mag. moment =     0.039507
atom    9   Tr[ns(na)] (up, down, total) =   2.74244  2.70343  5.44587
   spin  1
    eigenvalues: 
  0.844  0.947  0.951
    eigenvectors:
  0.337  0.000  0.663
  0.487  0.259  0.254
  0.176  0.741  0.083
    occupations:
  0.915  0.043  0.026
  0.043  0.898 -0.030
  0.026 -0.030  0.929
   spin  2
    eigenvalues: 
  0.864  0.920  0.920
    eigenvectors:
  0.333  0.021  0.646
  0.487  0.360  0.154
  0.180  0.619  0.200
    occupations:
  0.901  0.022  0.014
  0.022  0.893 -0.016
  0.014 -0.016  0.910
atomic mag. moment =     0.039015
atom   10   Tr[ns(na)] (up, down, total) =   2.74244  2.70343  5.44587
   spin  1
    eigenvalues: 
  0.844  0.947  0.951
    eigenvectors:
  0.337  0.000  0.663
  0.000  1.000  0.000
  0.663  0.000  0.337
    occupations:
  0.915  0.001 -0.051
  0.001  0.947  0.001
 -0.051  0.001  0.880
   spin  2
    eigenvalues: 
  0.864  0.920  0.920
    eigenvectors:
  0.333  0.022  0.645
  0.000  0.962  0.038
  0.667  0.016  0.317
    occupations:
  0.901  0.001 -0.026
  0.001  0.920  0.001
 -0.026  0.001  0.883
atomic mag. moment =     0.039011
N of occupied +U levels =  56.1408810
 --- exit write_ns ---
 --- in v_hubbard ---
Hubbard energy    0.0600
 -------

     total cpu time spent up to now is      350.0 secs

     total energy              =    -538.29544549 Ry
     Harris-Foulkes estimate   =    -538.29544553 Ry
     estimated scf accuracy    <       0.00000241 Ry

     total magnetization       =     3.54 Bohr mag/cell
     absolute magnetization    =     3.69 Bohr mag/cell

     iteration #  5     ecut=    30.00 Ry     beta=0.20
     Davidson diagonalization with overlap
     ethr =  3.18E-09,  avg # of iterations =  2.5
 --- enter write_ns ---
 LDA+U parameters:
U( 1)     =  0.00000000
alpha( 1) =  0.00000000
U( 2)     =  0.00000000
alpha( 2) =  0.00000000
U( 3)     =  0.00000000
alpha( 3) =  0.15000000
U( 4)     =  0.00000000
alpha( 4) =  0.00000000
atom    1   Tr[ns(na)] (up, down, total) =   4.56618  3.37520  7.94138
   spin  1
    eigenvalues: 
  0.785  0.785  0.999  0.999  0.999
    eigenvectors:
  0.000  0.000  0.001  0.000  0.999
  0.049  0.597  0.014  0.339  0.000
  0.598  0.049  0.339  0.014  0.000
  0.082  0.272  0.192  0.454  0.000
  0.272  0.082  0.454  0.191  0.001
    occupations:
  0.999  0.000  0.000  0.000  0.000
  0.000  0.861  0.000 -0.073  0.072
  0.000  0.000  0.861  0.072  0.073
  0.000 -0.073  0.072  0.923  0.000
  0.000  0.072  0.073  0.000  0.923
   spin  2
    eigenvalues: 
  0.474  0.475  0.773  0.826  0.826
    eigenvectors:
  0.000  0.000  1.000  0.000  0.000
  0.124  0.515  0.000  0.149  0.212
  0.515  0.124  0.000  0.212  0.149
  0.220  0.141  0.000  0.237  0.402
  0.141  0.220  0.000  0.402  0.237
    occupations:
  0.773  0.000  0.000  0.000  0.000
  0.000  0.602  0.000 -0.036  0.165
  0.000  0.000  0.601  0.165  0.037
  0.000 -0.036  0.165  0.699  0.000
  0.000  0.165  0.037  0.000  0.699
atomic mag. moment =     1.190982
atom    2   Tr[ns(na)] (up, down, total) =   4.67279  3.22721  7.90000
   spin  1
    eigenvalues: 
  0.838  0.838  0.999  0.999  0.999
    eigenvectors:
  0.000  0.000  0.004  0.006  0.990
  0.308  0.338  0.182  0.171  0.000
  0.338  0.308  0.170  0.180  0.003
  0.000  0.354  0.644  0.000  0.002
  0.354  0.000  0.000  0.642  0.004
    occupations:
  0.999  0.000  0.000  0.000  0.000
  0.000  0.895  0.000  0.054  0.054
  0.000  0.000  0.895  0.054 -0.055
  0.000  0.054  0.054  0.942  0.000
  0.000  0.054 -0.055  0.000  0.942
   spin  2
    eigenvalues: 
  0.459  0.461  0.730  0.788  0.789
    eigenvectors:
  0.000  0.000  1.000  0.000  0.000
  0.200  0.435  0.000  0.029  0.336
  0.435  0.200  0.000  0.336  0.029
  0.318  0.047  0.000  0.633  0.002
  0.047  0.318  0.000  0.002  0.634
    occupations:
  0.730  0.000  0.000  0.000  0.000
  0.000  0.580  0.000  0.036  0.154
  0.000  0.000  0.580  0.154 -0.036
  0.000  0.036  0.154  0.668  0.000
  0.000  0.154 -0.036  0.000  0.669
atomic mag. moment =     1.445584
atom    3   Tr[ns(na)] (up, down, total) =   1.91558  1.90114  3.81672
   spin  1
    eigenvalues: 
  0.357  0.357  0.387  0.407  0.407
    eigenvectors:
  0.000  0.000  1.000  0.000  0.000
  0.696  0.229  0.000  0.015  0.060
  0.229  0.696  0.000  0.060  0.015
  0.019  0.056  0.000  0.733  0.191
  0.056  0.019  0.000  0.191  0.733
    occupations:
  0.387  0.000  0.000  0.000  0.000
  0.000  0.361  0.000  0.000  0.013
  0.000  0.000  0.361  0.013  0.000
  0.000  0.000  0.013  0.403  0.000
  0.000  0.013  0.000  0.000  0.403
   spin  2
    eigenvalues: 
  0.353  0.353  0.387  0.404  0.404
    eigenvectors:
  0.000  0.000  1.000  0.000  0.000
  0.684  0.227  0.000  0.066  0.024
  0.227  0.684  0.000  0.024  0.066
  0.024  0.066  0.000  0.256  0.655
  0.066  0.024  0.000  0.655  0.256
    occupations:
  0.387  0.000  0.000  0.000  0.000
  0.000  0.358  0.000  0.000  0.015
  0.000  0.000  0.358  0.014  0.000
  0.000  0.000  0.014  0.399  0.000
  0.000  0.015  0.000  0.000  0.399
atomic mag. moment =     0.014434
atom    4   Tr[ns(na)] (up, down, total) =   1.91553  1.90118  3.81670
   spin  1
    eigenvalues: 
  0.357  0.357  0.387  0.407  0.407
    eigenvectors:
  0.000  0.000  1.000  0.000  0.000
  0.709  0.215  0.000  0.018  0.058
  0.214  0.710  0.000  0.057  0.018
  0.019  0.057  0.000  0.694  0.230
  0.058  0.018  0.000  0.231  0.693
    occupations:
  0.387  0.000  0.000  0.000  0.000
  0.000  0.361  0.000  0.000  0.013
  0.000  0.000  0.361  0.013  0.000
  0.000  0.000  0.013  0.403  0.000
  0.000  0.013  0.000  0.000  0.403
   spin  2
    eigenvalues: 
  0.353  0.353  0.387  0.404  0.404
    eigenvectors:
  0.000  0.000  1.000  0.000  0.000
  0.694  0.216  0.000  0.023  0.068
  0.215  0.695  0.000  0.067  0.023
  0.023  0.067  0.000  0.668  0.243
  0.068  0.022  0.000  0.243  0.667
    occupations:
  0.387  0.000  0.000  0.000  0.000
  0.000  0.358  0.000  0.000  0.015
  0.000  0.000  0.358  0.014  0.000
  0.000  0.000  0.014  0.399  0.000
  0.000  0.015  0.000  0.000  0.399
atomic mag. moment =     0.014351
atom    5   Tr[ns(na)] (up, down, total) =   2.73856  2.69801  5.43657
   spin  1
    eigenvalues: 
  0.841  0.947  0.951
    eigenvectors:
  0.337  0.000  0.663
  0.507  0.244  0.249
  0.156  0.756  0.089
    occupations:
  0.914 -0.046  0.025
 -0.046  0.894  0.029
  0.025  0.029  0.931
   spin  2
    eigenvalues: 
  0.862  0.918  0.918
    eigenvectors:
  0.334  0.651  0.015
  0.514  0.184  0.303
  0.153  0.166  0.682
    occupations:
  0.899 -0.023  0.013
 -0.023  0.889  0.016
  0.013  0.016  0.909
atomic mag. moment =     0.040552
atom    6   Tr[ns(na)] (up, down, total) =   2.74242  2.70348  5.44589
   spin  1
    eigenvalues: 
  0.844  0.947  0.951
    eigenvectors:
  0.337  0.000  0.663
  0.487  0.259  0.254
  0.176  0.741  0.083
    occupations:
  0.915  0.043  0.026
  0.043  0.898 -0.030
  0.026 -0.030  0.929
   spin  2
    eigenvalues: 
  0.864  0.920  0.920
    eigenvectors:
  0.334  0.039  0.627
  0.485  0.391  0.124
  0.181  0.570  0.249
    occupations:
  0.901  0.022  0.014
  0.022  0.893 -0.016
  0.014 -0.016  0.910
atomic mag. moment =     0.038942
atom    7   Tr[ns(na)] (up, down, total) =   2.74242  2.70347  5.44589
   spin  1
    eigenvalues: 
  0.844  0.947  0.951
    eigenvectors:
  0.337  0.000  0.663
  0.000  1.000  0.000
  0.663  0.000  0.337
    occupations:
  0.915  0.001 -0.051
  0.001  0.947  0.001
 -0.051  0.001  0.880
   spin  2
    eigenvalues: 
  0.864  0.920  0.920
    eigenvectors:
  0.334  0.014  0.652
  0.000  0.975  0.025
  0.666  0.011  0.323
    occupations:
  0.901  0.001 -0.026
  0.001  0.920  0.001
 -0.026  0.001  0.883
atomic mag. moment =     0.038944
atom    8   Tr[ns(na)] (up, down, total) =   2.74257  2.70307  5.44563
   spin  1
    eigenvalues: 
  0.844  0.947  0.951
    eigenvectors:
  0.337  0.000  0.663
  0.508  0.244  0.248
  0.156  0.756  0.089
    occupations:
  0.915 -0.044  0.025
 -0.044  0.896  0.028
  0.025  0.028  0.932
   spin  2
    eigenvalues: 
  0.864  0.920  0.920
    eigenvectors:
  0.333  0.103  0.564
  0.513  0.058  0.428
  0.153  0.839  0.008
    occupations:
  0.901 -0.023  0.013
 -0.023  0.891  0.016
  0.013  0.016  0.911
atomic mag. moment =     0.039501
atom    9   Tr[ns(na)] (up, down, total) =   2.74249  2.70349  5.44597
   spin  1
    eigenvalues: 
  0.844  0.947  0.951
    eigenvectors:
  0.337  0.000  0.663
  0.487  0.259  0.254
  0.176  0.741  0.083
    occupations:
  0.915  0.043  0.026
  0.043  0.898 -0.030
  0.026 -0.030  0.929
   spin  2
    eigenvalues: 
  0.864  0.920  0.920
    eigenvectors:
  0.333  0.025  0.642
  0.487  0.367  0.147
  0.180  0.609  0.211
    occupations:
  0.901  0.022  0.014
  0.022  0.893 -0.016
  0.014 -0.016  0.910
atomic mag. moment =     0.039000
atom   10   Tr[ns(na)] (up, down, total) =   2.74248  2.70349  5.44597
   spin  1
    eigenvalues: 
  0.844  0.947  0.951
    eigenvectors:
  0.337  0.000  0.663
  0.000  1.000  0.000
  0.663  0.000  0.337
    occupations:
  0.915  0.001 -0.051
  0.001  0.947  0.001
 -0.051  0.001  0.880
   spin  2
    eigenvalues: 
  0.864  0.920  0.920
    eigenvectors:
  0.333  0.017  0.650
  0.000  0.969  0.031
  0.667  0.014  0.320
    occupations:
  0.901  0.001 -0.026
  0.001  0.920  0.001
 -0.026  0.001  0.883
atomic mag. moment =     0.038997
N of occupied +U levels =  56.1407326
 --- exit write_ns ---
 --- in v_hubbard ---
Hubbard energy    0.0600
 -------

     total cpu time spent up to now is      403.1 secs

     total energy              =    -538.29544566 Ry
     Harris-Foulkes estimate   =    -538.29544573 Ry
     estimated scf accuracy    <       0.00000123 Ry

     total magnetization       =     3.54 Bohr mag/cell
     absolute magnetization    =     3.69 Bohr mag/cell

     iteration #  6     ecut=    30.00 Ry     beta=0.20
     Davidson diagonalization with overlap
     ethr =  1.62E-09,  avg # of iterations =  1.3
 --- enter write_ns ---
 LDA+U parameters:
U( 1)     =  0.00000000
alpha( 1) =  0.00000000
U( 2)     =  0.00000000
alpha( 2) =  0.00000000
U( 3)     =  0.00000000
alpha( 3) =  0.15000000
U( 4)     =  0.00000000
alpha( 4) =  0.00000000
atom    1   Tr[ns(na)] (up, down, total) =   4.56622  3.37562  7.94184
   spin  1
    eigenvalues: 
  0.785  0.785  0.999  0.999  0.999
    eigenvectors:
  0.000  0.000  0.001  0.000  0.998
  0.054  0.592  0.015  0.339  0.000
  0.592  0.054  0.338  0.015  0.000
  0.077  0.277  0.190  0.457  0.000
  0.277  0.077  0.456  0.189  0.001
    occupations:
  0.999  0.000  0.000  0.000  0.000
  0.000  0.861  0.000 -0.073  0.072
  0.000  0.000  0.861  0.072  0.073
  0.000 -0.073  0.072  0.923  0.000
  0.000  0.072  0.073  0.000  0.923
   spin  2
    eigenvalues: 
  0.474  0.475  0.774  0.826  0.827
    eigenvectors:
  0.000  0.000  1.000  0.000  0.000
  0.124  0.515  0.000  0.156  0.205
  0.515  0.124  0.000  0.205  0.156
  0.220  0.141  0.000  0.225  0.414
  0.141  0.220  0.000  0.414  0.225
    occupations:
  0.774  0.000  0.000  0.000  0.000
  0.000  0.602  0.000 -0.036  0.165
  0.000  0.000  0.601  0.165  0.037
  0.000 -0.036  0.165  0.699  0.000
  0.000  0.165  0.037  0.000  0.699
atomic mag. moment =     1.190601
atom    2   Tr[ns(na)] (up, down, total) =   4.67260  3.22712  7.89972
   spin  1
    eigenvalues: 
  0.838  0.838  0.999  0.999  0.999
    eigenvectors:
  0.000  0.000  0.003  0.006  0.990
  0.313  0.333  0.182  0.171  0.000
  0.333  0.313  0.170  0.180  0.003
  0.000  0.354  0.644  0.000  0.002
  0.354  0.000  0.000  0.642  0.004
    occupations:
  0.999  0.000  0.000  0.000  0.000
  0.000  0.895  0.000  0.054  0.054
  0.000  0.000  0.895  0.054 -0.055
  0.000  0.054  0.054  0.942  0.000
  0.000  0.054 -0.055  0.000  0.942
   spin  2
    eigenvalues: 
  0.459  0.461  0.730  0.788  0.789
    eigenvectors:
  0.000  0.000  1.000  0.000  0.000
  0.200  0.436  0.000  0.025  0.339
  0.435  0.200  0.000  0.339  0.026
  0.318  0.047  0.000  0.634  0.001
  0.047  0.318  0.000  0.001  0.634
    occupations:
  0.730  0.000  0.000  0.000  0.000
  0.000  0.580  0.000  0.036  0.154
  0.000  0.000  0.580  0.154 -0.036
  0.000  0.036  0.154  0.668  0.000
  0.000  0.154 -0.036  0.000  0.669
atomic mag. moment =     1.445478
atom    3   Tr[ns(na)] (up, down, total) =   1.91546  1.90103  3.81650
   spin  1
    eigenvalues: 
  0.357  0.357  0.387  0.407  0.407
    eigenvectors:
  0.000  0.000  1.000  0.000  0.000
  0.696  0.229  0.000  0.015  0.060
  0.229  0.695  0.000  0.060  0.015
  0.019  0.056  0.000  0.731  0.194
  0.056  0.019  0.000  0.194  0.731
    occupations:
  0.387  0.000  0.000  0.000  0.000
  0.000  0.361  0.000  0.000  0.013
  0.000  0.000  0.361  0.013  0.000
  0.000  0.000  0.013  0.403  0.000
  0.000  0.013  0.000  0.000  0.403
   spin  2
    eigenvalues: 
  0.353  0.353  0.387  0.404  0.404
    eigenvectors:
  0.000  0.000  1.000  0.000  0.000
  0.684  0.227  0.000  0.064  0.025
  0.227  0.684  0.000  0.025  0.064
  0.024  0.066  0.000  0.273  0.638
  0.066  0.024  0.000  0.638  0.273
    occupations:
  0.387  0.000  0.000  0.000  0.000
  0.000  0.358  0.000  0.000  0.015
  0.000  0.000  0.358  0.014  0.000
  0.000  0.000  0.014  0.399  0.000
  0.000  0.015  0.000  0.000  0.399
atomic mag. moment =     0.014430
atom    4   Tr[ns(na)] (up, down, total) =   1.91541  1.90107  3.81648
   spin  1
    eigenvalues: 
  0.357  0.357  0.387  0.407  0.407
    eigenvectors:
  0.000  0.000  1.000  0.000  0.000
  0.707  0.217  0.000  0.018  0.058
  0.217  0.708  0.000  0.057  0.018
  0.019  0.057  0.000  0.695  0.230
  0.058  0.018  0.000  0.230  0.694
    occupations:
  0.387  0.000  0.000  0.000  0.000
  0.000  0.361  0.000  0.000  0.013
  0.000  0.000  0.361  0.013  0.000
  0.000  0.000  0.013  0.403  0.000
  0.000  0.013  0.000  0.000  0.403
   spin  2
    eigenvalues: 
  0.353  0.353  0.387  0.404  0.404
    eigenvectors:
  0.000  0.000  1.000  0.000  0.000
  0.694  0.216  0.000  0.022  0.068
  0.216  0.695  0.000  0.067  0.023
  0.023  0.067  0.000  0.668  0.242
  0.068  0.022  0.000  0.242  0.667
    occupations:
  0.387  0.000  0.000  0.000  0.000
  0.000  0.358  0.000  0.000  0.015
  0.000  0.000  0.358  0.014  0.000
  0.000  0.000  0.014  0.399  0.000
  0.000  0.015  0.000  0.000  0.399
atomic mag. moment =     0.014344
atom    5   Tr[ns(na)] (up, down, total) =   2.73857  2.69798  5.43656
   spin  1
    eigenvalues: 
  0.841  0.947  0.951
    eigenvectors:
  0.337  0.000  0.663
  0.507  0.244  0.249
  0.156  0.756  0.089
    occupations:
  0.914 -0.046  0.025
 -0.046  0.894  0.029
  0.025  0.029  0.931
   spin  2
    eigenvalues: 
  0.862  0.918  0.918
    eigenvectors:
  0.334  0.651  0.015
  0.514  0.185  0.302
  0.153  0.164  0.683
    occupations:
  0.899 -0.023  0.013
 -0.023  0.889  0.016
  0.013  0.016  0.909
atomic mag. moment =     0.040590
atom    6   Tr[ns(na)] (up, down, total) =   2.74243  2.70350  5.44593
   spin  1
    eigenvalues: 
  0.844  0.947  0.951
    eigenvectors:
  0.337  0.000  0.663
  0.487  0.259  0.254
  0.176  0.741  0.083
    occupations:
  0.915  0.043  0.026
  0.043  0.898 -0.030
  0.026 -0.030  0.929
   spin  2
    eigenvalues: 
  0.864  0.920  0.920
    eigenvectors:
  0.334  0.047  0.619
  0.485  0.401  0.113
  0.181  0.552  0.267
    occupations:
  0.901  0.022  0.014
  0.022  0.893 -0.016
  0.014 -0.016  0.910
atomic mag. moment =     0.038927
atom    7   Tr[ns(na)] (up, down, total) =   2.74243  2.70350  5.44593
   spin  1
    eigenvalues: 
  0.844  0.947  0.951
    eigenvectors:
  0.337  0.000  0.663
  0.000  1.000  0.000
  0.663  0.000  0.337
    occupations:
  0.915  0.001 -0.051
  0.001  0.947  0.001
 -0.051  0.001  0.880
   spin  2
    eigenvalues: 
  0.864  0.920  0.920
    eigenvectors:
  0.334  0.005  0.661
  0.000  0.989  0.011
  0.666  0.006  0.329
    occupations:
  0.901  0.001 -0.026
  0.001  0.920  0.001
 -0.026  0.001  0.883
atomic mag. moment =     0.038930
atom    8   Tr[ns(na)] (up, down, total) =   2.74260  2.70307  5.44567
   spin  1
    eigenvalues: 
  0.844  0.947  0.951
    eigenvectors:
  0.337  0.000  0.663
  0.508  0.244  0.248
  0.156  0.756  0.089
    occupations:
  0.915 -0.044  0.025
 -0.044  0.896  0.028
  0.025  0.028  0.932
   spin  2
    eigenvalues: 
  0.864  0.920  0.920
    eigenvectors:
  0.333  0.101  0.566
  0.513  0.060  0.427
  0.153  0.839  0.007
    occupations:
  0.901 -0.023  0.013
 -0.023  0.891  0.016
  0.013  0.016  0.911
atomic mag. moment =     0.039535
atom    9   Tr[ns(na)] (up, down, total) =   2.74250  2.70351  5.44601
   spin  1
    eigenvalues: 
  0.844  0.947  0.951
    eigenvectors:
  0.337  0.000  0.663
  0.487  0.259  0.254
  0.176  0.741  0.083
    occupations:
  0.915  0.043  0.026
  0.043  0.898 -0.030
  0.026 -0.030  0.929
   spin  2
    eigenvalues: 
  0.864  0.920  0.920
    eigenvectors:
  0.333  0.032  0.635
  0.487  0.379  0.135
  0.180  0.589  0.230
    occupations:
  0.901  0.022  0.014
  0.022  0.893 -0.016
  0.014 -0.016  0.910
atomic mag. moment =     0.038988
atom   10   Tr[ns(na)] (up, down, total) =   2.74250  2.70351  5.44601
   spin  1
    eigenvalues: 
  0.844  0.947  0.951
    eigenvectors:
  0.337  0.000  0.663
  0.000  1.000  0.000
  0.663  0.000  0.337
    occupations:
  0.915  0.001 -0.051
  0.001  0.947  0.001
 -0.051  0.001  0.880
   spin  2
    eigenvalues: 
  0.864  0.920  0.920
    eigenvectors:
  0.333  0.008  0.659
  0.000  0.984  0.016
  0.667  0.008  0.326
    occupations:
  0.901  0.001 -0.026
  0.001  0.920  0.001
 -0.026  0.001  0.883
atomic mag. moment =     0.038985
N of occupied +U levels =  56.1406467
 --- exit write_ns ---
 --- in v_hubbard ---
Hubbard energy    0.0599
 -------

     total cpu time spent up to now is      458.4 secs

     total energy              =    -538.29544583 Ry
     Harris-Foulkes estimate   =    -538.29544575 Ry
     estimated scf accuracy    <       0.00000028 Ry

     total magnetization       =     3.54 Bohr mag/cell
     absolute magnetization    =     3.69 Bohr mag/cell

     iteration #  7     ecut=    30.00 Ry     beta=0.20
     Davidson diagonalization with overlap
     ethr =  3.66E-10,  avg # of iterations =  1.8
 --- enter write_ns ---
 LDA+U parameters:
U( 1)     =  0.00000000
alpha( 1) =  0.00000000
U( 2)     =  0.00000000
alpha( 2) =  0.00000000
U( 3)     =  0.00000000
alpha( 3) =  0.15000000
U( 4)     =  0.00000000
alpha( 4) =  0.00000000
atom    1   Tr[ns(na)] (up, down, total) =   4.56615  3.37543  7.94158
   spin  1
    eigenvalues: 
  0.785  0.785  0.999  0.999  0.999
    eigenvectors:
  0.000  0.000  0.001  0.000  0.998
  0.060  0.586  0.015  0.338  0.000
  0.586  0.060  0.338  0.015  0.000
  0.072  0.281  0.189  0.458  0.000
  0.281  0.073  0.457  0.188  0.001
    occupations:
  0.999  0.000  0.000  0.000  0.000
  0.000  0.861  0.000 -0.073  0.072
  0.000  0.000  0.861  0.072  0.073
  0.000 -0.073  0.072  0.923  0.000
  0.000  0.072  0.073  0.000  0.923
   spin  2
    eigenvalues: 
  0.474  0.475  0.773  0.826  0.827
    eigenvectors:
  0.000  0.000  1.000  0.000  0.000
  0.124  0.515  0.000  0.155  0.206
[...]
     0.0313   0.0313   0.0313   0.0312   0.0312   0.0312   0.0312   0.0312
     0.0312   0.0293   0.0275   0.0259   0.0118   0.0072   0.0004   0.0000
     0.0000   0.0000   0.0000   0.0000   0.0000   0.0000

          k = 0.4942-0.5706 0.1027 (  2198 PWs)   bands (ev):

   -19.6825 -19.6423  -6.8661  -6.5492  -6.0364  -5.7774  -5.3851  -5.2518
    -3.2536  -3.2034  -2.8122  -2.6418  -2.4594  -2.3174   6.0478   6.4233
     7.0638   7.3278   7.4320   7.4840   7.7340   8.0181   8.1181   8.3124
     8.5515   9.1046   9.3407   9.5256   9.8719   9.9880  10.1468  10.5390
    11.6120  12.0277  12.0806  12.1967  12.3323  12.3418  13.1472  13.5090
    14.1274  14.9969  16.9604  17.1805  17.3700  18.0713

     occupation numbers 
     0.0313   0.0313   0.0313   0.0313   0.0313   0.0313   0.0313   0.0313
     0.0313   0.0313   0.0313   0.0313   0.0313   0.0313   0.0313   0.0313
     0.0313   0.0313   0.0313   0.0313   0.0313   0.0313   0.0313   0.0313
     0.0313   0.0313   0.0313   0.0313   0.0313   0.0312   0.0312   0.0312
     0.0310   0.0260   0.0244   0.0202   0.0144   0.0140   0.0001   0.0000
     0.0000   0.0000   0.0000   0.0000   0.0000   0.0000

          k =-0.7412 0.1427-0.1027 (  2198 PWs)   bands (ev):

   -19.6825 -19.6423  -6.8656  -6.5501  -6.0354  -5.7785  -5.3841  -5.2523
    -3.2529  -3.2035  -2.8120  -2.6429  -2.4586  -2.3178   6.0503   6.4197
     7.0679   7.3222   7.4127   7.4977   7.7450   8.0179   8.1432   8.2816
     8.5552   9.0973   9.3454   9.5284   9.8754   9.9846  10.1466  10.5383
    11.6147  11.9996  12.1063  12.1955  12.3278  12.3460  13.1500  13.5093
    14.1275  14.9955  16.9582  17.1830  17.3695  18.0714

     occupation numbers 
     0.0313   0.0313   0.0313   0.0313   0.0313   0.0313   0.0313   0.0313
     0.0313   0.0313   0.0313   0.0313   0.0313   0.0313   0.0313   0.0313
     0.0313   0.0313   0.0313   0.0313   0.0313   0.0313   0.0313   0.0313
     0.0313   0.0313   0.0313   0.0313   0.0313   0.0312   0.0312   0.0312
     0.0310   0.0267   0.0235   0.0202   0.0146   0.0138   0.0001   0.0000
     0.0000   0.0000   0.0000   0.0000   0.0000   0.0000

          k = 0.2471-0.7133-0.1027 (  2198 PWs)   bands (ev):

   -19.6825 -19.6423  -6.8661  -6.5494  -6.0367  -5.7774  -5.3830  -5.2538
    -3.2527  -3.2033  -2.8126  -2.6415  -2.4587  -2.3183   6.0494   6.4191
     7.0661   7.3223   7.4188   7.4934   7.7446   8.0124   8.1470   8.2866
     8.5533   9.0961   9.3468   9.5324   9.8700   9.9864  10.1454  10.5388
    11.6147  12.0003  12.1060  12.1928  12.3295  12.3470  13.1499  13.5093
    14.1276  14.9956  16.9600  17.1801  17.3694  18.0712

     occupation numbers 
     0.0313   0.0313   0.0313   0.0313   0.0313   0.0313   0.0313   0.0313
     0.0313   0.0313   0.0313   0.0313   0.0313   0.0313   0.0313   0.0313
     0.0313   0.0313   0.0313   0.0313   0.0313   0.0313   0.0313   0.0313
     0.0313   0.0313   0.0313   0.0313   0.0313   0.0312   0.0312   0.0312
     0.0310   0.0267   0.0235   0.0203   0.0145   0.0138   0.0001   0.0000
     0.0000   0.0000   0.0000   0.0000   0.0000   0.0000

          k =-0.7412-0.1427 0.1027 (  2198 PWs)   bands (ev):

   -19.6825 -19.6423  -6.8665  -6.5486  -6.0375  -5.7763  -5.3841  -5.2533
    -3.2534  -3.2032  -2.8128  -2.6405  -2.4594  -2.3179   6.0469   6.4227
     7.0622   7.3288   7.4373   7.4797   7.7335   8.0131   8.1217   8.3170
     8.5498   9.1032   9.3421   9.5296   9.8669   9.9895  10.1456  10.5396
    11.6121  12.0280  12.0808  12.1943  12.3334  12.3430  13.1471  13.5089
    14.1275  14.9969  16.9622  17.1776  17.3699  18.0708

     occupation numbers 
     0.0313   0.0313   0.0313   0.0313   0.0313   0.0313   0.0313   0.0313
     0.0313   0.0313   0.0313   0.0313   0.0313   0.0313   0.0313   0.0313
     0.0313   0.0313   0.0313   0.0313   0.0313   0.0313   0.0313   0.0313
     0.0313   0.0313   0.0313   0.0313   0.0313   0.0312   0.0312   0.0312
     0.0310   0.0260   0.0244   0.0202   0.0144   0.0139   0.0001   0.0000
     0.0000   0.0000   0.0000   0.0000   0.0000   0.0000

          k = 0.2471 0.7133 0.1027 (  2198 PWs)   bands (ev):

   -19.6838 -19.6430  -6.8509  -6.5532  -6.0234  -5.8050  -5.3954  -5.2377
    -3.2523  -3.2028  -2.8146  -2.6376  -2.4580  -2.3137   6.0299   6.4397
     7.0430   7.3203   7.4264   7.4637   7.7497   8.0235   8.1197   8.3083
     8.5635   9.0974   9.3597   9.5365   9.8652   9.9944  10.1497  10.5289
    11.6106  12.0302  12.0811  12.1946  12.3314  12.3468  13.1485  13.5054
    14.1301  14.9970  16.9602  17.1778  17.3691  18.0706

     occupation numbers 
     0.0313   0.0313   0.0313   0.0313   0.0313   0.0313   0.0313   0.0313
     0.0313   0.0313   0.0313   0.0313   0.0313   0.0313   0.0313   0.0313
     0.0313   0.0313   0.0313   0.0313   0.0313   0.0313   0.0313   0.0313
     0.0313   0.0313   0.0313   0.0313   0.0313   0.0312   0.0312   0.0312
     0.0310   0.0259   0.0244   0.0202   0.0144   0.0138   0.0001   0.0000
     0.0000   0.0000   0.0000   0.0000   0.0000   0.0000

          k = 0.2471-0.4280 0.0000 (  2203 PWs)   bands (ev):

   -19.6929 -19.6351  -6.7507  -6.5457  -5.9417  -5.8780  -5.3187  -5.2313
    -3.4580  -3.2468  -2.7368  -2.6414  -2.5013  -2.4866   5.9962   6.4495
     7.2743   7.4084   7.4648   7.5346   7.5867   7.9308   8.0348   8.4040
     8.6582   9.1161   9.5721   9.6912   9.9546   9.9710  10.2285  10.5494
    11.8764  11.8920  11.9585  12.1503  12.1715  12.4436  13.1181  13.9835
    14.1024  14.8019  16.5008  17.0511  17.4684  17.9719

     occupation numbers 
     0.0313   0.0313   0.0313   0.0313   0.0313   0.0313   0.0313   0.0313
     0.0313   0.0313   0.0313   0.0313   0.0313   0.0313   0.0313   0.0313
     0.0313   0.0313   0.0313   0.0313   0.0313   0.0313   0.0313   0.0313
     0.0313   0.0313   0.0313   0.0313   0.0312   0.0312   0.0312   0.0312
     0.0291   0.0289   0.0276   0.0220   0.0212   0.0098   0.0001   0.0000
     0.0000   0.0000   0.0000   0.0000   0.0000   0.0000

          k =-0.4942 0.0000 0.0000 (  2203 PWs)   bands (ev):

   -19.6929 -19.6351  -6.7507  -6.5458  -5.9416  -5.8780  -5.3187  -5.2313
    -3.4580  -3.2468  -2.7368  -2.6414  -2.5011  -2.4868   5.9962   6.4495
     7.2740   7.4124   7.4574   7.5374   7.5881   7.9310   8.0346   8.4036
     8.6583   9.1162   9.5722   9.6912   9.9529   9.9726  10.2285  10.5494
    11.8774  11.8911  11.9587  12.1505  12.1711  12.4437  13.1181  13.9836
    14.1023  14.8019  16.5008  17.0511  17.4684  17.9717

     occupation numbers 
     0.0313   0.0313   0.0313   0.0313   0.0313   0.0313   0.0313   0.0313
     0.0313   0.0313   0.0313   0.0313   0.0313   0.0313   0.0313   0.0313
     0.0313   0.0313   0.0313   0.0313   0.0313   0.0313   0.0313   0.0313
     0.0313   0.0313   0.0313   0.0313   0.0312   0.0312   0.0312   0.0312
     0.0291   0.0289   0.0276   0.0220   0.0212   0.0098   0.0001   0.0000
     0.0000   0.0000   0.0000   0.0000   0.0000   0.0000

          k = 0.4942 0.2853 0.4107 (  2202 PWs)   bands (ev):

   -19.6889 -19.6325  -7.0774  -6.3675  -6.1534  -5.8331  -5.4113  -5.1540
    -3.1446  -3.0835  -2.9824  -2.5863  -2.4091  -2.1559   5.9719   6.5233
     6.6418   7.2424   7.2686   7.3542   8.1005   8.1737   8.2771   8.3771
     8.7450   8.8506   8.8703   9.5515   9.7937  10.1711  10.1995  10.6198
    11.2159  11.8945  12.0197  12.2438  12.3855  12.4544  12.8762  13.2693
    14.0534  15.4243  17.0889  17.3401  17.5691  17.6362

     occupation numbers 
     0.0156   0.0156   0.0156   0.0156   0.0156   0.0156   0.0156   0.0156
     0.0156   0.0156   0.0156   0.0156   0.0156   0.0156   0.0156   0.0156
     0.0156   0.0156   0.0156   0.0156   0.0156   0.0156   0.0156   0.0156
     0.0156   0.0156   0.0156   0.0156   0.0156   0.0156   0.0156   0.0156
     0.0156   0.0144   0.0131   0.0091   0.0061   0.0047   0.0004   0.0000
     0.0000   0.0000   0.0000   0.0000   0.0000   0.0000

          k = 0.0000 0.5706-0.4107 (  2202 PWs)   bands (ev):

   -19.6889 -19.6325  -7.0774  -6.3677  -6.1532  -5.8332  -5.4114  -5.1540
    -3.1446  -3.0835  -2.9824  -2.5863  -2.4091  -2.1559   5.9719   6.5233
     6.6418   7.2422   7.2688   7.3542   8.0997   8.1745   8.2773   8.3769
     8.7450   8.8505   8.8704   9.5515   9.7937  10.1711  10.1995  10.6198
    11.2159  11.8945  12.0193  12.2449  12.3847  12.4544  12.8762  13.2693
    14.0534  15.4243  17.0889  17.3402  17.5691  17.6362

     occupation numbers 
     0.0156   0.0156   0.0156   0.0156   0.0156   0.0156   0.0156   0.0156
     0.0156   0.0156   0.0156   0.0156   0.0156   0.0156   0.0156   0.0156
     0.0156   0.0156   0.0156   0.0156   0.0156   0.0156   0.0156   0.0156
     0.0156   0.0156   0.0156   0.0156   0.0156   0.0156   0.0156   0.0156
     0.0156   0.0144   0.0131   0.0091   0.0061   0.0047   0.0004   0.0000
     0.0000   0.0000   0.0000   0.0000   0.0000   0.0000

          k = 0.7412-0.4280 0.0000 (  2204 PWs)   bands (ev):

   -19.6925 -19.6351  -6.6414  -6.4955  -6.0517  -5.7267  -5.5612  -5.4151
    -3.1055  -3.0289  -2.9910  -2.6122  -2.5942  -2.5075   6.0573   6.6233
     7.2917   7.4429   7.4485   7.5645   7.5872   7.8722   8.2218   8.3655
     8.6863   9.0131   9.6630   9.6823   9.7786   9.8486  10.0512  10.3898
    11.8690  11.8942  12.0195  12.1640  12.2125  12.4115  13.1085  13.9094
    14.0267  14.8299  16.7642  16.7706  17.6370  17.8551

     occupation numbers 
     0.0313   0.0313   0.0313   0.0313   0.0313   0.0313   0.0313   0.0313
     0.0313   0.0313   0.0313   0.0313   0.0313   0.0313   0.0313   0.0313
     0.0313   0.0313   0.0313   0.0313   0.0313   0.0313   0.0313   0.0313
     0.0313   0.0313   0.0313   0.0313   0.0313   0.0313   0.0312   0.0312
     0.0292   0.0288   0.0262   0.0214   0.0195   0.0111   0.0001   0.0000
     0.0000   0.0000   0.0000   0.0000   0.0000   0.0000

          k = 0.0000-0.8559 0.0000 (  2204 PWs)   bands (ev):

   -19.6926 -19.6349  -6.6352  -6.5081  -6.0433  -5.7211  -5.5565  -5.4285
    -3.1075  -3.0285  -2.9911  -2.6073  -2.5923  -2.5111   6.0413   6.6362
     7.2827   7.4432   7.4611   7.5513   7.5907   7.8828   8.2216   8.3821
     8.7016   8.9910   9.6459   9.6780   9.7791   9.8483  10.0493  10.3960
    11.8700  11.8974  12.0213  12.1645  12.2152  12.4081  13.1107  13.9092
    14.0259  14.8281  16.7619  16.7722  17.6390  17.8556

     occupation numbers 
     0.0313   0.0313   0.0313   0.0313   0.0313   0.0313   0.0313   0.0313
     0.0313   0.0313   0.0313   0.0313   0.0313   0.0313   0.0313   0.0313
     0.0313   0.0313   0.0313   0.0313   0.0313   0.0313   0.0313   0.0313
     0.0313   0.0313   0.0313   0.0313   0.0313   0.0313   0.0312   0.0312
     0.0292   0.0288   0.0261   0.0214   0.0194   0.0112   0.0001   0.0000
     0.0000   0.0000   0.0000   0.0000   0.0000   0.0000

          k = 0.4942-0.2853-0.1027 (  2211 PWs)   bands (ev):

   -19.6838 -19.6430  -6.8673  -6.4501  -6.2249  -5.5933  -5.5156  -5.2125
    -3.2659  -3.1158  -2.9645  -2.5374  -2.4909  -2.3055   6.0587   6.4105
     7.0139   7.3185   7.3490   7.4641   7.7520   8.0633   8.2182   8.2448
     8.6113   9.2133   9.3656   9.5846   9.7413   9.8615  10.2057  10.5417
    11.6111  12.0509  12.1479  12.2160  12.2741  12.2893  13.1150  13.5150
    14.1743  14.9804  16.9470  16.9846  17.6500  17.9863

     occupation numbers 
     0.0313   0.0313   0.0313   0.0313   0.0313   0.0313   0.0313   0.0313
     0.0313   0.0313   0.0313   0.0313   0.0313   0.0313   0.0313   0.0313
     0.0313   0.0313   0.0313   0.0313   0.0313   0.0313   0.0313   0.0313
     0.0313   0.0313   0.0313   0.0313   0.0313   0.0313   0.0312   0.0312
     0.0310   0.0253   0.0220   0.0194   0.0169   0.0163   0.0001   0.0000
     0.0000   0.0000   0.0000   0.0000   0.0000   0.0000

          k = 0.0000-0.5706 0.1027 (  2211 PWs)   bands (ev):

   -19.6826 -19.6423  -6.8819  -6.4465  -6.2270  -5.5775  -5.5062  -5.2256
    -3.2661  -3.1159  -2.9649  -2.5401  -2.4912  -2.3096   6.0755   6.3921
     7.0332   7.3236   7.3634   7.4733   7.7443   8.0566   8.2148   8.2491
     8.6001   9.2249   9.3497   9.5884   9.7438   9.8376  10.2025  10.5542
    11.6127  12.0488  12.1476  12.2139  12.2735  12.2904  13.1135  13.5186
    14.1717  14.9803  16.9478  16.9841  17.6496  17.9865

     occupation numbers 
     0.0313   0.0313   0.0313   0.0313   0.0313   0.0313   0.0313   0.0313
     0.0313   0.0313   0.0313   0.0313   0.0313   0.0313   0.0313   0.0313
     0.0313   0.0313   0.0313   0.0313   0.0313   0.0313   0.0313   0.0313
     0.0313   0.0313   0.0313   0.0313   0.0313   0.0313   0.0312   0.0312
     0.0310   0.0254   0.0221   0.0194   0.0169   0.0162   0.0001   0.0000
     0.0000   0.0000   0.0000   0.0000   0.0000   0.0000

          k = 0.7412 0.4280 0.3080 (  2210 PWs)   bands (ev):

   -19.6823 -19.6421  -6.8179  -6.3527  -6.2049  -5.6843  -5.6387  -5.3589
    -3.0141  -2.9869  -2.9124  -2.6671  -2.5473  -2.3613   6.1391   6.5472
     7.1170   7.3093   7.4106   7.4303   7.7606   8.1003   8.2367   8.2908
     8.5969   9.1887   9.1998   9.6836   9.7234   9.7834   9.8504  10.3939
    11.6631  12.0533  12.1332  12.2006  12.3087  12.3629  13.0753  13.4779
    14.1239  14.9467  17.1202  17.1326  17.6166  17.9565

     occupation numbers 
     0.0313   0.0313   0.0313   0.0313   0.0313   0.0313   0.0313   0.0313
     0.0313   0.0313   0.0313   0.0313   0.0313   0.0313   0.0313   0.0313
     0.0313   0.0313   0.0313   0.0313   0.0313   0.0313   0.0313   0.0313
     0.0313   0.0313   0.0313   0.0313   0.0313   0.0313   0.0313   0.0312
     0.0308   0.0252   0.0226   0.0200   0.0154   0.0131   0.0001   0.0000
     0.0000   0.0000   0.0000   0.0000   0.0000   0.0000

          k = 0.0000 0.8559-0.3080 (  2210 PWs)   bands (ev):

   -19.6823 -19.6421  -6.8179  -6.3526  -6.2049  -5.6843  -5.6387  -5.3589
    -3.0141  -2.9869  -2.9124  -2.6671  -2.5473  -2.3613   6.1392   6.5471
     7.1171   7.3087   7.4115   7.4301   7.7607   8.1008   8.2416   8.2840
     8.5982   9.1903   9.1983   9.6836   9.7235   9.7837   9.8499  10.3938
    11.6631  12.0530  12.1336  12.2006  12.3090  12.3626  13.0753  13.4778
    14.1239  14.9467  17.1202  17.1325  17.6166  17.9566

     occupation numbers 
     0.0313   0.0313   0.0313   0.0313   0.0313   0.0313   0.0313   0.0313
     0.0313   0.0313   0.0313   0.0313   0.0313   0.0313   0.0313   0.0313
     0.0313   0.0313   0.0313   0.0313   0.0313   0.0313   0.0313   0.0313
     0.0313   0.0313   0.0313   0.0313   0.0313   0.0313   0.0313   0.0312
     0.0308   0.0252   0.0226   0.0200   0.0154   0.0131   0.0001   0.0000
     0.0000   0.0000   0.0000   0.0000   0.0000   0.0000

          k = 0.2471 0.7133-0.2053 (  2206 PWs)   bands (ev):

   -19.6621 -19.6616  -6.7920  -6.7743  -5.9573  -5.9259  -5.3031  -5.2840
    -3.1059  -3.1054  -2.7503  -2.7451  -2.3138  -2.3104   6.2396   6.2772
     7.1820   7.1980   7.3570   7.3664   7.5873   7.6086   8.4377   8.4903
     8.9419   8.9651   9.2407   9.2549   9.7224   9.7376  10.2793  10.2923
    11.8669  11.8764  12.0404  12.0813  12.3566  12.3806  13.1364  13.1554
    14.6602  14.6755  17.4989  17.5021  17.9144  17.9151

     occupation numbers 
     0.0313   0.0313   0.0313   0.0313   0.0313   0.0313   0.0313   0.0313
     0.0313   0.0313   0.0313   0.0313   0.0313   0.0313   0.0313   0.0313
     0.0313   0.0313   0.0313   0.0313   0.0313   0.0313   0.0313   0.0313
     0.0313   0.0313   0.0313   0.0313   0.0313   0.0313   0.0312   0.0312
     0.0292   0.0291   0.0256   0.0244   0.0134   0.0124   0.0001   0.0000
     0.0000   0.0000   0.0000   0.0000   0.0000   0.0000

          k =-0.7412-0.1427-0.2053 (  2206 PWs)   bands (ev):

   -19.6610 -19.6608  -6.8100  -6.7753  -5.9288  -5.9271  -5.3146  -5.2824
    -3.1078  -3.1055  -2.7465  -2.7450  -2.3239  -2.3096   6.2385   6.2756
     7.1974   7.2054   7.3546   7.3969   7.5994   7.6141   8.4292   8.4718
     8.9355   8.9394   9.2518   9.2537   9.7113   9.7190  10.2925  10.2962
    11.8707  11.8802  12.0400  12.0818  12.3543  12.3782  13.1374  13.1570
    14.6586  14.6735  17.4993  17.5003  17.9151  17.9175

     occupation numbers 
     0.0313   0.0313   0.0313   0.0313   0.0313   0.0313   0.0313   0.0313
     0.0313   0.0313   0.0313   0.0313   0.0313   0.0313   0.0313   0.0313
     0.0313   0.0313   0.0313   0.0313   0.0313   0.0313   0.0313   0.0313
     0.0313   0.0313   0.0313   0.0313   0.0313   0.0313   0.0312   0.0312
     0.0292   0.0290   0.0256   0.0244   0.0135   0.0125   0.0001   0.0000
     0.0000   0.0000   0.0000   0.0000   0.0000   0.0000

     the Fermi energy is    12.3039 ev

!    total energy              =    -538.29544608 Ry
     Harris-Foulkes estimate   =    -538.29544602 Ry
     estimated scf accuracy    <          8.7E-09 Ry

     The total energy is the sum of the following terms:

     one-electron contribution =     -32.74090212 Ry
     hartree contribution      =      83.51985034 Ry
     xc contribution           =    -199.65129568 Ry
     ewald contribution        =    -389.44315552 Ry
     Hubbard energy            =       0.05993735 Ry
     smearing contrib. (-TS)   =      -0.03988044 Ry

     total magnetization       =     3.54 Bohr mag/cell
     absolute magnetization    =     3.69 Bohr mag/cell

     convergence has been achieved in  10 iterations

     init_run     :      7.75s CPU      7.90s WALL (       1 calls)
     electrons    :    649.99s CPU    653.21s WALL (       1 calls)

     Called by init_run:
     wfcinit      :      0.00s CPU      0.00s WALL (       1 calls)
     potinit      :      0.82s CPU      0.85s WALL (       1 calls)

     Called by electrons:
     c_bands      :    514.91s CPU    516.57s WALL (      10 calls)
     sum_band     :    106.51s CPU    107.50s WALL (      10 calls)
     v_of_rho     :      7.85s CPU      7.91s WALL (      11 calls)
     v_h          :      0.19s CPU      0.18s WALL (      11 calls)
     v_xc         :      7.66s CPU      7.72s WALL (      11 calls)
     newd         :     21.88s CPU     21.92s WALL (      11 calls)
     mix_rho      :      0.59s CPU      0.59s WALL (      10 calls)

     Called by c_bands:
     init_us_2    :      5.35s CPU      5.36s WALL (    1440 calls)
     cegterg      :    499.73s CPU    500.45s WALL (     720 calls)

     Called by sum_band:
     sum_band:bec :      0.56s CPU      0.55s WALL (     720 calls)
     addusdens    :     20.85s CPU     20.89s WALL (      10 calls)

     Called by *egterg:
     h_psi        :    360.84s CPU    361.45s WALL (    3090 calls)
     s_psi        :     20.79s CPU     20.81s WALL (    3090 calls)
     g_psi        :      1.67s CPU      1.67s WALL (    2370 calls)
     cdiaghg      :     48.89s CPU     48.93s WALL (    3018 calls)
     cegterg:over :     25.15s CPU     25.18s WALL (    2370 calls)
     cegterg:upda :     17.63s CPU     17.63s WALL (    2370 calls)
     cegterg:last :     10.68s CPU     10.70s WALL (     792 calls)

     Called by h_psi:
     h_psi:vloc   :    292.23s CPU    292.76s WALL (    3090 calls)
     h_psi:vnl    :     43.47s CPU     43.53s WALL (    3090 calls)
     add_vuspsi   :     21.15s CPU     21.17s WALL (    3090 calls)
     vhpsi        :     24.21s CPU     24.19s WALL (    3090 calls)

     General routines
     calbec       :     45.93s CPU     45.98s WALL (    7620 calls)
     fft          :      3.36s CPU      3.37s WALL (     329 calls)
     ffts         :      0.11s CPU      0.11s WALL (      42 calls)
     fftw         :    277.16s CPU    277.31s WALL (  199126 calls)
     interpolate  :      0.65s CPU      0.65s WALL (      42 calls)
     davcio       :      0.01s CPU      1.64s WALL (    1512 calls)

     Parallel routines
     fft_scatter  :     65.43s CPU     66.06s WALL (  199497 calls)
     Hubbard U routines
     new_ns       :      4.45s CPU      5.15s WALL (      10 calls)
     vhpsi        :     24.21s CPU     24.19s WALL (    3090 calls)

     PWSCF        : 10m58.15s CPU    11m 1.57s WALL


   This run was terminated on:  13:33:36  13Nov2012            

=------------------------------------------------------------------------------=
