 
Job started on n9 at Tue Nov 13 11:48:51 EST 2012

     Program PWSCF v.5.0.1 starts on 13Nov2012 at 11:48:52 

     This program is part of the open-source Quantum ESPRESSO suite
     for quantum simulation of materials; please cite
         "P. Giannozzi et al., J. Phys.:Condens. Matter 21 395502 (2009);
          URL http://www.quantum-espresso.org", 
     in publications or presentations arising from this work. More details at
     http://www.quantum-espresso.org/quote.php

     Parallel version (MPI), running on     2 processors
     R & G space division:  proc/pool =    2

     Current dimensions of program PWSCF are:
     Max number of different atomic species (ntypx) = 10
     Max number of k-points (npk) =  40000
     Max angular momentum in pseudopotentials (lmaxx) =  3
     Reading input from CoLaO_U0_init.in
               file Co.pbe-nd-rrkjus.UPF: wavefunction(s)  4S 3D renormalized
               file O.pbe-rrkjus.UPF: wavefunction(s)  2S renormalized
               file O.pbe-rrkjus.UPF: wavefunction(s)  2S renormalized

     Subspace diagonalization in iterative solution of the eigenvalue problem:
     a serial algorithm will be used


     Parallelization info
     --------------------
     sticks:   dense  smooth     PW     G-vecs:    dense   smooth      PW
     Min        1112     444    131                34808     8786    1448
     Max        1113     445    132                34809     8787    1449
     Sum        2225     889    263                69617    17573    2897


     Title: 
     GGA + U, U = 1D-40, init                                                   


     bravais-lattice index     =            5
     lattice parameter (alat)  =      10.3292  a.u.
     unit-cell volume          =     793.0599 (a.u.)^3
     number of atoms/cell      =           10
     number of atomic types    =            4
     number of electrons       =        76.00
     number of Kohn-Sham states=           46
     kinetic-energy cutoff     =      30.0000  Ry
     charge density cutoff     =     300.0000  Ry
     convergence threshold     =      1.0E-08
     mixing beta               =       0.2000
     number of iterations used =            8  plain     mixing
     Exchange-correlation      =  SLA  PW   PBE  PBE ( 1 4 3 4 0)
     EXX-fraction              =        0.00

     celldm(1)=  10.329242  celldm(2)=   0.000000  celldm(3)=   0.000000
     celldm(4)=   0.488100  celldm(5)=   0.000000  celldm(6)=   0.000000

     crystal axes: (cart. coord. in units of alat)
               a(1) = (   0.505915  -0.292090   0.811624 )  
               a(2) = (   0.000000   0.584180   0.811624 )  
               a(3) = (  -0.505915  -0.292090   0.811624 )  

     reciprocal axes: (cart. coord. in units 2 pi/alat)
               b(1) = (  0.988308 -0.570600  0.410699 )  
               b(2) = (  0.000000  1.141200  0.410699 )  
               b(3) = ( -0.988308 -0.570600  0.410699 )  


     PseudoPot. # 1 for Co read from file:
     /home/mcurnan/dft-course/Project1/example_LaCoO3/Co.pbe-nd-rrkjus.UPF
     MD5 check sum: 3e47a84addf5e975e0edeaeee2a73f59
     Pseudo is Ultrasoft + core correction, Zval =  9.0
     Generated by new atomic code, or converted to UPF format
     Using radial grid of  961 points,  6 beta functions with: 
                l(1) =   0
                l(2) =   0
                l(3) =   1
                l(4) =   1
                l(5) =   2
                l(6) =   2
     Q(r) pseudized with 0 coefficients 


     PseudoPot. # 2 for La read from file:
     /home/mcurnan/dft-course/Project1/example_LaCoO3/La.pbe-nsp-van.UPF
     MD5 check sum: b2f11743f52dde65f77d1302becd7929
     Pseudo is Ultrasoft + core correction, Zval = 11.0
     Generated by new atomic code, or converted to UPF format
     Using radial grid of  907 points,  6 beta functions with: 
                l(1) =   0
                l(2) =   0
                l(3) =   1
                l(4) =   1
                l(5) =   2
                l(6) =   2
     Q(r) pseudized with  6 coefficients,  rinner =    1.200   1.200   1.200
                                                       1.200   1.200

     PseudoPot. # 3 for O  read from file:
     /home/mcurnan/dft-course/Project1/example_LaCoO3/O.pbe-rrkjus.UPF
     MD5 check sum: 390ba29e75625707450f3bd3f0eb6be9
     Pseudo is Ultrasoft, Zval =  6.0
     Generated by new atomic code, or converted to UPF format
     Using radial grid of 1269 points,  4 beta functions with: 
                l(1) =   0
                l(2) =   0
                l(3) =   1
                l(4) =   1
     Q(r) pseudized with 0 coefficients 


     PseudoPot. # 4 for O  read from file:
     /home/mcurnan/dft-course/Project1/example_LaCoO3/O.pbe-rrkjus.UPF
     MD5 check sum: 390ba29e75625707450f3bd3f0eb6be9
     Pseudo is Ultrasoft, Zval =  6.0
     Generated by new atomic code, or converted to UPF format
     Using radial grid of 1269 points,  4 beta functions with: 
                l(1) =   0
                l(2) =   0
                l(3) =   1
                l(4) =   1
     Q(r) pseudized with 0 coefficients 


     atomic species   valence    mass     pseudopotential
        Co1            9.00     1.00000     Co( 1.00)
        La1           11.00     1.00000     La( 1.00)
        O1             6.00     1.00000     O ( 1.00)
        O2             6.00     1.00000     O ( 1.00)

     Starting magnetic structure 
     atomic species   magnetization
        Co1          1.000
        La1          0.000
        O1           0.000
        O2           0.000
 -----
     simplified LDA+U calculation, Hubbard_lmax = 2
     atomic species  L   Hubbard U  Hubbard alpha
        Co1          2    0.000000    0.000000
        La1          2    0.000000    0.000000
        O1           1    0.000000    0.000000
        O2           1    0.000000    0.000000
 -----

     No symmetry found


                                    s                        frac. trans.

      isym =  1     identity                                     

 cryst.   s( 1) = (     1          0          0      )
                  (     0          1          0      )
                  (     0          0          1      )

 cart.    s( 1) = (  1.0000000  0.0000000  0.0000000 )
                  (  0.0000000  1.0000000  0.0000000 )
                  (  0.0000000  0.0000000  1.0000000 )


     point group C_1 (1)    
     there are  1 classes
     the character table:

       E    
A      1.00

     the symmetry operations in each class:
     E        1

   Cartesian axes

     site n.     atom                  positions (alat units)
         1           Co1 tau(   1) = (   0.2228050  -0.1992639   1.0141240  )
         2           Co1 tau(   2) = (  -0.2831100   0.0928263   1.4199360  )
         3           La1 tau(   3) = (  -0.2831100   0.0928263   0.8112181  )
         4           La1 tau(   4) = (   0.2228050   0.3849164   1.2170300  )
         5           O1  tau(   5) = (   0.0000000   0.0000000   0.0000000  )
         6           O2  tau(   6) = (   0.0008601   0.1861491   1.6232478  )
         7           O2  tau(   7) = (   0.1616398   0.0923297   0.8116239  )
         8           O2  tau(   8) = (  -0.0603051  -0.1064377   1.2166242  )
         9           O2  tau(   9) = (   0.4447499  -0.0004966   1.2166242  )
        10           O2  tau(  10) = (  -0.2219449   0.3854130   1.2166242  )

   Crystallographic axes

     site n.     atom                  positions (cryst. coord.)
         1           Co1 tau(   1) = (  0.7504000  0.1891000  0.3100000  )
         2           Co1 tau(   2) = (  0.2504000  0.6891000  0.8100000  )
         3           La1 tau(   3) = (  0.0004000  0.4391000  0.5600000  )
         4           La1 tau(   4) = (  0.5004000  0.9391000  0.0600000  )
         5           O1  tau(   5) = (  0.0000000  0.0000000  0.0000000  )
         6           O2  tau(   6) = (  0.5613000  0.8791000  0.5596000  )
         7           O2  tau(   7) = (  0.4404000  0.4387000  0.1209000  )
         8           O2  tau(   8) = (  0.5008000  0.3782000  0.6200000  )
         9           O2  tau(   9) = (  0.9395000  0.4991000  0.0604000  )
        10           O2  tau(  10) = (  0.0604000  0.9395000  0.4991000  )

     number of k points=    72  gaussian smearing, width (Ry)=  0.0300
                       cart. coord. in units 2pi/alat
        k(    1) = (   0.0000000   0.0000000   0.0000000), wk =   0.0156250
        k(    2) = (  -0.2470771  -0.1426500   0.1026748), wk =   0.0312500
        k(    3) = (   0.4941541   0.2853000  -0.2053496), wk =   0.0156250
        k(    4) = (  -0.2470771   0.1426500   0.2053496), wk =   0.0312500
        k(    5) = (   0.4941541   0.5706001  -0.1026748), wk =   0.0312500
        k(    6) = (   0.2470771   0.4279500   0.0000000), wk =   0.0312500
        k(    7) = (   0.4941541  -0.2853000  -0.4106993), wk =   0.0156250
        k(    8) = (   0.0000000   0.0000000   0.3080244), wk =   0.0312500
        k(    9) = (   0.7412312   0.4279500   0.0000000), wk =   0.0312500
        k(   10) = (   0.4941541   0.2853000   0.1026748), wk =   0.0312500
        k(   11) = (   0.7412312  -0.4279500  -0.3080244), wk =   0.0312500
        k(   12) = (   0.4941541  -0.5706001  -0.2053496), wk =   0.0312500
        k(   13) = (   0.0000000   0.0000000  -0.6160489), wk =   0.0156250
        k(   14) = (  -0.2470771   0.1426500  -0.1026748), wk =   0.0312500
        k(   15) = (   0.0000000   0.2853000   0.1026748), wk =   0.0312500
        k(   16) = (   0.4941541  -0.2853000   0.2053496), wk =   0.0156250
        k(   17) = (   0.0000000  -0.5706001  -0.2053496), wk =   0.0156250
        k(   18) = (  -0.2470771  -0.1426500  -0.2053496), wk =   0.0312500
        k(   19) = (   0.0000000  -0.2853000   0.2053496), wk =   0.0312500
        k(   20) = (   0.4941541  -0.5706001   0.1026748), wk =   0.0312500
        k(   21) = (  -0.7412312   0.1426500  -0.1026748), wk =   0.0312500
        k(   22) = (   0.2470771  -0.7132501  -0.1026748), wk =   0.0312500
        k(   23) = (  -0.7412312  -0.1426500   0.1026748), wk =   0.0312500
        k(   24) = (   0.2470771   0.7132501   0.1026748), wk =   0.0312500
        k(   25) = (   0.2470771  -0.4279500   0.0000000), wk =   0.0312500
        k(   26) = (  -0.4941541   0.0000000   0.0000000), wk =   0.0312500
        k(   27) = (   0.4941541   0.2853000   0.4106993), wk =   0.0156250
        k(   28) = (   0.0000000   0.5706001  -0.4106993), wk =   0.0156250
        k(   29) = (   0.7412312  -0.4279500   0.0000000), wk =   0.0312500
        k(   30) = (   0.0000000  -0.8559001   0.0000000), wk =   0.0312500
        k(   31) = (   0.4941541  -0.2853000  -0.1026748), wk =   0.0312500
        k(   32) = (   0.0000000  -0.5706001   0.1026748), wk =   0.0312500
        k(   33) = (   0.7412312   0.4279500   0.3080244), wk =   0.0312500
        k(   34) = (   0.0000000   0.8559001  -0.3080244), wk =   0.0312500
        k(   35) = (   0.2470771   0.7132501  -0.2053496), wk =   0.0312500
        k(   36) = (  -0.7412312  -0.1426500  -0.2053496), wk =   0.0312500
        k(   37) = (   0.0000000   0.0000000   0.0000000), wk =   0.0156250
        k(   38) = (  -0.2470771  -0.1426500   0.1026748), wk =   0.0312500
        k(   39) = (   0.4941541   0.2853000  -0.2053496), wk =   0.0156250
        k(   40) = (  -0.2470771   0.1426500   0.2053496), wk =   0.0312500
        k(   41) = (   0.4941541   0.5706001  -0.1026748), wk =   0.0312500
        k(   42) = (   0.2470771   0.4279500   0.0000000), wk =   0.0312500
        k(   43) = (   0.4941541  -0.2853000  -0.4106993), wk =   0.0156250
        k(   44) = (   0.0000000   0.0000000   0.3080244), wk =   0.0312500
        k(   45) = (   0.7412312   0.4279500   0.0000000), wk =   0.0312500
        k(   46) = (   0.4941541   0.2853000   0.1026748), wk =   0.0312500
        k(   47) = (   0.7412312  -0.4279500  -0.3080244), wk =   0.0312500
        k(   48) = (   0.4941541  -0.5706001  -0.2053496), wk =   0.0312500
        k(   49) = (   0.0000000   0.0000000  -0.6160489), wk =   0.0156250
        k(   50) = (  -0.2470771   0.1426500  -0.1026748), wk =   0.0312500
        k(   51) = (   0.0000000   0.2853000   0.1026748), wk =   0.0312500
        k(   52) = (   0.4941541  -0.2853000   0.2053496), wk =   0.0156250
        k(   53) = (   0.0000000  -0.5706001  -0.2053496), wk =   0.0156250
        k(   54) = (  -0.2470771  -0.1426500  -0.2053496), wk =   0.0312500
        k(   55) = (   0.0000000  -0.2853000   0.2053496), wk =   0.0312500
        k(   56) = (   0.4941541  -0.5706001   0.1026748), wk =   0.0312500
        k(   57) = (  -0.7412312   0.1426500  -0.1026748), wk =   0.0312500
        k(   58) = (   0.2470771  -0.7132501  -0.1026748), wk =   0.0312500
        k(   59) = (  -0.7412312  -0.1426500   0.1026748), wk =   0.0312500
        k(   60) = (   0.2470771   0.7132501   0.1026748), wk =   0.0312500
        k(   61) = (   0.2470771  -0.4279500   0.0000000), wk =   0.0312500
        k(   62) = (  -0.4941541   0.0000000   0.0000000), wk =   0.0312500
        k(   63) = (   0.4941541   0.2853000   0.4106993), wk =   0.0156250
        k(   64) = (   0.0000000   0.5706001  -0.4106993), wk =   0.0156250
        k(   65) = (   0.7412312  -0.4279500   0.0000000), wk =   0.0312500
        k(   66) = (   0.0000000  -0.8559001   0.0000000), wk =   0.0312500
        k(   67) = (   0.4941541  -0.2853000  -0.1026748), wk =   0.0312500
        k(   68) = (   0.0000000  -0.5706001   0.1026748), wk =   0.0312500
        k(   69) = (   0.7412312   0.4279500   0.3080244), wk =   0.0312500
        k(   70) = (   0.0000000   0.8559001  -0.3080244), wk =   0.0312500
        k(   71) = (   0.2470771   0.7132501  -0.2053496), wk =   0.0312500
        k(   72) = (  -0.7412312  -0.1426500  -0.2053496), wk =   0.0312500

                       cryst. coord.
        k(    1) = (   0.0000000   0.0000000   0.0000000), wk =   0.0156250
        k(    2) = (   0.0000000   0.0000000   0.2500000), wk =   0.0312500
        k(    3) = (   0.0000000   0.0000000  -0.5000000), wk =   0.0156250
        k(    4) = (   0.0000000   0.2500000   0.2500000), wk =   0.0312500
        k(    5) = (   0.0000000   0.2500000  -0.5000000), wk =   0.0312500
        k(    6) = (   0.0000000   0.2500000  -0.2500000), wk =   0.0312500
        k(    7) = (   0.0000000  -0.5000000  -0.5000000), wk =   0.0156250
        k(    8) = (   0.2500000   0.2500000   0.2500000), wk =   0.0312500
        k(    9) = (   0.2500000   0.2500000  -0.5000000), wk =   0.0312500
        k(   10) = (   0.2500000   0.2500000  -0.2500000), wk =   0.0312500
        k(   11) = (   0.2500000  -0.5000000  -0.5000000), wk =   0.0312500
        k(   12) = (   0.2500000  -0.5000000  -0.2500000), wk =   0.0312500
        k(   13) = (  -0.5000000  -0.5000000  -0.5000000), wk =   0.0156250
        k(   14) = (  -0.2500000   0.0000000   0.0000000), wk =   0.0312500
        k(   15) = (   0.0000000   0.2500000   0.0000000), wk =   0.0312500
        k(   16) = (   0.5000000   0.0000000   0.0000000), wk =   0.0156250
        k(   17) = (   0.0000000  -0.5000000   0.0000000), wk =   0.0156250
        k(   18) = (  -0.2500000  -0.2500000   0.0000000), wk =   0.0312500
        k(   19) = (   0.2500000   0.0000000   0.2500000), wk =   0.0312500
        k(   20) = (   0.5000000  -0.2500000   0.0000000), wk =   0.0312500
        k(   21) = (  -0.5000000   0.0000000   0.2500000), wk =   0.0312500
        k(   22) = (   0.2500000  -0.5000000   0.0000000), wk =   0.0312500
        k(   23) = (  -0.2500000   0.0000000   0.5000000), wk =   0.0312500
        k(   24) = (   0.0000000   0.5000000  -0.2500000), wk =   0.0312500
        k(   25) = (   0.2500000  -0.2500000   0.0000000), wk =   0.0312500
        k(   26) = (  -0.2500000   0.0000000   0.2500000), wk =   0.0312500
        k(   27) = (   0.5000000   0.5000000   0.0000000), wk =   0.0156250
        k(   28) = (  -0.5000000   0.0000000  -0.5000000), wk =   0.0156250
        k(   29) = (   0.5000000  -0.2500000  -0.2500000), wk =   0.0312500
        k(   30) = (   0.2500000  -0.5000000   0.2500000), wk =   0.0312500
        k(   31) = (   0.2500000  -0.2500000  -0.2500000), wk =   0.0312500
        k(   32) = (   0.2500000  -0.2500000   0.2500000), wk =   0.0312500
        k(   33) = (   0.5000000   0.5000000  -0.2500000), wk =   0.0312500
        k(   34) = (  -0.5000000   0.2500000  -0.5000000), wk =   0.0312500
        k(   35) = (  -0.2500000   0.2500000  -0.5000000), wk =   0.0312500
        k(   36) = (  -0.5000000  -0.2500000   0.2500000), wk =   0.0312500
        k(   37) = (   0.0000000   0.0000000   0.0000000), wk =   0.0156250
        k(   38) = (   0.0000000   0.0000000   0.2500000), wk =   0.0312500
        k(   39) = (   0.0000000   0.0000000  -0.5000000), wk =   0.0156250
        k(   40) = (   0.0000000   0.2500000   0.2500000), wk =   0.0312500
        k(   41) = (   0.0000000   0.2500000  -0.5000000), wk =   0.0312500
        k(   42) = (   0.0000000   0.2500000  -0.2500000), wk =   0.0312500
        k(   43) = (   0.0000000  -0.5000000  -0.5000000), wk =   0.0156250
        k(   44) = (   0.2500000   0.2500000   0.2500000), wk =   0.0312500
        k(   45) = (   0.2500000   0.2500000  -0.5000000), wk =   0.0312500
        k(   46) = (   0.2500000   0.2500000  -0.2500000), wk =   0.0312500
        k(   47) = (   0.2500000  -0.5000000  -0.5000000), wk =   0.0312500
        k(   48) = (   0.2500000  -0.5000000  -0.2500000), wk =   0.0312500
        k(   49) = (  -0.5000000  -0.5000000  -0.5000000), wk =   0.0156250
        k(   50) = (  -0.2500000   0.0000000   0.0000000), wk =   0.0312500
        k(   51) = (   0.0000000   0.2500000   0.0000000), wk =   0.0312500
        k(   52) = (   0.5000000   0.0000000   0.0000000), wk =   0.0156250
        k(   53) = (   0.0000000  -0.5000000   0.0000000), wk =   0.0156250
        k(   54) = (  -0.2500000  -0.2500000   0.0000000), wk =   0.0312500
        k(   55) = (   0.2500000   0.0000000   0.2500000), wk =   0.0312500
        k(   56) = (   0.5000000  -0.2500000   0.0000000), wk =   0.0312500
        k(   57) = (  -0.5000000   0.0000000   0.2500000), wk =   0.0312500
        k(   58) = (   0.2500000  -0.5000000   0.0000000), wk =   0.0312500
        k(   59) = (  -0.2500000   0.0000000   0.5000000), wk =   0.0312500
        k(   60) = (   0.0000000   0.5000000  -0.2500000), wk =   0.0312500
        k(   61) = (   0.2500000  -0.2500000   0.0000000), wk =   0.0312500
        k(   62) = (  -0.2500000   0.0000000   0.2500000), wk =   0.0312500
        k(   63) = (   0.5000000   0.5000000   0.0000000), wk =   0.0156250
        k(   64) = (  -0.5000000   0.0000000  -0.5000000), wk =   0.0156250
        k(   65) = (   0.5000000  -0.2500000  -0.2500000), wk =   0.0312500
        k(   66) = (   0.2500000  -0.5000000   0.2500000), wk =   0.0312500
        k(   67) = (   0.2500000  -0.2500000  -0.2500000), wk =   0.0312500
        k(   68) = (   0.2500000  -0.2500000   0.2500000), wk =   0.0312500
        k(   69) = (   0.5000000   0.5000000  -0.2500000), wk =   0.0312500
        k(   70) = (  -0.5000000   0.2500000  -0.5000000), wk =   0.0312500
        k(   71) = (  -0.2500000   0.2500000  -0.5000000), wk =   0.0312500
        k(   72) = (  -0.5000000  -0.2500000   0.2500000), wk =   0.0312500

     Dense  grid:    69617 G-vectors     FFT dimensions: (  60,  60,  60)

     Smooth grid:    17573 G-vectors     FFT dimensions: (  40,  40,  40)

     Largest allocated arrays     est. size (Mb)     dimensions
        Kohn-Sham Wavefunctions         0.79 Mb     (   1119,   46)
        Atomic wavefunctions            1.06 Mb     (   1119,   62)
        NL pseudopotentials             2.05 Mb     (   1119,  120)
        Each V/rho on FFT grid          3.30 Mb     ( 108000,   2)
        Each G-vector array             0.27 Mb     (  34808)
        G-vector shells                 0.04 Mb     (   4682)
     Largest temporary arrays     est. size (Mb)     dimensions
        Auxiliary wavefunctions         3.14 Mb     (   1119,  184)
        Each subspace H/S matrix        0.52 Mb     ( 184, 184)
        Each <psi_i|beta_j> matrix      0.08 Mb     (    120,   46)
        Arrays for rho mixing          13.18 Mb     ( 108000,   8)

     Check: negative/imaginary core charge=   -0.000028    0.000000

     Initial potential from superposition of free atoms

     starting charge   75.93482, renormalised to   76.00000
 --- in v_hubbard ---
Hubbard energy    0.0000
 -------
     Number of +U iterations with fixed ns =  0
     Starting occupations:
 --- enter write_ns ---
 LDA+U parameters:
U( 1)     =  0.00000000
alpha( 1) =  0.00000000
U( 2)     =  0.00000000
alpha( 2) =  0.00000000
U( 3)     =  0.00000000
alpha( 3) =  0.00000000
U( 4)     =  0.00000000
alpha( 4) =  0.00000000
atom    1   Tr[ns(na)] (up, down, total) =   5.00000  2.00000  7.00000
   spin  1
    eigenvalues: 
  1.000  1.000  1.000  1.000  1.000
    eigenvectors:
  1.000  0.000  0.000  0.000  0.000
  0.000  1.000  0.000  0.000  0.000
  0.000  0.000  1.000  0.000  0.000
  0.000  0.000  0.000  1.000  0.000
  0.000  0.000  0.000  0.000  1.000
    occupations:
  1.000  0.000  0.000  0.000  0.000
  0.000  1.000  0.000  0.000  0.000
  0.000  0.000  1.000  0.000  0.000
  0.000  0.000  0.000  1.000  0.000
  0.000  0.000  0.000  0.000  1.000
   spin  2
    eigenvalues: 
  0.400  0.400  0.400  0.400  0.400
    eigenvectors:
  1.000  0.000  0.000  0.000  0.000
  0.000  1.000  0.000  0.000  0.000
  0.000  0.000  1.000  0.000  0.000
  0.000  0.000  0.000  1.000  0.000
  0.000  0.000  0.000  0.000  1.000
    occupations:
  0.400  0.000  0.000  0.000  0.000
  0.000  0.400  0.000  0.000  0.000
  0.000  0.000  0.400  0.000  0.000
  0.000  0.000  0.000  0.400  0.000
  0.000  0.000  0.000  0.000  0.400
atomic mag. moment =     3.000000
atom    2   Tr[ns(na)] (up, down, total) =   5.00000  2.00000  7.00000
   spin  1
    eigenvalues: 
  1.000  1.000  1.000  1.000  1.000
    eigenvectors:
  1.000  0.000  0.000  0.000  0.000
  0.000  1.000  0.000  0.000  0.000
  0.000  0.000  1.000  0.000  0.000
  0.000  0.000  0.000  1.000  0.000
  0.000  0.000  0.000  0.000  1.000
    occupations:
  1.000  0.000  0.000  0.000  0.000
  0.000  1.000  0.000  0.000  0.000
  0.000  0.000  1.000  0.000  0.000
  0.000  0.000  0.000  1.000  0.000
  0.000  0.000  0.000  0.000  1.000
   spin  2
    eigenvalues: 
  0.400  0.400  0.400  0.400  0.400
    eigenvectors:
  1.000  0.000  0.000  0.000  0.000
  0.000  1.000  0.000  0.000  0.000
  0.000  0.000  1.000  0.000  0.000
  0.000  0.000  0.000  1.000  0.000
  0.000  0.000  0.000  0.000  1.000
    occupations:
  0.400  0.000  0.000  0.000  0.000
  0.000  0.400  0.000  0.000  0.000
  0.000  0.000  0.400  0.000  0.000
  0.000  0.000  0.000  0.400  0.000
  0.000  0.000  0.000  0.000  0.400
atomic mag. moment =     3.000000
atom    3   Tr[ns(na)] (up, down, total) =   0.50000  0.50000  1.00000
   spin  1
    eigenvalues: 
  0.100  0.100  0.100  0.100  0.100
    eigenvectors:
  1.000  0.000  0.000  0.000  0.000
  0.000  1.000  0.000  0.000  0.000
  0.000  0.000  1.000  0.000  0.000
  0.000  0.000  0.000  1.000  0.000
  0.000  0.000  0.000  0.000  1.000
    occupations:
  0.100  0.000  0.000  0.000  0.000
  0.000  0.100  0.000  0.000  0.000
  0.000  0.000  0.100  0.000  0.000
  0.000  0.000  0.000  0.100  0.000
  0.000  0.000  0.000  0.000  0.100
   spin  2
    eigenvalues: 
  0.100  0.100  0.100  0.100  0.100
    eigenvectors:
  1.000  0.000  0.000  0.000  0.000
  0.000  1.000  0.000  0.000  0.000
  0.000  0.000  1.000  0.000  0.000
  0.000  0.000  0.000  1.000  0.000
  0.000  0.000  0.000  0.000  1.000
    occupations:
  0.100  0.000  0.000  0.000  0.000
  0.000  0.100  0.000  0.000  0.000
  0.000  0.000  0.100  0.000  0.000
  0.000  0.000  0.000  0.100  0.000
  0.000  0.000  0.000  0.000  0.100
atomic mag. moment =     0.000000
atom    4   Tr[ns(na)] (up, down, total) =   0.50000  0.50000  1.00000
   spin  1
    eigenvalues: 
  0.100  0.100  0.100  0.100  0.100
    eigenvectors:
  1.000  0.000  0.000  0.000  0.000
  0.000  1.000  0.000  0.000  0.000
  0.000  0.000  1.000  0.000  0.000
  0.000  0.000  0.000  1.000  0.000
  0.000  0.000  0.000  0.000  1.000
    occupations:
  0.100  0.000  0.000  0.000  0.000
  0.000  0.100  0.000  0.000  0.000
  0.000  0.000  0.100  0.000  0.000
  0.000  0.000  0.000  0.100  0.000
  0.000  0.000  0.000  0.000  0.100
   spin  2
    eigenvalues: 
  0.100  0.100  0.100  0.100  0.100
    eigenvectors:
  1.000  0.000  0.000  0.000  0.000
  0.000  1.000  0.000  0.000  0.000
  0.000  0.000  1.000  0.000  0.000
  0.000  0.000  0.000  1.000  0.000
  0.000  0.000  0.000  0.000  1.000
    occupations:
  0.100  0.000  0.000  0.000  0.000
  0.000  0.100  0.000  0.000  0.000
  0.000  0.000  0.100  0.000  0.000
  0.000  0.000  0.000  0.100  0.000
  0.000  0.000  0.000  0.000  0.100
atomic mag. moment =     0.000000
atom    5   Tr[ns(na)] (up, down, total) =   2.00000  2.00000  4.00000
   spin  1
    eigenvalues: 
  0.667  0.667  0.667
    eigenvectors:
  1.000  0.000  0.000
  0.000  1.000  0.000
  0.000  0.000  1.000
    occupations:
  0.667  0.000  0.000
  0.000  0.667  0.000
  0.000  0.000  0.667
   spin  2
    eigenvalues: 
  0.667  0.667  0.667
    eigenvectors:
  1.000  0.000  0.000
  0.000  1.000  0.000
  0.000  0.000  1.000
    occupations:
  0.667  0.000  0.000
  0.000  0.667  0.000
  0.000  0.000  0.667
atomic mag. moment =     0.000000
atom    6   Tr[ns(na)] (up, down, total) =   2.00000  2.00000  4.00000
   spin  1
    eigenvalues: 
  0.667  0.667  0.667
    eigenvectors:
  1.000  0.000  0.000
  0.000  1.000  0.000
  0.000  0.000  1.000
    occupations:
  0.667  0.000  0.000
  0.000  0.667  0.000
  0.000  0.000  0.667
   spin  2
    eigenvalues: 
  0.667  0.667  0.667
    eigenvectors:
  1.000  0.000  0.000
  0.000  1.000  0.000
  0.000  0.000  1.000
    occupations:
  0.667  0.000  0.000
  0.000  0.667  0.000
  0.000  0.000  0.667
atomic mag. moment =     0.000000
atom    7   Tr[ns(na)] (up, down, total) =   2.00000  2.00000  4.00000
   spin  1
    eigenvalues: 
  0.667  0.667  0.667
    eigenvectors:
  1.000  0.000  0.000
  0.000  1.000  0.000
  0.000  0.000  1.000
    occupations:
  0.667  0.000  0.000
  0.000  0.667  0.000
  0.000  0.000  0.667
   spin  2
    eigenvalues: 
  0.667  0.667  0.667
    eigenvectors:
  1.000  0.000  0.000
  0.000  1.000  0.000
  0.000  0.000  1.000
    occupations:
  0.667  0.000  0.000
  0.000  0.667  0.000
  0.000  0.000  0.667
atomic mag. moment =     0.000000
atom    8   Tr[ns(na)] (up, down, total) =   2.00000  2.00000  4.00000
   spin  1
    eigenvalues: 
  0.667  0.667  0.667
    eigenvectors:
  1.000  0.000  0.000
  0.000  1.000  0.000
  0.000  0.000  1.000
    occupations:
  0.667  0.000  0.000
  0.000  0.667  0.000
  0.000  0.000  0.667
   spin  2
    eigenvalues: 
  0.667  0.667  0.667
    eigenvectors:
  1.000  0.000  0.000
  0.000  1.000  0.000
  0.000  0.000  1.000
    occupations:
  0.667  0.000  0.000
  0.000  0.667  0.000
  0.000  0.000  0.667
atomic mag. moment =     0.000000
atom    9   Tr[ns(na)] (up, down, total) =   2.00000  2.00000  4.00000
   spin  1
    eigenvalues: 
  0.667  0.667  0.667
    eigenvectors:
  1.000  0.000  0.000
  0.000  1.000  0.000
  0.000  0.000  1.000
    occupations:
  0.667  0.000  0.000
  0.000  0.667  0.000
  0.000  0.000  0.667
   spin  2
    eigenvalues: 
  0.667  0.667  0.667
    eigenvectors:
  1.000  0.000  0.000
  0.000  1.000  0.000
  0.000  0.000  1.000
    occupations:
  0.667  0.000  0.000
  0.000  0.667  0.000
  0.000  0.000  0.667
atomic mag. moment =     0.000000
atom   10   Tr[ns(na)] (up, down, total) =   2.00000  2.00000  4.00000
   spin  1
    eigenvalues: 
  0.667  0.667  0.667
    eigenvectors:
  1.000  0.000  0.000
  0.000  1.000  0.000
  0.000  0.000  1.000
    occupations:
  0.667  0.000  0.000
  0.000  0.667  0.000
  0.000  0.000  0.667
   spin  2
    eigenvalues: 
  0.667  0.667  0.667
    eigenvectors:
  1.000  0.000  0.000
  0.000  1.000  0.000
  0.000  0.000  1.000
    occupations:
  0.667  0.000  0.000
  0.000  0.667  0.000
  0.000  0.000  0.667
atomic mag. moment =     0.000000
N of occupied +U levels =  40.0000000
 --- exit write_ns ---
 Atomic wfc used for LDA+U Projector are NOT orthogonalized
     Starting wfc are   62 randomized atomic wfcs

     total cpu time spent up to now is       32.9 secs

     per-process dynamical memory:    42.6 Mb

     Self-consistent Calculation

     iteration #  1     ecut=    30.00 Ry     beta=0.20
     Davidson diagonalization with overlap
     ethr =  1.00E-02,  avg # of iterations =  2.3
 --- enter write_ns ---
 LDA+U parameters:
U( 1)     =  0.00000000
alpha( 1) =  0.00000000
U( 2)     =  0.00000000
alpha( 2) =  0.00000000
U( 3)     =  0.00000000
alpha( 3) =  0.00000000
U( 4)     =  0.00000000
alpha( 4) =  0.00000000
atom    1   Tr[ns(na)] (up, down, total) =   4.99381  0.57573  5.56954
   spin  1
    eigenvalues: 
  0.997  0.998  0.998  1.000  1.000
    eigenvectors:
  1.000  0.000  0.000  0.000  0.000
  0.000  0.335  0.031  0.411  0.224
  0.000  0.030  0.332  0.226  0.412
  0.000  0.633  0.002  0.309  0.056
  0.000  0.002  0.635  0.054  0.309
    occupations:
  0.997  0.000  0.000  0.000  0.000
  0.000  1.000  0.000  0.001  0.000
  0.000  0.000  1.000  0.000 -0.001
  0.000  0.001  0.000  0.999  0.000
  0.000  0.000 -0.001  0.000  0.999
   spin  2
    eigenvalues: 
  0.075  0.075  0.076  0.175  0.175
    eigenvectors:
  0.007  0.000  0.993  0.000  0.000
  0.166  0.189  0.002  0.641  0.002
  0.189  0.168  0.001  0.002  0.641
  0.027  0.616  0.000  0.100  0.257
  0.611  0.027  0.005  0.257  0.100
    occupations:
  0.076  0.000  0.000  0.000  0.000
  0.000  0.139  0.000  0.027 -0.039
  0.000  0.000  0.139 -0.039 -0.027
  0.000  0.027 -0.039  0.111  0.000
  0.000 -0.039 -0.027  0.000  0.111
atomic mag. moment =     4.418086
atom    2   Tr[ns(na)] (up, down, total) =   4.99439  0.56557  5.55996
   spin  1
    eigenvalues: 
  0.997  0.998  0.998  1.001  1.001
    eigenvectors:
  1.000  0.000  0.000  0.000  0.000
  0.000  0.207  0.154  0.284  0.355
  0.000  0.154  0.205  0.355  0.286
  0.000  0.474  0.165  0.226  0.136
  0.000  0.165  0.476  0.135  0.224
    occupations:
  0.997  0.000  0.000  0.000  0.000
  0.000  1.000  0.000 -0.001  0.000
  0.000  0.000  1.000  0.000  0.001
  0.000 -0.001  0.000  0.999  0.000
  0.000  0.000  0.001  0.000  0.999
   spin  2
    eigenvalues: 
  0.074  0.074  0.074  0.172  0.172
    eigenvectors:
  0.005  0.003  0.992  0.000  0.000
  0.345  0.010  0.002  0.032  0.611
  0.010  0.346  0.001  0.611  0.032
  0.115  0.524  0.004  0.307  0.050
  0.525  0.117  0.001  0.050  0.307
    occupations:
  0.074  0.000  0.000  0.000  0.000
  0.000  0.137  0.000 -0.027 -0.039
  0.000  0.000  0.137 -0.039  0.027
  0.000 -0.027 -0.039  0.109  0.000
  0.000 -0.039  0.027  0.000  0.109
atomic mag. moment =     4.428820
atom    3   Tr[ns(na)] (up, down, total) =   2.11649  1.97546  4.09195
   spin  1
    eigenvalues: 
  0.369  0.369  0.379  0.499  0.500
    eigenvectors:
  0.000  0.000  1.000  0.000  0.000
  0.015  0.304  0.000  0.042  0.639
  0.305  0.015  0.000  0.638  0.042
  0.649  0.031  0.000  0.301  0.019
  0.031  0.650  0.000  0.019  0.300
    occupations:
  0.379  0.000  0.000  0.000  0.000
  0.000  0.458  0.000  0.000 -0.061
  0.000  0.000  0.457 -0.061  0.000
  0.000  0.000 -0.061  0.411  0.000
  0.000 -0.061  0.000  0.000  0.411
   spin  2
    eigenvalues: 
  0.344  0.352  0.352  0.464  0.464
    eigenvectors:
  1.000  0.000  0.000  0.000  0.000
  0.000  0.334  0.040  0.391  0.236
  0.000  0.040  0.333  0.236  0.391
  0.000  0.066  0.561  0.141  0.232
  0.000  0.561  0.066  0.232  0.141
    occupations:
  0.344  0.000  0.000  0.000  0.000
  0.000  0.422  0.000  0.000 -0.054
  0.000  0.000  0.422 -0.054  0.000
  0.000  0.000 -0.054  0.394  0.000
  0.000 -0.054  0.000  0.000  0.394
atomic mag. moment =     0.141026
atom    4   Tr[ns(na)] (up, down, total) =   2.11659  1.97559  4.09218
   spin  1
    eigenvalues: 
  0.369  0.369  0.380  0.499  0.500
    eigenvectors:
  0.000  0.000  1.000  0.000  0.000
  0.000  0.321  0.000  0.665  0.014
  0.321  0.000  0.000  0.014  0.664
  0.678  0.000  0.000  0.007  0.315
  0.000  0.679  0.000  0.314  0.007
    occupations:
  0.380  0.000  0.000  0.000  0.000
  0.000  0.458  0.000  0.000 -0.061
  0.000  0.000  0.457 -0.061  0.000
  0.000  0.000 -0.061  0.411  0.000
  0.000 -0.061  0.000  0.000  0.411
   spin  2
    eigenvalues: 
  0.344  0.352  0.352  0.464  0.464
    eigenvectors:
  1.000  0.000  0.000  0.000  0.000
  0.000  0.330  0.044  0.115  0.512
  0.000  0.044  0.330  0.512  0.115
  0.000  0.072  0.554  0.306  0.068
  0.000  0.555  0.072  0.068  0.306
    occupations:
  0.344  0.000  0.000  0.000  0.000
  0.000  0.422  0.000  0.000 -0.054
  0.000  0.000  0.422 -0.054  0.000
  0.000  0.000 -0.054  0.394  0.000
  0.000 -0.054  0.000  0.000  0.394
atomic mag. moment =     0.141006
atom    5   Tr[ns(na)] (up, down, total) =   2.93971  2.93083  5.87054
   spin  1
    eigenvalues: 
  0.977  0.980  0.983
    eigenvectors:
  0.224  0.000  0.776
  0.583  0.248  0.169
  0.192  0.752  0.055
    occupations:
  0.981 -0.002  0.001
 -0.002  0.979  0.001
  0.001  0.001  0.980
   spin  2
    eigenvalues: 
  0.974  0.977  0.980
    eigenvectors:
  0.274  0.000  0.726
  0.553  0.241  0.206
  0.174  0.759  0.068
    occupations:
  0.978 -0.002  0.001
 -0.002  0.976  0.001
  0.001  0.001  0.977
atomic mag. moment =     0.008881
atom    6   Tr[ns(na)] (up, down, total) =   2.93972  2.93088  5.87059
   spin  1
    eigenvalues: 
  0.977  0.980  0.983
    eigenvectors:
  0.224  0.000  0.776
  0.576  0.256  0.168
  0.200  0.744  0.056
    occupations:
  0.981  0.002  0.001
  0.002  0.979 -0.001
  0.001 -0.001  0.980
   spin  2
    eigenvalues: 
  0.974  0.977  0.980
    eigenvectors:
  0.272  0.000  0.728
  0.537  0.259  0.205
  0.191  0.741  0.068
    occupations:
  0.978  0.002  0.001
  0.002  0.976 -0.001
  0.001 -0.001  0.977
atomic mag. moment =     0.008839
atom    7   Tr[ns(na)] (up, down, total) =   2.93971  2.93081  5.87052
   spin  1
    eigenvalues: 
  0.977  0.980  0.983
    eigenvectors:
  0.223  0.000  0.777
  0.000  1.000  0.000
  0.777  0.000  0.223
    occupations:
  0.981  0.000 -0.002
  0.000  0.980  0.000
 -0.002  0.000  0.978
   spin  2
    eigenvalues: 
  0.974  0.977  0.980
    eigenvectors:
  0.271  0.000  0.729
  0.000  1.000  0.000
  0.729  0.000  0.271
    occupations:
  0.978  0.000 -0.003
  0.000  0.977  0.000
 -0.003  0.000  0.975
atomic mag. moment =     0.008893
atom    8   Tr[ns(na)] (up, down, total) =   2.93972  2.93084  5.87057
   spin  1
    eigenvalues: 
  0.977  0.980  0.983
    eigenvectors:
  0.227  0.000  0.773
  0.582  0.249  0.168
  0.191  0.751  0.058
    occupations:
  0.981 -0.002  0.001
 -0.002  0.979  0.001
  0.001  0.001  0.980
   spin  2
    eigenvalues: 
  0.974  0.977  0.980
    eigenvectors:
  0.272  0.000  0.728
  0.553  0.243  0.204
  0.175  0.757  0.068
    occupations:
  0.978 -0.002  0.001
 -0.002  0.976  0.001
  0.001  0.001  0.977
atomic mag. moment =     0.008878
atom    9   Tr[ns(na)] (up, down, total) =   2.93972  2.93083  5.87055
   spin  1
    eigenvalues: 
  0.977  0.980  0.983
    eigenvectors:
  0.223  0.000  0.777
  0.580  0.252  0.168
  0.197  0.748  0.056
    occupations:
  0.981  0.002  0.001
  0.002  0.979 -0.001
  0.001 -0.001  0.980
   spin  2
    eigenvalues: 
  0.974  0.977  0.980
    eigenvectors:
  0.270  0.000  0.730
  0.542  0.256  0.202
  0.188  0.744  0.068
    occupations:
  0.978  0.002  0.001
  0.002  0.976 -0.001
  0.001 -0.001  0.977
atomic mag. moment =     0.008885
atom   10   Tr[ns(na)] (up, down, total) =   2.93972  2.93087  5.87059
   spin  1
    eigenvalues: 
  0.977  0.980  0.983
    eigenvectors:
  0.224  0.000  0.776
  0.000  1.000  0.000
  0.776  0.000  0.224
    occupations:
  0.981  0.000 -0.002
  0.000  0.980  0.000
 -0.002  0.000  0.978
   spin  2
    eigenvalues: 
  0.974  0.977  0.980
    eigenvectors:
  0.272  0.000  0.728
  0.000  1.000  0.000
  0.727  0.000  0.272
    occupations:
  0.978  0.000 -0.003
  0.000  0.977  0.000
 -0.003  0.000  0.975
atomic mag. moment =     0.008858
N of occupied +U levels =  54.5369893
 --- exit write_ns ---
 --- in v_hubbard ---
Hubbard energy    0.0000
 -------

     total cpu time spent up to now is       87.8 secs

     total energy              =    -536.64984175 Ry
     Harris-Foulkes estimate   =    -539.70490664 Ry
     estimated scf accuracy    <       9.69892088 Ry

     total magnetization       =    10.19 Bohr mag/cell
     absolute magnetization    =    10.22 Bohr mag/cell

     iteration #  2     ecut=    30.00 Ry     beta=0.20
     Davidson diagonalization with overlap
     ethr =  1.00E-02,  avg # of iterations =  3.0
 --- enter write_ns ---
 LDA+U parameters:
U( 1)     =  0.00000000
alpha( 1) =  0.00000000
U( 2)     =  0.00000000
alpha( 2) =  0.00000000
U( 3)     =  0.00000000
alpha( 3) =  0.00000000
U( 4)     =  0.00000000
alpha( 4) =  0.00000000
atom    1   Tr[ns(na)] (up, down, total) =   4.98103  2.03439  7.01542
   spin  1
    eigenvalues: 
  0.996  0.996  0.996  0.997  0.997
    eigenvectors:
  0.000  0.000  1.000  0.000  0.000
  0.446  0.158  0.000  0.179  0.217
  0.156  0.434  0.000  0.222  0.188
  0.395  0.004  0.000  0.576  0.025
  0.003  0.404  0.000  0.023  0.570
    occupations:
  0.996  0.000  0.000  0.000  0.000
  0.000  0.996  0.000  0.000  0.000
  0.000  0.000  0.996  0.000  0.000
  0.000  0.000  0.000  0.996  0.000
  0.000  0.000  0.000  0.000  0.996
   spin  2
    eigenvalues: 
  0.351  0.352  0.439  0.439  0.453
    eigenvectors:
  0.000  0.000  0.000  0.000  1.000
  0.629  0.006  0.054  0.311  0.000
  0.006  0.631  0.310  0.054  0.000
  0.231  0.134  0.527  0.109  0.000
  0.134  0.230  0.110  0.527  0.000
    occupations:
  0.453  0.000  0.000  0.000  0.000
  0.000  0.383  0.000 -0.031  0.029
  0.000  0.000  0.383  0.029  0.031
  0.000 -0.031  0.029  0.407  0.000
  0.000  0.029  0.031  0.000  0.407
atomic mag. moment =     2.946645
atom    2   Tr[ns(na)] (up, down, total) =   4.98084  2.12427  7.10511
   spin  1
    eigenvalues: 
  0.996  0.996  0.996  0.997  0.997
    eigenvectors:
  0.000  0.000  1.000  0.000  0.000
  0.283  0.307  0.000  0.392  0.017
  0.307  0.286  0.000  0.017  0.391
  0.007  0.401  0.000  0.487  0.106
  0.403  0.006  0.000  0.104  0.486
    occupations:
  0.996  0.000  0.000  0.000  0.000
  0.000  0.996  0.000  0.000  0.000
  0.000  0.000  0.996  0.000  0.000
  0.000  0.000  0.000  0.996  0.000
  0.000  0.000  0.000  0.000  0.996
   spin  2
    eigenvalues: 
  0.350  0.350  0.470  0.470  0.485
    eigenvectors:
  0.000  0.000  0.000  0.000  0.999
  0.474  0.167  0.353  0.007  0.000
  0.166  0.475  0.007  0.351  0.000
  0.015  0.343  0.205  0.437  0.000
  0.345  0.015  0.435  0.205  0.000
    occupations:
  0.485  0.000  0.000  0.000  0.000
  0.000  0.393  0.000  0.039  0.043
  0.000  0.000  0.393  0.042 -0.039
  0.000  0.039  0.042  0.427  0.000
  0.000  0.043 -0.039  0.000  0.427
atomic mag. moment =     2.856566
atom    3   Tr[ns(na)] (up, down, total) =   1.79493  1.77561  3.57054
   spin  1
    eigenvalues: 
  0.332  0.332  0.365  0.383  0.383
    eigenvectors:
  0.000  0.000  1.000  0.000  0.000
  0.560  0.328  0.000  0.000  0.111
  0.328  0.561  0.000  0.110  0.000
  0.041  0.069  0.000  0.887  0.003
  0.070  0.041  0.000  0.003  0.886
    occupations:
  0.365  0.000  0.000  0.000  0.000
  0.000  0.337  0.000  0.000  0.016
  0.000  0.000  0.337  0.016  0.000
  0.000  0.000  0.016  0.377  0.000
  0.000  0.016  0.000  0.000  0.378
   spin  2
    eigenvalues: 
  0.325  0.325  0.363  0.381  0.381
    eigenvectors:
  0.000  0.000  1.000  0.000  0.000
  0.862  0.023  0.000  0.102  0.013
  0.023  0.862  0.000  0.013  0.102
  0.003  0.112  0.000  0.101  0.784
  0.112  0.003  0.000  0.784  0.101
    occupations:
  0.363  0.000  0.000  0.000  0.000
  0.000  0.331  0.000  0.000  0.018
  0.000  0.000  0.331  0.018  0.000
  0.000  0.000  0.018  0.375  0.000
  0.000  0.018  0.000  0.000  0.375
atomic mag. moment =     0.019322
atom    4   Tr[ns(na)] (up, down, total) =   1.79490  1.77562  3.57051
   spin  1
    eigenvalues: 
  0.332  0.332  0.365  0.383  0.383
    eigenvectors:
  0.000  0.000  1.000  0.000  0.000
  0.514  0.373  0.000  0.004  0.108
  0.374  0.515  0.000  0.108  0.004
  0.047  0.065  0.000  0.853  0.035
  0.065  0.048  0.000  0.035  0.852
    occupations:
  0.365  0.000  0.000  0.000  0.000
  0.000  0.337  0.000  0.000  0.016
  0.000  0.000  0.337  0.016  0.000
  0.000  0.000  0.016  0.377  0.000
  0.000  0.016  0.000  0.000  0.377
   spin  2
    eigenvalues: 
  0.325  0.325  0.363  0.381  0.381
    eigenvectors:
  0.000  0.000  1.000  0.000  0.000
  0.819  0.066  0.000  0.051  0.064
  0.066  0.819  0.000  0.064  0.051
  0.009  0.106  0.000  0.492  0.393
  0.106  0.009  0.000  0.393  0.492
    occupations:
  0.363  0.000  0.000  0.000  0.000
  0.000  0.331  0.000  0.000  0.018
  0.000  0.000  0.331  0.018  0.000
  0.000  0.000  0.018  0.375  0.000
  0.000  0.018  0.000  0.000  0.375
atomic mag. moment =     0.019279
atom    5   Tr[ns(na)] (up, down, total) =   2.88675  2.78808  5.67484
   spin  1
    eigenvalues: 
  0.956  0.965  0.966
    eigenvectors:
  0.194  0.806  0.000
  0.602  0.143  0.254
  0.203  0.051  0.746
    occupations:
  0.963 -0.003  0.002
 -0.003  0.960  0.003
  0.002  0.003  0.964
   spin  2
    eigenvalues: 
  0.905  0.941  0.941
    eigenvectors:
  0.322  0.678  0.000
  0.507  0.253  0.241
  0.171  0.070  0.759
    occupations:
  0.930 -0.014  0.008
 -0.014  0.923  0.011
  0.008  0.011  0.935
atomic mag. moment =     0.098673
atom    6   Tr[ns(na)] (up, down, total) =   2.88674  2.78799  5.67473
   spin  1
    eigenvalues: 
  0.956  0.965  0.966
    eigenvectors:
  0.194  0.806  0.000
  0.607  0.143  0.250
  0.199  0.051  0.750
    occupations:
  0.963  0.003  0.002
  0.003  0.960 -0.003
  0.002 -0.003  0.964
   spin  2
    eigenvalues: 
  0.905  0.941  0.941
    eigenvectors:
  0.322  0.674  0.005
  0.511  0.202  0.287
  0.168  0.124  0.708
    occupations:
  0.930  0.014  0.008
  0.014  0.923 -0.011
  0.008 -0.011  0.935
atomic mag. moment =     0.098742
atom    7   Tr[ns(na)] (up, down, total) =   2.88683  2.78805  5.67488
   spin  1
    eigenvalues: 
  0.956  0.965  0.966
    eigenvectors:
  0.196  0.804  0.000
  0.000  0.000  1.000
  0.804  0.196  0.000
    occupations:
  0.963  0.000 -0.003
  0.000  0.966  0.000
 -0.003  0.000  0.958
   spin  2
    eigenvalues: 
  0.906  0.941  0.941
    eigenvectors:
  0.322  0.671  0.007
  0.000  0.011  0.989
  0.678  0.319  0.003
    occupations:
  0.930  0.000 -0.017
  0.000  0.941  0.000
 -0.017  0.000  0.917
atomic mag. moment =     0.098771
atom    8   Tr[ns(na)] (up, down, total) =   2.88673  2.78806  5.67479
   spin  1
    eigenvalues: 
  0.956  0.965  0.966
    eigenvectors:
  0.195  0.805  0.000
  0.602  0.143  0.255
  0.203  0.052  0.745
    occupations:
  0.963 -0.003  0.002
 -0.003  0.960  0.003
  0.002  0.003  0.964
   spin  2
    eigenvalues: 
  0.905  0.941  0.941
    eigenvectors:
  0.322  0.677  0.001
  0.507  0.259  0.235
  0.172  0.064  0.764
    occupations:
  0.930 -0.014  0.008
 -0.014  0.923  0.011
  0.008  0.011  0.935
atomic mag. moment =     0.098677
atom    9   Tr[ns(na)] (up, down, total) =   2.88679  2.78801  5.67480
   spin  1
    eigenvalues: 
  0.956  0.965  0.966
    eigenvectors:
  0.196  0.804  0.000
  0.605  0.143  0.251
  0.199  0.053  0.749
    occupations:
  0.963  0.003  0.002
  0.003  0.960 -0.003
  0.002 -0.003  0.964
   spin  2
    eigenvalues: 
  0.905  0.941  0.941
    eigenvectors:
  0.322  0.670  0.009
  0.511  0.188  0.302
  0.168  0.143  0.690
    occupations:
  0.930  0.014  0.008
  0.014  0.923 -0.011
  0.008 -0.011  0.935
atomic mag. moment =     0.098778
atom   10   Tr[ns(na)] (up, down, total) =   2.88680  2.78798  5.67478
   spin  1
    eigenvalues: 
  0.956  0.965  0.966
    eigenvectors:
  0.198  0.802  0.000
  0.000  0.000  1.000
  0.802  0.198  0.000
    occupations:
  0.963  0.000 -0.003
  0.000  0.966  0.000
 -0.003  0.000  0.958
   spin  2
    eigenvalues: 
  0.905  0.941  0.941
    eigenvectors:
  0.322  0.678  0.001
  0.000  0.001  0.999
  0.678  0.322  0.000
    occupations:
  0.930  0.000 -0.017
  0.000  0.941  0.000
 -0.017  0.000  0.917
atomic mag. moment =     0.098826
N of occupied +U levels =  55.3104099
 --- exit write_ns ---
 --- in v_hubbard ---
Hubbard energy    0.0000
 -------

     total cpu time spent up to now is      146.0 secs

     total energy              =    -537.78427685 Ry
     Harris-Foulkes estimate   =    -537.77264979 Ry
     estimated scf accuracy    <       1.00261807 Ry

     total magnetization       =     8.00 Bohr mag/cell
     absolute magnetization    =     8.04 Bohr mag/cell

     iteration #  3     ecut=    30.00 Ry     beta=0.20
     Davidson diagonalization with overlap
     ethr =  1.32E-03,  avg # of iterations =  2.0
 --- enter write_ns ---
 LDA+U parameters:
U( 1)     =  0.00000000
alpha( 1) =  0.00000000
U( 2)     =  0.00000000
alpha( 2) =  0.00000000
U( 3)     =  0.00000000
alpha( 3) =  0.00000000
U( 4)     =  0.00000000
alpha( 4) =  0.00000000
atom    1   Tr[ns(na)] (up, down, total) =   4.96639  2.91823  7.88462
   spin  1
    eigenvalues: 
  0.991  0.991  0.995  0.995  0.995
    eigenvectors:
  0.000  0.000  0.000  0.000  1.000
  0.445  0.231  0.004  0.320  0.000
  0.231  0.444  0.321  0.004  0.000
  0.273  0.051  0.557  0.119  0.000
  0.051  0.273  0.118  0.557  0.000
    occupations:
  0.995  0.000  0.000  0.000  0.000
  0.000  0.992  0.000 -0.001  0.001
  0.000  0.000  0.992  0.001  0.001
  0.000 -0.001  0.001  0.993  0.000
  0.000  0.001  0.001  0.000  0.993
   spin  2
    eigenvalues: 
  0.469  0.469  0.659  0.659  0.662
    eigenvectors:
  0.000  0.000  0.001  0.000  0.999
  0.644  0.002  0.156  0.197  0.000
  0.002  0.644  0.197  0.156  0.000
  0.140  0.213  0.639  0.007  0.001
  0.213  0.141  0.007  0.640  0.000
    occupations:
  0.662  0.000  0.000  0.000  0.000
  0.000  0.536  0.000 -0.053  0.074
  0.000  0.000  0.536  0.073  0.053
  0.000 -0.053  0.073  0.592  0.000
  0.000  0.074  0.053  0.000  0.592
atomic mag. moment =     2.048160
atom    2   Tr[ns(na)] (up, down, total) =   4.96705  2.30202  7.26907
   spin  1
    eigenvalues: 
  0.991  0.991  0.995  0.995  0.995
    eigenvectors:
  0.000  0.000  0.000  0.001  0.999
  0.007  0.661  0.003  0.328  0.000
  0.662  0.007  0.328  0.003  0.000
  0.262  0.069  0.528  0.141  0.000
  0.069  0.262  0.140  0.527  0.001
    occupations:
  0.995  0.000  0.000  0.000  0.000
  0.000  0.992  0.000  0.001  0.002
  0.000  0.000  0.992  0.002 -0.001
  0.000  0.001  0.002  0.994  0.000
  0.000  0.002 -0.001  0.000  0.994
   spin  2
    eigenvalues: 
  0.438  0.438  0.475  0.475  0.476
    eigenvectors:
  0.000  0.000  0.018  0.000  0.982
  0.104  0.500  0.196  0.197  0.003
  0.499  0.104  0.194  0.200  0.004
  0.010  0.387  0.146  0.455  0.002
  0.388  0.010  0.446  0.148  0.009
    occupations:
  0.476  0.000  0.000  0.000  0.000
  0.000  0.453  0.000  0.018  0.005
  0.000  0.000  0.453  0.005 -0.018
  0.000  0.018  0.005  0.460  0.000
  0.000  0.005 -0.018  0.000  0.460
atomic mag. moment =     2.665037
atom    3   Tr[ns(na)] (up, down, total) =   1.91928  1.85122  3.77050
   spin  1
    eigenvalues: 
  0.356  0.356  0.390  0.408  0.409
    eigenvectors:
  0.000  0.000  1.000  0.000  0.000
  0.185  0.721  0.000  0.011  0.084
  0.721  0.185  0.000  0.084  0.011
  0.075  0.019  0.000  0.805  0.101
  0.019  0.075  0.000  0.101  0.804
    occupations:
  0.390  0.000  0.000  0.000  0.000
  0.000  0.361  0.000  0.000  0.015
  0.000  0.000  0.361  0.015  0.000
  0.000  0.000  0.015  0.404  0.000
  0.000  0.015  0.000  0.000  0.404
   spin  2
    eigenvalues: 
  0.342  0.342  0.379  0.394  0.394
    eigenvectors:
  0.000  0.000  1.000  0.000  0.000
  0.001  0.897  0.000  0.069  0.034
  0.897  0.001  0.000  0.033  0.069
  0.102  0.000  0.000  0.320  0.578
  0.000  0.102  0.000  0.578  0.319
    occupations:
  0.379  0.000  0.000  0.000  0.000
  0.000  0.347  0.000  0.000  0.016
  0.000  0.000  0.347  0.016  0.001
  0.000  0.000  0.016  0.389  0.000
  0.000  0.016  0.001  0.000  0.389
atomic mag. moment =     0.068065
atom    4   Tr[ns(na)] (up, down, total) =   1.91921  1.85123  3.77044
   spin  1
    eigenvalues: 
  0.356  0.356  0.390  0.408  0.409
    eigenvectors:
  0.000  0.000  1.000  0.000  0.000
  0.018  0.886  0.000  0.009  0.086
  0.887  0.018  0.000  0.086  0.009
  0.093  0.002  0.000  0.816  0.090
  0.002  0.093  0.000  0.089  0.815
    occupations:
  0.390  0.000  0.000  0.000  0.000
  0.000  0.361  0.000  0.000  0.015
  0.000  0.000  0.361  0.015  0.000
  0.000  0.000  0.015  0.404  0.000
  0.000  0.015  0.000  0.000  0.404
   spin  2
    eigenvalues: 
  0.342  0.342  0.379  0.394  0.394
    eigenvectors:
  0.000  0.000  1.000  0.000  0.000
  0.890  0.008  0.000  0.063  0.039
  0.008  0.890  0.000  0.039  0.063
  0.000  0.102  0.000  0.370  0.528
  0.102  0.000  0.000  0.528  0.370
    occupations:
  0.379  0.000  0.000  0.000  0.000
  0.000  0.347  0.000  0.000  0.016
  0.000  0.000  0.347  0.016  0.001
  0.000  0.000  0.016  0.389  0.000
  0.000  0.016  0.001  0.000  0.389
atomic mag. moment =     0.067978
atom    5   Tr[ns(na)] (up, down, total) =   2.82824  2.66012  5.48837
   spin  1
    eigenvalues: 
  0.927  0.950  0.951
    eigenvectors:
  0.316  0.684  0.000
  0.513  0.240  0.248
  0.171  0.076  0.752
    occupations:
  0.943 -0.009  0.005
 -0.009  0.939  0.007
  0.005  0.007  0.947
   spin  2
    eigenvalues: 
  0.855  0.901  0.904
    eigenvectors:
  0.342  0.657  0.001
  0.522  0.253  0.225
  0.136  0.090  0.774
    occupations:
  0.885 -0.019  0.010
 -0.019  0.878  0.014
  0.010  0.014  0.897
atomic mag. moment =     0.168120
atom    6   Tr[ns(na)] (up, down, total) =   2.82821  2.66018  5.48839
   spin  1
    eigenvalues: 
  0.927  0.950  0.951
    eigenvectors:
  0.316  0.684  0.000
  0.514  0.232  0.254
  0.171  0.084  0.745
    occupations:
  0.943  0.009  0.005
  0.009  0.938 -0.007
  0.005 -0.007  0.947
   spin  2
    eigenvalues: 
  0.855  0.901  0.904
    eigenvectors:
  0.342  0.657  0.001
  0.463  0.259  0.278
  0.195  0.084  0.721
    occupations:
  0.885  0.018  0.012
  0.018  0.881 -0.015
  0.012 -0.015  0.894
atomic mag. moment =     0.168035
atom    7   Tr[ns(na)] (up, down, total) =   2.82828  2.66010  5.48838
   spin  1
    eigenvalues: 
  0.927  0.950  0.951
    eigenvectors:
  0.316  0.684  0.000
  0.000  0.000  1.000
  0.684  0.316  0.000
    occupations:
  0.943  0.000 -0.011
  0.000  0.951  0.000
 -0.011  0.000  0.934
   spin  2
    eigenvalues: 
  0.855  0.901  0.904
    eigenvectors:
  0.342  0.657  0.001
  0.002  0.000  0.998
  0.656  0.343  0.001
    occupations:
  0.885  0.001 -0.022
  0.001  0.904  0.002
 -0.022  0.002  0.871
atomic mag. moment =     0.168184
atom    8   Tr[ns(na)] (up, down, total) =   2.82826  2.66013  5.48838
   spin  1
    eigenvalues: 
  0.927  0.950  0.951
    eigenvectors:
  0.316  0.684  0.000
  0.513  0.240  0.247
  0.171  0.076  0.753
    occupations:
  0.943 -0.009  0.005
 -0.009  0.939  0.007
  0.005  0.007  0.947
   spin  2
    eigenvalues: 
  0.855  0.901  0.904
    eigenvectors:
  0.342  0.657  0.001
  0.522  0.253  0.225
  0.136  0.090  0.774
    occupations:
  0.885 -0.019  0.010
 -0.019  0.878  0.014
  0.010  0.014  0.897
atomic mag. moment =     0.168127
atom    9   Tr[ns(na)] (up, down, total) =   2.82820  2.66015  5.48835
   spin  1
    eigenvalues: 
  0.927  0.950  0.951
    eigenvectors:
  0.316  0.684  0.000
  0.514  0.235  0.251
  0.170  0.081  0.749
    occupations:
  0.943  0.009  0.005
  0.009  0.938 -0.007
  0.005 -0.007  0.947
   spin  2
    eigenvalues: 
  0.855  0.901  0.904
    eigenvectors:
  0.342  0.657  0.001
  0.463  0.260  0.277
  0.195  0.084  0.722
    occupations:
  0.885  0.018  0.012
  0.018  0.881 -0.015
  0.012 -0.015  0.894
atomic mag. moment =     0.168045
atom   10   Tr[ns(na)] (up, down, total) =   2.82828  2.66008  5.48836
   spin  1
    eigenvalues: 
  0.927  0.950  0.951
    eigenvectors:
  0.316  0.684  0.000
  0.000  0.000  1.000
  0.684  0.316  0.000
    occupations:
  0.943  0.000 -0.011
  0.000  0.951  0.000
 -0.011  0.000  0.934
   spin  2
    eigenvalues: 
  0.855  0.901  0.904
    eigenvectors:
  0.342  0.657  0.001
  0.002  0.000  0.998
  0.656  0.343  0.001
    occupations:
  0.885  0.001 -0.022
  0.001  0.904  0.002
 -0.022  0.002  0.871
atomic mag. moment =     0.168199
N of occupied +U levels =  55.6248581
 --- exit write_ns ---
 --- in v_hubbard ---
Hubbard energy    0.0000
 -------

     total cpu time spent up to now is      197.7 secs

     total energy              =    -537.93695389 Ry
     Harris-Foulkes estimate   =    -537.90455418 Ry
     estimated scf accuracy    <       0.70396685 Ry

     total magnetization       =     7.54 Bohr mag/cell
     absolute magnetization    =     7.54 Bohr mag/cell

     iteration #  4     ecut=    30.00 Ry     beta=0.20
     Davidson diagonalization with overlap
     ethr =  9.26E-04,  avg # of iterations =  1.0
 --- enter write_ns ---
 LDA+U parameters:
U( 1)     =  0.00000000
alpha( 1) =  0.00000000
U( 2)     =  0.00000000
alpha( 2) =  0.00000000
U( 3)     =  0.00000000
alpha( 3) =  0.00000000
U( 4)     =  0.00000000
alpha( 4) =  0.00000000
atom    1   Tr[ns(na)] (up, down, total) =   4.95203  1.59293  6.54496
   spin  1
    eigenvalues: 
  0.981  0.981  0.997  0.997  0.997
    eigenvectors:
  0.000  0.000  0.000  0.000  1.000
  0.024  0.630  0.170  0.176  0.000
  0.630  0.024  0.176  0.170  0.000
  0.269  0.077  0.648  0.006  0.000
  0.077  0.269  0.006  0.648  0.000
    occupations:
  0.997  0.000  0.000  0.000  0.000
  0.000  0.986  0.000 -0.005  0.006
  0.000  0.000  0.986  0.006  0.005
  0.000 -0.005  0.006  0.991  0.000
  0.000  0.006  0.005  0.000  0.991
   spin  2
    eigenvalues: 
  0.267  0.267  0.278  0.391  0.391
    eigenvectors:
  0.000  0.000  1.000  0.000  0.000
  0.010  0.344  0.000  0.613  0.033
  0.344  0.010  0.000  0.033  0.613
  0.641  0.005  0.000  0.077  0.278
  0.005  0.641  0.000  0.278  0.077
    occupations:
  0.278  0.000  0.000  0.000  0.000
  0.000  0.347  0.000  0.015 -0.058
  0.000  0.000  0.347 -0.058 -0.015
  0.000  0.015 -0.058  0.311  0.000
  0.000 -0.058 -0.015  0.000  0.311
atomic mag. moment =     3.359107
atom    2   Tr[ns(na)] (up, down, total) =   4.96361  3.48093  8.44454
   spin  1
    eigenvalues: 
  0.989  0.989  0.995  0.995  0.995
    eigenvectors:
  0.000  0.000  0.000  0.000  1.000
  0.015  0.648  0.306  0.030  0.000
  0.648  0.015  0.030  0.307  0.000
  0.266  0.071  0.068  0.596  0.000
  0.071  0.266  0.596  0.068  0.000
    occupations:
  0.995  0.000  0.000  0.000  0.000
  0.000  0.991  0.000  0.002  0.002
  0.000  0.000  0.991  0.002 -0.002
  0.000  0.002  0.002  0.993  0.000
  0.000  0.002 -0.002  0.000  0.993
   spin  2
    eigenvalues: 
  0.476  0.476  0.842  0.842  0.844
    eigenvectors:
  0.000  0.000  0.002  0.000  0.998
  0.589  0.059  0.325  0.026  0.000
  0.059  0.589  0.026  0.326  0.000
  0.024  0.328  0.055  0.593  0.000
  0.328  0.024  0.592  0.055  0.001
    occupations:
  0.844  0.000  0.000  0.000  0.000
  0.000  0.605  0.000  0.095  0.147
  0.000  0.000  0.605  0.147 -0.095
  0.000  0.095  0.147  0.713  0.000
  0.000  0.147 -0.095  0.000  0.713
atomic mag. moment =     1.482679
atom    3   Tr[ns(na)] (up, down, total) =   1.91812  1.86573  3.78385
   spin  1
    eigenvalues: 
  0.356  0.356  0.389  0.408  0.408
    eigenvectors:
  0.000  0.000  1.000  0.000  0.000
  0.014  0.893  0.000  0.011  0.083
  0.893  0.014  0.000  0.083  0.011
  0.092  0.001  0.000  0.809  0.097
  0.001  0.092  0.000  0.097  0.809
    occupations:
  0.389  0.000  0.000  0.000  0.000
  0.000  0.361  0.000  0.000  0.015
  0.000  0.000  0.361  0.015  0.000
  0.000  0.000  0.015  0.403  0.000
  0.000  0.015  0.000  0.000  0.404
   spin  2
    eigenvalues: 
  0.345  0.345  0.381  0.397  0.397
    eigenvectors:
  0.000  0.000  1.000  0.000  0.000
  0.729  0.173  0.000  0.075  0.023
  0.173  0.728  0.000  0.023  0.075
  0.015  0.084  0.000  0.176  0.726
  0.083  0.015  0.000  0.726  0.176
    occupations:
  0.381  0.000  0.000  0.000  0.000
  0.000  0.350  0.000  0.001  0.016
  0.000  0.000  0.350  0.016 -0.001
  0.000  0.001  0.016  0.392  0.000
  0.000  0.016 -0.001  0.000  0.392
atomic mag. moment =     0.052388
atom    4   Tr[ns(na)] (up, down, total) =   1.91807  1.86574  3.78380
   spin  1
    eigenvalues: 
  0.356  0.356  0.389  0.408  0.408
    eigenvectors:
  0.000  0.000  1.000  0.000  0.000
  0.024  0.882  0.000  0.001  0.093
  0.882  0.024  0.000  0.092  0.001
  0.091  0.002  0.000  0.892  0.014
  0.002  0.092  0.000  0.014  0.892
    occupations:
  0.389  0.000  0.000  0.000  0.000
  0.000  0.361  0.000  0.000  0.015
  0.000  0.000  0.361  0.015  0.000
  0.000  0.000  0.015  0.403  0.000
  0.000  0.015  0.000  0.000  0.403
   spin  2
    eigenvalues: 
  0.345  0.345  0.381  0.397  0.397
    eigenvectors:
  0.000  0.000  1.000  0.000  0.000
  0.876  0.025  0.000  0.065  0.033
  0.025  0.876  0.000  0.033  0.065
  0.005  0.094  0.000  0.264  0.638
  0.094  0.005  0.000  0.638  0.264
    occupations:
  0.381  0.000  0.000  0.000  0.000
  0.000  0.350  0.000  0.001  0.016
  0.000  0.000  0.350  0.016 -0.001
  0.000  0.001  0.016  0.392  0.000
  0.000  0.016 -0.001  0.000  0.392
atomic mag. moment =     0.052332
atom    5   Tr[ns(na)] (up, down, total) =   2.81679  2.69407  5.51085
   spin  1
    eigenvalues: 
  0.915  0.950  0.951
    eigenvectors:
  0.332  0.666  0.001
  0.514  0.236  0.250
  0.154  0.098  0.749
    occupations:
  0.939 -0.015  0.008
 -0.015  0.932  0.010
  0.008  0.010  0.946
   spin  2
    eigenvalues: 
  0.862  0.915  0.917
    eigenvectors:
  0.334  0.657  0.009
  0.409  0.274  0.318
  0.258  0.069  0.673
    occupations:
  0.898 -0.019  0.016
 -0.019  0.894  0.018
  0.016  0.018  0.902
atomic mag. moment =     0.122723
atom    6   Tr[ns(na)] (up, down, total) =   2.81676  2.69408  5.51084
   spin  1
    eigenvalues: 
  0.915  0.950  0.951
    eigenvectors:
  0.332  0.667  0.001
  0.487  0.261  0.252
  0.180  0.072  0.748
    occupations:
  0.939  0.014  0.009
  0.014  0.933 -0.011
  0.009 -0.011  0.945
   spin  2
    eigenvalues: 
  0.862  0.915  0.917
    eigenvectors:
  0.334  0.656  0.010
  0.576  0.239  0.185
  0.090  0.105  0.805
    occupations:
  0.898  0.023  0.009
  0.023  0.885 -0.013
  0.009 -0.013  0.912
atomic mag. moment =     0.122679
atom    7   Tr[ns(na)] (up, down, total) =   2.81681  2.69404  5.51085
   spin  1
    eigenvalues: 
  0.915  0.950  0.951
    eigenvectors:
  0.332  0.666  0.001
  0.000  0.001  0.999
  0.667  0.333  0.000
    occupations:
  0.939  0.000 -0.017
  0.000  0.951  0.001
 -0.017  0.001  0.927
   spin  2
    eigenvalues: 
  0.862  0.915  0.917
    eigenvectors:
  0.334  0.657  0.009
  0.014  0.001  0.985
  0.652  0.342  0.006
    occupations:
  0.898 -0.004 -0.025
 -0.004  0.916 -0.005
 -0.025 -0.005  0.881
atomic mag. moment =     0.122769
atom    8   Tr[ns(na)] (up, down, total) =   2.81679  2.69405  5.51084
   spin  1
    eigenvalues: 
  0.915  0.950  0.951
    eigenvectors:
  0.332  0.666  0.001
  0.514  0.235  0.251
  0.154  0.099  0.748
    occupations:
  0.939 -0.015  0.008
 -0.015  0.932  0.010
  0.008  0.010  0.946
   spin  2
    eigenvalues: 
  0.862  0.915  0.917
    eigenvectors:
  0.334  0.657  0.009
  0.409  0.273  0.318
  0.258  0.070  0.672
    occupations:
  0.898 -0.019  0.016
 -0.019  0.894  0.018
  0.016  0.018  0.902
atomic mag. moment =     0.122741
atom    9   Tr[ns(na)] (up, down, total) =   2.81676  2.69408  5.51084
   spin  1
    eigenvalues: 
  0.915  0.950  0.951
    eigenvectors:
  0.333  0.666  0.001
  0.487  0.264  0.248
  0.180  0.069  0.750
    occupations:
  0.939  0.014  0.009
  0.014  0.933 -0.011
  0.009 -0.011  0.945
   spin  2
    eigenvalues: 
  0.862  0.915  0.917
    eigenvectors:
  0.334  0.656  0.010
  0.576  0.239  0.185
  0.090  0.105  0.805
    occupations:
  0.898  0.023  0.009
  0.023  0.885 -0.013
  0.009 -0.013  0.912
atomic mag. moment =     0.122686
atom   10   Tr[ns(na)] (up, down, total) =   2.81680  2.69402  5.51082
   spin  1
    eigenvalues: 
  0.915  0.950  0.951
    eigenvectors:
  0.333  0.666  0.001
  0.000  0.001  0.999
  0.667  0.333  0.000
    occupations:
  0.939  0.000 -0.017
  0.000  0.951  0.001
 -0.017  0.001  0.927
   spin  2
    eigenvalues: 
  0.862  0.915  0.917
    eigenvectors:
  0.334  0.657  0.009
  0.014  0.001  0.984
  0.652  0.342  0.006
    occupations:
  0.898 -0.004 -0.025
 -0.004  0.916 -0.005
 -0.025 -0.005  0.881
atomic mag. moment =     0.122783
N of occupied +U levels =  55.6221959
 --- exit write_ns ---

     negative rho (up, down):  0.000E+00 0.307E-05
 --- in v_hubbard ---
Hubbard energy    0.0000
 -------

     total cpu time spent up to now is      246.2 secs

     total energy              =    -538.06862395 Ry
     Harris-Foulkes estimate   =    -538.04825190 Ry
     estimated scf accuracy    <       2.02137148 Ry

     total magnetization       =     7.20 Bohr mag/cell
     absolute magnetization    =     7.20 Bohr mag/cell

     iteration #  5     ecut=    30.00 Ry     beta=0.20
     Davidson diagonalization with overlap
     ethr =  9.26E-04,  avg # of iterations =  1.0
 --- enter write_ns ---
 LDA+U parameters:
U( 1)     =  0.00000000
alpha( 1) =  0.00000000
U( 2)     =  0.00000000
alpha( 2) =  0.00000000
U( 3)     =  0.00000000
alpha( 3) =  0.00000000
U( 4)     =  0.00000000
alpha( 4) =  0.00000000
atom    1   Tr[ns(na)] (up, down, total) =   4.96822  2.34429  7.31251
   spin  1
    eigenvalues: 
  0.988  0.988  0.998  0.998  0.998
    eigenvectors:
  0.000  0.000  0.000  0.000  1.000
  0.601  0.056  0.305  0.038  0.000
  0.056  0.601  0.038  0.305  0.000
  0.235  0.108  0.475  0.182  0.000
  0.108  0.235  0.182  0.475  0.000
    occupations:
  0.998  0.000  0.000  0.000  0.000
  0.000  0.991  0.000 -0.003  0.004
  0.000  0.000  0.991  0.004  0.003
  0.000 -0.003  0.004  0.994  0.000
  0.000  0.004  0.003  0.000  0.994
   spin  2
    eigenvalues: 
  0.404  0.404  0.509  0.510  0.517
    eigenvectors:
  0.000  0.000  0.000  0.000  1.000
  0.640  0.004  0.113  0.244  0.000
  0.004  0.640  0.244  0.113  0.000
  0.216  0.140  0.614  0.030  0.000
  0.140  0.216  0.030  0.614  0.000
    occupations:
  0.517  0.000  0.000  0.000  0.000
  0.000  0.442  0.000 -0.037  0.035
  0.000  0.000  0.442  0.035  0.037
  0.000 -0.037  0.035  0.472  0.000
  0.000  0.035  0.037  0.000  0.472
atomic mag. moment =     2.623926
atom    2   Tr[ns(na)] (up, down, total) =   4.96912  2.49528  7.46441
   spin  1
    eigenvalues: 
  0.988  0.988  0.997  0.997  0.998
    eigenvectors:
  0.000  0.000  0.000  0.000  1.000
  0.330  0.328  0.339  0.003  0.000
  0.328  0.330  0.003  0.339  0.000
  0.004  0.338  0.316  0.342  0.000
  0.338  0.004  0.342  0.316  0.000
    occupations:
  0.998  0.000  0.000  0.000  0.000
  0.000  0.991  0.000  0.003  0.003
  0.000  0.000  0.991  0.003 -0.003
  0.000  0.003  0.003  0.994  0.000
  0.000  0.003 -0.003  0.000  0.994
   spin  2
    eigenvalues: 
  0.405  0.405  0.559  0.559  0.566
    eigenvectors:
  0.000  0.000  0.000  0.000  1.000
  0.518  0.128  0.351  0.002  0.000
  0.128  0.519  0.002  0.351  0.000
  0.023  0.330  0.238  0.409  0.000
  0.330  0.023  0.409  0.237  0.000
    occupations:
  0.566  0.000  0.000  0.000  0.000
  0.000  0.460  0.000  0.049  0.055
  0.000  0.000  0.460  0.055 -0.049
  0.000  0.049  0.055  0.505  0.000
  0.000  0.055 -0.049  0.000  0.505
atomic mag. moment =     2.473841
atom    3   Tr[ns(na)] (up, down, total) =   1.92043  1.87680  3.79722
   spin  1
    eigenvalues: 
  0.357  0.357  0.389  0.409  0.409
    eigenvectors:
  0.000  0.000  1.000  0.000  0.000
  0.761  0.148  0.000  0.009  0.082
  0.148  0.761  0.000  0.082  0.009
  0.015  0.076  0.000  0.820  0.089
  0.076  0.015  0.000  0.089  0.820
    occupations:
  0.389  0.000  0.000  0.000  0.000
  0.000  0.361  0.000  0.000  0.015
  0.000  0.000  0.361  0.015  0.000
  0.000  0.000  0.015  0.404  0.000
  0.000  0.015  0.000  0.000  0.404
   spin  2
    eigenvalues: 
  0.346  0.346  0.384  0.400  0.400
    eigenvectors:
  0.000  0.000  1.000  0.000  0.000
  0.268  0.632  0.000  0.086  0.014
  0.632  0.267  0.000  0.014  0.086
  0.070  0.030  0.000  0.124  0.776
  0.030  0.070  0.000  0.776  0.124
    occupations:
  0.384  0.000  0.000  0.000  0.000
  0.000  0.352  0.000  0.000  0.016
  0.000  0.000  0.352  0.016  0.000
  0.000  0.000  0.016  0.395  0.000
  0.000  0.016  0.000  0.000  0.395
atomic mag. moment =     0.043630
atom    4   Tr[ns(na)] (up, down, total) =   1.92040  1.87678  3.79718
   spin  1
    eigenvalues: 
  0.356  0.356  0.389  0.409  0.409
    eigenvectors:
  0.000  0.000  1.000  0.000  0.000
  0.346  0.562  0.000  0.000  0.091
  0.563  0.346  0.000  0.091  0.000
  0.057  0.034  0.000  0.905  0.004
  0.034  0.057  0.000  0.004  0.904
    occupations:
  0.389  0.000  0.000  0.000  0.000
  0.000  0.361  0.000  0.000  0.015
  0.000  0.000  0.361  0.015  0.000
  0.000  0.000  0.015  0.404  0.000
  0.000  0.015  0.000  0.000  0.404
   spin  2
    eigenvalues: 
  0.346  0.346  0.384  0.400  0.400
    eigenvectors:
  0.000  0.000  1.000  0.000  0.000
  0.896  0.003  0.000  0.076  0.024
  0.003  0.896  0.000  0.024  0.077
  0.000  0.100  0.000  0.212  0.688
  0.100  0.000  0.000  0.688  0.212
    occupations:
  0.384  0.000  0.000  0.000  0.000
  0.000  0.352  0.000  0.000  0.016
  0.000  0.000  0.352  0.016  0.000
  0.000  0.000  0.016  0.395  0.000
  0.000  0.016  0.000  0.000  0.395
atomic mag. moment =     0.043613
atom    5   Tr[ns(na)] (up, down, total) =   2.83896  2.70624  5.54521
   spin  1
    eigenvalues: 
  0.935  0.951  0.953
    eigenvectors:
  0.283  0.717  0.000
  0.539  0.210  0.251
  0.177  0.073  0.749
    occupations:
  0.947 -0.007  0.004
 -0.007  0.943  0.006
  0.004  0.006  0.950
   spin  2
    eigenvalues: 
  0.876  0.914  0.916
    eigenvectors:
  0.330  0.670  0.000
  0.495  0.252  0.253
  0.175  0.079  0.747
    occupations:
  0.902 -0.015  0.009
 -0.015  0.896  0.012
  0.009  0.012  0.909
atomic mag. moment =     0.132719
atom    6   Tr[ns(na)] (up, down, total) =   2.83894  2.70624  5.54518
   spin  1
    eigenvalues: 
  0.935  0.951  0.953
    eigenvectors:
  0.283  0.717  0.000
  0.535  0.214  0.251
  0.181  0.070  0.749
    occupations:
  0.947  0.007  0.004
  0.007  0.943 -0.006
  0.004 -0.006  0.949
   spin  2
    eigenvalues: 
  0.876  0.914  0.916
    eigenvectors:
  0.330  0.670  0.000
  0.509  0.243  0.248
  0.160  0.088  0.752
    occupations:
  0.901  0.016  0.009
  0.016  0.895 -0.012
  0.009 -0.012  0.910
atomic mag. moment =     0.132698
atom    7   Tr[ns(na)] (up, down, total) =   2.83898  2.70623  5.54521
   spin  1
    eigenvalues: 
  0.935  0.951  0.953
    eigenvectors:
  0.284  0.716  0.000
  0.000  0.000  1.000
  0.716  0.284  0.000
    occupations:
  0.947  0.000 -0.008
  0.000  0.953  0.000
 -0.008  0.000  0.939
   spin  2
    eigenvalues: 
  0.876  0.914  0.916
    eigenvectors:
  0.330  0.670  0.000
  0.000  0.000  1.000
  0.670  0.330  0.000
    occupations:
  0.901  0.000 -0.018
  0.000  0.916  0.000
 -0.018  0.000  0.889
atomic mag. moment =     0.132745
atom    8   Tr[ns(na)] (up, down, total) =   2.83896  2.70622  5.54517
   spin  1
    eigenvalues: 
  0.935  0.951  0.953
    eigenvectors:
  0.284  0.716  0.000
  0.539  0.211  0.250
  0.177  0.073  0.750
    occupations:
  0.947 -0.007  0.004
 -0.007  0.943  0.006
  0.004  0.006  0.950
   spin  2
    eigenvalues: 
  0.876  0.914  0.916
    eigenvectors:
  0.330  0.670  0.000
  0.495  0.251  0.254
  0.175  0.079  0.746
    occupations:
  0.901 -0.015  0.009
 -0.015  0.896  0.012
  0.009  0.012  0.909
atomic mag. moment =     0.132739
atom    9   Tr[ns(na)] (up, down, total) =   2.83895  2.70626  5.54521
   spin  1
    eigenvalues: 
  0.935  0.951  0.953
    eigenvectors:
  0.284  0.716  0.000
  0.535  0.214  0.251
  0.181  0.070  0.749
    occupations:
  0.947  0.007  0.004
  0.007  0.943 -0.006
  0.004 -0.006  0.949
   spin  2
    eigenvalues: 
  0.876  0.914  0.916
    eigenvectors:
  0.330  0.670  0.000
  0.509  0.243  0.248
  0.160  0.088  0.752
    occupations:
  0.901  0.016  0.009
  0.016  0.895 -0.012
  0.009 -0.012  0.910
atomic mag. moment =     0.132693
atom   10   Tr[ns(na)] (up, down, total) =   2.83896  2.70620  5.54516
   spin  1
    eigenvalues: 
  0.935  0.951  0.953
    eigenvectors:
  0.284  0.716  0.000
  0.000  0.000  1.000
  0.716  0.284  0.000
    occupations:
  0.947  0.000 -0.008
  0.000  0.953  0.000
 -0.008  0.000  0.939
   spin  2
    eigenvalues: 
  0.876  0.914  0.916
    eigenvectors:
  0.330  0.670  0.000
  0.000  0.000  1.000
  0.670  0.330  0.000
    occupations:
  0.901  0.000 -0.018
  0.000  0.916  0.000
 -0.018  0.000  0.889
atomic mag. moment =     0.132764
N of occupied +U levels =  55.6424561
 --- exit write_ns ---

     negative rho (up, down):  0.000E+00 0.185E-03
 --- in v_hubbard ---
Hubbard energy    0.0000
 -------

     total cpu time spent up to now is      294.8 secs

     total energy              =    -538.23530721 Ry
     Harris-Foulkes estimate   =    -538.11519250 Ry
     estimated scf accuracy    <       0.20442480 Ry

     total magnetization       =     7.53 Bohr mag/cell
     absolute magnetization    =     7.53 Bohr mag/cell

     iteration #  6     ecut=    30.00 Ry     beta=0.20
     Davidson diagonalization with overlap
     ethr =  2.69E-04,  avg # of iterations =  1.9
 --- enter write_ns ---
 LDA+U parameters:
U( 1)     =  0.00000000
alpha( 1) =  0.00000000
U( 2)     =  0.00000000
alpha( 2) =  0.00000000
U( 3)     =  0.00000000
alpha( 3) =  0.00000000
U( 4)     =  0.00000000
alpha( 4) =  0.00000000
atom    1   Tr[ns(na)] (up, down, total) =   4.86590  3.34367  8.20957
   spin  1
    eigenvalues: 
  0.936  0.936  0.998  0.998  0.998
    eigenvectors:
  0.000  0.000  0.000  0.000  1.000
  0.612  0.037  0.019  0.332  0.000
  0.037  0.612  0.332  0.019  0.000
  0.229  0.122  0.230  0.419  0.000
  0.122  0.229  0.419  0.230  0.000
    occupations:
  0.998  0.000  0.000  0.000  0.000
  0.000  0.958  0.000 -0.019  0.023
  0.000  0.000  0.958  0.023  0.019
  0.000 -0.019  0.023  0.976  0.000
  0.000  0.023  0.019  0.000  0.976
   spin  2
    eigenvalues: 
  0.494  0.494  0.777  0.789  0.789
    eigenvectors:
  0.000  0.000  1.000  0.000  0.000
  0.484  0.169  0.000  0.002  0.345
  0.169  0.484  0.000  0.345  0.002
  0.263  0.084  0.000  0.449  0.204
  0.084  0.263  0.000  0.204  0.449
    occupations:
  0.777  0.000  0.000  0.000  0.000
  0.000  0.597  0.000 -0.070  0.121
  0.000  0.000  0.597  0.121  0.070
  0.000 -0.070  0.121  0.687  0.000
  0.000  0.121  0.070  0.000  0.687
atomic mag. moment =     1.522232
atom    2   Tr[ns(na)] (up, down, total) =   4.84864  2.95754  7.80618
   spin  1
    eigenvalues: 
  0.927  0.927  0.998  0.998  0.998
    eigenvectors:
  0.000  0.000  0.000  0.000  1.000
  0.450  0.199  0.340  0.011  0.000
  0.199  0.450  0.011  0.340  0.000
  0.004  0.347  0.380  0.269  0.000
  0.347  0.004  0.269  0.380  0.000
    occupations:
  0.998  0.000  0.000  0.000  0.000
  0.000  0.952  0.000  0.022  0.026
  0.000  0.000  0.952  0.026 -0.022
  0.000  0.022  0.026  0.973  0.000
  0.000  0.026 -0.022  0.000  0.973
   spin  2
    eigenvalues: 
  0.474  0.474  0.662  0.674  0.674
    eigenvectors:
  0.000  0.000  1.000  0.000  0.000
  0.296  0.359  0.000  0.224  0.122
  0.359  0.296  0.000  0.122  0.224
  0.028  0.317  0.000  0.560  0.095
  0.317  0.028  0.000  0.095  0.560
    occupations:
  0.662  0.000  0.000  0.000  0.000
  0.000  0.543  0.000  0.049  0.081
  0.000  0.000  0.543  0.081 -0.049
  0.000  0.049  0.081  0.605  0.000
  0.000  0.081 -0.049  0.000  0.605
atomic mag. moment =     1.891098
atom    3   Tr[ns(na)] (up, down, total) =   1.96073  1.94861  3.90934
   spin  1
    eigenvalues: 
  0.367  0.367  0.396  0.415  0.415
    eigenvectors:
  0.000  0.000  1.000  0.000  0.000
  0.480  0.450  0.000  0.005  0.065
  0.450  0.480  0.000  0.065  0.005
  0.034  0.036  0.000  0.863  0.066
  0.036  0.035  0.000  0.066  0.863
    occupations:
  0.396  0.000  0.000  0.000  0.000
  0.000  0.370  0.000  0.000  0.012
  0.000  0.000  0.370  0.012  0.000
  0.000  0.000  0.012  0.412  0.000
  0.000  0.012  0.000  0.000  0.412
   spin  2
    eigenvalues: 
  0.363  0.363  0.397  0.413  0.413
    eigenvectors:
  0.000  0.000  1.000  0.000  0.000
  0.851  0.062  0.000  0.087  0.000
  0.062  0.851  0.000  0.000  0.087
  0.004  0.082  0.000  0.001  0.912
  0.082  0.004  0.000  0.913  0.001
    occupations:
  0.397  0.000  0.000  0.000  0.000
  0.000  0.367  0.000 -0.001  0.014
  0.000  0.000  0.367  0.014  0.001
  0.000 -0.001  0.014  0.409  0.000
  0.000  0.014  0.001  0.000  0.409
atomic mag. moment =     0.012112
atom    4   Tr[ns(na)] (up, down, total) =   1.96066  1.94862  3.90928
   spin  1
    eigenvalues: 
  0.367  0.367  0.396  0.415  0.415
    eigenvectors:
  0.000  0.000  1.000  0.000  0.000
  0.444  0.485  0.000  0.003  0.067
  0.485  0.445  0.000  0.067  0.003
  0.037  0.033  0.000  0.888  0.042
  0.033  0.037  0.000  0.042  0.887
    occupations:
  0.396  0.000  0.000  0.000  0.000
  0.000  0.370  0.000  0.000  0.012
  0.000  0.000  0.370  0.012  0.000
  0.000  0.000  0.012  0.412  0.000
  0.000  0.012  0.000  0.000  0.412
   spin  2
    eigenvalues: 
  0.363  0.363  0.397  0.413  0.413
    eigenvectors:
  0.000  0.000  1.000  0.000  0.000
  0.858  0.055  0.000  0.087  0.000
  0.055  0.858  0.000  0.000  0.087
  0.004  0.083  0.000  0.001  0.912
  0.083  0.004  0.000  0.912  0.001
    occupations:
  0.397  0.000  0.000  0.000  0.000
  0.000  0.367  0.000 -0.001  0.014
  0.000  0.000  0.367  0.014  0.001
  0.000 -0.001  0.014  0.409  0.000
  0.000  0.014  0.001  0.000  0.409
atomic mag. moment =     0.012036
atom    5   Tr[ns(na)] (up, down, total) =   2.73682  2.63309  5.36991
   spin  1
    eigenvalues: 
  0.849  0.943  0.945
    eigenvectors:
  0.355  0.000  0.645
  0.480  0.253  0.268
  0.165  0.747  0.087
    occupations:
  0.911 -0.040  0.023
 -0.040  0.898  0.026
  0.023  0.026  0.928
   spin  2
    eigenvalues: 
  0.842  0.894  0.897
    eigenvectors:
  0.344  0.656  0.001
  0.514  0.255  0.231
  0.143  0.089  0.768
    occupations:
  0.876 -0.022  0.011
 -0.022  0.868  0.015
  0.011  0.015  0.889
atomic mag. moment =     0.103724
atom    6   Tr[ns(na)] (up, down, total) =   2.73683  2.63314  5.36997
   spin  1
    eigenvalues: 
  0.849  0.943  0.945
    eigenvectors:
  0.355  0.000  0.645
  0.487  0.247  0.265
  0.157  0.753  0.090
    occupations:
  0.911  0.040  0.023
  0.040  0.898 -0.026
  0.023 -0.026  0.928
   spin  2
    eigenvalues: 
  0.842  0.894  0.897
    eigenvectors:
  0.344  0.656  0.001
  0.470  0.262  0.269
  0.186  0.083  0.731
    occupations:
  0.876  0.021  0.013
  0.021  0.870 -0.017
  0.013 -0.017  0.887
atomic mag. moment =     0.103694
atom    7   Tr[ns(na)] (up, down, total) =   2.73688  2.63311  5.36999
   spin  1
    eigenvalues: 
  0.849  0.943  0.945
    eigenvectors:
  0.355  0.000  0.645
  0.000  1.000  0.000
  0.645  0.000  0.355
    occupations:
  0.911  0.000 -0.046
  0.000  0.943  0.000
 -0.046  0.000  0.883
   spin  2
    eigenvalues: 
  0.842  0.894  0.897
    eigenvectors:
  0.344  0.656  0.001
  0.001  0.000  0.999
  0.655  0.344  0.000
    occupations:
  0.876  0.001 -0.025
  0.001  0.897  0.001
 -0.025  0.001  0.860
atomic mag. moment =     0.103764
atom    8   Tr[ns(na)] (up, down, total) =   2.73684  2.63311  5.36995
   spin  1
    eigenvalues: 
  0.849  0.943  0.945
    eigenvectors:
  0.355  0.000  0.645
  0.480  0.253  0.268
  0.165  0.747  0.088
    occupations:
  0.911 -0.040  0.023
 -0.040  0.898  0.026
  0.023  0.026  0.928
   spin  2
    eigenvalues: 
  0.842  0.894  0.897
    eigenvectors:
  0.344  0.656  0.001
  0.514  0.255  0.231
  0.143  0.089  0.769
    occupations:
  0.876 -0.022  0.011
 -0.022  0.868  0.015
  0.011  0.015  0.889
atomic mag. moment =     0.103734
atom    9   Tr[ns(na)] (up, down, total) =   2.73685  2.63315  5.37001
   spin  1
    eigenvalues: 
  0.849  0.943  0.945
    eigenvectors:
  0.355  0.000  0.645
  0.487  0.248  0.265
  0.157  0.752  0.090
    occupations:
  0.911  0.040  0.023
  0.040  0.898 -0.026
  0.023 -0.026  0.928
   spin  2
    eigenvalues: 
  0.842  0.894  0.897
    eigenvectors:
  0.344  0.656  0.001
  0.470  0.261  0.269
  0.186  0.083  0.730
    occupations:
  0.876  0.021  0.013
  0.021  0.870 -0.017
  0.013 -0.017  0.887
atomic mag. moment =     0.103700
atom   10   Tr[ns(na)] (up, down, total) =   2.73692  2.63316  5.37008
   spin  1
    eigenvalues: 
  0.849  0.943  0.945
    eigenvectors:
  0.355  0.000  0.645
  0.000  1.000  0.000
  0.645  0.000  0.355
    occupations:
  0.911  0.000 -0.046
  0.000  0.943  0.000
 -0.046  0.000  0.883
   spin  2
    eigenvalues: 
  0.842  0.894  0.897
    eigenvectors:
  0.344  0.656  0.001
  0.001  0.000  0.999
  0.655  0.344  0.000
    occupations:
  0.876  0.001 -0.025
  0.001  0.897  0.001
 -0.025  0.001  0.860
atomic mag. moment =     0.103755
N of occupied +U levels =  56.0542777
 --- exit write_ns ---

     negative rho (up, down):  0.000E+00 0.818E-04
 --- in v_hubbard ---
Hubbard energy    0.0000
 -------

     total cpu time spent up to now is      357.8 secs

     total energy              =    -538.33379786 Ry
     Harris-Foulkes estimate   =    -538.33343560 Ry
     estimated scf accuracy    <       0.33795916 Ry

     total magnetization       =     5.15 Bohr mag/cell
     absolute magnetization    =     5.22 Bohr mag/cell

     iteration #  7     ecut=    30.00 Ry     beta=0.20
     Davidson diagonalization with overlap
     ethr =  2.69E-04,  avg # of iterations =  1.0
 --- enter write_ns ---
 LDA+U parameters:
U( 1)     =  0.00000000
alpha( 1) =  0.00000000
U( 2)     =  0.00000000
alpha( 2) =  0.00000000
U( 3)     =  0.00000000
alpha( 3) =  0.00000000
U( 4)     =  0.00000000
alpha( 4) =  0.00000000
atom    1   Tr[ns(na)] (up, down, total) =   4.84464  3.27215  8.11679
   spin  1
    eigenvalues: 
  0.925  0.925  0.998  0.998  0.999
    eigenvectors:
  0.000  0.000  0.000  0.000  1.000
  0.631  0.018  0.138  0.213  0.000
  0.018  0.631  0.213  0.138  0.000
  0.207  0.144  0.648  0.001  0.000
  0.144  0.207  0.001  0.648  0.000
    occupations:
  0.999  0.000  0.000  0.000  0.000
  0.000  0.951  0.000 -0.023  0.027
  0.000  0.000  0.951  0.027  0.023
  0.000 -0.023  0.027  0.972  0.000
  0.000  0.027  0.023  0.000  0.972
   spin  2
    eigenvalues: 
  0.478  0.478  0.764  0.776  0.776
    eigenvectors:
  0.000  0.000  1.000  0.000  0.000
  0.478  0.175  0.000  0.001  0.346
  0.175  0.478  0.000  0.346  0.001
  0.268  0.079  0.000  0.464  0.189
  0.079  0.268  0.000  0.189  0.464
    occupations:
  0.764  0.000  0.000  0.000  0.000
  0.000  0.582  0.000 -0.072  0.122
  0.000  0.000  0.582  0.122  0.072
  0.000 -0.072  0.122  0.673  0.000
  0.000  0.122  0.072  0.000  0.673
atomic mag. moment =     1.572491
atom    2   Tr[ns(na)] (up, down, total) =   4.82789  2.94487  7.77276
   spin  1
    eigenvalues: 
  0.916  0.916  0.999  0.999  0.999
    eigenvectors:
  0.000  0.000  0.000  0.000  1.000
  0.472  0.178  0.349  0.002  0.000
  0.178  0.472  0.002  0.349  0.000
  0.008  0.343  0.319  0.330  0.000
  0.343  0.008  0.330  0.319  0.000
    occupations:
  0.999  0.000  0.000  0.000  0.000
  0.000  0.945  0.000  0.025  0.030
  0.000  0.000  0.945  0.030 -0.025
  0.000  0.025  0.030  0.970  0.000
  0.000  0.030 -0.025  0.000  0.970
   spin  2
    eigenvalues: 
  0.461  0.461  0.666  0.678  0.678
    eigenvectors:
  0.000  0.000  1.000  0.000  0.000
  0.295  0.360  0.000  0.196  0.150
  0.360  0.295  0.000  0.150  0.196
  0.028  0.317  0.000  0.595  0.059
  0.317  0.028  0.000  0.059  0.595
    occupations:
  0.666  0.000  0.000  0.000  0.000
[...]
     0.0312   0.0293   0.0274   0.0258   0.0118   0.0072   0.0004   0.0000
     0.0000   0.0000   0.0000   0.0000   0.0000   0.0000

          k = 0.4942-0.5706 0.1027 (  2198 PWs)   bands (ev):

   -19.6872 -19.6468  -6.8573  -6.5470  -6.0289  -5.7816  -5.3824  -5.2427
    -3.2572  -3.2068  -2.8158  -2.6416  -2.4606  -2.3176   6.0195   6.4075
     7.0368   7.3109   7.4144   7.4557   7.7216   8.0011   8.1035   8.2962
     8.5384   9.0860   9.3321   9.5151   9.8532   9.9748  10.1322  10.5209
    11.6028  12.0196  12.0716  12.1858  12.3230  12.3343  13.1391  13.4993
    14.1197  14.9882  16.9603  17.1776  17.3687  18.0705

     occupation numbers 
     0.0313   0.0313   0.0313   0.0313   0.0313   0.0313   0.0313   0.0313
     0.0313   0.0313   0.0313   0.0313   0.0313   0.0313   0.0313   0.0313
     0.0313   0.0313   0.0313   0.0313   0.0313   0.0313   0.0313   0.0313
     0.0313   0.0313   0.0313   0.0313   0.0313   0.0312   0.0312   0.0312
     0.0310   0.0259   0.0244   0.0202   0.0144   0.0139   0.0001   0.0000
     0.0000   0.0000   0.0000   0.0000   0.0000   0.0000

          k =-0.7412 0.1427-0.1027 (  2198 PWs)   bands (ev):

   -19.6872 -19.6468  -6.8568  -6.5478  -6.0279  -5.7828  -5.3814  -5.2432
    -3.2564  -3.2069  -2.8156  -2.6427  -2.4599  -2.3181   6.0220   6.4040
     7.0408   7.3045   7.3948   7.4705   7.7328   8.0005   8.1290   8.2655
     8.5418   9.0788   9.3367   9.5178   9.8564   9.9716  10.1320  10.5202
    11.6054  11.9914  12.0968  12.1849  12.3199  12.3373  13.1419  13.4996
    14.1198  14.9868  16.9581  17.1801  17.3682  18.0707

     occupation numbers 
     0.0313   0.0313   0.0313   0.0313   0.0313   0.0313   0.0313   0.0313
     0.0313   0.0313   0.0313   0.0313   0.0313   0.0313   0.0313   0.0313
     0.0313   0.0313   0.0313   0.0313   0.0313   0.0313   0.0313   0.0313
     0.0313   0.0313   0.0313   0.0313   0.0313   0.0312   0.0312   0.0312
     0.0310   0.0267   0.0235   0.0202   0.0145   0.0138   0.0001   0.0000
     0.0000   0.0000   0.0000   0.0000   0.0000   0.0000

          k = 0.2471-0.7133-0.1027 (  2198 PWs)   bands (ev):

   -19.6872 -19.6468  -6.8568  -6.5478  -6.0279  -5.7828  -5.3814  -5.2432
    -3.2564  -3.2069  -2.8156  -2.6427  -2.4599  -2.3181   6.0220   6.4039
     7.0408   7.3045   7.3948   7.4705   7.7328   8.0005   8.1290   8.2655
     8.5419   9.0788   9.3367   9.5178   9.8564   9.9716  10.1320  10.5202
    11.6054  11.9914  12.0968  12.1849  12.3199  12.3373  13.1419  13.4996
    14.1198  14.9868  16.9581  17.1801  17.3682  18.0707

     occupation numbers 
     0.0313   0.0313   0.0313   0.0313   0.0313   0.0313   0.0313   0.0313
     0.0313   0.0313   0.0313   0.0313   0.0313   0.0313   0.0313   0.0313
     0.0313   0.0313   0.0313   0.0313   0.0313   0.0313   0.0313   0.0313
     0.0313   0.0313   0.0313   0.0313   0.0313   0.0312   0.0312   0.0312
     0.0310   0.0267   0.0235   0.0202   0.0145   0.0138   0.0001   0.0000
     0.0000   0.0000   0.0000   0.0000   0.0000   0.0000

          k =-0.7412-0.1427 0.1027 (  2198 PWs)   bands (ev):

   -19.6872 -19.6468  -6.8573  -6.5469  -6.0289  -5.7816  -5.3824  -5.2427
    -3.2572  -3.2068  -2.8158  -2.6416  -2.4606  -2.3176   6.0195   6.4075
     7.0368   7.3109   7.4144   7.4557   7.7216   8.0011   8.1035   8.2962
     8.5385   9.0860   9.3321   9.5151   9.8532   9.9747  10.1322  10.5209
    11.6028  12.0196  12.0716  12.1858  12.3230  12.3343  13.1391  13.4993
    14.1197  14.9882  16.9603  17.1776  17.3687  18.0705

     occupation numbers 
     0.0313   0.0313   0.0313   0.0313   0.0313   0.0313   0.0313   0.0313
     0.0313   0.0313   0.0313   0.0313   0.0313   0.0313   0.0313   0.0313
     0.0313   0.0313   0.0313   0.0313   0.0313   0.0313   0.0313   0.0313
     0.0313   0.0313   0.0313   0.0313   0.0313   0.0312   0.0312   0.0312
     0.0310   0.0259   0.0244   0.0202   0.0144   0.0139   0.0001   0.0000
     0.0000   0.0000   0.0000   0.0000   0.0000   0.0000

          k = 0.2471 0.7133 0.1027 (  2198 PWs)   bands (ev):

   -19.6872 -19.6468  -6.8572  -6.5470  -6.0288  -5.7818  -5.3825  -5.2425
    -3.2572  -3.2068  -2.8158  -2.6416  -2.4606  -2.3176   6.0195   6.4075
     7.0368   7.3109   7.4144   7.4557   7.7216   8.0011   8.1035   8.2961
     8.5385   9.0860   9.3321   9.5151   9.8532   9.9748  10.1322  10.5209
    11.6028  12.0196  12.0716  12.1858  12.3230  12.3343  13.1391  13.4993
    14.1197  14.9882  16.9603  17.1776  17.3687  18.0705

     occupation numbers 
     0.0313   0.0313   0.0313   0.0313   0.0313   0.0313   0.0313   0.0313
     0.0313   0.0313   0.0313   0.0313   0.0313   0.0313   0.0313   0.0313
     0.0313   0.0313   0.0313   0.0313   0.0313   0.0313   0.0313   0.0313
     0.0313   0.0313   0.0313   0.0313   0.0313   0.0312   0.0312   0.0312
     0.0310   0.0259   0.0244   0.0202   0.0144   0.0139   0.0001   0.0000
     0.0000   0.0000   0.0000   0.0000   0.0000   0.0000

          k = 0.2471-0.4280 0.0000 (  2203 PWs)   bands (ev):

   -19.6968 -19.6393  -6.7481  -6.5380  -5.9475  -5.8688  -5.3064  -5.2301
    -3.4624  -3.2509  -2.7381  -2.6453  -2.5037  -2.4875   5.9778   6.4238
     7.2576   7.3950   7.4419   7.5178   7.5700   7.9095   8.0204   8.3820
     8.6377   9.1066   9.5646   9.6789   9.9436   9.9489  10.2134  10.5329
    11.8673  11.8812  11.9492  12.1407  12.1613  12.4357  13.1087  13.9747
    14.0943  14.7939  16.5000  17.0495  17.4667  17.9717

     occupation numbers 
     0.0313   0.0313   0.0313   0.0313   0.0313   0.0313   0.0313   0.0313
     0.0313   0.0313   0.0313   0.0313   0.0313   0.0313   0.0313   0.0313
     0.0313   0.0313   0.0313   0.0313   0.0313   0.0313   0.0313   0.0313
     0.0313   0.0313   0.0313   0.0313   0.0312   0.0312   0.0312   0.0312
     0.0291   0.0289   0.0276   0.0220   0.0212   0.0097   0.0001   0.0000
     0.0000   0.0000   0.0000   0.0000   0.0000   0.0000

          k =-0.4942 0.0000 0.0000 (  2203 PWs)   bands (ev):

   -19.6968 -19.6393  -6.7481  -6.5380  -5.9475  -5.8688  -5.3064  -5.2301
    -3.4624  -3.2509  -2.7381  -2.6453  -2.5037  -2.4875   5.9778   6.4238
     7.2576   7.3950   7.4419   7.5178   7.5700   7.9095   8.0204   8.3820
     8.6377   9.1066   9.5647   9.6789   9.9436   9.9489  10.2134  10.5329
    11.8673  11.8812  11.9492  12.1407  12.1613  12.4357  13.1087  13.9747
    14.0943  14.7939  16.5000  17.0495  17.4667  17.9717

     occupation numbers 
     0.0313   0.0313   0.0313   0.0313   0.0313   0.0313   0.0313   0.0313
     0.0313   0.0313   0.0313   0.0313   0.0313   0.0313   0.0313   0.0313
     0.0313   0.0313   0.0313   0.0313   0.0313   0.0313   0.0313   0.0313
     0.0313   0.0313   0.0313   0.0313   0.0312   0.0312   0.0312   0.0312
     0.0291   0.0289   0.0276   0.0220   0.0212   0.0097   0.0001   0.0000
     0.0000   0.0000   0.0000   0.0000   0.0000   0.0000

          k = 0.4942 0.2853 0.4107 (  2202 PWs)   bands (ev):

   -19.6941 -19.6373  -7.0682  -6.3619  -6.1452  -5.8397  -5.4133  -5.1425
    -3.1477  -3.0860  -2.9860  -2.5854  -2.4092  -2.1551   5.9423   6.5150
     6.6134   7.2199   7.2480   7.3248   8.0830   8.1540   8.2578   8.3688
     8.7149   8.8452   8.8650   9.5453   9.7795  10.1569  10.1813  10.6007
    11.2081  11.8867  12.0111  12.2344  12.3752  12.4467  12.8679  13.2597
    14.0460  15.4155  17.0881  17.3386  17.5674  17.6342

     occupation numbers 
     0.0156   0.0156   0.0156   0.0156   0.0156   0.0156   0.0156   0.0156
     0.0156   0.0156   0.0156   0.0156   0.0156   0.0156   0.0156   0.0156
     0.0156   0.0156   0.0156   0.0156   0.0156   0.0156   0.0156   0.0156
     0.0156   0.0156   0.0156   0.0156   0.0156   0.0156   0.0156   0.0156
     0.0156   0.0144   0.0131   0.0091   0.0061   0.0047   0.0004   0.0000
     0.0000   0.0000   0.0000   0.0000   0.0000   0.0000

          k = 0.0000 0.5706-0.4107 (  2202 PWs)   bands (ev):

   -19.6941 -19.6373  -7.0682  -6.3619  -6.1452  -5.8397  -5.4133  -5.1425
    -3.1477  -3.0860  -2.9860  -2.5854  -2.4092  -2.1551   5.9423   6.5150
     6.6134   7.2199   7.2480   7.3248   8.0830   8.1540   8.2578   8.3689
     8.7149   8.8452   8.8650   9.5453   9.7795  10.1569  10.1813  10.6007
    11.2081  11.8867  12.0111  12.2344  12.3752  12.4467  12.8679  13.2597
    14.0460  15.4155  17.0881  17.3386  17.5674  17.6342

     occupation numbers 
     0.0156   0.0156   0.0156   0.0156   0.0156   0.0156   0.0156   0.0156
     0.0156   0.0156   0.0156   0.0156   0.0156   0.0156   0.0156   0.0156
     0.0156   0.0156   0.0156   0.0156   0.0156   0.0156   0.0156   0.0156
     0.0156   0.0156   0.0156   0.0156   0.0156   0.0156   0.0156   0.0156
     0.0156   0.0144   0.0131   0.0091   0.0061   0.0047   0.0004   0.0000
     0.0000   0.0000   0.0000   0.0000   0.0000   0.0000

          k = 0.7412-0.4280 0.0000 (  2204 PWs)   bands (ev):

   -19.6966 -19.6391  -6.6321  -6.5013  -6.0421  -5.7183  -5.5538  -5.4195
    -3.1104  -3.0321  -2.9935  -2.6106  -2.5953  -2.5116   6.0242   6.6105
     7.2680   7.4295   7.4379   7.5359   7.5721   7.8620   8.2056   8.3596
     8.6813   8.9817   9.6372   9.6650   9.7636   9.8320  10.0347  10.3785
    11.8611  11.8863  12.0118  12.1553  12.2048  12.3997  13.1015  13.9003
    14.0180  14.8200  16.7618  16.7709  17.6376  17.8544

     occupation numbers 
     0.0313   0.0313   0.0313   0.0313   0.0313   0.0313   0.0313   0.0313
     0.0313   0.0313   0.0313   0.0313   0.0313   0.0313   0.0313   0.0313
     0.0313   0.0313   0.0313   0.0313   0.0313   0.0313   0.0313   0.0313
     0.0313   0.0313   0.0313   0.0313   0.0313   0.0313   0.0312   0.0312
     0.0292   0.0288   0.0261   0.0214   0.0194   0.0112   0.0001   0.0000
     0.0000   0.0000   0.0000   0.0000   0.0000   0.0000

          k = 0.0000-0.8559 0.0000 (  2204 PWs)   bands (ev):

   -19.6966 -19.6391  -6.6320  -6.5014  -6.0420  -5.7183  -5.5537  -5.4197
    -3.1104  -3.0321  -2.9935  -2.6106  -2.5953  -2.5116   6.0242   6.6105
     7.2680   7.4295   7.4379   7.5358   7.5721   7.8620   8.2056   8.3596
     8.6813   8.9817   9.6371   9.6650   9.7636   9.8320  10.0347  10.3785
    11.8611  11.8863  12.0118  12.1553  12.2048  12.3997  13.1015  13.9003
    14.0180  14.8200  16.7618  16.7709  17.6376  17.8544

     occupation numbers 
     0.0313   0.0313   0.0313   0.0313   0.0313   0.0313   0.0313   0.0313
     0.0313   0.0313   0.0313   0.0313   0.0313   0.0313   0.0313   0.0313
     0.0313   0.0313   0.0313   0.0313   0.0313   0.0313   0.0313   0.0313
     0.0313   0.0313   0.0313   0.0313   0.0313   0.0313   0.0312   0.0312
     0.0292   0.0288   0.0261   0.0214   0.0194   0.0112   0.0001   0.0000
     0.0000   0.0000   0.0000   0.0000   0.0000   0.0000

          k = 0.4942-0.2853-0.1027 (  2211 PWs)   bands (ev):

   -19.6872 -19.6468  -6.8732  -6.4438  -6.2233  -5.5754  -5.5069  -5.2157
    -3.2700  -3.1190  -2.9683  -2.5406  -2.4928  -2.3094   6.0478   6.3772
     7.0073   7.3087   7.3373   7.4524   7.7292   8.0420   8.2036   8.2263
     8.5882   9.2053   9.3401   9.5721   9.7270   9.8292  10.1887  10.5352
    11.6033  12.0405  12.1378  12.2053  12.2653  12.2799  13.1055  13.5089
    14.1640  14.9716  16.9466  16.9835  17.6487  17.9856

     occupation numbers 
     0.0313   0.0313   0.0313   0.0313   0.0313   0.0313   0.0313   0.0313
     0.0313   0.0313   0.0313   0.0313   0.0313   0.0313   0.0313   0.0313
     0.0313   0.0313   0.0313   0.0313   0.0313   0.0313   0.0313   0.0313
     0.0313   0.0313   0.0313   0.0313   0.0313   0.0313   0.0312   0.0312
     0.0310   0.0253   0.0221   0.0194   0.0169   0.0162   0.0001   0.0000
     0.0000   0.0000   0.0000   0.0000   0.0000   0.0000

          k = 0.0000-0.5706 0.1027 (  2211 PWs)   bands (ev):

   -19.6872 -19.6468  -6.8733  -6.4438  -6.2233  -5.5753  -5.5068  -5.2159
    -3.2700  -3.1190  -2.9683  -2.5406  -2.4928  -2.3095   6.0478   6.3772
     7.0073   7.3087   7.3373   7.4524   7.7292   8.0420   8.2036   8.2262
     8.5882   9.2054   9.3401   9.5721   9.7270   9.8292  10.1887  10.5352
    11.6033  12.0405  12.1378  12.2053  12.2653  12.2799  13.1055  13.5089
    14.1640  14.9716  16.9466  16.9835  17.6487  17.9856

     occupation numbers 
     0.0313   0.0313   0.0313   0.0313   0.0313   0.0313   0.0313   0.0313
     0.0313   0.0313   0.0313   0.0313   0.0313   0.0313   0.0313   0.0313
     0.0313   0.0313   0.0313   0.0313   0.0313   0.0313   0.0313   0.0313
     0.0313   0.0313   0.0313   0.0313   0.0313   0.0313   0.0312   0.0312
     0.0310   0.0253   0.0221   0.0194   0.0169   0.0162   0.0001   0.0000
     0.0000   0.0000   0.0000   0.0000   0.0000   0.0000

          k = 0.7412 0.4280 0.3080 (  2210 PWs)   bands (ev):

   -19.6869 -19.6465  -6.8088  -6.3499  -6.2007  -5.6855  -5.6386  -5.3489
    -3.0166  -2.9909  -2.9153  -2.6673  -2.5484  -2.3614   6.1111   6.5345
     7.0910   7.2921   7.3879   7.4058   7.7470   8.0867   8.2253   8.2662
     8.5851   9.1714   9.1880   9.6747   9.7091   9.7700   9.8328  10.3743
    11.6536  12.0448  12.1238  12.1915  12.3001  12.3531  13.0676  13.4683
    14.1161  14.9380  17.1198  17.1306  17.6159  17.9562

     occupation numbers 
     0.0313   0.0313   0.0313   0.0313   0.0313   0.0313   0.0313   0.0313
     0.0313   0.0313   0.0313   0.0313   0.0313   0.0313   0.0313   0.0313
     0.0313   0.0313   0.0313   0.0313   0.0313   0.0313   0.0313   0.0313
     0.0313   0.0313   0.0313   0.0313   0.0313   0.0313   0.0313   0.0312
     0.0308   0.0252   0.0226   0.0200   0.0154   0.0131   0.0001   0.0000
     0.0000   0.0000   0.0000   0.0000   0.0000   0.0000

          k = 0.0000 0.8559-0.3080 (  2210 PWs)   bands (ev):

   -19.6869 -19.6465  -6.8088  -6.3499  -6.2007  -5.6855  -5.6386  -5.3489
    -3.0166  -2.9909  -2.9153  -2.6673  -2.5484  -2.3614   6.1110   6.5345
     7.0910   7.2921   7.3879   7.4058   7.7470   8.0867   8.2253   8.2662
     8.5851   9.1714   9.1880   9.6747   9.7091   9.7700   9.8328  10.3743
    11.6536  12.0448  12.1238  12.1915  12.3001  12.3531  13.0676  13.4683
    14.1161  14.9380  17.1198  17.1306  17.6159  17.9562

     occupation numbers 
     0.0313   0.0313   0.0313   0.0313   0.0313   0.0313   0.0313   0.0313
     0.0313   0.0313   0.0313   0.0313   0.0313   0.0313   0.0313   0.0313
     0.0313   0.0313   0.0313   0.0313   0.0313   0.0313   0.0313   0.0313
     0.0313   0.0313   0.0313   0.0313   0.0313   0.0313   0.0313   0.0312
     0.0308   0.0252   0.0226   0.0200   0.0154   0.0131   0.0001   0.0000
     0.0000   0.0000   0.0000   0.0000   0.0000   0.0000

          k = 0.2471 0.7133-0.2053 (  2206 PWs)   bands (ev):

   -19.6659 -19.6659  -6.7883  -6.7779  -5.9338  -5.9324  -5.2899  -5.2894
    -3.1094  -3.1090  -2.7498  -2.7490  -2.3163  -2.3134   6.2235   6.2513
     7.1726   7.1775   7.3430   7.3537   7.5755   7.5900   8.4234   8.4662
     8.9297   8.9319   9.2341   9.2347   9.7055   9.7126  10.2717  10.2752
    11.8591  11.8684  12.0310  12.0728  12.3463  12.3704  13.1283  13.1475
    14.6509  14.6661  17.4988  17.4995  17.9135  17.9156

     occupation numbers 
     0.0313   0.0313   0.0313   0.0313   0.0313   0.0313   0.0313   0.0313
     0.0313   0.0313   0.0313   0.0313   0.0313   0.0313   0.0313   0.0313
     0.0313   0.0313   0.0313   0.0313   0.0313   0.0313   0.0313   0.0313
     0.0313   0.0313   0.0313   0.0313   0.0313   0.0313   0.0312   0.0312
     0.0292   0.0291   0.0256   0.0243   0.0134   0.0124   0.0001   0.0000
     0.0000   0.0000   0.0000   0.0000   0.0000   0.0000

          k =-0.7412-0.1427-0.2053 (  2206 PWs)   bands (ev):

   -19.6659 -19.6659  -6.7884  -6.7780  -5.9337  -5.9322  -5.2899  -5.2894
    -3.1094  -3.1090  -2.7497  -2.7489  -2.3163  -2.3134   6.2235   6.2513
     7.1726   7.1775   7.3430   7.3537   7.5755   7.5901   8.4235   8.4662
     8.9297   8.9319   9.2341   9.2347   9.7054   9.7126  10.2717  10.2752
    11.8591  11.8684  12.0310  12.0728  12.3463  12.3704  13.1283  13.1475
    14.6509  14.6661  17.4988  17.4995  17.9134  17.9156

     occupation numbers 
     0.0313   0.0313   0.0313   0.0313   0.0313   0.0313   0.0313   0.0313
     0.0313   0.0313   0.0313   0.0313   0.0313   0.0313   0.0313   0.0313
     0.0313   0.0313   0.0313   0.0313   0.0313   0.0313   0.0313   0.0313
     0.0313   0.0313   0.0313   0.0313   0.0313   0.0313   0.0312   0.0312
     0.0292   0.0291   0.0256   0.0243   0.0134   0.0124   0.0001   0.0000
     0.0000   0.0000   0.0000   0.0000   0.0000   0.0000

     the Fermi energy is    12.2941 ev

!    total energy              =    -538.35543173 Ry
     Harris-Foulkes estimate   =    -538.35542452 Ry
     estimated scf accuracy    <          8.5E-09 Ry

     The total energy is the sum of the following terms:

     one-electron contribution =     -32.74513736 Ry
     hartree contribution      =      83.52603000 Ry
     xc contribution           =    -199.65324518 Ry
     ewald contribution        =    -389.44315552 Ry
     Hubbard energy            =       0.00000000 Ry
     smearing contrib. (-TS)   =      -0.03992367 Ry

     total magnetization       =     3.54 Bohr mag/cell
     absolute magnetization    =     3.69 Bohr mag/cell

     convergence has been achieved in  33 iterations

     Writing output data file CoLaO_U0.save

     init_run     :     31.46s CPU     32.46s WALL (       1 calls)
     electrons    :   1953.30s CPU   2072.17s WALL (       1 calls)

     Called by init_run:
     wfcinit      :     23.14s CPU     23.73s WALL (       1 calls)
     potinit      :      1.82s CPU      1.85s WALL (       1 calls)

     Called by electrons:
     c_bands      :   1488.76s CPU   1597.13s WALL (      33 calls)
     sum_band     :    366.44s CPU    372.83s WALL (      33 calls)
     v_of_rho     :     25.57s CPU     25.93s WALL (      34 calls)
     v_h          :      0.59s CPU      0.64s WALL (      34 calls)
     v_xc         :     24.98s CPU     25.28s WALL (      34 calls)
     newd         :     68.95s CPU     69.23s WALL (      34 calls)
     mix_rho      :      2.56s CPU      3.56s WALL (      33 calls)

     Called by c_bands:
     init_us_2    :     18.44s CPU     18.51s WALL (    4896 calls)
     cegterg      :   1440.21s CPU   1446.88s WALL (    2376 calls)

     Called by sum_band:
     sum_band:bec :      1.80s CPU      1.79s WALL (    2376 calls)
     addusdens    :     63.11s CPU     63.25s WALL (      33 calls)

     Called by *egterg:
     h_psi        :   1156.07s CPU   1161.32s WALL (    6892 calls)
     s_psi        :     65.26s CPU     65.40s WALL (    6964 calls)
     g_psi        :      4.41s CPU      4.42s WALL (    4444 calls)
     cdiaghg      :     68.59s CPU     68.70s WALL (    6820 calls)
     cegterg:over :     58.74s CPU     58.92s WALL (    4444 calls)
     cegterg:upda :     36.13s CPU     36.23s WALL (    4444 calls)
     cegterg:last :     22.80s CPU     23.26s WALL (    2376 calls)

     Called by h_psi:
     h_psi:vloc   :    944.26s CPU    948.57s WALL (    6892 calls)
     h_psi:vnl    :    130.21s CPU    130.69s WALL (    6892 calls)
     add_vuspsi   :     64.22s CPU     64.41s WALL (    6892 calls)
     vhpsi        :     78.80s CPU     79.26s WALL (    6892 calls)

     General routines
     calbec       :    148.05s CPU    148.87s WALL (   18608 calls)
     fft          :     11.89s CPU     12.02s WALL (    1044 calls)
     ffts         :      0.38s CPU      0.39s WALL (     134 calls)
     fftw         :    905.35s CPU    909.34s WALL (  599382 calls)
     interpolate  :      2.15s CPU      2.17s WALL (     134 calls)
     davcio       :      0.23s CPU     36.36s WALL (   15110 calls)

     Parallel routines
     fft_scatter  :    252.82s CPU    255.93s WALL (  600560 calls)
     Hubbard U routines
     new_ns       :     14.45s CPU     18.03s WALL (      33 calls)
     vhpsi        :     78.80s CPU     79.26s WALL (    6892 calls)

     PWSCF        : 33m 5.56s CPU    35m 5.73s WALL


   This run was terminated on:  12:23:58  13Nov2012            

=------------------------------------------------------------------------------=
