   JOB DONE.
=------------------------------------------------------------------------------=

     Program PWSCF v.5.0.1 starts on 13Nov2012 at 13: 1:47 

     This program is part of the open-source Quantum ESPRESSO suite
     for quantum simulation of materials; please cite
         "P. Giannozzi et al., J. Phys.:Condens. Matter 21 395502 (2009);
          URL http://www.quantum-espresso.org", 
     in publications or presentations arising from this work. More details at
     http://www.quantum-espresso.org/quote.php

     Parallel version (MPI), running on     2 processors
     R & G space division:  proc/pool =    2

     Current dimensions of program PWSCF are:
     Max number of different atomic species (ntypx) = 10
     Max number of k-points (npk) =  40000
     Max angular momentum in pseudopotentials (lmaxx) =  3
     Reading input from CoLaO_U0_a5.in
               file Co.pbe-nd-rrkjus.UPF: wavefunction(s)  4S 3D renormalized
               file O.pbe-rrkjus.UPF: wavefunction(s)  2S renormalized
               file O.pbe-rrkjus.UPF: wavefunction(s)  2S renormalized

     Subspace diagonalization in iterative solution of the eigenvalue problem:
     a serial algorithm will be used


     Parallelization info
     --------------------
     sticks:   dense  smooth     PW     G-vecs:    dense   smooth      PW
     Min        1112     444    131                34808     8786    1448
     Max        1113     445    132                34809     8787    1449
     Sum        2225     889    263                69617    17573    2897


     Title: 
     GGA + U, U = 1D-40, alpha = 0.050                                          


     bravais-lattice index     =            5
     lattice parameter (alat)  =      10.3292  a.u.
     unit-cell volume          =     793.0599 (a.u.)^3
     number of atoms/cell      =           10
     number of atomic types    =            4
     number of electrons       =        76.00
     number of Kohn-Sham states=           46
     kinetic-energy cutoff     =      30.0000  Ry
     charge density cutoff     =     300.0000  Ry
     convergence threshold     =      1.0E-08
     mixing beta               =       0.2000
     number of iterations used =            8  plain     mixing
     Exchange-correlation      =  SLA  PW   PBE  PBE ( 1 4 3 4 0)
     EXX-fraction              =        0.00

     celldm(1)=  10.329242  celldm(2)=   0.000000  celldm(3)=   0.000000
     celldm(4)=   0.488100  celldm(5)=   0.000000  celldm(6)=   0.000000

     crystal axes: (cart. coord. in units of alat)
               a(1) = (   0.505915  -0.292090   0.811624 )  
               a(2) = (   0.000000   0.584180   0.811624 )  
               a(3) = (  -0.505915  -0.292090   0.811624 )  

     reciprocal axes: (cart. coord. in units 2 pi/alat)
               b(1) = (  0.988308 -0.570600  0.410699 )  
               b(2) = (  0.000000  1.141200  0.410699 )  
               b(3) = ( -0.988308 -0.570600  0.410699 )  


     PseudoPot. # 1 for Co read from file:
     /home/mcurnan/dft-course/Project1/example_LaCoO3/Co.pbe-nd-rrkjus.UPF
     MD5 check sum: 3e47a84addf5e975e0edeaeee2a73f59
     Pseudo is Ultrasoft + core correction, Zval =  9.0
     Generated by new atomic code, or converted to UPF format
     Using radial grid of  961 points,  6 beta functions with: 
                l(1) =   0
                l(2) =   0
                l(3) =   1
                l(4) =   1
                l(5) =   2
                l(6) =   2
     Q(r) pseudized with 0 coefficients 


     PseudoPot. # 2 for La read from file:
     /home/mcurnan/dft-course/Project1/example_LaCoO3/La.pbe-nsp-van.UPF
     MD5 check sum: b2f11743f52dde65f77d1302becd7929
     Pseudo is Ultrasoft + core correction, Zval = 11.0
     Generated by new atomic code, or converted to UPF format
     Using radial grid of  907 points,  6 beta functions with: 
                l(1) =   0
                l(2) =   0
                l(3) =   1
                l(4) =   1
                l(5) =   2
                l(6) =   2
     Q(r) pseudized with  6 coefficients,  rinner =    1.200   1.200   1.200
                                                       1.200   1.200

     PseudoPot. # 3 for O  read from file:
     /home/mcurnan/dft-course/Project1/example_LaCoO3/O.pbe-rrkjus.UPF
     MD5 check sum: 390ba29e75625707450f3bd3f0eb6be9
     Pseudo is Ultrasoft, Zval =  6.0
     Generated by new atomic code, or converted to UPF format
     Using radial grid of 1269 points,  4 beta functions with: 
                l(1) =   0
                l(2) =   0
                l(3) =   1
                l(4) =   1
     Q(r) pseudized with 0 coefficients 


     PseudoPot. # 4 for O  read from file:
     /home/mcurnan/dft-course/Project1/example_LaCoO3/O.pbe-rrkjus.UPF
     MD5 check sum: 390ba29e75625707450f3bd3f0eb6be9
     Pseudo is Ultrasoft, Zval =  6.0
     Generated by new atomic code, or converted to UPF format
     Using radial grid of 1269 points,  4 beta functions with: 
                l(1) =   0
                l(2) =   0
                l(3) =   1
                l(4) =   1
     Q(r) pseudized with 0 coefficients 


     atomic species   valence    mass     pseudopotential
        Co1            9.00     1.00000     Co( 1.00)
        La1           11.00     1.00000     La( 1.00)
        O1             6.00     1.00000     O ( 1.00)
        O2             6.00     1.00000     O ( 1.00)

     Starting magnetic structure 
     atomic species   magnetization
        Co1          1.000
        La1          0.000
        O1           0.000
        O2           0.000
 -----
     simplified LDA+U calculation, Hubbard_lmax = 2
     atomic species  L   Hubbard U  Hubbard alpha
        Co1          2    0.000000    0.000000
        La1          2    0.000000    0.000000
        O1           1    0.000000    0.050000
        O2           1    0.000000    0.000000
 -----

     No symmetry found


                                    s                        frac. trans.

      isym =  1     identity                                     

 cryst.   s( 1) = (     1          0          0      )
                  (     0          1          0      )
                  (     0          0          1      )

 cart.    s( 1) = (  1.0000000  0.0000000  0.0000000 )
                  (  0.0000000  1.0000000  0.0000000 )
                  (  0.0000000  0.0000000  1.0000000 )


     point group C_1 (1)    
     there are  1 classes
     the character table:

       E    
A      1.00

     the symmetry operations in each class:
     E        1

   Cartesian axes

     site n.     atom                  positions (alat units)
         1           Co1 tau(   1) = (   0.2228050  -0.1992639   1.0141240  )
         2           Co1 tau(   2) = (  -0.2831100   0.0928263   1.4199360  )
         3           La1 tau(   3) = (  -0.2831100   0.0928263   0.8112181  )
         4           La1 tau(   4) = (   0.2228050   0.3849164   1.2170300  )
         5           O1  tau(   5) = (   0.0000000   0.0000000   0.0000000  )
         6           O2  tau(   6) = (   0.0008601   0.1861491   1.6232478  )
         7           O2  tau(   7) = (   0.1616398   0.0923297   0.8116239  )
         8           O2  tau(   8) = (  -0.0603051  -0.1064377   1.2166242  )
         9           O2  tau(   9) = (   0.4447499  -0.0004966   1.2166242  )
        10           O2  tau(  10) = (  -0.2219449   0.3854130   1.2166242  )

   Crystallographic axes

     site n.     atom                  positions (cryst. coord.)
         1           Co1 tau(   1) = (  0.7504000  0.1891000  0.3100000  )
         2           Co1 tau(   2) = (  0.2504000  0.6891000  0.8100000  )
         3           La1 tau(   3) = (  0.0004000  0.4391000  0.5600000  )
         4           La1 tau(   4) = (  0.5004000  0.9391000  0.0600000  )
         5           O1  tau(   5) = (  0.0000000  0.0000000  0.0000000  )
         6           O2  tau(   6) = (  0.5613000  0.8791000  0.5596000  )
         7           O2  tau(   7) = (  0.4404000  0.4387000  0.1209000  )
         8           O2  tau(   8) = (  0.5008000  0.3782000  0.6200000  )
         9           O2  tau(   9) = (  0.9395000  0.4991000  0.0604000  )
        10           O2  tau(  10) = (  0.0604000  0.9395000  0.4991000  )

     number of k points=    72  gaussian smearing, width (Ry)=  0.0300
                       cart. coord. in units 2pi/alat
        k(    1) = (   0.0000000   0.0000000   0.0000000), wk =   0.0156250
        k(    2) = (  -0.2470771  -0.1426500   0.1026748), wk =   0.0312500
        k(    3) = (   0.4941541   0.2853000  -0.2053496), wk =   0.0156250
        k(    4) = (  -0.2470771   0.1426500   0.2053496), wk =   0.0312500
        k(    5) = (   0.4941541   0.5706001  -0.1026748), wk =   0.0312500
        k(    6) = (   0.2470771   0.4279500   0.0000000), wk =   0.0312500
        k(    7) = (   0.4941541  -0.2853000  -0.4106993), wk =   0.0156250
        k(    8) = (   0.0000000   0.0000000   0.3080244), wk =   0.0312500
        k(    9) = (   0.7412312   0.4279500   0.0000000), wk =   0.0312500
        k(   10) = (   0.4941541   0.2853000   0.1026748), wk =   0.0312500
        k(   11) = (   0.7412312  -0.4279500  -0.3080244), wk =   0.0312500
        k(   12) = (   0.4941541  -0.5706001  -0.2053496), wk =   0.0312500
        k(   13) = (   0.0000000   0.0000000  -0.6160489), wk =   0.0156250
        k(   14) = (  -0.2470771   0.1426500  -0.1026748), wk =   0.0312500
        k(   15) = (   0.0000000   0.2853000   0.1026748), wk =   0.0312500
        k(   16) = (   0.4941541  -0.2853000   0.2053496), wk =   0.0156250
        k(   17) = (   0.0000000  -0.5706001  -0.2053496), wk =   0.0156250
        k(   18) = (  -0.2470771  -0.1426500  -0.2053496), wk =   0.0312500
        k(   19) = (   0.0000000  -0.2853000   0.2053496), wk =   0.0312500
        k(   20) = (   0.4941541  -0.5706001   0.1026748), wk =   0.0312500
        k(   21) = (  -0.7412312   0.1426500  -0.1026748), wk =   0.0312500
        k(   22) = (   0.2470771  -0.7132501  -0.1026748), wk =   0.0312500
        k(   23) = (  -0.7412312  -0.1426500   0.1026748), wk =   0.0312500
        k(   24) = (   0.2470771   0.7132501   0.1026748), wk =   0.0312500
        k(   25) = (   0.2470771  -0.4279500   0.0000000), wk =   0.0312500
        k(   26) = (  -0.4941541   0.0000000   0.0000000), wk =   0.0312500
        k(   27) = (   0.4941541   0.2853000   0.4106993), wk =   0.0156250
        k(   28) = (   0.0000000   0.5706001  -0.4106993), wk =   0.0156250
        k(   29) = (   0.7412312  -0.4279500   0.0000000), wk =   0.0312500
        k(   30) = (   0.0000000  -0.8559001   0.0000000), wk =   0.0312500
        k(   31) = (   0.4941541  -0.2853000  -0.1026748), wk =   0.0312500
        k(   32) = (   0.0000000  -0.5706001   0.1026748), wk =   0.0312500
        k(   33) = (   0.7412312   0.4279500   0.3080244), wk =   0.0312500
        k(   34) = (   0.0000000   0.8559001  -0.3080244), wk =   0.0312500
        k(   35) = (   0.2470771   0.7132501  -0.2053496), wk =   0.0312500
        k(   36) = (  -0.7412312  -0.1426500  -0.2053496), wk =   0.0312500
        k(   37) = (   0.0000000   0.0000000   0.0000000), wk =   0.0156250
        k(   38) = (  -0.2470771  -0.1426500   0.1026748), wk =   0.0312500
        k(   39) = (   0.4941541   0.2853000  -0.2053496), wk =   0.0156250
        k(   40) = (  -0.2470771   0.1426500   0.2053496), wk =   0.0312500
        k(   41) = (   0.4941541   0.5706001  -0.1026748), wk =   0.0312500
        k(   42) = (   0.2470771   0.4279500   0.0000000), wk =   0.0312500
        k(   43) = (   0.4941541  -0.2853000  -0.4106993), wk =   0.0156250
        k(   44) = (   0.0000000   0.0000000   0.3080244), wk =   0.0312500
        k(   45) = (   0.7412312   0.4279500   0.0000000), wk =   0.0312500
        k(   46) = (   0.4941541   0.2853000   0.1026748), wk =   0.0312500
        k(   47) = (   0.7412312  -0.4279500  -0.3080244), wk =   0.0312500
        k(   48) = (   0.4941541  -0.5706001  -0.2053496), wk =   0.0312500
        k(   49) = (   0.0000000   0.0000000  -0.6160489), wk =   0.0156250
        k(   50) = (  -0.2470771   0.1426500  -0.1026748), wk =   0.0312500
        k(   51) = (   0.0000000   0.2853000   0.1026748), wk =   0.0312500
        k(   52) = (   0.4941541  -0.2853000   0.2053496), wk =   0.0156250
        k(   53) = (   0.0000000  -0.5706001  -0.2053496), wk =   0.0156250
        k(   54) = (  -0.2470771  -0.1426500  -0.2053496), wk =   0.0312500
        k(   55) = (   0.0000000  -0.2853000   0.2053496), wk =   0.0312500
        k(   56) = (   0.4941541  -0.5706001   0.1026748), wk =   0.0312500
        k(   57) = (  -0.7412312   0.1426500  -0.1026748), wk =   0.0312500
        k(   58) = (   0.2470771  -0.7132501  -0.1026748), wk =   0.0312500
        k(   59) = (  -0.7412312  -0.1426500   0.1026748), wk =   0.0312500
        k(   60) = (   0.2470771   0.7132501   0.1026748), wk =   0.0312500
        k(   61) = (   0.2470771  -0.4279500   0.0000000), wk =   0.0312500
        k(   62) = (  -0.4941541   0.0000000   0.0000000), wk =   0.0312500
        k(   63) = (   0.4941541   0.2853000   0.4106993), wk =   0.0156250
        k(   64) = (   0.0000000   0.5706001  -0.4106993), wk =   0.0156250
        k(   65) = (   0.7412312  -0.4279500   0.0000000), wk =   0.0312500
        k(   66) = (   0.0000000  -0.8559001   0.0000000), wk =   0.0312500
        k(   67) = (   0.4941541  -0.2853000  -0.1026748), wk =   0.0312500
        k(   68) = (   0.0000000  -0.5706001   0.1026748), wk =   0.0312500
        k(   69) = (   0.7412312   0.4279500   0.3080244), wk =   0.0312500
        k(   70) = (   0.0000000   0.8559001  -0.3080244), wk =   0.0312500
        k(   71) = (   0.2470771   0.7132501  -0.2053496), wk =   0.0312500
        k(   72) = (  -0.7412312  -0.1426500  -0.2053496), wk =   0.0312500

                       cryst. coord.
        k(    1) = (   0.0000000   0.0000000   0.0000000), wk =   0.0156250
        k(    2) = (   0.0000000   0.0000000   0.2500000), wk =   0.0312500
        k(    3) = (   0.0000000   0.0000000  -0.5000000), wk =   0.0156250
        k(    4) = (   0.0000000   0.2500000   0.2500000), wk =   0.0312500
        k(    5) = (   0.0000000   0.2500000  -0.5000000), wk =   0.0312500
        k(    6) = (   0.0000000   0.2500000  -0.2500000), wk =   0.0312500
        k(    7) = (   0.0000000  -0.5000000  -0.5000000), wk =   0.0156250
        k(    8) = (   0.2500000   0.2500000   0.2500000), wk =   0.0312500
        k(    9) = (   0.2500000   0.2500000  -0.5000000), wk =   0.0312500
        k(   10) = (   0.2500000   0.2500000  -0.2500000), wk =   0.0312500
        k(   11) = (   0.2500000  -0.5000000  -0.5000000), wk =   0.0312500
        k(   12) = (   0.2500000  -0.5000000  -0.2500000), wk =   0.0312500
        k(   13) = (  -0.5000000  -0.5000000  -0.5000000), wk =   0.0156250
        k(   14) = (  -0.2500000   0.0000000   0.0000000), wk =   0.0312500
        k(   15) = (   0.0000000   0.2500000   0.0000000), wk =   0.0312500
        k(   16) = (   0.5000000   0.0000000   0.0000000), wk =   0.0156250
        k(   17) = (   0.0000000  -0.5000000   0.0000000), wk =   0.0156250
        k(   18) = (  -0.2500000  -0.2500000   0.0000000), wk =   0.0312500
        k(   19) = (   0.2500000   0.0000000   0.2500000), wk =   0.0312500
        k(   20) = (   0.5000000  -0.2500000   0.0000000), wk =   0.0312500
        k(   21) = (  -0.5000000   0.0000000   0.2500000), wk =   0.0312500
        k(   22) = (   0.2500000  -0.5000000   0.0000000), wk =   0.0312500
        k(   23) = (  -0.2500000   0.0000000   0.5000000), wk =   0.0312500
        k(   24) = (   0.0000000   0.5000000  -0.2500000), wk =   0.0312500
        k(   25) = (   0.2500000  -0.2500000   0.0000000), wk =   0.0312500
        k(   26) = (  -0.2500000   0.0000000   0.2500000), wk =   0.0312500
        k(   27) = (   0.5000000   0.5000000   0.0000000), wk =   0.0156250
        k(   28) = (  -0.5000000   0.0000000  -0.5000000), wk =   0.0156250
        k(   29) = (   0.5000000  -0.2500000  -0.2500000), wk =   0.0312500
        k(   30) = (   0.2500000  -0.5000000   0.2500000), wk =   0.0312500
        k(   31) = (   0.2500000  -0.2500000  -0.2500000), wk =   0.0312500
        k(   32) = (   0.2500000  -0.2500000   0.2500000), wk =   0.0312500
        k(   33) = (   0.5000000   0.5000000  -0.2500000), wk =   0.0312500
        k(   34) = (  -0.5000000   0.2500000  -0.5000000), wk =   0.0312500
        k(   35) = (  -0.2500000   0.2500000  -0.5000000), wk =   0.0312500
        k(   36) = (  -0.5000000  -0.2500000   0.2500000), wk =   0.0312500
        k(   37) = (   0.0000000   0.0000000   0.0000000), wk =   0.0156250
        k(   38) = (   0.0000000   0.0000000   0.2500000), wk =   0.0312500
        k(   39) = (   0.0000000   0.0000000  -0.5000000), wk =   0.0156250
        k(   40) = (   0.0000000   0.2500000   0.2500000), wk =   0.0312500
        k(   41) = (   0.0000000   0.2500000  -0.5000000), wk =   0.0312500
        k(   42) = (   0.0000000   0.2500000  -0.2500000), wk =   0.0312500
        k(   43) = (   0.0000000  -0.5000000  -0.5000000), wk =   0.0156250
        k(   44) = (   0.2500000   0.2500000   0.2500000), wk =   0.0312500
        k(   45) = (   0.2500000   0.2500000  -0.5000000), wk =   0.0312500
        k(   46) = (   0.2500000   0.2500000  -0.2500000), wk =   0.0312500
        k(   47) = (   0.2500000  -0.5000000  -0.5000000), wk =   0.0312500
        k(   48) = (   0.2500000  -0.5000000  -0.2500000), wk =   0.0312500
        k(   49) = (  -0.5000000  -0.5000000  -0.5000000), wk =   0.0156250
        k(   50) = (  -0.2500000   0.0000000   0.0000000), wk =   0.0312500
        k(   51) = (   0.0000000   0.2500000   0.0000000), wk =   0.0312500
        k(   52) = (   0.5000000   0.0000000   0.0000000), wk =   0.0156250
        k(   53) = (   0.0000000  -0.5000000   0.0000000), wk =   0.0156250
        k(   54) = (  -0.2500000  -0.2500000   0.0000000), wk =   0.0312500
        k(   55) = (   0.2500000   0.0000000   0.2500000), wk =   0.0312500
        k(   56) = (   0.5000000  -0.2500000   0.0000000), wk =   0.0312500
        k(   57) = (  -0.5000000   0.0000000   0.2500000), wk =   0.0312500
        k(   58) = (   0.2500000  -0.5000000   0.0000000), wk =   0.0312500
        k(   59) = (  -0.2500000   0.0000000   0.5000000), wk =   0.0312500
        k(   60) = (   0.0000000   0.5000000  -0.2500000), wk =   0.0312500
        k(   61) = (   0.2500000  -0.2500000   0.0000000), wk =   0.0312500
        k(   62) = (  -0.2500000   0.0000000   0.2500000), wk =   0.0312500
        k(   63) = (   0.5000000   0.5000000   0.0000000), wk =   0.0156250
        k(   64) = (  -0.5000000   0.0000000  -0.5000000), wk =   0.0156250
        k(   65) = (   0.5000000  -0.2500000  -0.2500000), wk =   0.0312500
        k(   66) = (   0.2500000  -0.5000000   0.2500000), wk =   0.0312500
        k(   67) = (   0.2500000  -0.2500000  -0.2500000), wk =   0.0312500
        k(   68) = (   0.2500000  -0.2500000   0.2500000), wk =   0.0312500
        k(   69) = (   0.5000000   0.5000000  -0.2500000), wk =   0.0312500
        k(   70) = (  -0.5000000   0.2500000  -0.5000000), wk =   0.0312500
        k(   71) = (  -0.2500000   0.2500000  -0.5000000), wk =   0.0312500
        k(   72) = (  -0.5000000  -0.2500000   0.2500000), wk =   0.0312500

     Dense  grid:    69617 G-vectors     FFT dimensions: (  60,  60,  60)

     Smooth grid:    17573 G-vectors     FFT dimensions: (  40,  40,  40)

     Largest allocated arrays     est. size (Mb)     dimensions
        Kohn-Sham Wavefunctions         0.79 Mb     (   1119,   46)
        Atomic wavefunctions            1.06 Mb     (   1119,   62)
        NL pseudopotentials             2.05 Mb     (   1119,  120)
        Each V/rho on FFT grid          3.30 Mb     ( 108000,   2)
        Each G-vector array             0.27 Mb     (  34808)
        G-vector shells                 0.04 Mb     (   4682)
     Largest temporary arrays     est. size (Mb)     dimensions
        Auxiliary wavefunctions         3.14 Mb     (   1119,  184)
        Each subspace H/S matrix        0.52 Mb     ( 184, 184)
        Each <psi_i|beta_j> matrix      0.08 Mb     (    120,   46)
        Arrays for rho mixing          13.18 Mb     ( 108000,   8)

     Check: negative/imaginary core charge=   -0.000028    0.000000

     The initial density is read from file :
     /home/mcurnan/dft-course/Project1/example_LaCoO3/0/O/alpha/CoLaO_U0.save/charge-density.dat

 --- in v_hubbard ---
Hubbard energy    0.0200
 -------
     Number of +U iterations with fixed ns =  0
     Starting occupations:
 --- enter write_ns ---
 LDA+U parameters:
U( 1)     =  0.00000000
alpha( 1) =  0.00000000
U( 2)     =  0.00000000
alpha( 2) =  0.00000000
U( 3)     =  0.00000000
alpha( 3) =  0.05000000
U( 4)     =  0.00000000
alpha( 4) =  0.00000000
atom    1   Tr[ns(na)] (up, down, total) =   4.56592  3.37374  7.93966
   spin  1
    eigenvalues: 
  0.785  0.785  0.999  0.999  0.999
    eigenvectors:
  0.000  0.000  0.000  0.000  1.000
  0.130  0.516  0.189  0.165  0.000
  0.516  0.130  0.165  0.189  0.000
  0.034  0.320  0.646  0.000  0.000
  0.320  0.034  0.000  0.646  0.000
    occupations:
  0.999  0.000  0.000  0.000  0.000
  0.000  0.861  0.000 -0.073  0.072
  0.000  0.000  0.861  0.072  0.073
  0.000 -0.073  0.072  0.923  0.000
  0.000  0.072  0.073  0.000  0.923
   spin  2
    eigenvalues: 
  0.474  0.474  0.773  0.826  0.826
    eigenvectors:
  0.000  0.000  1.000  0.000  0.000
  0.000  0.639  0.000  0.203  0.158
  0.639  0.000  0.000  0.158  0.203
  0.344  0.017  0.000  0.149  0.490
  0.017  0.344  0.000  0.490  0.149
    occupations:
  0.773  0.000  0.000  0.000  0.000
  0.000  0.601  0.000 -0.037  0.165
  0.000  0.000  0.601  0.165  0.037
  0.000 -0.037  0.165  0.699  0.000
  0.000  0.165  0.037  0.000  0.699
atomic mag. moment =     1.192178
atom    2   Tr[ns(na)] (up, down, total) =   4.67288  3.22474  7.89762
   spin  1
    eigenvalues: 
  0.838  0.838  0.999  0.999  0.999
    eigenvectors:
  0.000  0.000  0.000  0.000  1.000
  0.018  0.628  0.244  0.110  0.000
  0.628  0.018  0.110  0.244  0.000
  0.235  0.119  0.025  0.622  0.000
  0.119  0.235  0.622  0.025  0.000
    occupations:
  0.999  0.000  0.000  0.000  0.000
  0.000  0.895  0.000  0.054  0.054
  0.000  0.000  0.895  0.054 -0.054
  0.000  0.054  0.054  0.942  0.000
  0.000  0.054 -0.054  0.000  0.942
   spin  2
    eigenvalues: 
  0.459  0.459  0.730  0.788  0.788
    eigenvectors:
  0.000  0.000  1.000  0.000  0.000
  0.517  0.119  0.000  0.010  0.355
  0.119  0.517  0.000  0.355  0.010
  0.143  0.222  0.000  0.633  0.003
  0.222  0.143  0.000  0.003  0.633
    occupations:
  0.730  0.000  0.000  0.000  0.000
  0.000  0.579  0.000  0.036  0.154
  0.000  0.000  0.579  0.154 -0.036
  0.000  0.036  0.154  0.668  0.000
  0.000  0.154 -0.036  0.000  0.668
atomic mag. moment =     1.448145
atom    3   Tr[ns(na)] (up, down, total) =   1.91460  1.90025  3.81485
   spin  1
    eigenvalues: 
  0.357  0.357  0.387  0.407  0.407
    eigenvectors:
  0.000  0.000  1.000  0.000  0.000
  0.130  0.794  0.000  0.024  0.052
  0.794  0.130  0.000  0.052  0.024
  0.065  0.011  0.000  0.640  0.284
  0.011  0.065  0.000  0.284  0.640
    occupations:
  0.387  0.000  0.000  0.000  0.000
  0.000  0.361  0.000  0.000  0.013
  0.000  0.000  0.361  0.013  0.000
  0.000  0.000  0.013  0.403  0.000
  0.000  0.013  0.000  0.000  0.403
   spin  2
    eigenvalues: 
  0.353  0.353  0.387  0.404  0.404
    eigenvectors:
  0.000  0.000  1.000  0.000  0.000
  0.322  0.588  0.000  0.074  0.016
  0.588  0.322  0.000  0.016  0.074
  0.060  0.030  0.000  0.174  0.736
  0.030  0.060  0.000  0.736  0.174
    occupations:
  0.387  0.000  0.000  0.000  0.000
  0.000  0.358  0.000  0.000  0.015
  0.000  0.000  0.358  0.015  0.000
  0.000  0.000  0.015  0.399  0.000
  0.000  0.015  0.000  0.000  0.399
atomic mag. moment =     0.014344
atom    4   Tr[ns(na)] (up, down, total) =   1.91459  1.90025  3.81485
   spin  1
    eigenvalues: 
  0.357  0.357  0.387  0.407  0.407
    eigenvectors:
  0.000  0.000  1.000  0.000  0.000
  0.720  0.204  0.000  0.032  0.044
  0.204  0.720  0.000  0.044  0.032
  0.017  0.058  0.000  0.521  0.403
  0.058  0.017  0.000  0.403  0.521
    occupations:
  0.387  0.000  0.000  0.000  0.000
  0.000  0.361  0.000  0.000  0.013
  0.000  0.000  0.361  0.013  0.000
  0.000  0.000  0.013  0.403  0.000
  0.000  0.013  0.000  0.000  0.403
   spin  2
    eigenvalues: 
  0.353  0.353  0.387  0.404  0.404
    eigenvectors:
  0.000  0.000  1.000  0.000  0.000
  0.723  0.187  0.000  0.047  0.043
  0.187  0.723  0.000  0.043  0.047
  0.020  0.070  0.000  0.419  0.491
  0.070  0.020  0.000  0.491  0.419
    occupations:
  0.387  0.000  0.000  0.000  0.000
  0.000  0.358  0.000  0.000  0.015
  0.000  0.000  0.358  0.015  0.000
  0.000  0.000  0.015  0.399  0.000
  0.000  0.015  0.000  0.000  0.399
atomic mag. moment =     0.014343
atom    5   Tr[ns(na)] (up, down, total) =   2.74224  2.70308  5.44532
   spin  1
    eigenvalues: 
  0.844  0.947  0.951
    eigenvectors:
  0.337  0.000  0.663
  0.508  0.244  0.248
  0.155  0.756  0.089
    occupations:
  0.915 -0.044  0.025
 -0.044  0.896  0.029
  0.025  0.029  0.932
   spin  2
    eigenvalues: 
  0.864  0.920  0.920
    eigenvectors:
  0.333  0.044  0.622
  0.514  0.111  0.376
  0.153  0.845  0.002
    occupations:
  0.901 -0.023  0.013
 -0.023  0.891  0.016
  0.013  0.016  0.911
atomic mag. moment =     0.039165
atom    6   Tr[ns(na)] (up, down, total) =   2.74225  2.70308  5.44533
   spin  1
    eigenvalues: 
  0.844  0.947  0.951
    eigenvectors:
  0.337  0.000  0.663
  0.487  0.256  0.257
  0.176  0.744  0.080
    occupations:
  0.915  0.044  0.026
  0.044  0.898 -0.030
  0.026 -0.030  0.929
   spin  2
    eigenvalues: 
  0.864  0.920  0.920
    eigenvectors:
  0.333  0.045  0.622
  0.486  0.398  0.116
  0.181  0.558  0.262
    occupations:
  0.901  0.022  0.014
  0.022  0.893 -0.016
  0.014 -0.016  0.910
atomic mag. moment =     0.039166
atom    7   Tr[ns(na)] (up, down, total) =   2.74225  2.70308  5.44533
   spin  1
    eigenvalues: 
  0.844  0.947  0.951
    eigenvectors:
  0.337  0.000  0.663
  0.000  1.000  0.000
  0.663  0.000  0.337
    occupations:
  0.915  0.001 -0.051
  0.001  0.947  0.001
 -0.051  0.001  0.880
   spin  2
    eigenvalues: 
  0.864  0.920  0.920
    eigenvectors:
  0.333  0.051  0.616
  0.000  0.916  0.084
  0.666  0.033  0.301
    occupations:
  0.901  0.001 -0.026
  0.001  0.920  0.001
 -0.026  0.001  0.883
atomic mag. moment =     0.039166
atom    8   Tr[ns(na)] (up, down, total) =   2.74225  2.70308  5.44532
   spin  1
    eigenvalues: 
  0.844  0.947  0.951
    eigenvectors:
  0.337  0.000  0.663
  0.508  0.244  0.248
  0.155  0.756  0.089
    occupations:
  0.915 -0.044  0.025
 -0.044  0.896  0.029
  0.025  0.029  0.932
   spin  2
    eigenvalues: 
  0.864  0.920  0.920
    eigenvectors:
  0.333  0.045  0.622
  0.514  0.109  0.377
  0.153  0.845  0.002
    occupations:
  0.901 -0.023  0.013
 -0.023  0.891  0.016
  0.013  0.016  0.911
atomic mag. moment =     0.039170
atom    9   Tr[ns(na)] (up, down, total) =   2.74225  2.70308  5.44533
   spin  1
    eigenvalues: 
  0.844  0.947  0.951
    eigenvectors:
  0.337  0.000  0.663
  0.487  0.256  0.257
  0.176  0.744  0.080
    occupations:
  0.915  0.044  0.026
  0.044  0.898 -0.030
  0.026 -0.030  0.929
   spin  2
    eigenvalues: 
  0.864  0.920  0.920
    eigenvectors:
  0.333  0.044  0.622
  0.486  0.397  0.117
  0.181  0.559  0.260
    occupations:
  0.901  0.022  0.014
  0.022  0.893 -0.016
  0.014 -0.016  0.910
atomic mag. moment =     0.039164
atom   10   Tr[ns(na)] (up, down, total) =   2.74225  2.70308  5.44533
   spin  1
    eigenvalues: 
  0.844  0.947  0.951
    eigenvectors:
  0.337  0.000  0.663
  0.000  1.000  0.000
  0.663  0.000  0.337
    occupations:
  0.915  0.001 -0.051
  0.001  0.947  0.001
 -0.051  0.001  0.880
   spin  2
    eigenvalues: 
  0.864  0.920  0.920
    eigenvectors:
  0.333  0.045  0.621
  0.000  0.925  0.075
  0.666  0.030  0.304
    occupations:
  0.901  0.001 -0.026
  0.001  0.920  0.001
 -0.026  0.001  0.883
atomic mag. moment =     0.039164
N of occupied +U levels =  56.1389441
 --- exit write_ns ---
 LDA+U Projector read from file 
     Starting wfc from file

     total cpu time spent up to now is        8.7 secs

     per-process dynamical memory:   100.5 Mb

     Self-consistent Calculation

     iteration #  1     ecut=    30.00 Ry     beta=0.20
     Davidson diagonalization with overlap
     c_bands:  1 eigenvalues not converged
     c_bands:  1 eigenvalues not converged
     c_bands:  1 eigenvalues not converged
     c_bands:  1 eigenvalues not converged
     c_bands:  1 eigenvalues not converged
     c_bands:  1 eigenvalues not converged
     c_bands:  1 eigenvalues not converged
     c_bands:  1 eigenvalues not converged
     c_bands:  1 eigenvalues not converged
     c_bands:  1 eigenvalues not converged
     c_bands:  1 eigenvalues not converged
     c_bands:  1 eigenvalues not converged
     c_bands:  1 eigenvalues not converged
     c_bands:  1 eigenvalues not converged
     c_bands:  1 eigenvalues not converged
     c_bands:  1 eigenvalues not converged
     c_bands:  1 eigenvalues not converged
     c_bands:  1 eigenvalues not converged
     c_bands:  1 eigenvalues not converged
     c_bands:  1 eigenvalues not converged
     c_bands:  1 eigenvalues not converged
     c_bands:  1 eigenvalues not converged
     c_bands:  1 eigenvalues not converged
     c_bands:  1 eigenvalues not converged
     c_bands:  1 eigenvalues not converged
     c_bands:  1 eigenvalues not converged
     c_bands:  1 eigenvalues not converged
     c_bands:  1 eigenvalues not converged
     c_bands:  1 eigenvalues not converged
     c_bands:  1 eigenvalues not converged
     c_bands:  1 eigenvalues not converged
     c_bands:  1 eigenvalues not converged
     c_bands:  1 eigenvalues not converged
     c_bands:  1 eigenvalues not converged
     c_bands:  1 eigenvalues not converged
     c_bands:  1 eigenvalues not converged
     c_bands:  1 eigenvalues not converged
     c_bands:  1 eigenvalues not converged
     c_bands:  1 eigenvalues not converged
     c_bands:  1 eigenvalues not converged
     c_bands:  1 eigenvalues not converged
     ethr =  1.00E-10,  avg # of iterations = 17.1
 --- enter write_ns ---
 LDA+U parameters:
U( 1)     =  0.00000000
alpha( 1) =  0.00000000
U( 2)     =  0.00000000
alpha( 2) =  0.00000000
U( 3)     =  0.00000000
alpha( 3) =  0.05000000
U( 4)     =  0.00000000
alpha( 4) =  0.00000000
atom    1   Tr[ns(na)] (up, down, total) =   4.56657  3.37621  7.94279
   spin  1
    eigenvalues: 
  0.785  0.785  0.999  0.999  0.999
    eigenvectors:
  0.000  0.000  0.001  0.000  0.999
  0.017  0.629  0.011  0.343  0.000
  0.629  0.017  0.343  0.010  0.000
  0.118  0.236  0.210  0.436  0.001
  0.236  0.118  0.436  0.210  0.000
    occupations:
  0.999  0.000  0.000  0.000  0.000
  0.000  0.861  0.000 -0.073  0.072
  0.000  0.000  0.861  0.072  0.073
  0.000 -0.073  0.072  0.923  0.000
  0.000  0.072  0.073  0.000  0.923
   spin  2
    eigenvalues: 
  0.474  0.475  0.774  0.826  0.827
    eigenvectors:
  0.000  0.000  1.000  0.000  0.000
  0.123  0.516  0.000  0.139  0.222
  0.516  0.123  0.000  0.222  0.139
  0.221  0.140  0.000  0.254  0.385
  0.140  0.221  0.000  0.385  0.254
    occupations:
  0.774  0.000  0.000  0.000  0.000
  0.000  0.602  0.000 -0.037  0.165
  0.000  0.000  0.602  0.165  0.037
  0.000 -0.037  0.165  0.700  0.000
  0.000  0.165  0.037  0.000  0.700
atomic mag. moment =     1.190356
atom    2   Tr[ns(na)] (up, down, total) =   4.67295  3.22622  7.89917
   spin  1
    eigenvalues: 
  0.838  0.838  0.999  0.999  0.999
    eigenvectors:
  0.000  0.000  0.002  0.001  0.997
  0.324  0.322  0.205  0.148  0.001
  0.322  0.324  0.148  0.206  0.000
  0.000  0.354  0.641  0.004  0.001
  0.354  0.000  0.004  0.641  0.001
    occupations:
  0.999  0.000  0.000  0.000  0.000
  0.000  0.895  0.000  0.054  0.054
  0.000  0.000  0.895  0.054 -0.054
  0.000  0.054  0.054  0.942  0.000
  0.000  0.054 -0.054  0.000  0.942
   spin  2
    eigenvalues: 
  0.459  0.460  0.730  0.788  0.788
    eigenvectors:
  0.000  0.000  1.000  0.000  0.000
  0.201  0.434  0.000  0.055  0.310
  0.434  0.201  0.000  0.310  0.055
  0.317  0.047  0.000  0.617  0.018
  0.048  0.317  0.000  0.018  0.617
    occupations:
  0.730  0.000  0.000  0.000  0.000
  0.000  0.580  0.000  0.036  0.154
  0.000  0.000  0.579  0.154 -0.036
  0.000  0.036  0.154  0.668  0.000
  0.000  0.154 -0.036  0.000  0.669
atomic mag. moment =     1.446730
atom    3   Tr[ns(na)] (up, down, total) =   1.91520  1.90079  3.81599
   spin  1
    eigenvalues: 
  0.357  0.357  0.387  0.407  0.407
    eigenvectors:
  0.000  0.000  1.000  0.000  0.000
  0.695  0.230  0.000  0.017  0.058
  0.230  0.695  0.000  0.058  0.017
  0.019  0.056  0.000  0.703  0.222
  0.056  0.019  0.000  0.222  0.703
    occupations:
  0.387  0.000  0.000  0.000  0.000
  0.000  0.361  0.000  0.000  0.013
  0.000  0.000  0.361  0.013  0.000
  0.000  0.000  0.013  0.403  0.000
  0.000  0.013  0.000  0.000  0.403
   spin  2
    eigenvalues: 
  0.353  0.353  0.387  0.404  0.404
    eigenvectors:
  0.000  0.000  1.000  0.000  0.000
  0.681  0.230  0.000  0.021  0.068
  0.230  0.681  0.000  0.069  0.020
  0.024  0.066  0.000  0.688  0.222
  0.065  0.024  0.000  0.222  0.689
    occupations:
  0.387  0.000  0.000  0.000  0.000
  0.000  0.358  0.000  0.000  0.015
  0.000  0.000  0.358  0.014  0.000
  0.000  0.000  0.014  0.399  0.000
  0.000  0.015  0.000  0.000  0.399
atomic mag. moment =     0.014415
atom    4   Tr[ns(na)] (up, down, total) =   1.91513  1.90076  3.81588
   spin  1
    eigenvalues: 
  0.357  0.357  0.387  0.407  0.407
    eigenvectors:
  0.000  0.000  1.000  0.000  0.000
  0.235  0.688  0.000  0.019  0.058
  0.689  0.235  0.000  0.057  0.019
  0.056  0.020  0.000  0.686  0.238
  0.020  0.057  0.000  0.239  0.685
    occupations:
  0.387  0.000  0.000  0.000  0.000
  0.000  0.361  0.000  0.000  0.013
  0.000  0.000  0.361  0.013  0.000
  0.000  0.000  0.013  0.403  0.000
  0.000  0.013  0.000  0.000  0.403
   spin  2
    eigenvalues: 
  0.353  0.353  0.387  0.404  0.404
    eigenvectors:
  0.000  0.000  1.000  0.000  0.000
  0.235  0.675  0.000  0.023  0.068
  0.676  0.234  0.000  0.067  0.023
  0.065  0.025  0.000  0.663  0.247
  0.024  0.066  0.000  0.247  0.662
    occupations:
  0.387  0.000  0.000  0.000  0.000
  0.000  0.358  0.000  0.000  0.015
  0.000  0.000  0.358  0.015  0.000
  0.000  0.000  0.015  0.399  0.000
  0.000  0.015  0.000  0.000  0.399
atomic mag. moment =     0.014371
atom    5   Tr[ns(na)] (up, down, total) =   2.73887  2.69888  5.43774
   spin  1
    eigenvalues: 
  0.841  0.947  0.951
    eigenvectors:
  0.337  0.000  0.663
  0.507  0.244  0.249
  0.156  0.756  0.089
    occupations:
  0.914 -0.045  0.025
 -0.045  0.894  0.029
  0.025  0.029  0.931
   spin  2
    eigenvalues: 
  0.862  0.918  0.918
    eigenvectors:
  0.334  0.635  0.031
  0.514  0.154  0.333
  0.153  0.211  0.636
    occupations:
  0.900 -0.023  0.013
 -0.023  0.890  0.016
  0.013  0.016  0.910
atomic mag. moment =     0.039987
atom    6   Tr[ns(na)] (up, down, total) =   2.74235  2.70331  5.44567
   spin  1
    eigenvalues: 
  0.844  0.947  0.951
    eigenvectors:
  0.336  0.000  0.663
  0.487  0.257  0.256
  0.176  0.743  0.081
    occupations:
  0.915  0.044  0.026
  0.044  0.898 -0.030
  0.026 -0.030  0.929
   spin  2
    eigenvalues: 
  0.864  0.920  0.920
    eigenvectors:
  0.334  0.024  0.642
  0.486  0.366  0.148
  0.181  0.610  0.209
    occupations:
  0.901  0.022  0.014
  0.022  0.893 -0.016
  0.014 -0.016  0.910
atomic mag. moment =     0.039039
atom    7   Tr[ns(na)] (up, down, total) =   2.74235  2.70331  5.44567
   spin  1
    eigenvalues: 
  0.844  0.947  0.951
    eigenvectors:
  0.336  0.000  0.663
  0.000  1.000  0.000
  0.663  0.000  0.337
    occupations:
  0.915  0.001 -0.051
  0.001  0.947  0.001
 -0.051  0.001  0.880
   spin  2
    eigenvalues: 
  0.864  0.920  0.920
    eigenvectors:
  0.334  0.017  0.650
  0.000  0.970  0.030
  0.666  0.013  0.321
    occupations:
  0.901  0.001 -0.026
  0.001  0.920  0.001
 -0.026  0.001  0.883
atomic mag. moment =     0.039040
atom    8   Tr[ns(na)] (up, down, total) =   2.74267  2.70327  5.44594
   spin  1
    eigenvalues: 
  0.844  0.947  0.951
    eigenvectors:
  0.337  0.000  0.663
  0.508  0.244  0.248
  0.156  0.756  0.089
    occupations:
  0.915 -0.044  0.025
 -0.044  0.896  0.028
  0.025  0.028  0.932
   spin  2
    eigenvalues: 
  0.864  0.920  0.920
    eigenvectors:
  0.333  0.119  0.548
  0.514  0.049  0.438
  0.153  0.833  0.014
    occupations:
  0.901 -0.023  0.013
 -0.023  0.891  0.016
  0.013  0.016  0.911
atomic mag. moment =     0.039409
atom    9   Tr[ns(na)] (up, down, total) =   2.74237  2.70329  5.44566
   spin  1
    eigenvalues: 
  0.844  0.947  0.951
    eigenvectors:
  0.337  0.000  0.663
  0.486  0.258  0.256
  0.177  0.742  0.081
    occupations:
  0.915  0.044  0.026
  0.044  0.898 -0.030
  0.026 -0.030  0.929
   spin  2
    eigenvalues: 
  0.864  0.920  0.920
    eigenvectors:
  0.333  0.018  0.648
  0.486  0.354  0.160
  0.181  0.627  0.192
    occupations:
  0.901  0.022  0.014
  0.022  0.893 -0.016
  0.014 -0.016  0.910
atomic mag. moment =     0.039075
atom   10   Tr[ns(na)] (up, down, total) =   2.74237  2.70329  5.44566
   spin  1
    eigenvalues: 
  0.844  0.947  0.951
    eigenvectors:
  0.337  0.000  0.663
  0.000  1.000  0.000
  0.663  0.000  0.337
    occupations:
  0.915  0.001 -0.051
  0.001  0.947  0.001
 -0.051  0.001  0.880
   spin  2
    eigenvalues: 
  0.864  0.920  0.920
    eigenvectors:
  0.333  0.021  0.645
  0.000  0.962  0.037
  0.666  0.016  0.318
    occupations:
  0.901  0.001 -0.026
  0.001  0.920  0.001
 -0.026  0.001  0.883
atomic mag. moment =     0.039075
N of occupied +U levels =  56.1401713
 --- exit write_ns ---
 --- in v_hubbard ---
Hubbard energy    0.0200
 -------

     total cpu time spent up to now is      157.0 secs

     total energy              =    -538.33541808 Ry
     Harris-Foulkes estimate   =    -538.33543443 Ry
     estimated scf accuracy    <       0.00005030 Ry

     total magnetization       =     3.54 Bohr mag/cell
     absolute magnetization    =     3.69 Bohr mag/cell

     iteration #  2     ecut=    30.00 Ry     beta=0.20
     Davidson diagonalization with overlap
     ethr =  6.62E-08,  avg # of iterations =  2.0
 --- enter write_ns ---
 LDA+U parameters:
U( 1)     =  0.00000000
alpha( 1) =  0.00000000
U( 2)     =  0.00000000
alpha( 2) =  0.00000000
U( 3)     =  0.00000000
alpha( 3) =  0.05000000
U( 4)     =  0.00000000
alpha( 4) =  0.00000000
atom    1   Tr[ns(na)] (up, down, total) =   4.56480  3.36871  7.93350
   spin  1
    eigenvalues: 
  0.784  0.784  0.999  0.999  0.999
    eigenvectors:
  0.000  0.000  0.000  0.000  1.000
  0.047  0.599  0.011  0.343  0.000
  0.599  0.047  0.343  0.011  0.000
  0.083  0.270  0.208  0.438  0.000
  0.271  0.083  0.438  0.208  0.000
    occupations:
  0.999  0.000  0.000  0.000  0.000
  0.000  0.860  0.000 -0.073  0.072
  0.000  0.000  0.860  0.072  0.073
  0.000 -0.073  0.072  0.923  0.000
  0.000  0.072  0.073  0.000  0.923
   spin  2
    eigenvalues: 
  0.474  0.474  0.771  0.825  0.825
    eigenvectors:
  0.000  0.000  1.000  0.000  0.000
  0.123  0.516  0.000  0.125  0.236
  0.516  0.123  0.000  0.236  0.125
  0.221  0.140  0.000  0.280  0.359
  0.140  0.221  0.000  0.359  0.280
    occupations:
  0.771  0.000  0.000  0.000  0.000
  0.000  0.601  0.000 -0.036  0.164
  0.000  0.000  0.600  0.164  0.037
  0.000 -0.036  0.164  0.698  0.000
  0.000  0.164  0.037  0.000  0.698
atomic mag. moment =     1.196089
atom    2   Tr[ns(na)] (up, down, total) =   4.67379  3.23011  7.90390
   spin  1
    eigenvalues: 
  0.838  0.838  0.999  0.999  0.999
    eigenvectors:
  0.000  0.000  0.000  0.001  0.999
  0.302  0.344  0.197  0.157  0.000
  0.344  0.302  0.156  0.197  0.000
  0.000  0.354  0.644  0.002  0.000
  0.354  0.000  0.002  0.643  0.000
    occupations:
  0.999  0.000  0.000  0.000  0.000
  0.000  0.895  0.000  0.054  0.054
  0.000  0.000  0.895  0.054 -0.054
  0.000  0.054  0.054  0.942  0.000
  0.000  0.054 -0.054  0.000  0.942
   spin  2
    eigenvalues: 
  0.459  0.460  0.732  0.790  0.790
    eigenvectors:
  0.000  0.000  1.000  0.000  0.000
  0.201  0.434  0.000  0.073  0.291
  0.434  0.201  0.000  0.291  0.073
  0.317  0.047  0.000  0.601  0.034
  0.047  0.317  0.000  0.034  0.601
    occupations:
  0.732  0.000  0.000  0.000  0.000
  0.000  0.580  0.000  0.036  0.154
  0.000  0.000  0.580  0.155 -0.036
  0.000  0.036  0.155  0.669  0.000
  0.000  0.154 -0.036  0.000  0.669
atomic mag. moment =     1.443680
atom    3   Tr[ns(na)] (up, down, total) =   1.91493  1.90057  3.81550
   spin  1
    eigenvalues: 
  0.357  0.357  0.387  0.407  0.407
    eigenvectors:
  0.000  0.000  1.000  0.000  0.000
  0.696  0.229  0.000  0.017  0.059
  0.229  0.696  0.000  0.059  0.017
  0.019  0.056  0.000  0.709  0.215
  0.056  0.019  0.000  0.215  0.709
    occupations:
  0.387  0.000  0.000  0.000  0.000
  0.000  0.361  0.000  0.000  0.013
  0.000  0.000  0.361  0.013  0.000
  0.000  0.000  0.013  0.403  0.000
  0.000  0.013  0.000  0.000  0.403
   spin  2
    eigenvalues: 
  0.353  0.353  0.387  0.404  0.404
    eigenvectors:
  0.000  0.000  1.000  0.000  0.000
  0.682  0.228  0.000  0.077  0.013
  0.228  0.682  0.000  0.013  0.077
  0.024  0.066  0.000  0.122  0.788
  0.066  0.024  0.000  0.788  0.122
    occupations:
  0.387  0.000  0.000  0.000  0.000
  0.000  0.358  0.000  0.000  0.015
  0.000  0.000  0.358  0.015  0.000
  0.000  0.000  0.015  0.399  0.000
  0.000  0.015  0.000  0.000  0.399
atomic mag. moment =     0.014358
atom    4   Tr[ns(na)] (up, down, total) =   1.91491  1.90058  3.81549
   spin  1
    eigenvalues: 
  0.357  0.357  0.387  0.407  0.407
    eigenvectors:
  0.000  0.000  1.000  0.000  0.000
  0.720  0.204  0.000  0.018  0.058
  0.204  0.720  0.000  0.058  0.018
  0.018  0.058  0.000  0.693  0.231
  0.059  0.017  0.000  0.231  0.693
    occupations:
  0.387  0.000  0.000  0.000  0.000
  0.000  0.361  0.000  0.000  0.013
  0.000  0.000  0.361  0.013  0.000
  0.000  0.000  0.013  0.403  0.000
  0.000  0.013  0.000  0.000  0.403
   spin  2
    eigenvalues: 
  0.353  0.353  0.387  0.404  0.404
    eigenvectors:
  0.000  0.000  1.000  0.000  0.000
  0.704  0.206  0.000  0.022  0.068
  0.206  0.704  0.000  0.068  0.022
  0.022  0.068  0.000  0.673  0.237
  0.068  0.022  0.000  0.237  0.673
    occupations:
  0.387  0.000  0.000  0.000  0.000
  0.000  0.358  0.000  0.000  0.015
  0.000  0.000  0.358  0.015  0.000
  0.000  0.000  0.015  0.399  0.000
  0.000  0.015  0.000  0.000  0.399
atomic mag. moment =     0.014330
atom    5   Tr[ns(na)] (up, down, total) =   2.74109  2.70147  5.44256
   spin  1
    eigenvalues: 
  0.843  0.947  0.951
    eigenvectors:
  0.337  0.000  0.663
  0.508  0.244  0.248
  0.155  0.756  0.089
    occupations:
  0.915 -0.045  0.025
 -0.045  0.895  0.029
  0.025  0.029  0.931
   spin  2
    eigenvalues: 
  0.863  0.919  0.919
    eigenvectors:
  0.334  0.358  0.309
  0.513  0.002  0.485
  0.154  0.640  0.206
    occupations:
  0.900 -0.023  0.013
 -0.023  0.891  0.016
  0.013  0.016  0.910
atomic mag. moment =     0.039625
atom    6   Tr[ns(na)] (up, down, total) =   2.74242  2.70331  5.44573
   spin  1
    eigenvalues: 
  0.844  0.947  0.951
    eigenvectors:
  0.337  0.000  0.663
  0.487  0.257  0.256
  0.177  0.743  0.081
    occupations:
  0.915  0.043  0.026
  0.043  0.898 -0.030
  0.026 -0.030  0.929
   spin  2
    eigenvalues: 
  0.864  0.920  0.920
    eigenvectors:
  0.334  0.033  0.633
  0.486  0.381  0.133
  0.180  0.586  0.234
    occupations:
  0.901  0.022  0.014
  0.022  0.893 -0.016
  0.014 -0.016  0.910
atomic mag. moment =     0.039103
atom    7   Tr[ns(na)] (up, down, total) =   2.74242  2.70331  5.44573
   spin  1
    eigenvalues: 
  0.844  0.947  0.951
    eigenvectors:
  0.337  0.000  0.663
  0.000  1.000  0.000
  0.663  0.000  0.337
    occupations:
  0.915  0.001 -0.051
  0.001  0.947  0.001
 -0.051  0.001  0.880
   spin  2
    eigenvalues: 
  0.864  0.920  0.920
    eigenvectors:
  0.334  0.036  0.631
  0.000  0.940  0.060
  0.666  0.024  0.310
    occupations:
  0.901  0.001 -0.026
  0.001  0.920  0.001
 -0.026  0.001  0.883
atomic mag. moment =     0.039105
atom    8   Tr[ns(na)] (up, down, total) =   2.74238  2.70308  5.44546
   spin  1
    eigenvalues: 
  0.844  0.947  0.951
    eigenvectors:
  0.337  0.000  0.663
  0.508  0.244  0.248
  0.155  0.756  0.089
    occupations:
  0.915 -0.044  0.025
 -0.044  0.896  0.028
  0.025  0.028  0.932
   spin  2
    eigenvalues: 
  0.864  0.920  0.920
    eigenvectors:
  0.333  0.061  0.606
  0.513  0.093  0.394
  0.154  0.846  0.000
    occupations:
  0.901 -0.023  0.013
 -0.023  0.891  0.016
  0.013  0.016  0.911
atomic mag. moment =     0.039300
atom    9   Tr[ns(na)] (up, down, total) =   2.74245  2.70333  5.44579
   spin  1
    eigenvalues: 
  0.844  0.947  0.951
    eigenvectors:
  0.337  0.000  0.663
  0.487  0.257  0.256
  0.177  0.743  0.081
    occupations:
  0.915  0.043  0.026
  0.043  0.898 -0.030
  0.026 -0.030  0.929
   spin  2
    eigenvalues: 
  0.864  0.920  0.920
    eigenvectors:
  0.333  0.028  0.639
  0.487  0.371  0.142
  0.180  0.601  0.219
    occupations:
  0.901  0.022  0.014
  0.022  0.893 -0.016
  0.014 -0.016  0.910
atomic mag. moment =     0.039119
atom   10   Tr[ns(na)] (up, down, total) =   2.74245  2.70334  5.44579
   spin  1
    eigenvalues: 
  0.844  0.947  0.951
    eigenvectors:
  0.337  0.000  0.663
  0.000  1.000  0.000
  0.663  0.000  0.337
    occupations:
  0.915  0.001 -0.051
  0.001  0.947  0.001
 -0.051  0.001  0.880
   spin  2
    eigenvalues: 
  0.864  0.920  0.920
    eigenvectors:
  0.333  0.034  0.632
  0.000  0.942  0.058
  0.666  0.024  0.310
    occupations:
  0.901  0.001 -0.026
  0.001  0.920  0.001
 -0.026  0.001  0.883
atomic mag. moment =     0.039118
N of occupied +U levels =  56.1394468
 --- exit write_ns ---
 --- in v_hubbard ---
Hubbard energy    0.0200
 -------

     total cpu time spent up to now is      214.3 secs

     total energy              =    -538.33541638 Ry
     Harris-Foulkes estimate   =    -538.33542760 Ry
     estimated scf accuracy    <       0.00007698 Ry

     total magnetization       =     3.54 Bohr mag/cell
     absolute magnetization    =     3.69 Bohr mag/cell

     iteration #  3     ecut=    30.00 Ry     beta=0.20
     Davidson diagonalization with overlap
     ethr =  6.62E-08,  avg # of iterations =  1.0
 --- enter write_ns ---
 LDA+U parameters:
U( 1)     =  0.00000000
alpha( 1) =  0.00000000
U( 2)     =  0.00000000
alpha( 2) =  0.00000000
U( 3)     =  0.00000000
alpha( 3) =  0.05000000
U( 4)     =  0.00000000
alpha( 4) =  0.00000000
atom    1   Tr[ns(na)] (up, down, total) =   4.56874  3.38686  7.95561
   spin  1
    eigenvalues: 
  0.786  0.786  0.999  0.999  0.999
    eigenvectors:
  0.000  0.000  0.000  0.000  1.000
  0.048  0.598  0.011  0.343  0.000
  0.598  0.048  0.343  0.011  0.000
  0.082  0.271  0.208  0.438  0.000
  0.271  0.082  0.438  0.208  0.000
    occupations:
  0.999  0.000  0.000  0.000  0.000
  0.000  0.862  0.000 -0.072  0.071
  0.000  0.000  0.861  0.071  0.072
  0.000 -0.072  0.071  0.924  0.000
  0.000  0.071  0.072  0.000  0.924
   spin  2
    eigenvalues: 
  0.475  0.475  0.777  0.830  0.830
    eigenvectors:
  0.000  0.000  1.000  0.000  0.000
  0.122  0.517  0.000  0.134  0.227
  0.517  0.122  0.000  0.227  0.133
  0.220  0.141  0.000  0.263  0.377
  0.141  0.220  0.000  0.377  0.263
    occupations:
  0.777  0.000  0.000  0.000  0.000
  0.000  0.603  0.000 -0.037  0.166
  0.000  0.000  0.603  0.166  0.037
  0.000 -0.037  0.166  0.702  0.000
  0.000  0.166  0.037  0.000  0.702
atomic mag. moment =     1.181876
atom    2   Tr[ns(na)] (up, down, total) =   4.67029  3.21231  7.88259
   spin  1
    eigenvalues: 
  0.837  0.837  0.999  0.999  0.999
    eigenvectors:
  0.000  0.000  0.000  0.001  0.999
  0.301  0.345  0.196  0.158  0.000
  0.345  0.301  0.158  0.196  0.000
  0.000  0.354  0.644  0.002  0.000
  0.354  0.000  0.002  0.644  0.000
    occupations:
  0.999  0.000  0.000  0.000  0.000
  0.000  0.894  0.000  0.055  0.055
  0.000  0.000  0.894  0.055 -0.055
  0.000  0.055  0.055  0.942  0.000
  0.000  0.055 -0.055  0.000  0.942
   spin  2
    eigenvalues: 
  0.459  0.459  0.726  0.784  0.784
    eigenvectors:
  0.000  0.000  1.000  0.000  0.000
  0.201  0.435  0.000  0.055  0.310
  0.435  0.201  0.000  0.310  0.055
  0.317  0.048  0.000  0.617  0.019
  0.048  0.317  0.000  0.019  0.617
    occupations:
  0.726  0.000  0.000  0.000  0.000
  0.000  0.578  0.000  0.035  0.153
  0.000  0.000  0.578  0.153 -0.035
  0.000  0.035  0.153  0.666  0.000
  0.000  0.153 -0.035  0.000  0.666
atomic mag. moment =     1.457982
atom    3   Tr[ns(na)] (up, down, total) =   1.91493  1.90058  3.81552
   spin  1
    eigenvalues: 
  0.357  0.357  0.387  0.407  0.407
    eigenvectors:
  0.000  0.000  1.000  0.000  0.000
  0.695  0.229  0.000  0.016  0.060
  0.229  0.695  0.000  0.060  0.016
  0.019  0.056  0.000  0.718  0.206
  0.056  0.019  0.000  0.206  0.718
    occupations:
  0.387  0.000  0.000  0.000  0.000
  0.000  0.361  0.000  0.000  0.013
  0.000  0.000  0.361  0.013  0.000
  0.000  0.000  0.013  0.403  0.000
  0.000  0.013  0.000  0.000  0.403
   spin  2
    eigenvalues: 
  0.353  0.353  0.387  0.404  0.404
    eigenvectors:
  0.000  0.000  1.000  0.000  0.000
  0.683  0.227  0.000  0.079  0.010
  0.227  0.683  0.000  0.010  0.079
  0.024  0.066  0.000  0.115  0.795
  0.066  0.024  0.000  0.795  0.115
    occupations:
  0.387  0.000  0.000  0.000  0.000
  0.000  0.358  0.000  0.000  0.015
  0.000  0.000  0.358  0.015  0.000
  0.000  0.000  0.015  0.399  0.000
  0.000  0.015  0.000  0.000  0.399
atomic mag. moment =     0.014350
atom    4   Tr[ns(na)] (up, down, total) =   1.91491  1.90059  3.81550
   spin  1
    eigenvalues: 
  0.357  0.357  0.387  0.407  0.407
    eigenvectors:
  0.000  0.000  1.000  0.000  0.000
  0.712  0.211  0.000  0.018  0.058
  0.211  0.713  0.000  0.058  0.018
  0.018  0.058  0.000  0.695  0.229
  0.058  0.018  0.000  0.229  0.695
    occupations:
  0.387  0.000  0.000  0.000  0.000
  0.000  0.361  0.000  0.000  0.013
  0.000  0.000  0.361  0.013  0.000
  0.000  0.000  0.013  0.403  0.000
  0.000  0.013  0.000  0.000  0.403
   spin  2
    eigenvalues: 
  0.353  0.353  0.387  0.404  0.404
    eigenvectors:
  0.000  0.000  1.000  0.000  0.000
  0.701  0.209  0.000  0.022  0.068
  0.209  0.701  0.000  0.068  0.022
  0.022  0.068  0.000  0.671  0.239
  0.068  0.022  0.000  0.239  0.671
    occupations:
  0.387  0.000  0.000  0.000  0.000
  0.000  0.358  0.000  0.000  0.015
  0.000  0.000  0.358  0.015  0.000
  0.000  0.000  0.015  0.399  0.000
  0.000  0.015  0.000  0.000  0.399
atomic mag. moment =     0.014322
atom    5   Tr[ns(na)] (up, down, total) =   2.74098  2.70146  5.44244
   spin  1
    eigenvalues: 
  0.843  0.947  0.951
    eigenvectors:
  0.337  0.000  0.663
  0.507  0.244  0.249
  0.156  0.756  0.088
    occupations:
  0.915 -0.045  0.025
 -0.045  0.895  0.029
  0.025  0.029  0.931
   spin  2
    eigenvalues: 
  0.863  0.919  0.919
    eigenvectors:
  0.333  0.260  0.407
  0.515  0.003  0.482
  0.151  0.737  0.112
    occupations:
  0.900 -0.023  0.012
 -0.023  0.890  0.016
  0.012  0.016  0.911
atomic mag. moment =     0.039519
atom    6   Tr[ns(na)] (up, down, total) =   2.74229  2.70329  5.44558
   spin  1
    eigenvalues: 
  0.844  0.947  0.951
    eigenvectors:
  0.337  0.000  0.663
  0.487  0.257  0.256
  0.176  0.743  0.081
    occupations:
  0.915  0.044  0.026
  0.044  0.898 -0.030
  0.026 -0.030  0.929
   spin  2
    eigenvalues: 
  0.864  0.920  0.920
    eigenvectors:
  0.334  0.040  0.626
  0.484  0.395  0.121
  0.183  0.565  0.252
    occupations:
  0.901  0.022  0.014
  0.022  0.893 -0.017
  0.014 -0.017  0.909
atomic mag. moment =     0.039002
atom    7   Tr[ns(na)] (up, down, total) =   2.74229  2.70329  5.44558
   spin  1
    eigenvalues: 
  0.844  0.947  0.951
    eigenvectors:
  0.337  0.000  0.663
  0.000  1.000  0.000
  0.663  0.000  0.337
    occupations:
  0.915  0.001 -0.051
  0.001  0.947  0.001
 -0.051  0.001  0.880
   spin  2
    eigenvalues: 
  0.864  0.920  0.920
    eigenvectors:
  0.334  0.040  0.627
  0.000  0.933  0.067
  0.666  0.028  0.306
    occupations:
  0.901  0.001 -0.026
  0.001  0.920  0.001
 -0.026  0.001  0.883
atomic mag. moment =     0.039003
atom    8   Tr[ns(na)] (up, down, total) =   2.74228  2.70309  5.44538
   spin  1
    eigenvalues: 
  0.844  0.947  0.951
    eigenvectors:
  0.337  0.000  0.663
  0.507  0.244  0.249
  0.156  0.756  0.088
    occupations:
  0.915 -0.044  0.025
 -0.044  0.896  0.029
  0.025  0.029  0.932
   spin  2
    eigenvalues: 
  0.864  0.920  0.920
    eigenvectors:
  0.333  0.060  0.606
  0.515  0.091  0.394
  0.151  0.849  0.000
    occupations:
  0.901 -0.023  0.012
 -0.023  0.891  0.016
  0.012  0.016  0.911
atomic mag. moment =     0.039194
atom    9   Tr[ns(na)] (up, down, total) =   2.74233  2.70331  5.44563
   spin  1
    eigenvalues: 
  0.844  0.947  0.951
    eigenvectors:
  0.337  0.000  0.663
  0.487  0.257  0.256
  0.176  0.743  0.081
    occupations:
  0.915  0.044  0.026
  0.044  0.898 -0.030
  0.026 -0.030  0.929
   spin  2
    eigenvalues: 
  0.864  0.920  0.920
    eigenvectors:
  0.333  0.034  0.632
  0.484  0.386  0.130
  0.182  0.580  0.238
    occupations:
  0.901  0.022  0.014
  0.022  0.893 -0.017
  0.014 -0.017  0.909
atomic mag. moment =     0.039018
atom   10   Tr[ns(na)] (up, down, total) =   2.74232  2.70331  5.44563
   spin  1
    eigenvalues: 
  0.844  0.947  0.951
    eigenvectors:
  0.337  0.000  0.663
  0.000  1.000  0.000
  0.663  0.000  0.337
    occupations:
  0.915  0.001 -0.051
  0.001  0.947  0.001
 -0.051  0.001  0.880
   spin  2
    eigenvalues: 
  0.864  0.920  0.920
    eigenvectors:
  0.333  0.038  0.629
  0.000  0.935  0.065
  0.666  0.027  0.307
    occupations:
  0.901  0.001 -0.026
  0.001  0.920  0.001
 -0.026  0.001  0.883
atomic mag. moment =     0.039017
N of occupied +U levels =  56.1394713
 --- exit write_ns ---
 --- in v_hubbard ---
Hubbard energy    0.0200
 -------

     total cpu time spent up to now is      272.6 secs

     total energy              =    -538.33541565 Ry
     Harris-Foulkes estimate   =    -538.33543611 Ry
     estimated scf accuracy    <       0.00046864 Ry

     total magnetization       =     3.54 Bohr mag/cell
     absolute magnetization    =     3.69 Bohr mag/cell

     iteration #  4     ecut=    30.00 Ry     beta=0.20
     Davidson diagonalization with overlap
     ethr =  6.62E-08,  avg # of iterations =  1.0
 --- enter write_ns ---
 LDA+U parameters:
U( 1)     =  0.00000000
alpha( 1) =  0.00000000
U( 2)     =  0.00000000
alpha( 2) =  0.00000000
U( 3)     =  0.00000000
alpha( 3) =  0.05000000
U( 4)     =  0.00000000
alpha( 4) =  0.00000000
atom    1   Tr[ns(na)] (up, down, total) =   4.56605  3.37433  7.94038
   spin  1
    eigenvalues: 
  0.785  0.785  0.999  0.999  0.999
    eigenvectors:
  0.000  0.000  0.000  0.000  1.000
  0.048  0.598  0.011  0.343  0.000
  0.598  0.048  0.343  0.011  0.000
  0.082  0.272  0.208  0.438  0.000
  0.272  0.082  0.438  0.208  0.000
    occupations:
  0.999  0.000  0.000  0.000  0.000
  0.000  0.861  0.000 -0.073  0.072
  0.000  0.000  0.861  0.072  0.073
  0.000 -0.073  0.072  0.923  0.000
  0.000  0.072  0.073  0.000  0.923
   spin  2
    eigenvalues: 
  0.474  0.475  0.773  0.826  0.826
    eigenvectors:
  0.000  0.000  1.000  0.000  0.000
  0.123  0.516  0.000  0.144  0.217
  0.516  0.123  0.000  0.217  0.144
  0.221  0.140  0.000  0.245  0.394
  0.140  0.221  0.000  0.394  0.245
    occupations:
  0.773  0.000  0.000  0.000  0.000
  0.000  0.601  0.000 -0.037  0.165
  0.000  0.000  0.601  0.165  0.037
  0.000 -0.037  0.165  0.699  0.000
  0.000  0.165  0.037  0.000  0.699
atomic mag. moment =     1.191716
atom    2   Tr[ns(na)] (up, down, total) =   4.67286  3.22564  7.89850
   spin  1
    eigenvalues: 
  0.838  0.838  0.999  0.999  0.999
    eigenvectors:
  0.000  0.000  0.000  0.001  0.999
  0.304  0.342  0.190  0.163  0.000
  0.342  0.304  0.163  0.190  0.000
  0.000  0.354  0.645  0.001  0.000
  0.354  0.000  0.001  0.645  0.000
    occupations:
  0.999  0.000  0.000  0.000  0.000
  0.000  0.895  0.000  0.054  0.054
  0.000  0.000  0.895  0.054 -0.054
  0.000  0.054  0.054  0.942  0.000
  0.000  0.054 -0.054  0.000  0.942
   spin  2
    eigenvalues: 
  0.459  0.460  0.730  0.788  0.788
    eigenvectors:
  0.000  0.000  1.000  0.000  0.000
  0.201  0.434  0.000  0.034  0.331
  0.434  0.201  0.000  0.331  0.034
  0.317  0.047  0.000  0.631  0.004
  0.047  0.317  0.000  0.004  0.631
    occupations:
  0.730  0.000  0.000  0.000  0.000
  0.000  0.579  0.000  0.036  0.154
  0.000  0.000  0.579  0.154 -0.036
  0.000  0.036  0.154  0.668  0.000
  0.000  0.154 -0.036  0.000  0.668
atomic mag. moment =     1.447219
atom    3   Tr[ns(na)] (up, down, total) =   1.91493  1.90056  3.81549
   spin  1
    eigenvalues: 
  0.357  0.357  0.387  0.407  0.407
    eigenvectors:
  0.000  0.000  1.000  0.000  0.000
  0.695  0.229  0.000  0.015  0.060
  0.229  0.695  0.000  0.060  0.015
  0.020  0.056  0.000  0.727  0.198
  0.056  0.020  0.000  0.197  0.727
    occupations:
  0.387  0.000  0.000  0.000  0.000
  0.000  0.361  0.000  0.000  0.013
  0.000  0.000  0.361  0.013  0.000
  0.000  0.000  0.013  0.403  0.000
  0.000  0.013  0.000  0.000  0.403
   spin  2
    eigenvalues: 
  0.353  0.353  0.387  0.404  0.404
    eigenvectors:
  0.000  0.000  1.000  0.000  0.000
  0.684  0.227  0.000  0.068  0.022
  0.227  0.684  0.000  0.022  0.068
  0.024  0.066  0.000  0.232  0.678
  0.066  0.024  0.000  0.678  0.232
    occupations:
  0.387  0.000  0.000  0.000  0.000
  0.000  0.358  0.000  0.000  0.015
  0.000  0.000  0.358  0.015  0.000
  0.000  0.000  0.015  0.399  0.000
  0.000  0.015  0.000  0.000  0.399
atomic mag. moment =     0.014368
atom    4   Tr[ns(na)] (up, down, total) =   1.91491  1.90057  3.81548
   spin  1
    eigenvalues: 
  0.357  0.357  0.387  0.407  0.407
    eigenvectors:
  0.000  0.000  1.000  0.000  0.000
  0.710  0.214  0.000  0.018  0.058
  0.214  0.711  0.000  0.058  0.018
  0.018  0.057  0.000  0.695  0.229
  0.058  0.018  0.000  0.229  0.695
    occupations:
  0.387  0.000  0.000  0.000  0.000
  0.000  0.361  0.000  0.000  0.013
  0.000  0.000  0.361  0.013  0.000
  0.000  0.000  0.013  0.403  0.000
  0.000  0.013  0.000  0.000  0.403
   spin  2
    eigenvalues: 
  0.353  0.353  0.387  0.404  0.404
    eigenvectors:
  0.000  0.000  1.000  0.000  0.000
  0.699  0.211  0.000  0.022  0.068
  0.211  0.699  0.000  0.067  0.022
  0.022  0.068  0.000  0.671  0.239
  0.068  0.022  0.000  0.239  0.671
    occupations:
  0.387  0.000  0.000  0.000  0.000
  0.000  0.358  0.000  0.000  0.015
  0.000  0.000  0.358  0.015  0.000
  0.000  0.000  0.015  0.399  0.000
  0.000  0.015  0.000  0.000  0.399
atomic mag. moment =     0.014340
atom    5   Tr[ns(na)] (up, down, total) =   2.74100  2.70138  5.44238
   spin  1
    eigenvalues: 
  0.843  0.947  0.951
    eigenvectors:
  0.337  0.000  0.663
  0.508  0.244  0.249
  0.155  0.756  0.089
    occupations:
  0.915 -0.045  0.025
 -0.045  0.895  0.029
  0.025  0.029  0.931
   spin  2
    eigenvalues: 
  0.863  0.919  0.919
    eigenvectors:
  0.334  0.310  0.356
  0.514  0.000  0.486
  0.153  0.690  0.157
    occupations:
  0.900 -0.023  0.013
 -0.023  0.890  0.016
  0.013  0.016  0.910
atomic mag. moment =     0.039617
atom    6   Tr[ns(na)] (up, down, total) =   2.74229  2.70319  5.44548
   spin  1
    eigenvalues: 
  0.844  0.947  0.951
    eigenvectors:
  0.337  0.000  0.663
  0.487  0.257  0.256
  0.176  0.743  0.081
    occupations:
  0.915  0.044  0.026
  0.044  0.898 -0.030
  0.026 -0.030  0.929
   spin  2
    eigenvalues: 
  0.864  0.920  0.920
    eigenvectors:
  0.334  0.038  0.628
  0.486  0.389  0.125
  0.181  0.573  0.246
    occupations:
  0.901  0.022  0.014
  0.022  0.893 -0.016
  0.014 -0.016  0.910
atomic mag. moment =     0.039099
atom    7   Tr[ns(na)] (up, down, total) =   2.74229  2.70319  5.44548
   spin  1
    eigenvalues: 
  0.844  0.947  0.951
    eigenvectors:
  0.337  0.000  0.663
  0.000  1.000  0.000
  0.663  0.000  0.337
    occupations:
  0.915  0.001 -0.051
  0.001  0.947  0.001
 -0.051  0.001  0.880
   spin  2
    eigenvalues: 
  0.864  0.920  0.920
    eigenvectors:
  0.334  0.034  0.632
  0.000  0.942  0.057
  0.666  0.024  0.310
    occupations:
  0.901  0.001 -0.026
  0.001  0.920  0.001
 -0.026  0.001  0.883
atomic mag. moment =     0.039101
atom    8   Tr[ns(na)] (up, down, total) =   2.74232  2.70304  5.44536
   spin  1
    eigenvalues: 
  0.844  0.947  0.951
    eigenvectors:
  0.337  0.000  0.663
  0.508  0.244  0.248
  0.155  0.756  0.089
    occupations:
  0.915 -0.044  0.025
 -0.044  0.896  0.029
  0.025  0.029  0.932
   spin  2
    eigenvalues: 
  0.864  0.920  0.920
    eigenvectors:
  0.333  0.055  0.612
  0.514  0.099  0.388
  0.153  0.847  0.000
    occupations:
  0.901 -0.023  0.013
 -0.023  0.891  0.016
  0.013  0.016  0.911
atomic mag. moment =     0.039286
atom    9   Tr[ns(na)] (up, down, total) =   2.74231  2.70320  5.44551
   spin  1
    eigenvalues: 
  0.844  0.947  0.951
    eigenvectors:
  0.337  0.000  0.663
  0.487  0.257  0.256
  0.176  0.743  0.081
    occupations:
  0.915  0.044  0.026
  0.044  0.898 -0.030
  0.026 -0.030  0.929
   spin  2
    eigenvalues: 
  0.864  0.920  0.920
    eigenvectors:
  0.333  0.032  0.635
  0.486  0.379  0.135
  0.181  0.589  0.231
    occupations:
  0.901  0.022  0.014
  0.022  0.893 -0.016
  0.014 -0.016  0.910
atomic mag. moment =     0.039117
atom   10   Tr[ns(na)] (up, down, total) =   2.74231  2.70320  5.44551
   spin  1
    eigenvalues: 
  0.844  0.947  0.951
    eigenvectors:
  0.337  0.000  0.663
  0.000  1.000  0.000
  0.663  0.000  0.337
    occupations:
  0.915  0.001 -0.051
  0.001  0.947  0.001
 -0.051  0.001  0.880
   spin  2
    eigenvalues: 
  0.864  0.920  0.920
    eigenvectors:
  0.333  0.033  0.634
  0.000  0.944  0.056
  0.666  0.023  0.311
    occupations:
  0.901  0.001 -0.026
  0.001  0.920  0.001
 -0.026  0.001  0.883
atomic mag. moment =     0.039116
N of occupied +U levels =  56.1395822
 --- exit write_ns ---
 --- in v_hubbard ---
Hubbard energy    0.0200
 -------

     total cpu time spent up to now is      330.3 secs

     total energy              =    -538.33542578 Ry
     Harris-Foulkes estimate   =    -538.33542579 Ry
     estimated scf accuracy    <       0.00000024 Ry

     total magnetization       =     3.54 Bohr mag/cell
     absolute magnetization    =     3.69 Bohr mag/cell

     iteration #  5     ecut=    30.00 Ry     beta=0.20
     Davidson diagonalization with overlap
     ethr =  3.11E-10,  avg # of iterations =  2.1
 --- enter write_ns ---
 LDA+U parameters:
U( 1)     =  0.00000000
alpha( 1) =  0.00000000
U( 2)     =  0.00000000
alpha( 2) =  0.00000000
U( 3)     =  0.00000000
alpha( 3) =  0.05000000
U( 4)     =  0.00000000
alpha( 4) =  0.00000000
atom    1   Tr[ns(na)] (up, down, total) =   4.56602  3.37424  7.94026
   spin  1
    eigenvalues: 
  0.785  0.785  0.999  0.999  0.999
    eigenvectors:
  0.000  0.000  0.000  0.000  1.000
  0.050  0.597  0.013  0.340  0.000
  0.597  0.050  0.340  0.013  0.000
  0.081  0.273  0.196  0.450  0.000
  0.273  0.081  0.450  0.196  0.000
    occupations:
  0.999  0.000  0.000  0.000  0.000
  0.000  0.861  0.000 -0.073  0.072
  0.000  0.000  0.861  0.072  0.073
  0.000 -0.073  0.072  0.923  0.000
  0.000  0.072  0.073  0.000  0.923
   spin  2
    eigenvalues: 
  0.474  0.475  0.773  0.826  0.826
    eigenvectors:
  0.000  0.000  1.000  0.000  0.000
  0.123  0.516  0.000  0.151  0.210
  0.516  0.123  0.000  0.210  0.151
  0.221  0.140  0.000  0.233  0.406
  0.140  0.221  0.000  0.406  0.233
    occupations:
  0.773  0.000  0.000  0.000  0.000
  0.000  0.601  0.000 -0.037  0.165
  0.000  0.000  0.601  0.165  0.037
  0.000 -0.037  0.165  0.699  0.000
  0.000  0.165  0.037  0.000  0.699
atomic mag. moment =     1.191778
atom    2   Tr[ns(na)] (up, down, total) =   4.67283  3.22558  7.89841
   spin  1
    eigenvalues: 
  0.838  0.838  0.999  0.999  0.999
    eigenvectors:
  0.000  0.000  0.000  0.001  0.999
  0.308  0.338  0.189  0.164  0.000
  0.338  0.308  0.164  0.189  0.000
  0.000  0.354  0.645  0.001  0.000
  0.354  0.000  0.001  0.645  0.000
    occupations:
  0.999  0.000  0.000  0.000  0.000
  0.000  0.895  0.000  0.054  0.054
  0.000  0.000  0.895  0.054 -0.054
  0.000  0.054  0.054  0.942  0.000
  0.000  0.054 -0.054  0.000  0.942
   spin  2
    eigenvalues: 
  0.459  0.460  0.730  0.788  0.788
    eigenvectors:
  0.000  0.000  1.000  0.000  0.000
  0.201  0.434  0.000  0.027  0.338
  0.434  0.201  0.000  0.338  0.027
  0.317  0.047  0.000  0.634  0.001
  0.047  0.317  0.000  0.001  0.634
    occupations:
  0.730  0.000  0.000  0.000  0.000
  0.000  0.579  0.000  0.036  0.154
  0.000  0.000  0.579  0.154 -0.036
  0.000  0.036  0.154  0.668  0.000
  0.000  0.154 -0.036  0.000  0.668
atomic mag. moment =     1.447244
atom    3   Tr[ns(na)] (up, down, total) =   1.91490  1.90054  3.81545
   spin  1
    eigenvalues: 
  0.357  0.357  0.387  0.407  0.407
    eigenvectors:
  0.000  0.000  1.000  0.000  0.000
  0.694  0.230  0.000  0.015  0.061
  0.230  0.694  0.000  0.061  0.015
  0.020  0.056  0.000  0.731  0.194
  0.056  0.020  0.000  0.193  0.731
    occupations:
  0.387  0.000  0.000  0.000  0.000
  0.000  0.361  0.000  0.000  0.013
  0.000  0.000  0.361  0.013  0.000
  0.000  0.000  0.013  0.403  0.000
  0.000  0.013  0.000  0.000  0.403
   spin  2
    eigenvalues: 
  0.353  0.353  0.387  0.404  0.404
    eigenvectors:
  0.000  0.000  1.000  0.000  0.000
  0.683  0.227  0.000  0.067  0.023
  0.227  0.683  0.000  0.023  0.067
  0.024  0.066  0.000  0.243  0.668
  0.066  0.024  0.000  0.668  0.243
    occupations:
  0.387  0.000  0.000  0.000  0.000
  0.000  0.358  0.000  0.000  0.015
  0.000  0.000  0.358  0.015  0.000
  0.000  0.000  0.015  0.399  0.000
  0.000  0.015  0.000  0.000  0.399
atomic mag. moment =     0.014362
atom    4   Tr[ns(na)] (up, down, total) =   1.91489  1.90055  3.81544
   spin  1
    eigenvalues: 
  0.357  0.357  0.387  0.407  0.407
    eigenvectors:
  0.000  0.000  1.000  0.000  0.000
  0.709  0.215  0.000  0.019  0.058
  0.215  0.709  0.000  0.057  0.019
  0.018  0.057  0.000  0.689  0.235
  0.058  0.018  0.000  0.235  0.689
    occupations:
  0.387  0.000  0.000  0.000  0.000
  0.000  0.361  0.000  0.000  0.013
  0.000  0.000  0.361  0.013  0.000
  0.000  0.000  0.013  0.403  0.000
  0.000  0.013  0.000  0.000  0.403
   spin  2
    eigenvalues: 
  0.353  0.353  0.387  0.404  0.404
    eigenvectors:
  0.000  0.000  1.000  0.000  0.000
  0.697  0.213  0.000  0.023  0.067
  0.213  0.697  0.000  0.067  0.023
  0.022  0.067  0.000  0.668  0.243
  0.068  0.022  0.000  0.243  0.667
    occupations:
  0.387  0.000  0.000  0.000  0.000
  0.000  0.358  0.000  0.000  0.015
  0.000  0.000  0.358  0.015  0.000
  0.000  0.000  0.015  0.399  0.000
  0.000  0.015  0.000  0.000  0.399
atomic mag. moment =     0.014334
atom    5   Tr[ns(na)] (up, down, total) =   2.74102  2.70140  5.44243
   spin  1
    eigenvalues: 
  0.843  0.947  0.951
    eigenvectors:
  0.337  0.000  0.663
  0.508  0.244  0.249
  0.155  0.756  0.089
    occupations:
  0.915 -0.045  0.025
 -0.045  0.895  0.029
  0.025  0.029  0.931
   spin  2
    eigenvalues: 
  0.863  0.919  0.919
    eigenvectors:
  0.334  0.311  0.356
  0.514  0.000  0.486
  0.153  0.689  0.158
    occupations:
  0.900 -0.023  0.013
 -0.023  0.890  0.016
  0.013  0.016  0.911
atomic mag. moment =     0.039620
atom    6   Tr[ns(na)] (up, down, total) =   2.74231  2.70321  5.44552
   spin  1
    eigenvalues: 
  0.844  0.947  0.951
    eigenvectors:
  0.337  0.000  0.663
  0.487  0.257  0.256
  0.176  0.743  0.081
    occupations:
  0.915  0.044  0.026
  0.044  0.898 -0.030
  0.026 -0.030  0.929
   spin  2
    eigenvalues: 
  0.864  0.920  0.920
    eigenvectors:
  0.334  0.040  0.627
  0.486  0.391  0.123
  0.181  0.569  0.250
    occupations:
  0.901  0.022  0.014
  0.022  0.893 -0.016
  0.014 -0.016  0.910
atomic mag. moment =     0.039095
atom    7   Tr[ns(na)] (up, down, total) =   2.74231  2.70321  5.44552
   spin  1
    eigenvalues: 
  0.844  0.947  0.951
    eigenvectors:
  0.337  0.000  0.663
  0.000  1.000  0.000
  0.663  0.000  0.337
    occupations:
  0.915  0.001 -0.051
  0.001  0.947  0.001
 -0.051  0.001  0.880
   spin  2
    eigenvalues: 
  0.864  0.920  0.920
    eigenvectors:
  0.334  0.031  0.635
  0.000  0.947  0.053
  0.666  0.022  0.312
    occupations:
  0.901  0.001 -0.026
  0.001  0.920  0.001
 -0.026  0.001  0.883
atomic mag. moment =     0.039096
atom    8   Tr[ns(na)] (up, down, total) =   2.74236  2.70307  5.44543
   spin  1
    eigenvalues: 
  0.844  0.947  0.951
    eigenvectors:
  0.337  0.000  0.663
  0.508  0.244  0.248
  0.156  0.756  0.089
    occupations:
  0.915 -0.044  0.025
 -0.044  0.896  0.029
  0.025  0.029  0.932
   spin  2
    eigenvalues: 
  0.864  0.920  0.920
    eigenvectors:
  0.333  0.054  0.613
  0.514  0.100  0.387
  0.153  0.847  0.000
    occupations:
  0.901 -0.023  0.013
 -0.023  0.891  0.016
  0.013  0.016  0.911
atomic mag. moment =     0.039285
atom    9   Tr[ns(na)] (up, down, total) =   2.74233  2.70321  5.44554
   spin  1
    eigenvalues: 
  0.844  0.947  0.951
    eigenvectors:
  0.337  0.000  0.663
  0.487  0.257  0.256
  0.176  0.743  0.081
    occupations:
  0.915  0.044  0.026
  0.044  0.898 -0.030
  0.026 -0.030  0.929
   spin  2
    eigenvalues: 
  0.864  0.920  0.920
    eigenvectors:
  0.333  0.034  0.633
  0.486  0.382  0.132
  0.181  0.585  0.235
    occupations:
  0.901  0.022  0.014
  0.022  0.893 -0.016
  0.014 -0.016  0.910
atomic mag. moment =     0.039113
atom   10   Tr[ns(na)] (up, down, total) =   2.74233  2.70321  5.44554
   spin  1
    eigenvalues: 
  0.844  0.947  0.951
    eigenvectors:
  0.337  0.000  0.663
  0.000  1.000  0.000
  0.663  0.000  0.337
    occupations:
  0.915  0.001 -0.051
  0.001  0.947  0.001
 -0.051  0.001  0.880
   spin  2
    eigenvalues: 
  0.864  0.920  0.920
    eigenvectors:
  0.333  0.031  0.636
  0.000  0.947  0.052
  0.666  0.022  0.312
    occupations:
  0.901  0.001 -0.026
  0.001  0.920  0.001
 -0.026  0.001  0.883
atomic mag. moment =     0.039112
N of occupied +U levels =  56.1395330
 --- exit write_ns ---
 --- in v_hubbard ---
Hubbard energy    0.0200
 -------

     total cpu time spent up to now is      388.6 secs

     total energy              =    -538.33542580 Ry
     Harris-Foulkes estimate   =    -538.33542581 Ry
     estimated scf accuracy    <       0.00000014 Ry

     total magnetization       =     3.54 Bohr mag/cell
     absolute magnetization    =     3.69 Bohr mag/cell

     iteration #  6     ecut=    30.00 Ry     beta=0.20
     Davidson diagonalization with overlap
     ethr =  1.80E-10,  avg # of iterations =  1.1
 --- enter write_ns ---
 LDA+U parameters:
U( 1)     =  0.00000000
alpha( 1) =  0.00000000
U( 2)     =  0.00000000
alpha( 2) =  0.00000000
U( 3)     =  0.00000000
alpha( 3) =  0.05000000
U( 4)     =  0.00000000
alpha( 4) =  0.00000000
atom    1   Tr[ns(na)] (up, down, total) =   4.56602  3.37435  7.94038
   spin  1
    eigenvalues: 
  0.785  0.785  0.999  0.999  0.999
    eigenvectors:
  0.000  0.000  0.000  0.000  1.000
  0.056  0.590  0.013  0.341  0.000
  0.590  0.056  0.341  0.013  0.000
  0.075  0.278  0.197  0.449  0.000
  0.278  0.075  0.449  0.197  0.000
    occupations:
  0.999  0.000  0.000  0.000  0.000
  0.000  0.861  0.000 -0.073  0.072
  0.000  0.000  0.861  0.072  0.073
  0.000 -0.073  0.072  0.923  0.000
  0.000  0.072  0.073  0.000  0.923
   spin  2
    eigenvalues: 
  0.474  0.475  0.773  0.826  0.826
    eigenvectors:
  0.000  0.000  1.000  0.000  0.000
  0.123  0.516  0.000  0.157  0.204
  0.516  0.123  0.000  0.204  0.157
  0.221  0.140  0.000  0.223  0.416
  0.140  0.221  0.000  0.416  0.223
    occupations:
  0.773  0.000  0.000  0.000  0.000
  0.000  0.601  0.000 -0.037  0.165
  0.000  0.000  0.601  0.165  0.037
  0.000 -0.037  0.165  0.699  0.000
  0.000  0.165  0.037  0.000  0.699
atomic mag. moment =     1.191671
atom    2   Tr[ns(na)] (up, down, total) =   4.67276  3.22556  7.89832
   spin  1
    eigenvalues: 
  0.838  0.838  0.999  0.999  0.999
    eigenvectors:
  0.000  0.000  0.000  0.001  0.999
  0.313  0.333  0.188  0.166  0.000
  0.333  0.313  0.165  0.188  0.000
  0.000  0.354  0.645  0.001  0.000
  0.354  0.000  0.001  0.645  0.000
    occupations:
  0.999  0.000  0.000  0.000  0.000
  0.000  0.895  0.000  0.054  0.054
  0.000  0.000  0.895  0.054 -0.055
  0.000  0.054  0.054  0.942  0.000
  0.000  0.054 -0.055  0.000  0.942
   spin  2
    eigenvalues: 
  0.459  0.460  0.730  0.788  0.788
    eigenvectors:
  0.000  0.000  1.000  0.000  0.000
  0.201  0.434  0.000  0.025  0.340
  0.434  0.201  0.000  0.340  0.025
  0.317  0.047  0.000  0.635  0.001
  0.047  0.317  0.000  0.001  0.635
    occupations:
  0.730  0.000  0.000  0.000  0.000
  0.000  0.579  0.000  0.036  0.154
  0.000  0.000  0.579  0.154 -0.036
  0.000  0.036  0.154  0.668  0.000
  0.000  0.154 -0.036  0.000  0.668
atomic mag. moment =     1.447205
atom    3   Tr[ns(na)] (up, down, total) =   1.91487  1.90051  3.81539
   spin  1
    eigenvalues: 
  0.357  0.357  0.387  0.407  0.407
    eigenvectors:
  0.000  0.000  1.000  0.000  0.000
  0.694  0.230  0.000  0.015  0.060
  0.230  0.694  0.000  0.060  0.015
  0.020  0.056  0.000  0.729  0.195
  0.056  0.020  0.000  0.195  0.729
    occupations:
  0.387  0.000  0.000  0.000  0.000
  0.000  0.361  0.000  0.000  0.013
  0.000  0.000  0.361  0.013  0.000
  0.000  0.000  0.013  0.403  0.000
  0.000  0.013  0.000  0.000  0.403
   spin  2
    eigenvalues: 
  0.353  0.353  0.387  0.404  0.404
    eigenvectors:
  0.000  0.000  1.000  0.000  0.000
  0.683  0.227  0.000  0.065  0.025
  0.227  0.683  0.000  0.025  0.065
  0.024  0.066  0.000  0.266  0.644
  0.066  0.024  0.000  0.644  0.266
    occupations:
  0.387  0.000  0.000  0.000  0.000
  0.000  0.358  0.000  0.000  0.015
  0.000  0.000  0.358  0.015  0.000
  0.000  0.000  0.015  0.399  0.000
  0.000  0.015  0.000  0.000  0.399
atomic mag. moment =     0.014360
atom    4   Tr[ns(na)] (up, down, total) =   1.91486  1.90052  3.81538
   spin  1
    eigenvalues: 
  0.357  0.357  0.387  0.407  0.407
    eigenvectors:
  0.000  0.000  1.000  0.000  0.000
  0.708  0.216  0.000  0.018  0.058
  0.216  0.708  0.000  0.057  0.018
  0.019  0.057  0.000  0.691  0.233
  0.058  0.018  0.000  0.233  0.691
    occupations:
  0.387  0.000  0.000  0.000  0.000
  0.000  0.361  0.000  0.000  0.013
  0.000  0.000  0.361  0.013  0.000
  0.000  0.000  0.013  0.403  0.000
  0.000  0.013  0.000  0.000  0.403
   spin  2
    eigenvalues: 
  0.353  0.353  0.387  0.404  0.404
    eigenvectors:
  0.000  0.000  1.000  0.000  0.000
  0.696  0.214  0.000  0.023  0.067
  0.214  0.697  0.000  0.067  0.023
  0.022  0.067  0.000  0.668  0.242
  0.068  0.022  0.000  0.242  0.668
    occupations:
  0.387  0.000  0.000  0.000  0.000
  0.000  0.358  0.000  0.000  0.015
  0.000  0.000  0.358  0.015  0.000
  0.000  0.000  0.015  0.399  0.000
  0.000  0.015  0.000  0.000  0.399
atomic mag. moment =     0.014332
atom    5   Tr[ns(na)] (up, down, total) =   2.74102  2.70139  5.44242
   spin  1
    eigenvalues: 
  0.843  0.947  0.951
    eigenvectors:
  0.337  0.000  0.663
  0.508  0.244  0.249
  0.156  0.756  0.089
    occupations:
  0.915 -0.045  0.025
 -0.045  0.895  0.029
  0.025  0.029  0.931
   spin  2
    eigenvalues: 
  0.863  0.919  0.919
    eigenvectors:
  0.334  0.320  0.346
  0.514  0.000  0.486
  0.153  0.680  0.167
    occupations:
  0.900 -0.023  0.013
 -0.023  0.890  0.016
  0.013  0.016  0.910
atomic mag. moment =     0.039631
atom    6   Tr[ns(na)] (up, down, total) =   2.74231  2.70322  5.44554
   spin  1
    eigenvalues: 
  0.844  0.947  0.951
    eigenvectors:
  0.337  0.000  0.663
  0.487  0.257  0.256
  0.176  0.743  0.081
    occupations:
  0.915  0.044  0.026
  0.044  0.898 -0.030
  0.026 -0.030  0.929
   spin  2
    eigenvalues: 
  0.864  0.920  0.920
    eigenvectors:
  0.334  0.043  0.624
  0.486  0.395  0.119
  0.181  0.562  0.257
    occupations:
  0.901  0.022  0.014
  0.022  0.893 -0.016
  0.014 -0.016  0.910
atomic mag. moment =     0.039089
atom    7   Tr[ns(na)] (up, down, total) =   2.74231  2.70322  5.44554
   spin  1
    eigenvalues: 
  0.844  0.947  0.951
    eigenvectors:
  0.337  0.000  0.663
  0.000  1.000  0.000
  0.663  0.000  0.337
    occupations:
  0.915  0.001 -0.051
  0.001  0.947  0.001
 -0.051  0.001  0.880
   spin  2
    eigenvalues: 
  0.864  0.920  0.920
    eigenvectors:
  0.334  0.025  0.642
  0.000  0.957  0.043
  0.666  0.018  0.316
    occupations:
  0.901  0.001 -0.026
  0.001  0.920  0.001
 -0.026  0.001  0.883
atomic mag. moment =     0.039090
atom    8   Tr[ns(na)] (up, down, total) =   2.74237  2.70307  5.44544
   spin  1
    eigenvalues: 
  0.844  0.947  0.951
    eigenvectors:
  0.337  0.000  0.663
  0.508  0.244  0.248
  0.156  0.756  0.089
    occupations:
  0.915 -0.044  0.025
 -0.044  0.896  0.029
  0.025  0.029  0.932
   spin  2
    eigenvalues: 
  0.864  0.920  0.920
    eigenvectors:
  0.333  0.053  0.613
  0.514  0.100  0.386
  0.153  0.847  0.000
    occupations:
  0.901 -0.023  0.013
 -0.023  0.891  0.016
  0.013  0.016  0.911
atomic mag. moment =     0.039296
atom    9   Tr[ns(na)] (up, down, total) =   2.74233  2.70323  5.44556
   spin  1
    eigenvalues: 
  0.844  0.947  0.951
    eigenvectors:
  0.337  0.000  0.663
  0.487  0.257  0.256
  0.176  0.743  0.081
    occupations:
  0.915  0.044  0.026
  0.044  0.898 -0.030
  0.026 -0.030  0.929
   spin  2
    eigenvalues: 
  0.864  0.920  0.920
    eigenvectors:
  0.333  0.036  0.631
  0.486  0.385  0.129
  0.181  0.579  0.241
    occupations:
  0.901  0.022  0.014
  0.022  0.893 -0.016
  0.014 -0.016  0.910
atomic mag. moment =     0.039108
atom   10   Tr[ns(na)] (up, down, total) =   2.74233  2.70323  5.44556
   spin  1
    eigenvalues: 
  0.844  0.947  0.951
    eigenvectors:
  0.337  0.000  0.663
  0.000  1.000  0.000
  0.663  0.000  0.337
    occupations:
  0.915  0.001 -0.051
  0.001  0.947  0.001
 -0.051  0.001  0.880
   spin  2
    eigenvalues: 
  0.864  0.920  0.920
    eigenvectors:
  0.333  0.025  0.642
  0.000  0.957  0.043
  0.666  0.018  0.315
    occupations:
  0.901  0.001 -0.026
  0.001  0.920  0.001
 -0.026  0.001  0.883
atomic mag. moment =     0.039107
N of occupied +U levels =  56.1395082
 --- exit write_ns ---
 --- in v_hubbard ---
Hubbard energy    0.0200
 -------

     total cpu time spent up to now is      447.5 secs

     total energy              =    -538.33542582 Ry
     Harris-Foulkes estimate   =    -538.33542581 Ry
     estimated scf accuracy    <       0.00000003 Ry

     total magnetization       =     3.54 Bohr mag/cell
     absolute magnetization    =     3.69 Bohr mag/cell

     iteration #  7     ecut=    30.00 Ry     beta=0.20
     Davidson diagonalization with overlap
     ethr =  4.05E-11,  avg # of iterations =  1.6
 --- enter write_ns ---
 LDA+U parameters:
U( 1)     =  0.00000000
alpha( 1) =  0.00000000
U( 2)     =  0.00000000
alpha( 2) =  0.00000000
U( 3)     =  0.00000000
alpha( 3) =  0.05000000
U( 4)     =  0.00000000
alpha( 4) =  0.00000000
atom    1   Tr[ns(na)] (up, down, total) =   4.56600  3.37431  7.94031
   spin  1
    eigenvalues: 
  0.785  0.785  0.999  0.999  0.999
    eigenvectors:
  0.000  0.000  0.000  0.000  1.000
  0.065  0.581  0.014  0.340  0.000
[...]
     0.0313   0.0313   0.0313   0.0312   0.0312   0.0312   0.0312   0.0312
     0.0312   0.0293   0.0274   0.0258   0.0118   0.0072   0.0004   0.0000
     0.0000   0.0000   0.0000   0.0000   0.0000   0.0000

          k = 0.4942-0.5706 0.1027 (  2198 PWs)   bands (ev):

   -19.6855 -19.6452  -6.8600  -6.5477  -6.0313  -5.7802  -5.3831  -5.2460
    -3.2559  -3.2055  -2.8145  -2.6416  -2.4601  -2.3175   6.0291   6.4127
     7.0461   7.3168   7.4202   7.4648   7.7259   8.0071   8.1083   8.3015
     8.5427   9.0922   9.3350   9.5186   9.8596   9.9790  10.1370  10.5269
    11.6059  12.0223  12.0746  12.1894  12.3261  12.3368  13.1419  13.5025
    14.1223  14.9911  16.9604  17.1786  17.3692  18.0704

     occupation numbers 
     0.0313   0.0313   0.0313   0.0313   0.0313   0.0313   0.0313   0.0313
     0.0313   0.0313   0.0313   0.0313   0.0313   0.0313   0.0313   0.0313
     0.0313   0.0313   0.0313   0.0313   0.0313   0.0313   0.0313   0.0313
     0.0313   0.0313   0.0313   0.0313   0.0313   0.0312   0.0312   0.0312
     0.0310   0.0259   0.0244   0.0202   0.0144   0.0139   0.0001   0.0000
     0.0000   0.0000   0.0000   0.0000   0.0000   0.0000

          k =-0.7412 0.1427-0.1027 (  2198 PWs)   bands (ev):

   -19.6855 -19.6452  -6.8595  -6.5485  -6.0303  -5.7813  -5.3821  -5.2465
    -3.2551  -3.2056  -2.8143  -2.6426  -2.4594  -2.3179   6.0316   6.4092
     7.0501   7.3106   7.4006   7.4793   7.7369   8.0065   8.1337   8.2708
     8.5462   9.0850   9.3396   9.5214   9.8629   9.9758  10.1369  10.5261
    11.6085  11.9942  12.1000  12.1885  12.3226  12.3402  13.1447  13.5028
    14.1224  14.9898  16.9581  17.1811  17.3687  18.0704

     occupation numbers 
     0.0313   0.0313   0.0313   0.0313   0.0313   0.0313   0.0313   0.0313
     0.0313   0.0313   0.0313   0.0313   0.0313   0.0313   0.0313   0.0313
     0.0313   0.0313   0.0313   0.0313   0.0313   0.0313   0.0313   0.0313
     0.0313   0.0313   0.0313   0.0313   0.0313   0.0312   0.0312   0.0312
     0.0310   0.0267   0.0235   0.0202   0.0145   0.0138   0.0001   0.0000
     0.0000   0.0000   0.0000   0.0000   0.0000   0.0000

          k = 0.2471-0.7133-0.1027 (  2198 PWs)   bands (ev):

   -19.6855 -19.6452  -6.8596  -6.5483  -6.0308  -5.7810  -5.3817  -5.2471
    -3.2551  -3.2056  -2.8145  -2.6422  -2.4594  -2.3181   6.0313   6.4090
     7.0494   7.3108   7.4028   7.4778   7.7368   8.0046   8.1352   8.2723
     8.5456   9.0845   9.3401   9.5227   9.8610   9.9765  10.1364  10.5263
    11.6085  11.9944  12.0999  12.1876  12.3232  12.3405  13.1446  13.5028
    14.1224  14.9898  16.9588  17.1801  17.3687  18.0703

     occupation numbers 
     0.0313   0.0313   0.0313   0.0313   0.0313   0.0313   0.0313   0.0313
     0.0313   0.0313   0.0313   0.0313   0.0313   0.0313   0.0313   0.0313
     0.0313   0.0313   0.0313   0.0313   0.0313   0.0313   0.0313   0.0313
     0.0313   0.0313   0.0313   0.0313   0.0313   0.0312   0.0312   0.0312
     0.0310   0.0267   0.0235   0.0203   0.0145   0.0138   0.0001   0.0000
     0.0000   0.0000   0.0000   0.0000   0.0000   0.0000

          k =-0.7412-0.1427 0.1027 (  2198 PWs)   bands (ev):

   -19.6855 -19.6452  -6.8601  -6.5475  -6.0317  -5.7798  -5.3828  -5.2466
    -3.2558  -3.2055  -2.8147  -2.6411  -2.4601  -2.3177   6.0288   6.4126
     7.0454   7.3172   7.4221   7.4632   7.7257   8.0053   8.1097   8.3030
     8.5422   9.0917   9.3355   9.5199   9.8578   9.9796  10.1366  10.5271
    11.6059  12.0225  12.0747  12.1886  12.3265  12.3372  13.1418  13.5025
    14.1223  14.9911  16.9610  17.1777  17.3692  18.0702

     occupation numbers 
     0.0313   0.0313   0.0313   0.0313   0.0313   0.0313   0.0313   0.0313
     0.0313   0.0313   0.0313   0.0313   0.0313   0.0313   0.0313   0.0313
     0.0313   0.0313   0.0313   0.0313   0.0313   0.0313   0.0313   0.0313
     0.0313   0.0313   0.0313   0.0313   0.0313   0.0312   0.0312   0.0312
     0.0310   0.0259   0.0244   0.0202   0.0144   0.0139   0.0001   0.0000
     0.0000   0.0000   0.0000   0.0000   0.0000   0.0000

          k = 0.2471 0.7133 0.1027 (  2198 PWs)   bands (ev):

   -19.6859 -19.6454  -6.8551  -6.5488  -6.0269  -5.7893  -5.3872  -5.2409
    -3.2554  -3.2053  -2.8153  -2.6402  -2.4597  -2.3162   6.0230   6.4184
     7.0389   7.3140   7.4185   7.4584   7.7309   8.0087   8.1091   8.3002
     8.5467   9.0899   9.3414   9.5223   9.8572   9.9812  10.1379  10.5236
    11.6054  12.0232  12.0747  12.1887  12.3259  12.3384  13.1422  13.5014
    14.1233  14.9911  16.9603  17.1777  17.3689  18.0701

     occupation numbers 
     0.0313   0.0313   0.0313   0.0313   0.0313   0.0313   0.0313   0.0313
     0.0313   0.0313   0.0313   0.0313   0.0313   0.0313   0.0313   0.0313
     0.0313   0.0313   0.0313   0.0313   0.0313   0.0313   0.0313   0.0313
     0.0313   0.0313   0.0313   0.0313   0.0313   0.0312   0.0312   0.0312
     0.0310   0.0259   0.0244   0.0202   0.0144   0.0139   0.0001   0.0000
     0.0000   0.0000   0.0000   0.0000   0.0000   0.0000

          k = 0.2471-0.4280 0.0000 (  2203 PWs)   bands (ev):

   -19.6954 -19.6377  -6.7487  -6.5405  -5.9455  -5.8718  -5.3103  -5.2310
    -3.4608  -3.2494  -2.7376  -2.6439  -2.5027  -2.4872   5.9841   6.4324
     7.2634   7.3996   7.4498   7.5231   7.5754   7.9168   8.0252   8.3893
     8.6445   9.1098   9.5672   9.6830   9.9487   9.9548  10.2184  10.5383
    11.8704  11.8848  11.9523  12.1440  12.1647  12.4383  13.1118  13.9777
    14.0971  14.7965  16.5003  17.0501  17.4673  17.9717

     occupation numbers 
     0.0313   0.0313   0.0313   0.0313   0.0313   0.0313   0.0313   0.0313
     0.0313   0.0313   0.0313   0.0313   0.0313   0.0313   0.0313   0.0313
     0.0313   0.0313   0.0313   0.0313   0.0313   0.0313   0.0313   0.0313
     0.0313   0.0313   0.0313   0.0313   0.0312   0.0312   0.0312   0.0312
     0.0291   0.0289   0.0276   0.0220   0.0212   0.0098   0.0001   0.0000
     0.0000   0.0000   0.0000   0.0000   0.0000   0.0000

          k =-0.4942 0.0000 0.0000 (  2203 PWs)   bands (ev):

   -19.6954 -19.6377  -6.7487  -6.5406  -5.9455  -5.8718  -5.3103  -5.2310
    -3.4608  -3.2494  -2.7376  -2.6439  -2.5027  -2.4873   5.9841   6.4324
     7.2633   7.4010   7.4472   7.5241   7.5758   7.9168   8.0251   8.3891
     8.6445   9.1098   9.5672   9.6830   9.9474   9.9561  10.2184  10.5383
    11.8708  11.8844  11.9524  12.1440  12.1646  12.4384  13.1118  13.9777
    14.0970  14.7965  16.5003  17.0501  17.4673  17.9717

     occupation numbers 
     0.0313   0.0313   0.0313   0.0313   0.0313   0.0313   0.0313   0.0313
     0.0313   0.0313   0.0313   0.0313   0.0313   0.0313   0.0313   0.0313
     0.0313   0.0313   0.0313   0.0313   0.0313   0.0313   0.0313   0.0313
     0.0313   0.0313   0.0313   0.0313   0.0312   0.0312   0.0312   0.0312
     0.0291   0.0289   0.0276   0.0220   0.0212   0.0098   0.0001   0.0000
     0.0000   0.0000   0.0000   0.0000   0.0000   0.0000

          k = 0.4942 0.2853 0.4107 (  2202 PWs)   bands (ev):

   -19.6922 -19.6356  -7.0710  -6.3636  -6.1480  -5.8375  -5.4125  -5.1465
    -3.1466  -3.0851  -2.9847  -2.5856  -2.4091  -2.1554   5.9523   6.5178
     6.6231   7.2285   7.2540   7.3342   8.0897   8.1606   8.2639   8.3715
     8.7246   8.8471   8.8668   9.5474   9.7843  10.1617  10.1874  10.6070
    11.2107  11.8894  12.0140  12.2376  12.3786  12.4493  12.8707  13.2629
    14.0485  15.4185  17.0884  17.3392  17.5680  17.6349

     occupation numbers 
     0.0156   0.0156   0.0156   0.0156   0.0156   0.0156   0.0156   0.0156
     0.0156   0.0156   0.0156   0.0156   0.0156   0.0156   0.0156   0.0156
     0.0156   0.0156   0.0156   0.0156   0.0156   0.0156   0.0156   0.0156
     0.0156   0.0156   0.0156   0.0156   0.0156   0.0156   0.0156   0.0156
     0.0156   0.0144   0.0131   0.0091   0.0061   0.0047   0.0004   0.0000
     0.0000   0.0000   0.0000   0.0000   0.0000   0.0000

          k = 0.0000 0.5706-0.4107 (  2202 PWs)   bands (ev):

   -19.6922 -19.6356  -7.0710  -6.3637  -6.1479  -5.8375  -5.4126  -5.1465
    -3.1466  -3.0851  -2.9847  -2.5856  -2.4091  -2.1554   5.9523   6.5178
     6.6231   7.2285   7.2540   7.3342   8.0894   8.1609   8.2639   8.3715
     8.7246   8.8470   8.8668   9.5474   9.7843  10.1617  10.1873  10.6069
    11.2107  11.8894  12.0138  12.2379  12.3783  12.4493  12.8708  13.2629
    14.0485  15.4185  17.0884  17.3392  17.5680  17.6349

     occupation numbers 
     0.0156   0.0156   0.0156   0.0156   0.0156   0.0156   0.0156   0.0156
     0.0156   0.0156   0.0156   0.0156   0.0156   0.0156   0.0156   0.0156
     0.0156   0.0156   0.0156   0.0156   0.0156   0.0156   0.0156   0.0156
     0.0156   0.0156   0.0156   0.0156   0.0156   0.0156   0.0156   0.0156
     0.0156   0.0144   0.0131   0.0091   0.0061   0.0047   0.0004   0.0000
     0.0000   0.0000   0.0000   0.0000   0.0000   0.0000

          k = 0.7412-0.4280 0.0000 (  2204 PWs)   bands (ev):

   -19.6951 -19.6376  -6.6349  -6.4994  -6.0451  -5.7210  -5.5567  -5.4181
    -3.1086  -3.0309  -2.9926  -2.6108  -2.5952  -2.5101   6.0354   6.6148
     7.2761   7.4342   7.4415   7.5453   7.5769   7.8655   8.2111   8.3616
     8.6830   8.9922   9.6466   9.6704   9.7684   9.8375  10.0400  10.3822
    11.8637  11.8889  12.0144  12.1582  12.2074  12.4036  13.1039  13.9033
    14.0209  14.8233  16.7626  16.7708  17.6374  17.8547

     occupation numbers 
     0.0313   0.0313   0.0313   0.0313   0.0313   0.0313   0.0313   0.0313
     0.0313   0.0313   0.0313   0.0313   0.0313   0.0313   0.0313   0.0313
     0.0313   0.0313   0.0313   0.0313   0.0313   0.0313   0.0313   0.0313
     0.0313   0.0313   0.0313   0.0313   0.0313   0.0313   0.0312   0.0312
     0.0292   0.0288   0.0261   0.0214   0.0194   0.0111   0.0001   0.0000
     0.0000   0.0000   0.0000   0.0000   0.0000   0.0000

          k = 0.0000-0.8559 0.0000 (  2204 PWs)   bands (ev):

   -19.6952 -19.6375  -6.6327  -6.5037  -6.0423  -5.7191  -5.5545  -5.4230
    -3.1093  -3.0308  -2.9926  -2.6094  -2.5942  -2.5114   6.0300   6.6192
     7.2730   7.4348   7.4453   7.5410   7.5780   7.8690   8.2112   8.3670
     8.6881   8.9848   9.6402   9.6694   9.7688   9.8372  10.0395  10.3842
    11.8641  11.8900  12.0150  12.1584  12.2083  12.4025  13.1046  13.9033
    14.0207  14.8227  16.7619  16.7714  17.6381  17.8549

     occupation numbers 
     0.0313   0.0313   0.0313   0.0313   0.0313   0.0313   0.0313   0.0313
     0.0313   0.0313   0.0313   0.0313   0.0313   0.0313   0.0313   0.0313
     0.0313   0.0313   0.0313   0.0313   0.0313   0.0313   0.0313   0.0313
     0.0313   0.0313   0.0313   0.0313   0.0313   0.0313   0.0312   0.0312
     0.0292   0.0288   0.0261   0.0214   0.0194   0.0112   0.0001   0.0000
     0.0000   0.0000   0.0000   0.0000   0.0000   0.0000

          k = 0.4942-0.2853-0.1027 (  2211 PWs)   bands (ev):

   -19.6859 -19.6454  -6.8712  -6.4456  -6.2238  -5.5801  -5.5112  -5.2147
    -3.2686  -3.1178  -2.9669  -2.5394  -2.4922  -2.3080   6.0515   6.3884
     7.0095   7.3121   7.3412   7.4563   7.7367   8.0494   8.2093   8.2315
     8.5959   9.2080   9.3488   9.5763   9.7318   9.8398  10.1943  10.5374
    11.6060  12.0440  12.1412  12.2090  12.2683  12.2830  13.1086  13.5111
    14.1675  14.9745  16.9468  16.9839  17.6492  17.9859

     occupation numbers 
     0.0313   0.0313   0.0313   0.0313   0.0313   0.0313   0.0313   0.0313
     0.0313   0.0313   0.0313   0.0313   0.0313   0.0313   0.0313   0.0313
     0.0313   0.0313   0.0313   0.0313   0.0313   0.0313   0.0313   0.0313
     0.0313   0.0313   0.0313   0.0313   0.0313   0.0313   0.0312   0.0312
     0.0310   0.0253   0.0221   0.0194   0.0169   0.0162   0.0001   0.0000
     0.0000   0.0000   0.0000   0.0000   0.0000   0.0000

          k = 0.0000-0.5706 0.1027 (  2211 PWs)   bands (ev):

   -19.6855 -19.6451  -6.8759  -6.4446  -6.2246  -5.5758  -5.5067  -5.2193
    -3.2686  -3.1179  -2.9671  -2.5403  -2.4922  -2.3095   6.0572   6.3822
     7.0162   7.3144   7.3454   7.4592   7.7343   8.0470   8.2080   8.2332
     8.5921   9.2118   9.3434   9.5776   9.7326   9.8319  10.1933  10.5414
    11.6065  12.0433  12.1411  12.2083  12.2681  12.2834  13.1082  13.5121
    14.1666  14.9746  16.9470  16.9837  17.6491  17.9860

     occupation numbers 
     0.0313   0.0313   0.0313   0.0313   0.0313   0.0313   0.0313   0.0313
     0.0313   0.0313   0.0313   0.0313   0.0313   0.0313   0.0313   0.0313
     0.0313   0.0313   0.0313   0.0313   0.0313   0.0313   0.0313   0.0313
     0.0313   0.0313   0.0313   0.0313   0.0313   0.0313   0.0312   0.0312
     0.0310   0.0253   0.0221   0.0194   0.0169   0.0162   0.0001   0.0000
     0.0000   0.0000   0.0000   0.0000   0.0000   0.0000

          k = 0.7412 0.4280 0.3080 (  2210 PWs)   bands (ev):

   -19.6853 -19.6449  -6.8116  -6.3507  -6.2022  -5.6850  -5.6387  -5.3524
    -3.0157  -2.9894  -2.9142  -2.6672  -2.5480  -2.3613   6.1206   6.5387
     7.0999   7.2983   7.3956   7.4133   7.7516   8.0915   8.2295   8.2740
     8.5889   9.1775   9.1916   9.6779   9.7138   9.7745   9.8385  10.3808
    11.6567  12.0477  12.1269  12.1946  12.3030  12.3563  13.0702  13.4715
    14.1187  14.9409  17.1201  17.1313  17.6162  17.9557

     occupation numbers 
     0.0313   0.0313   0.0313   0.0313   0.0313   0.0313   0.0313   0.0313
     0.0313   0.0313   0.0313   0.0313   0.0313   0.0313   0.0313   0.0313
     0.0313   0.0313   0.0313   0.0313   0.0313   0.0313   0.0313   0.0313
     0.0313   0.0313   0.0313   0.0313   0.0313   0.0313   0.0313   0.0312
     0.0308   0.0252   0.0226   0.0200   0.0154   0.0131   0.0001   0.0000
     0.0000   0.0000   0.0000   0.0000   0.0000   0.0000

          k = 0.0000 0.8559-0.3080 (  2210 PWs)   bands (ev):

   -19.6853 -19.6449  -6.8116  -6.3506  -6.2022  -5.6850  -5.6387  -5.3524
    -3.0157  -2.9894  -2.9142  -2.6671  -2.5480  -2.3613   6.1206   6.5387
     7.1000   7.2980   7.3961   7.4131   7.7516   8.0916   8.2312   8.2716
     8.5894   9.1779   9.1913   9.6779   9.7138   9.7746   9.8383  10.3807
    11.6568  12.0476  12.1271  12.1946  12.3031  12.3562  13.0703  13.4714
    14.1187  14.9410  17.1201  17.1312  17.6162  17.9558

     occupation numbers 
     0.0313   0.0313   0.0313   0.0313   0.0313   0.0313   0.0313   0.0313
     0.0313   0.0313   0.0313   0.0313   0.0313   0.0313   0.0313   0.0313
     0.0313   0.0313   0.0313   0.0313   0.0313   0.0313   0.0313   0.0313
     0.0313   0.0313   0.0313   0.0313   0.0313   0.0313   0.0313   0.0312
     0.0308   0.0252   0.0226   0.0200   0.0154   0.0131   0.0001   0.0000
     0.0000   0.0000   0.0000   0.0000   0.0000   0.0000

          k = 0.2471 0.7133-0.2053 (  2206 PWs)   bands (ev):

   -19.6645 -19.6643  -6.7887  -6.7773  -5.9410  -5.9306  -5.2944  -5.2877
    -3.1081  -3.1077  -2.7497  -2.7477  -2.3152  -2.3124   6.2299   6.2591
     7.1763   7.1840   7.3476   7.3580   7.5804   7.5952   8.4293   8.4735
     8.9347   8.9420   9.2367   9.2410   9.7124   9.7196  10.2751  10.2800
    11.8617  11.8711  12.0341  12.0757  12.3498  12.3737  13.1311  13.1501
    14.6540  14.6693  17.4989  17.5004  17.9140  17.9153

     occupation numbers 
     0.0313   0.0313   0.0313   0.0313   0.0313   0.0313   0.0313   0.0313
     0.0313   0.0313   0.0313   0.0313   0.0313   0.0313   0.0313   0.0313
     0.0313   0.0313   0.0313   0.0313   0.0313   0.0313   0.0313   0.0313
     0.0313   0.0313   0.0313   0.0313   0.0313   0.0313   0.0312   0.0312
     0.0292   0.0291   0.0256   0.0243   0.0134   0.0124   0.0001   0.0000
     0.0000   0.0000   0.0000   0.0000   0.0000   0.0000

          k =-0.7412-0.1427-0.2053 (  2206 PWs)   bands (ev):

   -19.6641 -19.6641  -6.7938  -6.7787  -5.9320  -5.9305  -5.2980  -5.2872
    -3.1087  -3.1078  -2.7485  -2.7476  -2.3182  -2.3127   6.2295   6.2586
     7.1814   7.1868   7.3488   7.3662   7.5834   7.5979   8.4254   8.4681
     8.9318   8.9343   9.2400   9.2409   9.7075   9.7148  10.2786  10.2822
    11.8629  11.8724  12.0340  12.0758  12.3490  12.3730  13.1314  13.1507
    14.6536  14.6686  17.4990  17.4998  17.9141  17.9163

     occupation numbers 
     0.0313   0.0313   0.0313   0.0313   0.0313   0.0313   0.0313   0.0313
     0.0313   0.0313   0.0313   0.0313   0.0313   0.0313   0.0313   0.0313
     0.0313   0.0313   0.0313   0.0313   0.0313   0.0313   0.0313   0.0313
     0.0313   0.0313   0.0313   0.0313   0.0313   0.0313   0.0312   0.0312
     0.0292   0.0290   0.0256   0.0243   0.0134   0.0124   0.0001   0.0000
     0.0000   0.0000   0.0000   0.0000   0.0000   0.0000

     the Fermi energy is    12.2974 ev

!    total energy              =    -538.33542584 Ry
     Harris-Foulkes estimate   =    -538.33542583 Ry
     estimated scf accuracy    <          4.3E-09 Ry

     The total energy is the sum of the following terms:

     one-electron contribution =     -32.74370811 Ry
     hartree contribution      =      83.52391175 Ry
     xc contribution           =    -199.65256359 Ry
     ewald contribution        =    -389.44315552 Ry
     Hubbard energy            =       0.02000063 Ry
     smearing contrib. (-TS)   =      -0.03991100 Ry

     total magnetization       =     3.54 Bohr mag/cell
     absolute magnetization    =     3.69 Bohr mag/cell

     convergence has been achieved in   8 iterations

     init_run     :      8.05s CPU      8.24s WALL (       1 calls)
     electrons    :    549.11s CPU    551.88s WALL (       1 calls)

     Called by init_run:
     wfcinit      :      0.00s CPU      0.00s WALL (       1 calls)
     potinit      :      0.84s CPU      0.89s WALL (       1 calls)

     Called by electrons:
     c_bands      :    421.51s CPU    422.96s WALL (       8 calls)
     sum_band     :    100.93s CPU    101.80s WALL (       8 calls)
     v_of_rho     :      6.66s CPU      6.72s WALL (       9 calls)
     v_h          :      0.17s CPU      0.18s WALL (       9 calls)
     v_xc         :      6.49s CPU      6.54s WALL (       9 calls)
     newd         :     21.66s CPU     21.69s WALL (       9 calls)
     mix_rho      :      0.54s CPU      0.54s WALL (       8 calls)

     Called by c_bands:
     init_us_2    :      4.75s CPU      4.76s WALL (    1152 calls)
     cegterg      :    408.55s CPU    409.18s WALL (     576 calls)

     Called by sum_band:
     sum_band:bec :      0.44s CPU      0.44s WALL (     576 calls)
     addusdens    :     19.29s CPU     19.34s WALL (       8 calls)

     Called by *egterg:
     h_psi        :    303.61s CPU    304.13s WALL (    2555 calls)
     s_psi        :     17.83s CPU     17.83s WALL (    2555 calls)
     g_psi        :      1.35s CPU      1.34s WALL (    1979 calls)
     cdiaghg      :     31.70s CPU     31.70s WALL (    2483 calls)
     cegterg:over :     19.41s CPU     19.45s WALL (    1979 calls)
     cegterg:upda :     13.14s CPU     13.16s WALL (    1979 calls)
     cegterg:last :      9.54s CPU      9.53s WALL (     648 calls)

     Called by h_psi:
     h_psi:vloc   :    245.36s CPU    245.84s WALL (    2555 calls)
     h_psi:vnl    :     37.12s CPU     37.14s WALL (    2555 calls)
     add_vuspsi   :     18.33s CPU     18.32s WALL (    2555 calls)
     vhpsi        :     20.33s CPU     20.32s WALL (    2555 calls)

     General routines
     calbec       :     39.43s CPU     39.44s WALL (    6262 calls)
     fft          :      3.06s CPU      3.09s WALL (     267 calls)
     ffts         :      0.10s CPU      0.10s WALL (      34 calls)
     fftw         :    232.16s CPU    232.32s WALL (  158098 calls)
     interpolate  :      0.62s CPU      0.62s WALL (      34 calls)
     davcio       :      0.02s CPU      1.59s WALL (    1224 calls)

     Parallel routines
     fft_scatter  :     57.12s CPU     57.18s WALL (  158399 calls)
     Hubbard U routines
     new_ns       :      4.10s CPU      4.79s WALL (       8 calls)
     vhpsi        :     20.33s CPU     20.32s WALL (    2555 calls)

     PWSCF        :  9m17.58s CPU     9m20.58s WALL


   This run was terminated on:  13:11: 7  13Nov2012            

=------------------------------------------------------------------------------=
