   JOB DONE.
=------------------------------------------------------------------------------=

     Program PWSCF v.5.0.1 starts on 13Nov2012 at 12:38:26 

     This program is part of the open-source Quantum ESPRESSO suite
     for quantum simulation of materials; please cite
         "P. Giannozzi et al., J. Phys.:Condens. Matter 21 395502 (2009);
          URL http://www.quantum-espresso.org", 
     in publications or presentations arising from this work. More details at
     http://www.quantum-espresso.org/quote.php

     Parallel version (MPI), running on     2 processors
     R & G space division:  proc/pool =    2

     Current dimensions of program PWSCF are:
     Max number of different atomic species (ntypx) = 10
     Max number of k-points (npk) =  40000
     Max angular momentum in pseudopotentials (lmaxx) =  3
     Reading input from CoLaO_U0_a-10.in
               file Co.pbe-nd-rrkjus.UPF: wavefunction(s)  4S 3D renormalized
               file O.pbe-rrkjus.UPF: wavefunction(s)  2S renormalized
               file O.pbe-rrkjus.UPF: wavefunction(s)  2S renormalized

     Subspace diagonalization in iterative solution of the eigenvalue problem:
     a serial algorithm will be used


     Parallelization info
     --------------------
     sticks:   dense  smooth     PW     G-vecs:    dense   smooth      PW
     Min        1112     444    131                34808     8786    1448
     Max        1113     445    132                34809     8787    1449
     Sum        2225     889    263                69617    17573    2897


     Title: 
     GGA + U, U = 1D-40, alpha = -0.100                                         


     bravais-lattice index     =            5
     lattice parameter (alat)  =      10.3292  a.u.
     unit-cell volume          =     793.0599 (a.u.)^3
     number of atoms/cell      =           10
     number of atomic types    =            4
     number of electrons       =        76.00
     number of Kohn-Sham states=           46
     kinetic-energy cutoff     =      30.0000  Ry
     charge density cutoff     =     300.0000  Ry
     convergence threshold     =      1.0E-08
     mixing beta               =       0.2000
     number of iterations used =            8  plain     mixing
     Exchange-correlation      =  SLA  PW   PBE  PBE ( 1 4 3 4 0)
     EXX-fraction              =        0.00

     celldm(1)=  10.329242  celldm(2)=   0.000000  celldm(3)=   0.000000
     celldm(4)=   0.488100  celldm(5)=   0.000000  celldm(6)=   0.000000

     crystal axes: (cart. coord. in units of alat)
               a(1) = (   0.505915  -0.292090   0.811624 )  
               a(2) = (   0.000000   0.584180   0.811624 )  
               a(3) = (  -0.505915  -0.292090   0.811624 )  

     reciprocal axes: (cart. coord. in units 2 pi/alat)
               b(1) = (  0.988308 -0.570600  0.410699 )  
               b(2) = (  0.000000  1.141200  0.410699 )  
               b(3) = ( -0.988308 -0.570600  0.410699 )  


     PseudoPot. # 1 for Co read from file:
     /home/mcurnan/dft-course/Project1/example_LaCoO3/Co.pbe-nd-rrkjus.UPF
     MD5 check sum: 3e47a84addf5e975e0edeaeee2a73f59
     Pseudo is Ultrasoft + core correction, Zval =  9.0
     Generated by new atomic code, or converted to UPF format
     Using radial grid of  961 points,  6 beta functions with: 
                l(1) =   0
                l(2) =   0
                l(3) =   1
                l(4) =   1
                l(5) =   2
                l(6) =   2
     Q(r) pseudized with 0 coefficients 


     PseudoPot. # 2 for La read from file:
     /home/mcurnan/dft-course/Project1/example_LaCoO3/La.pbe-nsp-van.UPF
     MD5 check sum: b2f11743f52dde65f77d1302becd7929
     Pseudo is Ultrasoft + core correction, Zval = 11.0
     Generated by new atomic code, or converted to UPF format
     Using radial grid of  907 points,  6 beta functions with: 
                l(1) =   0
                l(2) =   0
                l(3) =   1
                l(4) =   1
                l(5) =   2
                l(6) =   2
     Q(r) pseudized with  6 coefficients,  rinner =    1.200   1.200   1.200
                                                       1.200   1.200

     PseudoPot. # 3 for O  read from file:
     /home/mcurnan/dft-course/Project1/example_LaCoO3/O.pbe-rrkjus.UPF
     MD5 check sum: 390ba29e75625707450f3bd3f0eb6be9
     Pseudo is Ultrasoft, Zval =  6.0
     Generated by new atomic code, or converted to UPF format
     Using radial grid of 1269 points,  4 beta functions with: 
                l(1) =   0
                l(2) =   0
                l(3) =   1
                l(4) =   1
     Q(r) pseudized with 0 coefficients 


     PseudoPot. # 4 for O  read from file:
     /home/mcurnan/dft-course/Project1/example_LaCoO3/O.pbe-rrkjus.UPF
     MD5 check sum: 390ba29e75625707450f3bd3f0eb6be9
     Pseudo is Ultrasoft, Zval =  6.0
     Generated by new atomic code, or converted to UPF format
     Using radial grid of 1269 points,  4 beta functions with: 
                l(1) =   0
                l(2) =   0
                l(3) =   1
                l(4) =   1
     Q(r) pseudized with 0 coefficients 


     atomic species   valence    mass     pseudopotential
        Co1            9.00     1.00000     Co( 1.00)
        La1           11.00     1.00000     La( 1.00)
        O1             6.00     1.00000     O ( 1.00)
        O2             6.00     1.00000     O ( 1.00)

     Starting magnetic structure 
     atomic species   magnetization
        Co1          1.000
        La1          0.000
        O1           0.000
        O2           0.000
 -----
     simplified LDA+U calculation, Hubbard_lmax = 2
     atomic species  L   Hubbard U  Hubbard alpha
        Co1          2    0.000000    0.000000
        La1          2    0.000000    0.000000
        O1           1    0.000000   -0.100000
        O2           1    0.000000    0.000000
 -----

     No symmetry found


                                    s                        frac. trans.

      isym =  1     identity                                     

 cryst.   s( 1) = (     1          0          0      )
                  (     0          1          0      )
                  (     0          0          1      )

 cart.    s( 1) = (  1.0000000  0.0000000  0.0000000 )
                  (  0.0000000  1.0000000  0.0000000 )
                  (  0.0000000  0.0000000  1.0000000 )


     point group C_1 (1)    
     there are  1 classes
     the character table:

       E    
A      1.00

     the symmetry operations in each class:
     E        1

   Cartesian axes

     site n.     atom                  positions (alat units)
         1           Co1 tau(   1) = (   0.2228050  -0.1992639   1.0141240  )
         2           Co1 tau(   2) = (  -0.2831100   0.0928263   1.4199360  )
         3           La1 tau(   3) = (  -0.2831100   0.0928263   0.8112181  )
         4           La1 tau(   4) = (   0.2228050   0.3849164   1.2170300  )
         5           O1  tau(   5) = (   0.0000000   0.0000000   0.0000000  )
         6           O2  tau(   6) = (   0.0008601   0.1861491   1.6232478  )
         7           O2  tau(   7) = (   0.1616398   0.0923297   0.8116239  )
         8           O2  tau(   8) = (  -0.0603051  -0.1064377   1.2166242  )
         9           O2  tau(   9) = (   0.4447499  -0.0004966   1.2166242  )
        10           O2  tau(  10) = (  -0.2219449   0.3854130   1.2166242  )

   Crystallographic axes

     site n.     atom                  positions (cryst. coord.)
         1           Co1 tau(   1) = (  0.7504000  0.1891000  0.3100000  )
         2           Co1 tau(   2) = (  0.2504000  0.6891000  0.8100000  )
         3           La1 tau(   3) = (  0.0004000  0.4391000  0.5600000  )
         4           La1 tau(   4) = (  0.5004000  0.9391000  0.0600000  )
         5           O1  tau(   5) = (  0.0000000  0.0000000  0.0000000  )
         6           O2  tau(   6) = (  0.5613000  0.8791000  0.5596000  )
         7           O2  tau(   7) = (  0.4404000  0.4387000  0.1209000  )
         8           O2  tau(   8) = (  0.5008000  0.3782000  0.6200000  )
         9           O2  tau(   9) = (  0.9395000  0.4991000  0.0604000  )
        10           O2  tau(  10) = (  0.0604000  0.9395000  0.4991000  )

     number of k points=    72  gaussian smearing, width (Ry)=  0.0300
                       cart. coord. in units 2pi/alat
        k(    1) = (   0.0000000   0.0000000   0.0000000), wk =   0.0156250
        k(    2) = (  -0.2470771  -0.1426500   0.1026748), wk =   0.0312500
        k(    3) = (   0.4941541   0.2853000  -0.2053496), wk =   0.0156250
        k(    4) = (  -0.2470771   0.1426500   0.2053496), wk =   0.0312500
        k(    5) = (   0.4941541   0.5706001  -0.1026748), wk =   0.0312500
        k(    6) = (   0.2470771   0.4279500   0.0000000), wk =   0.0312500
        k(    7) = (   0.4941541  -0.2853000  -0.4106993), wk =   0.0156250
        k(    8) = (   0.0000000   0.0000000   0.3080244), wk =   0.0312500
        k(    9) = (   0.7412312   0.4279500   0.0000000), wk =   0.0312500
        k(   10) = (   0.4941541   0.2853000   0.1026748), wk =   0.0312500
        k(   11) = (   0.7412312  -0.4279500  -0.3080244), wk =   0.0312500
        k(   12) = (   0.4941541  -0.5706001  -0.2053496), wk =   0.0312500
        k(   13) = (   0.0000000   0.0000000  -0.6160489), wk =   0.0156250
        k(   14) = (  -0.2470771   0.1426500  -0.1026748), wk =   0.0312500
        k(   15) = (   0.0000000   0.2853000   0.1026748), wk =   0.0312500
        k(   16) = (   0.4941541  -0.2853000   0.2053496), wk =   0.0156250
        k(   17) = (   0.0000000  -0.5706001  -0.2053496), wk =   0.0156250
        k(   18) = (  -0.2470771  -0.1426500  -0.2053496), wk =   0.0312500
        k(   19) = (   0.0000000  -0.2853000   0.2053496), wk =   0.0312500
        k(   20) = (   0.4941541  -0.5706001   0.1026748), wk =   0.0312500
        k(   21) = (  -0.7412312   0.1426500  -0.1026748), wk =   0.0312500
        k(   22) = (   0.2470771  -0.7132501  -0.1026748), wk =   0.0312500
        k(   23) = (  -0.7412312  -0.1426500   0.1026748), wk =   0.0312500
        k(   24) = (   0.2470771   0.7132501   0.1026748), wk =   0.0312500
        k(   25) = (   0.2470771  -0.4279500   0.0000000), wk =   0.0312500
        k(   26) = (  -0.4941541   0.0000000   0.0000000), wk =   0.0312500
        k(   27) = (   0.4941541   0.2853000   0.4106993), wk =   0.0156250
        k(   28) = (   0.0000000   0.5706001  -0.4106993), wk =   0.0156250
        k(   29) = (   0.7412312  -0.4279500   0.0000000), wk =   0.0312500
        k(   30) = (   0.0000000  -0.8559001   0.0000000), wk =   0.0312500
        k(   31) = (   0.4941541  -0.2853000  -0.1026748), wk =   0.0312500
        k(   32) = (   0.0000000  -0.5706001   0.1026748), wk =   0.0312500
        k(   33) = (   0.7412312   0.4279500   0.3080244), wk =   0.0312500
        k(   34) = (   0.0000000   0.8559001  -0.3080244), wk =   0.0312500
        k(   35) = (   0.2470771   0.7132501  -0.2053496), wk =   0.0312500
        k(   36) = (  -0.7412312  -0.1426500  -0.2053496), wk =   0.0312500
        k(   37) = (   0.0000000   0.0000000   0.0000000), wk =   0.0156250
        k(   38) = (  -0.2470771  -0.1426500   0.1026748), wk =   0.0312500
        k(   39) = (   0.4941541   0.2853000  -0.2053496), wk =   0.0156250
        k(   40) = (  -0.2470771   0.1426500   0.2053496), wk =   0.0312500
        k(   41) = (   0.4941541   0.5706001  -0.1026748), wk =   0.0312500
        k(   42) = (   0.2470771   0.4279500   0.0000000), wk =   0.0312500
        k(   43) = (   0.4941541  -0.2853000  -0.4106993), wk =   0.0156250
        k(   44) = (   0.0000000   0.0000000   0.3080244), wk =   0.0312500
        k(   45) = (   0.7412312   0.4279500   0.0000000), wk =   0.0312500
        k(   46) = (   0.4941541   0.2853000   0.1026748), wk =   0.0312500
        k(   47) = (   0.7412312  -0.4279500  -0.3080244), wk =   0.0312500
        k(   48) = (   0.4941541  -0.5706001  -0.2053496), wk =   0.0312500
        k(   49) = (   0.0000000   0.0000000  -0.6160489), wk =   0.0156250
        k(   50) = (  -0.2470771   0.1426500  -0.1026748), wk =   0.0312500
        k(   51) = (   0.0000000   0.2853000   0.1026748), wk =   0.0312500
        k(   52) = (   0.4941541  -0.2853000   0.2053496), wk =   0.0156250
        k(   53) = (   0.0000000  -0.5706001  -0.2053496), wk =   0.0156250
        k(   54) = (  -0.2470771  -0.1426500  -0.2053496), wk =   0.0312500
        k(   55) = (   0.0000000  -0.2853000   0.2053496), wk =   0.0312500
        k(   56) = (   0.4941541  -0.5706001   0.1026748), wk =   0.0312500
        k(   57) = (  -0.7412312   0.1426500  -0.1026748), wk =   0.0312500
        k(   58) = (   0.2470771  -0.7132501  -0.1026748), wk =   0.0312500
        k(   59) = (  -0.7412312  -0.1426500   0.1026748), wk =   0.0312500
        k(   60) = (   0.2470771   0.7132501   0.1026748), wk =   0.0312500
        k(   61) = (   0.2470771  -0.4279500   0.0000000), wk =   0.0312500
        k(   62) = (  -0.4941541   0.0000000   0.0000000), wk =   0.0312500
        k(   63) = (   0.4941541   0.2853000   0.4106993), wk =   0.0156250
        k(   64) = (   0.0000000   0.5706001  -0.4106993), wk =   0.0156250
        k(   65) = (   0.7412312  -0.4279500   0.0000000), wk =   0.0312500
        k(   66) = (   0.0000000  -0.8559001   0.0000000), wk =   0.0312500
        k(   67) = (   0.4941541  -0.2853000  -0.1026748), wk =   0.0312500
        k(   68) = (   0.0000000  -0.5706001   0.1026748), wk =   0.0312500
        k(   69) = (   0.7412312   0.4279500   0.3080244), wk =   0.0312500
        k(   70) = (   0.0000000   0.8559001  -0.3080244), wk =   0.0312500
        k(   71) = (   0.2470771   0.7132501  -0.2053496), wk =   0.0312500
        k(   72) = (  -0.7412312  -0.1426500  -0.2053496), wk =   0.0312500

                       cryst. coord.
        k(    1) = (   0.0000000   0.0000000   0.0000000), wk =   0.0156250
        k(    2) = (   0.0000000   0.0000000   0.2500000), wk =   0.0312500
        k(    3) = (   0.0000000   0.0000000  -0.5000000), wk =   0.0156250
        k(    4) = (   0.0000000   0.2500000   0.2500000), wk =   0.0312500
        k(    5) = (   0.0000000   0.2500000  -0.5000000), wk =   0.0312500
        k(    6) = (   0.0000000   0.2500000  -0.2500000), wk =   0.0312500
        k(    7) = (   0.0000000  -0.5000000  -0.5000000), wk =   0.0156250
        k(    8) = (   0.2500000   0.2500000   0.2500000), wk =   0.0312500
        k(    9) = (   0.2500000   0.2500000  -0.5000000), wk =   0.0312500
        k(   10) = (   0.2500000   0.2500000  -0.2500000), wk =   0.0312500
        k(   11) = (   0.2500000  -0.5000000  -0.5000000), wk =   0.0312500
        k(   12) = (   0.2500000  -0.5000000  -0.2500000), wk =   0.0312500
        k(   13) = (  -0.5000000  -0.5000000  -0.5000000), wk =   0.0156250
        k(   14) = (  -0.2500000   0.0000000   0.0000000), wk =   0.0312500
        k(   15) = (   0.0000000   0.2500000   0.0000000), wk =   0.0312500
        k(   16) = (   0.5000000   0.0000000   0.0000000), wk =   0.0156250
        k(   17) = (   0.0000000  -0.5000000   0.0000000), wk =   0.0156250
        k(   18) = (  -0.2500000  -0.2500000   0.0000000), wk =   0.0312500
        k(   19) = (   0.2500000   0.0000000   0.2500000), wk =   0.0312500
        k(   20) = (   0.5000000  -0.2500000   0.0000000), wk =   0.0312500
        k(   21) = (  -0.5000000   0.0000000   0.2500000), wk =   0.0312500
        k(   22) = (   0.2500000  -0.5000000   0.0000000), wk =   0.0312500
        k(   23) = (  -0.2500000   0.0000000   0.5000000), wk =   0.0312500
        k(   24) = (   0.0000000   0.5000000  -0.2500000), wk =   0.0312500
        k(   25) = (   0.2500000  -0.2500000   0.0000000), wk =   0.0312500
        k(   26) = (  -0.2500000   0.0000000   0.2500000), wk =   0.0312500
        k(   27) = (   0.5000000   0.5000000   0.0000000), wk =   0.0156250
        k(   28) = (  -0.5000000   0.0000000  -0.5000000), wk =   0.0156250
        k(   29) = (   0.5000000  -0.2500000  -0.2500000), wk =   0.0312500
        k(   30) = (   0.2500000  -0.5000000   0.2500000), wk =   0.0312500
        k(   31) = (   0.2500000  -0.2500000  -0.2500000), wk =   0.0312500
        k(   32) = (   0.2500000  -0.2500000   0.2500000), wk =   0.0312500
        k(   33) = (   0.5000000   0.5000000  -0.2500000), wk =   0.0312500
        k(   34) = (  -0.5000000   0.2500000  -0.5000000), wk =   0.0312500
        k(   35) = (  -0.2500000   0.2500000  -0.5000000), wk =   0.0312500
        k(   36) = (  -0.5000000  -0.2500000   0.2500000), wk =   0.0312500
        k(   37) = (   0.0000000   0.0000000   0.0000000), wk =   0.0156250
        k(   38) = (   0.0000000   0.0000000   0.2500000), wk =   0.0312500
        k(   39) = (   0.0000000   0.0000000  -0.5000000), wk =   0.0156250
        k(   40) = (   0.0000000   0.2500000   0.2500000), wk =   0.0312500
        k(   41) = (   0.0000000   0.2500000  -0.5000000), wk =   0.0312500
        k(   42) = (   0.0000000   0.2500000  -0.2500000), wk =   0.0312500
        k(   43) = (   0.0000000  -0.5000000  -0.5000000), wk =   0.0156250
        k(   44) = (   0.2500000   0.2500000   0.2500000), wk =   0.0312500
        k(   45) = (   0.2500000   0.2500000  -0.5000000), wk =   0.0312500
        k(   46) = (   0.2500000   0.2500000  -0.2500000), wk =   0.0312500
        k(   47) = (   0.2500000  -0.5000000  -0.5000000), wk =   0.0312500
        k(   48) = (   0.2500000  -0.5000000  -0.2500000), wk =   0.0312500
        k(   49) = (  -0.5000000  -0.5000000  -0.5000000), wk =   0.0156250
        k(   50) = (  -0.2500000   0.0000000   0.0000000), wk =   0.0312500
        k(   51) = (   0.0000000   0.2500000   0.0000000), wk =   0.0312500
        k(   52) = (   0.5000000   0.0000000   0.0000000), wk =   0.0156250
        k(   53) = (   0.0000000  -0.5000000   0.0000000), wk =   0.0156250
        k(   54) = (  -0.2500000  -0.2500000   0.0000000), wk =   0.0312500
        k(   55) = (   0.2500000   0.0000000   0.2500000), wk =   0.0312500
        k(   56) = (   0.5000000  -0.2500000   0.0000000), wk =   0.0312500
        k(   57) = (  -0.5000000   0.0000000   0.2500000), wk =   0.0312500
        k(   58) = (   0.2500000  -0.5000000   0.0000000), wk =   0.0312500
        k(   59) = (  -0.2500000   0.0000000   0.5000000), wk =   0.0312500
        k(   60) = (   0.0000000   0.5000000  -0.2500000), wk =   0.0312500
        k(   61) = (   0.2500000  -0.2500000   0.0000000), wk =   0.0312500
        k(   62) = (  -0.2500000   0.0000000   0.2500000), wk =   0.0312500
        k(   63) = (   0.5000000   0.5000000   0.0000000), wk =   0.0156250
        k(   64) = (  -0.5000000   0.0000000  -0.5000000), wk =   0.0156250
        k(   65) = (   0.5000000  -0.2500000  -0.2500000), wk =   0.0312500
        k(   66) = (   0.2500000  -0.5000000   0.2500000), wk =   0.0312500
        k(   67) = (   0.2500000  -0.2500000  -0.2500000), wk =   0.0312500
        k(   68) = (   0.2500000  -0.2500000   0.2500000), wk =   0.0312500
        k(   69) = (   0.5000000   0.5000000  -0.2500000), wk =   0.0312500
        k(   70) = (  -0.5000000   0.2500000  -0.5000000), wk =   0.0312500
        k(   71) = (  -0.2500000   0.2500000  -0.5000000), wk =   0.0312500
        k(   72) = (  -0.5000000  -0.2500000   0.2500000), wk =   0.0312500

     Dense  grid:    69617 G-vectors     FFT dimensions: (  60,  60,  60)

     Smooth grid:    17573 G-vectors     FFT dimensions: (  40,  40,  40)

     Largest allocated arrays     est. size (Mb)     dimensions
        Kohn-Sham Wavefunctions         0.79 Mb     (   1119,   46)
        Atomic wavefunctions            1.06 Mb     (   1119,   62)
        NL pseudopotentials             2.05 Mb     (   1119,  120)
        Each V/rho on FFT grid          3.30 Mb     ( 108000,   2)
        Each G-vector array             0.27 Mb     (  34808)
        G-vector shells                 0.04 Mb     (   4682)
     Largest temporary arrays     est. size (Mb)     dimensions
        Auxiliary wavefunctions         3.14 Mb     (   1119,  184)
        Each subspace H/S matrix        0.52 Mb     ( 184, 184)
        Each <psi_i|beta_j> matrix      0.08 Mb     (    120,   46)
        Arrays for rho mixing          13.18 Mb     ( 108000,   8)

     Check: negative/imaginary core charge=   -0.000028    0.000000

     The initial density is read from file :
     /home/mcurnan/dft-course/Project1/example_LaCoO3/0/O/alpha/CoLaO_U0.save/charge-density.dat

 --- in v_hubbard ---
Hubbard energy   -0.0400
 -------
     Number of +U iterations with fixed ns =  0
     Starting occupations:
 --- enter write_ns ---
 LDA+U parameters:
U( 1)     =  0.00000000
alpha( 1) =  0.00000000
U( 2)     =  0.00000000
alpha( 2) =  0.00000000
U( 3)     =  0.00000000
alpha( 3) = -0.10000000
U( 4)     =  0.00000000
alpha( 4) =  0.00000000
atom    1   Tr[ns(na)] (up, down, total) =   4.56592  3.37374  7.93966
   spin  1
    eigenvalues: 
  0.785  0.785  0.999  0.999  0.999
    eigenvectors:
  0.000  0.000  0.000  0.000  1.000
  0.130  0.516  0.189  0.165  0.000
  0.516  0.130  0.165  0.189  0.000
  0.034  0.320  0.646  0.000  0.000
  0.320  0.034  0.000  0.646  0.000
    occupations:
  0.999  0.000  0.000  0.000  0.000
  0.000  0.861  0.000 -0.073  0.072
  0.000  0.000  0.861  0.072  0.073
  0.000 -0.073  0.072  0.923  0.000
  0.000  0.072  0.073  0.000  0.923
   spin  2
    eigenvalues: 
  0.474  0.474  0.773  0.826  0.826
    eigenvectors:
  0.000  0.000  1.000  0.000  0.000
  0.000  0.639  0.000  0.203  0.158
  0.639  0.000  0.000  0.158  0.203
  0.344  0.017  0.000  0.149  0.490
  0.017  0.344  0.000  0.490  0.149
    occupations:
  0.773  0.000  0.000  0.000  0.000
  0.000  0.601  0.000 -0.037  0.165
  0.000  0.000  0.601  0.165  0.037
  0.000 -0.037  0.165  0.699  0.000
  0.000  0.165  0.037  0.000  0.699
atomic mag. moment =     1.192178
atom    2   Tr[ns(na)] (up, down, total) =   4.67288  3.22474  7.89762
   spin  1
    eigenvalues: 
  0.838  0.838  0.999  0.999  0.999
    eigenvectors:
  0.000  0.000  0.000  0.000  1.000
  0.018  0.628  0.244  0.110  0.000
  0.628  0.018  0.110  0.244  0.000
  0.235  0.119  0.025  0.622  0.000
  0.119  0.235  0.622  0.025  0.000
    occupations:
  0.999  0.000  0.000  0.000  0.000
  0.000  0.895  0.000  0.054  0.054
  0.000  0.000  0.895  0.054 -0.054
  0.000  0.054  0.054  0.942  0.000
  0.000  0.054 -0.054  0.000  0.942
   spin  2
    eigenvalues: 
  0.459  0.459  0.730  0.788  0.788
    eigenvectors:
  0.000  0.000  1.000  0.000  0.000
  0.517  0.119  0.000  0.010  0.355
  0.119  0.517  0.000  0.355  0.010
  0.143  0.222  0.000  0.633  0.003
  0.222  0.143  0.000  0.003  0.633
    occupations:
  0.730  0.000  0.000  0.000  0.000
  0.000  0.579  0.000  0.036  0.154
  0.000  0.000  0.579  0.154 -0.036
  0.000  0.036  0.154  0.668  0.000
  0.000  0.154 -0.036  0.000  0.668
atomic mag. moment =     1.448145
atom    3   Tr[ns(na)] (up, down, total) =   1.91460  1.90025  3.81485
   spin  1
    eigenvalues: 
  0.357  0.357  0.387  0.407  0.407
    eigenvectors:
  0.000  0.000  1.000  0.000  0.000
  0.130  0.794  0.000  0.024  0.052
  0.794  0.130  0.000  0.052  0.024
  0.065  0.011  0.000  0.640  0.284
  0.011  0.065  0.000  0.284  0.640
    occupations:
  0.387  0.000  0.000  0.000  0.000
  0.000  0.361  0.000  0.000  0.013
  0.000  0.000  0.361  0.013  0.000
  0.000  0.000  0.013  0.403  0.000
  0.000  0.013  0.000  0.000  0.403
   spin  2
    eigenvalues: 
  0.353  0.353  0.387  0.404  0.404
    eigenvectors:
  0.000  0.000  1.000  0.000  0.000
  0.322  0.588  0.000  0.074  0.016
  0.588  0.322  0.000  0.016  0.074
  0.060  0.030  0.000  0.174  0.736
  0.030  0.060  0.000  0.736  0.174
    occupations:
  0.387  0.000  0.000  0.000  0.000
  0.000  0.358  0.000  0.000  0.015
  0.000  0.000  0.358  0.015  0.000
  0.000  0.000  0.015  0.399  0.000
  0.000  0.015  0.000  0.000  0.399
atomic mag. moment =     0.014344
atom    4   Tr[ns(na)] (up, down, total) =   1.91459  1.90025  3.81485
   spin  1
    eigenvalues: 
  0.357  0.357  0.387  0.407  0.407
    eigenvectors:
  0.000  0.000  1.000  0.000  0.000
  0.720  0.204  0.000  0.032  0.044
  0.204  0.720  0.000  0.044  0.032
  0.017  0.058  0.000  0.521  0.403
  0.058  0.017  0.000  0.403  0.521
    occupations:
  0.387  0.000  0.000  0.000  0.000
  0.000  0.361  0.000  0.000  0.013
  0.000  0.000  0.361  0.013  0.000
  0.000  0.000  0.013  0.403  0.000
  0.000  0.013  0.000  0.000  0.403
   spin  2
    eigenvalues: 
  0.353  0.353  0.387  0.404  0.404
    eigenvectors:
  0.000  0.000  1.000  0.000  0.000
  0.723  0.187  0.000  0.047  0.043
  0.187  0.723  0.000  0.043  0.047
  0.020  0.070  0.000  0.419  0.491
  0.070  0.020  0.000  0.491  0.419
    occupations:
  0.387  0.000  0.000  0.000  0.000
  0.000  0.358  0.000  0.000  0.015
  0.000  0.000  0.358  0.015  0.000
  0.000  0.000  0.015  0.399  0.000
  0.000  0.015  0.000  0.000  0.399
atomic mag. moment =     0.014343
atom    5   Tr[ns(na)] (up, down, total) =   2.74224  2.70308  5.44532
   spin  1
    eigenvalues: 
  0.844  0.947  0.951
    eigenvectors:
  0.337  0.000  0.663
  0.508  0.244  0.248
  0.155  0.756  0.089
    occupations:
  0.915 -0.044  0.025
 -0.044  0.896  0.029
  0.025  0.029  0.932
   spin  2
    eigenvalues: 
  0.864  0.920  0.920
    eigenvectors:
  0.333  0.044  0.622
  0.514  0.111  0.376
  0.153  0.845  0.002
    occupations:
  0.901 -0.023  0.013
 -0.023  0.891  0.016
  0.013  0.016  0.911
atomic mag. moment =     0.039165
atom    6   Tr[ns(na)] (up, down, total) =   2.74225  2.70308  5.44533
   spin  1
    eigenvalues: 
  0.844  0.947  0.951
    eigenvectors:
  0.337  0.000  0.663
  0.487  0.256  0.257
  0.176  0.744  0.080
    occupations:
  0.915  0.044  0.026
  0.044  0.898 -0.030
  0.026 -0.030  0.929
   spin  2
    eigenvalues: 
  0.864  0.920  0.920
    eigenvectors:
  0.333  0.045  0.622
  0.486  0.398  0.116
  0.181  0.558  0.262
    occupations:
  0.901  0.022  0.014
  0.022  0.893 -0.016
  0.014 -0.016  0.910
atomic mag. moment =     0.039166
atom    7   Tr[ns(na)] (up, down, total) =   2.74225  2.70308  5.44533
   spin  1
    eigenvalues: 
  0.844  0.947  0.951
    eigenvectors:
  0.337  0.000  0.663
  0.000  1.000  0.000
  0.663  0.000  0.337
    occupations:
  0.915  0.001 -0.051
  0.001  0.947  0.001
 -0.051  0.001  0.880
   spin  2
    eigenvalues: 
  0.864  0.920  0.920
    eigenvectors:
  0.333  0.051  0.616
  0.000  0.916  0.084
  0.666  0.033  0.301
    occupations:
  0.901  0.001 -0.026
  0.001  0.920  0.001
 -0.026  0.001  0.883
atomic mag. moment =     0.039166
atom    8   Tr[ns(na)] (up, down, total) =   2.74225  2.70308  5.44532
   spin  1
    eigenvalues: 
  0.844  0.947  0.951
    eigenvectors:
  0.337  0.000  0.663
  0.508  0.244  0.248
  0.155  0.756  0.089
    occupations:
  0.915 -0.044  0.025
 -0.044  0.896  0.029
  0.025  0.029  0.932
   spin  2
    eigenvalues: 
  0.864  0.920  0.920
    eigenvectors:
  0.333  0.045  0.622
  0.514  0.109  0.377
  0.153  0.845  0.002
    occupations:
  0.901 -0.023  0.013
 -0.023  0.891  0.016
  0.013  0.016  0.911
atomic mag. moment =     0.039170
atom    9   Tr[ns(na)] (up, down, total) =   2.74225  2.70308  5.44533
   spin  1
    eigenvalues: 
  0.844  0.947  0.951
    eigenvectors:
  0.337  0.000  0.663
  0.487  0.256  0.257
  0.176  0.744  0.080
    occupations:
  0.915  0.044  0.026
  0.044  0.898 -0.030
  0.026 -0.030  0.929
   spin  2
    eigenvalues: 
  0.864  0.920  0.920
    eigenvectors:
  0.333  0.044  0.622
  0.486  0.397  0.117
  0.181  0.559  0.260
    occupations:
  0.901  0.022  0.014
  0.022  0.893 -0.016
  0.014 -0.016  0.910
atomic mag. moment =     0.039164
atom   10   Tr[ns(na)] (up, down, total) =   2.74225  2.70308  5.44533
   spin  1
    eigenvalues: 
  0.844  0.947  0.951
    eigenvectors:
  0.337  0.000  0.663
  0.000  1.000  0.000
  0.663  0.000  0.337
    occupations:
  0.915  0.001 -0.051
  0.001  0.947  0.001
 -0.051  0.001  0.880
   spin  2
    eigenvalues: 
  0.864  0.920  0.920
    eigenvectors:
  0.333  0.045  0.621
  0.000  0.925  0.075
  0.666  0.030  0.304
    occupations:
  0.901  0.001 -0.026
  0.001  0.920  0.001
 -0.026  0.001  0.883
atomic mag. moment =     0.039164
N of occupied +U levels =  56.1389441
 --- exit write_ns ---
 LDA+U Projector read from file 
     Starting wfc from file

     total cpu time spent up to now is        9.2 secs

     per-process dynamical memory:   100.5 Mb

     Self-consistent Calculation

     iteration #  1     ecut=    30.00 Ry     beta=0.20
     Davidson diagonalization with overlap
     c_bands:  1 eigenvalues not converged
     c_bands:  1 eigenvalues not converged
     c_bands:  1 eigenvalues not converged
     c_bands:  1 eigenvalues not converged
     c_bands:  1 eigenvalues not converged
     c_bands:  1 eigenvalues not converged
     c_bands:  1 eigenvalues not converged
     c_bands:  1 eigenvalues not converged
     c_bands:  1 eigenvalues not converged
     c_bands:  1 eigenvalues not converged
     c_bands:  1 eigenvalues not converged
     c_bands:  1 eigenvalues not converged
     c_bands:  1 eigenvalues not converged
     c_bands:  1 eigenvalues not converged
     c_bands:  1 eigenvalues not converged
     c_bands:  1 eigenvalues not converged
     c_bands:  1 eigenvalues not converged
     c_bands:  1 eigenvalues not converged
     c_bands:  1 eigenvalues not converged
     c_bands:  1 eigenvalues not converged
     c_bands:  1 eigenvalues not converged
     c_bands:  1 eigenvalues not converged
     c_bands:  1 eigenvalues not converged
     c_bands:  1 eigenvalues not converged
     c_bands:  1 eigenvalues not converged
     c_bands:  1 eigenvalues not converged
     c_bands:  1 eigenvalues not converged
     c_bands:  1 eigenvalues not converged
     c_bands:  1 eigenvalues not converged
     c_bands:  1 eigenvalues not converged
     c_bands:  1 eigenvalues not converged
     c_bands:  1 eigenvalues not converged
     c_bands:  1 eigenvalues not converged
     c_bands:  1 eigenvalues not converged
     c_bands:  1 eigenvalues not converged
     c_bands:  1 eigenvalues not converged
     c_bands:  1 eigenvalues not converged
     ethr =  1.00E-10,  avg # of iterations = 17.5
 --- enter write_ns ---
 LDA+U parameters:
U( 1)     =  0.00000000
alpha( 1) =  0.00000000
U( 2)     =  0.00000000
alpha( 2) =  0.00000000
U( 3)     =  0.00000000
alpha( 3) = -0.10000000
U( 4)     =  0.00000000
alpha( 4) =  0.00000000
atom    1   Tr[ns(na)] (up, down, total) =   4.56513  3.37077  7.93590
   spin  1
    eigenvalues: 
  0.785  0.785  0.999  0.999  0.999
    eigenvectors:
  0.000  0.000  0.001  0.004  0.994
  0.532  0.114  0.341  0.013  0.000
  0.115  0.531  0.012  0.340  0.002
  0.043  0.311  0.445  0.198  0.003
  0.310  0.043  0.200  0.446  0.001
    occupations:
  0.999  0.000  0.000  0.000  0.000
  0.000  0.860  0.000 -0.073  0.072
  0.000  0.000  0.860  0.072  0.073
  0.000 -0.073  0.072  0.923  0.000
  0.000  0.072  0.073  0.000  0.923
   spin  2
    eigenvalues: 
  0.473  0.474  0.773  0.825  0.826
    eigenvectors:
  0.000  0.000  1.000  0.000  0.000
  0.515  0.124  0.000  0.222  0.139
  0.124  0.515  0.000  0.139  0.222
  0.141  0.220  0.000  0.386  0.253
  0.220  0.141  0.000  0.253  0.386
    occupations:
  0.773  0.000  0.000 -0.001  0.000
  0.000  0.600  0.001 -0.037  0.165
  0.000  0.001  0.601  0.165  0.037
 -0.001 -0.037  0.165  0.699  0.000
  0.000  0.165  0.037  0.000  0.698
atomic mag. moment =     1.194353
atom    2   Tr[ns(na)] (up, down, total) =   4.67236  3.22009  7.89246
   spin  1
    eigenvalues: 
  0.837  0.838  0.999  0.999  0.999
    eigenvectors:
  0.000  0.000  0.001  0.020  0.979
  0.323  0.323  0.152  0.196  0.006
  0.323  0.323  0.201  0.151  0.001
  0.354  0.000  0.003  0.631  0.012
  0.000  0.354  0.642  0.002  0.001
    occupations:
  0.999  0.000  0.000  0.000  0.000
  0.000  0.895  0.000  0.055  0.054
  0.000  0.000  0.895  0.054 -0.054
  0.000  0.055  0.054  0.942  0.000
  0.000  0.054 -0.054  0.000  0.942
   spin  2
    eigenvalues: 
  0.458  0.459  0.729  0.787  0.787
    eigenvectors:
  0.000  0.000  1.000  0.000  0.000
  0.435  0.200  0.000  0.310  0.055
  0.200  0.435  0.000  0.055  0.310
  0.047  0.318  0.000  0.018  0.617
  0.318  0.047  0.000  0.617  0.018
    occupations:
  0.729  0.000  0.000  0.000  0.001
  0.000  0.578  0.001  0.036  0.154
  0.000  0.001  0.579  0.154 -0.036
  0.000  0.036  0.154  0.668  0.000
  0.001  0.154 -0.036  0.000  0.667
atomic mag. moment =     1.452267
atom    3   Tr[ns(na)] (up, down, total) =   1.91328  1.89910  3.81238
   spin  1
    eigenvalues: 
  0.357  0.357  0.386  0.406  0.407
    eigenvectors:
  0.000  0.000  1.000  0.000  0.000
  0.228  0.694  0.000  0.060  0.018
  0.695  0.228  0.000  0.018  0.059
  0.057  0.020  0.000  0.222  0.701
  0.020  0.058  0.000  0.700  0.222
    occupations:
  0.386  0.000  0.000  0.000  0.000
  0.000  0.361  0.000  0.000  0.013
  0.000  0.000  0.361  0.013  0.000
  0.000  0.000  0.013  0.403  0.000
  0.000  0.013  0.000  0.000  0.403
   spin  2
    eigenvalues: 
  0.353  0.353  0.387  0.403  0.404
    eigenvectors:
  0.000  0.000  1.000  0.000  0.000
  0.228  0.680  0.000  0.071  0.021
  0.681  0.228  0.000  0.021  0.070
  0.066  0.024  0.000  0.222  0.688
  0.024  0.068  0.000  0.686  0.222
    occupations:
  0.387  0.000  0.000  0.000  0.000
  0.000  0.357  0.000  0.000  0.015
  0.000  0.000  0.357  0.015  0.000
  0.000  0.000  0.015  0.399  0.000
  0.000  0.015  0.000  0.000  0.399
atomic mag. moment =     0.014175
atom    4   Tr[ns(na)] (up, down, total) =   1.91343  1.89917  3.81260
   spin  1
    eigenvalues: 
  0.357  0.357  0.386  0.407  0.407
    eigenvectors:
  0.000  0.000  1.000  0.000  0.000
  0.691  0.235  0.000  0.055  0.019
  0.236  0.688  0.000  0.018  0.058
  0.019  0.056  0.000  0.237  0.687
  0.054  0.020  0.000  0.689  0.236
    occupations:
  0.386  0.000  0.000  0.000  0.000
  0.000  0.360  0.000  0.000  0.013
  0.000  0.000  0.360  0.013  0.000
  0.000  0.000  0.013  0.403  0.000
  0.000  0.013  0.000  0.000  0.403
   spin  2
    eigenvalues: 
  0.353  0.353  0.387  0.404  0.404
    eigenvectors:
  0.000  0.000  1.000  0.000  0.000
  0.678  0.233  0.000  0.065  0.023
  0.234  0.676  0.000  0.022  0.067
  0.024  0.066  0.000  0.246  0.664
  0.064  0.025  0.000  0.666  0.246
    occupations:
  0.387  0.000  0.000  0.000  0.000
  0.000  0.357  0.000  0.000  0.014
  0.000  0.000  0.357  0.015  0.000
  0.000  0.000  0.015  0.399  0.000
  0.000  0.014  0.000  0.000  0.399
atomic mag. moment =     0.014257
atom    5   Tr[ns(na)] (up, down, total) =   2.74883  2.71115  5.45998
   spin  1
    eigenvalues: 
  0.848  0.948  0.952
    eigenvectors:
  0.336  0.000  0.664
  0.508  0.244  0.248
  0.155  0.756  0.088
    occupations:
  0.917 -0.043  0.024
 -0.043  0.898  0.028
  0.024  0.028  0.933
   spin  2
    eigenvalues: 
  0.867  0.922  0.922
    eigenvectors:
  0.333  0.001  0.666
  0.514  0.210  0.276
  0.153  0.789  0.058
    occupations:
  0.904 -0.023  0.013
 -0.023  0.894  0.015
  0.013  0.015  0.914
atomic mag. moment =     0.037676
atom    6   Tr[ns(na)] (up, down, total) =   2.74207  2.70265  5.44472
   spin  1
    eigenvalues: 
  0.844  0.947  0.951
    eigenvectors:
  0.337  0.000  0.662
  0.486  0.255  0.259
  0.177  0.745  0.079
    occupations:
  0.915  0.044  0.026
  0.044  0.898 -0.030
  0.026 -0.030  0.929
   spin  2
    eigenvalues: 
  0.864  0.919  0.919
    eigenvectors:
  0.333  0.250  0.416
  0.486  0.509  0.005
  0.181  0.241  0.579
    occupations:
  0.901  0.022  0.014
  0.022  0.892 -0.016
  0.014 -0.016  0.909
atomic mag. moment =     0.039419
atom    7   Tr[ns(na)] (up, down, total) =   2.74207  2.70265  5.44472
   spin  1
    eigenvalues: 
  0.844  0.947  0.951
    eigenvectors:
  0.337  0.000  0.662
  0.000  1.000  0.000
  0.662  0.000  0.338
    occupations:
  0.915  0.001 -0.051
  0.001  0.947  0.001
 -0.051  0.001  0.880
   spin  2
    eigenvalues: 
  0.864  0.919  0.919
    eigenvectors:
  0.333  0.363  0.304
  0.000  0.442  0.558
  0.666  0.195  0.138
    occupations:
  0.901  0.001 -0.026
  0.001  0.919  0.001
 -0.026  0.001  0.882
atomic mag. moment =     0.039419
atom    8   Tr[ns(na)] (up, down, total) =   2.74143  2.70272  5.44415
   spin  1
    eigenvalues: 
  0.843  0.947  0.951
    eigenvectors:
  0.337  0.000  0.663
  0.508  0.244  0.248
  0.155  0.756  0.089
    occupations:
  0.915 -0.045  0.025
 -0.045  0.895  0.029
  0.025  0.029  0.931
   spin  2
    eigenvalues: 
  0.864  0.919  0.920
    eigenvectors:
  0.333  0.010  0.656
  0.514  0.169  0.317
  0.153  0.820  0.027
    occupations:
  0.901 -0.023  0.013
 -0.023  0.891  0.016
  0.013  0.016  0.911
atomic mag. moment =     0.038706
atom    9   Tr[ns(na)] (up, down, total) =   2.74203  2.70269  5.44472
   spin  1
    eigenvalues: 
  0.843  0.947  0.951
    eigenvectors:
  0.336  0.000  0.664
  0.488  0.253  0.259
  0.176  0.747  0.077
    occupations:
  0.915  0.044  0.026
  0.044  0.898 -0.030
  0.026 -0.030  0.929
   spin  2
    eigenvalues: 
  0.864  0.919  0.919
    eigenvectors:
  0.334  0.313  0.354
  0.486  0.514  0.000
  0.181  0.173  0.646
    occupations:
  0.901  0.022  0.014
  0.022  0.892 -0.016
  0.014 -0.016  0.909
atomic mag. moment =     0.039346
atom   10   Tr[ns(na)] (up, down, total) =   2.74203  2.70269  5.44472
   spin  1
    eigenvalues: 
  0.843  0.947  0.951
    eigenvectors:
  0.336  0.000  0.664
  0.000  1.000  0.000
  0.664  0.000  0.336
    occupations:
  0.915  0.001 -0.051
  0.001  0.947  0.001
 -0.051  0.001  0.880
   spin  2
    eigenvalues: 
  0.864  0.919  0.919
    eigenvectors:
  0.334  0.275  0.392
  0.000  0.574  0.426
  0.666  0.152  0.182
    occupations:
  0.901  0.001 -0.026
  0.001  0.919  0.001
 -0.026  0.001  0.882
atomic mag. moment =     0.039346
N of occupied +U levels =  56.1363403
 --- exit write_ns ---
 --- in v_hubbard ---
Hubbard energy   -0.0400
 -------

     total cpu time spent up to now is      207.5 secs

     total energy              =    -538.39544814 Ry
     Harris-Foulkes estimate   =    -538.39550844 Ry
     estimated scf accuracy    <       0.00018602 Ry

     total magnetization       =     3.55 Bohr mag/cell
     absolute magnetization    =     3.70 Bohr mag/cell

     iteration #  2     ecut=    30.00 Ry     beta=0.20
     Davidson diagonalization with overlap
     ethr =  2.45E-07,  avg # of iterations =  2.0
 --- enter write_ns ---
 LDA+U parameters:
U( 1)     =  0.00000000
alpha( 1) =  0.00000000
U( 2)     =  0.00000000
alpha( 2) =  0.00000000
U( 3)     =  0.00000000
alpha( 3) = -0.10000000
U( 4)     =  0.00000000
alpha( 4) =  0.00000000
atom    1   Tr[ns(na)] (up, down, total) =   4.56521  3.36987  7.93508
   spin  1
    eigenvalues: 
  0.785  0.785  0.999  0.999  0.999
    eigenvectors:
  0.000  0.000  0.000  0.001  0.999
  0.600  0.046  0.342  0.012  0.000
  0.046  0.600  0.012  0.342  0.000
  0.270  0.084  0.443  0.203  0.000
  0.084  0.270  0.203  0.443  0.000
    occupations:
  0.999  0.000  0.000  0.000  0.000
  0.000  0.860  0.000 -0.073  0.072
  0.000  0.000  0.860  0.072  0.073
  0.000 -0.073  0.072  0.923  0.000
  0.000  0.072  0.073  0.000  0.923
   spin  2
    eigenvalues: 
  0.474  0.475  0.772  0.825  0.825
    eigenvectors:
  0.000  0.000  1.000  0.000  0.000
  0.514  0.125  0.000  0.238  0.123
  0.125  0.514  0.000  0.123  0.238
  0.142  0.220  0.000  0.355  0.284
  0.219  0.141  0.000  0.284  0.355
    occupations:
  0.772  0.000  0.000  0.000  0.000
  0.000  0.600  0.000 -0.037  0.165
  0.000  0.000  0.601  0.164  0.036
  0.000 -0.037  0.164  0.698  0.000
  0.000  0.165  0.036  0.000  0.698
atomic mag. moment =     1.195344
atom    2   Tr[ns(na)] (up, down, total) =   4.67370  3.22790  7.90160
   spin  1
    eigenvalues: 
  0.838  0.838  0.999  0.999  0.999
    eigenvectors:
  0.000  0.000  0.004  0.002  0.995
  0.340  0.306  0.144  0.211  0.000
  0.306  0.341  0.209  0.143  0.002
  0.354  0.000  0.006  0.639  0.001
  0.000  0.354  0.638  0.006  0.002
    occupations:
  0.999  0.000  0.000  0.000  0.000
  0.000  0.895  0.000  0.054  0.054
  0.000  0.000  0.895  0.054 -0.054
  0.000  0.054  0.054  0.942  0.000
  0.000  0.054 -0.054  0.000  0.942
   spin  2
    eigenvalues: 
  0.459  0.460  0.731  0.789  0.789
    eigenvectors:
  0.000  0.000  1.000  0.000  0.000
  0.437  0.199  0.000  0.285  0.080
  0.199  0.437  0.000  0.080  0.284
  0.046  0.318  0.000  0.041  0.594
  0.318  0.046  0.000  0.594  0.041
    occupations:
  0.731  0.000  0.000  0.000  0.000
  0.000  0.580  0.000  0.036  0.154
  0.000  0.000  0.580  0.154 -0.036
  0.000  0.036  0.154  0.669  0.000
  0.000  0.154 -0.036  0.000  0.669
atomic mag. moment =     1.445803
atom    3   Tr[ns(na)] (up, down, total) =   1.91384  1.89955  3.81338
   spin  1
    eigenvalues: 
  0.357  0.357  0.387  0.407  0.407
    eigenvectors:
  0.000  0.000  1.000  0.000  0.000
  0.226  0.698  0.000  0.060  0.016
  0.698  0.226  0.000  0.016  0.060
  0.057  0.019  0.000  0.201  0.723
  0.019  0.057  0.000  0.723  0.201
    occupations:
  0.387  0.000  0.000  0.000  0.000
  0.000  0.361  0.000  0.000  0.013
  0.000  0.000  0.361  0.013  0.000
  0.000  0.000  0.013  0.403  0.000
  0.000  0.013  0.000  0.000  0.403
   spin  2
    eigenvalues: 
  0.353  0.353  0.387  0.404  0.404
    eigenvectors:
  0.000  0.000  1.000  0.000  0.000
  0.224  0.686  0.000  0.078  0.013
  0.686  0.224  0.000  0.013  0.078
  0.067  0.023  0.000  0.137  0.773
  0.023  0.067  0.000  0.773  0.137
    occupations:
  0.387  0.000  0.000  0.000  0.000
  0.000  0.357  0.000  0.000  0.015
  0.000  0.000  0.357  0.015  0.000
  0.000  0.000  0.015  0.399  0.000
  0.000  0.015  0.000  0.000  0.399
atomic mag. moment =     0.014286
atom    4   Tr[ns(na)] (up, down, total) =   1.91388  1.89954  3.81342
   spin  1
    eigenvalues: 
  0.357  0.357  0.387  0.407  0.407
    eigenvectors:
  0.000  0.000  1.000  0.000  0.000
  0.208  0.717  0.000  0.058  0.018
  0.716  0.208  0.000  0.018  0.059
  0.058  0.018  0.000  0.224  0.700
  0.018  0.058  0.000  0.701  0.223
    occupations:
  0.387  0.000  0.000  0.000  0.000
  0.000  0.361  0.000  0.000  0.013
  0.000  0.000  0.361  0.013  0.000
  0.000  0.000  0.013  0.403  0.000
  0.000  0.013  0.000  0.000  0.403
   spin  2
    eigenvalues: 
  0.353  0.353  0.387  0.404  0.404
    eigenvectors:
  0.000  0.000  1.000  0.000  0.000
  0.216  0.695  0.000  0.068  0.022
  0.694  0.216  0.000  0.022  0.068
  0.068  0.022  0.000  0.234  0.676
  0.023  0.067  0.000  0.676  0.234
    occupations:
  0.387  0.000  0.000  0.000  0.000
  0.000  0.357  0.000  0.000  0.015
  0.000  0.000  0.357  0.015  0.000
  0.000  0.000  0.015  0.399  0.000
  0.000  0.015  0.000  0.000  0.399
atomic mag. moment =     0.014337
atom    5   Tr[ns(na)] (up, down, total) =   2.74470  2.70634  5.45104
   spin  1
    eigenvalues: 
  0.846  0.948  0.951
    eigenvectors:
  0.337  0.000  0.663
  0.508  0.244  0.248
  0.155  0.756  0.089
    occupations:
  0.916 -0.044  0.024
 -0.044  0.897  0.028
  0.024  0.028  0.932
   spin  2
    eigenvalues: 
  0.865  0.921  0.921
    eigenvectors:
  0.333  0.004  0.663
  0.513  0.193  0.294
  0.154  0.803  0.043
    occupations:
  0.902 -0.023  0.013
 -0.023  0.892  0.016
  0.013  0.016  0.912
atomic mag. moment =     0.038365
atom    6   Tr[ns(na)] (up, down, total) =   2.74201  2.70261  5.44462
   spin  1
    eigenvalues: 
  0.843  0.947  0.951
    eigenvectors:
  0.337  0.000  0.663
  0.487  0.255  0.259
  0.177  0.745  0.078
    occupations:
  0.915  0.044  0.026
  0.044  0.898 -0.030
  0.026 -0.030  0.929
   spin  2
    eigenvalues: 
  0.864  0.919  0.919
    eigenvectors:
  0.333  0.055  0.611
  0.487  0.409  0.104
  0.180  0.535  0.284
    occupations:
  0.901  0.022  0.014
  0.022  0.892 -0.016
  0.014 -0.016  0.909
atomic mag. moment =     0.039396
atom    7   Tr[ns(na)] (up, down, total) =   2.74201  2.70261  5.44462
   spin  1
    eigenvalues: 
  0.843  0.947  0.951
    eigenvectors:
  0.337  0.000  0.663
  0.000  1.000  0.000
  0.663  0.000  0.337
    occupations:
  0.915  0.001 -0.051
  0.001  0.947  0.001
 -0.051  0.001  0.880
   spin  2
    eigenvalues: 
  0.864  0.919  0.919
    eigenvectors:
  0.333  0.078  0.589
  0.000  0.874  0.126
  0.666  0.048  0.286
    occupations:
  0.901  0.001 -0.026
  0.001  0.919  0.001
 -0.026  0.001  0.882
atomic mag. moment =     0.039395
atom    8   Tr[ns(na)] (up, down, total) =   2.74206  2.70305  5.44511
   spin  1
    eigenvalues: 
  0.843  0.947  0.951
    eigenvectors:
  0.337  0.000  0.663
  0.508  0.244  0.248
  0.155  0.756  0.089
    occupations:
  0.915 -0.045  0.025
 -0.045  0.896  0.029
  0.025  0.029  0.932
   spin  2
    eigenvalues: 
  0.864  0.920  0.920
    eigenvectors:
  0.333  0.019  0.647
  0.513  0.150  0.337
  0.153  0.831  0.015
    occupations:
  0.901 -0.023  0.013
 -0.023  0.891  0.016
  0.013  0.016  0.911
atomic mag. moment =     0.039006
atom    9   Tr[ns(na)] (up, down, total) =   2.74192  2.70256  5.44448
   spin  1
    eigenvalues: 
  0.843  0.947  0.951
    eigenvectors:
  0.337  0.000  0.663
  0.487  0.254  0.259
  0.177  0.745  0.078
    occupations:
  0.915  0.044  0.026
  0.044  0.898 -0.030
  0.026 -0.030  0.929
   spin  2
    eigenvalues: 
  0.864  0.919  0.919
    eigenvectors:
  0.334  0.075  0.592
  0.486  0.430  0.085
  0.180  0.496  0.324
    occupations:
  0.901  0.022  0.014
  0.022  0.892 -0.016
  0.014 -0.016  0.909
atomic mag. moment =     0.039360
atom   10   Tr[ns(na)] (up, down, total) =   2.74192  2.70256  5.44448
   spin  1
    eigenvalues: 
  0.843  0.947  0.951
    eigenvectors:
  0.337  0.000  0.663
  0.000  1.000  0.000
  0.663  0.000  0.337
    occupations:
  0.915  0.001 -0.051
  0.001  0.947  0.001
 -0.051  0.001  0.880
   spin  2
    eigenvalues: 
  0.864  0.919  0.919
    eigenvectors:
  0.334  0.059  0.607
  0.000  0.903  0.096
  0.666  0.038  0.297
    occupations:
  0.901  0.001 -0.026
  0.001  0.919  0.001
 -0.026  0.001  0.882
atomic mag. moment =     0.039362
N of occupied +U levels =  56.1378303
 --- exit write_ns ---
 --- in v_hubbard ---
Hubbard energy   -0.0400
 -------

     total cpu time spent up to now is      266.9 secs

     total energy              =    -538.39546548 Ry
     Harris-Foulkes estimate   =    -538.39547636 Ry
     estimated scf accuracy    <       0.00004052 Ry

     total magnetization       =     3.54 Bohr mag/cell
     absolute magnetization    =     3.69 Bohr mag/cell

     iteration #  3     ecut=    30.00 Ry     beta=0.20
     Davidson diagonalization with overlap
     ethr =  5.33E-08,  avg # of iterations =  2.0
 --- enter write_ns ---
 LDA+U parameters:
U( 1)     =  0.00000000
alpha( 1) =  0.00000000
U( 2)     =  0.00000000
alpha( 2) =  0.00000000
U( 3)     =  0.00000000
alpha( 3) = -0.10000000
U( 4)     =  0.00000000
alpha( 4) =  0.00000000
atom    1   Tr[ns(na)] (up, down, total) =   4.57023  3.39330  7.96353
   spin  1
    eigenvalues: 
  0.787  0.787  0.999  0.999  0.999
    eigenvectors:
  0.000  0.000  0.000  0.001  0.999
  0.598  0.048  0.340  0.013  0.000
  0.048  0.598  0.014  0.340  0.000
  0.272  0.082  0.451  0.195  0.000
  0.082  0.272  0.195  0.451  0.000
    occupations:
  0.999  0.000  0.000  0.000  0.000
  0.000  0.862  0.000 -0.072  0.071
  0.000  0.000  0.862  0.071  0.072
  0.000 -0.072  0.071  0.924  0.000
  0.000  0.071  0.072  0.000  0.924
   spin  2
    eigenvalues: 
  0.475  0.476  0.780  0.832  0.832
    eigenvectors:
  0.000  0.000  1.000  0.000  0.000
  0.515  0.124  0.000  0.223  0.138
  0.124  0.515  0.000  0.138  0.223
  0.142  0.218  0.000  0.385  0.254
  0.218  0.142  0.000  0.254  0.385
    occupations:
  0.780  0.000  0.000  0.000  0.000
  0.000  0.604  0.000 -0.038  0.167
  0.000  0.000  0.604  0.167  0.038
  0.000 -0.038  0.167  0.703  0.000
  0.000  0.167  0.038  0.000  0.703
atomic mag. moment =     1.176933
atom    2   Tr[ns(na)] (up, down, total) =   4.66880  3.20238  7.87118
   spin  1
    eigenvalues: 
  0.836  0.836  0.999  0.999  0.999
    eigenvectors:
  0.000  0.000  0.003  0.001  0.996
  0.342  0.304  0.146  0.208  0.000
  0.304  0.342  0.207  0.145  0.001
  0.354  0.000  0.005  0.640  0.001
  0.000  0.354  0.639  0.005  0.002
    occupations:
  0.999  0.000  0.000  0.000  0.000
  0.000  0.894  0.000  0.055  0.055
  0.000  0.000  0.894  0.055 -0.055
  0.000  0.055  0.055  0.941  0.000
  0.000  0.055 -0.055  0.000  0.941
   spin  2
    eigenvalues: 
  0.458  0.459  0.723  0.782  0.782
    eigenvectors:
  0.000  0.000  1.000  0.000  0.000
  0.437  0.198  0.000  0.322  0.043
  0.198  0.437  0.000  0.043  0.322
  0.047  0.318  0.000  0.010  0.625
  0.318  0.047  0.000  0.625  0.010
    occupations:
  0.723  0.000  0.000  0.000  0.000
  0.000  0.576  0.000  0.035  0.152
  0.000  0.000  0.576  0.152 -0.035
  0.000  0.035  0.152  0.664  0.000
  0.000  0.152 -0.035  0.000  0.663
atomic mag. moment =     1.466419
atom    3   Tr[ns(na)] (up, down, total) =   1.91384  1.89960  3.81345
   spin  1
    eigenvalues: 
  0.357  0.357  0.387  0.407  0.407
    eigenvectors:
  0.000  0.000  1.000  0.000  0.000
  0.227  0.696  0.000  0.059  0.017
  0.696  0.227  0.000  0.017  0.059
  0.057  0.020  0.000  0.214  0.709
  0.020  0.057  0.000  0.709  0.214
    occupations:
  0.387  0.000  0.000  0.000  0.000
  0.000  0.361  0.000  0.000  0.013
  0.000  0.000  0.361  0.013  0.000
  0.000  0.000  0.013  0.403  0.000
  0.000  0.013  0.000  0.000  0.403
   spin  2
    eigenvalues: 
  0.353  0.353  0.387  0.404  0.404
    eigenvectors:
  0.000  0.000  1.000  0.000  0.000
  0.225  0.685  0.000  0.082  0.009
  0.685  0.225  0.000  0.009  0.081
  0.066  0.024  0.000  0.099  0.811
  0.024  0.066  0.000  0.811  0.099
    occupations:
  0.387  0.000  0.000  0.000  0.000
  0.000  0.357  0.000  0.000  0.015
  0.000  0.000  0.357  0.015  0.000
  0.000  0.000  0.015  0.399  0.000
  0.000  0.015  0.000  0.000  0.399
atomic mag. moment =     0.014241
atom    4   Tr[ns(na)] (up, down, total) =   1.91388  1.89959  3.81347
   spin  1
    eigenvalues: 
  0.357  0.357  0.387  0.407  0.407
    eigenvectors:
  0.000  0.000  1.000  0.000  0.000
  0.211  0.713  0.000  0.057  0.019
  0.713  0.211  0.000  0.018  0.058
  0.058  0.018  0.000  0.233  0.691
  0.018  0.057  0.000  0.692  0.233
    occupations:
  0.387  0.000  0.000  0.000  0.000
  0.000  0.361  0.000  0.000  0.013
  0.000  0.000  0.361  0.013  0.000
  0.000  0.000  0.013  0.403  0.000
  0.000  0.013  0.000  0.000  0.403
   spin  2
    eigenvalues: 
  0.353  0.353  0.387  0.404  0.404
    eigenvectors:
  0.000  0.000  1.000  0.000  0.000
  0.217  0.694  0.000  0.067  0.023
  0.693  0.217  0.000  0.022  0.068
  0.067  0.023  0.000  0.243  0.667
  0.023  0.067  0.000  0.668  0.242
    occupations:
  0.387  0.000  0.000  0.000  0.000
  0.000  0.357  0.000  0.000  0.015
  0.000  0.000  0.357  0.015  0.000
  0.000  0.000  0.015  0.399  0.000
  0.000  0.015  0.000  0.000  0.399
atomic mag. moment =     0.014292
atom    5   Tr[ns(na)] (up, down, total) =   2.74466  2.70647  5.45113
   spin  1
    eigenvalues: 
  0.846  0.948  0.951
    eigenvectors:
  0.337  0.000  0.663
  0.507  0.244  0.249
  0.156  0.756  0.088
    occupations:
  0.916 -0.044  0.024
 -0.044  0.897  0.028
  0.024  0.028  0.932
   spin  2
    eigenvalues: 
  0.865  0.921  0.921
    eigenvectors:
  0.333  0.007  0.660
  0.516  0.177  0.307
  0.151  0.816  0.033
    occupations:
  0.902 -0.023  0.012
 -0.023  0.892  0.015
  0.012  0.015  0.912
atomic mag. moment =     0.038191
atom    6   Tr[ns(na)] (up, down, total) =   2.74206  2.70287  5.44493
   spin  1
    eigenvalues: 
  0.843  0.947  0.951
    eigenvectors:
  0.337  0.000  0.663
  0.488  0.254  0.259
  0.176  0.746  0.079
    occupations:
  0.915  0.044  0.026
  0.044  0.898 -0.030
  0.026 -0.030  0.929
   spin  2
    eigenvalues: 
  0.864  0.919  0.920
    eigenvectors:
  0.333  0.052  0.615
  0.483  0.410  0.106
  0.183  0.538  0.278
    occupations:
  0.901  0.022  0.014
  0.022  0.893 -0.017
  0.014 -0.017  0.909
atomic mag. moment =     0.039192
atom    7   Tr[ns(na)] (up, down, total) =   2.74206  2.70287  5.44493
   spin  1
    eigenvalues: 
  0.843  0.947  0.951
    eigenvectors:
  0.337  0.000  0.663
  0.000  1.000  0.000
  0.663  0.000  0.337
    occupations:
  0.915  0.001 -0.051
  0.001  0.947  0.001
 -0.051  0.001  0.880
   spin  2
    eigenvalues: 
  0.864  0.919  0.920
    eigenvectors:
  0.333  0.079  0.588
  0.001  0.869  0.130
  0.666  0.051  0.282
    occupations:
  0.901  0.001 -0.026
  0.001  0.919  0.001
 -0.026  0.001  0.882
atomic mag. moment =     0.039192
atom    8   Tr[ns(na)] (up, down, total) =   2.74202  2.70319  5.44521
   spin  1
    eigenvalues: 
  0.843  0.947  0.951
    eigenvectors:
  0.337  0.000  0.663
  0.507  0.244  0.249
  0.156  0.756  0.088
    occupations:
  0.915 -0.045  0.025
 -0.045  0.896  0.029
  0.025  0.029  0.931
   spin  2
    eigenvalues: 
  0.864  0.920  0.920
    eigenvectors:
  0.333  0.029  0.638
  0.516  0.129  0.354
  0.150  0.842  0.007
    occupations:
  0.901 -0.023  0.012
 -0.023  0.891  0.015
  0.012  0.015  0.911
atomic mag. moment =     0.038828
atom    9   Tr[ns(na)] (up, down, total) =   2.74200  2.70285  5.44486
   spin  1
    eigenvalues: 
  0.843  0.947  0.951
    eigenvectors:
  0.337  0.000  0.663
  0.488  0.254  0.259
  0.176  0.746  0.078
    occupations:
  0.915  0.044  0.026
  0.044  0.898 -0.030
  0.026 -0.030  0.929
   spin  2
    eigenvalues: 
  0.864  0.919  0.920
    eigenvectors:
  0.334  0.066  0.601
  0.483  0.426  0.091
  0.184  0.508  0.308
    occupations:
  0.901  0.022  0.014
  0.022  0.893 -0.017
  0.014 -0.017  0.909
atomic mag. moment =     0.039154
atom   10   Tr[ns(na)] (up, down, total) =   2.74200  2.70285  5.44485
   spin  1
    eigenvalues: 
  0.843  0.947  0.951
    eigenvectors:
  0.337  0.000  0.663
  0.000  1.000  0.000
  0.663  0.000  0.337
    occupations:
  0.915  0.001 -0.051
  0.001  0.947  0.001
 -0.051  0.001  0.880
   spin  2
    eigenvalues: 
  0.864  0.919  0.920
    eigenvectors:
  0.334  0.064  0.603
  0.001  0.894  0.105
  0.666  0.042  0.292
    occupations:
  0.901  0.001 -0.026
  0.001  0.919  0.001
 -0.026  0.001  0.882
atomic mag. moment =     0.039155
N of occupied +U levels =  56.1375461
 --- exit write_ns ---
 --- in v_hubbard ---
Hubbard energy   -0.0400
 -------

     total cpu time spent up to now is      323.4 secs

     total energy              =    -538.39544808 Ry
     Harris-Foulkes estimate   =    -538.39550215 Ry
     estimated scf accuracy    <       0.00123749 Ry

     total magnetization       =     3.54 Bohr mag/cell
     absolute magnetization    =     3.69 Bohr mag/cell

     iteration #  4     ecut=    30.00 Ry     beta=0.20
     Davidson diagonalization with overlap
     ethr =  5.33E-08,  avg # of iterations =  1.7
 --- enter write_ns ---
 LDA+U parameters:
U( 1)     =  0.00000000
alpha( 1) =  0.00000000
U( 2)     =  0.00000000
alpha( 2) =  0.00000000
U( 3)     =  0.00000000
alpha( 3) = -0.10000000
U( 4)     =  0.00000000
alpha( 4) =  0.00000000
atom    1   Tr[ns(na)] (up, down, total) =   4.56565  3.37223  7.93789
   spin  1
    eigenvalues: 
  0.785  0.785  0.999  0.999  0.999
    eigenvectors:
  0.000  0.000  0.000  0.001  0.999
  0.599  0.048  0.339  0.015  0.000
  0.048  0.598  0.015  0.339  0.000
  0.271  0.083  0.456  0.190  0.000
  0.082  0.271  0.190  0.456  0.000
    occupations:
  0.999  0.000  0.000  0.000  0.000
  0.000  0.860  0.000 -0.073  0.072
  0.000  0.000  0.861  0.072  0.073
  0.000 -0.073  0.072  0.923  0.000
  0.000  0.072  0.073  0.000  0.923
   spin  2
    eigenvalues: 
  0.474  0.474  0.773  0.826  0.826
    eigenvectors:
  0.000  0.000  1.000  0.000  0.000
  0.514  0.125  0.000  0.219  0.142
  0.125  0.514  0.000  0.142  0.219
  0.142  0.219  0.000  0.390  0.249
  0.219  0.142  0.000  0.249  0.390
    occupations:
  0.773  0.000  0.000  0.000  0.000
  0.000  0.601  0.000 -0.037  0.165
  0.000  0.000  0.601  0.165  0.037
  0.000 -0.037  0.165  0.699  0.000
  0.000  0.165  0.037  0.000  0.699
atomic mag. moment =     1.193421
atom    2   Tr[ns(na)] (up, down, total) =   4.67292  3.22340  7.89632
   spin  1
    eigenvalues: 
  0.838  0.838  0.999  0.999  0.999
    eigenvectors:
  0.000  0.000  0.004  0.002  0.995
  0.340  0.306  0.145  0.209  0.000
  0.306  0.340  0.208  0.144  0.002
  0.354  0.000  0.005  0.640  0.001
  0.000  0.354  0.639  0.005  0.002
    occupations:
  0.999  0.000  0.000  0.000  0.000
  0.000  0.895  0.000  0.055  0.054
  0.000  0.000  0.895  0.054 -0.054
  0.000  0.055  0.054  0.942  0.000
  0.000  0.054 -0.054  0.000  0.942
   spin  2
    eigenvalues: 
  0.459  0.460  0.730  0.788  0.788
    eigenvectors:
  0.000  0.000  1.000  0.000  0.000
  0.437  0.199  0.000  0.330  0.034
  0.199  0.437  0.000  0.034  0.330
  0.046  0.318  0.000  0.004  0.631
  0.318  0.046  0.000  0.631  0.004
    occupations:
  0.730  0.000  0.000  0.000  0.000
  0.000  0.579  0.000  0.036  0.154
  0.000  0.000  0.579  0.154 -0.036
  0.000  0.036  0.154  0.668  0.000
  0.000  0.154 -0.036  0.000  0.668
atomic mag. moment =     1.449519
atom    3   Tr[ns(na)] (up, down, total) =   1.91386  1.89960  3.81346
   spin  1
    eigenvalues: 
  0.357  0.357  0.387  0.407  0.407
    eigenvectors:
  0.000  0.000  1.000  0.000  0.000
  0.227  0.696  0.000  0.060  0.016
  0.696  0.227  0.000  0.016  0.060
  0.057  0.020  0.000  0.205  0.718
  0.020  0.057  0.000  0.718  0.205
    occupations:
  0.387  0.000  0.000  0.000  0.000
  0.000  0.361  0.000  0.000  0.013
  0.000  0.000  0.361  0.013  0.000
  0.000  0.000  0.013  0.403  0.000
  0.000  0.013  0.000  0.000  0.403
   spin  2
    eigenvalues: 
  0.353  0.353  0.387  0.404  0.404
    eigenvectors:
  0.000  0.000  1.000  0.000  0.000
  0.225  0.685  0.000  0.032  0.058
  0.685  0.225  0.000  0.058  0.032
  0.067  0.024  0.000  0.575  0.335
  0.024  0.067  0.000  0.335  0.575
    occupations:
  0.387  0.000  0.000  0.000  0.000
  0.000  0.357  0.000  0.000  0.015
  0.000  0.000  0.357  0.015  0.000
  0.000  0.000  0.015  0.399  0.000
  0.000  0.015  0.000  0.000  0.399
atomic mag. moment =     0.014254
atom    4   Tr[ns(na)] (up, down, total) =   1.91389  1.89959  3.81348
   spin  1
    eigenvalues: 
  0.357  0.357  0.387  0.407  0.407
    eigenvectors:
  0.000  0.000  1.000  0.000  0.000
  0.212  0.712  0.000  0.057  0.018
  0.711  0.213  0.000  0.018  0.058
  0.058  0.018  0.000  0.229  0.695
  0.018  0.057  0.000  0.695  0.229
    occupations:
  0.387  0.000  0.000  0.000  0.000
  0.000  0.361  0.000  0.000  0.013
  0.000  0.000  0.361  0.013  0.000
  0.000  0.000  0.013  0.403  0.000
  0.000  0.013  0.000  0.000  0.403
   spin  2
    eigenvalues: 
  0.353  0.353  0.387  0.404  0.404
    eigenvectors:
  0.000  0.000  1.000  0.000  0.000
  0.217  0.693  0.000  0.067  0.023
  0.693  0.217  0.000  0.022  0.068
  0.067  0.023  0.000  0.240  0.670
  0.023  0.067  0.000  0.670  0.240
    occupations:
  0.387  0.000  0.000  0.000  0.000
  0.000  0.357  0.000  0.000  0.015
  0.000  0.000  0.357  0.015  0.000
  0.000  0.000  0.015  0.399  0.000
  0.000  0.015  0.000  0.000  0.399
atomic mag. moment =     0.014306
atom    5   Tr[ns(na)] (up, down, total) =   2.74474  2.70642  5.45116
   spin  1
    eigenvalues: 
  0.846  0.948  0.951
    eigenvectors:
  0.337  0.000  0.663
  0.508  0.244  0.248
  0.155  0.756  0.088
    occupations:
  0.916 -0.044  0.024
 -0.044  0.897  0.028
  0.024  0.028  0.932
   spin  2
    eigenvalues: 
  0.865  0.921  0.921
    eigenvectors:
  0.333  0.005  0.662
  0.514  0.189  0.297
  0.153  0.806  0.041
    occupations:
  0.902 -0.023  0.013
 -0.023  0.892  0.016
  0.013  0.016  0.912
atomic mag. moment =     0.038313
atom    6   Tr[ns(na)] (up, down, total) =   2.74218  2.70286  5.44504
   spin  1
    eigenvalues: 
  0.844  0.947  0.951
    eigenvectors:
  0.337  0.000  0.663
  0.487  0.254  0.259
  0.176  0.745  0.078
    occupations:
  0.915  0.044  0.026
  0.044  0.898 -0.030
  0.026 -0.030  0.929
   spin  2
    eigenvalues: 
  0.864  0.919  0.920
    eigenvectors:
  0.333  0.046  0.620
  0.486  0.399  0.114
  0.181  0.554  0.265
    occupations:
  0.901  0.022  0.014
  0.022  0.892 -0.016
  0.014 -0.016  0.909
atomic mag. moment =     0.039316
atom    7   Tr[ns(na)] (up, down, total) =   2.74218  2.70287  5.44505
   spin  1
    eigenvalues: 
  0.844  0.947  0.951
    eigenvectors:
  0.337  0.000  0.663
  0.000  1.000  0.000
  0.663  0.000  0.337
    occupations:
  0.915  0.001 -0.051
  0.001  0.947  0.001
 -0.051  0.001  0.880
   spin  2
    eigenvalues: 
  0.864  0.919  0.920
    eigenvectors:
  0.333  0.085  0.582
  0.000  0.862  0.137
  0.666  0.052  0.281
    occupations:
  0.901  0.001 -0.026
  0.001  0.919  0.001
 -0.026  0.001  0.882
atomic mag. moment =     0.039315
atom    8   Tr[ns(na)] (up, down, total) =   2.74211  2.70315  5.44526
   spin  1
    eigenvalues: 
  0.843  0.947  0.951
    eigenvectors:
  0.337  0.000  0.663
  0.508  0.244  0.248
  0.155  0.756  0.089
    occupations:
  0.915 -0.045  0.025
 -0.045  0.896  0.029
  0.025  0.029  0.932
   spin  2
    eigenvalues: 
  0.864  0.920  0.920
    eigenvectors:
  0.333  0.024  0.642
  0.514  0.140  0.347
  0.153  0.836  0.011
    occupations:
  0.901 -0.023  0.013
 -0.023  0.891  0.016
  0.013  0.016  0.911
atomic mag. moment =     0.038956
atom    9   Tr[ns(na)] (up, down, total) =   2.74213  2.70285  5.44498
   spin  1
    eigenvalues: 
  0.844  0.947  0.951
    eigenvectors:
  0.337  0.000  0.663
  0.487  0.254  0.259
  0.176  0.745  0.078
    occupations:
  0.915  0.044  0.026
  0.044  0.898 -0.030
  0.026 -0.030  0.929
   spin  2
    eigenvalues: 
  0.864  0.919  0.920
    eigenvectors:
  0.334  0.063  0.603
  0.485  0.419  0.095
  0.181  0.517  0.302
    occupations:
  0.901  0.022  0.014
  0.022  0.892 -0.016
  0.014 -0.016  0.909
atomic mag. moment =     0.039276
atom   10   Tr[ns(na)] (up, down, total) =   2.74213  2.70285  5.44498
   spin  1
    eigenvalues: 
  0.844  0.947  0.951
    eigenvectors:
  0.337  0.000  0.663
  0.000  1.000  0.000
  0.663  0.000  0.337
    occupations:
  0.915  0.001 -0.051
  0.001  0.947  0.001
 -0.051  0.001  0.880
   spin  2
    eigenvalues: 
  0.864  0.919  0.920
    eigenvectors:
  0.334  0.065  0.602
  0.000  0.894  0.105
  0.666  0.041  0.293
    occupations:
  0.901  0.001 -0.026
  0.001  0.919  0.001
 -0.026  0.001  0.882
atomic mag. moment =     0.039279
N of occupied +U levels =  56.1376103
 --- exit write_ns ---
 --- in v_hubbard ---
Hubbard energy   -0.0401
 -------

     total cpu time spent up to now is      378.2 secs

     total energy              =    -538.39547494 Ry
     Harris-Foulkes estimate   =    -538.39547497 Ry
     estimated scf accuracy    <       0.00000101 Ry

     total magnetization       =     3.54 Bohr mag/cell
     absolute magnetization    =     3.69 Bohr mag/cell

     iteration #  5     ecut=    30.00 Ry     beta=0.20
     Davidson diagonalization with overlap
     ethr =  1.33E-09,  avg # of iterations =  2.5
 --- enter write_ns ---
 LDA+U parameters:
U( 1)     =  0.00000000
alpha( 1) =  0.00000000
U( 2)     =  0.00000000
alpha( 2) =  0.00000000
U( 3)     =  0.00000000
alpha( 3) = -0.10000000
U( 4)     =  0.00000000
alpha( 4) =  0.00000000
atom    1   Tr[ns(na)] (up, down, total) =   4.56577  3.37259  7.93836
   spin  1
    eigenvalues: 
  0.785  0.785  0.999  0.999  0.999
    eigenvectors:
  0.000  0.000  0.000  0.001  0.999
  0.597  0.049  0.338  0.015  0.000
  0.049  0.597  0.015  0.338  0.000
  0.272  0.082  0.459  0.187  0.000
  0.081  0.272  0.187  0.458  0.000
    occupations:
  0.999  0.000  0.000  0.000  0.000
  0.000  0.860  0.000 -0.073  0.072
  0.000  0.000  0.861  0.072  0.073
  0.000 -0.073  0.072  0.923  0.000
  0.000  0.072  0.073  0.000  0.923
   spin  2
    eigenvalues: 
  0.474  0.474  0.773  0.826  0.826
    eigenvectors:
  0.000  0.000  1.000  0.000  0.000
  0.514  0.125  0.000  0.211  0.150
  0.125  0.514  0.000  0.150  0.211
  0.142  0.219  0.000  0.404  0.235
  0.219  0.142  0.000  0.235  0.404
    occupations:
  0.773  0.000  0.000  0.000  0.000
  0.000  0.601  0.000 -0.037  0.165
  0.000  0.000  0.601  0.165  0.037
  0.000 -0.037  0.165  0.699  0.000
  0.000  0.165  0.037  0.000  0.699
atomic mag. moment =     1.193176
atom    2   Tr[ns(na)] (up, down, total) =   4.67292  3.22335  7.89627
   spin  1
    eigenvalues: 
  0.838  0.838  0.999  0.999  0.999
    eigenvectors:
  0.000  0.000  0.002  0.002  0.996
  0.337  0.309  0.153  0.201  0.000
  0.309  0.337  0.200  0.152  0.001
  0.354  0.000  0.003  0.642  0.001
  0.000  0.354  0.642  0.003  0.001
    occupations:
  0.999  0.000  0.000  0.000  0.000
  0.000  0.895  0.000  0.055  0.054
  0.000  0.000  0.895  0.054 -0.054
  0.000  0.055  0.054  0.942  0.000
  0.000  0.054 -0.054  0.000  0.942
   spin  2
    eigenvalues: 
  0.459  0.460  0.730  0.788  0.788
    eigenvectors:
  0.000  0.000  1.000  0.000  0.000
  0.437  0.198  0.000  0.338  0.026
  0.199  0.437  0.000  0.026  0.338
  0.046  0.318  0.000  0.001  0.634
  0.318  0.046  0.000  0.634  0.001
    occupations:
  0.730  0.000  0.000  0.000  0.000
  0.000  0.579  0.000  0.036  0.154
  0.000  0.000  0.579  0.154 -0.036
  0.000  0.036  0.154  0.668  0.000
  0.000  0.154 -0.036  0.000  0.668
atomic mag. moment =     1.449572
atom    3   Tr[ns(na)] (up, down, total) =   1.91391  1.89965  3.81356
   spin  1
    eigenvalues: 
  0.357  0.357  0.387  0.407  0.407
    eigenvectors:
  0.000  0.000  1.000  0.000  0.000
  0.228  0.696  0.000  0.061  0.015
  0.696  0.228  0.000  0.015  0.061
  0.057  0.020  0.000  0.195  0.728
  0.020  0.057  0.000  0.728  0.196
    occupations:
  0.387  0.000  0.000  0.000  0.000
  0.000  0.361  0.000  0.000  0.013
  0.000  0.000  0.361  0.013  0.000
  0.000  0.000  0.013  0.403  0.000
  0.000  0.013  0.000  0.000  0.403
   spin  2
    eigenvalues: 
  0.353  0.353  0.387  0.404  0.404
    eigenvectors:
  0.000  0.000  1.000  0.000  0.000
  0.225  0.685  0.000  0.026  0.064
  0.685  0.225  0.000  0.064  0.026
  0.067  0.024  0.000  0.636  0.274
  0.024  0.067  0.000  0.274  0.636
    occupations:
  0.387  0.000  0.000  0.000  0.000
  0.000  0.357  0.000  0.000  0.015
  0.000  0.000  0.357  0.015  0.000
  0.000  0.000  0.015  0.399  0.000
  0.000  0.015  0.000  0.000  0.399
atomic mag. moment =     0.014263
atom    4   Tr[ns(na)] (up, down, total) =   1.91394  1.89963  3.81357
   spin  1
    eigenvalues: 
  0.357  0.357  0.387  0.407  0.407
    eigenvectors:
  0.000  0.000  1.000  0.000  0.000
  0.214  0.710  0.000  0.058  0.018
  0.709  0.215  0.000  0.018  0.058
  0.058  0.018  0.000  0.226  0.698
  0.018  0.057  0.000  0.699  0.226
    occupations:
  0.387  0.000  0.000  0.000  0.000
  0.000  0.361  0.000  0.000  0.013
  0.000  0.000  0.361  0.013  0.000
  0.000  0.000  0.013  0.403  0.000
  0.000  0.013  0.000  0.000  0.403
   spin  2
    eigenvalues: 
  0.353  0.353  0.387  0.404  0.404
    eigenvectors:
  0.000  0.000  1.000  0.000  0.000
  0.218  0.693  0.000  0.067  0.022
  0.692  0.218  0.000  0.022  0.068
  0.067  0.023  0.000  0.238  0.672
  0.023  0.067  0.000  0.673  0.238
    occupations:
  0.387  0.000  0.000  0.000  0.000
  0.000  0.357  0.000  0.000  0.015
  0.000  0.000  0.357  0.015  0.000
  0.000  0.000  0.015  0.399  0.000
  0.000  0.015  0.000  0.000  0.399
atomic mag. moment =     0.014315
atom    5   Tr[ns(na)] (up, down, total) =   2.74468  2.70637  5.45105
   spin  1
    eigenvalues: 
  0.846  0.948  0.951
    eigenvectors:
  0.337  0.000  0.663
  0.508  0.244  0.248
  0.155  0.756  0.088
    occupations:
  0.916 -0.044  0.024
 -0.044  0.897  0.028
  0.024  0.028  0.932
   spin  2
    eigenvalues: 
  0.865  0.921  0.921
    eigenvectors:
  0.333  0.005  0.662
  0.514  0.189  0.297
  0.153  0.806  0.041
    occupations:
  0.902 -0.023  0.013
 -0.023  0.892  0.016
  0.013  0.016  0.912
atomic mag. moment =     0.038307
atom    6   Tr[ns(na)] (up, down, total) =   2.74215  2.70282  5.44497
   spin  1
    eigenvalues: 
  0.844  0.947  0.951
    eigenvectors:
  0.337  0.000  0.663
  0.487  0.254  0.259
  0.176  0.745  0.078
    occupations:
  0.915  0.044  0.026
  0.044  0.898 -0.030
  0.026 -0.030  0.929
   spin  2
    eigenvalues: 
  0.864  0.919  0.920
    eigenvectors:
  0.333  0.042  0.625
  0.486  0.393  0.120
  0.181  0.565  0.255
    occupations:
  0.901  0.022  0.014
  0.022  0.892 -0.016
  0.014 -0.016  0.909
atomic mag. moment =     0.039324
atom    7   Tr[ns(na)] (up, down, total) =   2.74215  2.70282  5.44497
   spin  1
    eigenvalues: 
  0.844  0.947  0.951
    eigenvectors:
  0.337  0.000  0.663
  0.000  1.000  0.000
  0.663  0.000  0.337
    occupations:
  0.915  0.001 -0.051
  0.001  0.947  0.001
 -0.051  0.001  0.880
   spin  2
    eigenvalues: 
  0.864  0.919  0.920
    eigenvectors:
  0.333  0.095  0.572
  0.000  0.847  0.153
  0.666  0.058  0.276
    occupations:
  0.901  0.001 -0.026
  0.001  0.919  0.001
 -0.026  0.001  0.882
atomic mag. moment =     0.039323
atom    8   Tr[ns(na)] (up, down, total) =   2.74204  2.70309  5.44513
   spin  1
    eigenvalues: 
  0.843  0.947  0.951
    eigenvectors:
  0.337  0.000  0.663
  0.508  0.244  0.248
  0.155  0.756  0.089
    occupations:
  0.915 -0.045  0.025
 -0.045  0.896  0.029
  0.025  0.029  0.932
   spin  2
    eigenvalues: 
  0.864  0.920  0.920
    eigenvectors:
  0.333  0.025  0.642
  0.514  0.138  0.348
  0.153  0.837  0.010
    occupations:
  0.901 -0.023  0.013
 -0.023  0.891  0.016
  0.013  0.016  0.911
atomic mag. moment =     0.038956
atom    9   Tr[ns(na)] (up, down, total) =   2.74210  2.70281  5.44491
   spin  1
    eigenvalues: 
  0.843  0.947  0.951
    eigenvectors:
  0.337  0.000  0.663
  0.487  0.254  0.259
  0.176  0.746  0.078
    occupations:
  0.915  0.044  0.026
  0.044  0.898 -0.030
  0.026 -0.030  0.929
   spin  2
    eigenvalues: 
  0.864  0.919  0.920
    eigenvectors:
  0.334  0.059  0.607
  0.485  0.415  0.100
  0.181  0.526  0.293
    occupations:
  0.901  0.022  0.014
  0.022  0.892 -0.016
  0.014 -0.016  0.909
atomic mag. moment =     0.039283
atom   10   Tr[ns(na)] (up, down, total) =   2.74210  2.70281  5.44491
   spin  1
    eigenvalues: 
  0.843  0.947  0.951
    eigenvectors:
  0.337  0.000  0.663
  0.000  1.000  0.000
  0.663  0.000  0.337
    occupations:
  0.915  0.001 -0.051
  0.001  0.947  0.001
 -0.051  0.001  0.880
   spin  2
    eigenvalues: 
  0.864  0.919  0.920
    eigenvectors:
  0.334  0.074  0.593
  0.000  0.880  0.119
  0.666  0.046  0.288
    occupations:
  0.901  0.001 -0.026
  0.001  0.919  0.001
 -0.026  0.001  0.882
atomic mag. moment =     0.039286
N of occupied +U levels =  56.1377139
 --- exit write_ns ---
 --- in v_hubbard ---
Hubbard energy   -0.0401
 -------

     total cpu time spent up to now is      431.9 secs

     total energy              =    -538.39547500 Ry
     Harris-Foulkes estimate   =    -538.39547503 Ry
     estimated scf accuracy    <       0.00000047 Ry

     total magnetization       =     3.54 Bohr mag/cell
     absolute magnetization    =     3.69 Bohr mag/cell

     iteration #  6     ecut=    30.00 Ry     beta=0.20
     Davidson diagonalization with overlap
     ethr =  6.20E-10,  avg # of iterations =  1.6
 --- enter write_ns ---
 LDA+U parameters:
U( 1)     =  0.00000000
alpha( 1) =  0.00000000
U( 2)     =  0.00000000
alpha( 2) =  0.00000000
U( 3)     =  0.00000000
alpha( 3) = -0.10000000
U( 4)     =  0.00000000
alpha( 4) =  0.00000000
atom    1   Tr[ns(na)] (up, down, total) =   4.56583  3.37267  7.93850
   spin  1
    eigenvalues: 
  0.785  0.785  0.999  0.999  0.999
    eigenvectors:
  0.000  0.000  0.000  0.001  0.999
  0.590  0.056  0.339  0.015  0.000
  0.056  0.590  0.015  0.339  0.000
  0.279  0.075  0.457  0.189  0.000
  0.075  0.278  0.189  0.457  0.000
    occupations:
  0.999  0.000  0.000  0.000  0.000
  0.000  0.861  0.000 -0.073  0.072
  0.000  0.000  0.861  0.072  0.073
  0.000 -0.073  0.072  0.923  0.000
  0.000  0.072  0.073  0.000  0.923
   spin  2
    eigenvalues: 
  0.474  0.474  0.773  0.826  0.826
    eigenvectors:
  0.000  0.000  1.000  0.000  0.000
  0.514  0.125  0.000  0.205  0.156
  0.125  0.514  0.000  0.156  0.205
  0.142  0.219  0.000  0.415  0.224
  0.219  0.142  0.000  0.224  0.415
    occupations:
  0.773  0.000  0.000  0.000  0.000
  0.000  0.601  0.000 -0.037  0.165
  0.000  0.000  0.601  0.165  0.037
  0.000 -0.037  0.165  0.699  0.000
  0.000  0.165  0.037  0.000  0.699
atomic mag. moment =     1.193152
atom    2   Tr[ns(na)] (up, down, total) =   4.67296  3.22303  7.89599
   spin  1
    eigenvalues: 
  0.838  0.838  0.999  0.999  0.999
    eigenvectors:
  0.000  0.000  0.002  0.002  0.996
  0.332  0.314  0.156  0.198  0.000
  0.314  0.332  0.197  0.155  0.001
  0.354  0.000  0.002  0.643  0.001
  0.000  0.354  0.642  0.002  0.001
    occupations:
  0.999  0.000  0.000  0.000  0.000
  0.000  0.895  0.000  0.055  0.054
  0.000  0.000  0.895  0.054 -0.054
  0.000  0.055  0.054  0.942  0.000
  0.000  0.054 -0.054  0.000  0.942
   spin  2
    eigenvalues: 
  0.459  0.460  0.729  0.788  0.788
    eigenvectors:
  0.000  0.000  1.000  0.000  0.000
  0.437  0.198  0.000  0.341  0.024
  0.199  0.437  0.000  0.024  0.341
  0.046  0.318  0.000  0.001  0.635
  0.318  0.046  0.000  0.635  0.001
    occupations:
  0.729  0.000  0.000  0.000  0.000
  0.000  0.579  0.000  0.036  0.154
  0.000  0.000  0.579  0.154 -0.036
  0.000  0.036  0.154  0.668  0.000
  0.000  0.154 -0.036  0.000  0.668
atomic mag. moment =     1.449924
atom    3   Tr[ns(na)] (up, down, total) =   1.91398  1.89972  3.81371
   spin  1
    eigenvalues: 
  0.357  0.357  0.387  0.407  0.407
    eigenvectors:
  0.000  0.000  1.000  0.000  0.000
  0.228  0.696  0.000  0.061  0.016
  0.696  0.228  0.000  0.016  0.061
  0.057  0.020  0.000  0.197  0.726
  0.020  0.057  0.000  0.726  0.197
    occupations:
  0.387  0.000  0.000  0.000  0.000
  0.000  0.361  0.000  0.000  0.013
  0.000  0.000  0.361  0.013  0.000
  0.000  0.000  0.013  0.403  0.000
  0.000  0.013  0.000  0.000  0.403
   spin  2
    eigenvalues: 
  0.353  0.353  0.387  0.404  0.404
    eigenvectors:
  0.000  0.000  1.000  0.000  0.000
  0.226  0.684  0.000  0.030  0.060
  0.684  0.226  0.000  0.060  0.030
  0.066  0.024  0.000  0.589  0.321
  0.024  0.067  0.000  0.321  0.588
    occupations:
  0.387  0.000  0.000  0.000  0.000
  0.000  0.357  0.000  0.000  0.015
  0.000  0.000  0.357  0.015  0.000
  0.000  0.000  0.015  0.399  0.000
  0.000  0.015  0.000  0.000  0.399
atomic mag. moment =     0.014260
atom    4   Tr[ns(na)] (up, down, total) =   1.91402  1.89970  3.81372
   spin  1
    eigenvalues: 
  0.357  0.357  0.387  0.407  0.407
    eigenvectors:
  0.000  0.000  1.000  0.000  0.000
  0.216  0.709  0.000  0.057  0.018
  0.708  0.216  0.000  0.018  0.058
  0.058  0.018  0.000  0.229  0.695
  0.019  0.057  0.000  0.696  0.229
    occupations:
  0.387  0.000  0.000  0.000  0.000
  0.000  0.361  0.000  0.000  0.013
  0.000  0.000  0.361  0.013  0.000
  0.000  0.000  0.013  0.403  0.000
  0.000  0.013  0.000  0.000  0.403
   spin  2
    eigenvalues: 
  0.353  0.353  0.387  0.404  0.404
    eigenvectors:
  0.000  0.000  1.000  0.000  0.000
  0.217  0.693  0.000  0.067  0.023
  0.692  0.217  0.000  0.022  0.068
  0.067  0.023  0.000  0.241  0.669
  0.023  0.067  0.000  0.670  0.241
    occupations:
  0.387  0.000  0.000  0.000  0.000
  0.000  0.357  0.000  0.000  0.015
  0.000  0.000  0.357  0.015  0.000
  0.000  0.000  0.015  0.399  0.000
  0.000  0.015  0.000  0.000  0.399
atomic mag. moment =     0.014313
atom    5   Tr[ns(na)] (up, down, total) =   2.74468  2.70640  5.45108
   spin  1
    eigenvalues: 
  0.846  0.948  0.951
    eigenvectors:
  0.337  0.000  0.663
  0.508  0.244  0.248
  0.155  0.756  0.088
    occupations:
  0.916 -0.044  0.024
 -0.044  0.897  0.028
  0.024  0.028  0.932
   spin  2
    eigenvalues: 
  0.865  0.921  0.921
    eigenvectors:
  0.333  0.005  0.662
  0.514  0.190  0.297
  0.153  0.806  0.041
    occupations:
  0.902 -0.023  0.013
 -0.023  0.892  0.016
  0.013  0.016  0.912
atomic mag. moment =     0.038282
atom    6   Tr[ns(na)] (up, down, total) =   2.74214  2.70281  5.44495
   spin  1
    eigenvalues: 
  0.844  0.947  0.951
    eigenvectors:
  0.337  0.000  0.663
  0.487  0.254  0.259
  0.176  0.745  0.078
    occupations:
  0.915  0.044  0.026
  0.044  0.898 -0.030
  0.026 -0.030  0.929
   spin  2
    eigenvalues: 
  0.864  0.919  0.920
    eigenvectors:
  0.333  0.031  0.635
  0.486  0.378  0.136
  0.181  0.590  0.229
    occupations:
  0.901  0.022  0.014
  0.022  0.892 -0.016
  0.014 -0.016  0.909
atomic mag. moment =     0.039331
atom    7   Tr[ns(na)] (up, down, total) =   2.74214  2.70281  5.44495
   spin  1
    eigenvalues: 
  0.844  0.947  0.951
    eigenvectors:
  0.337  0.000  0.663
  0.000  1.000  0.000
  0.663  0.000  0.337
    occupations:
  0.915  0.001 -0.051
  0.001  0.947  0.001
 -0.051  0.001  0.880
   spin  2
    eigenvalues: 
  0.864  0.919  0.920
    eigenvectors:
  0.333  0.120  0.547
  0.000  0.809  0.190
  0.666  0.071  0.263
    occupations:
  0.901  0.001 -0.026
  0.001  0.919  0.001
 -0.026  0.001  0.882
atomic mag. moment =     0.039331
atom    8   Tr[ns(na)] (up, down, total) =   2.74202  2.70309  5.44510
   spin  1
    eigenvalues: 
  0.843  0.947  0.951
    eigenvectors:
  0.337  0.000  0.663
  0.508  0.244  0.248
  0.155  0.756  0.089
    occupations:
  0.915 -0.045  0.025
 -0.045  0.896  0.029
  0.025  0.029  0.932
   spin  2
    eigenvalues: 
  0.864  0.920  0.920
    eigenvectors:
  0.333  0.024  0.642
  0.514  0.139  0.347
  0.153  0.836  0.011
    occupations:
  0.901 -0.023  0.013
 -0.023  0.891  0.016
  0.013  0.016  0.911
atomic mag. moment =     0.038932
atom    9   Tr[ns(na)] (up, down, total) =   2.74209  2.70280  5.44489
   spin  1
    eigenvalues: 
  0.843  0.947  0.951
    eigenvectors:
  0.337  0.000  0.663
  0.487  0.254  0.259
  0.176  0.746  0.078
    occupations:
  0.915  0.044  0.026
  0.044  0.898 -0.030
  0.026 -0.030  0.929
   spin  2
    eigenvalues: 
  0.864  0.919  0.920
    eigenvectors:
  0.334  0.050  0.616
  0.485  0.405  0.110
  0.181  0.545  0.275
    occupations:
  0.901  0.022  0.014
  0.022  0.892 -0.016
  0.014 -0.016  0.909
atomic mag. moment =     0.039289
atom   10   Tr[ns(na)] (up, down, total) =   2.74209  2.70280  5.44489
   spin  1
    eigenvalues: 
  0.843  0.947  0.951
    eigenvectors:
  0.337  0.000  0.663
  0.000  1.000  0.000
  0.663  0.000  0.337
    occupations:
  0.915  0.001 -0.051
  0.001  0.947  0.001
 -0.051  0.001  0.880
   spin  2
    eigenvalues: 
  0.864  0.919  0.920
    eigenvectors:
  0.334  0.096  0.570
  0.000  0.846  0.154
  0.666  0.058  0.276
    occupations:
  0.901  0.001 -0.026
  0.001  0.919  0.001
 -0.026  0.001  0.882
atomic mag. moment =     0.039291
N of occupied +U levels =  56.1377670
 --- exit write_ns ---
 --- in v_hubbard ---
Hubbard energy   -0.0401
 -------

     total cpu time spent up to now is      482.0 secs

     total energy              =    -538.39547507 Ry
     Harris-Foulkes estimate   =    -538.39547504 Ry
     estimated scf accuracy    <       0.00000016 Ry

     total magnetization       =     3.54 Bohr mag/cell
     absolute magnetization    =     3.70 Bohr mag/cell

     iteration #  7     ecut=    30.00 Ry     beta=0.20
     Davidson diagonalization with overlap
     ethr =  2.09E-10,  avg # of iterations =  1.1
 --- enter write_ns ---
 LDA+U parameters:
U( 1)     =  0.00000000
alpha( 1) =  0.00000000
U( 2)     =  0.00000000
alpha( 2) =  0.00000000
U( 3)     =  0.00000000
alpha( 3) = -0.10000000
U( 4)     =  0.00000000
alpha( 4) =  0.00000000
atom    1   Tr[ns(na)] (up, down, total) =   4.56582  3.37254  7.93836
   spin  1
    eigenvalues: 
  0.785  0.785  0.999  0.999  0.999
    eigenvectors:
  0.000  0.000  0.000  0.001  0.999
  0.581  0.065  0.339  0.015  0.000
  0.065  0.581  0.015  0.339  0.000
  0.285  0.069  0.457  0.189  0.000
  0.068  0.285  0.189  0.456  0.000
    occupations:
  0.999  0.000  0.000  0.000  0.000
  0.000  0.861  0.000 -0.073  0.072
[...]
     0.0313   0.0313   0.0313   0.0312   0.0312   0.0312   0.0312   0.0312
     0.0312   0.0293   0.0274   0.0258   0.0118   0.0072   0.0004   0.0000
     0.0000   0.0000   0.0000   0.0000   0.0000   0.0000

          k = 0.4942-0.5706 0.1027 (  2198 PWs)   bands (ev):

   -19.6899 -19.6494  -6.8526  -6.5455  -6.0242  -5.7844  -5.3815  -5.2350
    -3.2593  -3.2088  -2.8180  -2.6414  -2.4612  -2.3174   5.9994   6.3970
     7.0175   7.2982   7.4028   7.4383   7.7128   7.9883   8.0941   8.2857
     8.5302   9.0737   9.3264   9.5081   9.8401   9.9666  10.1226  10.5093
    11.5965  12.0141  12.0654  12.1785  12.3168  12.3291  13.1335  13.4927
    14.1144  14.9820  16.9602  17.1758  17.3679  18.0690

     occupation numbers 
     0.0313   0.0313   0.0313   0.0313   0.0313   0.0313   0.0313   0.0313
     0.0313   0.0313   0.0313   0.0313   0.0313   0.0313   0.0313   0.0313
     0.0313   0.0313   0.0313   0.0313   0.0313   0.0313   0.0313   0.0313
     0.0313   0.0313   0.0313   0.0313   0.0313   0.0312   0.0312   0.0312
     0.0310   0.0259   0.0243   0.0202   0.0144   0.0138   0.0001   0.0000
     0.0000   0.0000   0.0000   0.0000   0.0000   0.0000

          k =-0.7412 0.1427-0.1027 (  2198 PWs)   bands (ev):

   -19.6899 -19.6494  -6.8521  -6.5464  -6.0232  -5.7856  -5.3805  -5.2355
    -3.2586  -3.2089  -2.8178  -2.6424  -2.4605  -2.3178   6.0018   6.3935
     7.0214   7.2913   7.3833   7.4536   7.7240   7.9876   8.1195   8.2554
     8.5334   9.0666   9.3309   9.5109   9.8431   9.9636  10.1224  10.5085
    11.5992  11.9860  12.0904  12.1778  12.3146  12.3312  13.1363  13.4930
    14.1144  14.9807  16.9580  17.1782  17.3674  18.0690

     occupation numbers 
     0.0313   0.0313   0.0313   0.0313   0.0313   0.0313   0.0313   0.0313
     0.0313   0.0313   0.0313   0.0313   0.0313   0.0313   0.0313   0.0313
     0.0313   0.0313   0.0313   0.0313   0.0313   0.0313   0.0313   0.0313
     0.0313   0.0313   0.0313   0.0313   0.0313   0.0312   0.0312   0.0312
     0.0310   0.0266   0.0235   0.0203   0.0145   0.0137   0.0001   0.0000
     0.0000   0.0000   0.0000   0.0000   0.0000   0.0000

          k = 0.2471-0.7133-0.1027 (  2198 PWs)   bands (ev):

   -19.6900 -19.6494  -6.8518  -6.5468  -6.0223  -5.7864  -5.3812  -5.2346
    -3.2587  -3.2090  -2.8174  -2.6433  -2.4605  -2.3175   6.0025   6.3936
     7.0230   7.2906   7.3791   7.4569   7.7244   7.9917   8.1158   8.2526
     8.5347   9.0674   9.3297   9.5083   9.8472   9.9619  10.1234  10.5081
    11.5992  11.9855  12.0906  12.1796  12.3134  12.3307  13.1364  13.4930
    14.1144  14.9806  16.9568  17.1802  17.3675  18.0694

     occupation numbers 
     0.0313   0.0313   0.0313   0.0313   0.0313   0.0313   0.0313   0.0313
     0.0313   0.0313   0.0313   0.0313   0.0313   0.0313   0.0313   0.0313
     0.0313   0.0313   0.0313   0.0313   0.0313   0.0313   0.0313   0.0313
     0.0313   0.0313   0.0313   0.0313   0.0313   0.0312   0.0312   0.0312
     0.0310   0.0266   0.0235   0.0202   0.0145   0.0138   0.0001   0.0000
     0.0000   0.0000   0.0000   0.0000   0.0000   0.0000

          k =-0.7412-0.1427 0.1027 (  2198 PWs)   bands (ev):

   -19.6900 -19.6494  -6.8523  -6.5459  -6.0234  -5.7851  -5.3822  -5.2340
    -3.2594  -3.2090  -2.8176  -2.6422  -2.4612  -2.3170   6.0001   6.3971
     7.0189   7.2969   7.3989   7.4420   7.7133   7.9921   8.0909   8.2830
     8.5313   9.0747   9.3252   9.5056   9.8439   9.9651  10.1236  10.5089
    11.5965  12.0139  12.0653  12.1800  12.3160  12.3284  13.1336  13.4927
    14.1143  14.9820  16.9590  17.1777  17.3681  18.0695

     occupation numbers 
     0.0313   0.0313   0.0313   0.0313   0.0313   0.0313   0.0313   0.0313
     0.0313   0.0313   0.0313   0.0313   0.0313   0.0313   0.0313   0.0313
     0.0313   0.0313   0.0313   0.0313   0.0313   0.0313   0.0313   0.0313
     0.0313   0.0313   0.0313   0.0313   0.0313   0.0312   0.0312   0.0312
     0.0310   0.0259   0.0244   0.0202   0.0144   0.0139   0.0001   0.0000
     0.0000   0.0000   0.0000   0.0000   0.0000   0.0000

          k = 0.2471 0.7133 0.1027 (  2198 PWs)   bands (ev):

   -19.6891 -19.6490  -6.8615  -6.5438  -6.0327  -5.7677  -5.3722  -5.2456
    -3.2602  -3.2092  -2.8164  -2.6441  -2.4621  -2.3200   6.0121   6.3852
     7.0327   7.3043   7.4056   7.4505   7.7032   7.9854   8.0917   8.2882
     8.5223   9.0782   9.3133   9.5008   9.8452   9.9623  10.1210  10.5158
    11.5975  12.0125  12.0652  12.1798  12.3172  12.3260  13.1328  13.4949
    14.1125  14.9821  16.9603  17.1775  17.3686  18.0698

     occupation numbers 
     0.0313   0.0313   0.0313   0.0313   0.0313   0.0313   0.0313   0.0313
     0.0313   0.0313   0.0313   0.0313   0.0313   0.0313   0.0313   0.0313
     0.0313   0.0313   0.0313   0.0313   0.0313   0.0313   0.0313   0.0313
     0.0313   0.0313   0.0313   0.0313   0.0313   0.0312   0.0312   0.0312
     0.0310   0.0259   0.0244   0.0202   0.0143   0.0140   0.0001   0.0000
     0.0000   0.0000   0.0000   0.0000   0.0000   0.0000

          k = 0.2471-0.4280 0.0000 (  2203 PWs)   bands (ev):

   -19.6992 -19.6417  -6.7475  -6.5330  -5.9514  -5.8631  -5.3000  -5.2267
    -3.4652  -3.2534  -2.7388  -2.6477  -2.5055  -2.4875   5.9644   6.4064
     7.2455   7.3847   7.4253   7.5080   7.5595   7.8947   8.0107   8.3677
     8.6240   9.1003   9.5596   9.6705   9.9280   9.9425  10.2037  10.5222
    11.8609  11.8743  11.9430  12.1342  12.1545  12.4303  13.1023  13.9685
    14.0885  14.7882  16.4995  17.0484  17.4656  17.9717

     occupation numbers 
     0.0313   0.0313   0.0313   0.0313   0.0313   0.0313   0.0313   0.0313
     0.0313   0.0313   0.0313   0.0313   0.0313   0.0313   0.0313   0.0313
     0.0313   0.0313   0.0313   0.0313   0.0313   0.0313   0.0313   0.0313
     0.0313   0.0313   0.0313   0.0313   0.0312   0.0312   0.0312   0.0312
     0.0291   0.0289   0.0276   0.0219   0.0212   0.0097   0.0001   0.0000
     0.0000   0.0000   0.0000   0.0000   0.0000   0.0000

          k =-0.4942 0.0000 0.0000 (  2203 PWs)   bands (ev):

   -19.6992 -19.6417  -6.7475  -6.5329  -5.9514  -5.8631  -5.3000  -5.2267
    -3.4651  -3.2534  -2.7388  -2.6477  -2.5056  -2.4874   5.9644   6.4064
     7.2457   7.3817   7.4306   7.5059   7.5587   7.8946   8.0108   8.3680
     8.6240   9.1003   9.5595   9.6706   9.9294   9.9412  10.2038  10.5222
    11.8602  11.8749  11.9428  12.1341  12.1547  12.4303  13.1023  13.9685
    14.0886  14.7882  16.4995  17.0484  17.4656  17.9717

     occupation numbers 
     0.0313   0.0313   0.0313   0.0313   0.0313   0.0313   0.0313   0.0313
     0.0313   0.0313   0.0313   0.0313   0.0313   0.0313   0.0313   0.0313
     0.0313   0.0313   0.0313   0.0313   0.0313   0.0313   0.0313   0.0313
     0.0313   0.0313   0.0313   0.0313   0.0312   0.0312   0.0312   0.0312
     0.0291   0.0289   0.0276   0.0220   0.0212   0.0097   0.0001   0.0000
     0.0000   0.0000   0.0000   0.0000   0.0000   0.0000

          k = 0.4942 0.2853 0.4107 (  2202 PWs)   bands (ev):

   -19.6972 -19.6403  -7.0628  -6.3589  -6.1394  -5.8441  -5.4149  -5.1341
    -3.1496  -3.0875  -2.9881  -2.5847  -2.4091  -2.1542   5.9216   6.5093
     6.5934   7.2004   7.2371   7.3072   8.0662   8.1415   8.2469   8.3635
     8.6966   8.8416   8.8615   9.5411   9.7701  10.1471  10.1695  10.5885
    11.2030  11.8813  12.0052  12.2281  12.3682  12.4414  12.8623  13.2531
    14.0409  15.4093  17.0875  17.3377  17.5664  17.6329

     occupation numbers 
     0.0156   0.0156   0.0156   0.0156   0.0156   0.0156   0.0156   0.0156
     0.0156   0.0156   0.0156   0.0156   0.0156   0.0156   0.0156   0.0156
     0.0156   0.0156   0.0156   0.0156   0.0156   0.0156   0.0156   0.0156
     0.0156   0.0156   0.0156   0.0156   0.0156   0.0156   0.0156   0.0156
     0.0156   0.0144   0.0131   0.0091   0.0061   0.0046   0.0004   0.0000
     0.0000   0.0000   0.0000   0.0000   0.0000   0.0000

          k = 0.0000 0.5706-0.4107 (  2202 PWs)   bands (ev):

   -19.6972 -19.6403  -7.0628  -6.3589  -6.1395  -5.8441  -5.4148  -5.1341
    -3.1496  -3.0875  -2.9881  -2.5847  -2.4091  -2.1542   5.9216   6.5093
     6.5934   7.2003   7.2371   7.3072   8.0668   8.1409   8.2468   8.3636
     8.6966   8.8417   8.8614   9.5411   9.7701  10.1471  10.1695  10.5885
    11.2030  11.8813  12.0055  12.2274  12.3687  12.4414  12.8623  13.2531
    14.0409  15.4093  17.0875  17.3376  17.5664  17.6330

     occupation numbers 
     0.0156   0.0156   0.0156   0.0156   0.0156   0.0156   0.0156   0.0156
     0.0156   0.0156   0.0156   0.0156   0.0156   0.0156   0.0156   0.0156
     0.0156   0.0156   0.0156   0.0156   0.0156   0.0156   0.0156   0.0156
     0.0156   0.0156   0.0156   0.0156   0.0156   0.0156   0.0156   0.0156
     0.0156   0.0144   0.0131   0.0091   0.0061   0.0046   0.0004   0.0000
     0.0000   0.0000   0.0000   0.0000   0.0000   0.0000

          k = 0.7412-0.4280 0.0000 (  2204 PWs)   bands (ev):

   -19.6991 -19.6414  -6.6271  -6.5052  -6.0367  -5.7136  -5.5467  -5.4224
    -3.1135  -3.0342  -2.9949  -2.6108  -2.5943  -2.5141   6.0011   6.6015
     7.2508   7.4192   7.4307   7.5179   7.5628   7.8549   8.1947   8.3557
     8.6779   8.9607   9.6165   9.6548   9.7547   9.8214  10.0247  10.3712
    11.8558  11.8810  12.0065  12.1494  12.1996  12.3917  13.0966  13.8941
    14.0119  14.8130  16.7601  16.7712  17.6379  17.8540

     occupation numbers 
     0.0313   0.0313   0.0313   0.0313   0.0313   0.0313   0.0313   0.0313
     0.0313   0.0313   0.0313   0.0313   0.0313   0.0313   0.0313   0.0313
     0.0313   0.0313   0.0313   0.0313   0.0313   0.0313   0.0313   0.0313
     0.0313   0.0313   0.0313   0.0313   0.0313   0.0313   0.0312   0.0312
     0.0291   0.0288   0.0261   0.0214   0.0194   0.0112   0.0001   0.0000
     0.0000   0.0000   0.0000   0.0000   0.0000   0.0000

          k = 0.0000-0.8559 0.0000 (  2204 PWs)   bands (ev):

   -19.6989 -19.6415  -6.6316  -6.4967  -6.0414  -5.7171  -5.5525  -5.4117
    -3.1122  -3.0343  -2.9949  -2.6126  -2.5971  -2.5116   6.0119   6.5927
     7.2575   7.4141   7.4267   7.5256   7.5611   7.8480   8.1939   8.3455
     8.6678   8.9756   9.6306   9.6561   9.7532   9.8221  10.0253  10.3672
    11.8549  11.8791  12.0054  12.1491  12.1980  12.3939  13.0952  13.8941
    14.0123  14.8143  16.7616  16.7702  17.6366  17.8536

     occupation numbers 
     0.0313   0.0313   0.0313   0.0313   0.0313   0.0313   0.0313   0.0313
     0.0313   0.0313   0.0313   0.0313   0.0313   0.0313   0.0313   0.0313
     0.0313   0.0313   0.0313   0.0313   0.0313   0.0313   0.0313   0.0313
     0.0313   0.0313   0.0313   0.0313   0.0313   0.0313   0.0312   0.0312
     0.0292   0.0288   0.0261   0.0214   0.0194   0.0111   0.0001   0.0000
     0.0000   0.0000   0.0000   0.0000   0.0000   0.0000

          k = 0.4942-0.2853-0.1027 (  2211 PWs)   bands (ev):

   -19.6892 -19.6490  -6.8772  -6.4410  -6.2224  -5.5700  -5.4941  -5.2175
    -3.2725  -3.1209  -2.9706  -2.5426  -2.4938  -2.3119   6.0399   6.3544
     7.0029   7.3011   7.3295   7.4447   7.7141   8.0261   8.1902   8.2183
     8.5729   9.1999   9.3223   9.5636   9.7176   9.8089  10.1779  10.5309
    11.5981  12.0335  12.1311  12.1982  12.2594  12.2737  13.0991  13.5045
    14.1567  14.9655  16.9463  16.9829  17.6479  17.9853

     occupation numbers 
     0.0313   0.0313   0.0313   0.0313   0.0313   0.0313   0.0313   0.0313
     0.0313   0.0313   0.0313   0.0313   0.0313   0.0313   0.0313   0.0313
     0.0313   0.0313   0.0313   0.0313   0.0313   0.0313   0.0313   0.0313
     0.0313   0.0313   0.0313   0.0313   0.0313   0.0313   0.0312   0.0312
     0.0310   0.0253   0.0221   0.0194   0.0168   0.0162   0.0001   0.0000
     0.0000   0.0000   0.0000   0.0000   0.0000   0.0000

          k = 0.0000-0.5706 0.1027 (  2211 PWs)   bands (ev):

   -19.6900 -19.6494  -6.8685  -6.4424  -6.2208  -5.5748  -5.5068  -5.2083
    -3.2724  -3.1208  -2.9703  -2.5409  -2.4936  -2.3090   6.0281   6.3672
     6.9889   7.2941   7.3239   7.4392   7.7187   8.0314   8.1920   8.2154
     8.5805   9.1925   9.3337   9.5609   9.7161   9.8240  10.1796  10.5229
    11.5971  12.0349  12.1313  12.1996  12.2598  12.2729  13.0999  13.5024
    14.1585  14.9654  16.9457  16.9833  17.6482  17.9851

     occupation numbers 
     0.0313   0.0313   0.0313   0.0313   0.0313   0.0313   0.0313   0.0313
     0.0313   0.0313   0.0313   0.0313   0.0313   0.0313   0.0313   0.0313
     0.0313   0.0313   0.0313   0.0313   0.0313   0.0313   0.0313   0.0313
     0.0313   0.0313   0.0313   0.0313   0.0313   0.0313   0.0312   0.0312
     0.0310   0.0253   0.0221   0.0194   0.0168   0.0163   0.0001   0.0000
     0.0000   0.0000   0.0000   0.0000   0.0000   0.0000

          k = 0.7412 0.4280 0.3080 (  2210 PWs)   bands (ev):

   -19.6897 -19.6492  -6.8039  -6.3488  -6.1976  -5.6870  -5.6382  -5.3412
    -3.0182  -2.9933  -2.9170  -2.6674  -2.5489  -2.3610   6.0912   6.5258
     7.0723   7.2783   7.3729   7.3920   7.7376   8.0763   8.2153   8.2526
     8.5775   9.1588   9.1813   9.6681   9.6999   9.7606   9.8223  10.3617
    11.6472  12.0392  12.1174  12.1854  12.2943  12.3464  13.0623  13.4617
    14.1107  14.9319  17.1193  17.1297  17.6155  17.9547

     occupation numbers 
     0.0313   0.0313   0.0313   0.0313   0.0313   0.0313   0.0313   0.0313
     0.0313   0.0313   0.0313   0.0313   0.0313   0.0313   0.0313   0.0313
     0.0313   0.0313   0.0313   0.0313   0.0313   0.0313   0.0313   0.0313
     0.0313   0.0313   0.0313   0.0313   0.0313   0.0313   0.0313   0.0312
     0.0308   0.0252   0.0226   0.0199   0.0153   0.0131   0.0001   0.0000
     0.0000   0.0000   0.0000   0.0000   0.0000   0.0000

          k = 0.0000 0.8559-0.3080 (  2210 PWs)   bands (ev):

   -19.6897 -19.6492  -6.8039  -6.3488  -6.1976  -5.6870  -5.6382  -5.3412
    -3.0182  -2.9933  -2.9170  -2.6674  -2.5489  -2.3611   6.0912   6.5259
     7.0722   7.2789   7.3715   7.3928   7.7375   8.0759   8.2121   8.2571
     8.5767   9.1584   9.1817   9.6680   9.6998   9.7604   9.8227  10.3618
    11.6472  12.0394  12.1171  12.1854  12.2942  12.3466  13.0623  13.4617
    14.1107  14.9319  17.1192  17.1298  17.6155  17.9546

     occupation numbers 
     0.0313   0.0313   0.0313   0.0313   0.0313   0.0313   0.0313   0.0313
     0.0313   0.0313   0.0313   0.0313   0.0313   0.0313   0.0313   0.0313
     0.0313   0.0313   0.0313   0.0313   0.0313   0.0313   0.0313   0.0313
     0.0313   0.0313   0.0313   0.0313   0.0313   0.0313   0.0313   0.0312
     0.0308   0.0252   0.0226   0.0199   0.0153   0.0131   0.0001   0.0000
     0.0000   0.0000   0.0000   0.0000   0.0000   0.0000

          k = 0.2471 0.7133-0.2053 (  2206 PWs)   bands (ev):

   -19.6685 -19.6681  -6.7904  -6.7767  -5.9379  -5.9179  -5.2933  -5.2797
    -3.1116  -3.1110  -2.7520  -2.7486  -2.3183  -2.3145   6.2063   6.2392
     7.1592   7.1697   7.3337   7.3450   7.5631   7.5828   8.4075   8.4545
     8.9084   8.9238   9.2206   9.2305   9.6876   9.7029  10.2606  10.2703
    11.8538  11.8631  12.0247  12.0670  12.3391  12.3638  13.1227  13.1421
    14.6444  14.6596  17.4978  17.4988  17.9126  17.9163

     occupation numbers 
     0.0313   0.0313   0.0313   0.0313   0.0313   0.0313   0.0313   0.0313
     0.0313   0.0313   0.0313   0.0313   0.0313   0.0313   0.0313   0.0313
     0.0313   0.0313   0.0313   0.0313   0.0313   0.0313   0.0313   0.0313
     0.0313   0.0313   0.0313   0.0313   0.0313   0.0313   0.0312   0.0312
     0.0292   0.0290   0.0256   0.0243   0.0134   0.0124   0.0001   0.0000
     0.0000   0.0000   0.0000   0.0000   0.0000   0.0000

          k =-0.7412-0.1427-0.2053 (  2206 PWs)   bands (ev):

   -19.6690 -19.6689  -6.7891  -6.7656  -5.9371  -5.9355  -5.2945  -5.2728
    -3.1114  -3.1099  -2.7521  -2.7510  -2.3183  -2.3085   6.2074   6.2399
     7.1529   7.1596   7.3151   7.3446   7.5602   7.5747   8.4196   8.4623
     8.9248   8.9279   9.2216   9.2228   9.7013   9.7086  10.2580  10.2616
    11.8513  11.8606  12.0249  12.0667  12.3409  12.3651  13.1221  13.1410
    14.6453  14.6611  17.4983  17.4991  17.9123  17.9145

     occupation numbers 
     0.0313   0.0313   0.0313   0.0313   0.0313   0.0313   0.0313   0.0313
     0.0313   0.0313   0.0313   0.0313   0.0313   0.0313   0.0313   0.0313
     0.0313   0.0313   0.0313   0.0313   0.0313   0.0313   0.0313   0.0313
     0.0313   0.0313   0.0313   0.0313   0.0313   0.0313   0.0312   0.0312
     0.0292   0.0291   0.0256   0.0243   0.0133   0.0123   0.0001   0.0000
     0.0000   0.0000   0.0000   0.0000   0.0000   0.0000

     the Fermi energy is    12.2875 ev

!    total energy              =    -538.39547516 Ry
     Harris-Foulkes estimate   =    -538.39547513 Ry
     estimated scf accuracy    <          9.0E-09 Ry

     The total energy is the sum of the following terms:

     one-electron contribution =     -32.74861839 Ry
     hartree contribution      =      83.53092893 Ry
     xc contribution           =    -199.65461411 Ry
     ewald contribution        =    -389.44315552 Ry
     Hubbard energy            =      -0.04006437 Ry
     smearing contrib. (-TS)   =      -0.03995169 Ry

     total magnetization       =     3.54 Bohr mag/cell
     absolute magnetization    =     3.70 Bohr mag/cell

     convergence has been achieved in   9 iterations

     init_run     :      8.13s CPU      8.32s WALL (       1 calls)
     electrons    :    630.67s CPU    635.11s WALL (       1 calls)

     Called by init_run:
     wfcinit      :      0.00s CPU      0.00s WALL (       1 calls)
     potinit      :      0.86s CPU      0.91s WALL (       1 calls)

     Called by electrons:
     c_bands      :    501.64s CPU    503.12s WALL (       9 calls)
     sum_band     :    102.82s CPU    103.67s WALL (       9 calls)
     v_of_rho     :      7.29s CPU      7.35s WALL (      10 calls)
     v_h          :      0.18s CPU      0.18s WALL (      10 calls)
     v_xc         :      7.11s CPU      7.17s WALL (      10 calls)
     newd         :     20.62s CPU     20.66s WALL (      10 calls)
     mix_rho      :      0.51s CPU      0.51s WALL (       9 calls)

     Called by c_bands:
     init_us_2    :      4.86s CPU      4.90s WALL (    1296 calls)
     cegterg      :    487.89s CPU    488.59s WALL (     648 calls)

     Called by sum_band:
     sum_band:bec :      0.48s CPU      0.49s WALL (     648 calls)
     addusdens    :     19.87s CPU     19.90s WALL (       9 calls)

     Called by *egterg:
     h_psi        :    355.29s CPU    355.87s WALL (    2939 calls)
     s_psi        :     20.31s CPU     20.31s WALL (    2939 calls)
     g_psi        :      1.56s CPU      1.53s WALL (    2291 calls)
     cdiaghg      :     43.83s CPU     43.88s WALL (    2867 calls)
     cegterg:over :     24.61s CPU     24.63s WALL (    2291 calls)
     cegterg:upda :     17.93s CPU     17.95s WALL (    2291 calls)
     cegterg:last :     10.88s CPU     10.87s WALL (     720 calls)

     Called by h_psi:
     h_psi:vloc   :    289.44s CPU    289.94s WALL (    2939 calls)
     h_psi:vnl    :     42.00s CPU     42.06s WALL (    2939 calls)
     add_vuspsi   :     20.48s CPU     20.51s WALL (    2939 calls)
     vhpsi        :     22.94s CPU     22.95s WALL (    2939 calls)

     General routines
     calbec       :     43.79s CPU     43.79s WALL (    7174 calls)
     fft          :      3.14s CPU      3.17s WALL (     298 calls)
     ffts         :      0.10s CPU      0.10s WALL (      38 calls)
     fftw         :    271.17s CPU    271.65s WALL (  180074 calls)
     interpolate  :      0.60s CPU      0.60s WALL (      38 calls)
     davcio       :      0.02s CPU      1.50s WALL (    1368 calls)

     Parallel routines
     fft_scatter  :     69.99s CPU     70.53s WALL (  180410 calls)
     Hubbard U routines
     new_ns       :      4.29s CPU      4.95s WALL (       9 calls)
     vhpsi        :     22.94s CPU     22.95s WALL (    2939 calls)

     PWSCF        : 10m39.22s CPU    10m44.31s WALL


   This run was terminated on:  12:49:10  13Nov2012            

=------------------------------------------------------------------------------=
