   JOB DONE.
=------------------------------------------------------------------------------=

     Program PWSCF v.5.0.1 starts on 13Nov2012 at 13:11:15 

     This program is part of the open-source Quantum ESPRESSO suite
     for quantum simulation of materials; please cite
         "P. Giannozzi et al., J. Phys.:Condens. Matter 21 395502 (2009);
          URL http://www.quantum-espresso.org", 
     in publications or presentations arising from this work. More details at
     http://www.quantum-espresso.org/quote.php

     Parallel version (MPI), running on     2 processors
     R & G space division:  proc/pool =    2

     Current dimensions of program PWSCF are:
     Max number of different atomic species (ntypx) = 10
     Max number of k-points (npk) =  40000
     Max angular momentum in pseudopotentials (lmaxx) =  3
     Reading input from CoLaO_U0_a10.in
               file Co.pbe-nd-rrkjus.UPF: wavefunction(s)  4S 3D renormalized
               file O.pbe-rrkjus.UPF: wavefunction(s)  2S renormalized
               file O.pbe-rrkjus.UPF: wavefunction(s)  2S renormalized

     Subspace diagonalization in iterative solution of the eigenvalue problem:
     a serial algorithm will be used


     Parallelization info
     --------------------
     sticks:   dense  smooth     PW     G-vecs:    dense   smooth      PW
     Min        1112     444    131                34808     8786    1448
     Max        1113     445    132                34809     8787    1449
     Sum        2225     889    263                69617    17573    2897


     Title: 
     GGA + U, U = 1D-40, alpha = 0.100                                          


     bravais-lattice index     =            5
     lattice parameter (alat)  =      10.3292  a.u.
     unit-cell volume          =     793.0599 (a.u.)^3
     number of atoms/cell      =           10
     number of atomic types    =            4
     number of electrons       =        76.00
     number of Kohn-Sham states=           46
     kinetic-energy cutoff     =      30.0000  Ry
     charge density cutoff     =     300.0000  Ry
     convergence threshold     =      1.0E-08
     mixing beta               =       0.2000
     number of iterations used =            8  plain     mixing
     Exchange-correlation      =  SLA  PW   PBE  PBE ( 1 4 3 4 0)
     EXX-fraction              =        0.00

     celldm(1)=  10.329242  celldm(2)=   0.000000  celldm(3)=   0.000000
     celldm(4)=   0.488100  celldm(5)=   0.000000  celldm(6)=   0.000000

     crystal axes: (cart. coord. in units of alat)
               a(1) = (   0.505915  -0.292090   0.811624 )  
               a(2) = (   0.000000   0.584180   0.811624 )  
               a(3) = (  -0.505915  -0.292090   0.811624 )  

     reciprocal axes: (cart. coord. in units 2 pi/alat)
               b(1) = (  0.988308 -0.570600  0.410699 )  
               b(2) = (  0.000000  1.141200  0.410699 )  
               b(3) = ( -0.988308 -0.570600  0.410699 )  


     PseudoPot. # 1 for Co read from file:
     /home/mcurnan/dft-course/Project1/example_LaCoO3/Co.pbe-nd-rrkjus.UPF
     MD5 check sum: 3e47a84addf5e975e0edeaeee2a73f59
     Pseudo is Ultrasoft + core correction, Zval =  9.0
     Generated by new atomic code, or converted to UPF format
     Using radial grid of  961 points,  6 beta functions with: 
                l(1) =   0
                l(2) =   0
                l(3) =   1
                l(4) =   1
                l(5) =   2
                l(6) =   2
     Q(r) pseudized with 0 coefficients 


     PseudoPot. # 2 for La read from file:
     /home/mcurnan/dft-course/Project1/example_LaCoO3/La.pbe-nsp-van.UPF
     MD5 check sum: b2f11743f52dde65f77d1302becd7929
     Pseudo is Ultrasoft + core correction, Zval = 11.0
     Generated by new atomic code, or converted to UPF format
     Using radial grid of  907 points,  6 beta functions with: 
                l(1) =   0
                l(2) =   0
                l(3) =   1
                l(4) =   1
                l(5) =   2
                l(6) =   2
     Q(r) pseudized with  6 coefficients,  rinner =    1.200   1.200   1.200
                                                       1.200   1.200

     PseudoPot. # 3 for O  read from file:
     /home/mcurnan/dft-course/Project1/example_LaCoO3/O.pbe-rrkjus.UPF
     MD5 check sum: 390ba29e75625707450f3bd3f0eb6be9
     Pseudo is Ultrasoft, Zval =  6.0
     Generated by new atomic code, or converted to UPF format
     Using radial grid of 1269 points,  4 beta functions with: 
                l(1) =   0
                l(2) =   0
                l(3) =   1
                l(4) =   1
     Q(r) pseudized with 0 coefficients 


     PseudoPot. # 4 for O  read from file:
     /home/mcurnan/dft-course/Project1/example_LaCoO3/O.pbe-rrkjus.UPF
     MD5 check sum: 390ba29e75625707450f3bd3f0eb6be9
     Pseudo is Ultrasoft, Zval =  6.0
     Generated by new atomic code, or converted to UPF format
     Using radial grid of 1269 points,  4 beta functions with: 
                l(1) =   0
                l(2) =   0
                l(3) =   1
                l(4) =   1
     Q(r) pseudized with 0 coefficients 


     atomic species   valence    mass     pseudopotential
        Co1            9.00     1.00000     Co( 1.00)
        La1           11.00     1.00000     La( 1.00)
        O1             6.00     1.00000     O ( 1.00)
        O2             6.00     1.00000     O ( 1.00)

     Starting magnetic structure 
     atomic species   magnetization
        Co1          1.000
        La1          0.000
        O1           0.000
        O2           0.000
 -----
     simplified LDA+U calculation, Hubbard_lmax = 2
     atomic species  L   Hubbard U  Hubbard alpha
        Co1          2    0.000000    0.000000
        La1          2    0.000000    0.000000
        O1           1    0.000000    0.100000
        O2           1    0.000000    0.000000
 -----

     No symmetry found


                                    s                        frac. trans.

      isym =  1     identity                                     

 cryst.   s( 1) = (     1          0          0      )
                  (     0          1          0      )
                  (     0          0          1      )

 cart.    s( 1) = (  1.0000000  0.0000000  0.0000000 )
                  (  0.0000000  1.0000000  0.0000000 )
                  (  0.0000000  0.0000000  1.0000000 )


     point group C_1 (1)    
     there are  1 classes
     the character table:

       E    
A      1.00

     the symmetry operations in each class:
     E        1

   Cartesian axes

     site n.     atom                  positions (alat units)
         1           Co1 tau(   1) = (   0.2228050  -0.1992639   1.0141240  )
         2           Co1 tau(   2) = (  -0.2831100   0.0928263   1.4199360  )
         3           La1 tau(   3) = (  -0.2831100   0.0928263   0.8112181  )
         4           La1 tau(   4) = (   0.2228050   0.3849164   1.2170300  )
         5           O1  tau(   5) = (   0.0000000   0.0000000   0.0000000  )
         6           O2  tau(   6) = (   0.0008601   0.1861491   1.6232478  )
         7           O2  tau(   7) = (   0.1616398   0.0923297   0.8116239  )
         8           O2  tau(   8) = (  -0.0603051  -0.1064377   1.2166242  )
         9           O2  tau(   9) = (   0.4447499  -0.0004966   1.2166242  )
        10           O2  tau(  10) = (  -0.2219449   0.3854130   1.2166242  )

   Crystallographic axes

     site n.     atom                  positions (cryst. coord.)
         1           Co1 tau(   1) = (  0.7504000  0.1891000  0.3100000  )
         2           Co1 tau(   2) = (  0.2504000  0.6891000  0.8100000  )
         3           La1 tau(   3) = (  0.0004000  0.4391000  0.5600000  )
         4           La1 tau(   4) = (  0.5004000  0.9391000  0.0600000  )
         5           O1  tau(   5) = (  0.0000000  0.0000000  0.0000000  )
         6           O2  tau(   6) = (  0.5613000  0.8791000  0.5596000  )
         7           O2  tau(   7) = (  0.4404000  0.4387000  0.1209000  )
         8           O2  tau(   8) = (  0.5008000  0.3782000  0.6200000  )
         9           O2  tau(   9) = (  0.9395000  0.4991000  0.0604000  )
        10           O2  tau(  10) = (  0.0604000  0.9395000  0.4991000  )

     number of k points=    72  gaussian smearing, width (Ry)=  0.0300
                       cart. coord. in units 2pi/alat
        k(    1) = (   0.0000000   0.0000000   0.0000000), wk =   0.0156250
        k(    2) = (  -0.2470771  -0.1426500   0.1026748), wk =   0.0312500
        k(    3) = (   0.4941541   0.2853000  -0.2053496), wk =   0.0156250
        k(    4) = (  -0.2470771   0.1426500   0.2053496), wk =   0.0312500
        k(    5) = (   0.4941541   0.5706001  -0.1026748), wk =   0.0312500
        k(    6) = (   0.2470771   0.4279500   0.0000000), wk =   0.0312500
        k(    7) = (   0.4941541  -0.2853000  -0.4106993), wk =   0.0156250
        k(    8) = (   0.0000000   0.0000000   0.3080244), wk =   0.0312500
        k(    9) = (   0.7412312   0.4279500   0.0000000), wk =   0.0312500
        k(   10) = (   0.4941541   0.2853000   0.1026748), wk =   0.0312500
        k(   11) = (   0.7412312  -0.4279500  -0.3080244), wk =   0.0312500
        k(   12) = (   0.4941541  -0.5706001  -0.2053496), wk =   0.0312500
        k(   13) = (   0.0000000   0.0000000  -0.6160489), wk =   0.0156250
        k(   14) = (  -0.2470771   0.1426500  -0.1026748), wk =   0.0312500
        k(   15) = (   0.0000000   0.2853000   0.1026748), wk =   0.0312500
        k(   16) = (   0.4941541  -0.2853000   0.2053496), wk =   0.0156250
        k(   17) = (   0.0000000  -0.5706001  -0.2053496), wk =   0.0156250
        k(   18) = (  -0.2470771  -0.1426500  -0.2053496), wk =   0.0312500
        k(   19) = (   0.0000000  -0.2853000   0.2053496), wk =   0.0312500
        k(   20) = (   0.4941541  -0.5706001   0.1026748), wk =   0.0312500
        k(   21) = (  -0.7412312   0.1426500  -0.1026748), wk =   0.0312500
        k(   22) = (   0.2470771  -0.7132501  -0.1026748), wk =   0.0312500
        k(   23) = (  -0.7412312  -0.1426500   0.1026748), wk =   0.0312500
        k(   24) = (   0.2470771   0.7132501   0.1026748), wk =   0.0312500
        k(   25) = (   0.2470771  -0.4279500   0.0000000), wk =   0.0312500
        k(   26) = (  -0.4941541   0.0000000   0.0000000), wk =   0.0312500
        k(   27) = (   0.4941541   0.2853000   0.4106993), wk =   0.0156250
        k(   28) = (   0.0000000   0.5706001  -0.4106993), wk =   0.0156250
        k(   29) = (   0.7412312  -0.4279500   0.0000000), wk =   0.0312500
        k(   30) = (   0.0000000  -0.8559001   0.0000000), wk =   0.0312500
        k(   31) = (   0.4941541  -0.2853000  -0.1026748), wk =   0.0312500
        k(   32) = (   0.0000000  -0.5706001   0.1026748), wk =   0.0312500
        k(   33) = (   0.7412312   0.4279500   0.3080244), wk =   0.0312500
        k(   34) = (   0.0000000   0.8559001  -0.3080244), wk =   0.0312500
        k(   35) = (   0.2470771   0.7132501  -0.2053496), wk =   0.0312500
        k(   36) = (  -0.7412312  -0.1426500  -0.2053496), wk =   0.0312500
        k(   37) = (   0.0000000   0.0000000   0.0000000), wk =   0.0156250
        k(   38) = (  -0.2470771  -0.1426500   0.1026748), wk =   0.0312500
        k(   39) = (   0.4941541   0.2853000  -0.2053496), wk =   0.0156250
        k(   40) = (  -0.2470771   0.1426500   0.2053496), wk =   0.0312500
        k(   41) = (   0.4941541   0.5706001  -0.1026748), wk =   0.0312500
        k(   42) = (   0.2470771   0.4279500   0.0000000), wk =   0.0312500
        k(   43) = (   0.4941541  -0.2853000  -0.4106993), wk =   0.0156250
        k(   44) = (   0.0000000   0.0000000   0.3080244), wk =   0.0312500
        k(   45) = (   0.7412312   0.4279500   0.0000000), wk =   0.0312500
        k(   46) = (   0.4941541   0.2853000   0.1026748), wk =   0.0312500
        k(   47) = (   0.7412312  -0.4279500  -0.3080244), wk =   0.0312500
        k(   48) = (   0.4941541  -0.5706001  -0.2053496), wk =   0.0312500
        k(   49) = (   0.0000000   0.0000000  -0.6160489), wk =   0.0156250
        k(   50) = (  -0.2470771   0.1426500  -0.1026748), wk =   0.0312500
        k(   51) = (   0.0000000   0.2853000   0.1026748), wk =   0.0312500
        k(   52) = (   0.4941541  -0.2853000   0.2053496), wk =   0.0156250
        k(   53) = (   0.0000000  -0.5706001  -0.2053496), wk =   0.0156250
        k(   54) = (  -0.2470771  -0.1426500  -0.2053496), wk =   0.0312500
        k(   55) = (   0.0000000  -0.2853000   0.2053496), wk =   0.0312500
        k(   56) = (   0.4941541  -0.5706001   0.1026748), wk =   0.0312500
        k(   57) = (  -0.7412312   0.1426500  -0.1026748), wk =   0.0312500
        k(   58) = (   0.2470771  -0.7132501  -0.1026748), wk =   0.0312500
        k(   59) = (  -0.7412312  -0.1426500   0.1026748), wk =   0.0312500
        k(   60) = (   0.2470771   0.7132501   0.1026748), wk =   0.0312500
        k(   61) = (   0.2470771  -0.4279500   0.0000000), wk =   0.0312500
        k(   62) = (  -0.4941541   0.0000000   0.0000000), wk =   0.0312500
        k(   63) = (   0.4941541   0.2853000   0.4106993), wk =   0.0156250
        k(   64) = (   0.0000000   0.5706001  -0.4106993), wk =   0.0156250
        k(   65) = (   0.7412312  -0.4279500   0.0000000), wk =   0.0312500
        k(   66) = (   0.0000000  -0.8559001   0.0000000), wk =   0.0312500
        k(   67) = (   0.4941541  -0.2853000  -0.1026748), wk =   0.0312500
        k(   68) = (   0.0000000  -0.5706001   0.1026748), wk =   0.0312500
        k(   69) = (   0.7412312   0.4279500   0.3080244), wk =   0.0312500
        k(   70) = (   0.0000000   0.8559001  -0.3080244), wk =   0.0312500
        k(   71) = (   0.2470771   0.7132501  -0.2053496), wk =   0.0312500
        k(   72) = (  -0.7412312  -0.1426500  -0.2053496), wk =   0.0312500

                       cryst. coord.
        k(    1) = (   0.0000000   0.0000000   0.0000000), wk =   0.0156250
        k(    2) = (   0.0000000   0.0000000   0.2500000), wk =   0.0312500
        k(    3) = (   0.0000000   0.0000000  -0.5000000), wk =   0.0156250
        k(    4) = (   0.0000000   0.2500000   0.2500000), wk =   0.0312500
        k(    5) = (   0.0000000   0.2500000  -0.5000000), wk =   0.0312500
        k(    6) = (   0.0000000   0.2500000  -0.2500000), wk =   0.0312500
        k(    7) = (   0.0000000  -0.5000000  -0.5000000), wk =   0.0156250
        k(    8) = (   0.2500000   0.2500000   0.2500000), wk =   0.0312500
        k(    9) = (   0.2500000   0.2500000  -0.5000000), wk =   0.0312500
        k(   10) = (   0.2500000   0.2500000  -0.2500000), wk =   0.0312500
        k(   11) = (   0.2500000  -0.5000000  -0.5000000), wk =   0.0312500
        k(   12) = (   0.2500000  -0.5000000  -0.2500000), wk =   0.0312500
        k(   13) = (  -0.5000000  -0.5000000  -0.5000000), wk =   0.0156250
        k(   14) = (  -0.2500000   0.0000000   0.0000000), wk =   0.0312500
        k(   15) = (   0.0000000   0.2500000   0.0000000), wk =   0.0312500
        k(   16) = (   0.5000000   0.0000000   0.0000000), wk =   0.0156250
        k(   17) = (   0.0000000  -0.5000000   0.0000000), wk =   0.0156250
        k(   18) = (  -0.2500000  -0.2500000   0.0000000), wk =   0.0312500
        k(   19) = (   0.2500000   0.0000000   0.2500000), wk =   0.0312500
        k(   20) = (   0.5000000  -0.2500000   0.0000000), wk =   0.0312500
        k(   21) = (  -0.5000000   0.0000000   0.2500000), wk =   0.0312500
        k(   22) = (   0.2500000  -0.5000000   0.0000000), wk =   0.0312500
        k(   23) = (  -0.2500000   0.0000000   0.5000000), wk =   0.0312500
        k(   24) = (   0.0000000   0.5000000  -0.2500000), wk =   0.0312500
        k(   25) = (   0.2500000  -0.2500000   0.0000000), wk =   0.0312500
        k(   26) = (  -0.2500000   0.0000000   0.2500000), wk =   0.0312500
        k(   27) = (   0.5000000   0.5000000   0.0000000), wk =   0.0156250
        k(   28) = (  -0.5000000   0.0000000  -0.5000000), wk =   0.0156250
        k(   29) = (   0.5000000  -0.2500000  -0.2500000), wk =   0.0312500
        k(   30) = (   0.2500000  -0.5000000   0.2500000), wk =   0.0312500
        k(   31) = (   0.2500000  -0.2500000  -0.2500000), wk =   0.0312500
        k(   32) = (   0.2500000  -0.2500000   0.2500000), wk =   0.0312500
        k(   33) = (   0.5000000   0.5000000  -0.2500000), wk =   0.0312500
        k(   34) = (  -0.5000000   0.2500000  -0.5000000), wk =   0.0312500
        k(   35) = (  -0.2500000   0.2500000  -0.5000000), wk =   0.0312500
        k(   36) = (  -0.5000000  -0.2500000   0.2500000), wk =   0.0312500
        k(   37) = (   0.0000000   0.0000000   0.0000000), wk =   0.0156250
        k(   38) = (   0.0000000   0.0000000   0.2500000), wk =   0.0312500
        k(   39) = (   0.0000000   0.0000000  -0.5000000), wk =   0.0156250
        k(   40) = (   0.0000000   0.2500000   0.2500000), wk =   0.0312500
        k(   41) = (   0.0000000   0.2500000  -0.5000000), wk =   0.0312500
        k(   42) = (   0.0000000   0.2500000  -0.2500000), wk =   0.0312500
        k(   43) = (   0.0000000  -0.5000000  -0.5000000), wk =   0.0156250
        k(   44) = (   0.2500000   0.2500000   0.2500000), wk =   0.0312500
        k(   45) = (   0.2500000   0.2500000  -0.5000000), wk =   0.0312500
        k(   46) = (   0.2500000   0.2500000  -0.2500000), wk =   0.0312500
        k(   47) = (   0.2500000  -0.5000000  -0.5000000), wk =   0.0312500
        k(   48) = (   0.2500000  -0.5000000  -0.2500000), wk =   0.0312500
        k(   49) = (  -0.5000000  -0.5000000  -0.5000000), wk =   0.0156250
        k(   50) = (  -0.2500000   0.0000000   0.0000000), wk =   0.0312500
        k(   51) = (   0.0000000   0.2500000   0.0000000), wk =   0.0312500
        k(   52) = (   0.5000000   0.0000000   0.0000000), wk =   0.0156250
        k(   53) = (   0.0000000  -0.5000000   0.0000000), wk =   0.0156250
        k(   54) = (  -0.2500000  -0.2500000   0.0000000), wk =   0.0312500
        k(   55) = (   0.2500000   0.0000000   0.2500000), wk =   0.0312500
        k(   56) = (   0.5000000  -0.2500000   0.0000000), wk =   0.0312500
        k(   57) = (  -0.5000000   0.0000000   0.2500000), wk =   0.0312500
        k(   58) = (   0.2500000  -0.5000000   0.0000000), wk =   0.0312500
        k(   59) = (  -0.2500000   0.0000000   0.5000000), wk =   0.0312500
        k(   60) = (   0.0000000   0.5000000  -0.2500000), wk =   0.0312500
        k(   61) = (   0.2500000  -0.2500000   0.0000000), wk =   0.0312500
        k(   62) = (  -0.2500000   0.0000000   0.2500000), wk =   0.0312500
        k(   63) = (   0.5000000   0.5000000   0.0000000), wk =   0.0156250
        k(   64) = (  -0.5000000   0.0000000  -0.5000000), wk =   0.0156250
        k(   65) = (   0.5000000  -0.2500000  -0.2500000), wk =   0.0312500
        k(   66) = (   0.2500000  -0.5000000   0.2500000), wk =   0.0312500
        k(   67) = (   0.2500000  -0.2500000  -0.2500000), wk =   0.0312500
        k(   68) = (   0.2500000  -0.2500000   0.2500000), wk =   0.0312500
        k(   69) = (   0.5000000   0.5000000  -0.2500000), wk =   0.0312500
        k(   70) = (  -0.5000000   0.2500000  -0.5000000), wk =   0.0312500
        k(   71) = (  -0.2500000   0.2500000  -0.5000000), wk =   0.0312500
        k(   72) = (  -0.5000000  -0.2500000   0.2500000), wk =   0.0312500

     Dense  grid:    69617 G-vectors     FFT dimensions: (  60,  60,  60)

     Smooth grid:    17573 G-vectors     FFT dimensions: (  40,  40,  40)

     Largest allocated arrays     est. size (Mb)     dimensions
        Kohn-Sham Wavefunctions         0.79 Mb     (   1119,   46)
        Atomic wavefunctions            1.06 Mb     (   1119,   62)
        NL pseudopotentials             2.05 Mb     (   1119,  120)
        Each V/rho on FFT grid          3.30 Mb     ( 108000,   2)
        Each G-vector array             0.27 Mb     (  34808)
        G-vector shells                 0.04 Mb     (   4682)
     Largest temporary arrays     est. size (Mb)     dimensions
        Auxiliary wavefunctions         3.14 Mb     (   1119,  184)
        Each subspace H/S matrix        0.52 Mb     ( 184, 184)
        Each <psi_i|beta_j> matrix      0.08 Mb     (    120,   46)
        Arrays for rho mixing          13.18 Mb     ( 108000,   8)

     Check: negative/imaginary core charge=   -0.000028    0.000000

     The initial density is read from file :
     /home/mcurnan/dft-course/Project1/example_LaCoO3/0/O/alpha/CoLaO_U0.save/charge-density.dat

 --- in v_hubbard ---
Hubbard energy    0.0400
 -------
     Number of +U iterations with fixed ns =  0
     Starting occupations:
 --- enter write_ns ---
 LDA+U parameters:
U( 1)     =  0.00000000
alpha( 1) =  0.00000000
U( 2)     =  0.00000000
alpha( 2) =  0.00000000
U( 3)     =  0.00000000
alpha( 3) =  0.10000000
U( 4)     =  0.00000000
alpha( 4) =  0.00000000
atom    1   Tr[ns(na)] (up, down, total) =   4.56592  3.37374  7.93966
   spin  1
    eigenvalues: 
  0.785  0.785  0.999  0.999  0.999
    eigenvectors:
  0.000  0.000  0.000  0.000  1.000
  0.130  0.516  0.189  0.165  0.000
  0.516  0.130  0.165  0.189  0.000
  0.034  0.320  0.646  0.000  0.000
  0.320  0.034  0.000  0.646  0.000
    occupations:
  0.999  0.000  0.000  0.000  0.000
  0.000  0.861  0.000 -0.073  0.072
  0.000  0.000  0.861  0.072  0.073
  0.000 -0.073  0.072  0.923  0.000
  0.000  0.072  0.073  0.000  0.923
   spin  2
    eigenvalues: 
  0.474  0.474  0.773  0.826  0.826
    eigenvectors:
  0.000  0.000  1.000  0.000  0.000
  0.000  0.639  0.000  0.203  0.158
  0.639  0.000  0.000  0.158  0.203
  0.344  0.017  0.000  0.149  0.490
  0.017  0.344  0.000  0.490  0.149
    occupations:
  0.773  0.000  0.000  0.000  0.000
  0.000  0.601  0.000 -0.037  0.165
  0.000  0.000  0.601  0.165  0.037
  0.000 -0.037  0.165  0.699  0.000
  0.000  0.165  0.037  0.000  0.699
atomic mag. moment =     1.192178
atom    2   Tr[ns(na)] (up, down, total) =   4.67288  3.22474  7.89762
   spin  1
    eigenvalues: 
  0.838  0.838  0.999  0.999  0.999
    eigenvectors:
  0.000  0.000  0.000  0.000  1.000
  0.018  0.628  0.244  0.110  0.000
  0.628  0.018  0.110  0.244  0.000
  0.235  0.119  0.025  0.622  0.000
  0.119  0.235  0.622  0.025  0.000
    occupations:
  0.999  0.000  0.000  0.000  0.000
  0.000  0.895  0.000  0.054  0.054
  0.000  0.000  0.895  0.054 -0.054
  0.000  0.054  0.054  0.942  0.000
  0.000  0.054 -0.054  0.000  0.942
   spin  2
    eigenvalues: 
  0.459  0.459  0.730  0.788  0.788
    eigenvectors:
  0.000  0.000  1.000  0.000  0.000
  0.517  0.119  0.000  0.010  0.355
  0.119  0.517  0.000  0.355  0.010
  0.143  0.222  0.000  0.633  0.003
  0.222  0.143  0.000  0.003  0.633
    occupations:
  0.730  0.000  0.000  0.000  0.000
  0.000  0.579  0.000  0.036  0.154
  0.000  0.000  0.579  0.154 -0.036
  0.000  0.036  0.154  0.668  0.000
  0.000  0.154 -0.036  0.000  0.668
atomic mag. moment =     1.448145
atom    3   Tr[ns(na)] (up, down, total) =   1.91460  1.90025  3.81485
   spin  1
    eigenvalues: 
  0.357  0.357  0.387  0.407  0.407
    eigenvectors:
  0.000  0.000  1.000  0.000  0.000
  0.130  0.794  0.000  0.024  0.052
  0.794  0.130  0.000  0.052  0.024
  0.065  0.011  0.000  0.640  0.284
  0.011  0.065  0.000  0.284  0.640
    occupations:
  0.387  0.000  0.000  0.000  0.000
  0.000  0.361  0.000  0.000  0.013
  0.000  0.000  0.361  0.013  0.000
  0.000  0.000  0.013  0.403  0.000
  0.000  0.013  0.000  0.000  0.403
   spin  2
    eigenvalues: 
  0.353  0.353  0.387  0.404  0.404
    eigenvectors:
  0.000  0.000  1.000  0.000  0.000
  0.322  0.588  0.000  0.074  0.016
  0.588  0.322  0.000  0.016  0.074
  0.060  0.030  0.000  0.174  0.736
  0.030  0.060  0.000  0.736  0.174
    occupations:
  0.387  0.000  0.000  0.000  0.000
  0.000  0.358  0.000  0.000  0.015
  0.000  0.000  0.358  0.015  0.000
  0.000  0.000  0.015  0.399  0.000
  0.000  0.015  0.000  0.000  0.399
atomic mag. moment =     0.014344
atom    4   Tr[ns(na)] (up, down, total) =   1.91459  1.90025  3.81485
   spin  1
    eigenvalues: 
  0.357  0.357  0.387  0.407  0.407
    eigenvectors:
  0.000  0.000  1.000  0.000  0.000
  0.720  0.204  0.000  0.032  0.044
  0.204  0.720  0.000  0.044  0.032
  0.017  0.058  0.000  0.521  0.403
  0.058  0.017  0.000  0.403  0.521
    occupations:
  0.387  0.000  0.000  0.000  0.000
  0.000  0.361  0.000  0.000  0.013
  0.000  0.000  0.361  0.013  0.000
  0.000  0.000  0.013  0.403  0.000
  0.000  0.013  0.000  0.000  0.403
   spin  2
    eigenvalues: 
  0.353  0.353  0.387  0.404  0.404
    eigenvectors:
  0.000  0.000  1.000  0.000  0.000
  0.723  0.187  0.000  0.047  0.043
  0.187  0.723  0.000  0.043  0.047
  0.020  0.070  0.000  0.419  0.491
  0.070  0.020  0.000  0.491  0.419
    occupations:
  0.387  0.000  0.000  0.000  0.000
  0.000  0.358  0.000  0.000  0.015
  0.000  0.000  0.358  0.015  0.000
  0.000  0.000  0.015  0.399  0.000
  0.000  0.015  0.000  0.000  0.399
atomic mag. moment =     0.014343
atom    5   Tr[ns(na)] (up, down, total) =   2.74224  2.70308  5.44532
   spin  1
    eigenvalues: 
  0.844  0.947  0.951
    eigenvectors:
  0.337  0.000  0.663
  0.508  0.244  0.248
  0.155  0.756  0.089
    occupations:
  0.915 -0.044  0.025
 -0.044  0.896  0.029
  0.025  0.029  0.932
   spin  2
    eigenvalues: 
  0.864  0.920  0.920
    eigenvectors:
  0.333  0.044  0.622
  0.514  0.111  0.376
  0.153  0.845  0.002
    occupations:
  0.901 -0.023  0.013
 -0.023  0.891  0.016
  0.013  0.016  0.911
atomic mag. moment =     0.039165
atom    6   Tr[ns(na)] (up, down, total) =   2.74225  2.70308  5.44533
   spin  1
    eigenvalues: 
  0.844  0.947  0.951
    eigenvectors:
  0.337  0.000  0.663
  0.487  0.256  0.257
  0.176  0.744  0.080
    occupations:
  0.915  0.044  0.026
  0.044  0.898 -0.030
  0.026 -0.030  0.929
   spin  2
    eigenvalues: 
  0.864  0.920  0.920
    eigenvectors:
  0.333  0.045  0.622
  0.486  0.398  0.116
  0.181  0.558  0.262
    occupations:
  0.901  0.022  0.014
  0.022  0.893 -0.016
  0.014 -0.016  0.910
atomic mag. moment =     0.039166
atom    7   Tr[ns(na)] (up, down, total) =   2.74225  2.70308  5.44533
   spin  1
    eigenvalues: 
  0.844  0.947  0.951
    eigenvectors:
  0.337  0.000  0.663
  0.000  1.000  0.000
  0.663  0.000  0.337
    occupations:
  0.915  0.001 -0.051
  0.001  0.947  0.001
 -0.051  0.001  0.880
   spin  2
    eigenvalues: 
  0.864  0.920  0.920
    eigenvectors:
  0.333  0.051  0.616
  0.000  0.916  0.084
  0.666  0.033  0.301
    occupations:
  0.901  0.001 -0.026
  0.001  0.920  0.001
 -0.026  0.001  0.883
atomic mag. moment =     0.039166
atom    8   Tr[ns(na)] (up, down, total) =   2.74225  2.70308  5.44532
   spin  1
    eigenvalues: 
  0.844  0.947  0.951
    eigenvectors:
  0.337  0.000  0.663
  0.508  0.244  0.248
  0.155  0.756  0.089
    occupations:
  0.915 -0.044  0.025
 -0.044  0.896  0.029
  0.025  0.029  0.932
   spin  2
    eigenvalues: 
  0.864  0.920  0.920
    eigenvectors:
  0.333  0.045  0.622
  0.514  0.109  0.377
  0.153  0.845  0.002
    occupations:
  0.901 -0.023  0.013
 -0.023  0.891  0.016
  0.013  0.016  0.911
atomic mag. moment =     0.039170
atom    9   Tr[ns(na)] (up, down, total) =   2.74225  2.70308  5.44533
   spin  1
    eigenvalues: 
  0.844  0.947  0.951
    eigenvectors:
  0.337  0.000  0.663
  0.487  0.256  0.257
  0.176  0.744  0.080
    occupations:
  0.915  0.044  0.026
  0.044  0.898 -0.030
  0.026 -0.030  0.929
   spin  2
    eigenvalues: 
  0.864  0.920  0.920
    eigenvectors:
  0.333  0.044  0.622
  0.486  0.397  0.117
  0.181  0.559  0.260
    occupations:
  0.901  0.022  0.014
  0.022  0.893 -0.016
  0.014 -0.016  0.910
atomic mag. moment =     0.039164
atom   10   Tr[ns(na)] (up, down, total) =   2.74225  2.70308  5.44533
   spin  1
    eigenvalues: 
  0.844  0.947  0.951
    eigenvectors:
  0.337  0.000  0.663
  0.000  1.000  0.000
  0.663  0.000  0.337
    occupations:
  0.915  0.001 -0.051
  0.001  0.947  0.001
 -0.051  0.001  0.880
   spin  2
    eigenvalues: 
  0.864  0.920  0.920
    eigenvectors:
  0.333  0.045  0.621
  0.000  0.925  0.075
  0.666  0.030  0.304
    occupations:
  0.901  0.001 -0.026
  0.001  0.920  0.001
 -0.026  0.001  0.883
atomic mag. moment =     0.039164
N of occupied +U levels =  56.1389441
 --- exit write_ns ---
 LDA+U Projector read from file 
     Starting wfc from file

     total cpu time spent up to now is        8.3 secs

     per-process dynamical memory:   100.5 Mb

     Self-consistent Calculation

     iteration #  1     ecut=    30.00 Ry     beta=0.20
     Davidson diagonalization with overlap
     c_bands:  1 eigenvalues not converged
     c_bands:  1 eigenvalues not converged
     c_bands:  1 eigenvalues not converged
     c_bands:  1 eigenvalues not converged
     c_bands:  1 eigenvalues not converged
     c_bands:  1 eigenvalues not converged
     c_bands:  1 eigenvalues not converged
     c_bands:  1 eigenvalues not converged
     c_bands:  1 eigenvalues not converged
     c_bands:  1 eigenvalues not converged
     c_bands:  1 eigenvalues not converged
     c_bands:  1 eigenvalues not converged
     c_bands:  1 eigenvalues not converged
     c_bands:  1 eigenvalues not converged
     c_bands:  1 eigenvalues not converged
     c_bands:  1 eigenvalues not converged
     c_bands:  1 eigenvalues not converged
     c_bands:  1 eigenvalues not converged
     c_bands:  1 eigenvalues not converged
     c_bands:  1 eigenvalues not converged
     c_bands:  1 eigenvalues not converged
     c_bands:  1 eigenvalues not converged
     c_bands:  1 eigenvalues not converged
     c_bands:  1 eigenvalues not converged
     c_bands:  1 eigenvalues not converged
     c_bands:  1 eigenvalues not converged
     c_bands:  1 eigenvalues not converged
     c_bands:  1 eigenvalues not converged
     c_bands:  1 eigenvalues not converged
     c_bands:  1 eigenvalues not converged
     c_bands:  1 eigenvalues not converged
     c_bands:  1 eigenvalues not converged
     c_bands:  1 eigenvalues not converged
     c_bands:  1 eigenvalues not converged
     c_bands:  1 eigenvalues not converged
     c_bands:  1 eigenvalues not converged
     c_bands:  1 eigenvalues not converged
     c_bands:  1 eigenvalues not converged
     c_bands:  1 eigenvalues not converged
     c_bands:  1 eigenvalues not converged
     ethr =  1.00E-10,  avg # of iterations = 17.2
 --- enter write_ns ---
 LDA+U parameters:
U( 1)     =  0.00000000
alpha( 1) =  0.00000000
U( 2)     =  0.00000000
alpha( 2) =  0.00000000
U( 3)     =  0.00000000
alpha( 3) =  0.10000000
U( 4)     =  0.00000000
alpha( 4) =  0.00000000
atom    1   Tr[ns(na)] (up, down, total) =   4.56709  3.37810  7.94519
   spin  1
    eigenvalues: 
  0.786  0.786  0.999  0.999  0.999
    eigenvectors:
  0.000  0.000  0.003  0.002  0.995
  0.021  0.625  0.010  0.343  0.000
  0.626  0.021  0.343  0.010  0.001
  0.113  0.241  0.211  0.433  0.003
  0.241  0.113  0.433  0.212  0.000
    occupations:
  0.999  0.000  0.000  0.000  0.000
  0.000  0.861  0.000 -0.072  0.072
  0.000  0.000  0.861  0.072  0.072
  0.000 -0.072  0.072  0.923  0.000
  0.000  0.072  0.072  0.000  0.923
   spin  2
    eigenvalues: 
  0.474  0.476  0.774  0.826  0.827
    eigenvectors:
  0.000  0.000  1.000  0.000  0.000
  0.123  0.516  0.000  0.138  0.222
  0.516  0.123  0.000  0.223  0.138
  0.221  0.140  0.000  0.255  0.384
  0.140  0.220  0.000  0.384  0.255
    occupations:
  0.774  0.000  0.000  0.001  0.000
  0.000  0.602 -0.001 -0.036  0.165
  0.000 -0.001  0.602  0.165  0.037
  0.001 -0.036  0.165  0.700 -0.001
  0.000  0.165  0.037 -0.001  0.700
atomic mag. moment =     1.188992
atom    2   Tr[ns(na)] (up, down, total) =   4.67318  3.22835  7.90153
   spin  1
    eigenvalues: 
  0.838  0.838  0.999  0.999  0.999
    eigenvectors:
  0.000  0.000  0.006  0.004  0.990
  0.324  0.322  0.205  0.145  0.003
  0.322  0.324  0.147  0.208  0.000
  0.000  0.354  0.638  0.005  0.003
  0.354  0.000  0.004  0.639  0.003
    occupations:
  0.999  0.000  0.000  0.000  0.000
  0.000  0.895  0.000  0.054  0.054
  0.000  0.000  0.895  0.054 -0.054
  0.000  0.054  0.054  0.942  0.000
  0.000  0.054 -0.054  0.000  0.942
   spin  2
    eigenvalues: 
  0.460  0.461  0.730  0.788  0.789
    eigenvectors:
  0.000  0.000  1.000  0.000  0.000
  0.201  0.435  0.000  0.055  0.309
  0.435  0.201  0.000  0.309  0.055
  0.317  0.047  0.000  0.617  0.019
  0.047  0.317  0.000  0.019  0.617
    occupations:
  0.730  0.000  0.000  0.000 -0.001
  0.000  0.580 -0.001  0.036  0.154
  0.000 -0.001  0.580  0.154 -0.036
  0.000  0.036  0.154  0.668  0.000
 -0.001  0.154 -0.036  0.000  0.669
atomic mag. moment =     1.444828
atom    3   Tr[ns(na)] (up, down, total) =   1.91586  1.90135  3.81721
   spin  1
    eigenvalues: 
  0.357  0.357  0.387  0.407  0.408
    eigenvectors:
  0.000  0.000  1.000  0.000  0.000
  0.697  0.229  0.000  0.017  0.057
  0.230  0.696  0.000  0.058  0.017
  0.019  0.056  0.000  0.703  0.222
  0.055  0.019  0.000  0.222  0.704
    occupations:
  0.387  0.000  0.000  0.000  0.000
  0.000  0.361  0.000  0.000  0.013
  0.000  0.000  0.361  0.013  0.000
  0.000  0.000  0.013  0.403  0.000
  0.000  0.013  0.000  0.000  0.404
   spin  2
    eigenvalues: 
  0.353  0.353  0.387  0.404  0.404
    eigenvectors:
  0.000  0.000  1.000  0.000  0.000
  0.683  0.229  0.000  0.021  0.068
  0.230  0.681  0.000  0.069  0.020
  0.023  0.065  0.000  0.688  0.223
  0.064  0.024  0.000  0.222  0.689
    occupations:
  0.387  0.000  0.000  0.000  0.000
  0.000  0.358  0.000  0.000  0.014
  0.000  0.000  0.358  0.014  0.000
  0.000  0.000  0.014  0.399  0.000
  0.000  0.014  0.000  0.000  0.400
atomic mag. moment =     0.014505
atom    4   Tr[ns(na)] (up, down, total) =   1.91571  1.90129  3.81700
   spin  1
    eigenvalues: 
  0.357  0.357  0.387  0.407  0.407
    eigenvectors:
  0.000  0.000  1.000  0.000  0.000
  0.235  0.687  0.000  0.019  0.059
  0.689  0.235  0.000  0.057  0.019
  0.055  0.021  0.000  0.686  0.237
  0.020  0.058  0.000  0.238  0.684
    occupations:
  0.387  0.000  0.000  0.000  0.000
  0.000  0.361  0.000  0.000  0.013
  0.000  0.000  0.361  0.013  0.000
  0.000  0.000  0.013  0.403  0.000
  0.000  0.013  0.000  0.000  0.403
   spin  2
    eigenvalues: 
  0.353  0.353  0.387  0.404  0.404
    eigenvectors:
  0.000  0.000  1.000  0.000  0.000
  0.234  0.674  0.000  0.023  0.069
  0.676  0.234  0.000  0.066  0.024
  0.065  0.025  0.000  0.664  0.246
  0.024  0.067  0.000  0.247  0.661
    occupations:
  0.387  0.000  0.000  0.000  0.000
  0.000  0.358  0.000  0.000  0.015
  0.000  0.000  0.358  0.014  0.000
  0.000  0.000  0.014  0.399  0.000
  0.000  0.015  0.000  0.000  0.399
atomic mag. moment =     0.014416
atom    5   Tr[ns(na)] (up, down, total) =   2.73542  2.69455  5.42997
   spin  1
    eigenvalues: 
  0.839  0.946  0.950
    eigenvectors:
  0.337  0.000  0.662
  0.507  0.244  0.249
  0.156  0.756  0.089
    occupations:
  0.913 -0.046  0.026
 -0.046  0.893  0.029
  0.026  0.029  0.930
   spin  2
    eigenvalues: 
  0.861  0.917  0.917
    eigenvectors:
  0.334  0.661  0.005
  0.514  0.214  0.272
  0.152  0.125  0.723
    occupations:
  0.898 -0.023  0.013
 -0.023  0.888  0.016
  0.013  0.016  0.908
atomic mag. moment =     0.040862
atom    6   Tr[ns(na)] (up, down, total) =   2.74246  2.70354  5.44600
   spin  1
    eigenvalues: 
  0.844  0.947  0.951
    eigenvectors:
  0.336  0.000  0.664
  0.488  0.257  0.255
  0.176  0.742  0.082
    occupations:
  0.915  0.043  0.026
  0.043  0.898 -0.030
  0.026 -0.030  0.929
   spin  2
    eigenvalues: 
  0.864  0.920  0.920
    eigenvectors:
  0.334  0.016  0.650
  0.486  0.350  0.165
  0.181  0.634  0.185
    occupations:
  0.901  0.022  0.014
  0.022  0.893 -0.016
  0.014 -0.016  0.910
atomic mag. moment =     0.038911
atom    7   Tr[ns(na)] (up, down, total) =   2.74246  2.70354  5.44600
   spin  1
    eigenvalues: 
  0.844  0.947  0.951
    eigenvectors:
  0.336  0.000  0.664
  0.000  1.000  0.000
  0.664  0.000  0.336
    occupations:
  0.915  0.001 -0.051
  0.001  0.947  0.001
 -0.051  0.001  0.880
   spin  2
    eigenvalues: 
  0.864  0.920  0.920
    eigenvectors:
  0.334  0.007  0.659
  0.000  0.986  0.013
  0.666  0.007  0.327
    occupations:
  0.901  0.001 -0.026
  0.001  0.920  0.001
 -0.026  0.001  0.883
atomic mag. moment =     0.038911
atom    8   Tr[ns(na)] (up, down, total) =   2.74310  2.70345  5.44656
   spin  1
    eigenvalues: 
  0.845  0.947  0.951
    eigenvectors:
  0.337  0.000  0.663
  0.508  0.244  0.248
  0.156  0.756  0.089
    occupations:
  0.915 -0.044  0.024
 -0.044  0.896  0.028
  0.024  0.028  0.932
   spin  2
    eigenvalues: 
  0.864  0.920  0.920
    eigenvectors:
  0.333  0.366  0.301
  0.514  0.003  0.484
  0.153  0.631  0.216
    occupations:
  0.901 -0.023  0.013
 -0.023  0.891  0.016
  0.013  0.016  0.911
atomic mag. moment =     0.039648
atom    9   Tr[ns(na)] (up, down, total) =   2.74249  2.70350  5.44599
   spin  1
    eigenvalues: 
  0.844  0.947  0.951
    eigenvectors:
  0.337  0.000  0.662
  0.486  0.259  0.255
  0.177  0.740  0.083
    occupations:
  0.915  0.043  0.026
  0.043  0.898 -0.030
  0.026 -0.030  0.929
   spin  2
    eigenvalues: 
  0.864  0.920  0.920
    eigenvectors:
  0.333  0.009  0.657
  0.486  0.331  0.183
  0.181  0.659  0.160
    occupations:
  0.901  0.022  0.014
  0.022  0.893 -0.016
  0.014 -0.016  0.910
atomic mag. moment =     0.038985
atom   10   Tr[ns(na)] (up, down, total) =   2.74249  2.70350  5.44599
   spin  1
    eigenvalues: 
  0.844  0.947  0.951
    eigenvectors:
  0.337  0.000  0.662
  0.000  1.000  0.000
  0.662  0.000  0.338
    occupations:
  0.915  0.001 -0.051
  0.001  0.947  0.001
 -0.051  0.001  0.880
   spin  2
    eigenvalues: 
  0.864  0.920  0.920
    eigenvectors:
  0.333  0.013  0.654
  0.000  0.976  0.024
  0.666  0.011  0.323
    occupations:
  0.901  0.001 -0.026
  0.001  0.920  0.001
 -0.026  0.001  0.883
atomic mag. moment =     0.038985
N of occupied +U levels =  56.1414357
 --- exit write_ns ---
 --- in v_hubbard ---
Hubbard energy    0.0400
 -------

     total cpu time spent up to now is      182.9 secs

     total energy              =    -538.31539979 Ry
     Harris-Foulkes estimate   =    -538.31546531 Ry
     estimated scf accuracy    <       0.00020177 Ry

     total magnetization       =     3.54 Bohr mag/cell
     absolute magnetization    =     3.69 Bohr mag/cell

     iteration #  2     ecut=    30.00 Ry     beta=0.20
     Davidson diagonalization with overlap
     ethr =  2.65E-07,  avg # of iterations =  2.0
 --- enter write_ns ---
 LDA+U parameters:
U( 1)     =  0.00000000
alpha( 1) =  0.00000000
U( 2)     =  0.00000000
alpha( 2) =  0.00000000
U( 3)     =  0.00000000
alpha( 3) =  0.10000000
U( 4)     =  0.00000000
alpha( 4) =  0.00000000
atom    1   Tr[ns(na)] (up, down, total) =   4.56464  3.36825  7.93289
   spin  1
    eigenvalues: 
  0.784  0.784  0.999  0.999  0.999
    eigenvectors:
  0.000  0.000  0.001  0.000  0.999
  0.047  0.600  0.012  0.342  0.000
  0.600  0.047  0.342  0.012  0.000
  0.083  0.270  0.203  0.444  0.000
  0.270  0.084  0.443  0.202  0.001
    occupations:
  0.999  0.000  0.000  0.000  0.000
  0.000  0.860  0.000 -0.073  0.072
  0.000  0.000  0.860  0.072  0.073
  0.000 -0.073  0.072  0.923  0.000
  0.000  0.072  0.073  0.000  0.923
   spin  2
    eigenvalues: 
  0.474  0.474  0.771  0.824  0.825
    eigenvectors:
  0.000  0.000  1.000  0.000  0.000
  0.123  0.515  0.000  0.122  0.239
  0.516  0.124  0.000  0.239  0.122
  0.220  0.140  0.000  0.285  0.354
  0.141  0.221  0.000  0.354  0.285
    occupations:
  0.771  0.000  0.000  0.000  0.000
  0.000  0.601  0.000 -0.036  0.164
  0.000  0.000  0.600  0.164  0.037
  0.000 -0.036  0.164  0.698  0.000
  0.000  0.164  0.037  0.000  0.698
atomic mag. moment =     1.196390
atom    2   Tr[ns(na)] (up, down, total) =   4.67381  3.23077  7.90458
   spin  1
    eigenvalues: 
  0.838  0.839  0.999  0.999  0.999
    eigenvectors:
  0.000  0.000  0.002  0.005  0.994
  0.301  0.346  0.193  0.161  0.000
  0.345  0.300  0.160  0.191  0.002
  0.000  0.354  0.644  0.001  0.001
  0.354  0.000  0.001  0.642  0.003
    occupations:
  0.999  0.000  0.000  0.000  0.000
  0.000  0.895  0.000  0.054  0.054
  0.000  0.000  0.895  0.054 -0.054
  0.000  0.054  0.054  0.942  0.000
  0.000  0.054 -0.054  0.000  0.942
   spin  2
    eigenvalues: 
  0.459  0.460  0.732  0.790  0.790
    eigenvectors:
  0.000  0.000  1.000  0.000  0.000
  0.201  0.435  0.000  0.081  0.284
  0.435  0.200  0.000  0.284  0.081
  0.318  0.047  0.000  0.594  0.042
  0.047  0.318  0.000  0.042  0.594
    occupations:
  0.732  0.000  0.000  0.000  0.000
  0.000  0.580  0.000  0.036  0.155
  0.000  0.000  0.580  0.155 -0.036
  0.000  0.036  0.155  0.669  0.000
  0.000  0.155 -0.036  0.000  0.670
atomic mag. moment =     1.443045
atom    3   Tr[ns(na)] (up, down, total) =   1.91529  1.90091  3.81620
   spin  1
    eigenvalues: 
  0.357  0.357  0.387  0.407  0.407
    eigenvectors:
  0.000  0.000  1.000  0.000  0.000
  0.696  0.228  0.000  0.016  0.059
  0.228  0.696  0.000  0.059  0.016
  0.019  0.056  0.000  0.715  0.210
  0.056  0.019  0.000  0.210  0.715
    occupations:
  0.387  0.000  0.000  0.000  0.000
  0.000  0.361  0.000  0.000  0.013
  0.000  0.000  0.361  0.013  0.000
  0.000  0.000  0.013  0.403  0.000
  0.000  0.013  0.000  0.000  0.403
   spin  2
    eigenvalues: 
  0.353  0.353  0.387  0.404  0.404
    eigenvectors:
  0.000  0.000  1.000  0.000  0.000
  0.684  0.227  0.000  0.077  0.013
  0.227  0.684  0.000  0.013  0.077
  0.024  0.066  0.000  0.141  0.770
  0.066  0.024  0.000  0.770  0.141
    occupations:
  0.387  0.000  0.000  0.000  0.000
  0.000  0.358  0.000  0.000  0.015
  0.000  0.000  0.358  0.014  0.000
  0.000  0.000  0.014  0.399  0.000
  0.000  0.015  0.000  0.000  0.399
atomic mag. moment =     0.014380
atom    4   Tr[ns(na)] (up, down, total) =   1.91525  1.90092  3.81617
   spin  1
    eigenvalues: 
  0.357  0.357  0.387  0.407  0.407
    eigenvectors:
  0.000  0.000  1.000  0.000  0.000
  0.719  0.205  0.000  0.018  0.058
  0.204  0.720  0.000  0.057  0.018
  0.018  0.058  0.000  0.695  0.229
  0.059  0.017  0.000  0.229  0.695
    occupations:
  0.387  0.000  0.000  0.000  0.000
  0.000  0.361  0.000  0.000  0.013
  0.000  0.000  0.361  0.013  0.000
  0.000  0.000  0.013  0.403  0.000
  0.000  0.013  0.000  0.000  0.403
   spin  2
    eigenvalues: 
  0.353  0.353  0.387  0.404  0.404
    eigenvectors:
  0.000  0.000  1.000  0.000  0.000
  0.700  0.210  0.000  0.022  0.068
  0.210  0.700  0.000  0.068  0.022
  0.022  0.068  0.000  0.676  0.235
  0.068  0.022  0.000  0.235  0.675
    occupations:
  0.387  0.000  0.000  0.000  0.000
  0.000  0.358  0.000  0.000  0.015
  0.000  0.000  0.358  0.014  0.000
  0.000  0.000  0.014  0.399  0.000
  0.000  0.015  0.000  0.000  0.399
atomic mag. moment =     0.014325
atom    5   Tr[ns(na)] (up, down, total) =   2.73995  2.69990  5.43986
   spin  1
    eigenvalues: 
  0.842  0.947  0.951
    eigenvectors:
  0.337  0.000  0.663
  0.508  0.244  0.248
  0.155  0.756  0.089
    occupations:
  0.914 -0.045  0.025
 -0.045  0.895  0.029
  0.025  0.029  0.931
   spin  2
    eigenvalues: 
  0.863  0.918  0.919
    eigenvectors:
  0.334  0.627  0.039
  0.513  0.140  0.347
  0.154  0.233  0.614
    occupations:
  0.900 -0.023  0.013
 -0.023  0.890  0.016
  0.013  0.016  0.910
atomic mag. moment =     0.040051
atom    6   Tr[ns(na)] (up, down, total) =   2.74256  2.70355  5.44611
   spin  1
    eigenvalues: 
  0.844  0.947  0.951
    eigenvectors:
  0.337  0.000  0.663
  0.487  0.258  0.255
  0.177  0.742  0.082
    occupations:
  0.915  0.043  0.026
  0.043  0.898 -0.030
  0.026 -0.030  0.929
   spin  2
    eigenvalues: 
  0.864  0.920  0.920
    eigenvectors:
  0.334  0.030  0.637
  0.486  0.375  0.139
  0.180  0.595  0.225
    occupations:
  0.901  0.022  0.014
  0.022  0.893 -0.016
  0.014 -0.016  0.910
atomic mag. moment =     0.039006
atom    7   Tr[ns(na)] (up, down, total) =   2.74256  2.70355  5.44611
   spin  1
    eigenvalues: 
  0.844  0.947  0.951
    eigenvectors:
  0.337  0.000  0.663
  0.000  1.000  0.000
  0.663  0.000  0.337
    occupations:
  0.915  0.001 -0.051
  0.001  0.947  0.001
 -0.051  0.001  0.880
   spin  2
    eigenvalues: 
  0.864  0.920  0.920
    eigenvectors:
  0.334  0.029  0.637
  0.000  0.950  0.049
  0.666  0.020  0.314
    occupations:
  0.901  0.001 -0.026
  0.001  0.920  0.001
 -0.026  0.001  0.883
atomic mag. moment =     0.039009
atom    8   Tr[ns(na)] (up, down, total) =   2.74248  2.70309  5.44557
   spin  1
    eigenvalues: 
  0.844  0.947  0.951
    eigenvectors:
  0.337  0.000  0.663
  0.508  0.244  0.248
  0.155  0.756  0.089
    occupations:
  0.915 -0.044  0.025
 -0.044  0.896  0.028
  0.025  0.028  0.932
   spin  2
    eigenvalues: 
  0.864  0.920  0.920
    eigenvectors:
  0.333  0.099  0.567
  0.513  0.061  0.426
  0.154  0.839  0.007
    occupations:
  0.901 -0.023  0.013
 -0.023  0.891  0.016
  0.013  0.016  0.911
atomic mag. moment =     0.039392
atom    9   Tr[ns(na)] (up, down, total) =   2.74264  2.70360  5.44624
   spin  1
    eigenvalues: 
  0.844  0.947  0.951
    eigenvectors:
  0.337  0.000  0.663
  0.487  0.258  0.255
  0.177  0.742  0.082
    occupations:
  0.915  0.043  0.026
  0.043  0.898 -0.030
  0.026 -0.030  0.929
   spin  2
    eigenvalues: 
  0.864  0.920  0.920
    eigenvectors:
  0.333  0.020  0.647
  0.487  0.357  0.156
  0.180  0.623  0.197
    occupations:
  0.901  0.022  0.014
  0.022  0.893 -0.016
  0.014 -0.016  0.910
atomic mag. moment =     0.039039
atom   10   Tr[ns(na)] (up, down, total) =   2.74264  2.70360  5.44623
   spin  1
    eigenvalues: 
  0.844  0.947  0.951
    eigenvectors:
  0.337  0.000  0.663
  0.000  1.000  0.000
  0.663  0.000  0.337
    occupations:
  0.915  0.001 -0.051
  0.001  0.947  0.001
 -0.051  0.001  0.880
   spin  2
    eigenvalues: 
  0.864  0.920  0.920
    eigenvectors:
  0.333  0.030  0.637
  0.000  0.949  0.051
  0.667  0.021  0.312
    occupations:
  0.901  0.001 -0.026
  0.001  0.920  0.001
 -0.026  0.001  0.883
atomic mag. moment =     0.039036
N of occupied +U levels =  56.1399534
 --- exit write_ns ---
 --- in v_hubbard ---
Hubbard energy    0.0400
 -------

     total cpu time spent up to now is      238.1 secs

     total energy              =    -538.31541132 Ry
     Harris-Foulkes estimate   =    -538.31543307 Ry
     estimated scf accuracy    <       0.00009691 Ry

     total magnetization       =     3.54 Bohr mag/cell
     absolute magnetization    =     3.69 Bohr mag/cell

     iteration #  3     ecut=    30.00 Ry     beta=0.20
     Davidson diagonalization with overlap
     ethr =  1.28E-07,  avg # of iterations =  1.6
 --- enter write_ns ---
 LDA+U parameters:
U( 1)     =  0.00000000
alpha( 1) =  0.00000000
U( 2)     =  0.00000000
alpha( 2) =  0.00000000
U( 3)     =  0.00000000
alpha( 3) =  0.10000000
U( 4)     =  0.00000000
alpha( 4) =  0.00000000
atom    1   Tr[ns(na)] (up, down, total) =   4.57166  3.40030  7.97196
   spin  1
    eigenvalues: 
  0.788  0.788  0.999  0.999  0.999
    eigenvectors:
  0.000  0.000  0.001  0.000  0.999
  0.048  0.598  0.013  0.341  0.000
  0.598  0.048  0.341  0.013  0.000
  0.082  0.272  0.198  0.448  0.000
  0.272  0.082  0.448  0.198  0.001
    occupations:
  0.999  0.000  0.000  0.000  0.000
  0.000  0.862  0.000 -0.072  0.071
  0.000  0.000  0.862  0.071  0.072
  0.000 -0.072  0.071  0.924  0.000
  0.000  0.071  0.072  0.000  0.924
   spin  2
    eigenvalues: 
  0.475  0.476  0.782  0.833  0.834
    eigenvectors:
  0.000  0.000  1.000  0.000  0.000
  0.123  0.516  0.000  0.137  0.224
  0.517  0.123  0.000  0.224  0.137
  0.219  0.141  0.000  0.255  0.384
  0.142  0.219  0.000  0.384  0.255
    occupations:
  0.782  0.000  0.000  0.000  0.000
  0.000  0.605  0.000 -0.038  0.167
  0.000  0.000  0.605  0.168  0.038
  0.000 -0.038  0.168  0.704  0.000
  0.000  0.167  0.038  0.000  0.704
atomic mag. moment =     1.171362
atom    2   Tr[ns(na)] (up, down, total) =   4.66774  3.20004  7.86778
   spin  1
    eigenvalues: 
  0.835  0.835  0.999  0.999  0.999
    eigenvectors:
  0.000  0.000  0.001  0.002  0.997
  0.300  0.346  0.191  0.163  0.000
  0.346  0.300  0.162  0.191  0.001
  0.000  0.353  0.644  0.001  0.001
  0.354  0.000  0.001  0.644  0.001
    occupations:
  0.999  0.000  0.000  0.000  0.000
  0.000  0.893  0.000  0.055  0.055
  0.000  0.000  0.893  0.055 -0.055
  0.000  0.055  0.055  0.941  0.000
  0.000  0.055 -0.055  0.000  0.941
   spin  2
    eigenvalues: 
  0.458  0.459  0.722  0.781  0.781
    eigenvectors:
  0.000  0.000  1.000  0.000  0.000
  0.199  0.436  0.000  0.047  0.318
  0.436  0.199  0.000  0.318  0.047
  0.317  0.048  0.000  0.622  0.013
  0.048  0.317  0.000  0.013  0.622
    occupations:
  0.722  0.000  0.000  0.000  0.000
  0.000  0.576  0.000  0.035  0.151
  0.000  0.000  0.576  0.151 -0.034
  0.000  0.035  0.151  0.663  0.000
  0.000  0.151 -0.034  0.000  0.663
atomic mag. moment =     1.467699
atom    3   Tr[ns(na)] (up, down, total) =   1.91529  1.90091  3.81621
   spin  1
    eigenvalues: 
  0.357  0.357  0.387  0.407  0.407
    eigenvectors:
  0.000  0.000  1.000  0.000  0.000
  0.696  0.229  0.000  0.016  0.059
  0.229  0.696  0.000  0.059  0.016
  0.019  0.056  0.000  0.720  0.205
  0.056  0.019  0.000  0.205  0.720
    occupations:
  0.387  0.000  0.000  0.000  0.000
  0.000  0.361  0.000  0.000  0.013
  0.000  0.000  0.361  0.013  0.000
  0.000  0.000  0.013  0.403  0.000
  0.000  0.013  0.000  0.000  0.403
   spin  2
    eigenvalues: 
  0.353  0.353  0.387  0.404  0.404
    eigenvectors:
  0.000  0.000  1.000  0.000  0.000
  0.684  0.227  0.000  0.060  0.029
  0.227  0.684  0.000  0.029  0.060
  0.024  0.066  0.000  0.315  0.595
  0.066  0.024  0.000  0.595  0.315
    occupations:
  0.387  0.000  0.000  0.000  0.000
  0.000  0.358  0.000  0.000  0.015
  0.000  0.000  0.358  0.015  0.000
  0.000  0.000  0.015  0.399  0.000
  0.000  0.015  0.000  0.000  0.399
atomic mag. moment =     0.014377
atom    4   Tr[ns(na)] (up, down, total) =   1.91525  1.90093  3.81619
   spin  1
    eigenvalues: 
  0.357  0.357  0.387  0.407  0.407
    eigenvectors:
  0.000  0.000  1.000  0.000  0.000
  0.717  0.206  0.000  0.018  0.058
  0.206  0.718  0.000  0.057  0.018
  0.018  0.058  0.000  0.695  0.229
  0.059  0.018  0.000  0.229  0.695
    occupations:
  0.387  0.000  0.000  0.000  0.000
  0.000  0.361  0.000  0.000  0.013
  0.000  0.000  0.361  0.013  0.000
  0.000  0.000  0.013  0.403  0.000
  0.000  0.013  0.000  0.000  0.403
   spin  2
    eigenvalues: 
  0.353  0.353  0.387  0.404  0.404
    eigenvectors:
  0.000  0.000  1.000  0.000  0.000
  0.699  0.211  0.000  0.022  0.068
  0.211  0.699  0.000  0.067  0.022
  0.022  0.067  0.000  0.671  0.239
  0.068  0.022  0.000  0.239  0.671
    occupations:
  0.387  0.000  0.000  0.000  0.000
  0.000  0.358  0.000  0.000  0.015
  0.000  0.000  0.358  0.014  0.000
  0.000  0.000  0.014  0.399  0.000
  0.000  0.015  0.000  0.000  0.399
atomic mag. moment =     0.014322
atom    5   Tr[ns(na)] (up, down, total) =   2.73969  2.69980  5.43948
   spin  1
    eigenvalues: 
  0.842  0.947  0.951
    eigenvectors:
  0.337  0.000  0.663
  0.507  0.245  0.249
  0.157  0.755  0.088
    occupations:
  0.914 -0.045  0.025
 -0.045  0.895  0.029
  0.025  0.029  0.931
   spin  2
    eigenvalues: 
  0.863  0.918  0.919
    eigenvectors:
  0.334  0.547  0.120
  0.517  0.068  0.415
  0.149  0.386  0.465
    occupations:
  0.900 -0.023  0.012
 -0.023  0.890  0.016
  0.012  0.016  0.910
atomic mag. moment =     0.039889
atom    6   Tr[ns(na)] (up, down, total) =   2.74229  2.70344  5.44572
   spin  1
    eigenvalues: 
  0.844  0.947  0.951
    eigenvectors:
  0.337  0.000  0.663
  0.488  0.257  0.255
  0.175  0.743  0.082
    occupations:
  0.915  0.044  0.026
  0.044  0.898 -0.030
  0.026 -0.030  0.929
   spin  2
    eigenvalues: 
  0.864  0.920  0.920
    eigenvectors:
  0.334  0.041  0.626
  0.482  0.398  0.120
  0.184  0.561  0.255
    occupations:
  0.901  0.022  0.014
  0.022  0.893 -0.017
  0.014 -0.017  0.909
atomic mag. moment =     0.038852
atom    7   Tr[ns(na)] (up, down, total) =   2.74229  2.70344  5.44573
   spin  1
    eigenvalues: 
  0.844  0.947  0.951
    eigenvectors:
  0.337  0.000  0.663
  0.000  1.000  0.000
  0.663  0.000  0.337
    occupations:
  0.915  0.001 -0.051
  0.001  0.947  0.001
 -0.051  0.001  0.880
   spin  2
    eigenvalues: 
  0.864  0.920  0.920
    eigenvectors:
  0.334  0.034  0.633
  0.001  0.941  0.058
  0.666  0.025  0.309
    occupations:
  0.901  0.001 -0.026
  0.001  0.920  0.001
 -0.026  0.001  0.883
atomic mag. moment =     0.038852
atom    8   Tr[ns(na)] (up, down, total) =   2.74230  2.70308  5.44539
   spin  1
    eigenvalues: 
  0.844  0.947  0.951
    eigenvectors:
  0.337  0.000  0.663
  0.507  0.245  0.249
  0.157  0.755  0.088
    occupations:
  0.915 -0.044  0.025
 -0.044  0.896  0.029
  0.025  0.029  0.931
   spin  2
    eigenvalues: 
  0.864  0.920  0.920
    eigenvectors:
  0.333  0.077  0.590
  0.517  0.074  0.409
  0.150  0.849  0.002
    occupations:
  0.901 -0.023  0.012
 -0.023  0.891  0.015
  0.012  0.015  0.911
atomic mag. moment =     0.039223
atom    9   Tr[ns(na)] (up, down, total) =   2.74235  2.70346  5.44581
   spin  1
    eigenvalues: 
  0.844  0.947  0.951
    eigenvectors:
  0.337  0.000  0.663
  0.488  0.257  0.255
  0.175  0.743  0.082
    occupations:
  0.915  0.044  0.026
  0.044  0.898 -0.030
  0.026 -0.030  0.930
   spin  2
    eigenvalues: 
  0.864  0.920  0.920
    eigenvectors:
  0.333  0.031  0.636
  0.483  0.383  0.134
  0.184  0.586  0.230
    occupations:
  0.901  0.022  0.014
  0.022  0.893 -0.017
  0.014 -0.017  0.909
atomic mag. moment =     0.038886
atom   10   Tr[ns(na)] (up, down, total) =   2.74235  2.70346  5.44581
   spin  1
    eigenvalues: 
  0.844  0.947  0.951
    eigenvectors:
  0.337  0.000  0.663
  0.000  1.000  0.000
  0.663  0.000  0.337
    occupations:
  0.915  0.001 -0.051
  0.001  0.947  0.001
 -0.051  0.001  0.880
   spin  2
    eigenvalues: 
  0.864  0.920  0.920
    eigenvectors:
  0.333  0.035  0.632
  0.001  0.939  0.060
  0.666  0.026  0.308
    occupations:
  0.901  0.001 -0.026
  0.001  0.920  0.001
 -0.026  0.001  0.883
atomic mag. moment =     0.038885
N of occupied +U levels =  56.1400648
 --- exit write_ns ---
 --- in v_hubbard ---
Hubbard energy    0.0400
 -------

     total cpu time spent up to now is      289.0 secs

     total energy              =    -538.31538921 Ry
     Harris-Foulkes estimate   =    -538.31547209 Ry
     estimated scf accuracy    <       0.00189434 Ry

     total magnetization       =     3.54 Bohr mag/cell
     absolute magnetization    =     3.69 Bohr mag/cell

     iteration #  4     ecut=    30.00 Ry     beta=0.20
     Davidson diagonalization with overlap
     ethr =  1.28E-07,  avg # of iterations =  1.0
 --- enter write_ns ---
 LDA+U parameters:
U( 1)     =  0.00000000
alpha( 1) =  0.00000000
U( 2)     =  0.00000000
alpha( 2) =  0.00000000
U( 3)     =  0.00000000
alpha( 3) =  0.10000000
U( 4)     =  0.00000000
alpha( 4) =  0.00000000
atom    1   Tr[ns(na)] (up, down, total) =   4.56614  3.37483  7.94097
   spin  1
    eigenvalues: 
  0.785  0.785  0.999  0.999  0.999
    eigenvectors:
  0.000  0.000  0.000  0.000  0.999
  0.048  0.598  0.013  0.341  0.000
  0.598  0.048  0.341  0.013  0.000
  0.082  0.271  0.200  0.447  0.000
  0.272  0.082  0.446  0.199  0.001
    occupations:
  0.999  0.000  0.000  0.000  0.000
  0.000  0.861  0.000 -0.073  0.072
  0.000  0.000  0.861  0.072  0.073
  0.000 -0.073  0.072  0.923  0.000
  0.000  0.072  0.073  0.000  0.923
   spin  2
    eigenvalues: 
  0.474  0.475  0.773  0.826  0.826
    eigenvectors:
  0.000  0.000  1.000  0.000  0.000
  0.123  0.516  0.000  0.143  0.218
  0.516  0.123  0.000  0.218  0.143
  0.220  0.141  0.000  0.248  0.391
  0.141  0.220  0.000  0.391  0.248
    occupations:
  0.773  0.000  0.000  0.000  0.000
  0.000  0.602  0.000 -0.037  0.165
  0.000  0.000  0.601  0.165  0.037
  0.000 -0.037  0.165  0.699  0.000
  0.000  0.165  0.037  0.000  0.699
atomic mag. moment =     1.191311
atom    2   Tr[ns(na)] (up, down, total) =   4.67289  3.22660  7.89949
   spin  1
    eigenvalues: 
  0.838  0.838  0.999  0.999  0.999
    eigenvectors:
  0.000  0.000  0.002  0.003  0.996
  0.304  0.342  0.187  0.167  0.000
  0.342  0.304  0.166  0.186  0.001
  0.000  0.354  0.645  0.000  0.001
  0.354  0.000  0.001  0.644  0.002
    occupations:
  0.999  0.000  0.000  0.000  0.000
  0.000  0.895  0.000  0.054  0.054
  0.000  0.000  0.895  0.054 -0.054
  0.000  0.054  0.054  0.942  0.000
  0.000  0.054 -0.054  0.000  0.942
   spin  2
    eigenvalues: 
  0.459  0.460  0.730  0.788  0.788
    eigenvectors:
  0.000  0.000  1.000  0.000  0.000
  0.200  0.435  0.000  0.035  0.329
  0.435  0.200  0.000  0.330  0.035
  0.318  0.047  0.000  0.631  0.005
  0.047  0.318  0.000  0.005  0.631
    occupations:
  0.730  0.000  0.000  0.000  0.000
  0.000  0.580  0.000  0.036  0.154
  0.000  0.000  0.579  0.154 -0.036
  0.000  0.036  0.154  0.668  0.000
  0.000  0.154 -0.036  0.000  0.669
atomic mag. moment =     1.446286
atom    3   Tr[ns(na)] (up, down, total) =   1.91529  1.90088  3.81617
   spin  1
    eigenvalues: 
  0.357  0.357  0.387  0.407  0.407
    eigenvectors:
  0.000  0.000  1.000  0.000  0.000
  0.696  0.229  0.000  0.015  0.060
  0.229  0.696  0.000  0.060  0.015
  0.019  0.056  0.000  0.727  0.197
  0.056  0.019  0.000  0.197  0.727
    occupations:
  0.387  0.000  0.000  0.000  0.000
  0.000  0.361  0.000  0.000  0.013
  0.000  0.000  0.361  0.013  0.000
  0.000  0.000  0.013  0.403  0.000
  0.000  0.013  0.000  0.000  0.403
   spin  2
    eigenvalues: 
  0.353  0.353  0.387  0.404  0.404
    eigenvectors:
  0.000  0.000  1.000  0.000  0.000
  0.684  0.226  0.000  0.066  0.024
  0.226  0.684  0.000  0.024  0.066
  0.024  0.066  0.000  0.257  0.653
  0.066  0.024  0.000  0.653  0.257
    occupations:
  0.387  0.000  0.000  0.000  0.000
  0.000  0.358  0.000  0.000  0.015
  0.000  0.000  0.358  0.015  0.000
  0.000  0.000  0.015  0.399  0.000
  0.000  0.015  0.000  0.000  0.399
atomic mag. moment =     0.014407
atom    4   Tr[ns(na)] (up, down, total) =   1.91525  1.90090  3.81616
   spin  1
    eigenvalues: 
  0.357  0.357  0.387  0.407  0.407
    eigenvectors:
  0.000  0.000  1.000  0.000  0.000
  0.713  0.211  0.000  0.018  0.058
  0.211  0.714  0.000  0.058  0.018
  0.018  0.058  0.000  0.696  0.228
  0.058  0.018  0.000  0.229  0.695
    occupations:
  0.387  0.000  0.000  0.000  0.000
  0.000  0.361  0.000  0.000  0.013
  0.000  0.000  0.361  0.013  0.000
  0.000  0.000  0.013  0.403  0.000
  0.000  0.013  0.000  0.000  0.403
   spin  2
    eigenvalues: 
  0.353  0.353  0.387  0.404  0.404
    eigenvectors:
  0.000  0.000  1.000  0.000  0.000
  0.697  0.213  0.000  0.022  0.068
  0.213  0.698  0.000  0.067  0.022
  0.022  0.067  0.000  0.672  0.238
  0.068  0.022  0.000  0.239  0.671
    occupations:
  0.387  0.000  0.000  0.000  0.000
  0.000  0.358  0.000  0.000  0.015
  0.000  0.000  0.358  0.014  0.000
  0.000  0.000  0.014  0.399  0.000
  0.000  0.015  0.000  0.000  0.399
atomic mag. moment =     0.014352
atom    5   Tr[ns(na)] (up, down, total) =   2.73974  2.69967  5.43941
   spin  1
    eigenvalues: 
  0.842  0.947  0.951
    eigenvectors:
  0.337  0.000  0.663
  0.508  0.244  0.249
  0.155  0.756  0.089
    occupations:
  0.914 -0.045  0.025
 -0.045  0.895  0.029
  0.025  0.029  0.931
   spin  2
    eigenvalues: 
  0.863  0.918  0.919
    eigenvectors:
  0.334  0.616  0.051
  0.514  0.126  0.360
  0.153  0.258  0.589
    occupations:
  0.900 -0.023  0.013
 -0.023  0.890  0.016
  0.013  0.016  0.910
atomic mag. moment =     0.040076
atom    6   Tr[ns(na)] (up, down, total) =   2.74233  2.70330  5.44563
   spin  1
    eigenvalues: 
  0.844  0.947  0.951
    eigenvectors:
  0.337  0.000  0.663
  0.487  0.258  0.255
  0.176  0.742  0.082
    occupations:
  0.915  0.043  0.026
  0.043  0.898 -0.030
  0.026 -0.030  0.929
   spin  2
    eigenvalues: 
  0.864  0.920  0.920
    eigenvectors:
  0.334  0.036  0.630
  0.486  0.387  0.128
  0.181  0.577  0.242
    occupations:
  0.901  0.022  0.014
  0.022  0.893 -0.016
  0.014 -0.016  0.910
atomic mag. moment =     0.039029
atom    7   Tr[ns(na)] (up, down, total) =   2.74233  2.70330  5.44563
   spin  1
    eigenvalues: 
  0.844  0.947  0.951
    eigenvectors:
  0.337  0.000  0.663
  0.000  1.000  0.000
  0.663  0.000  0.337
    occupations:
  0.915  0.001 -0.051
  0.001  0.947  0.001
 -0.051  0.001  0.880
   spin  2
    eigenvalues: 
  0.864  0.920  0.920
    eigenvectors:
  0.334  0.025  0.641
  0.000  0.956  0.043
  0.666  0.018  0.316
    occupations:
  0.901  0.001 -0.026
  0.001  0.920  0.001
 -0.026  0.001  0.883
atomic mag. moment =     0.039031
atom    8   Tr[ns(na)] (up, down, total) =   2.74240  2.70300  5.44539
   spin  1
    eigenvalues: 
  0.844  0.947  0.951
    eigenvectors:
  0.337  0.000  0.663
  0.508  0.244  0.248
  0.156  0.756  0.089
    occupations:
  0.915 -0.044  0.025
 -0.044  0.896  0.028
  0.025  0.028  0.932
   spin  2
    eigenvalues: 
  0.864  0.920  0.920
    eigenvectors:
  0.333  0.076  0.591
  0.514  0.078  0.408
  0.153  0.846  0.001
    occupations:
  0.901 -0.023  0.013
 -0.023  0.891  0.016
  0.013  0.016  0.911
atomic mag. moment =     0.039397
atom    9   Tr[ns(na)] (up, down, total) =   2.74238  2.70331  5.44569
   spin  1
    eigenvalues: 
  0.844  0.947  0.951
    eigenvectors:
  0.337  0.000  0.663
  0.487  0.258  0.255
  0.176  0.742  0.082
    occupations:
  0.915  0.043  0.026
  0.043  0.898 -0.030
  0.026 -0.030  0.929
   spin  2
    eigenvalues: 
  0.864  0.920  0.920
    eigenvectors:
  0.333  0.026  0.641
  0.486  0.369  0.145
  0.181  0.605  0.214
    occupations:
  0.901  0.022  0.014
  0.022  0.893 -0.016
  0.014 -0.016  0.910
atomic mag. moment =     0.039066
atom   10   Tr[ns(na)] (up, down, total) =   2.74238  2.70331  5.44569
   spin  1
    eigenvalues: 
  0.844  0.947  0.951
    eigenvectors:
  0.337  0.000  0.663
  0.000  1.000  0.000
  0.663  0.000  0.337
    occupations:
  0.915  0.001 -0.051
  0.001  0.947  0.001
 -0.051  0.001  0.880
   spin  2
    eigenvalues: 
  0.864  0.920  0.920
    eigenvectors:
  0.333  0.027  0.640
  0.000  0.954  0.046
  0.666  0.020  0.314
    occupations:
  0.901  0.001 -0.026
  0.001  0.920  0.001
 -0.026  0.001  0.883
atomic mag. moment =     0.039064
N of occupied +U levels =  56.1402355
 --- exit write_ns ---
 --- in v_hubbard ---
Hubbard energy    0.0400
 -------

     total cpu time spent up to now is      347.4 secs

     total energy              =    -538.31543029 Ry
     Harris-Foulkes estimate   =    -538.31543029 Ry
     estimated scf accuracy    <       0.00000099 Ry

     total magnetization       =     3.54 Bohr mag/cell
     absolute magnetization    =     3.69 Bohr mag/cell

     iteration #  5     ecut=    30.00 Ry     beta=0.20
     Davidson diagonalization with overlap
     ethr =  1.30E-09,  avg # of iterations =  2.7
 --- enter write_ns ---
 LDA+U parameters:
U( 1)     =  0.00000000
alpha( 1) =  0.00000000
U( 2)     =  0.00000000
alpha( 2) =  0.00000000
U( 3)     =  0.00000000
alpha( 3) =  0.10000000
U( 4)     =  0.00000000
alpha( 4) =  0.00000000
atom    1   Tr[ns(na)] (up, down, total) =   4.56610  3.37471  7.94081
   spin  1
    eigenvalues: 
  0.785  0.785  0.999  0.999  0.999
    eigenvectors:
  0.000  0.000  0.001  0.000  0.999
  0.049  0.597  0.014  0.340  0.000
  0.597  0.049  0.339  0.014  0.000
  0.081  0.272  0.192  0.454  0.000
  0.272  0.081  0.453  0.192  0.000
    occupations:
  0.999  0.000  0.000  0.000  0.000
  0.000  0.861  0.000 -0.073  0.072
  0.000  0.000  0.861  0.072  0.073
  0.000 -0.073  0.072  0.923  0.000
  0.000  0.072  0.073  0.000  0.923
   spin  2
    eigenvalues: 
  0.474  0.475  0.773  0.826  0.826
    eigenvectors:
  0.000  0.000  1.000  0.000  0.000
  0.123  0.516  0.000  0.150  0.211
  0.516  0.123  0.000  0.211  0.150
  0.220  0.141  0.000  0.235  0.404
  0.141  0.220  0.000  0.404  0.235
    occupations:
  0.773  0.000  0.000  0.000  0.000
  0.000  0.602  0.000 -0.037  0.165
  0.000  0.000  0.601  0.165  0.037
  0.000 -0.037  0.165  0.699  0.000
  0.000  0.165  0.037  0.000  0.699
atomic mag. moment =     1.191384
atom    2   Tr[ns(na)] (up, down, total) =   4.67281  3.22641  7.89922
   spin  1
    eigenvalues: 
  0.838  0.838  0.999  0.999  0.999
    eigenvectors:
  0.000  0.000  0.002  0.003  0.996
  0.308  0.338  0.185  0.168  0.000
  0.338  0.308  0.168  0.185  0.001
  0.000  0.354  0.645  0.000  0.001
  0.354  0.000  0.000  0.644  0.002
    occupations:
  0.999  0.000  0.000  0.000  0.000
  0.000  0.895  0.000  0.054  0.054
  0.000  0.000  0.895  0.054 -0.055
  0.000  0.054  0.054  0.942  0.000
  0.000  0.054 -0.055  0.000  0.942
   spin  2
    eigenvalues: 
  0.459  0.460  0.730  0.788  0.788
    eigenvectors:
  0.000  0.000  1.000  0.000  0.000
  0.200  0.435  0.000  0.028  0.337
  0.435  0.200  0.000  0.337  0.028
  0.318  0.047  0.000  0.634  0.002
  0.047  0.318  0.000  0.002  0.634
    occupations:
  0.730  0.000  0.000  0.000  0.000
  0.000  0.580  0.000  0.036  0.154
  0.000  0.000  0.579  0.154 -0.036
  0.000  0.036  0.154  0.668  0.000
  0.000  0.154 -0.036  0.000  0.669
atomic mag. moment =     1.446402
atom    3   Tr[ns(na)] (up, down, total) =   1.91524  1.90084  3.81608
   spin  1
    eigenvalues: 
  0.357  0.357  0.387  0.407  0.407
    eigenvectors:
  0.000  0.000  1.000  0.000  0.000
  0.695  0.229  0.000  0.015  0.060
  0.229  0.695  0.000  0.060  0.015
  0.019  0.056  0.000  0.731  0.194
  0.056  0.019  0.000  0.194  0.731
    occupations:
  0.387  0.000  0.000  0.000  0.000
  0.000  0.361  0.000  0.000  0.013
  0.000  0.000  0.361  0.013  0.000
  0.000  0.000  0.013  0.403  0.000
  0.000  0.013  0.000  0.000  0.403
   spin  2
    eigenvalues: 
  0.353  0.353  0.387  0.404  0.404
    eigenvectors:
  0.000  0.000  1.000  0.000  0.000
  0.684  0.227  0.000  0.066  0.023
  0.227  0.684  0.000  0.023  0.066
  0.024  0.066  0.000  0.252  0.658
  0.066  0.024  0.000  0.658  0.252
    occupations:
  0.387  0.000  0.000  0.000  0.000
  0.000  0.358  0.000  0.000  0.015
  0.000  0.000  0.358  0.015  0.000
  0.000  0.000  0.015  0.399  0.000
  0.000  0.015  0.000  0.000  0.399
atomic mag. moment =     0.014397
atom    4   Tr[ns(na)] (up, down, total) =   1.91520  1.90086  3.81607
   spin  1
    eigenvalues: 
  0.357  0.357  0.387  0.407  0.407
    eigenvectors:
  0.000  0.000  1.000  0.000  0.000
  0.709  0.215  0.000  0.018  0.058
  0.215  0.710  0.000  0.057  0.019
  0.019  0.057  0.000  0.691  0.233
  0.058  0.018  0.000  0.233  0.691
    occupations:
  0.387  0.000  0.000  0.000  0.000
  0.000  0.361  0.000  0.000  0.013
  0.000  0.000  0.361  0.013  0.000
  0.000  0.000  0.013  0.403  0.000
  0.000  0.013  0.000  0.000  0.403
   spin  2
    eigenvalues: 
  0.353  0.353  0.387  0.404  0.404
    eigenvectors:
  0.000  0.000  1.000  0.000  0.000
  0.695  0.215  0.000  0.023  0.067
  0.215  0.696  0.000  0.067  0.023
  0.023  0.067  0.000  0.667  0.243
  0.068  0.022  0.000  0.243  0.667
    occupations:
  0.387  0.000  0.000  0.000  0.000
  0.000  0.358  0.000  0.000  0.015
  0.000  0.000  0.358  0.014  0.000
  0.000  0.000  0.014  0.399  0.000
  0.000  0.015  0.000  0.000  0.399
atomic mag. moment =     0.014341
atom    5   Tr[ns(na)] (up, down, total) =   2.73980  2.69972  5.43951
   spin  1
    eigenvalues: 
  0.842  0.947  0.951
    eigenvectors:
  0.337  0.000  0.663
  0.508  0.244  0.249
  0.156  0.756  0.089
    occupations:
  0.914 -0.045  0.025
 -0.045  0.895  0.029
  0.025  0.029  0.931
   spin  2
    eigenvalues: 
  0.863  0.918  0.919
    eigenvectors:
  0.334  0.616  0.050
  0.514  0.127  0.360
  0.153  0.257  0.590
    occupations:
  0.900 -0.023  0.013
 -0.023  0.890  0.016
  0.013  0.016  0.910
atomic mag. moment =     0.040081
atom    6   Tr[ns(na)] (up, down, total) =   2.74236  2.70334  5.44570
   spin  1
    eigenvalues: 
  0.844  0.947  0.951
    eigenvectors:
  0.337  0.000  0.663
  0.487  0.258  0.255
  0.176  0.742  0.082
    occupations:
  0.915  0.043  0.026
  0.043  0.898 -0.030
  0.026 -0.030  0.929
   spin  2
    eigenvalues: 
  0.864  0.920  0.920
    eigenvectors:
  0.334  0.039  0.627
  0.486  0.391  0.124
  0.181  0.570  0.249
    occupations:
  0.901  0.022  0.014
  0.022  0.893 -0.016
  0.014 -0.016  0.910
atomic mag. moment =     0.039018
atom    7   Tr[ns(na)] (up, down, total) =   2.74236  2.70334  5.44570
   spin  1
    eigenvalues: 
  0.844  0.947  0.951
    eigenvectors:
  0.337  0.000  0.663
  0.000  1.000  0.000
  0.663  0.000  0.337
    occupations:
  0.915  0.001 -0.051
  0.001  0.947  0.001
 -0.051  0.001  0.880
   spin  2
    eigenvalues: 
  0.864  0.920  0.920
    eigenvectors:
  0.334  0.021  0.645
  0.000  0.963  0.036
  0.666  0.016  0.318
    occupations:
  0.901  0.001 -0.026
  0.001  0.920  0.001
 -0.026  0.001  0.883
atomic mag. moment =     0.039020
atom    8   Tr[ns(na)] (up, down, total) =   2.74246  2.70307  5.44553
   spin  1
    eigenvalues: 
  0.844  0.947  0.951
    eigenvectors:
  0.337  0.000  0.663
  0.508  0.244  0.248
  0.156  0.756  0.089
    occupations:
  0.915 -0.044  0.025
 -0.044  0.896  0.028
  0.025  0.028  0.932
   spin  2
    eigenvalues: 
  0.864  0.920  0.920
    eigenvectors:
  0.333  0.073  0.594
  0.514  0.081  0.406
  0.153  0.846  0.001
    occupations:
  0.901 -0.023  0.013
 -0.023  0.891  0.016
  0.013  0.016  0.911
atomic mag. moment =     0.039394
atom    9   Tr[ns(na)] (up, down, total) =   2.74241  2.70335  5.44575
   spin  1
    eigenvalues: 
  0.844  0.947  0.951
    eigenvectors:
  0.337  0.000  0.663
  0.487  0.258  0.255
  0.176  0.742  0.082
    occupations:
  0.915  0.043  0.026
  0.043  0.898 -0.030
  0.026 -0.030  0.929
   spin  2
    eigenvalues: 
  0.864  0.920  0.920
    eigenvectors:
  0.333  0.029  0.638
  0.486  0.373  0.140
  0.181  0.598  0.221
    occupations:
  0.901  0.022  0.014
  0.022  0.893 -0.016
  0.014 -0.016  0.910
atomic mag. moment =     0.039057
atom   10   Tr[ns(na)] (up, down, total) =   2.74240  2.70335  5.44575
   spin  1
    eigenvalues: 
  0.844  0.947  0.951
    eigenvectors:
  0.337  0.000  0.663
  0.000  1.000  0.000
  0.663  0.000  0.337
    occupations:
  0.915  0.001 -0.051
  0.001  0.947  0.001
 -0.051  0.001  0.880
   spin  2
    eigenvalues: 
  0.864  0.920  0.920
    eigenvectors:
  0.333  0.023  0.644
  0.000  0.960  0.040
  0.666  0.017  0.316
    occupations:
  0.901  0.001 -0.026
  0.001  0.920  0.001
 -0.026  0.001  0.883
atomic mag. moment =     0.039055
N of occupied +U levels =  56.1401358
 --- exit write_ns ---
 --- in v_hubbard ---
Hubbard energy    0.0400
 -------

     total cpu time spent up to now is      410.6 secs

     total energy              =    -538.31543039 Ry
     Harris-Foulkes estimate   =    -538.31543040 Ry
     estimated scf accuracy    <       0.00000055 Ry

     total magnetization       =     3.54 Bohr mag/cell
     absolute magnetization    =     3.69 Bohr mag/cell

     iteration #  6     ecut=    30.00 Ry     beta=0.20
     Davidson diagonalization with overlap
     ethr =  7.27E-10,  avg # of iterations =  1.2
 --- enter write_ns ---
 LDA+U parameters:
U( 1)     =  0.00000000
alpha( 1) =  0.00000000
U( 2)     =  0.00000000
alpha( 2) =  0.00000000
U( 3)     =  0.00000000
alpha( 3) =  0.10000000
U( 4)     =  0.00000000
alpha( 4) =  0.00000000
atom    1   Tr[ns(na)] (up, down, total) =   4.56613  3.37500  7.94113
   spin  1
    eigenvalues: 
  0.785  0.785  0.999  0.999  0.999
    eigenvectors:
  0.000  0.000  0.001  0.000  0.999
  0.055  0.591  0.014  0.339  0.000
  0.591  0.055  0.339  0.014  0.000
  0.076  0.277  0.192  0.454  0.000
  0.277  0.076  0.454  0.192  0.000
    occupations:
  0.999  0.000  0.000  0.000  0.000
  0.000  0.861  0.000 -0.073  0.072
  0.000  0.000  0.861  0.072  0.073
  0.000 -0.073  0.072  0.923  0.000
  0.000  0.072  0.073  0.000  0.923
   spin  2
    eigenvalues: 
  0.474  0.475  0.773  0.826  0.826
    eigenvectors:
  0.000  0.000  1.000  0.000  0.000
  0.124  0.515  0.000  0.156  0.205
  0.516  0.124  0.000  0.205  0.156
  0.220  0.141  0.000  0.224  0.415
  0.141  0.220  0.000  0.415  0.224
    occupations:
  0.773  0.000  0.000  0.000  0.000
  0.000  0.602  0.000 -0.037  0.165
  0.000  0.000  0.601  0.165  0.037
  0.000 -0.037  0.165  0.699  0.000
  0.000  0.165  0.037  0.000  0.699
atomic mag. moment =     1.191125
atom    2   Tr[ns(na)] (up, down, total) =   4.67267  3.22632  7.89899
   spin  1
    eigenvalues: 
  0.838  0.838  0.999  0.999  0.999
    eigenvectors:
  0.000  0.000  0.002  0.003  0.996
  0.313  0.333  0.184  0.169  0.000
  0.333  0.313  0.169  0.184  0.002
  0.000  0.354  0.645  0.000  0.001
  0.354  0.000  0.000  0.644  0.002
    occupations:
  0.999  0.000  0.000  0.000  0.000
  0.000  0.895  0.000  0.054  0.054
  0.000  0.000  0.895  0.054 -0.055
  0.000  0.054  0.054  0.942  0.000
  0.000  0.054 -0.055  0.000  0.942
   spin  2
    eigenvalues: 
  0.459  0.460  0.730  0.788  0.788
    eigenvectors:
  0.000  0.000  1.000  0.000  0.000
  0.200  0.435  0.000  0.025  0.339
  0.435  0.200  0.000  0.339  0.025
  0.318  0.047  0.000  0.634  0.001
  0.047  0.318  0.000  0.001  0.635
    occupations:
  0.730  0.000  0.000  0.000  0.000
  0.000  0.580  0.000  0.036  0.154
  0.000  0.000  0.579  0.154 -0.036
  0.000  0.036  0.154  0.668  0.000
  0.000  0.154 -0.036  0.000  0.669
atomic mag. moment =     1.446358
atom    3   Tr[ns(na)] (up, down, total) =   1.91517  1.90078  3.81594
   spin  1
    eigenvalues: 
  0.357  0.357  0.387  0.407  0.407
    eigenvectors:
  0.000  0.000  1.000  0.000  0.000
  0.695  0.229  0.000  0.015  0.060
  0.229  0.695  0.000  0.060  0.015
  0.019  0.056  0.000  0.729  0.195
  0.056  0.019  0.000  0.195  0.729
    occupations:
  0.387  0.000  0.000  0.000  0.000
  0.000  0.361  0.000  0.000  0.013
  0.000  0.000  0.361  0.013  0.000
  0.000  0.000  0.013  0.403  0.000
  0.000  0.013  0.000  0.000  0.403
   spin  2
    eigenvalues: 
  0.353  0.353  0.387  0.404  0.404
    eigenvectors:
  0.000  0.000  1.000  0.000  0.000
  0.684  0.227  0.000  0.064  0.025
  0.227  0.684  0.000  0.025  0.064
  0.024  0.066  0.000  0.273  0.638
  0.066  0.024  0.000  0.638  0.273
    occupations:
  0.387  0.000  0.000  0.000  0.000
  0.000  0.358  0.000  0.000  0.015
  0.000  0.000  0.358  0.015  0.000
  0.000  0.000  0.015  0.399  0.000
  0.000  0.015  0.000  0.000  0.399
atomic mag. moment =     0.014394
atom    4   Tr[ns(na)] (up, down, total) =   1.91513  1.90080  3.81593
   spin  1
    eigenvalues: 
  0.357  0.357  0.387  0.407  0.407
    eigenvectors:
  0.000  0.000  1.000  0.000  0.000
  0.707  0.217  0.000  0.018  0.058
  0.217  0.708  0.000  0.057  0.018
  0.019  0.057  0.000  0.693  0.232
  0.058  0.018  0.000  0.232  0.692
    occupations:
  0.387  0.000  0.000  0.000  0.000
  0.000  0.361  0.000  0.000  0.013
  0.000  0.000  0.361  0.013  0.000
  0.000  0.000  0.013  0.403  0.000
  0.000  0.013  0.000  0.000  0.403
   spin  2
    eigenvalues: 
  0.353  0.353  0.387  0.404  0.404
    eigenvectors:
  0.000  0.000  1.000  0.000  0.000
  0.695  0.215  0.000  0.023  0.068
  0.215  0.695  0.000  0.067  0.023
  0.023  0.067  0.000  0.668  0.242
  0.068  0.022  0.000  0.242  0.668
    occupations:
  0.387  0.000  0.000  0.000  0.000
  0.000  0.358  0.000  0.000  0.015
  0.000  0.000  0.358  0.014  0.000
  0.000  0.000  0.014  0.399  0.000
  0.000  0.015  0.000  0.000  0.399
atomic mag. moment =     0.014337
atom    5   Tr[ns(na)] (up, down, total) =   2.73980  2.69970  5.43950
   spin  1
    eigenvalues: 
  0.842  0.947  0.951
    eigenvectors:
  0.337  0.000  0.663
  0.508  0.244  0.249
  0.156  0.756  0.089
    occupations:
  0.914 -0.045  0.025
 -0.045  0.895  0.029
  0.025  0.029  0.931
   spin  2
    eigenvalues: 
  0.863  0.918  0.919
    eigenvectors:
  0.334  0.618  0.048
  0.514  0.130  0.357
  0.153  0.252  0.595
    occupations:
  0.900 -0.023  0.013
 -0.023  0.890  0.016
  0.013  0.016  0.910
atomic mag. moment =     0.040105
atom    6   Tr[ns(na)] (up, down, total) =   2.74237  2.70336  5.44573
   spin  1
    eigenvalues: 
  0.844  0.947  0.951
    eigenvectors:
  0.337  0.000  0.663
  0.487  0.258  0.255
  0.176  0.742  0.082
    occupations:
  0.915  0.043  0.026
  0.043  0.898 -0.030
  0.026 -0.030  0.929
   spin  2
    eigenvalues: 
  0.864  0.920  0.920
    eigenvectors:
  0.334  0.045  0.621
  0.485  0.398  0.116
  0.181  0.557  0.263
    occupations:
  0.901  0.022  0.014
  0.022  0.893 -0.016
  0.014 -0.016  0.910
atomic mag. moment =     0.039007
atom    7   Tr[ns(na)] (up, down, total) =   2.74237  2.70336  5.44573
   spin  1
    eigenvalues: 
  0.844  0.947  0.951
    eigenvectors:
  0.337  0.000  0.663
  0.000  1.000  0.000
  0.663  0.000  0.337
    occupations:
  0.915  0.001 -0.051
  0.001  0.947  0.001
 -0.051  0.001  0.880
   spin  2
    eigenvalues: 
  0.864  0.920  0.920
    eigenvectors:
  0.334  0.012  0.654
  0.000  0.977  0.023
  0.666  0.010  0.324
    occupations:
  0.901  0.001 -0.026
  0.001  0.920  0.001
 -0.026  0.001  0.883
atomic mag. moment =     0.039009
atom    8   Tr[ns(na)] (up, down, total) =   2.74249  2.70307  5.44556
   spin  1
    eigenvalues: 
  0.844  0.947  0.951
    eigenvectors:
  0.337  0.000  0.663
  0.508  0.244  0.248
  0.156  0.756  0.089
    occupations:
  0.915 -0.044  0.025
 -0.044  0.896  0.028
  0.025  0.028  0.932
   spin  2
    eigenvalues: 
  0.864  0.920  0.920
    eigenvectors:
  0.333  0.072  0.594
  0.514  0.082  0.405
  0.153  0.846  0.001
    occupations:
  0.901 -0.023  0.013
 -0.023  0.891  0.016
  0.013  0.016  0.911
atomic mag. moment =     0.039416
atom    9   Tr[ns(na)] (up, down, total) =   2.74242  2.70337  5.44579
   spin  1
    eigenvalues: 
  0.844  0.947  0.951
    eigenvectors:
  0.337  0.000  0.663
  0.487  0.258  0.255
  0.176  0.742  0.082
    occupations:
  0.915  0.043  0.026
  0.043  0.898 -0.030
  0.026 -0.030  0.929
   spin  2
    eigenvalues: 
  0.864  0.920  0.920
    eigenvectors:
  0.333  0.034  0.633
  0.486  0.382  0.132
  0.181  0.585  0.235
    occupations:
  0.901  0.022  0.014
  0.022  0.893 -0.016
  0.014 -0.016  0.910
atomic mag. moment =     0.039047
atom   10   Tr[ns(na)] (up, down, total) =   2.74241  2.70337  5.44578
   spin  1
    eigenvalues: 
  0.844  0.947  0.951
    eigenvectors:
  0.337  0.000  0.663
  0.000  1.000  0.000
  0.663  0.000  0.337
    occupations:
  0.915  0.001 -0.051
  0.001  0.947  0.001
 -0.051  0.001  0.880
   spin  2
    eigenvalues: 
  0.864  0.920  0.920
    eigenvectors:
  0.333  0.015  0.652
  0.000  0.973  0.026
  0.666  0.012  0.321
    occupations:
  0.901  0.001 -0.026
  0.001  0.920  0.001
 -0.026  0.001  0.883
atomic mag. moment =     0.039045
N of occupied +U levels =  56.1400805
 --- exit write_ns ---
 --- in v_hubbard ---
Hubbard energy    0.0400
 -------

     total cpu time spent up to now is      460.9 secs

     total energy              =    -538.31543047 Ry
     Harris-Foulkes estimate   =    -538.31543043 Ry
     estimated scf accuracy    <       0.00000013 Ry

     total magnetization       =     3.54 Bohr mag/cell
     absolute magnetization    =     3.69 Bohr mag/cell

     iteration #  7     ecut=    30.00 Ry     beta=0.20
     Davidson diagonalization with overlap
     ethr =  1.73E-10,  avg # of iterations =  1.4
 --- enter write_ns ---
 LDA+U parameters:
U( 1)     =  0.00000000
alpha( 1) =  0.00000000
U( 2)     =  0.00000000
alpha( 2) =  0.00000000
U( 3)     =  0.00000000
alpha( 3) =  0.10000000
U( 4)     =  0.00000000
alpha( 4) =  0.00000000
atom    1   Tr[ns(na)] (up, down, total) =   4.56607  3.37486  7.94094
   spin  1
    eigenvalues: 
  0.785  0.785  0.999  0.999  0.999
    eigenvectors:
  0.000  0.000  0.001  0.000  0.999
  0.062  0.584  0.015  0.339  0.000
  0.584  0.062  0.339  0.015  0.000
  0.071  0.283  0.191  0.456  0.000
[...]
     0.0313   0.0313   0.0313   0.0312   0.0312   0.0312   0.0312   0.0312
     0.0312   0.0293   0.0275   0.0259   0.0118   0.0072   0.0004   0.0000
     0.0000   0.0000   0.0000   0.0000   0.0000   0.0000

          k = 0.4942-0.5706 0.1027 (  2198 PWs)   bands (ev):

   -19.6840 -19.6437  -6.8630  -6.5484  -6.0339  -5.7788  -5.3841  -5.2491
    -3.2547  -3.2044  -2.8133  -2.6417  -2.4598  -2.3175   6.0386   6.4179
     7.0550   7.3224   7.4260   7.4742   7.7300   8.0127   8.1131   8.3069
     8.5470   9.0984   9.3378   9.5221   9.8658   9.9834  10.1419  10.5329
    11.6089  12.0250  12.0776  12.1930  12.3292  12.3392  13.1445  13.5057
    14.1248  14.9939  16.9604  17.1796  17.3696  18.0708

     occupation numbers 
     0.0313   0.0313   0.0313   0.0313   0.0313   0.0313   0.0313   0.0313
     0.0313   0.0313   0.0313   0.0313   0.0313   0.0313   0.0313   0.0313
     0.0313   0.0313   0.0313   0.0313   0.0313   0.0313   0.0313   0.0313
     0.0313   0.0313   0.0313   0.0313   0.0313   0.0312   0.0312   0.0312
     0.0310   0.0259   0.0244   0.0202   0.0144   0.0140   0.0001   0.0000
     0.0000   0.0000   0.0000   0.0000   0.0000   0.0000

          k =-0.7412 0.1427-0.1027 (  2198 PWs)   bands (ev):

   -19.6840 -19.6437  -6.8625  -6.5493  -6.0329  -5.7800  -5.3830  -5.2496
    -3.2540  -3.2045  -2.8132  -2.6427  -2.4590  -2.3179   6.0411   6.4144
     7.0591   7.3165   7.4066   7.4883   7.7410   8.0123   8.1385   8.2761
     8.5506   9.0911   9.3424   9.5248   9.8692   9.9801  10.1417  10.5321
    11.6116  11.9968  12.1031  12.1919  12.3251  12.3430  13.1473  13.5060
    14.1249  14.9926  16.9581  17.1821  17.3691  18.0709

     occupation numbers 
     0.0313   0.0313   0.0313   0.0313   0.0313   0.0313   0.0313   0.0313
     0.0313   0.0313   0.0313   0.0313   0.0313   0.0313   0.0313   0.0313
     0.0313   0.0313   0.0313   0.0313   0.0313   0.0313   0.0313   0.0313
     0.0313   0.0313   0.0313   0.0313   0.0313   0.0312   0.0312   0.0312
     0.0310   0.0267   0.0235   0.0202   0.0146   0.0138   0.0001   0.0000
     0.0000   0.0000   0.0000   0.0000   0.0000   0.0000

          k = 0.2471-0.7133-0.1027 (  2198 PWs)   bands (ev):

   -19.6840 -19.6437  -6.8627  -6.5489  -6.0337  -5.7792  -5.3823  -5.2506
    -3.2539  -3.2044  -2.8136  -2.6418  -2.4591  -2.3182   6.0404   6.4141
     7.0579   7.3167   7.4108   7.4854   7.7407   8.0085   8.1412   8.2794
     8.5494   9.0903   9.3435   9.5275   9.8654   9.9814  10.1408  10.5325
    11.6116  11.9973  12.1029  12.1901  12.3263  12.3437  13.1472  13.5060
    14.1249  14.9926  16.9594  17.1801  17.3690  18.0706

     occupation numbers 
     0.0313   0.0313   0.0313   0.0313   0.0313   0.0313   0.0313   0.0313
     0.0313   0.0313   0.0313   0.0313   0.0313   0.0313   0.0313   0.0313
     0.0313   0.0313   0.0313   0.0313   0.0313   0.0313   0.0313   0.0313
     0.0313   0.0313   0.0313   0.0313   0.0313   0.0312   0.0312   0.0312
     0.0310   0.0267   0.0235   0.0203   0.0145   0.0138   0.0001   0.0000
     0.0000   0.0000   0.0000   0.0000   0.0000   0.0000

          k =-0.7412-0.1427 0.1027 (  2198 PWs)   bands (ev):

   -19.6840 -19.6437  -6.8632  -6.5480  -6.0346  -5.7781  -5.3834  -5.2501
    -3.2546  -3.2043  -2.8137  -2.6408  -2.4598  -2.3178   6.0379   6.4176
     7.0539   7.3232   7.4297   7.4712   7.7296   8.0092   8.1158   8.3099
     8.5459   9.0974   9.3388   9.5247   9.8623   9.9845  10.1410  10.5333
    11.6090  12.0252  12.0777  12.1914  12.3299  12.3400  13.1444  13.5056
    14.1249  14.9939  16.9616  17.1776  17.3695  18.0705

     occupation numbers 
     0.0313   0.0313   0.0313   0.0313   0.0313   0.0313   0.0313   0.0313
     0.0313   0.0313   0.0313   0.0313   0.0313   0.0313   0.0313   0.0313
     0.0313   0.0313   0.0313   0.0313   0.0313   0.0313   0.0313   0.0313
     0.0313   0.0313   0.0313   0.0313   0.0313   0.0312   0.0312   0.0312
     0.0310   0.0259   0.0244   0.0202   0.0144   0.0139   0.0001   0.0000
     0.0000   0.0000   0.0000   0.0000   0.0000   0.0000

          k = 0.2471 0.7133 0.1027 (  2198 PWs)   bands (ev):

   -19.6848 -19.6442  -6.8530  -6.5509  -6.0251  -5.7971  -5.3915  -5.2394
    -3.2538  -3.2041  -2.8149  -2.6389  -2.4589  -2.3150   6.0264   6.4291
     7.0409   7.3171   7.4225   7.4610   7.7402   8.0162   8.1145   8.3042
     8.5550   9.0937   9.3506   9.5294   9.8611   9.9877  10.1437  10.5262
    11.6079  12.0267  12.0779  12.1916  12.3286  12.3426  13.1453  13.5033
    14.1266  14.9940  16.9602  17.1778  17.3690  18.0703

     occupation numbers 
     0.0313   0.0313   0.0313   0.0313   0.0313   0.0313   0.0313   0.0313
     0.0313   0.0313   0.0313   0.0313   0.0313   0.0313   0.0313   0.0313
     0.0313   0.0313   0.0313   0.0313   0.0313   0.0313   0.0313   0.0313
     0.0313   0.0313   0.0313   0.0313   0.0313   0.0312   0.0312   0.0312
     0.0310   0.0259   0.0244   0.0202   0.0144   0.0138   0.0001   0.0000
     0.0000   0.0000   0.0000   0.0000   0.0000   0.0000

          k = 0.2471-0.4280 0.0000 (  2203 PWs)   bands (ev):

   -19.6941 -19.6364  -6.7496  -6.5431  -5.9436  -5.8749  -5.3144  -5.2314
    -3.4594  -3.2481  -2.7372  -2.6427  -2.5020  -2.4870   5.9902   6.4410
     7.2689   7.4041   7.4575   7.5287   7.5810   7.9239   8.0300   8.3966
     8.6513   9.1129   9.5696   9.6871   9.9518   9.9627  10.2234  10.5438
    11.8734  11.8883  11.9554  12.1471  12.1680  12.4409  13.1149  13.9805
    14.0996  14.7991  16.5005  17.0506  17.4678  17.9718

     occupation numbers 
     0.0313   0.0313   0.0313   0.0313   0.0313   0.0313   0.0313   0.0313
     0.0313   0.0313   0.0313   0.0313   0.0313   0.0313   0.0313   0.0313
     0.0313   0.0313   0.0313   0.0313   0.0313   0.0313   0.0313   0.0313
     0.0313   0.0313   0.0313   0.0313   0.0312   0.0312   0.0312   0.0312
     0.0291   0.0289   0.0276   0.0220   0.0212   0.0098   0.0001   0.0000
     0.0000   0.0000   0.0000   0.0000   0.0000   0.0000

          k =-0.4942 0.0000 0.0000 (  2203 PWs)   bands (ev):

   -19.6941 -19.6364  -6.7496  -6.5432  -5.9436  -5.8749  -5.3144  -5.2314
    -3.4594  -3.2481  -2.7372  -2.6427  -2.5018  -2.4871   5.9902   6.4410
     7.2687   7.4068   7.4524   7.5306   7.5818   7.9239   8.0298   8.3963
     8.6514   9.1129   9.5697   9.6871   9.9502   9.9642  10.2234  10.5438
    11.8741  11.8877  11.9555  12.1472  12.1678  12.4410  13.1149  13.9806
    14.0996  14.7992  16.5005  17.0506  17.4678  17.9717

     occupation numbers 
     0.0313   0.0313   0.0313   0.0313   0.0313   0.0313   0.0313   0.0313
     0.0313   0.0313   0.0313   0.0313   0.0313   0.0313   0.0313   0.0313
     0.0313   0.0313   0.0313   0.0313   0.0313   0.0313   0.0313   0.0313
     0.0313   0.0313   0.0313   0.0313   0.0312   0.0312   0.0312   0.0312
     0.0291   0.0289   0.0276   0.0220   0.0212   0.0098   0.0001   0.0000
     0.0000   0.0000   0.0000   0.0000   0.0000   0.0000

          k = 0.4942 0.2853 0.4107 (  2202 PWs)   bands (ev):

   -19.6906 -19.6340  -7.0741  -6.3655  -6.1507  -5.8354  -5.4119  -5.1504
    -3.1456  -3.0843  -2.9836  -2.5859  -2.4091  -2.1557   5.9622   6.5205
     6.6325   7.2360   7.2608   7.3440   8.0955   8.1672   8.2703   8.3742
     8.7346   8.8488   8.8685   9.5494   9.7890  10.1664  10.1934  10.6133
    11.2133  11.8918  12.0168  12.2406  12.3820  12.4518  12.8734  13.2661
    14.0509  15.4213  17.0887  17.3396  17.5686  17.6355

     occupation numbers 
     0.0156   0.0156   0.0156   0.0156   0.0156   0.0156   0.0156   0.0156
     0.0156   0.0156   0.0156   0.0156   0.0156   0.0156   0.0156   0.0156
     0.0156   0.0156   0.0156   0.0156   0.0156   0.0156   0.0156   0.0156
     0.0156   0.0156   0.0156   0.0156   0.0156   0.0156   0.0156   0.0156
     0.0156   0.0144   0.0131   0.0091   0.0061   0.0047   0.0004   0.0000
     0.0000   0.0000   0.0000   0.0000   0.0000   0.0000

          k = 0.0000 0.5706-0.4107 (  2202 PWs)   bands (ev):

   -19.6906 -19.6340  -7.0741  -6.3656  -6.1506  -5.8354  -5.4120  -5.1503
    -3.1456  -3.0843  -2.9836  -2.5859  -2.4091  -2.1557   5.9622   6.5205
     6.6325   7.2359   7.2609   7.3440   8.0949   8.1677   8.2704   8.3741
     8.7346   8.8487   8.8686   9.5494   9.7889  10.1664  10.1934  10.6133
    11.2133  11.8918  12.0165  12.2414  12.3815  12.4518  12.8734  13.2660
    14.0509  15.4213  17.0886  17.3396  17.5686  17.6355

     occupation numbers 
     0.0156   0.0156   0.0156   0.0156   0.0156   0.0156   0.0156   0.0156
     0.0156   0.0156   0.0156   0.0156   0.0156   0.0156   0.0156   0.0156
     0.0156   0.0156   0.0156   0.0156   0.0156   0.0156   0.0156   0.0156
     0.0156   0.0156   0.0156   0.0156   0.0156   0.0156   0.0156   0.0156
     0.0156   0.0144   0.0131   0.0091   0.0061   0.0047   0.0004   0.0000
     0.0000   0.0000   0.0000   0.0000   0.0000   0.0000

          k = 0.7412-0.4280 0.0000 (  2204 PWs)   bands (ev):

   -19.6938 -19.6363  -6.6381  -6.4975  -6.0483  -5.7238  -5.5592  -5.4166
    -3.1071  -3.0299  -2.9918  -2.6114  -2.5948  -2.5088   6.0464   6.6191
     7.2840   7.4386   7.4450   7.5548   7.5819   7.8688   8.2164   8.3635
     8.6846   9.0026   9.6552   9.6761   9.7734   9.8430  10.0455  10.3859
    11.8663  11.8915  12.0169  12.1611  12.2099  12.4075  13.1061  13.9063
    14.0237  14.8265  16.7634  16.7707  17.6372  17.8549

     occupation numbers 
     0.0313   0.0313   0.0313   0.0313   0.0313   0.0313   0.0313   0.0313
     0.0313   0.0313   0.0313   0.0313   0.0313   0.0313   0.0313   0.0313
     0.0313   0.0313   0.0313   0.0313   0.0313   0.0313   0.0313   0.0313
     0.0313   0.0313   0.0313   0.0313   0.0313   0.0313   0.0312   0.0312
     0.0292   0.0288   0.0262   0.0214   0.0195   0.0111   0.0001   0.0000
     0.0000   0.0000   0.0000   0.0000   0.0000   0.0000

          k = 0.0000-0.8559 0.0000 (  2204 PWs)   bands (ev):

   -19.6939 -19.6362  -6.6337  -6.5060  -6.0428  -5.7200  -5.5555  -5.4260
    -3.1084  -3.0297  -2.9918  -2.6084  -2.5933  -2.5113   6.0357   6.6277
     7.2778   7.4392   7.4532   7.5461   7.5842   7.8759   8.2164   8.3744
     8.6948   8.9878   9.6431   9.6737   9.7740   9.8426  10.0443  10.3900
    11.8670  11.8936  12.0181  12.1614  12.2117  12.4052  13.1076  13.9062
    14.0232  14.8253  16.7619  16.7718  17.6385  17.8552

     occupation numbers 
     0.0313   0.0313   0.0313   0.0313   0.0313   0.0313   0.0313   0.0313
     0.0313   0.0313   0.0313   0.0313   0.0313   0.0313   0.0313   0.0313
     0.0313   0.0313   0.0313   0.0313   0.0313   0.0313   0.0313   0.0313
     0.0313   0.0313   0.0313   0.0313   0.0313   0.0313   0.0312   0.0312
     0.0292   0.0288   0.0261   0.0214   0.0194   0.0112   0.0001   0.0000
     0.0000   0.0000   0.0000   0.0000   0.0000   0.0000

          k = 0.4942-0.2853-0.1027 (  2211 PWs)   bands (ev):

   -19.6848 -19.6442  -6.8693  -6.4477  -6.2244  -5.5862  -5.5140  -5.2137
    -3.2672  -3.1168  -2.9657  -2.5384  -2.4916  -2.3068   6.0551   6.3995
     7.0117   7.3153   7.3450   7.4602   7.7443   8.0565   8.2141   8.2377
     8.6036   9.2106   9.3573   9.5805   9.7365   9.8505  10.1999  10.5395
    11.6085  12.0474  12.1445  12.2125  12.2711  12.2860  13.1118  13.5130
    14.1708  14.9774  16.9469  16.9842  17.6496  17.9861

     occupation numbers 
     0.0313   0.0313   0.0313   0.0313   0.0313   0.0313   0.0313   0.0313
     0.0313   0.0313   0.0313   0.0313   0.0313   0.0313   0.0313   0.0313
     0.0313   0.0313   0.0313   0.0313   0.0313   0.0313   0.0313   0.0313
     0.0313   0.0313   0.0313   0.0313   0.0313   0.0313   0.0312   0.0312
     0.0310   0.0253   0.0221   0.0194   0.0169   0.0163   0.0001   0.0000
     0.0000   0.0000   0.0000   0.0000   0.0000   0.0000

          k = 0.0000-0.5706 0.1027 (  2211 PWs)   bands (ev):

   -19.6840 -19.6437  -6.8788  -6.4455  -6.2258  -5.5766  -5.5065  -5.2226
    -3.2674  -3.1169  -2.9660  -2.5402  -2.4917  -2.3096   6.0664   6.3871
     7.0248   7.3192   7.3541   7.4662   7.7393   8.0518   8.2116   8.2409
     8.5960   9.2183   9.3465   9.5830   9.7381   9.8347  10.1978  10.5478
    11.6096  12.0460  12.1443  12.2111  12.2707  12.2868  13.1108  13.5153
    14.1691  14.9774  16.9474  16.9839  17.6493  17.9862

     occupation numbers 
     0.0313   0.0313   0.0313   0.0313   0.0313   0.0313   0.0313   0.0313
     0.0313   0.0313   0.0313   0.0313   0.0313   0.0313   0.0313   0.0313
     0.0313   0.0313   0.0313   0.0313   0.0313   0.0313   0.0313   0.0313
     0.0313   0.0313   0.0313   0.0313   0.0313   0.0313   0.0312   0.0312
     0.0310   0.0253   0.0221   0.0194   0.0169   0.0162   0.0001   0.0000
     0.0000   0.0000   0.0000   0.0000   0.0000   0.0000

          k = 0.7412 0.4280 0.3080 (  2210 PWs)   bands (ev):

   -19.6838 -19.6435  -6.8146  -6.3516  -6.2036  -5.6846  -5.6388  -5.3558
    -3.0149  -2.9882  -2.9133  -2.6671  -2.5476  -2.3613   6.1299   6.5430
     7.1086   7.3040   7.4031   7.4215   7.7561   8.0960   8.2332   8.2822
     8.5928   9.1833   9.1954   9.6808   9.7185   9.7790   9.8443  10.3873
    11.6599  12.0505  12.1300  12.1975  12.3058  12.3595  13.0727  13.4746
    14.1213  14.9437  17.1201  17.1319  17.6164  17.9561

     occupation numbers 
     0.0313   0.0313   0.0313   0.0313   0.0313   0.0313   0.0313   0.0313
     0.0313   0.0313   0.0313   0.0313   0.0313   0.0313   0.0313   0.0313
     0.0313   0.0313   0.0313   0.0313   0.0313   0.0313   0.0313   0.0313
     0.0313   0.0313   0.0313   0.0313   0.0313   0.0313   0.0313   0.0312
     0.0308   0.0252   0.0226   0.0200   0.0154   0.0131   0.0001   0.0000
     0.0000   0.0000   0.0000   0.0000   0.0000   0.0000

          k = 0.0000 0.8559-0.3080 (  2210 PWs)   bands (ev):

   -19.6838 -19.6435  -6.8146  -6.3516  -6.2036  -5.6846  -5.6388  -5.3558
    -3.0149  -2.9882  -2.9133  -2.6671  -2.5477  -2.3613   6.1300   6.5429
     7.1086   7.3035   7.4040   7.4211   7.7562   8.0963   8.2367   8.2775
     8.5937   9.1842   9.1946   9.6808   9.7186   9.7792   9.8440  10.3872
    11.6599  12.0503  12.1303  12.1975  12.3060  12.3594  13.0727  13.4746
    14.1212  14.9437  17.1202  17.1318  17.6164  17.9562

     occupation numbers 
     0.0313   0.0313   0.0313   0.0313   0.0313   0.0313   0.0313   0.0313
     0.0313   0.0313   0.0313   0.0313   0.0313   0.0313   0.0313   0.0313
     0.0313   0.0313   0.0313   0.0313   0.0313   0.0313   0.0313   0.0313
     0.0313   0.0313   0.0313   0.0313   0.0313   0.0313   0.0313   0.0312
     0.0308   0.0252   0.0226   0.0200   0.0154   0.0131   0.0001   0.0000
     0.0000   0.0000   0.0000   0.0000   0.0000   0.0000

          k = 0.2471 0.7133-0.2053 (  2206 PWs)   bands (ev):

   -19.6633 -19.6629  -6.7900  -6.7761  -5.9491  -5.9283  -5.2989  -5.2859
    -3.1070  -3.1065  -2.7500  -2.7464  -2.3145  -2.3115   6.2352   6.2678
     7.1792   7.1910   7.3522   7.3622   7.5842   7.6014   8.4339   8.4816
     8.9383   8.9534   9.2387   9.2479   9.7177   9.7282  10.2773  10.2860
    11.8642  11.8737  12.0372  12.0784  12.3532  12.3771  13.1337  13.1527
    14.6571  14.6723  17.4989  17.5012  17.9143  17.9150

     occupation numbers 
     0.0313   0.0313   0.0313   0.0313   0.0313   0.0313   0.0313   0.0313
     0.0313   0.0313   0.0313   0.0313   0.0313   0.0313   0.0313   0.0313
     0.0313   0.0313   0.0313   0.0313   0.0313   0.0313   0.0313   0.0313
     0.0313   0.0313   0.0313   0.0313   0.0313   0.0313   0.0312   0.0312
     0.0292   0.0291   0.0256   0.0244   0.0134   0.0124   0.0001   0.0000
     0.0000   0.0000   0.0000   0.0000   0.0000   0.0000

          k =-0.7412-0.1427-0.2053 (  2206 PWs)   bands (ev):

   -19.6625 -19.6624  -6.8015  -6.7773  -5.9304  -5.9288  -5.3064  -5.2848
    -3.1083  -3.1067  -2.7475  -2.7463  -2.3210  -2.3112   6.2344   6.2668
     7.1895   7.1961   7.3520   7.3813   7.5913   7.6059   8.4272   8.4699
     8.9337   8.9367   9.2459   9.2472   9.7094   9.7168  10.2855  10.2891
    11.8668  11.8762  12.0369  12.0787  12.3516  12.3755  13.1344  13.1538
    14.6561  14.6710  17.4992  17.5000  17.9146  17.9169

     occupation numbers 
     0.0313   0.0313   0.0313   0.0313   0.0313   0.0313   0.0313   0.0313
     0.0313   0.0313   0.0313   0.0313   0.0313   0.0313   0.0313   0.0313
     0.0313   0.0313   0.0313   0.0313   0.0313   0.0313   0.0313   0.0313
     0.0313   0.0313   0.0313   0.0313   0.0313   0.0313   0.0312   0.0312
     0.0292   0.0290   0.0256   0.0243   0.0134   0.0124   0.0001   0.0000
     0.0000   0.0000   0.0000   0.0000   0.0000   0.0000

     the Fermi energy is    12.3006 ev

!    total energy              =    -538.31543060 Ry
     Harris-Foulkes estimate   =    -538.31543057 Ry
     estimated scf accuracy    <          3.7E-09 Ry

     The total energy is the sum of the following terms:

     one-electron contribution =     -32.74236080 Ry
     hartree contribution      =      83.52193169 Ry
     xc contribution           =    -199.65193079 Ry
     ewald contribution        =    -389.44315552 Ry
     Hubbard energy            =       0.03997976 Ry
     smearing contrib. (-TS)   =      -0.03989493 Ry

     total magnetization       =     3.54 Bohr mag/cell
     absolute magnetization    =     3.69 Bohr mag/cell

     convergence has been achieved in  10 iterations

     init_run     :      7.72s CPU      7.87s WALL (       1 calls)
     electrons    :    659.33s CPU    663.01s WALL (       1 calls)

     Called by init_run:
     wfcinit      :      0.00s CPU      0.00s WALL (       1 calls)
     potinit      :      0.81s CPU      0.85s WALL (       1 calls)

     Called by electrons:
     c_bands      :    517.91s CPU    519.70s WALL (      10 calls)
     sum_band     :    110.88s CPU    111.84s WALL (      10 calls)
     v_of_rho     :      7.87s CPU      7.95s WALL (      11 calls)
     v_h          :      0.19s CPU      0.19s WALL (      11 calls)
     v_xc         :      7.68s CPU      7.75s WALL (      11 calls)
     newd         :     23.79s CPU     23.82s WALL (      11 calls)
     mix_rho      :      0.61s CPU      0.61s WALL (      10 calls)

     Called by c_bands:
     init_us_2    :      5.50s CPU      5.51s WALL (    1440 calls)
     cegterg      :    502.22s CPU    503.09s WALL (     720 calls)

     Called by sum_band:
     sum_band:bec :      0.54s CPU      0.54s WALL (     720 calls)
     addusdens    :     21.38s CPU     21.43s WALL (      10 calls)

     Called by *egterg:
     h_psi        :    369.49s CPU    370.20s WALL (    3041 calls)
     s_psi        :     21.48s CPU     21.54s WALL (    3041 calls)
     g_psi        :      1.65s CPU      1.64s WALL (    2321 calls)
     cdiaghg      :     43.31s CPU     43.35s WALL (    2969 calls)
     cegterg:over :     24.25s CPU     24.27s WALL (    2321 calls)
     cegterg:upda :     16.65s CPU     16.70s WALL (    2321 calls)
     cegterg:last :     10.84s CPU     10.86s WALL (     792 calls)

     Called by h_psi:
     h_psi:vloc   :    299.05s CPU    299.66s WALL (    3041 calls)
     h_psi:vnl    :     44.60s CPU     44.63s WALL (    3041 calls)
     add_vuspsi   :     21.89s CPU     21.92s WALL (    3041 calls)
     vhpsi        :     24.86s CPU     24.91s WALL (    3041 calls)

     General routines
     calbec       :     46.77s CPU     46.82s WALL (    7522 calls)
     fft          :      3.46s CPU      3.50s WALL (     329 calls)
     ffts         :      0.11s CPU      0.12s WALL (      42 calls)
     fftw         :    282.19s CPU    282.37s WALL (  196614 calls)
     interpolate  :      0.68s CPU      0.69s WALL (      42 calls)
     davcio       :      0.02s CPU      1.73s WALL (    1512 calls)

     Parallel routines
     fft_scatter  :     69.01s CPU     69.16s WALL (  196985 calls)
     Hubbard U routines
     new_ns       :      4.64s CPU      5.38s WALL (      10 calls)
     vhpsi        :     24.86s CPU     24.91s WALL (    3041 calls)

     PWSCF        : 11m 7.49s CPU    11m11.35s WALL


   This run was terminated on:  13:22:26  13Nov2012            

=------------------------------------------------------------------------------=
