   JOB DONE.
=------------------------------------------------------------------------------=

     Program PWSCF v.5.0.1 starts on 13Nov2012 at  6:11:38 

     This program is part of the open-source Quantum ESPRESSO suite
     for quantum simulation of materials; please cite
         "P. Giannozzi et al., J. Phys.:Condens. Matter 21 395502 (2009);
          URL http://www.quantum-espresso.org", 
     in publications or presentations arising from this work. More details at
     http://www.quantum-espresso.org/quote.php

     Parallel version (MPI), running on     2 processors
     R & G space division:  proc/pool =    2

     Current dimensions of program PWSCF are:
     Max number of different atomic species (ntypx) = 10
     Max number of k-points (npk) =  40000
     Max angular momentum in pseudopotentials (lmaxx) =  3
     Reading input from CoLaO_U700_a15.in
               file Co.pbe-nd-rrkjus.UPF: wavefunction(s)  4S 3D renormalized
               file O.pbe-rrkjus.UPF: wavefunction(s)  2S renormalized
               file O.pbe-rrkjus.UPF: wavefunction(s)  2S renormalized

     Subspace diagonalization in iterative solution of the eigenvalue problem:
     a serial algorithm will be used


     Parallelization info
     --------------------
     sticks:   dense  smooth     PW     G-vecs:    dense   smooth      PW
     Min        1112     444    131                34808     8786    1448
     Max        1113     445    132                34809     8787    1449
     Sum        2225     889    263                69617    17573    2897


     Title: 
     GGA + U, U = 7.000, alpha = 0.150                                          


     bravais-lattice index     =            5
     lattice parameter (alat)  =      10.3292  a.u.
     unit-cell volume          =     793.0599 (a.u.)^3
     number of atoms/cell      =           10
     number of atomic types    =            4
     number of electrons       =        76.00
     number of Kohn-Sham states=           46
     kinetic-energy cutoff     =      30.0000  Ry
     charge density cutoff     =     300.0000  Ry
     convergence threshold     =      1.0E-08
     mixing beta               =       0.2000
     number of iterations used =            8  plain     mixing
     Exchange-correlation      =  SLA  PW   PBE  PBE ( 1 4 3 4 0)
     EXX-fraction              =        0.00

     celldm(1)=  10.329242  celldm(2)=   0.000000  celldm(3)=   0.000000
     celldm(4)=   0.488100  celldm(5)=   0.000000  celldm(6)=   0.000000

     crystal axes: (cart. coord. in units of alat)
               a(1) = (   0.505915  -0.292090   0.811624 )  
               a(2) = (   0.000000   0.584180   0.811624 )  
               a(3) = (  -0.505915  -0.292090   0.811624 )  

     reciprocal axes: (cart. coord. in units 2 pi/alat)
               b(1) = (  0.988308 -0.570600  0.410699 )  
               b(2) = (  0.000000  1.141200  0.410699 )  
               b(3) = ( -0.988308 -0.570600  0.410699 )  


     PseudoPot. # 1 for Co read from file:
     /home/mcurnan/dft-course/Project1/example_LaCoO3/Co.pbe-nd-rrkjus.UPF
     MD5 check sum: 3e47a84addf5e975e0edeaeee2a73f59
     Pseudo is Ultrasoft + core correction, Zval =  9.0
     Generated by new atomic code, or converted to UPF format
     Using radial grid of  961 points,  6 beta functions with: 
                l(1) =   0
                l(2) =   0
                l(3) =   1
                l(4) =   1
                l(5) =   2
                l(6) =   2
     Q(r) pseudized with 0 coefficients 


     PseudoPot. # 2 for La read from file:
     /home/mcurnan/dft-course/Project1/example_LaCoO3/La.pbe-nsp-van.UPF
     MD5 check sum: b2f11743f52dde65f77d1302becd7929
     Pseudo is Ultrasoft + core correction, Zval = 11.0
     Generated by new atomic code, or converted to UPF format
     Using radial grid of  907 points,  6 beta functions with: 
                l(1) =   0
                l(2) =   0
                l(3) =   1
                l(4) =   1
                l(5) =   2
                l(6) =   2
     Q(r) pseudized with  6 coefficients,  rinner =    1.200   1.200   1.200
                                                       1.200   1.200

     PseudoPot. # 3 for O  read from file:
     /home/mcurnan/dft-course/Project1/example_LaCoO3/O.pbe-rrkjus.UPF
     MD5 check sum: 390ba29e75625707450f3bd3f0eb6be9
     Pseudo is Ultrasoft, Zval =  6.0
     Generated by new atomic code, or converted to UPF format
     Using radial grid of 1269 points,  4 beta functions with: 
                l(1) =   0
                l(2) =   0
                l(3) =   1
                l(4) =   1
     Q(r) pseudized with 0 coefficients 


     PseudoPot. # 4 for O  read from file:
     /home/mcurnan/dft-course/Project1/example_LaCoO3/O.pbe-rrkjus.UPF
     MD5 check sum: 390ba29e75625707450f3bd3f0eb6be9
     Pseudo is Ultrasoft, Zval =  6.0
     Generated by new atomic code, or converted to UPF format
     Using radial grid of 1269 points,  4 beta functions with: 
                l(1) =   0
                l(2) =   0
                l(3) =   1
                l(4) =   1
     Q(r) pseudized with 0 coefficients 


     atomic species   valence    mass     pseudopotential
        Co1            9.00     1.00000     Co( 1.00)
        La1           11.00     1.00000     La( 1.00)
        O1             6.00     1.00000     O ( 1.00)
        O2             6.00     1.00000     O ( 1.00)
 -----
     simplified LDA+U calculation, Hubbard_lmax = 2
     atomic species  L   Hubbard U  Hubbard alpha
        Co1          2    7.000000    0.000000
        La1          2    0.000000    0.000000
        O1           1    0.000000    0.150000
        O2           1    0.000000    0.000000
 -----

     No symmetry found


                                    s                        frac. trans.

      isym =  1     identity                                     

 cryst.   s( 1) = (     1          0          0      )
                  (     0          1          0      )
                  (     0          0          1      )

 cart.    s( 1) = (  1.0000000  0.0000000  0.0000000 )
                  (  0.0000000  1.0000000  0.0000000 )
                  (  0.0000000  0.0000000  1.0000000 )


     point group C_1 (1)    
     there are  1 classes
     the character table:

       E    
A      1.00

     the symmetry operations in each class:
     E        1

   Cartesian axes

     site n.     atom                  positions (alat units)
         1           Co1 tau(   1) = (   0.2228050  -0.1992639   1.0141240  )
         2           Co1 tau(   2) = (  -0.2831100   0.0928263   1.4199360  )
         3           La1 tau(   3) = (  -0.2831100   0.0928263   0.8112181  )
         4           La1 tau(   4) = (   0.2228050   0.3849164   1.2170300  )
         5           O1  tau(   5) = (   0.0000000   0.0000000   0.0000000  )
         6           O2  tau(   6) = (   0.0008601   0.1861491   1.6232478  )
         7           O2  tau(   7) = (   0.1616398   0.0923297   0.8116239  )
         8           O2  tau(   8) = (  -0.0603051  -0.1064377   1.2166242  )
         9           O2  tau(   9) = (   0.4447499  -0.0004966   1.2166242  )
        10           O2  tau(  10) = (  -0.2219449   0.3854130   1.2166242  )

   Crystallographic axes

     site n.     atom                  positions (cryst. coord.)
         1           Co1 tau(   1) = (  0.7504000  0.1891000  0.3100000  )
         2           Co1 tau(   2) = (  0.2504000  0.6891000  0.8100000  )
         3           La1 tau(   3) = (  0.0004000  0.4391000  0.5600000  )
         4           La1 tau(   4) = (  0.5004000  0.9391000  0.0600000  )
         5           O1  tau(   5) = (  0.0000000  0.0000000  0.0000000  )
         6           O2  tau(   6) = (  0.5613000  0.8791000  0.5596000  )
         7           O2  tau(   7) = (  0.4404000  0.4387000  0.1209000  )
         8           O2  tau(   8) = (  0.5008000  0.3782000  0.6200000  )
         9           O2  tau(   9) = (  0.9395000  0.4991000  0.0604000  )
        10           O2  tau(  10) = (  0.0604000  0.9395000  0.4991000  )

     number of k points=    36  gaussian smearing, width (Ry)=  0.0300
                       cart. coord. in units 2pi/alat
        k(    1) = (   0.0000000   0.0000000   0.0000000), wk =   0.0312500
        k(    2) = (  -0.2470771  -0.1426500   0.1026748), wk =   0.0625000
        k(    3) = (   0.4941541   0.2853000  -0.2053496), wk =   0.0312500
        k(    4) = (  -0.2470771   0.1426500   0.2053496), wk =   0.0625000
        k(    5) = (   0.4941541   0.5706001  -0.1026748), wk =   0.0625000
        k(    6) = (   0.2470771   0.4279500   0.0000000), wk =   0.0625000
        k(    7) = (   0.4941541  -0.2853000  -0.4106993), wk =   0.0312500
        k(    8) = (   0.0000000   0.0000000   0.3080244), wk =   0.0625000
        k(    9) = (   0.7412312   0.4279500   0.0000000), wk =   0.0625000
        k(   10) = (   0.4941541   0.2853000   0.1026748), wk =   0.0625000
        k(   11) = (   0.7412312  -0.4279500  -0.3080244), wk =   0.0625000
        k(   12) = (   0.4941541  -0.5706001  -0.2053496), wk =   0.0625000
        k(   13) = (   0.0000000   0.0000000  -0.6160489), wk =   0.0312500
        k(   14) = (  -0.2470771   0.1426500  -0.1026748), wk =   0.0625000
        k(   15) = (   0.0000000   0.2853000   0.1026748), wk =   0.0625000
        k(   16) = (   0.4941541  -0.2853000   0.2053496), wk =   0.0312500
        k(   17) = (   0.0000000  -0.5706001  -0.2053496), wk =   0.0312500
        k(   18) = (  -0.2470771  -0.1426500  -0.2053496), wk =   0.0625000
        k(   19) = (   0.0000000  -0.2853000   0.2053496), wk =   0.0625000
        k(   20) = (   0.4941541  -0.5706001   0.1026748), wk =   0.0625000
        k(   21) = (  -0.7412312   0.1426500  -0.1026748), wk =   0.0625000
        k(   22) = (   0.2470771  -0.7132501  -0.1026748), wk =   0.0625000
        k(   23) = (  -0.7412312  -0.1426500   0.1026748), wk =   0.0625000
        k(   24) = (   0.2470771   0.7132501   0.1026748), wk =   0.0625000
        k(   25) = (   0.2470771  -0.4279500   0.0000000), wk =   0.0625000
        k(   26) = (  -0.4941541   0.0000000   0.0000000), wk =   0.0625000
        k(   27) = (   0.4941541   0.2853000   0.4106993), wk =   0.0312500
        k(   28) = (   0.0000000   0.5706001  -0.4106993), wk =   0.0312500
        k(   29) = (   0.7412312  -0.4279500   0.0000000), wk =   0.0625000
        k(   30) = (   0.0000000  -0.8559001   0.0000000), wk =   0.0625000
        k(   31) = (   0.4941541  -0.2853000  -0.1026748), wk =   0.0625000
        k(   32) = (   0.0000000  -0.5706001   0.1026748), wk =   0.0625000
        k(   33) = (   0.7412312   0.4279500   0.3080244), wk =   0.0625000
        k(   34) = (   0.0000000   0.8559001  -0.3080244), wk =   0.0625000
        k(   35) = (   0.2470771   0.7132501  -0.2053496), wk =   0.0625000
        k(   36) = (  -0.7412312  -0.1426500  -0.2053496), wk =   0.0625000

                       cryst. coord.
        k(    1) = (   0.0000000   0.0000000   0.0000000), wk =   0.0312500
        k(    2) = (   0.0000000   0.0000000   0.2500000), wk =   0.0625000
        k(    3) = (   0.0000000   0.0000000  -0.5000000), wk =   0.0312500
        k(    4) = (   0.0000000   0.2500000   0.2500000), wk =   0.0625000
        k(    5) = (   0.0000000   0.2500000  -0.5000000), wk =   0.0625000
        k(    6) = (   0.0000000   0.2500000  -0.2500000), wk =   0.0625000
        k(    7) = (   0.0000000  -0.5000000  -0.5000000), wk =   0.0312500
        k(    8) = (   0.2500000   0.2500000   0.2500000), wk =   0.0625000
        k(    9) = (   0.2500000   0.2500000  -0.5000000), wk =   0.0625000
        k(   10) = (   0.2500000   0.2500000  -0.2500000), wk =   0.0625000
        k(   11) = (   0.2500000  -0.5000000  -0.5000000), wk =   0.0625000
        k(   12) = (   0.2500000  -0.5000000  -0.2500000), wk =   0.0625000
        k(   13) = (  -0.5000000  -0.5000000  -0.5000000), wk =   0.0312500
        k(   14) = (  -0.2500000   0.0000000   0.0000000), wk =   0.0625000
        k(   15) = (   0.0000000   0.2500000   0.0000000), wk =   0.0625000
        k(   16) = (   0.5000000   0.0000000   0.0000000), wk =   0.0312500
        k(   17) = (   0.0000000  -0.5000000   0.0000000), wk =   0.0312500
        k(   18) = (  -0.2500000  -0.2500000   0.0000000), wk =   0.0625000
        k(   19) = (   0.2500000   0.0000000   0.2500000), wk =   0.0625000
        k(   20) = (   0.5000000  -0.2500000   0.0000000), wk =   0.0625000
        k(   21) = (  -0.5000000   0.0000000   0.2500000), wk =   0.0625000
        k(   22) = (   0.2500000  -0.5000000   0.0000000), wk =   0.0625000
        k(   23) = (  -0.2500000   0.0000000   0.5000000), wk =   0.0625000
        k(   24) = (   0.0000000   0.5000000  -0.2500000), wk =   0.0625000
        k(   25) = (   0.2500000  -0.2500000   0.0000000), wk =   0.0625000
        k(   26) = (  -0.2500000   0.0000000   0.2500000), wk =   0.0625000
        k(   27) = (   0.5000000   0.5000000   0.0000000), wk =   0.0312500
        k(   28) = (  -0.5000000   0.0000000  -0.5000000), wk =   0.0312500
        k(   29) = (   0.5000000  -0.2500000  -0.2500000), wk =   0.0625000
        k(   30) = (   0.2500000  -0.5000000   0.2500000), wk =   0.0625000
        k(   31) = (   0.2500000  -0.2500000  -0.2500000), wk =   0.0625000
        k(   32) = (   0.2500000  -0.2500000   0.2500000), wk =   0.0625000
        k(   33) = (   0.5000000   0.5000000  -0.2500000), wk =   0.0625000
        k(   34) = (  -0.5000000   0.2500000  -0.5000000), wk =   0.0625000
        k(   35) = (  -0.2500000   0.2500000  -0.5000000), wk =   0.0625000
        k(   36) = (  -0.5000000  -0.2500000   0.2500000), wk =   0.0625000

     Dense  grid:    69617 G-vectors     FFT dimensions: (  60,  60,  60)

     Smooth grid:    17573 G-vectors     FFT dimensions: (  40,  40,  40)

     Largest allocated arrays     est. size (Mb)     dimensions
        Kohn-Sham Wavefunctions         0.79 Mb     (   1119,   46)
        Atomic wavefunctions            1.06 Mb     (   1119,   62)
        NL pseudopotentials             2.05 Mb     (   1119,  120)
        Each V/rho on FFT grid          1.65 Mb     ( 108000)
        Each G-vector array             0.27 Mb     (  34808)
        G-vector shells                 0.04 Mb     (   4682)
     Largest temporary arrays     est. size (Mb)     dimensions
        Auxiliary wavefunctions         3.14 Mb     (   1119,  184)
        Each subspace H/S matrix        0.52 Mb     ( 184, 184)
        Each <psi_i|beta_j> matrix      0.08 Mb     (    120,   46)
        Arrays for rho mixing          13.18 Mb     ( 108000,   8)

     Check: negative/imaginary core charge=   -0.000028    0.000000

     The initial density is read from file :
     /home/mcurnan/dft-course/Project1/example_LaCoO3/700/O/alpha/CoLaO_U700.save/charge-density.dat

 --- in v_hubbard ---
Hubbard energy    0.7297
 -------
     Number of +U iterations with fixed ns =  0
     Starting occupations:
 --- enter write_ns ---
 LDA+U parameters:
U( 1)     =  7.00000000
alpha( 1) =  0.00000000
U( 2)     =  0.00000000
alpha( 2) =  0.00000000
U( 3)     =  0.00000000
alpha( 3) =  0.15000000
U( 4)     =  0.00000000
alpha( 4) =  0.00000000
atom    1   Tr[ns(na)] =   8.02205
    eigenvalues: 
  0.596  0.596  0.938  0.941  0.941
    eigenvectors:
  0.000  0.000  1.000  0.000  0.000
  0.057  0.598  0.000  0.178  0.167
  0.598  0.057  0.000  0.167  0.178
  0.210  0.135  0.000  0.095  0.560
  0.135  0.210  0.000  0.560  0.095
    occupations:
  0.938  0.000  0.000  0.000  0.000
  0.000  0.715  0.000 -0.060  0.152
  0.000  0.000  0.715  0.152  0.060
  0.000 -0.060  0.152  0.822  0.000
  0.000  0.152  0.060  0.000  0.822
atom    2   Tr[ns(na)] =   8.02142
    eigenvalues: 
  0.595  0.595  0.938  0.941  0.941
    eigenvectors:
  0.000  0.000  1.000  0.000  0.000
  0.332  0.323  0.000  0.023  0.322
  0.323  0.332  0.000  0.322  0.023
  0.288  0.057  0.000  0.647  0.008
  0.057  0.288  0.000  0.008  0.647
    occupations:
  0.938  0.000  0.000  0.000  0.000
  0.000  0.715  0.000  0.060  0.153
  0.000  0.000  0.715  0.153 -0.060
  0.000  0.060  0.153  0.822  0.000
  0.000  0.153 -0.060  0.000  0.822
atom    3   Tr[ns(na)] =   3.80282
    eigenvalues: 
  0.355  0.355  0.384  0.403  0.403
    eigenvectors:
  0.000  0.000  1.000  0.000  0.000
  0.065  0.856  0.000  0.058  0.021
  0.856  0.065  0.000  0.021  0.058
  0.073  0.006  0.000  0.250  0.670
  0.006  0.073  0.000  0.670  0.250
    occupations:
  0.384  0.000  0.000  0.000  0.000
  0.000  0.359  0.000  0.000  0.013
  0.000  0.000  0.359  0.013  0.000
  0.000  0.000  0.013  0.399  0.000
  0.000  0.013  0.000  0.000  0.399
atom    4   Tr[ns(na)] =   3.80282
    eigenvalues: 
  0.355  0.355  0.384  0.403  0.403
    eigenvectors:
  0.000  0.000  1.000  0.000  0.000
  0.729  0.192  0.000  0.048  0.032
  0.192  0.729  0.000  0.032  0.048
  0.017  0.062  0.000  0.359  0.562
  0.062  0.017  0.000  0.562  0.359
    occupations:
  0.384  0.000  0.000  0.000  0.000
  0.000  0.359  0.000  0.000  0.013
  0.000  0.000  0.359  0.013  0.000
  0.000  0.000  0.013  0.399  0.000
  0.000  0.013  0.000  0.000  0.399
atom    5   Tr[ns(na)] =   5.43357
    eigenvalues: 
  0.846  0.929  0.941
    eigenvectors:
  0.340  0.000  0.660
  0.496  0.250  0.255
  0.164  0.750  0.086
    occupations:
  0.909 -0.039  0.022
 -0.039  0.891  0.022
  0.022  0.022  0.917
atom    6   Tr[ns(na)] =   5.43358
    eigenvalues: 
  0.846  0.929  0.941
    eigenvectors:
  0.340  0.000  0.660
  0.494  0.250  0.256
  0.166  0.750  0.085
    occupations:
  0.909  0.039  0.022
  0.039  0.891 -0.022
  0.022 -0.022  0.917
atom    7   Tr[ns(na)] =   5.43358
    eigenvalues: 
  0.846  0.929  0.941
    eigenvectors:
  0.340  0.000  0.660
  0.000  1.000  0.000
  0.660  0.000  0.340
    occupations:
  0.909  0.000 -0.045
  0.000  0.929  0.000
 -0.045  0.000  0.879
atom    8   Tr[ns(na)] =   5.43357
    eigenvalues: 
  0.846  0.929  0.941
    eigenvectors:
  0.340  0.000  0.660
  0.496  0.250  0.255
  0.164  0.750  0.086
    occupations:
  0.909 -0.039  0.022
 -0.039  0.891  0.022
  0.022  0.022  0.917
atom    9   Tr[ns(na)] =   5.43358
    eigenvalues: 
  0.846  0.929  0.941
    eigenvectors:
  0.340  0.000  0.660
  0.494  0.250  0.256
  0.166  0.750  0.085
    occupations:
  0.909  0.039  0.022
  0.039  0.891 -0.022
  0.022 -0.022  0.917
atom   10   Tr[ns(na)] =   5.43358
    eigenvalues: 
  0.846  0.929  0.941
    eigenvectors:
  0.340  0.000  0.660
  0.000  1.000  0.000
  0.660  0.000  0.340
    occupations:
  0.909  0.000 -0.045
  0.000  0.929  0.000
 -0.045  0.000  0.879
N of occupied +U levels =  56.2505796
 --- exit write_ns ---
 LDA+U Projector read from file 
     Starting wfc from file

     total cpu time spent up to now is        7.1 secs

     per-process dynamical memory:    62.8 Mb

     Self-consistent Calculation

     iteration #  1     ecut=    30.00 Ry     beta=0.20
     Davidson diagonalization with overlap
     c_bands:  1 eigenvalues not converged
     c_bands:  1 eigenvalues not converged
     c_bands:  1 eigenvalues not converged
     c_bands:  1 eigenvalues not converged
     c_bands:  1 eigenvalues not converged
     c_bands:  1 eigenvalues not converged
     c_bands:  1 eigenvalues not converged
     c_bands:  1 eigenvalues not converged
     c_bands:  1 eigenvalues not converged
     c_bands:  1 eigenvalues not converged
     c_bands:  1 eigenvalues not converged
     c_bands:  1 eigenvalues not converged
     c_bands:  1 eigenvalues not converged
     c_bands:  1 eigenvalues not converged
     c_bands:  1 eigenvalues not converged
     c_bands:  1 eigenvalues not converged
     c_bands:  1 eigenvalues not converged
     c_bands:  1 eigenvalues not converged
     c_bands:  1 eigenvalues not converged
     ethr =  1.00E-10,  avg # of iterations = 17.6
 --- enter write_ns ---
 LDA+U parameters:
U( 1)     =  7.00000000
alpha( 1) =  0.00000000
U( 2)     =  0.00000000
alpha( 2) =  0.00000000
U( 3)     =  0.00000000
alpha( 3) =  0.15000000
U( 4)     =  0.00000000
alpha( 4) =  0.00000000
atom    1   Tr[ns(na)] =   8.29640
    eigenvalues: 
  0.579  0.582  0.995  0.995  0.998
    eigenvectors:
  0.000  0.000  0.001  0.004  0.995
  0.097  0.557  0.216  0.128  0.001
  0.557  0.098  0.129  0.216  0.000
  0.178  0.168  0.051  0.602  0.002
  0.168  0.178  0.602  0.050  0.002
    occupations:
  0.998  0.000  0.000  0.000  0.000
  0.000  0.725 -0.001 -0.071  0.183
  0.000 -0.001  0.723  0.184  0.073
  0.000 -0.071  0.184  0.852 -0.001
  0.000  0.183  0.073 -0.001  0.851
atom    2   Tr[ns(na)] =   8.28672
    eigenvalues: 
  0.576  0.579  0.995  0.995  0.998
    eigenvectors:
  0.000  0.000  0.001  0.004  0.995
  0.240  0.415  0.006  0.338  0.001
  0.415  0.239  0.340  0.006  0.001
  0.320  0.026  0.616  0.038  0.000
  0.026  0.319  0.037  0.614  0.003
    occupations:
  0.998  0.000  0.000  0.000  0.000
  0.000  0.722 -0.001  0.072  0.184
  0.000 -0.001  0.722  0.185 -0.071
  0.000  0.072  0.185  0.850  0.000
  0.000  0.184 -0.071  0.000  0.851
atom    3   Tr[ns(na)] =   3.79222
    eigenvalues: 
  0.356  0.357  0.381  0.401  0.401
    eigenvectors:
  0.000  0.000  1.000  0.000  0.000
  0.689  0.229  0.000  0.020  0.062
  0.229  0.688  0.000  0.063  0.019
  0.021  0.061  0.000  0.692  0.226
  0.061  0.021  0.000  0.226  0.692
    occupations:
  0.381  0.000  0.000  0.000  0.000
  0.000  0.360  0.000  0.000  0.012
  0.000  0.000  0.360  0.012  0.000
  0.000  0.000  0.012  0.397  0.000
  0.000  0.012  0.000  0.000  0.398
atom    4   Tr[ns(na)] =   3.79222
    eigenvalues: 
  0.356  0.357  0.381  0.401  0.401
    eigenvectors:
  0.000  0.000  1.000  0.000  0.000
  0.231  0.680  0.000  0.021  0.068
  0.685  0.230  0.000  0.063  0.022
  0.062  0.023  0.000  0.684  0.231
  0.022  0.067  0.000  0.232  0.679
    occupations:
  0.381  0.000  0.000  0.000  0.000
  0.000  0.361  0.000  0.000  0.013
  0.000  0.000  0.360  0.012  0.000
  0.000  0.000  0.012  0.397  0.000
  0.000  0.013  0.000  0.000  0.397
atom    5   Tr[ns(na)] =   5.33596
    eigenvalues: 
  0.812  0.916  0.940
    eigenvectors:
  0.343  0.000  0.657
  0.493  0.250  0.257
  0.164  0.750  0.086
    occupations:
  0.896 -0.053  0.031
 -0.053  0.871  0.026
  0.031  0.026  0.901
atom    6   Tr[ns(na)] =   5.36786
    eigenvalues: 
  0.819  0.921  0.944
    eigenvectors:
  0.342  0.000  0.658
  0.493  0.251  0.256
  0.165  0.749  0.086
    occupations:
  0.901  0.052  0.030
  0.052  0.876 -0.026
  0.030 -0.026  0.906
atom    7   Tr[ns(na)] =   5.36787
    eigenvalues: 
  0.819  0.921  0.944
    eigenvectors:
  0.342  0.000  0.658
  0.000  1.000  0.000
  0.658  0.000  0.342
    occupations:
  0.901  0.000 -0.060
  0.000  0.921  0.000
 -0.060  0.000  0.861
atom    8   Tr[ns(na)] =   5.36787
    eigenvalues: 
  0.819  0.921  0.944
    eigenvectors:
  0.342  0.000  0.658
  0.494  0.250  0.256
  0.164  0.750  0.086
    occupations:
  0.901 -0.051  0.030
 -0.051  0.876  0.026
  0.030  0.026  0.906
atom    9   Tr[ns(na)] =   5.36768
    eigenvalues: 
  0.819  0.921  0.944
    eigenvectors:
  0.342  0.000  0.658
  0.493  0.250  0.256
  0.164  0.750  0.086
    occupations:
  0.901  0.052  0.030
  0.052  0.876 -0.026
  0.030 -0.026  0.906
atom   10   Tr[ns(na)] =   5.36768
    eigenvalues: 
  0.819  0.921  0.944
    eigenvectors:
  0.342  0.000  0.658
  0.000  1.000  0.000
  0.658  0.000  0.342
    occupations:
  0.901  0.000 -0.060
  0.000  0.921  0.000
 -0.060  0.000  0.862
N of occupied +U levels =  56.3424883
 --- exit write_ns ---
 --- in v_hubbard ---
Hubbard energy    0.7001
 -------

     total cpu time spent up to now is       86.1 secs

     total energy              =    -537.68194825 Ry
     Harris-Foulkes estimate   =    -537.70493500 Ry
     estimated scf accuracy    <       0.09316054 Ry

     iteration #  2     ecut=    30.00 Ry     beta=0.20
     Davidson diagonalization with overlap
     ethr =  1.23E-04,  avg # of iterations =  1.9
 --- enter write_ns ---
 LDA+U parameters:
U( 1)     =  7.00000000
alpha( 1) =  0.00000000
U( 2)     =  0.00000000
alpha( 2) =  0.00000000
U( 3)     =  0.00000000
alpha( 3) =  0.15000000
U( 4)     =  0.00000000
alpha( 4) =  0.00000000
atom    1   Tr[ns(na)] =   8.01843
    eigenvalues: 
  0.509  0.510  0.996  0.996  0.999
    eigenvectors:
  0.000  0.000  0.000  0.000  1.000
  0.098  0.558  0.099  0.245  0.000
  0.558  0.098  0.245  0.099  0.000
  0.174  0.171  0.221  0.434  0.000
  0.171  0.174  0.434  0.221  0.000
    occupations:
  0.999  0.000  0.000  0.000  0.000
  0.000  0.677  0.000 -0.086  0.214
  0.000  0.000  0.677  0.214  0.087
  0.000 -0.086  0.214  0.828  0.000
  0.000  0.214  0.087  0.000  0.828
atom    2   Tr[ns(na)] =   8.01761
    eigenvalues: 
  0.508  0.509  0.996  0.996  0.999
    eigenvectors:
  0.000  0.000  0.000  0.000  1.000
  0.240  0.415  0.078  0.267  0.000
  0.415  0.240  0.267  0.078  0.000
  0.320  0.024  0.647  0.008  0.000
  0.024  0.320  0.008  0.647  0.000
    occupations:
  0.999  0.000  0.000  0.000  0.000
  0.000  0.677 -0.001  0.086  0.215
  0.000 -0.001  0.677  0.215 -0.086
  0.000  0.086  0.215  0.828  0.000
  0.000  0.215 -0.086  0.000  0.828
atom    3   Tr[ns(na)] =   3.78541
    eigenvalues: 
  0.355  0.355  0.380  0.401  0.401
    eigenvectors:
  0.000  0.000  1.000  0.000  0.000
  0.684  0.237  0.000  0.049  0.030
  0.237  0.684  0.000  0.030  0.049
  0.021  0.058  0.000  0.339  0.582
  0.058  0.021  0.000  0.582  0.339
    occupations:
  0.380  0.000  0.000  0.000  0.000
  0.000  0.359  0.000  0.000  0.012
  0.000  0.000  0.359  0.012  0.000
  0.000  0.000  0.012  0.398  0.000
  0.000  0.012  0.000  0.000  0.398
atom    4   Tr[ns(na)] =   3.78552
    eigenvalues: 
  0.355  0.355  0.380  0.401  0.401
    eigenvectors:
  0.000  0.000  1.000  0.000  0.000
  0.095  0.824  0.000  0.022  0.059
  0.825  0.095  0.000  0.057  0.022
  0.071  0.009  0.000  0.660  0.260
  0.009  0.072  0.000  0.261  0.659
    occupations:
  0.380  0.000  0.000  0.000  0.000
  0.000  0.359  0.000  0.000  0.013
  0.000  0.000  0.359  0.012  0.000
  0.000  0.000  0.012  0.397  0.000
  0.000  0.013  0.000  0.000  0.397
atom    5   Tr[ns(na)] =   5.44556
    eigenvalues: 
  0.841  0.932  0.950
    eigenvectors:
  0.335  0.000  0.665
  0.498  0.252  0.251
  0.167  0.748  0.084
    occupations:
  0.913 -0.044  0.026
 -0.044  0.891  0.024
  0.026  0.024  0.918
atom    6   Tr[ns(na)] =   5.45197
    eigenvalues: 
  0.843  0.933  0.950
    eigenvectors:
  0.335  0.000  0.665
  0.499  0.249  0.251
  0.165  0.751  0.084
    occupations:
  0.914  0.044  0.025
  0.044  0.892 -0.023
  0.025 -0.023  0.919
atom    7   Tr[ns(na)] =   5.45197
    eigenvalues: 
  0.843  0.933  0.950
    eigenvectors:
  0.335  0.000  0.665
  0.000  1.000  0.000
  0.665  0.000  0.335
    occupations:
  0.914  0.000 -0.050
  0.000  0.933  0.000
 -0.050  0.000  0.879
atom    8   Tr[ns(na)] =   5.45059
    eigenvalues: 
  0.843  0.933  0.950
    eigenvectors:
  0.335  0.000  0.665
  0.498  0.252  0.251
  0.167  0.748  0.084
    occupations:
  0.914 -0.044  0.025
 -0.044  0.892  0.023
  0.025  0.023  0.919
atom    9   Tr[ns(na)] =   5.45225
    eigenvalues: 
  0.843  0.933  0.950
    eigenvectors:
  0.335  0.000  0.665
  0.501  0.248  0.251
  0.165  0.752  0.084
    occupations:
  0.914  0.044  0.025
  0.044  0.892 -0.023
  0.025 -0.023  0.919
atom   10   Tr[ns(na)] =   5.45224
    eigenvalues: 
  0.843  0.933  0.950
    eigenvectors:
  0.335  0.000  0.665
  0.000  1.000  0.000
  0.665  0.000  0.335
    occupations:
  0.914  0.000 -0.050
  0.000  0.933  0.000
 -0.050  0.000  0.879
N of occupied +U levels =  56.3115583
 --- exit write_ns ---
 --- in v_hubbard ---
Hubbard energy    0.6883
 -------

     total cpu time spent up to now is      107.8 secs

     total energy              =    -537.70211803 Ry
     Harris-Foulkes estimate   =    -537.70243686 Ry
     estimated scf accuracy    <       0.05375860 Ry

     iteration #  3     ecut=    30.00 Ry     beta=0.20
     Davidson diagonalization with overlap
     ethr =  7.07E-05,  avg # of iterations =  1.0
 --- enter write_ns ---
 LDA+U parameters:
U( 1)     =  7.00000000
alpha( 1) =  0.00000000
U( 2)     =  0.00000000
alpha( 2) =  0.00000000
U( 3)     =  0.00000000
alpha( 3) =  0.15000000
U( 4)     =  0.00000000
alpha( 4) =  0.00000000
atom    1   Tr[ns(na)] =   8.07299
    eigenvalues: 
  0.522  0.524  0.996  0.996  0.999
    eigenvectors:
  0.000  0.000  0.000  0.000  1.000
  0.097  0.558  0.111  0.233  0.000
  0.558  0.098  0.233  0.111  0.000
  0.174  0.170  0.199  0.456  0.000
  0.170  0.174  0.456  0.199  0.000
    occupations:
  0.999  0.000  0.000  0.000  0.000
  0.000  0.686  0.000 -0.084  0.208
  0.000  0.000  0.685  0.209  0.084
  0.000 -0.084  0.209  0.833  0.000
  0.000  0.208  0.084  0.000  0.833
atom    2   Tr[ns(na)] =   8.07036
    eigenvalues: 
  0.521  0.523  0.996  0.996  0.999
    eigenvectors:
  0.000  0.000  0.000  0.000  1.000
  0.240  0.416  0.064  0.280  0.000
  0.416  0.240  0.281  0.064  0.000
  0.320  0.025  0.653  0.003  0.000
  0.024  0.320  0.003  0.653  0.000
    occupations:
  0.999  0.000  0.000  0.000  0.000
  0.000  0.685 -0.001  0.084  0.209
  0.000 -0.001  0.685  0.210 -0.083
  0.000  0.084  0.210  0.833  0.000
  0.000  0.209 -0.083  0.000  0.833
atom    3   Tr[ns(na)] =   3.78671
    eigenvalues: 
  0.355  0.356  0.380  0.401  0.401
    eigenvectors:
  0.000  0.000  1.000  0.000  0.000
  0.687  0.234  0.000  0.018  0.061
  0.234  0.687  0.000  0.060  0.019
  0.021  0.058  0.000  0.698  0.223
  0.058  0.021  0.000  0.223  0.698
    occupations:
  0.380  0.000  0.000  0.000  0.000
  0.000  0.359  0.000  0.000  0.012
  0.000  0.000  0.359  0.012  0.000
  0.000  0.000  0.012  0.397  0.000
  0.000  0.012  0.000  0.000  0.397
atom    4   Tr[ns(na)] =   3.78675
    eigenvalues: 
  0.355  0.356  0.380  0.401  0.401
    eigenvectors:
  0.000  0.000  1.000  0.000  0.000
  0.194  0.725  0.000  0.020  0.060
  0.726  0.194  0.000  0.059  0.021
  0.062  0.018  0.000  0.678  0.243
  0.017  0.063  0.000  0.243  0.676
    occupations:
  0.380  0.000  0.000  0.000  0.000
  0.000  0.359  0.000  0.000  0.012
  0.000  0.000  0.359  0.012  0.000
  0.000  0.000  0.012  0.397  0.000
  0.000  0.012  0.000  0.000  0.397
atom    5   Tr[ns(na)] =   5.42682
    eigenvalues: 
  0.835  0.929  0.949
    eigenvectors:
  0.337  0.000  0.663
  0.497  0.251  0.252
  0.167  0.749  0.085
    occupations:
  0.910 -0.046  0.027
 -0.046  0.888  0.024
  0.027  0.024  0.915
atom    6   Tr[ns(na)] =   5.43512
    eigenvalues: 
  0.838  0.931  0.949
    eigenvectors:
  0.337  0.000  0.663
  0.498  0.250  0.252
  0.165  0.750  0.084
    occupations:
  0.912  0.046  0.026
  0.046  0.889 -0.024
  0.026 -0.024  0.917
atom    7   Tr[ns(na)] =   5.43512
    eigenvalues: 
  0.838  0.931  0.949
    eigenvectors:
  0.337  0.000  0.663
  0.000  1.000  0.000
  0.663  0.000  0.337
    occupations:
  0.912  0.000 -0.053
  0.000  0.931  0.000
 -0.053  0.000  0.875
atom    8   Tr[ns(na)] =   5.43400
    eigenvalues: 
  0.838  0.930  0.949
    eigenvectors:
  0.336  0.000  0.664
  0.497  0.251  0.252
  0.167  0.749  0.085
    occupations:
  0.911 -0.046  0.026
 -0.046  0.889  0.024
  0.026  0.024  0.917
atom    9   Tr[ns(na)] =   5.43529
    eigenvalues: 
  0.838  0.931  0.949
    eigenvectors:
  0.336  0.000  0.664
  0.499  0.249  0.252
  0.165  0.751  0.084
    occupations:
  0.912  0.046  0.026
  0.046  0.889 -0.024
  0.026 -0.024  0.917
atom   10   Tr[ns(na)] =   5.43529
    eigenvalues: 
  0.838  0.931  0.949
    eigenvectors:
  0.336  0.000  0.664
  0.000  1.000  0.000
  0.664  0.000  0.336
    occupations:
  0.912  0.000 -0.053
  0.000  0.931  0.000
 -0.053  0.000  0.875
N of occupied +U levels =  56.3184684
 --- exit write_ns ---
 --- in v_hubbard ---
Hubbard energy    0.5778
 -------

     total cpu time spent up to now is      128.6 secs

     total energy              =    -537.71160714 Ry
     Harris-Foulkes estimate   =    -537.70332053 Ry
     estimated scf accuracy    <       0.02258480 Ry

     iteration #  4     ecut=    30.00 Ry     beta=0.20
     Davidson diagonalization with overlap
     ethr =  2.97E-05,  avg # of iterations =  2.0
 --- enter write_ns ---
 LDA+U parameters:
U( 1)     =  7.00000000
alpha( 1) =  0.00000000
U( 2)     =  0.00000000
alpha( 2) =  0.00000000
U( 3)     =  0.00000000
alpha( 3) =  0.15000000
U( 4)     =  0.00000000
alpha( 4) =  0.00000000
atom    1   Tr[ns(na)] =   8.09633
    eigenvalues: 
  0.525  0.528  0.998  0.998  1.000
    eigenvectors:
  0.000  0.000  0.000  0.000  1.000
  0.096  0.562  0.129  0.213  0.000
  0.562  0.096  0.213  0.129  0.000
  0.172  0.170  0.162  0.496  0.000
  0.170  0.172  0.496  0.162  0.000
    occupations:
  1.000  0.000  0.000  0.000  0.000
  0.000  0.688  0.000 -0.085  0.207
  0.000  0.000  0.687  0.207  0.086
  0.000 -0.085  0.207  0.837  0.000
  0.000  0.207  0.086  0.000  0.836
atom    2   Tr[ns(na)] =   8.09239
    eigenvalues: 
  0.524  0.526  0.998  0.998  1.000
    eigenvectors:
  0.000  0.000  0.000  0.000  1.000
  0.243  0.416  0.043  0.299  0.000
  0.415  0.242  0.299  0.043  0.000
  0.318  0.024  0.658  0.000  0.000
  0.023  0.318  0.000  0.658  0.000
    occupations:
  1.000  0.000  0.000  0.000  0.000
  0.000  0.687 -0.001  0.085  0.207
  0.000 -0.001  0.687  0.208 -0.084
  0.000  0.085  0.208  0.836  0.000
  0.000  0.207 -0.084  0.000  0.837
atom    3   Tr[ns(na)] =   3.80078
    eigenvalues: 
  0.357  0.358  0.381  0.402  0.402
    eigenvectors:
  0.000  0.000  1.000  0.000  0.000
  0.693  0.232  0.000  0.018  0.058
  0.232  0.692  0.000  0.059  0.017
  0.020  0.056  0.000  0.703  0.221
  0.056  0.020  0.000  0.221  0.703
    occupations:
  0.381  0.000  0.000  0.000  0.000
  0.000  0.361  0.000  0.000  0.012
  0.000  0.000  0.361  0.012  0.000
  0.000  0.000  0.012  0.399  0.000
  0.000  0.012  0.000  0.000  0.399
atom    4   Tr[ns(na)] =   3.80076
    eigenvalues: 
  0.357  0.358  0.382  0.402  0.402
    eigenvectors:
  0.000  0.000  1.000  0.000  0.000
  0.234  0.687  0.000  0.019  0.060
  0.689  0.233  0.000  0.058  0.019
  0.057  0.021  0.000  0.692  0.230
  0.020  0.058  0.000  0.231  0.690
    occupations:
  0.382  0.000  0.000  0.000  0.000
  0.000  0.361  0.000  0.000  0.012
  0.000  0.000  0.361  0.012  0.000
  0.000  0.000  0.012  0.399  0.000
  0.000  0.012  0.000  0.000  0.399
atom    5   Tr[ns(na)] =   5.40782
    eigenvalues: 
  0.831  0.927  0.946
    eigenvectors:
  0.338  0.000  0.662
  0.496  0.251  0.253
  0.166  0.749  0.085
    occupations:
  0.907 -0.047  0.027
 -0.047  0.884  0.025
  0.027  0.025  0.913
atom    6   Tr[ns(na)] =   5.42122
    eigenvalues: 
  0.834  0.929  0.947
    eigenvectors:
  0.337  0.000  0.663
  0.497  0.250  0.253
  0.165  0.750  0.085
    occupations:
  0.909  0.046  0.027
  0.046  0.887 -0.024
  0.027 -0.024  0.915
atom    7   Tr[ns(na)] =   5.42123
    eigenvalues: 
  0.834  0.929  0.947
    eigenvectors:
  0.337  0.000  0.663
  0.000  1.000  0.000
  0.663  0.000  0.337
    occupations:
  0.909  0.000 -0.054
  0.000  0.929  0.000
 -0.054  0.000  0.872
atom    8   Tr[ns(na)] =   5.42167
    eigenvalues: 
  0.834  0.929  0.947
    eigenvectors:
  0.337  0.000  0.663
  0.496  0.251  0.252
  0.166  0.749  0.085
    occupations:
  0.909 -0.046  0.027
 -0.046  0.887  0.025
  0.027  0.025  0.915
atom    9   Tr[ns(na)] =   5.42088
    eigenvalues: 
  0.834  0.929  0.947
    eigenvectors:
  0.337  0.000  0.663
  0.498  0.249  0.253
  0.165  0.751  0.084
    occupations:
  0.909  0.046  0.027
  0.046  0.886 -0.024
  0.027 -0.024  0.915
atom   10   Tr[ns(na)] =   5.42088
    eigenvalues: 
  0.834  0.929  0.947
    eigenvectors:
  0.337  0.000  0.663
  0.000  1.000  0.000
  0.663  0.000  0.337
    occupations:
  0.909  0.000 -0.054
  0.000  0.929  0.000
 -0.054  0.000  0.872
N of occupied +U levels =  56.3039614
 --- exit write_ns ---
 --- in v_hubbard ---
Hubbard energy    0.5729
 -------

     total cpu time spent up to now is      151.6 secs

     total energy              =    -537.71350084 Ry
     Harris-Foulkes estimate   =    -537.71404908 Ry
     estimated scf accuracy    <       0.00377416 Ry

     iteration #  5     ecut=    30.00 Ry     beta=0.20
     Davidson diagonalization with overlap
     ethr =  4.97E-06,  avg # of iterations =  1.0
 --- enter write_ns ---
 LDA+U parameters:
U( 1)     =  7.00000000
alpha( 1) =  0.00000000
U( 2)     =  0.00000000
alpha( 2) =  0.00000000
U( 3)     =  0.00000000
alpha( 3) =  0.15000000
U( 4)     =  0.00000000
alpha( 4) =  0.00000000
atom    1   Tr[ns(na)] =   8.06276
    eigenvalues: 
  0.517  0.519  0.998  0.998  1.000
    eigenvectors:
  0.000  0.000  0.000  0.000  1.000
  0.096  0.562  0.118  0.224  0.000
  0.562  0.096  0.224  0.117  0.000
  0.171  0.170  0.181  0.477  0.000
  0.171  0.171  0.477  0.181  0.000
    occupations:
  1.000  0.000  0.000  0.000  0.000
  0.000  0.683  0.000 -0.087  0.210
  0.000  0.000  0.681  0.211  0.088
  0.000 -0.087  0.211  0.834  0.000
  0.000  0.210  0.088  0.000  0.834
atom    2   Tr[ns(na)] =   8.05881
    eigenvalues: 
  0.515  0.518  0.998  0.998  1.000
    eigenvectors:
  0.000  0.000  0.000  0.000  1.000
  0.243  0.415  0.053  0.288  0.000
  0.415  0.243  0.289  0.053  0.000
  0.319  0.023  0.658  0.000  0.000
  0.023  0.319  0.000  0.658  0.000
    occupations:
  1.000  0.000  0.000  0.000  0.000
  0.000  0.681 -0.001  0.087  0.211
  0.000 -0.001  0.681  0.212 -0.086
  0.000  0.087  0.212  0.833  0.000
  0.000  0.211 -0.086  0.000  0.834
atom    3   Tr[ns(na)] =   3.79939
    eigenvalues: 
  0.357  0.357  0.381  0.402  0.402
    eigenvectors:
  0.000  0.000  1.000  0.000  0.000
  0.693  0.231  0.000  0.018  0.058
  0.231  0.692  0.000  0.058  0.018
  0.020  0.057  0.000  0.697  0.227
  0.057  0.020  0.000  0.227  0.697
    occupations:
  0.381  0.000  0.000  0.000  0.000
  0.000  0.360  0.000  0.000  0.012
  0.000  0.000  0.361  0.012  0.000
  0.000  0.000  0.012  0.399  0.000
  0.000  0.012  0.000  0.000  0.399
atom    4   Tr[ns(na)] =   3.79934
    eigenvalues: 
  0.357  0.357  0.381  0.402  0.402
    eigenvectors:
  0.000  0.000  1.000  0.000  0.000
  0.237  0.685  0.000  0.019  0.059
  0.686  0.236  0.000  0.058  0.020
  0.057  0.021  0.000  0.686  0.236
  0.020  0.058  0.000  0.237  0.685
    occupations:
  0.381  0.000  0.000  0.000  0.000
  0.000  0.361  0.000  0.000  0.012
  0.000  0.000  0.361  0.012  0.000
  0.000  0.000  0.012  0.399  0.000
  0.000  0.012  0.000  0.000  0.399
atom    5   Tr[ns(na)] =   5.42072
    eigenvalues: 
  0.834  0.929  0.947
    eigenvectors:
  0.337  0.000  0.663
  0.497  0.251  0.252
  0.167  0.749  0.085
    occupations:
  0.909 -0.046  0.027
 -0.046  0.887  0.024
  0.027  0.024  0.915
atom    6   Tr[ns(na)] =   5.43129
    eigenvalues: 
  0.837  0.930  0.948
    eigenvectors:
  0.337  0.000  0.663
  0.498  0.250  0.252
  0.165  0.750  0.085
    occupations:
  0.911  0.045  0.026
  0.045  0.888 -0.024
  0.026 -0.024  0.916
atom    7   Tr[ns(na)] =   5.43129
    eigenvalues: 
  0.837  0.930  0.948
    eigenvectors:
  0.337  0.000  0.663
  0.000  1.000  0.000
  0.663  0.000  0.337
    occupations:
  0.911  0.000 -0.052
  0.000  0.930  0.000
 -0.052  0.000  0.875
atom    8   Tr[ns(na)] =   5.43083
    eigenvalues: 
  0.837  0.930  0.948
    eigenvectors:
  0.337  0.000  0.663
  0.497  0.251  0.252
  0.167  0.749  0.085
    occupations:
  0.911 -0.045  0.026
 -0.045  0.888  0.024
  0.026  0.024  0.916
atom    9   Tr[ns(na)] =   5.43125
    eigenvalues: 
  0.837  0.930  0.948
    eigenvectors:
  0.336  0.000  0.664
  0.499  0.249  0.252
  0.165  0.751  0.084
    occupations:
  0.911  0.045  0.026
  0.045  0.888 -0.024
  0.026 -0.024  0.916
atom   10   Tr[ns(na)] =   5.43126
    eigenvalues: 
  0.837  0.930  0.948
    eigenvectors:
  0.336  0.000  0.664
  0.000  1.000  0.000
  0.664  0.000  0.336
    occupations:
  0.911  0.000 -0.052
  0.000  0.930  0.000
 -0.052  0.000  0.875
N of occupied +U levels =  56.2969315
 --- exit write_ns ---
 --- in v_hubbard ---
Hubbard energy    0.5747
 -------

     total cpu time spent up to now is      172.4 secs

     total energy              =    -537.71389868 Ry
     Harris-Foulkes estimate   =    -537.71383462 Ry
     estimated scf accuracy    <       0.00033355 Ry

     iteration #  6     ecut=    30.00 Ry     beta=0.20
     Davidson diagonalization with overlap
     ethr =  4.39E-07,  avg # of iterations =  2.3
 --- enter write_ns ---
 LDA+U parameters:
U( 1)     =  7.00000000
alpha( 1) =  0.00000000
U( 2)     =  0.00000000
alpha( 2) =  0.00000000
U( 3)     =  0.00000000
alpha( 3) =  0.15000000
U( 4)     =  0.00000000
alpha( 4) =  0.00000000
atom    1   Tr[ns(na)] =   8.05197
    eigenvalues: 
  0.514  0.516  0.998  0.998  1.000
    eigenvectors:
  0.000  0.000  0.000  0.000  1.000
  0.096  0.562  0.112  0.230  0.000
  0.562  0.096  0.230  0.111  0.000
  0.170  0.171  0.190  0.468  0.000
  0.172  0.171  0.467  0.190  0.000
    occupations:
  1.000  0.000  0.000  0.000  0.000
  0.000  0.681  0.000 -0.088  0.211
  0.000  0.000  0.680  0.212  0.089
  0.000 -0.088  0.212  0.833  0.000
  0.000  0.211  0.089  0.000  0.833
atom    2   Tr[ns(na)] =   8.05162
    eigenvalues: 
  0.513  0.516  0.998  0.998  1.000
    eigenvectors:
  0.000  0.000  0.000  0.000  1.000
  0.243  0.415  0.061  0.281  0.000
  0.415  0.243  0.281  0.061  0.000
  0.319  0.023  0.657  0.001  0.000
  0.023  0.319  0.001  0.657  0.000
    occupations:
  1.000  0.000  0.000  0.000  0.000
  0.000  0.680 -0.001  0.088  0.212
  0.000 -0.001  0.680  0.212 -0.087
  0.000  0.088  0.212  0.832  0.000
  0.000  0.212 -0.087  0.000  0.833
atom    3   Tr[ns(na)] =   3.79071
    eigenvalues: 
  0.356  0.356  0.381  0.401  0.401
    eigenvectors:
  0.000  0.000  1.000  0.000  0.000
  0.692  0.230  0.000  0.060  0.018
  0.230  0.692  0.000  0.019  0.060
  0.020  0.058  0.000  0.225  0.697
  0.058  0.020  0.000  0.697  0.225
    occupations:
  0.381  0.000  0.000  0.000  0.000
  0.000  0.360  0.000  0.000  0.012
  0.000  0.000  0.360  0.012  0.000
  0.000  0.000  0.012  0.398  0.000
  0.000  0.012  0.000  0.000  0.398
atom    4   Tr[ns(na)] =   3.79069
    eigenvalues: 
  0.356  0.356  0.381  0.401  0.401
    eigenvectors:
  0.000  0.000  1.000  0.000  0.000
  0.703  0.218  0.000  0.020  0.060
  0.217  0.704  0.000  0.059  0.020
  0.019  0.059  0.000  0.685  0.236
  0.060  0.019  0.000  0.236  0.684
    occupations:
  0.381  0.000  0.000  0.000  0.000
  0.000  0.360  0.000  0.000  0.012
  0.000  0.000  0.360  0.012  0.000
  0.000  0.000  0.012  0.398  0.000
  0.000  0.012  0.000  0.000  0.398
atom    5   Tr[ns(na)] =   5.42702
    eigenvalues: 
  0.836  0.930  0.948
    eigenvectors:
  0.337  0.000  0.663
  0.496  0.252  0.252
  0.167  0.748  0.085
    occupations:
  0.910 -0.046  0.027
 -0.046  0.888  0.024
  0.027  0.024  0.916
atom    6   Tr[ns(na)] =   5.43551
    eigenvalues: 
  0.838  0.931  0.949
    eigenvectors:
  0.337  0.000  0.663
  0.498  0.249  0.252
  0.165  0.751  0.085
    occupations:
  0.911  0.045  0.026
  0.045  0.889 -0.024
  0.026 -0.024  0.917
atom    7   Tr[ns(na)] =   5.43551
    eigenvalues: 
  0.838  0.931  0.949
    eigenvectors:
  0.337  0.000  0.663
  0.000  1.000  0.000
  0.663  0.000  0.337
    occupations:
  0.911  0.000 -0.052
  0.000  0.931  0.000
 -0.052  0.000  0.875
atom    8   Tr[ns(na)] =   5.43432
    eigenvalues: 
  0.838  0.931  0.949
    eigenvectors:
  0.337  0.000  0.663
  0.496  0.252  0.252
  0.167  0.748  0.085
    occupations:
  0.911 -0.045  0.026
 -0.045  0.889  0.024
  0.026  0.024  0.917
atom    9   Tr[ns(na)] =   5.43567
    eigenvalues: 
  0.838  0.931  0.949
    eigenvectors:
  0.336  0.000  0.664
  0.499  0.249  0.252
  0.164  0.751  0.084
    occupations:
  0.912  0.045  0.026
  0.045  0.889 -0.024
  0.026 -0.024  0.917
atom   10   Tr[ns(na)] =   5.43567
    eigenvalues: 
  0.838  0.931  0.949
    eigenvectors:
  0.336  0.000  0.664
  0.000  1.000  0.000
  0.664  0.000  0.336
    occupations:
  0.912  0.000 -0.052
  0.000  0.931  0.000
 -0.052  0.000  0.875
N of occupied +U levels =  56.2886981
 --- exit write_ns ---
 --- in v_hubbard ---
Hubbard energy    0.5747
 -------

     total cpu time spent up to now is      198.0 secs

     total energy              =    -537.71409179 Ry
     Harris-Foulkes estimate   =    -537.71398022 Ry
     estimated scf accuracy    <       0.00007672 Ry

     iteration #  7     ecut=    30.00 Ry     beta=0.20
     Davidson diagonalization with overlap
     ethr =  1.01E-07,  avg # of iterations =  1.0
 --- enter write_ns ---
 LDA+U parameters:
U( 1)     =  7.00000000
alpha( 1) =  0.00000000
U( 2)     =  0.00000000
alpha( 2) =  0.00000000
U( 3)     =  0.00000000
alpha( 3) =  0.15000000
U( 4)     =  0.00000000
alpha( 4) =  0.00000000
atom    1   Tr[ns(na)] =   8.05028
    eigenvalues: 
  0.513  0.516  0.998  0.998  1.000
    eigenvectors:
  0.000  0.000  0.000  0.000  1.000
  0.096  0.562  0.111  0.231  0.000
  0.562  0.096  0.231  0.111  0.000
  0.170  0.172  0.191  0.467  0.000
  0.172  0.170  0.467  0.191  0.000
    occupations:
  1.000  0.000  0.000  0.000  0.000
  0.000  0.680  0.000 -0.088  0.211
  0.000  0.000  0.679  0.212  0.089
  0.000 -0.088  0.212  0.833  0.000
  0.000  0.211  0.089  0.000  0.833
atom    2   Tr[ns(na)] =   8.04689
    eigenvalues: 
  0.512  0.514  0.998  0.998  1.000
    eigenvectors:
  0.000  0.000  0.000  0.000  1.000
  0.244  0.415  0.061  0.281  0.000
  0.415  0.243  0.281  0.061  0.000
  0.319  0.023  0.657  0.001  0.000
  0.023  0.319  0.001  0.657  0.000
    occupations:
  1.000  0.000  0.000  0.000  0.000
  0.000  0.679 -0.001  0.088  0.212
  0.000 -0.001  0.679  0.213 -0.088
  0.000  0.088  0.213  0.832  0.000
  0.000  0.212 -0.088  0.000  0.833
atom    3   Tr[ns(na)] =   3.79136
    eigenvalues: 
  0.356  0.356  0.381  0.401  0.401
    eigenvectors:
  0.000  0.000  1.000  0.000  0.000
  0.692  0.230  0.000  0.058  0.021
  0.230  0.692  0.000  0.021  0.057
  0.020  0.058  0.000  0.252  0.670
  0.058  0.020  0.000  0.670  0.252
    occupations:
  0.381  0.000  0.000  0.000  0.000
  0.000  0.360  0.000  0.000  0.012
  0.000  0.000  0.360  0.012  0.000
  0.000  0.000  0.012  0.398  0.000
  0.000  0.012  0.000  0.000  0.398
atom    4   Tr[ns(na)] =   3.79133
    eigenvalues: 
  0.356  0.356  0.381  0.401  0.401
    eigenvectors:
  0.000  0.000  1.000  0.000  0.000
  0.714  0.207  0.000  0.019  0.060
  0.206  0.715  0.000  0.059  0.020
  0.019  0.060  0.000  0.686  0.235
  0.061  0.018  0.000  0.235  0.685
    occupations:
  0.381  0.000  0.000  0.000  0.000
  0.000  0.360  0.000  0.000  0.012
  0.000  0.000  0.360  0.012  0.000
  0.000  0.000  0.012  0.398  0.000
  0.000  0.012  0.000  0.000  0.398
atom    5   Tr[ns(na)] =   5.42755
    eigenvalues: 
  0.836  0.930  0.948
    eigenvectors:
  0.337  0.000  0.663
  0.496  0.251  0.252
  0.167  0.749  0.085
    occupations:
  0.910 -0.046  0.027
 -0.046  0.888  0.024
  0.027  0.024  0.916
atom    6   Tr[ns(na)] =   5.43637
    eigenvalues: 
  0.838  0.931  0.949
    eigenvectors:
  0.337  0.000  0.663
  0.498  0.250  0.252
  0.165  0.750  0.085
    occupations:
  0.912  0.045  0.026
  0.045  0.889 -0.024
  0.026 -0.024  0.917
atom    7   Tr[ns(na)] =   5.43637
    eigenvalues: 
  0.838  0.931  0.949
    eigenvectors:
  0.337  0.000  0.663
  0.000  1.000  0.000
  0.663  0.000  0.337
    occupations:
  0.912  0.000 -0.052
  0.000  0.931  0.000
 -0.052  0.000  0.876
atom    8   Tr[ns(na)] =   5.43532
    eigenvalues: 
  0.838  0.931  0.949
    eigenvectors:
  0.337  0.000  0.663
  0.497  0.251  0.252
  0.167  0.749  0.085
    occupations:
  0.911 -0.045  0.026
 -0.045  0.889  0.024
  0.026  0.024  0.917
atom    9   Tr[ns(na)] =   5.43651
    eigenvalues: 
  0.839  0.931  0.949
    eigenvectors:
  0.336  0.000  0.664
  0.499  0.249  0.252
  0.165  0.751  0.084
    occupations:
  0.912  0.045  0.026
  0.045  0.889 -0.024
  0.026 -0.024  0.917
atom   10   Tr[ns(na)] =   5.43651
    eigenvalues: 
  0.839  0.931  0.949
    eigenvectors:
  0.336  0.000  0.664
  0.000  1.000  0.000
  0.664  0.000  0.336
    occupations:
  0.912  0.000 -0.052
  0.000  0.931  0.000
 -0.052  0.000  0.876
N of occupied +U levels =  56.2884832
 --- exit write_ns ---
 --- in v_hubbard ---
Hubbard energy    0.5756
 -------

     total cpu time spent up to now is      219.6 secs

     total energy              =    -537.71416215 Ry
     Harris-Foulkes estimate   =    -537.71409602 Ry
     estimated scf accuracy    <       0.00008903 Ry

     iteration #  8     ecut=    30.00 Ry     beta=0.20
     Davidson diagonalization with overlap
     ethr =  1.01E-07,  avg # of iterations =  1.6
 --- enter write_ns ---
 LDA+U parameters:
U( 1)     =  7.00000000
alpha( 1) =  0.00000000
U( 2)     =  0.00000000
alpha( 2) =  0.00000000
U( 3)     =  0.00000000
alpha( 3) =  0.15000000
U( 4)     =  0.00000000
alpha( 4) =  0.00000000
atom    1   Tr[ns(na)] =   8.04962
    eigenvalues: 
  0.513  0.515  0.998  0.998  1.000
    eigenvectors:
  0.000  0.000  0.000  0.000  1.000
  0.096  0.562  0.111  0.231  0.000
  0.562  0.096  0.231  0.111  0.000
  0.170  0.172  0.190  0.468  0.000
  0.172  0.170  0.468  0.190  0.000
    occupations:
  1.000  0.000  0.000  0.000  0.000
  0.000  0.680  0.000 -0.088  0.211
  0.000  0.000  0.679  0.212  0.089
  0.000 -0.088  0.212  0.833  0.000
  0.000  0.211  0.089  0.000  0.833
atom    2   Tr[ns(na)] =   8.04740
    eigenvalues: 
  0.512  0.515  0.998  0.998  1.000
    eigenvectors:
  0.000  0.000  0.000  0.000  1.000
  0.244  0.414  0.061  0.280  0.000
  0.414  0.244  0.281  0.061  0.000
  0.319  0.023  0.657  0.001  0.000
  0.023  0.319  0.001  0.657  0.000
    occupations:
  1.000  0.000  0.000  0.000  0.000
  0.000  0.679 -0.001  0.089  0.212
  0.000 -0.001  0.679  0.213 -0.088
  0.000  0.089  0.213  0.832  0.000
  0.000  0.212 -0.088  0.000  0.833
atom    3   Tr[ns(na)] =   3.79380
    eigenvalues: 
  0.356  0.357  0.381  0.402  0.402
    eigenvectors:
  0.000  0.000  1.000  0.000  0.000
  0.691  0.231  0.000  0.016  0.062
  0.231  0.691  0.000  0.062  0.016
  0.020  0.058  0.000  0.724  0.198
  0.058  0.020  0.000  0.198  0.724
    occupations:
  0.381  0.000  0.000  0.000  0.000
  0.000  0.360  0.000  0.000  0.012
  0.000  0.000  0.360  0.012  0.000
  0.000  0.000  0.012  0.398  0.000
  0.000  0.012  0.000  0.000  0.398
atom    4   Tr[ns(na)] =   3.79376
    eigenvalues: 
  0.356  0.356  0.381  0.401  0.402
    eigenvectors:
  0.000  0.000  1.000  0.000  0.000
  0.240  0.680  0.000  0.019  0.060
  0.682  0.240  0.000  0.059  0.020
  0.057  0.021  0.000  0.687  0.234
  0.021  0.058  0.000  0.235  0.686
    occupations:
  0.381  0.000  0.000  0.000  0.000
  0.000  0.360  0.000  0.000  0.012
  0.000  0.000  0.360  0.012  0.000
  0.000  0.000  0.012  0.398  0.000
  0.000  0.012  0.000  0.000  0.398
atom    5   Tr[ns(na)] =   5.42621
    eigenvalues: 
  0.836  0.929  0.948
    eigenvectors:
  0.337  0.000  0.663
  0.496  0.252  0.252
  0.167  0.748  0.085
    occupations:
  0.910 -0.046  0.027
 -0.046  0.888  0.024
  0.027  0.024  0.915
atom    6   Tr[ns(na)] =   5.43590
    eigenvalues: 
  0.838  0.931  0.949
    eigenvectors:
  0.337  0.000  0.663
  0.498  0.250  0.252
  0.165  0.750  0.085
    occupations:
  0.912  0.045  0.026
  0.045  0.889 -0.024
  0.026 -0.024  0.917
atom    7   Tr[ns(na)] =   5.43590
    eigenvalues: 
  0.838  0.931  0.949
    eigenvectors:
  0.337  0.000  0.663
  0.000  1.000  0.000
  0.663  0.000  0.337
    occupations:
  0.912  0.000 -0.052
  0.000  0.931  0.000
 -0.052  0.000  0.876
atom    8   Tr[ns(na)] =   5.43511
    eigenvalues: 
  0.838  0.931  0.949
    eigenvectors:
  0.337  0.000  0.663
  0.497  0.251  0.252
  0.167  0.749  0.085
    occupations:
  0.911 -0.045  0.026
 -0.045  0.889  0.024
  0.026  0.024  0.917
atom    9   Tr[ns(na)] =   5.43596
    eigenvalues: 
  0.838  0.931  0.949
    eigenvectors:
  0.336  0.000  0.664
  0.499  0.249  0.252
  0.165  0.751  0.084
    occupations:
  0.912  0.045  0.026
  0.045  0.889 -0.024
  0.026 -0.024  0.917
atom   10   Tr[ns(na)] =   5.43596
    eigenvalues: 
  0.838  0.931  0.949
    eigenvectors:
  0.336  0.000  0.664
  0.000  1.000  0.000
  0.664  0.000  0.336
    occupations:
  0.912  0.000 -0.052
  0.000  0.931  0.000
 -0.052  0.000  0.876
N of occupied +U levels =  56.2896120
 --- exit write_ns ---
 --- in v_hubbard ---
Hubbard energy    0.5771
 -------

     total cpu time spent up to now is      242.7 secs

     total energy              =    -537.71421244 Ry
     Harris-Foulkes estimate   =    -537.71416733 Ry
     estimated scf accuracy    <       0.00003848 Ry

     iteration #  9     ecut=    30.00 Ry     beta=0.20
     Davidson diagonalization with overlap
     ethr =  5.06E-08,  avg # of iterations =  2.0
 --- enter write_ns ---
 LDA+U parameters:
U( 1)     =  7.00000000
alpha( 1) =  0.00000000
U( 2)     =  0.00000000
alpha( 2) =  0.00000000
U( 3)     =  0.00000000
alpha( 3) =  0.15000000
U( 4)     =  0.00000000
alpha( 4) =  0.00000000
atom    1   Tr[ns(na)] =   8.05361
    eigenvalues: 
  0.514  0.516  0.998  0.998  1.000
    eigenvectors:
  0.000  0.000  0.000  0.000  1.000
  0.096  0.562  0.110  0.232  0.000
  0.563  0.096  0.232  0.110  0.000
  0.169  0.172  0.191  0.467  0.000
  0.173  0.170  0.467  0.191  0.000
    occupations:
  1.000  0.000  0.000  0.000  0.000
  0.000  0.681  0.000 -0.088  0.211
  0.000  0.000  0.680  0.211  0.089
  0.000 -0.088  0.211  0.833  0.000
  0.000  0.211  0.089  0.000  0.833
atom    2   Tr[ns(na)] =   8.05037
    eigenvalues: 
  0.513  0.515  0.998  0.998  1.000
    eigenvectors:
  0.000  0.000  0.000  0.000  1.000
  0.244  0.414  0.062  0.279  0.000
  0.414  0.244  0.280  0.062  0.000
  0.319  0.023  0.657  0.001  0.000
  0.022  0.319  0.001  0.657  0.000
    occupations:
  1.000  0.000  0.000  0.000  0.000
  0.000  0.680 -0.001  0.089  0.212
  0.000 -0.001  0.680  0.212 -0.088
  0.000  0.089  0.212  0.832  0.000
  0.000  0.212 -0.088  0.000  0.833
atom    3   Tr[ns(na)] =   3.79428
    eigenvalues: 
  0.356  0.357  0.381  0.402  0.402
    eigenvectors:
  0.000  0.000  1.000  0.000  0.000
  0.691  0.231  0.000  0.017  0.061
  0.231  0.691  0.000  0.060  0.017
  0.020  0.058  0.000  0.708  0.214
  0.058  0.020  0.000  0.214  0.708
    occupations:
  0.381  0.000  0.000  0.000  0.000
  0.000  0.360  0.000  0.000  0.012
  0.000  0.000  0.360  0.012  0.000
  0.000  0.000  0.012  0.398  0.000
  0.000  0.012  0.000  0.000  0.398
atom    4   Tr[ns(na)] =   3.79424
    eigenvalues: 
  0.356  0.356  0.381  0.402  0.402
    eigenvectors:
  0.000  0.000  1.000  0.000  0.000
  0.237  0.683  0.000  0.019  0.060
  0.685  0.237  0.000  0.059  0.020
  0.057  0.021  0.000  0.687  0.234
  0.021  0.059  0.000  0.235  0.686
    occupations:
  0.381  0.000  0.000  0.000  0.000
  0.000  0.360  0.000  0.000  0.012
  0.000  0.000  0.360  0.012  0.000
  0.000  0.000  0.012  0.398  0.000
  0.000  0.012  0.000  0.000  0.398
atom    5   Tr[ns(na)] =   5.42495
    eigenvalues: 
  0.835  0.929  0.948
    eigenvectors:
  0.337  0.000  0.663
  0.496  0.251  0.252
  0.167  0.749  0.085
    occupations:
  0.910 -0.046  0.027
 -0.046  0.887  0.024
  0.027  0.024  0.915
atom    6   Tr[ns(na)] =   5.43463
    eigenvalues: 
  0.838  0.931  0.949
    eigenvectors:
  0.337  0.000  0.663
  0.498  0.250  0.252
  0.165  0.750  0.085
    occupations:
  0.911  0.045  0.026
  0.045  0.889 -0.024
  0.026 -0.024  0.917
atom    7   Tr[ns(na)] =   5.43463
    eigenvalues: 
  0.838  0.931  0.949
    eigenvectors:
  0.337  0.000  0.663
  0.000  1.000  0.000
  0.663  0.000  0.337
    occupations:
  0.911  0.000 -0.052
  0.000  0.931  0.000
 -0.052  0.000  0.875
atom    8   Tr[ns(na)] =   5.43378
    eigenvalues: 
  0.838  0.931  0.948
    eigenvectors:
  0.337  0.000  0.663
  0.497  0.251  0.252
  0.167  0.749  0.085
    occupations:
  0.911 -0.045  0.026
 -0.045  0.889  0.024
  0.026  0.024  0.917
atom    9   Tr[ns(na)] =   5.43469
    eigenvalues: 
  0.838  0.931  0.949
    eigenvectors:
  0.337  0.000  0.663
  0.499  0.249  0.252
  0.165  0.751  0.084
    occupations:
  0.911  0.045  0.026
  0.045  0.889 -0.024
  0.026 -0.024  0.917
atom   10   Tr[ns(na)] =   5.43469
    eigenvalues: 
  0.838  0.931  0.949
    eigenvectors:
  0.337  0.000  0.663
  0.000  1.000  0.000
  0.663  0.000  0.337
    occupations:
  0.911  0.000 -0.052
  0.000  0.931  0.000
 -0.052  0.000  0.875
N of occupied +U levels =  56.2898770
 --- exit write_ns ---
 --- in v_hubbard ---
Hubbard energy    0.5772
 -------

     total cpu time spent up to now is      267.3 secs

     total energy              =    -537.71424849 Ry
     Harris-Foulkes estimate   =    -537.71421855 Ry
     estimated scf accuracy    <       0.00000968 Ry

     iteration # 10     ecut=    30.00 Ry     beta=0.20
     Davidson diagonalization with overlap
     ethr =  1.27E-08,  avg # of iterations =  1.0
 --- enter write_ns ---
 LDA+U parameters:
U( 1)     =  7.00000000
alpha( 1) =  0.00000000
U( 2)     =  0.00000000
alpha( 2) =  0.00000000
U( 3)     =  0.00000000
alpha( 3) =  0.15000000
U( 4)     =  0.00000000
alpha( 4) =  0.00000000
atom    1   Tr[ns(na)] =   8.05105
    eigenvalues: 
  0.513  0.516  0.998  0.998  1.000
    eigenvectors:
  0.000  0.000  0.000  0.000  1.000
  0.095  0.563  0.109  0.233  0.000
  0.563  0.096  0.233  0.108  0.000
  0.169  0.173  0.193  0.465  0.000
  0.173  0.169  0.465  0.193  0.000
    occupations:
  1.000  0.000  0.000  0.000  0.000
  0.000  0.681  0.000 -0.089  0.211
  0.000  0.000  0.679  0.211  0.090
  0.000 -0.089  0.211  0.833  0.000
  0.000  0.211  0.090  0.000  0.833
atom    2   Tr[ns(na)] =   8.04770
    eigenvalues: 
  0.512  0.515  0.998  0.998  1.000
    eigenvectors:
  0.000  0.000  0.000  0.000  1.000
  0.245  0.414  0.064  0.278  0.000
  0.414  0.244  0.278  0.064  0.000
  0.320  0.022  0.656  0.002  0.000
  0.022  0.319  0.002  0.657  0.000
    occupations:
  1.000  0.000  0.000  0.000  0.000
  0.000  0.679 -0.001  0.089  0.212
  0.000 -0.001  0.679  0.212 -0.088
  0.000  0.089  0.212  0.832  0.000
  0.000  0.212 -0.088  0.000  0.833
atom    3   Tr[ns(na)] =   3.79434
    eigenvalues: 
  0.356  0.357  0.381  0.402  0.402
    eigenvectors:
  0.000  0.000  1.000  0.000  0.000
  0.692  0.231  0.000  0.017  0.060
  0.231  0.692  0.000  0.060  0.017
  0.020  0.058  0.000  0.709  0.213
  0.058  0.020  0.000  0.213  0.709
    occupations:
  0.381  0.000  0.000  0.000  0.000
  0.000  0.360  0.000  0.000  0.012
  0.000  0.000  0.360  0.012  0.000
  0.000  0.000  0.012  0.398  0.000
  0.000  0.012  0.000  0.000  0.398
atom    4   Tr[ns(na)] =   3.79430
    eigenvalues: 
  0.356  0.356  0.381  0.402  0.402
    eigenvectors:
  0.000  0.000  1.000  0.000  0.000
  0.242  0.678  0.000  0.019  0.060
  0.679  0.242  0.000  0.059  0.020
  0.057  0.022  0.000  0.687  0.234
  0.021  0.058  0.000  0.235  0.686
    occupations:
  0.381  0.000  0.000  0.000  0.000
  0.000  0.360  0.000  0.000  0.012
  0.000  0.000  0.360  0.012  0.000
  0.000  0.000  0.012  0.398  0.000
  0.000  0.012  0.000  0.000  0.398
atom    5   Tr[ns(na)] =   5.42577
    eigenvalues: 
  0.836  0.929  0.948
    eigenvectors:
  0.337  0.000  0.663
  0.496  0.251  0.252
  0.167  0.749  0.085
    occupations:
  0.910 -0.046  0.027
 -0.046  0.887  0.024
  0.027  0.024  0.915
atom    6   Tr[ns(na)] =   5.43538
    eigenvalues: 
  0.838  0.931  0.949
    eigenvectors:
  0.337  0.000  0.663
  0.498  0.250  0.252
  0.165  0.750  0.085
    occupations:
  0.911  0.045  0.026
  0.045  0.889 -0.024
  0.026 -0.024  0.917
atom    7   Tr[ns(na)] =   5.43538
    eigenvalues: 
  0.838  0.931  0.949
    eigenvectors:
  0.337  0.000  0.663
  0.000  1.000  0.000
  0.663  0.000  0.337
    occupations:
  0.911  0.000 -0.052
  0.000  0.931  0.000
 -0.052  0.000  0.875
atom    8   Tr[ns(na)] =   5.43455
    eigenvalues: 
  0.838  0.931  0.948
    eigenvectors:
  0.337  0.000  0.663
  0.497  0.251  0.252
  0.167  0.749  0.085
    occupations:
  0.911 -0.045  0.026
 -0.045  0.889  0.024
  0.026  0.024  0.917
atom    9   Tr[ns(na)] =   5.43544
    eigenvalues: 
  0.838  0.931  0.949
    eigenvectors:
  0.336  0.000  0.664
  0.499  0.249  0.252
  0.165  0.751  0.084
    occupations:
  0.911  0.045  0.026
  0.045  0.889 -0.024
  0.026 -0.024  0.917
atom   10   Tr[ns(na)] =   5.43544
    eigenvalues: 
  0.838  0.931  0.949
    eigenvectors:
  0.336  0.000  0.664
  0.000  1.000  0.000
  0.664  0.000  0.336
    occupations:
  0.911  0.000 -0.052
  0.000  0.931  0.000
 -0.052  0.000  0.875
N of occupied +U levels =  56.2893502
 --- exit write_ns ---
 --- in v_hubbard ---
Hubbard energy    0.5778
 -------

     total cpu time spent up to now is      290.0 secs

     total energy              =    -537.71427185 Ry
     Harris-Foulkes estimate   =    -537.71425069 Ry
     estimated scf accuracy    <       0.00000511 Ry

     iteration # 11     ecut=    30.00 Ry     beta=0.20
     Davidson diagonalization with overlap
     ethr =  6.72E-09,  avg # of iterations =  2.0
 --- enter write_ns ---
 LDA+U parameters:
U( 1)     =  7.00000000
alpha( 1) =  0.00000000
U( 2)     =  0.00000000
alpha( 2) =  0.00000000
U( 3)     =  0.00000000
alpha( 3) =  0.15000000
U( 4)     =  0.00000000
alpha( 4) =  0.00000000
atom    1   Tr[ns(na)] =   8.05219
    eigenvalues: 
  0.514  0.516  0.998  0.998  1.000
    eigenvectors:
  0.000  0.000  0.000  0.000  1.000
  0.095  0.563  0.108  0.234  0.000
  0.563  0.095  0.234  0.107  0.000
  0.168  0.173  0.194  0.465  0.000
  0.173  0.169  0.464  0.194  0.000
    occupations:
  1.000  0.000  0.000  0.000  0.000
  0.000  0.681  0.000 -0.089  0.211
  0.000  0.000  0.679  0.211  0.090
  0.000 -0.089  0.211  0.833  0.000
  0.000  0.211  0.090  0.000  0.833
atom    2   Tr[ns(na)] =   8.04897
    eigenvalues: 
  0.513  0.515  0.998  0.998  1.000
    eigenvectors:
  0.000  0.000  0.000  0.000  1.000
  0.245  0.413  0.065  0.277  0.000
  0.413  0.245  0.277  0.065  0.000
  0.320  0.022  0.656  0.002  0.000
  0.022  0.320  0.002  0.656  0.000
    occupations:
  1.000  0.000  0.000  0.000  0.000
  0.000  0.679 -0.001  0.090  0.211
  0.000 -0.001  0.679  0.212 -0.089
  0.000  0.090  0.212  0.832  0.000
  0.000  0.211 -0.089  0.000  0.833
atom    3   Tr[ns(na)] =   3.79417
    eigenvalues: 
  0.356  0.357  0.381  0.402  0.402
    eigenvectors:
  0.000  0.000  1.000  0.000  0.000
  0.692  0.230  0.000  0.017  0.061
  0.230  0.692  0.000  0.061  0.017
  0.020  0.058  0.000  0.713  0.210
  0.058  0.020  0.000  0.210  0.713
    occupations:
  0.381  0.000  0.000  0.000  0.000
  0.000  0.360  0.000  0.000  0.012
  0.000  0.000  0.360  0.012  0.000
  0.000  0.000  0.012  0.398  0.000
  0.000  0.012  0.000  0.000  0.398
atom    4   Tr[ns(na)] =   3.79413
    eigenvalues: 
  0.356  0.356  0.381  0.402  0.402
    eigenvectors:
  0.000  0.000  1.000  0.000  0.000
  0.246  0.674  0.000  0.019  0.060
  0.675  0.246  0.000  0.059  0.020
  0.057  0.022  0.000  0.687  0.234
  0.022  0.058  0.000  0.234  0.686
    occupations:
  0.381  0.000  0.000  0.000  0.000
  0.000  0.360  0.000  0.000  0.012
  0.000  0.000  0.360  0.012  0.000
  0.000  0.000  0.012  0.398  0.000
  0.000  0.012  0.000  0.000  0.398
atom    5   Tr[ns(na)] =   5.42545
    eigenvalues: 
  0.835  0.929  0.948
    eigenvectors:
  0.337  0.000  0.663
  0.496  0.251  0.252
  0.167  0.749  0.085
    occupations:
  0.910 -0.046  0.027
 -0.046  0.887  0.024
  0.027  0.024  0.915
atom    6   Tr[ns(na)] =   5.43503
    eigenvalues: 
  0.838  0.931  0.949
    eigenvectors:
  0.337  0.000  0.663
  0.498  0.250  0.252
  0.165  0.750  0.085
    occupations:
  0.911  0.045  0.026
  0.045  0.889 -0.024
  0.026 -0.024  0.917
atom    7   Tr[ns(na)] =   5.43503
    eigenvalues: 
  0.838  0.931  0.949
    eigenvectors:
  0.337  0.000  0.663
  0.000  1.000  0.000
  0.663  0.000  0.337
    occupations:
  0.911  0.000 -0.052
  0.000  0.931  0.000
 -0.052  0.000  0.875
atom    8   Tr[ns(na)] =   5.43417
    eigenvalues: 
  0.838  0.931  0.948
    eigenvectors:
  0.337  0.000  0.663
  0.497  0.251  0.252
  0.167  0.749  0.085
    occupations:
  0.911 -0.045  0.026
 -0.045  0.889  0.024
  0.026  0.024  0.917
atom    9   Tr[ns(na)] =   5.43509
    eigenvalues: 
  0.838  0.931  0.949
    eigenvectors:
  0.336  0.000  0.664
  0.499  0.249  0.252
  0.165  0.751  0.084
    occupations:
  0.911  0.045  0.026
  0.045  0.889 -0.024
  0.026 -0.024  0.917
atom   10   Tr[ns(na)] =   5.43509
    eigenvalues: 
  0.838  0.931  0.949
    eigenvectors:
  0.336  0.000  0.664
  0.000  1.000  0.000
  0.664  0.000  0.336
    occupations:
  0.911  0.000 -0.052
  0.000  0.931  0.000
 -0.052  0.000  0.875
N of occupied +U levels =  56.2893091
 --- exit write_ns ---
 --- in v_hubbard ---
Hubbard energy    0.5775
 -------

     total cpu time spent up to now is      313.9 secs

     total energy              =    -537.71428787 Ry
     Harris-Foulkes estimate   =    -537.71427395 Ry
     estimated scf accuracy    <       0.00000163 Ry

     iteration # 12     ecut=    30.00 Ry     beta=0.20
     Davidson diagonalization with overlap
     ethr =  2.15E-09,  avg # of iterations =  1.0
 --- enter write_ns ---
 LDA+U parameters:
U( 1)     =  7.00000000
alpha( 1) =  0.00000000
U( 2)     =  0.00000000
alpha( 2) =  0.00000000
U( 3)     =  0.00000000
alpha( 3) =  0.15000000
U( 4)     =  0.00000000
alpha( 4) =  0.00000000
atom    1   Tr[ns(na)] =   8.05211
    eigenvalues: 
  0.514  0.516  0.998  0.998  1.000
    eigenvectors:
  0.000  0.000  0.000  0.000  1.000
  0.095  0.563  0.107  0.235  0.000
  0.563  0.095  0.235  0.107  0.000
  0.168  0.173  0.194  0.464  0.000
  0.174  0.168  0.464  0.194  0.000
    occupations:
  1.000  0.000  0.000  0.000  0.000
  0.000  0.681  0.000 -0.089  0.211
  0.000  0.000  0.679  0.211  0.090
  0.000 -0.089  0.211  0.833  0.000
  0.000  0.211  0.090  0.000  0.833
atom    2   Tr[ns(na)] =   8.04886
    eigenvalues: 
  0.512  0.515  0.998  0.998  1.000
    eigenvectors:
  0.000  0.000  0.000  0.000  1.000
  0.245  0.413  0.065  0.276  0.000
  0.413  0.245  0.277  0.065  0.000
  0.320  0.022  0.656  0.002  0.000
  0.022  0.320  0.002  0.656  0.000
    occupations:
  1.000  0.000  0.000  0.000  0.000
  0.000  0.679 -0.001  0.090  0.211
  0.000 -0.001  0.679  0.212 -0.089
  0.000  0.090  0.212  0.832  0.000
  0.000  0.211 -0.089  0.000  0.833
atom    3   Tr[ns(na)] =   3.79439
    eigenvalues: 
  0.356  0.357  0.381  0.402  0.402
    eigenvectors:
  0.000  0.000  1.000  0.000  0.000
  0.692  0.230  0.000  0.017  0.061
  0.230  0.692  0.000  0.061  0.017
  0.020  0.058  0.000  0.713  0.209
  0.058  0.020  0.000  0.209  0.713
    occupations:
  0.381  0.000  0.000  0.000  0.000
  0.000  0.360  0.000  0.000  0.012
  0.000  0.000  0.360  0.012  0.000
  0.000  0.000  0.012  0.398  0.000
  0.000  0.012  0.000  0.000  0.398
atom    4   Tr[ns(na)] =   3.79435
    eigenvalues: 
  0.356  0.356  0.381  0.402  0.402
    eigenvectors:
  0.000  0.000  1.000  0.000  0.000
  0.248  0.673  0.000  0.019  0.060
  0.674  0.247  0.000  0.059  0.020
  0.057  0.022  0.000  0.688  0.234
  0.022  0.058  0.000  0.234  0.687
    occupations:
  0.381  0.000  0.000  0.000  0.000
  0.000  0.360  0.000  0.000  0.012
  0.000  0.000  0.360  0.012  0.000
  0.000  0.000  0.012  0.398  0.000
  0.000  0.012  0.000  0.000  0.398
atom    5   Tr[ns(na)] =   5.42540
    eigenvalues: 
  0.835  0.929  0.948
    eigenvectors:
  0.337  0.000  0.663
  0.496  0.251  0.252
  0.167  0.749  0.085
    occupations:
  0.910 -0.046  0.027
 -0.046  0.887  0.024
  0.027  0.024  0.915
atom    6   Tr[ns(na)] =   5.43503
    eigenvalues: 
  0.838  0.931  0.949
    eigenvectors:
  0.337  0.000  0.663
  0.498  0.250  0.252
  0.165  0.750  0.085
    occupations:
  0.911  0.045  0.026
  0.045  0.889 -0.024
  0.026 -0.024  0.917
atom    7   Tr[ns(na)] =   5.43503
    eigenvalues: 
  0.838  0.931  0.949
    eigenvectors:
  0.337  0.000  0.663
  0.000  1.000  0.000
  0.663  0.000  0.337
    occupations:
  0.911  0.000 -0.052
  0.000  0.931  0.000
 -0.052  0.000  0.875
atom    8   Tr[ns(na)] =   5.43412
    eigenvalues: 
  0.838  0.931  0.948
    eigenvectors:
  0.337  0.000  0.663
  0.497  0.251  0.252
  0.167  0.749  0.085
    occupations:
  0.911 -0.045  0.026
 -0.045  0.889  0.024
  0.026  0.024  0.917
atom    9   Tr[ns(na)] =   5.43510
    eigenvalues: 
  0.838  0.931  0.949
    eigenvectors:
  0.336  0.000  0.664
  0.499  0.249  0.252
  0.165  0.751  0.084
    occupations:
  0.911  0.045  0.026
  0.045  0.889 -0.024
  0.026 -0.024  0.917
atom   10   Tr[ns(na)] =   5.43510
    eigenvalues: 
  0.838  0.931  0.949
    eigenvectors:
  0.336  0.000  0.664
  0.000  1.000  0.000
  0.664  0.000  0.336
    occupations:
  0.911  0.000 -0.052
  0.000  0.931  0.000
 -0.052  0.000  0.875
N of occupied +U levels =  56.2894892
 --- exit write_ns ---
 --- in v_hubbard ---
Hubbard energy    0.5773
 -------

     total cpu time spent up to now is      336.5 secs

     total energy              =    -537.71429714 Ry
     Harris-Foulkes estimate   =    -537.71428841 Ry
     estimated scf accuracy    <       0.00000066 Ry

     iteration # 13     ecut=    30.00 Ry     beta=0.20
     Davidson diagonalization with overlap
     ethr =  8.69E-10,  avg # of iterations =  1.5
 --- enter write_ns ---
 LDA+U parameters:
U( 1)     =  7.00000000
alpha( 1) =  0.00000000
U( 2)     =  0.00000000
alpha( 2) =  0.00000000
U( 3)     =  0.00000000
alpha( 3) =  0.15000000
U( 4)     =  0.00000000
alpha( 4) =  0.00000000
atom    1   Tr[ns(na)] =   8.05176
    eigenvalues: 
  0.514  0.516  0.998  0.998  1.000
    eigenvectors:
  0.000  0.000  0.000  0.000  1.000
  0.095  0.563  0.106  0.236  0.000
  0.563  0.095  0.236  0.106  0.000
  0.168  0.174  0.195  0.463  0.000
  0.174  0.168  0.463  0.195  0.000
    occupations:
  1.000  0.000  0.000  0.000  0.000
  0.000  0.681  0.000 -0.090  0.211
  0.000  0.000  0.679  0.211  0.091
  0.000 -0.090  0.211  0.833  0.000
  0.000  0.211  0.091  0.000  0.833
atom    2   Tr[ns(na)] =   8.04851
    eigenvalues: 
  0.512  0.515  0.998  0.998  1.000
    eigenvectors:
  0.000  0.000  0.000  0.000  1.000
  0.246  0.413  0.066  0.276  0.000
  0.413  0.245  0.276  0.066  0.000
  0.320  0.022  0.656  0.002  0.000
  0.022  0.320  0.002  0.656  0.000
    occupations:
  1.000  0.000  0.000  0.000  0.000
  0.000  0.679 -0.001  0.090  0.211
  0.000 -0.001  0.679  0.212 -0.089
  0.000  0.090  0.212  0.832  0.000
  0.000  0.211 -0.089  0.000  0.833
atom    3   Tr[ns(na)] =   3.79427
    eigenvalues: 
  0.356  0.357  0.381  0.402  0.402
    eigenvectors:
  0.000  0.000  1.000  0.000  0.000
  0.692  0.230  0.000  0.017  0.061
  0.230  0.692  0.000  0.061  0.017
  0.020  0.058  0.000  0.713  0.209
  0.058  0.020  0.000  0.209  0.713
    occupations:
  0.381  0.000  0.000  0.000  0.000
  0.000  0.360  0.000  0.000  0.012
  0.000  0.000  0.360  0.012  0.000
  0.000  0.000  0.012  0.398  0.000
  0.000  0.012  0.000  0.000  0.398
atom    4   Tr[ns(na)] =   3.79423
    eigenvalues: 
  0.356  0.356  0.381  0.402  0.402
    eigenvectors:
  0.000  0.000  1.000  0.000  0.000
  0.249  0.672  0.000  0.019  0.060
  0.673  0.248  0.000  0.059  0.020
  0.056  0.022  0.000  0.688  0.234
  0.022  0.058  0.000  0.234  0.686
    occupations:
  0.381  0.000  0.000  0.000  0.000
  0.000  0.360  0.000  0.000  0.012
  0.000  0.000  0.360  0.012  0.000
  0.000  0.000  0.012  0.398  0.000
  0.000  0.012  0.000  0.000  0.398
atom    5   Tr[ns(na)] =   5.42555
    eigenvalues: 
  0.835  0.929  0.948
    eigenvectors:
  0.337  0.000  0.663
  0.496  0.251  0.252
  0.167  0.749  0.085
    occupations:
  0.910 -0.046  0.027
 -0.046  0.887  0.024
  0.027  0.024  0.915
atom    6   Tr[ns(na)] =   5.43516
    eigenvalues: 
  0.838  0.931  0.949
    eigenvectors:
  0.337  0.000  0.663
  0.498  0.250  0.252
  0.165  0.750  0.085
    occupations:
  0.911  0.045  0.026
  0.045  0.889 -0.024
  0.026 -0.024  0.917
atom    7   Tr[ns(na)] =   5.43516
    eigenvalues: 
  0.838  0.931  0.949
    eigenvectors:
  0.337  0.000  0.663
  0.000  1.000  0.000
  0.663  0.000  0.337
    occupations:
  0.911  0.000 -0.052
  0.000  0.931  0.000
 -0.052  0.000  0.875
atom    8   Tr[ns(na)] =   5.43427
    eigenvalues: 
  0.838  0.931  0.948
    eigenvectors:
  0.337  0.000  0.663
  0.497  0.251  0.252
  0.167  0.749  0.085
    occupations:
  0.911 -0.045  0.026
 -0.045  0.889  0.024
  0.026  0.024  0.917
atom    9   Tr[ns(na)] =   5.43523
    eigenvalues: 
  0.838  0.931  0.949
    eigenvectors:
  0.336  0.000  0.664
  0.499  0.249  0.252
  0.165  0.751  0.084
    occupations:
  0.911  0.045  0.026
  0.045  0.889 -0.024
  0.026 -0.024  0.917
atom   10   Tr[ns(na)] =   5.43522
    eigenvalues: 
  0.838  0.931  0.949
    eigenvectors:
  0.336  0.000  0.664
  0.000  1.000  0.000
  0.664  0.000  0.336
    occupations:
  0.911  0.000 -0.052
  0.000  0.931  0.000
 -0.052  0.000  0.875
N of occupied +U levels =  56.2893632
 --- exit write_ns ---
 --- in v_hubbard ---
Hubbard energy    0.5773
 -------

     total cpu time spent up to now is      359.5 secs

     total energy              =    -537.71430357 Ry
     Harris-Foulkes estimate   =    -537.71429742 Ry
     estimated scf accuracy    <       0.00000001 Ry

     iteration # 14     ecut=    30.00 Ry     beta=0.20
     Davidson diagonalization with overlap
     ethr =  1.76E-11,  avg # of iterations =  3.2
 --- enter write_ns ---
 LDA+U parameters:
U( 1)     =  7.00000000
alpha( 1) =  0.00000000
U( 2)     =  0.00000000
alpha( 2) =  0.00000000
U( 3)     =  0.00000000
alpha( 3) =  0.15000000
U( 4)     =  0.00000000
alpha( 4) =  0.00000000
atom    1   Tr[ns(na)] =   8.05178
    eigenvalues: 
  0.514  0.516  0.998  0.998  1.000
    eigenvectors:
  0.000  0.000  0.000  0.000  1.000
  0.095  0.563  0.106  0.236  0.000
  0.563  0.095  0.236  0.106  0.000
  0.168  0.174  0.196  0.463  0.000
  0.174  0.168  0.462  0.195  0.000
    occupations:
  1.000  0.000  0.000  0.000  0.000
  0.000  0.681  0.000 -0.090  0.211
  0.000  0.000  0.679  0.211  0.091
  0.000 -0.090  0.211  0.833  0.000
  0.000  0.211  0.091  0.000  0.833
atom    2   Tr[ns(na)] =   8.04855
    eigenvalues: 
  0.512  0.515  0.998  0.998  1.000
    eigenvectors:
  0.000  0.000  0.000  0.000  1.000
  0.246  0.413  0.066  0.275  0.000
  0.413  0.245  0.276  0.066  0.000
  0.320  0.022  0.656  0.002  0.000
  0.022  0.320  0.002  0.656  0.000
    occupations:
  1.000  0.000  0.000  0.000  0.000
  0.000  0.679 -0.001  0.090  0.211
  0.000 -0.001  0.679  0.212 -0.089
  0.000  0.090  0.212  0.832  0.000
  0.000  0.211 -0.089  0.000  0.833
atom    3   Tr[ns(na)] =   3.79418
    eigenvalues: 
  0.356  0.357  0.381  0.402  0.402
    eigenvectors:
  0.000  0.000  1.000  0.000  0.000
  0.692  0.230  0.000  0.017  0.061
  0.230  0.692  0.000  0.061  0.017
  0.020  0.058  0.000  0.718  0.204
  0.058  0.020  0.000  0.204  0.718
    occupations:
  0.381  0.000  0.000  0.000  0.000
  0.000  0.360  0.000  0.000  0.012
  0.000  0.000  0.360  0.012  0.000
  0.000  0.000  0.012  0.398  0.000
  0.000  0.012  0.000  0.000  0.398
atom    4   Tr[ns(na)] =   3.79414
    eigenvalues: 
  0.356  0.356  0.381  0.402  0.402
    eigenvectors:
  0.000  0.000  1.000  0.000  0.000
  0.250  0.671  0.000  0.019  0.060
  0.672  0.250  0.000  0.059  0.020
  0.056  0.022  0.000  0.688  0.234
  0.022  0.058  0.000  0.234  0.687
    occupations:
  0.381  0.000  0.000  0.000  0.000
  0.000  0.360  0.000  0.000  0.012
  0.000  0.000  0.360  0.012  0.000
  0.000  0.000  0.012  0.398  0.000
  0.000  0.012  0.000  0.000  0.398
atom    5   Tr[ns(na)] =   5.42559
    eigenvalues: 
  0.835  0.929  0.948
    eigenvectors:
  0.337  0.000  0.663
  0.496  0.251  0.252
  0.167  0.749  0.085
    occupations:
  0.910 -0.046  0.027
 -0.046  0.887  0.024
  0.027  0.024  0.915
atom    6   Tr[ns(na)] =   5.43516
    eigenvalues: 
  0.838  0.931  0.949
    eigenvectors:
  0.337  0.000  0.663
  0.498  0.250  0.252
  0.165  0.750  0.085
    occupations:
  0.911  0.045  0.026
  0.045  0.889 -0.024
  0.026 -0.024  0.917
atom    7   Tr[ns(na)] =   5.43516
    eigenvalues: 
  0.838  0.931  0.949
    eigenvectors:
  0.337  0.000  0.663
  0.000  1.000  0.000
  0.663  0.000  0.337
    occupations:
  0.911  0.000 -0.052
  0.000  0.931  0.000
 -0.052  0.000  0.875
atom    8   Tr[ns(na)] =   5.43429
    eigenvalues: 
  0.838  0.931  0.948
    eigenvectors:
  0.337  0.000  0.663
  0.497  0.251  0.252
  0.167  0.749  0.085
    occupations:
  0.911 -0.045  0.026
 -0.045  0.889  0.024
  0.026  0.024  0.917
atom    9   Tr[ns(na)] =   5.43523
    eigenvalues: 
  0.838  0.931  0.949
    eigenvectors:
  0.336  0.000  0.664
  0.499  0.249  0.252
  0.165  0.751  0.084
    occupations:
  0.911  0.045  0.026
  0.045  0.889 -0.024
  0.026 -0.024  0.917
atom   10   Tr[ns(na)] =   5.43523
    eigenvalues: 
  0.838  0.931  0.949
    eigenvectors:
  0.336  0.000  0.664
  0.000  1.000  0.000
  0.664  0.000  0.336
    occupations:
  0.911  0.000 -0.052
  0.000  0.931  0.000
 -0.052  0.000  0.875
N of occupied +U levels =  56.2893261
 --- exit write_ns ---
 --- in v_hubbard ---
Hubbard energy    0.5773
 -------

     total cpu time spent up to now is      393.9 secs

     End of self-consistent calculation

          k = 0.0000 0.0000 0.0000 (  2175 PWs)   bands (ev):

   -19.7905 -19.6168  -6.5575  -5.9143  -5.8869  -5.8350  -5.8183  -5.4898
    -3.9321  -3.3084  -3.3049  -3.2512  -3.0180  -3.0171   5.1809   5.8263
     5.8323   5.8866   6.5016   6.5068   7.2466   7.5208   7.5370   7.7166
     7.7169   7.7302   9.3133   9.6348   9.6482   9.9815   9.9842  10.1570
    10.4693  10.4737  10.6150  10.6200  10.6888  10.9009  11.8255  11.8285
    14.7115  14.7126  15.4317  15.4340  16.2020  16.7865

     occupation numbers 
     0.0313   0.0313   0.0313   0.0313   0.0313   0.0313   0.0313   0.0313
     0.0313   0.0313   0.0313   0.0313   0.0313   0.0313   0.0313   0.0313
     0.0313   0.0313   0.0313   0.0313   0.0313   0.0313   0.0313   0.0313
     0.0313   0.0313   0.0312   0.0312   0.0312   0.0312   0.0312   0.0312
     0.0312   0.0312   0.0311   0.0311   0.0310   0.0297   0.0018   0.0018
     0.0000   0.0000   0.0000   0.0000   0.0000   0.0000

          k =-0.2471-0.1427 0.1027 (  2181 PWs)   bands (ev):

   -19.7667 -19.6650  -6.7345  -6.3146  -5.9851  -5.8679  -5.6230  -5.4928
    -3.6884  -3.4356  -2.9548  -2.9111  -2.8859  -2.7708   5.3529   5.7121
     5.8812   5.9632   6.4177   6.4278   6.7805   7.0273   7.4089   7.5268
     7.5592   7.7126   9.2843   9.4572   9.7093   9.8212   9.8472   9.9541
    10.1785  10.3595  10.4107  10.5730  10.6869  10.7451  12.2668  12.3429
    14.2616  14.2728  15.8200  16.0721  16.9737  17.2679

     occupation numbers 
     0.0625   0.0625   0.0625   0.0625   0.0625   0.0625   0.0625   0.0625
     0.0625   0.0625   0.0625   0.0625   0.0625   0.0625   0.0625   0.0625
     0.0625   0.0625   0.0625   0.0625   0.0625   0.0625   0.0625   0.0625
     0.0625   0.0625   0.0625   0.0625   0.0625   0.0625   0.0625   0.0625
     0.0625   0.0625   0.0625   0.0623   0.0620   0.0616   0.0001   0.0000
     0.0000   0.0000   0.0000   0.0000   0.0000   0.0000

          k = 0.4942 0.2853-0.2053 (  2202 PWs)   bands (ev):

   -19.7292 -19.7273  -6.7403  -6.7128  -5.9929  -5.9698  -5.5433  -5.5214
    -3.4258  -3.4187  -2.8132  -2.8101  -2.5068  -2.5009   5.4341   5.4548
     6.0586   6.0759   6.2079   6.2231   6.7291   6.7540   7.2683   7.2902
     7.4037   7.4165   9.3046   9.3135   9.6839   9.7007   9.9251   9.9344
    10.0474  10.0715  10.3512  10.3609  10.5049  10.5381  13.2482  13.2963
    13.3320  13.3802  16.8343  16.8377  17.1272  17.1306

     occupation numbers 
     0.0313   0.0313   0.0313   0.0313   0.0313   0.0313   0.0313   0.0313
     0.0313   0.0313   0.0313   0.0313   0.0313   0.0313   0.0313   0.0313
     0.0313   0.0313   0.0313   0.0313   0.0313   0.0313   0.0313   0.0313
     0.0313   0.0313   0.0312   0.0312   0.0312   0.0312   0.0312   0.0312
     0.0312   0.0312   0.0312   0.0312   0.0312   0.0312   0.0000   0.0000
     0.0000   0.0000   0.0000   0.0000   0.0000   0.0000

[...]
     0.0625   0.0625   0.0625   0.0625   0.0625   0.0625   0.0625   0.0625
     0.0625   0.0625   0.0625   0.0625   0.0625   0.0625   0.0625   0.0625
     0.0625   0.0625   0.0624   0.0624   0.0622   0.0619   0.0055   0.0000
     0.0000   0.0000   0.0000   0.0000   0.0000   0.0000

          k = 0.4942-0.5706 0.1027 (  2198 PWs)   bands (ev):

   -19.7334 -19.7298  -6.9657  -6.6515  -6.1433  -5.8898  -5.5232  -5.4050
    -3.3474  -3.2764  -2.8863  -2.7183  -2.5322  -2.3877   5.0968   5.6512
     5.7516   6.0939   6.1919   6.3804   6.4389   6.8857   7.2400   7.3836
     7.6916   7.8384   8.7612   9.0927   9.4362   9.6262   9.6603   9.9706
    10.1694  10.2412  10.2640  10.3906  10.5731  10.7460  12.2602  12.7035
    13.3908  14.3144  16.9078  17.1149  17.3082  18.0177

     occupation numbers 
     0.0625   0.0625   0.0625   0.0625   0.0625   0.0625   0.0625   0.0625
     0.0625   0.0625   0.0625   0.0625   0.0625   0.0625   0.0625   0.0625
     0.0625   0.0625   0.0625   0.0625   0.0625   0.0625   0.0625   0.0625
     0.0625   0.0625   0.0625   0.0625   0.0625   0.0625   0.0625   0.0625
     0.0625   0.0625   0.0625   0.0625   0.0623   0.0616   0.0001   0.0000
     0.0000   0.0000   0.0000   0.0000   0.0000   0.0000

          k =-0.7412 0.1427-0.1027 (  2198 PWs)   bands (ev):

   -19.7334 -19.7298  -6.9653  -6.6523  -6.1423  -5.8909  -5.5222  -5.4057
    -3.3466  -3.2764  -2.8862  -2.7193  -2.5315  -2.3880   5.0978   5.6475
     5.7562   6.0965   6.1886   6.3826   6.4347   6.8856   7.2372   7.3883
     7.6939   7.8340   8.7602   9.0937   9.4377   9.6309   9.6578   9.9724
    10.1671  10.2362  10.2701  10.3886  10.5692  10.7482  12.2604  12.7038
    13.3909  14.3147  16.9060  17.1178  17.3075  18.0172

     occupation numbers 
     0.0625   0.0625   0.0625   0.0625   0.0625   0.0625   0.0625   0.0625
     0.0625   0.0625   0.0625   0.0625   0.0625   0.0625   0.0625   0.0625
     0.0625   0.0625   0.0625   0.0625   0.0625   0.0625   0.0625   0.0625
     0.0625   0.0625   0.0625   0.0625   0.0625   0.0625   0.0625   0.0625
     0.0625   0.0625   0.0625   0.0625   0.0623   0.0616   0.0001   0.0000
     0.0000   0.0000   0.0000   0.0000   0.0000   0.0000

          k = 0.2471-0.7133-0.1027 (  2198 PWs)   bands (ev):

   -19.7334 -19.7299  -6.9657  -6.6515  -6.1440  -5.8892  -5.5209  -5.4078
    -3.3465  -3.2763  -2.8866  -2.7178  -2.5319  -2.3884   5.0974   5.6460
     5.7559   6.0970   6.1902   6.3758   6.4400   6.8865   7.2372   7.3833
     7.6999   7.8347   8.7631   9.0902   9.4339   9.6368   9.6554   9.9751
    10.1788  10.2251  10.2686  10.3721  10.5815  10.7509  12.2602  12.7037
    13.3910  14.3147  16.9081  17.1145  17.3074  18.0157

     occupation numbers 
     0.0625   0.0625   0.0625   0.0625   0.0625   0.0625   0.0625   0.0625
     0.0625   0.0625   0.0625   0.0625   0.0625   0.0625   0.0625   0.0625
     0.0625   0.0625   0.0625   0.0625   0.0625   0.0625   0.0625   0.0625
     0.0625   0.0625   0.0625   0.0625   0.0625   0.0625   0.0625   0.0625
     0.0625   0.0625   0.0625   0.0625   0.0623   0.0615   0.0001   0.0000
     0.0000   0.0000   0.0000   0.0000   0.0000   0.0000

          k =-0.7412-0.1427 0.1027 (  2198 PWs)   bands (ev):

   -19.7334 -19.7299  -6.9662  -6.6508  -6.1448  -5.8880  -5.5219  -5.4072
    -3.3473  -3.2762  -2.8867  -2.7167  -2.5325  -2.3881   5.0965   5.6495
     5.7515   6.0943   6.1934   6.3736   6.4446   6.8861   7.2398   7.3794
     7.6973   7.8390   8.7638   9.0896   9.4324   9.6330   9.6564   9.9734
    10.1803  10.2298  10.2639  10.3741  10.5852  10.7487  12.2600  12.7035
    13.3909  14.3144  16.9100  17.1116  17.3080  18.0163

     occupation numbers 
     0.0625   0.0625   0.0625   0.0625   0.0625   0.0625   0.0625   0.0625
     0.0625   0.0625   0.0625   0.0625   0.0625   0.0625   0.0625   0.0625
     0.0625   0.0625   0.0625   0.0625   0.0625   0.0625   0.0625   0.0625
     0.0625   0.0625   0.0625   0.0625   0.0625   0.0625   0.0625   0.0625
     0.0625   0.0625   0.0625   0.0625   0.0623   0.0616   0.0001   0.0000
     0.0000   0.0000   0.0000   0.0000   0.0000   0.0000

          k = 0.2471 0.7133 0.1027 (  2198 PWs)   bands (ev):

   -19.7346 -19.7306  -6.9507  -6.6563  -6.1294  -5.9186  -5.5343  -5.3893
    -3.3459  -3.2759  -2.8884  -2.7139  -2.5309  -2.3840   5.0825   5.6475
     5.7560   6.0909   6.1948   6.3689   6.4418   6.8957   7.2355   7.3657
     7.6841   7.8674   8.7623   9.0894   9.4330   9.6275   9.6598   9.9797
    10.1687  10.2256  10.2698  10.3761  10.5803  10.7659  12.2627  12.6992
    13.3930  14.3138  16.9078  17.1120  17.3074  18.0172

     occupation numbers 
     0.0625   0.0625   0.0625   0.0625   0.0625   0.0625   0.0625   0.0625
     0.0625   0.0625   0.0625   0.0625   0.0625   0.0625   0.0625   0.0625
     0.0625   0.0625   0.0625   0.0625   0.0625   0.0625   0.0625   0.0625
     0.0625   0.0625   0.0625   0.0625   0.0625   0.0625   0.0625   0.0625
     0.0625   0.0625   0.0625   0.0625   0.0623   0.0614   0.0001   0.0000
     0.0000   0.0000   0.0000   0.0000   0.0000   0.0000

          k = 0.2471-0.4280 0.0000 (  2203 PWs)   bands (ev):

   -19.7477 -19.7079  -6.8508  -6.6569  -6.0529  -5.9951  -5.4592  -5.3775
    -3.5955  -3.3098  -2.8081  -2.7060  -2.5849  -2.5735   5.2608   5.6673
     5.8933   5.9496   6.2127   6.4534   6.5689   6.7279   7.2321   7.3590
     7.4138   8.0380   8.8591   9.2599   9.6109   9.7084   9.8043  10.0207
    10.1166  10.2162  10.2617  10.3682  10.4534  10.8237  12.1669  13.2798
    13.3639  14.1088  16.4337  16.9981  17.4221  17.9276

     occupation numbers 
     0.0625   0.0625   0.0625   0.0625   0.0625   0.0625   0.0625   0.0625
     0.0625   0.0625   0.0625   0.0625   0.0625   0.0625   0.0625   0.0625
     0.0625   0.0625   0.0625   0.0625   0.0625   0.0625   0.0625   0.0625
     0.0625   0.0625   0.0625   0.0625   0.0625   0.0625   0.0625   0.0625
     0.0625   0.0625   0.0625   0.0625   0.0625   0.0607   0.0002   0.0000
     0.0000   0.0000   0.0000   0.0000   0.0000   0.0000

          k =-0.4942 0.0000 0.0000 (  2203 PWs)   bands (ev):

   -19.7477 -19.7079  -6.8507  -6.6570  -6.0528  -5.9951  -5.4592  -5.3776
    -3.5955  -3.3098  -2.8081  -2.7060  -2.5847  -2.5738   5.2608   5.6674
     5.8931   5.9496   6.2126   6.4534   6.5689   6.7279   7.2320   7.3612
     7.4117   8.0380   8.8592   9.2599   9.6116   9.7082   9.8039  10.0208
    10.1165  10.2154  10.2611  10.3693  10.4537  10.8237  12.1669  13.2797
    13.3640  14.1088  16.4337  16.9981  17.4221  17.9273

     occupation numbers 
     0.0625   0.0625   0.0625   0.0625   0.0625   0.0625   0.0625   0.0625
     0.0625   0.0625   0.0625   0.0625   0.0625   0.0625   0.0625   0.0625
     0.0625   0.0625   0.0625   0.0625   0.0625   0.0625   0.0625   0.0625
     0.0625   0.0625   0.0625   0.0625   0.0625   0.0625   0.0625   0.0625
     0.0625   0.0625   0.0625   0.0625   0.0625   0.0607   0.0002   0.0000
     0.0000   0.0000   0.0000   0.0000   0.0000   0.0000

          k = 0.4942 0.2853 0.4107 (  2202 PWs)   bands (ev):

   -19.7475 -19.7224  -7.1765  -6.4578  -6.2462  -5.9678  -5.5300  -5.3177
    -3.2317  -3.1126  -3.0743  -2.6477  -2.4782  -2.2229   4.6818   5.5424
     5.6264   6.0488   6.2564   6.7225   6.7651   6.9237   7.1707   7.2805
     7.6539   8.1829   8.3049   8.6337   9.4217   9.6898   9.9530  10.0452
    10.0812  10.1431  10.2108  10.4845  10.5507  10.8461  11.7262  12.3672
    13.2941  14.7479  17.0480  17.2715  17.5216  17.6171

     occupation numbers 
     0.0313   0.0313   0.0313   0.0313   0.0313   0.0313   0.0313   0.0313
     0.0313   0.0313   0.0313   0.0313   0.0313   0.0313   0.0313   0.0313
     0.0313   0.0313   0.0313   0.0313   0.0313   0.0313   0.0313   0.0313
     0.0313   0.0313   0.0313   0.0313   0.0312   0.0312   0.0312   0.0312
     0.0312   0.0312   0.0312   0.0312   0.0312   0.0302   0.0035   0.0000
     0.0000   0.0000   0.0000   0.0000   0.0000   0.0000

          k = 0.0000 0.5706-0.4107 (  2202 PWs)   bands (ev):

   -19.7475 -19.7224  -7.1765  -6.4579  -6.2460  -5.9678  -5.5301  -5.3176
    -3.2317  -3.1126  -3.0743  -2.6477  -2.4782  -2.2229   4.6818   5.5424
     5.6264   6.0487   6.2565   6.7219   6.7658   6.9235   7.1707   7.2805
     7.6539   8.1832   8.3046   8.6338   9.4218   9.6897   9.9528  10.0454
    10.0809  10.1437  10.2104  10.4838  10.5512  10.8461  11.7262  12.3672
    13.2941  14.7479  17.0479  17.2716  17.5216  17.6171

     occupation numbers 
     0.0313   0.0313   0.0313   0.0313   0.0313   0.0313   0.0313   0.0313
     0.0313   0.0313   0.0313   0.0313   0.0313   0.0313   0.0313   0.0313
     0.0313   0.0313   0.0313   0.0313   0.0313   0.0313   0.0313   0.0313
     0.0313   0.0313   0.0313   0.0313   0.0312   0.0312   0.0312   0.0312
     0.0312   0.0312   0.0312   0.0312   0.0312   0.0302   0.0035   0.0000
     0.0000   0.0000   0.0000   0.0000   0.0000   0.0000

          k = 0.7412-0.4280 0.0000 (  2204 PWs)   bands (ev):

   -19.7464 -19.7116  -6.7435  -6.6089  -6.1547  -5.8480  -5.7180  -5.5493
    -3.2259  -3.1121  -3.0497  -2.6860  -2.6746  -2.5864   5.3436   5.7337
     5.7854   6.1030   6.1191   6.5684   6.5874   6.7425   7.2878   7.3486
     7.4591   7.8913   8.8645   9.3363   9.4016   9.6508   9.8263   9.9871
    10.1514  10.2262  10.3653  10.3827  10.4113  10.5571  12.1590  13.2001
    13.2800  14.1407  16.6873  16.7276  17.5892  17.7958

     occupation numbers 
     0.0625   0.0625   0.0625   0.0625   0.0625   0.0625   0.0625   0.0625
     0.0625   0.0625   0.0625   0.0625   0.0625   0.0625   0.0625   0.0625
     0.0625   0.0625   0.0625   0.0625   0.0625   0.0625   0.0625   0.0625
     0.0625   0.0625   0.0625   0.0625   0.0625   0.0625   0.0625   0.0625
     0.0625   0.0625   0.0625   0.0625   0.0625   0.0624   0.0002   0.0000
     0.0000   0.0000   0.0000   0.0000   0.0000   0.0000

          k = 0.0000-0.8559 0.0000 (  2204 PWs)   bands (ev):

   -19.7465 -19.7115  -6.7366  -6.6215  -6.1468  -5.8421  -5.7118  -5.5646
    -3.2278  -3.1117  -3.0499  -2.6806  -2.6733  -2.5899   5.3316   5.7184
     5.7915   6.1041   6.1257   6.5731   6.5950   6.7511   7.2949   7.3581
     7.4684   7.8670   8.8409   9.3467   9.3818   9.6600   9.8281   9.9946
    10.1603  10.2367  10.3695  10.3757  10.3972  10.5579  12.1636  13.1992
    13.2799  14.1389  16.6850  16.7291  17.5914  17.7962

     occupation numbers 
     0.0625   0.0625   0.0625   0.0625   0.0625   0.0625   0.0625   0.0625
     0.0625   0.0625   0.0625   0.0625   0.0625   0.0625   0.0625   0.0625
     0.0625   0.0625   0.0625   0.0625   0.0625   0.0625   0.0625   0.0625
     0.0625   0.0625   0.0625   0.0625   0.0625   0.0625   0.0625   0.0625
     0.0625   0.0625   0.0625   0.0625   0.0625   0.0624   0.0002   0.0000
     0.0000   0.0000   0.0000   0.0000   0.0000   0.0000

          k = 0.4942-0.2853-0.1027 (  2211 PWs)   bands (ev):

   -19.7362 -19.7290  -6.9675  -6.5520  -6.3296  -5.7282  -5.6359  -5.3624
    -3.3617  -3.1741  -3.0601  -2.6006  -2.5697  -2.3750   5.0971   5.6609
     5.7602   5.9381   6.1855   6.4772   6.5930   6.7705   7.2277   7.2546
     7.7973   7.8709   8.7241   9.2307   9.3173   9.5860   9.7981   9.8830
    10.1772  10.2368  10.3820  10.4683  10.5305  10.6010  12.2190  12.7129
    13.4407  14.2956  16.8867  16.9363  17.5791  17.9281

     occupation numbers 
     0.0625   0.0625   0.0625   0.0625   0.0625   0.0625   0.0625   0.0625
     0.0625   0.0625   0.0625   0.0625   0.0625   0.0625   0.0625   0.0625
     0.0625   0.0625   0.0625   0.0625   0.0625   0.0625   0.0625   0.0625
     0.0625   0.0625   0.0625   0.0625   0.0625   0.0625   0.0625   0.0625
     0.0625   0.0625   0.0625   0.0624   0.0624   0.0623   0.0001   0.0000
     0.0000   0.0000   0.0000   0.0000   0.0000   0.0000

          k = 0.0000-0.5706 0.1027 (  2211 PWs)   bands (ev):

   -19.7350 -19.7283  -6.9820  -6.5474  -6.3317  -5.7134  -5.6245  -5.3773
    -3.3618  -3.1745  -3.0605  -2.6035  -2.5699  -2.3789   5.1106   5.6526
     5.7722   5.9312   6.1874   6.4824   6.5953   6.7643   7.2282   7.2679
     7.8091   7.8466   8.7215   9.2485   9.3221   9.5666   9.8016   9.8730
    10.1838  10.2438  10.3843  10.4641  10.5215  10.5970  12.2161  12.7170
    13.4386  14.2963  16.8875  16.9359  17.5783  17.9286

     occupation numbers 
     0.0625   0.0625   0.0625   0.0625   0.0625   0.0625   0.0625   0.0625
     0.0625   0.0625   0.0625   0.0625   0.0625   0.0625   0.0625   0.0625
     0.0625   0.0625   0.0625   0.0625   0.0625   0.0625   0.0625   0.0625
     0.0625   0.0625   0.0625   0.0625   0.0625   0.0625   0.0625   0.0625
     0.0625   0.0625   0.0625   0.0624   0.0624   0.0623   0.0001   0.0000
     0.0000   0.0000   0.0000   0.0000   0.0000   0.0000

          k = 0.7412 0.4280 0.3080 (  2210 PWs)   bands (ev):

   -19.7347 -19.7311  -6.9187  -6.4599  -6.3106  -5.7968  -5.7714  -5.5132
    -3.0914  -3.0730  -2.9755  -2.7407  -2.6309  -2.4299   5.1493   5.7306
     5.8384   5.9562   6.1838   6.4319   6.5834   6.8348   7.2830   7.3101
     7.7716   7.8323   8.6835   9.1809   9.3701   9.4625   9.6444   9.9910
    10.1308  10.2084  10.2712  10.4418  10.5506  10.6110  12.1769  12.6717
    13.3879  14.2664  17.0619  17.0723  17.5460  17.9033

     occupation numbers 
     0.0625   0.0625   0.0625   0.0625   0.0625   0.0625   0.0625   0.0625
     0.0625   0.0625   0.0625   0.0625   0.0625   0.0625   0.0625   0.0625
     0.0625   0.0625   0.0625   0.0625   0.0625   0.0625   0.0625   0.0625
     0.0625   0.0625   0.0625   0.0625   0.0625   0.0625   0.0625   0.0625
     0.0625   0.0625   0.0625   0.0625   0.0624   0.0622   0.0002   0.0000
     0.0000   0.0000   0.0000   0.0000   0.0000   0.0000

          k = 0.0000 0.8559-0.3080 (  2210 PWs)   bands (ev):

   -19.7347 -19.7311  -6.9187  -6.4599  -6.3107  -5.7967  -5.7714  -5.5132
    -3.0914  -3.0730  -2.9755  -2.7406  -2.6309  -2.4299   5.1494   5.7305
     5.8389   5.9557   6.1838   6.4321   6.5830   6.8349   7.2840   7.3090
     7.7718   7.8323   8.6835   9.1809   9.3699   9.4627   9.6445   9.9915
    10.1310  10.2083  10.2701  10.4422  10.5510  10.6108  12.1769  12.6717
    13.3879  14.2664  17.0619  17.0723  17.5460  17.9033

     occupation numbers 
     0.0625   0.0625   0.0625   0.0625   0.0625   0.0625   0.0625   0.0625
     0.0625   0.0625   0.0625   0.0625   0.0625   0.0625   0.0625   0.0625
     0.0625   0.0625   0.0625   0.0625   0.0625   0.0625   0.0625   0.0625
     0.0625   0.0625   0.0625   0.0625   0.0625   0.0625   0.0625   0.0625
     0.0625   0.0625   0.0625   0.0625   0.0624   0.0622   0.0002   0.0000
     0.0000   0.0000   0.0000   0.0000   0.0000   0.0000

          k = 0.2471 0.7133-0.2053 (  2206 PWs)   bands (ev):

   -19.7367 -19.7363  -6.8905  -6.8723  -6.0602  -6.0275  -5.4510  -5.4299
    -3.1668  -3.1664  -2.8322  -2.8270  -2.3810  -2.3778   5.3577   5.3719
     5.7245   5.7415   6.3088   6.3150   6.6156   6.6259   7.2431   7.2497
     8.0459   8.0736   8.7620   8.7851   9.3923   9.4086   9.8439   9.8557
    10.1390  10.1482  10.2789  10.2969  10.6202  10.6431  12.2174  12.2257
    13.9619  13.9738  17.4253  17.4283  17.8716  17.8727

     occupation numbers 
     0.0625   0.0625   0.0625   0.0625   0.0625   0.0625   0.0625   0.0625
     0.0625   0.0625   0.0625   0.0625   0.0625   0.0625   0.0625   0.0625
     0.0625   0.0625   0.0625   0.0625   0.0625   0.0625   0.0625   0.0625
     0.0625   0.0625   0.0625   0.0625   0.0625   0.0625   0.0625   0.0625
     0.0625   0.0625   0.0625   0.0625   0.0622   0.0621   0.0001   0.0001
     0.0000   0.0000   0.0000   0.0000   0.0000   0.0000

          k =-0.7412-0.1427-0.2053 (  2206 PWs)   bands (ev):

   -19.7356 -19.7354  -6.9077  -6.8732  -6.0305  -6.0288  -5.4622  -5.4303
    -3.1687  -3.1667  -2.8282  -2.8270  -2.3910  -2.3773   5.3676   5.3740
     5.7223   5.7306   6.3174   6.3230   6.6141   6.6432   7.2446   7.2669
     8.0461   8.0482   8.7595   8.7629   9.3925   9.3932   9.8558   9.8744
    10.1440  10.1558  10.2835  10.2909  10.6186  10.6233  12.2198  12.2275
    13.9602  13.9732  17.4254  17.4262  17.8727  17.8753

     occupation numbers 
     0.0625   0.0625   0.0625   0.0625   0.0625   0.0625   0.0625   0.0625
     0.0625   0.0625   0.0625   0.0625   0.0625   0.0625   0.0625   0.0625
     0.0625   0.0625   0.0625   0.0625   0.0625   0.0625   0.0625   0.0625
     0.0625   0.0625   0.0625   0.0625   0.0625   0.0625   0.0625   0.0625
     0.0625   0.0625   0.0625   0.0625   0.0622   0.0622   0.0001   0.0001
     0.0000   0.0000   0.0000   0.0000   0.0000   0.0000

     the Fermi energy is    11.3746 ev

!    total energy              =    -537.71431447 Ry
     Harris-Foulkes estimate   =    -537.71430358 Ry
     estimated scf accuracy    <          8.6E-09 Ry

     The total energy is the sum of the following terms:

     one-electron contribution =     -32.87907680 Ry
     hartree contribution      =      83.65534114 Ry
     xc contribution           =    -199.62146450 Ry
     ewald contribution        =    -389.44315552 Ry
     Hubbard energy            =       0.57731490 Ry
     smearing contrib. (-TS)   =      -0.00327368 Ry

     convergence has been achieved in  14 iterations

     init_run     :      6.62s CPU      6.70s WALL (       1 calls)
     electrons    :    384.93s CPU    386.78s WALL (       1 calls)

     Called by init_run:
     wfcinit      :      0.00s CPU      0.00s WALL (       1 calls)
     potinit      :      0.26s CPU      0.27s WALL (       1 calls)

     Called by electrons:
     c_bands      :    297.67s CPU    298.52s WALL (      14 calls)
     sum_band     :     63.27s CPU     63.68s WALL (      14 calls)
     v_of_rho     :      3.46s CPU      3.47s WALL (      15 calls)
     v_h          :      0.17s CPU      0.17s WALL (      15 calls)
     v_xc         :      3.28s CPU      3.29s WALL (      15 calls)
     newd         :     21.27s CPU     21.28s WALL (      15 calls)
     mix_rho      :      0.33s CPU      0.33s WALL (      14 calls)

     Called by c_bands:
     init_us_2    :      3.34s CPU      3.32s WALL (    1008 calls)
     cegterg      :    288.11s CPU    288.50s WALL (     504 calls)

     Called by sum_band:
     sum_band:bec :      0.37s CPU      0.37s WALL (     504 calls)
     addusdens    :     14.77s CPU     14.78s WALL (      14 calls)

     Called by *egterg:
     h_psi        :    213.41s CPU    213.74s WALL (    1913 calls)
     s_psi        :     12.59s CPU     12.60s WALL (    1913 calls)
     g_psi        :      1.17s CPU      1.19s WALL (    1409 calls)
     cdiaghg      :     21.50s CPU     21.50s WALL (    1877 calls)
     cegterg:over :     14.56s CPU     14.60s WALL (    1409 calls)
     cegterg:upda :      9.21s CPU      9.21s WALL (    1409 calls)
     cegterg:last :      6.81s CPU      6.81s WALL (     575 calls)

     Called by h_psi:
     h_psi:vloc   :    172.17s CPU    172.48s WALL (    1913 calls)
     h_psi:vnl    :     26.17s CPU     26.18s WALL (    1913 calls)
     add_vuspsi   :     12.67s CPU     12.66s WALL (    1913 calls)
     vhpsi        :     14.56s CPU     14.57s WALL (    1913 calls)

     General routines
     calbec       :     28.02s CPU     28.04s WALL (    4834 calls)
     fft          :      2.09s CPU      2.11s WALL (     235 calls)
     ffts         :      0.07s CPU      0.07s WALL (      29 calls)
     fftw         :    174.57s CPU    175.12s WALL (  142074 calls)
     interpolate  :      0.37s CPU      0.37s WALL (      29 calls)
     davcio       :      0.01s CPU      0.79s WALL (    1044 calls)

     Parallel routines
     fft_scatter  :     34.55s CPU     35.47s WALL (  142338 calls)
     Hubbard U routines
     new_ns       :      2.70s CPU      3.03s WALL (      14 calls)
     vhpsi        :     14.56s CPU     14.57s WALL (    1913 calls)

     PWSCF        :  6m31.96s CPU     6m33.93s WALL


   This run was terminated on:   6:18:12  13Nov2012            

=------------------------------------------------------------------------------=
