   JOB DONE.
=------------------------------------------------------------------------------=

     Program PWSCF v.5.0.1 starts on 13Nov2012 at  5:57:26 

     This program is part of the open-source Quantum ESPRESSO suite
     for quantum simulation of materials; please cite
         "P. Giannozzi et al., J. Phys.:Condens. Matter 21 395502 (2009);
          URL http://www.quantum-espresso.org", 
     in publications or presentations arising from this work. More details at
     http://www.quantum-espresso.org/quote.php

     Parallel version (MPI), running on     2 processors
     R & G space division:  proc/pool =    2

     Current dimensions of program PWSCF are:
     Max number of different atomic species (ntypx) = 10
     Max number of k-points (npk) =  40000
     Max angular momentum in pseudopotentials (lmaxx) =  3
     Reading input from CoLaO_U700_a5.in
               file Co.pbe-nd-rrkjus.UPF: wavefunction(s)  4S 3D renormalized
               file O.pbe-rrkjus.UPF: wavefunction(s)  2S renormalized
               file O.pbe-rrkjus.UPF: wavefunction(s)  2S renormalized

     Subspace diagonalization in iterative solution of the eigenvalue problem:
     a serial algorithm will be used


     Parallelization info
     --------------------
     sticks:   dense  smooth     PW     G-vecs:    dense   smooth      PW
     Min        1112     444    131                34808     8786    1448
     Max        1113     445    132                34809     8787    1449
     Sum        2225     889    263                69617    17573    2897


     Title: 
     GGA + U, U = 7.000, alpha = 0.050                                          


     bravais-lattice index     =            5
     lattice parameter (alat)  =      10.3292  a.u.
     unit-cell volume          =     793.0599 (a.u.)^3
     number of atoms/cell      =           10
     number of atomic types    =            4
     number of electrons       =        76.00
     number of Kohn-Sham states=           46
     kinetic-energy cutoff     =      30.0000  Ry
     charge density cutoff     =     300.0000  Ry
     convergence threshold     =      1.0E-08
     mixing beta               =       0.2000
     number of iterations used =            8  plain     mixing
     Exchange-correlation      =  SLA  PW   PBE  PBE ( 1 4 3 4 0)
     EXX-fraction              =        0.00

     celldm(1)=  10.329242  celldm(2)=   0.000000  celldm(3)=   0.000000
     celldm(4)=   0.488100  celldm(5)=   0.000000  celldm(6)=   0.000000

     crystal axes: (cart. coord. in units of alat)
               a(1) = (   0.505915  -0.292090   0.811624 )  
               a(2) = (   0.000000   0.584180   0.811624 )  
               a(3) = (  -0.505915  -0.292090   0.811624 )  

     reciprocal axes: (cart. coord. in units 2 pi/alat)
               b(1) = (  0.988308 -0.570600  0.410699 )  
               b(2) = (  0.000000  1.141200  0.410699 )  
               b(3) = ( -0.988308 -0.570600  0.410699 )  


     PseudoPot. # 1 for Co read from file:
     /home/mcurnan/dft-course/Project1/example_LaCoO3/Co.pbe-nd-rrkjus.UPF
     MD5 check sum: 3e47a84addf5e975e0edeaeee2a73f59
     Pseudo is Ultrasoft + core correction, Zval =  9.0
     Generated by new atomic code, or converted to UPF format
     Using radial grid of  961 points,  6 beta functions with: 
                l(1) =   0
                l(2) =   0
                l(3) =   1
                l(4) =   1
                l(5) =   2
                l(6) =   2
     Q(r) pseudized with 0 coefficients 


     PseudoPot. # 2 for La read from file:
     /home/mcurnan/dft-course/Project1/example_LaCoO3/La.pbe-nsp-van.UPF
     MD5 check sum: b2f11743f52dde65f77d1302becd7929
     Pseudo is Ultrasoft + core correction, Zval = 11.0
     Generated by new atomic code, or converted to UPF format
     Using radial grid of  907 points,  6 beta functions with: 
                l(1) =   0
                l(2) =   0
                l(3) =   1
                l(4) =   1
                l(5) =   2
                l(6) =   2
     Q(r) pseudized with  6 coefficients,  rinner =    1.200   1.200   1.200
                                                       1.200   1.200

     PseudoPot. # 3 for O  read from file:
     /home/mcurnan/dft-course/Project1/example_LaCoO3/O.pbe-rrkjus.UPF
     MD5 check sum: 390ba29e75625707450f3bd3f0eb6be9
     Pseudo is Ultrasoft, Zval =  6.0
     Generated by new atomic code, or converted to UPF format
     Using radial grid of 1269 points,  4 beta functions with: 
                l(1) =   0
                l(2) =   0
                l(3) =   1
                l(4) =   1
     Q(r) pseudized with 0 coefficients 


     PseudoPot. # 4 for O  read from file:
     /home/mcurnan/dft-course/Project1/example_LaCoO3/O.pbe-rrkjus.UPF
     MD5 check sum: 390ba29e75625707450f3bd3f0eb6be9
     Pseudo is Ultrasoft, Zval =  6.0
     Generated by new atomic code, or converted to UPF format
     Using radial grid of 1269 points,  4 beta functions with: 
                l(1) =   0
                l(2) =   0
                l(3) =   1
                l(4) =   1
     Q(r) pseudized with 0 coefficients 


     atomic species   valence    mass     pseudopotential
        Co1            9.00     1.00000     Co( 1.00)
        La1           11.00     1.00000     La( 1.00)
        O1             6.00     1.00000     O ( 1.00)
        O2             6.00     1.00000     O ( 1.00)
 -----
     simplified LDA+U calculation, Hubbard_lmax = 2
     atomic species  L   Hubbard U  Hubbard alpha
        Co1          2    7.000000    0.000000
        La1          2    0.000000    0.000000
        O1           1    0.000000    0.050000
        O2           1    0.000000    0.000000
 -----

     No symmetry found


                                    s                        frac. trans.

      isym =  1     identity                                     

 cryst.   s( 1) = (     1          0          0      )
                  (     0          1          0      )
                  (     0          0          1      )

 cart.    s( 1) = (  1.0000000  0.0000000  0.0000000 )
                  (  0.0000000  1.0000000  0.0000000 )
                  (  0.0000000  0.0000000  1.0000000 )


     point group C_1 (1)    
     there are  1 classes
     the character table:

       E    
A      1.00

     the symmetry operations in each class:
     E        1

   Cartesian axes

     site n.     atom                  positions (alat units)
         1           Co1 tau(   1) = (   0.2228050  -0.1992639   1.0141240  )
         2           Co1 tau(   2) = (  -0.2831100   0.0928263   1.4199360  )
         3           La1 tau(   3) = (  -0.2831100   0.0928263   0.8112181  )
         4           La1 tau(   4) = (   0.2228050   0.3849164   1.2170300  )
         5           O1  tau(   5) = (   0.0000000   0.0000000   0.0000000  )
         6           O2  tau(   6) = (   0.0008601   0.1861491   1.6232478  )
         7           O2  tau(   7) = (   0.1616398   0.0923297   0.8116239  )
         8           O2  tau(   8) = (  -0.0603051  -0.1064377   1.2166242  )
         9           O2  tau(   9) = (   0.4447499  -0.0004966   1.2166242  )
        10           O2  tau(  10) = (  -0.2219449   0.3854130   1.2166242  )

   Crystallographic axes

     site n.     atom                  positions (cryst. coord.)
         1           Co1 tau(   1) = (  0.7504000  0.1891000  0.3100000  )
         2           Co1 tau(   2) = (  0.2504000  0.6891000  0.8100000  )
         3           La1 tau(   3) = (  0.0004000  0.4391000  0.5600000  )
         4           La1 tau(   4) = (  0.5004000  0.9391000  0.0600000  )
         5           O1  tau(   5) = (  0.0000000  0.0000000  0.0000000  )
         6           O2  tau(   6) = (  0.5613000  0.8791000  0.5596000  )
         7           O2  tau(   7) = (  0.4404000  0.4387000  0.1209000  )
         8           O2  tau(   8) = (  0.5008000  0.3782000  0.6200000  )
         9           O2  tau(   9) = (  0.9395000  0.4991000  0.0604000  )
        10           O2  tau(  10) = (  0.0604000  0.9395000  0.4991000  )

     number of k points=    36  gaussian smearing, width (Ry)=  0.0300
                       cart. coord. in units 2pi/alat
        k(    1) = (   0.0000000   0.0000000   0.0000000), wk =   0.0312500
        k(    2) = (  -0.2470771  -0.1426500   0.1026748), wk =   0.0625000
        k(    3) = (   0.4941541   0.2853000  -0.2053496), wk =   0.0312500
        k(    4) = (  -0.2470771   0.1426500   0.2053496), wk =   0.0625000
        k(    5) = (   0.4941541   0.5706001  -0.1026748), wk =   0.0625000
        k(    6) = (   0.2470771   0.4279500   0.0000000), wk =   0.0625000
        k(    7) = (   0.4941541  -0.2853000  -0.4106993), wk =   0.0312500
        k(    8) = (   0.0000000   0.0000000   0.3080244), wk =   0.0625000
        k(    9) = (   0.7412312   0.4279500   0.0000000), wk =   0.0625000
        k(   10) = (   0.4941541   0.2853000   0.1026748), wk =   0.0625000
        k(   11) = (   0.7412312  -0.4279500  -0.3080244), wk =   0.0625000
        k(   12) = (   0.4941541  -0.5706001  -0.2053496), wk =   0.0625000
        k(   13) = (   0.0000000   0.0000000  -0.6160489), wk =   0.0312500
        k(   14) = (  -0.2470771   0.1426500  -0.1026748), wk =   0.0625000
        k(   15) = (   0.0000000   0.2853000   0.1026748), wk =   0.0625000
        k(   16) = (   0.4941541  -0.2853000   0.2053496), wk =   0.0312500
        k(   17) = (   0.0000000  -0.5706001  -0.2053496), wk =   0.0312500
        k(   18) = (  -0.2470771  -0.1426500  -0.2053496), wk =   0.0625000
        k(   19) = (   0.0000000  -0.2853000   0.2053496), wk =   0.0625000
        k(   20) = (   0.4941541  -0.5706001   0.1026748), wk =   0.0625000
        k(   21) = (  -0.7412312   0.1426500  -0.1026748), wk =   0.0625000
        k(   22) = (   0.2470771  -0.7132501  -0.1026748), wk =   0.0625000
        k(   23) = (  -0.7412312  -0.1426500   0.1026748), wk =   0.0625000
        k(   24) = (   0.2470771   0.7132501   0.1026748), wk =   0.0625000
        k(   25) = (   0.2470771  -0.4279500   0.0000000), wk =   0.0625000
        k(   26) = (  -0.4941541   0.0000000   0.0000000), wk =   0.0625000
        k(   27) = (   0.4941541   0.2853000   0.4106993), wk =   0.0312500
        k(   28) = (   0.0000000   0.5706001  -0.4106993), wk =   0.0312500
        k(   29) = (   0.7412312  -0.4279500   0.0000000), wk =   0.0625000
        k(   30) = (   0.0000000  -0.8559001   0.0000000), wk =   0.0625000
        k(   31) = (   0.4941541  -0.2853000  -0.1026748), wk =   0.0625000
        k(   32) = (   0.0000000  -0.5706001   0.1026748), wk =   0.0625000
        k(   33) = (   0.7412312   0.4279500   0.3080244), wk =   0.0625000
        k(   34) = (   0.0000000   0.8559001  -0.3080244), wk =   0.0625000
        k(   35) = (   0.2470771   0.7132501  -0.2053496), wk =   0.0625000
        k(   36) = (  -0.7412312  -0.1426500  -0.2053496), wk =   0.0625000

                       cryst. coord.
        k(    1) = (   0.0000000   0.0000000   0.0000000), wk =   0.0312500
        k(    2) = (   0.0000000   0.0000000   0.2500000), wk =   0.0625000
        k(    3) = (   0.0000000   0.0000000  -0.5000000), wk =   0.0312500
        k(    4) = (   0.0000000   0.2500000   0.2500000), wk =   0.0625000
        k(    5) = (   0.0000000   0.2500000  -0.5000000), wk =   0.0625000
        k(    6) = (   0.0000000   0.2500000  -0.2500000), wk =   0.0625000
        k(    7) = (   0.0000000  -0.5000000  -0.5000000), wk =   0.0312500
        k(    8) = (   0.2500000   0.2500000   0.2500000), wk =   0.0625000
        k(    9) = (   0.2500000   0.2500000  -0.5000000), wk =   0.0625000
        k(   10) = (   0.2500000   0.2500000  -0.2500000), wk =   0.0625000
        k(   11) = (   0.2500000  -0.5000000  -0.5000000), wk =   0.0625000
        k(   12) = (   0.2500000  -0.5000000  -0.2500000), wk =   0.0625000
        k(   13) = (  -0.5000000  -0.5000000  -0.5000000), wk =   0.0312500
        k(   14) = (  -0.2500000   0.0000000   0.0000000), wk =   0.0625000
        k(   15) = (   0.0000000   0.2500000   0.0000000), wk =   0.0625000
        k(   16) = (   0.5000000   0.0000000   0.0000000), wk =   0.0312500
        k(   17) = (   0.0000000  -0.5000000   0.0000000), wk =   0.0312500
        k(   18) = (  -0.2500000  -0.2500000   0.0000000), wk =   0.0625000
        k(   19) = (   0.2500000   0.0000000   0.2500000), wk =   0.0625000
        k(   20) = (   0.5000000  -0.2500000   0.0000000), wk =   0.0625000
        k(   21) = (  -0.5000000   0.0000000   0.2500000), wk =   0.0625000
        k(   22) = (   0.2500000  -0.5000000   0.0000000), wk =   0.0625000
        k(   23) = (  -0.2500000   0.0000000   0.5000000), wk =   0.0625000
        k(   24) = (   0.0000000   0.5000000  -0.2500000), wk =   0.0625000
        k(   25) = (   0.2500000  -0.2500000   0.0000000), wk =   0.0625000
        k(   26) = (  -0.2500000   0.0000000   0.2500000), wk =   0.0625000
        k(   27) = (   0.5000000   0.5000000   0.0000000), wk =   0.0312500
        k(   28) = (  -0.5000000   0.0000000  -0.5000000), wk =   0.0312500
        k(   29) = (   0.5000000  -0.2500000  -0.2500000), wk =   0.0625000
        k(   30) = (   0.2500000  -0.5000000   0.2500000), wk =   0.0625000
        k(   31) = (   0.2500000  -0.2500000  -0.2500000), wk =   0.0625000
        k(   32) = (   0.2500000  -0.2500000   0.2500000), wk =   0.0625000
        k(   33) = (   0.5000000   0.5000000  -0.2500000), wk =   0.0625000
        k(   34) = (  -0.5000000   0.2500000  -0.5000000), wk =   0.0625000
        k(   35) = (  -0.2500000   0.2500000  -0.5000000), wk =   0.0625000
        k(   36) = (  -0.5000000  -0.2500000   0.2500000), wk =   0.0625000

     Dense  grid:    69617 G-vectors     FFT dimensions: (  60,  60,  60)

     Smooth grid:    17573 G-vectors     FFT dimensions: (  40,  40,  40)

     Largest allocated arrays     est. size (Mb)     dimensions
        Kohn-Sham Wavefunctions         0.79 Mb     (   1119,   46)
        Atomic wavefunctions            1.06 Mb     (   1119,   62)
        NL pseudopotentials             2.05 Mb     (   1119,  120)
        Each V/rho on FFT grid          1.65 Mb     ( 108000)
        Each G-vector array             0.27 Mb     (  34808)
        G-vector shells                 0.04 Mb     (   4682)
     Largest temporary arrays     est. size (Mb)     dimensions
        Auxiliary wavefunctions         3.14 Mb     (   1119,  184)
        Each subspace H/S matrix        0.52 Mb     ( 184, 184)
        Each <psi_i|beta_j> matrix      0.08 Mb     (    120,   46)
        Arrays for rho mixing          13.18 Mb     ( 108000,   8)

     Check: negative/imaginary core charge=   -0.000028    0.000000

     The initial density is read from file :
     /home/mcurnan/dft-course/Project1/example_LaCoO3/700/O/alpha/CoLaO_U700.save/charge-density.dat

 --- in v_hubbard ---
Hubbard energy    0.6898
 -------
     Number of +U iterations with fixed ns =  0
     Starting occupations:
 --- enter write_ns ---
 LDA+U parameters:
U( 1)     =  7.00000000
alpha( 1) =  0.00000000
U( 2)     =  0.00000000
alpha( 2) =  0.00000000
U( 3)     =  0.00000000
alpha( 3) =  0.05000000
U( 4)     =  0.00000000
alpha( 4) =  0.00000000
atom    1   Tr[ns(na)] =   8.02205
    eigenvalues: 
  0.596  0.596  0.938  0.941  0.941
    eigenvectors:
  0.000  0.000  1.000  0.000  0.000
  0.057  0.598  0.000  0.178  0.167
  0.598  0.057  0.000  0.167  0.178
  0.210  0.135  0.000  0.095  0.560
  0.135  0.210  0.000  0.560  0.095
    occupations:
  0.938  0.000  0.000  0.000  0.000
  0.000  0.715  0.000 -0.060  0.152
  0.000  0.000  0.715  0.152  0.060
  0.000 -0.060  0.152  0.822  0.000
  0.000  0.152  0.060  0.000  0.822
atom    2   Tr[ns(na)] =   8.02142
    eigenvalues: 
  0.595  0.595  0.938  0.941  0.941
    eigenvectors:
  0.000  0.000  1.000  0.000  0.000
  0.332  0.323  0.000  0.023  0.322
  0.323  0.332  0.000  0.322  0.023
  0.288  0.057  0.000  0.647  0.008
  0.057  0.288  0.000  0.008  0.647
    occupations:
  0.938  0.000  0.000  0.000  0.000
  0.000  0.715  0.000  0.060  0.153
  0.000  0.000  0.715  0.153 -0.060
  0.000  0.060  0.153  0.822  0.000
  0.000  0.153 -0.060  0.000  0.822
atom    3   Tr[ns(na)] =   3.80282
    eigenvalues: 
  0.355  0.355  0.384  0.403  0.403
    eigenvectors:
  0.000  0.000  1.000  0.000  0.000
  0.065  0.856  0.000  0.058  0.021
  0.856  0.065  0.000  0.021  0.058
  0.073  0.006  0.000  0.250  0.670
  0.006  0.073  0.000  0.670  0.250
    occupations:
  0.384  0.000  0.000  0.000  0.000
  0.000  0.359  0.000  0.000  0.013
  0.000  0.000  0.359  0.013  0.000
  0.000  0.000  0.013  0.399  0.000
  0.000  0.013  0.000  0.000  0.399
atom    4   Tr[ns(na)] =   3.80282
    eigenvalues: 
  0.355  0.355  0.384  0.403  0.403
    eigenvectors:
  0.000  0.000  1.000  0.000  0.000
  0.729  0.192  0.000  0.048  0.032
  0.192  0.729  0.000  0.032  0.048
  0.017  0.062  0.000  0.359  0.562
  0.062  0.017  0.000  0.562  0.359
    occupations:
  0.384  0.000  0.000  0.000  0.000
  0.000  0.359  0.000  0.000  0.013
  0.000  0.000  0.359  0.013  0.000
  0.000  0.000  0.013  0.399  0.000
  0.000  0.013  0.000  0.000  0.399
atom    5   Tr[ns(na)] =   5.43357
    eigenvalues: 
  0.846  0.929  0.941
    eigenvectors:
  0.340  0.000  0.660
  0.496  0.250  0.255
  0.164  0.750  0.086
    occupations:
  0.909 -0.039  0.022
 -0.039  0.891  0.022
  0.022  0.022  0.917
atom    6   Tr[ns(na)] =   5.43358
    eigenvalues: 
  0.846  0.929  0.941
    eigenvectors:
  0.340  0.000  0.660
  0.494  0.250  0.256
  0.166  0.750  0.085
    occupations:
  0.909  0.039  0.022
  0.039  0.891 -0.022
  0.022 -0.022  0.917
atom    7   Tr[ns(na)] =   5.43358
    eigenvalues: 
  0.846  0.929  0.941
    eigenvectors:
  0.340  0.000  0.660
  0.000  1.000  0.000
  0.660  0.000  0.340
    occupations:
  0.909  0.000 -0.045
  0.000  0.929  0.000
 -0.045  0.000  0.879
atom    8   Tr[ns(na)] =   5.43357
    eigenvalues: 
  0.846  0.929  0.941
    eigenvectors:
  0.340  0.000  0.660
  0.496  0.250  0.255
  0.164  0.750  0.086
    occupations:
  0.909 -0.039  0.022
 -0.039  0.891  0.022
  0.022  0.022  0.917
atom    9   Tr[ns(na)] =   5.43358
    eigenvalues: 
  0.846  0.929  0.941
    eigenvectors:
  0.340  0.000  0.660
  0.494  0.250  0.256
  0.166  0.750  0.085
    occupations:
  0.909  0.039  0.022
  0.039  0.891 -0.022
  0.022 -0.022  0.917
atom   10   Tr[ns(na)] =   5.43358
    eigenvalues: 
  0.846  0.929  0.941
    eigenvectors:
  0.340  0.000  0.660
  0.000  1.000  0.000
  0.660  0.000  0.340
    occupations:
  0.909  0.000 -0.045
  0.000  0.929  0.000
 -0.045  0.000  0.879
N of occupied +U levels =  56.2505796
 --- exit write_ns ---
 LDA+U Projector read from file 
     Starting wfc from file

     total cpu time spent up to now is        7.2 secs

     per-process dynamical memory:    62.8 Mb

     Self-consistent Calculation

     iteration #  1     ecut=    30.00 Ry     beta=0.20
     Davidson diagonalization with overlap
     c_bands:  1 eigenvalues not converged
     c_bands:  1 eigenvalues not converged
     c_bands:  1 eigenvalues not converged
     c_bands:  1 eigenvalues not converged
     c_bands:  1 eigenvalues not converged
     c_bands:  1 eigenvalues not converged
     c_bands:  1 eigenvalues not converged
     c_bands:  1 eigenvalues not converged
     c_bands:  1 eigenvalues not converged
     c_bands:  1 eigenvalues not converged
     c_bands:  1 eigenvalues not converged
     c_bands:  1 eigenvalues not converged
     c_bands:  1 eigenvalues not converged
     c_bands:  1 eigenvalues not converged
     c_bands:  1 eigenvalues not converged
     c_bands:  1 eigenvalues not converged
     ethr =  1.00E-10,  avg # of iterations = 17.2
 --- enter write_ns ---
 LDA+U parameters:
U( 1)     =  7.00000000
alpha( 1) =  0.00000000
U( 2)     =  0.00000000
alpha( 2) =  0.00000000
U( 3)     =  0.00000000
alpha( 3) =  0.05000000
U( 4)     =  0.00000000
alpha( 4) =  0.00000000
atom    1   Tr[ns(na)] =   8.29041
    eigenvalues: 
  0.579  0.580  0.995  0.995  0.998
    eigenvectors:
  0.000  0.000  0.000  0.000  1.000
  0.097  0.557  0.200  0.146  0.000
  0.557  0.097  0.146  0.200  0.000
  0.178  0.168  0.070  0.585  0.000
  0.168  0.178  0.585  0.069  0.000
    occupations:
  0.998  0.000  0.000  0.000  0.000
  0.000  0.723  0.000 -0.072  0.184
  0.000  0.000  0.723  0.184  0.073
  0.000 -0.072  0.184  0.851  0.000
  0.000  0.184  0.073  0.000  0.851
atom    2   Tr[ns(na)] =   8.28062
    eigenvalues: 
  0.576  0.577  0.995  0.995  0.998
    eigenvectors:
  0.000  0.000  0.000  0.000  1.000
  0.240  0.415  0.011  0.335  0.000
  0.414  0.240  0.335  0.011  0.000
  0.319  0.026  0.630  0.024  0.000
  0.026  0.319  0.024  0.630  0.000
    occupations:
  0.998  0.000  0.000  0.000  0.000
  0.000  0.721  0.000  0.072  0.185
  0.000  0.000  0.721  0.186 -0.072
  0.000  0.072  0.186  0.850  0.000
  0.000  0.185 -0.072  0.000  0.850
atom    3   Tr[ns(na)] =   3.78998
    eigenvalues: 
  0.356  0.356  0.381  0.401  0.401
    eigenvectors:
  0.000  0.000  1.000  0.000  0.000
  0.687  0.229  0.000  0.020  0.064
  0.229  0.687  0.000  0.064  0.020
  0.022  0.062  0.000  0.691  0.225
  0.062  0.022  0.000  0.225  0.691
    occupations:
  0.381  0.000  0.000  0.000  0.000
  0.000  0.360  0.000  0.000  0.012
  0.000  0.000  0.360  0.012  0.000
  0.000  0.000  0.012  0.397  0.000
  0.000  0.012  0.000  0.000  0.397
atom    4   Tr[ns(na)] =   3.78997
    eigenvalues: 
  0.356  0.356  0.381  0.401  0.401
    eigenvectors:
  0.000  0.000  1.000  0.000  0.000
  0.231  0.683  0.000  0.021  0.065
  0.684  0.231  0.000  0.064  0.021
  0.063  0.023  0.000  0.683  0.232
  0.022  0.064  0.000  0.232  0.682
    occupations:
  0.381  0.000  0.000  0.000  0.000
  0.000  0.360  0.000  0.000  0.013
  0.000  0.000  0.360  0.013  0.000
  0.000  0.000  0.013  0.397  0.000
  0.000  0.013  0.000  0.000  0.397
atom    5   Tr[ns(na)] =   5.35656
    eigenvalues: 
  0.816  0.919  0.943
    eigenvectors:
  0.342  0.000  0.658
  0.494  0.250  0.256
  0.164  0.750  0.086
    occupations:
  0.899 -0.052  0.030
 -0.052  0.874  0.026
  0.030  0.026  0.904
atom    6   Tr[ns(na)] =   5.36677
    eigenvalues: 
  0.818  0.921  0.944
    eigenvectors:
  0.342  0.000  0.658
  0.493  0.250  0.256
  0.165  0.750  0.085
    occupations:
  0.901  0.052  0.030
  0.052  0.876 -0.026
  0.030 -0.026  0.906
atom    7   Tr[ns(na)] =   5.36677
    eigenvalues: 
  0.818  0.921  0.944
    eigenvectors:
  0.342  0.000  0.658
  0.000  1.000  0.000
  0.658  0.000  0.342
    occupations:
  0.901  0.000 -0.060
  0.000  0.921  0.000
 -0.060  0.000  0.861
atom    8   Tr[ns(na)] =   5.36677
    eigenvalues: 
  0.818  0.921  0.944
    eigenvectors:
  0.342  0.000  0.658
  0.494  0.250  0.256
  0.164  0.750  0.086
    occupations:
  0.901 -0.051  0.030
 -0.051  0.876  0.026
  0.030  0.026  0.906
atom    9   Tr[ns(na)] =   5.36671
    eigenvalues: 
  0.818  0.921  0.944
    eigenvectors:
  0.342  0.000  0.658
  0.493  0.250  0.257
  0.165  0.750  0.085
    occupations:
  0.901  0.052  0.030
  0.052  0.876 -0.026
  0.030 -0.026  0.906
atom   10   Tr[ns(na)] =   5.36671
    eigenvalues: 
  0.818  0.921  0.944
    eigenvectors:
  0.342  0.000  0.658
  0.000  1.000  0.000
  0.658  0.000  0.342
    occupations:
  0.901  0.000 -0.060
  0.000  0.921  0.000
 -0.060  0.000  0.861
N of occupied +U levels =  56.3412700
 --- exit write_ns ---
 --- in v_hubbard ---
Hubbard energy    0.6604
 -------

     total cpu time spent up to now is      103.6 secs

     total energy              =    -537.72286532 Ry
     Harris-Foulkes estimate   =    -537.74423032 Ry
     estimated scf accuracy    <       0.08871349 Ry

     iteration #  2     ecut=    30.00 Ry     beta=0.20
     Davidson diagonalization with overlap
     ethr =  1.17E-04,  avg # of iterations =  1.7
 --- enter write_ns ---
 LDA+U parameters:
U( 1)     =  7.00000000
alpha( 1) =  0.00000000
U( 2)     =  0.00000000
alpha( 2) =  0.00000000
U( 3)     =  0.00000000
alpha( 3) =  0.05000000
U( 4)     =  0.00000000
alpha( 4) =  0.00000000
atom    1   Tr[ns(na)] =   8.01985
    eigenvalues: 
  0.510  0.510  0.996  0.996  0.999
    eigenvectors:
  0.000  0.000  0.000  0.000  1.000
  0.097  0.558  0.088  0.256  0.000
  0.558  0.097  0.256  0.088  0.000
  0.174  0.170  0.243  0.412  0.000
  0.170  0.174  0.412  0.243  0.000
    occupations:
  0.999  0.000  0.000  0.000  0.000
  0.000  0.677  0.000 -0.086  0.214
  0.000  0.000  0.677  0.214  0.087
  0.000 -0.086  0.214  0.828  0.000
  0.000  0.214  0.087  0.000  0.828
atom    2   Tr[ns(na)] =   8.01918
    eigenvalues: 
  0.509  0.509  0.996  0.996  0.999
    eigenvectors:
  0.000  0.000  0.000  0.000  1.000
  0.241  0.414  0.081  0.264  0.000
  0.414  0.241  0.264  0.081  0.000
  0.320  0.025  0.645  0.010  0.000
  0.025  0.320  0.010  0.645  0.000
    occupations:
  0.999  0.000  0.000  0.000  0.000
  0.000  0.677  0.000  0.086  0.215
  0.000  0.000  0.677  0.215 -0.086
  0.000  0.086  0.215  0.828  0.000
  0.000  0.215 -0.086  0.000  0.828
atom    3   Tr[ns(na)] =   3.78405
    eigenvalues: 
  0.355  0.355  0.380  0.401  0.401
    eigenvectors:
  0.000  0.000  1.000  0.000  0.000
  0.681  0.239  0.000  0.078  0.002
  0.239  0.681  0.000  0.002  0.078
  0.021  0.058  0.000  0.021  0.899
  0.058  0.021  0.000  0.899  0.021
    occupations:
  0.380  0.000  0.000  0.000  0.000
  0.000  0.359  0.000  0.000  0.013
  0.000  0.000  0.359  0.013  0.000
  0.000  0.000  0.013  0.397  0.000
  0.000  0.013  0.000  0.000  0.397
atom    4   Tr[ns(na)] =   3.78408
    eigenvalues: 
  0.355  0.355  0.380  0.401  0.401
    eigenvectors:
  0.000  0.000  1.000  0.000  0.000
  0.185  0.735  0.000  0.026  0.054
  0.735  0.185  0.000  0.054  0.026
  0.063  0.017  0.000  0.612  0.309
  0.017  0.064  0.000  0.309  0.611
    occupations:
  0.380  0.000  0.000  0.000  0.000
  0.000  0.359  0.000  0.000  0.013
  0.000  0.000  0.359  0.013  0.000
  0.000  0.000  0.013  0.397  0.000
  0.000  0.013  0.000  0.000  0.397
atom    5   Tr[ns(na)] =   5.44874
    eigenvalues: 
  0.842  0.932  0.950
    eigenvectors:
  0.335  0.000  0.665
  0.498  0.252  0.251
  0.167  0.748  0.084
    occupations:
  0.914 -0.044  0.026
 -0.044  0.892  0.023
  0.026  0.023  0.919
atom    6   Tr[ns(na)] =   5.45108
    eigenvalues: 
  0.843  0.933  0.950
    eigenvectors:
  0.335  0.000  0.665
  0.500  0.249  0.252
  0.165  0.751  0.083
    occupations:
  0.914  0.044  0.025
  0.044  0.892 -0.023
  0.025 -0.023  0.919
atom    7   Tr[ns(na)] =   5.45109
    eigenvalues: 
  0.843  0.933  0.950
    eigenvectors:
  0.335  0.000  0.665
  0.000  1.000  0.000
  0.665  0.000  0.335
    occupations:
  0.914  0.000 -0.051
  0.000  0.933  0.000
 -0.051  0.000  0.879
atom    8   Tr[ns(na)] =   5.45064
    eigenvalues: 
  0.843  0.933  0.950
    eigenvectors:
  0.335  0.000  0.665
  0.498  0.252  0.251
  0.167  0.748  0.084
    occupations:
  0.914 -0.044  0.025
 -0.044  0.892  0.023
  0.025  0.023  0.919
atom    9   Tr[ns(na)] =   5.45117
    eigenvalues: 
  0.843  0.933  0.950
    eigenvectors:
  0.335  0.000  0.665
  0.500  0.248  0.252
  0.165  0.752  0.083
    occupations:
  0.914  0.044  0.025
  0.044  0.892 -0.023
  0.025 -0.023  0.919
atom   10   Tr[ns(na)] =   5.45117
    eigenvalues: 
  0.843  0.933  0.950
    eigenvectors:
  0.335  0.000  0.665
  0.000  1.000  0.000
  0.665  0.000  0.335
    occupations:
  0.914  0.000 -0.051
  0.000  0.933  0.000
 -0.051  0.000  0.879
N of occupied +U levels =  56.3110434
 --- exit write_ns ---
 --- in v_hubbard ---
Hubbard energy    0.6485
 -------

     total cpu time spent up to now is      131.4 secs

     total energy              =    -537.74205725 Ry
     Harris-Foulkes estimate   =    -537.74213672 Ry
     estimated scf accuracy    <       0.05211635 Ry

     iteration #  3     ecut=    30.00 Ry     beta=0.20
     Davidson diagonalization with overlap
     ethr =  6.86E-05,  avg # of iterations =  1.0
 --- enter write_ns ---
 LDA+U parameters:
U( 1)     =  7.00000000
alpha( 1) =  0.00000000
U( 2)     =  0.00000000
alpha( 2) =  0.00000000
U( 3)     =  0.00000000
alpha( 3) =  0.05000000
U( 4)     =  0.00000000
alpha( 4) =  0.00000000
atom    1   Tr[ns(na)] =   8.07202
    eigenvalues: 
  0.522  0.523  0.996  0.996  0.999
    eigenvectors:
  0.000  0.000  0.000  0.000  1.000
  0.097  0.558  0.101  0.243  0.000
  0.558  0.098  0.243  0.101  0.000
  0.174  0.170  0.218  0.437  0.000
  0.170  0.174  0.437  0.218  0.000
    occupations:
  0.999  0.000  0.000  0.000  0.000
  0.000  0.686  0.000 -0.084  0.209
  0.000  0.000  0.685  0.209  0.084
  0.000 -0.084  0.209  0.833  0.000
  0.000  0.209  0.084  0.000  0.833
atom    2   Tr[ns(na)] =   8.06954
    eigenvalues: 
  0.521  0.522  0.996  0.996  0.999
    eigenvectors:
  0.000  0.000  0.000  0.000  1.000
  0.241  0.415  0.068  0.276  0.000
  0.415  0.241  0.276  0.068  0.000
  0.320  0.025  0.651  0.004  0.000
  0.025  0.320  0.004  0.651  0.000
    occupations:
  0.999  0.000  0.000  0.000  0.000
  0.000  0.685  0.000  0.084  0.209
  0.000  0.000  0.685  0.210 -0.084
  0.000  0.084  0.210  0.833  0.000
  0.000  0.209 -0.084  0.000  0.833
atom    3   Tr[ns(na)] =   3.78539
    eigenvalues: 
  0.355  0.355  0.380  0.401  0.401
    eigenvectors:
  0.000  0.000  1.000  0.000  0.000
  0.687  0.233  0.000  0.020  0.060
  0.233  0.687  0.000  0.060  0.020
  0.021  0.059  0.000  0.684  0.236
  0.059  0.021  0.000  0.236  0.684
    occupations:
  0.380  0.000  0.000  0.000  0.000
  0.000  0.359  0.000  0.000  0.012
  0.000  0.000  0.359  0.012  0.000
  0.000  0.000  0.012  0.397  0.000
  0.000  0.012  0.000  0.000  0.397
atom    4   Tr[ns(na)] =   3.78540
    eigenvalues: 
  0.355  0.355  0.380  0.401  0.401
    eigenvectors:
  0.000  0.000  1.000  0.000  0.000
  0.229  0.691  0.000  0.021  0.059
  0.692  0.229  0.000  0.059  0.021
  0.059  0.021  0.000  0.674  0.247
  0.020  0.060  0.000  0.247  0.673
    occupations:
  0.380  0.000  0.000  0.000  0.000
  0.000  0.359  0.000  0.000  0.012
  0.000  0.000  0.359  0.012  0.000
  0.000  0.000  0.012  0.397  0.000
  0.000  0.012  0.000  0.000  0.397
atom    5   Tr[ns(na)] =   5.43188
    eigenvalues: 
  0.837  0.930  0.949
    eigenvectors:
  0.336  0.000  0.664
  0.497  0.251  0.252
  0.167  0.749  0.085
    occupations:
  0.911 -0.046  0.027
 -0.046  0.889  0.024
  0.027  0.024  0.916
atom    6   Tr[ns(na)] =   5.43473
    eigenvalues: 
  0.838  0.931  0.949
    eigenvectors:
  0.336  0.000  0.664
  0.498  0.249  0.253
  0.165  0.751  0.084
    occupations:
  0.912  0.046  0.026
  0.046  0.889 -0.024
  0.026 -0.024  0.917
atom    7   Tr[ns(na)] =   5.43473
    eigenvalues: 
  0.838  0.931  0.949
    eigenvectors:
  0.336  0.000  0.664
  0.000  1.000  0.000
  0.664  0.000  0.336
    occupations:
  0.912  0.000 -0.053
  0.000  0.931  0.000
 -0.053  0.000  0.875
atom    8   Tr[ns(na)] =   5.43435
    eigenvalues: 
  0.838  0.931  0.949
    eigenvectors:
  0.336  0.000  0.664
  0.497  0.251  0.252
  0.167  0.749  0.085
    occupations:
  0.912 -0.046  0.026
 -0.046  0.889  0.024
  0.026  0.024  0.917
atom    9   Tr[ns(na)] =   5.43478
    eigenvalues: 
  0.838  0.931  0.949
    eigenvectors:
  0.336  0.000  0.664
  0.499  0.249  0.253
  0.165  0.751  0.084
    occupations:
  0.912  0.046  0.026
  0.046  0.889 -0.024
  0.026 -0.024  0.917
atom   10   Tr[ns(na)] =   5.43478
    eigenvalues: 
  0.838  0.931  0.949
    eigenvectors:
  0.336  0.000  0.664
  0.000  1.000  0.000
  0.664  0.000  0.336
    occupations:
  0.912  0.000 -0.053
  0.000  0.931  0.000
 -0.053  0.000  0.875
N of occupied +U levels =  56.3176120
 --- exit write_ns ---
 --- in v_hubbard ---
Hubbard energy    0.5356
 -------

     total cpu time spent up to now is      155.7 secs

     total energy              =    -537.75147510 Ry
     Harris-Foulkes estimate   =    -537.74317432 Ry
     estimated scf accuracy    <       0.02253633 Ry

     iteration #  4     ecut=    30.00 Ry     beta=0.20
     Davidson diagonalization with overlap
     ethr =  2.97E-05,  avg # of iterations =  2.0
 --- enter write_ns ---
 LDA+U parameters:
U( 1)     =  7.00000000
alpha( 1) =  0.00000000
U( 2)     =  0.00000000
alpha( 2) =  0.00000000
U( 3)     =  0.00000000
alpha( 3) =  0.05000000
U( 4)     =  0.00000000
alpha( 4) =  0.00000000
atom    1   Tr[ns(na)] =   8.09369
    eigenvalues: 
  0.525  0.526  0.998  0.998  1.000
    eigenvectors:
  0.000  0.000  0.000  0.000  1.000
  0.097  0.561  0.123  0.219  0.000
  0.561  0.097  0.219  0.123  0.000
  0.171  0.171  0.173  0.486  0.000
  0.171  0.171  0.486  0.172  0.000
    occupations:
  1.000  0.000  0.000  0.000  0.000
  0.000  0.687  0.000 -0.085  0.207
  0.000  0.000  0.687  0.207  0.085
  0.000 -0.085  0.207  0.836  0.000
  0.000  0.207  0.085  0.000  0.836
atom    2   Tr[ns(na)] =   8.08930
    eigenvalues: 
  0.524  0.525  0.998  0.998  1.000
    eigenvectors:
  0.000  0.000  0.000  0.000  1.000
  0.244  0.415  0.051  0.291  0.000
  0.414  0.244  0.291  0.051  0.000
  0.318  0.024  0.658  0.000  0.000
  0.024  0.318  0.000  0.658  0.000
    occupations:
  1.000  0.000  0.000  0.000  0.000
  0.000  0.686  0.000  0.085  0.208
  0.000  0.000  0.686  0.208 -0.085
  0.000  0.085  0.208  0.836  0.000
  0.000  0.208 -0.085  0.000  0.836
atom    3   Tr[ns(na)] =   3.80024
    eigenvalues: 
  0.357  0.357  0.381  0.402  0.402
    eigenvectors:
  0.000  0.000  1.000  0.000  0.000
  0.697  0.227  0.000  0.013  0.063
  0.227  0.696  0.000  0.064  0.013
  0.019  0.057  0.000  0.759  0.165
  0.057  0.019  0.000  0.164  0.759
    occupations:
  0.381  0.000  0.000  0.000  0.000
  0.000  0.361  0.000  0.000  0.012
  0.000  0.000  0.361  0.012  0.000
  0.000  0.000  0.012  0.399  0.000
  0.000  0.012  0.000  0.000  0.399
atom    4   Tr[ns(na)] =   3.80024
    eigenvalues: 
  0.357  0.357  0.381  0.402  0.402
    eigenvectors:
  0.000  0.000  1.000  0.000  0.000
  0.251  0.672  0.000  0.014  0.063
  0.672  0.250  0.000  0.063  0.015
  0.055  0.022  0.000  0.744  0.179
  0.022  0.056  0.000  0.179  0.743
    occupations:
  0.381  0.000  0.000  0.000  0.000
  0.000  0.361  0.000  0.000  0.012
  0.000  0.000  0.361  0.012  0.000
  0.000  0.000  0.012  0.399  0.000
  0.000  0.012  0.000  0.000  0.399
atom    5   Tr[ns(na)] =   5.41646
    eigenvalues: 
  0.833  0.928  0.947
    eigenvectors:
  0.338  0.000  0.662
  0.496  0.251  0.253
  0.166  0.749  0.085
    occupations:
  0.909 -0.047  0.027
 -0.047  0.886  0.025
  0.027  0.025  0.914
atom    6   Tr[ns(na)] =   5.42060
    eigenvalues: 
  0.834  0.929  0.947
    eigenvectors:
  0.337  0.000  0.663
  0.497  0.249  0.253
  0.165  0.751  0.084
    occupations:
  0.909  0.046  0.027
  0.046  0.886 -0.024
  0.027 -0.024  0.915
atom    7   Tr[ns(na)] =   5.42060
    eigenvalues: 
  0.834  0.929  0.947
    eigenvectors:
  0.337  0.000  0.663
  0.000  1.000  0.000
  0.663  0.000  0.337
    occupations:
  0.909  0.000 -0.054
  0.000  0.929  0.000
 -0.054  0.000  0.872
atom    8   Tr[ns(na)] =   5.42074
    eigenvalues: 
  0.834  0.929  0.947
    eigenvectors:
  0.337  0.000  0.663
  0.496  0.251  0.252
  0.166  0.749  0.085
    occupations:
  0.909 -0.046  0.027
 -0.046  0.886  0.025
  0.027  0.025  0.915
atom    9   Tr[ns(na)] =   5.42049
    eigenvalues: 
  0.834  0.929  0.947
    eigenvectors:
  0.337  0.000  0.663
  0.498  0.249  0.253
  0.165  0.751  0.084
    occupations:
  0.909  0.046  0.027
  0.046  0.886 -0.024
  0.027 -0.024  0.915
atom   10   Tr[ns(na)] =   5.42048
    eigenvalues: 
  0.834  0.929  0.947
    eigenvectors:
  0.337  0.000  0.663
  0.000  1.000  0.000
  0.663  0.000  0.337
    occupations:
  0.909  0.000 -0.054
  0.000  0.929  0.000
 -0.054  0.000  0.872
N of occupied +U levels =  56.3028306
 --- exit write_ns ---
 --- in v_hubbard ---
Hubbard energy    0.5333
 -------

     total cpu time spent up to now is      182.8 secs

     total energy              =    -537.75351622 Ry
     Harris-Foulkes estimate   =    -537.75393779 Ry
     estimated scf accuracy    <       0.00372250 Ry

     iteration #  5     ecut=    30.00 Ry     beta=0.20
     Davidson diagonalization with overlap
     ethr =  4.90E-06,  avg # of iterations =  1.0
 --- enter write_ns ---
 LDA+U parameters:
U( 1)     =  7.00000000
alpha( 1) =  0.00000000
U( 2)     =  0.00000000
alpha( 2) =  0.00000000
U( 3)     =  0.00000000
alpha( 3) =  0.05000000
U( 4)     =  0.00000000
alpha( 4) =  0.00000000
atom    1   Tr[ns(na)] =   8.06562
    eigenvalues: 
  0.518  0.519  0.998  0.998  1.000
    eigenvectors:
  0.000  0.000  0.000  0.000  1.000
  0.097  0.562  0.116  0.226  0.000
  0.562  0.097  0.226  0.116  0.000
  0.171  0.171  0.184  0.474  0.000
  0.171  0.171  0.474  0.184  0.000
    occupations:
  1.000  0.000  0.000  0.000  0.000
  0.000  0.683  0.000 -0.087  0.210
  0.000  0.000  0.682  0.210  0.087
  0.000 -0.087  0.210  0.834  0.000
  0.000  0.210  0.087  0.000  0.834
atom    2   Tr[ns(na)] =   8.06176
    eigenvalues: 
  0.517  0.518  0.998  0.998  1.000
    eigenvectors:
  0.000  0.000  0.000  0.000  1.000
  0.244  0.414  0.057  0.285  0.000
  0.414  0.244  0.285  0.057  0.000
  0.318  0.024  0.658  0.001  0.000
  0.024  0.318  0.001  0.658  0.000
    occupations:
  1.000  0.000  0.000  0.000  0.000
  0.000  0.682  0.000  0.087  0.211
  0.000  0.000  0.682  0.211 -0.086
  0.000  0.087  0.211  0.834  0.000
  0.000  0.211 -0.086  0.000  0.834
atom    3   Tr[ns(na)] =   3.79905
    eigenvalues: 
  0.357  0.357  0.381  0.402  0.402
    eigenvectors:
  0.000  0.000  1.000  0.000  0.000
  0.694  0.229  0.000  0.016  0.061
  0.229  0.694  0.000  0.061  0.016
  0.020  0.057  0.000  0.723  0.200
  0.057  0.020  0.000  0.200  0.723
    occupations:
  0.381  0.000  0.000  0.000  0.000
  0.000  0.360  0.000  0.000  0.012
  0.000  0.000  0.360  0.012  0.000
  0.000  0.000  0.012  0.399  0.000
  0.000  0.012  0.000  0.000  0.399
atom    4   Tr[ns(na)] =   3.79904
    eigenvalues: 
  0.357  0.357  0.381  0.402  0.402
    eigenvectors:
  0.000  0.000  1.000  0.000  0.000
  0.251  0.671  0.000  0.018  0.060
  0.672  0.251  0.000  0.059  0.018
  0.056  0.022  0.000  0.700  0.223
  0.022  0.056  0.000  0.223  0.699
    occupations:
  0.381  0.000  0.000  0.000  0.000
  0.000  0.361  0.000  0.000  0.012
  0.000  0.000  0.360  0.012  0.000
  0.000  0.000  0.012  0.399  0.000
  0.000  0.012  0.000  0.000  0.399
atom    5   Tr[ns(na)] =   5.42573
    eigenvalues: 
  0.836  0.929  0.948
    eigenvectors:
  0.337  0.000  0.663
  0.497  0.251  0.252
  0.167  0.749  0.085
    occupations:
  0.910 -0.046  0.027
 -0.046  0.887  0.024
  0.027  0.024  0.915
atom    6   Tr[ns(na)] =   5.42924
    eigenvalues: 
  0.837  0.930  0.948
    eigenvectors:
  0.337  0.000  0.663
  0.498  0.249  0.253
  0.165  0.751  0.084
    occupations:
  0.910  0.046  0.026
  0.046  0.888 -0.024
  0.026 -0.024  0.916
atom    7   Tr[ns(na)] =   5.42924
    eigenvalues: 
  0.837  0.930  0.948
    eigenvectors:
  0.337  0.000  0.663
  0.000  1.000  0.000
  0.663  0.000  0.337
    occupations:
  0.910  0.000 -0.053
  0.000  0.930  0.000
 -0.053  0.000  0.874
atom    8   Tr[ns(na)] =   5.42913
    eigenvalues: 
  0.837  0.930  0.948
    eigenvectors:
  0.337  0.000  0.663
  0.497  0.251  0.252
  0.167  0.749  0.085
    occupations:
  0.910 -0.046  0.026
 -0.046  0.888  0.024
  0.026  0.024  0.916
atom    9   Tr[ns(na)] =   5.42922
    eigenvalues: 
  0.837  0.930  0.948
    eigenvectors:
  0.337  0.000  0.663
  0.498  0.249  0.253
  0.165  0.751  0.084
    occupations:
  0.911  0.046  0.026
  0.046  0.888 -0.024
  0.026 -0.024  0.916
atom   10   Tr[ns(na)] =   5.42921
    eigenvalues: 
  0.837  0.930  0.948
    eigenvectors:
  0.337  0.000  0.663
  0.000  1.000  0.000
  0.663  0.000  0.337
    occupations:
  0.911  0.000 -0.053
  0.000  0.930  0.000
 -0.053  0.000  0.874
N of occupied +U levels =  56.2972517
 --- exit write_ns ---
 --- in v_hubbard ---
Hubbard energy    0.5350
 -------

     total cpu time spent up to now is      206.8 secs

     total energy              =    -537.75377955 Ry
     Harris-Foulkes estimate   =    -537.75376724 Ry
     estimated scf accuracy    <       0.00051421 Ry

     iteration #  6     ecut=    30.00 Ry     beta=0.20
     Davidson diagonalization with overlap
     ethr =  6.77E-07,  avg # of iterations =  2.1
 --- enter write_ns ---
 LDA+U parameters:
U( 1)     =  7.00000000
alpha( 1) =  0.00000000
U( 2)     =  0.00000000
alpha( 2) =  0.00000000
U( 3)     =  0.00000000
alpha( 3) =  0.05000000
U( 4)     =  0.00000000
alpha( 4) =  0.00000000
atom    1   Tr[ns(na)] =   8.05363
    eigenvalues: 
  0.515  0.516  0.998  0.998  1.000
    eigenvectors:
  0.000  0.000  0.000  0.000  1.000
  0.096  0.562  0.111  0.231  0.000
  0.562  0.096  0.231  0.111  0.000
  0.170  0.171  0.191  0.467  0.000
  0.171  0.171  0.467  0.191  0.000
    occupations:
  1.000  0.000  0.000  0.000  0.000
  0.000  0.681  0.000 -0.088  0.211
  0.000  0.000  0.680  0.211  0.088
  0.000 -0.088  0.211  0.833  0.000
  0.000  0.211  0.088  0.000  0.833
atom    2   Tr[ns(na)] =   8.05208
    eigenvalues: 
  0.514  0.515  0.998  0.998  1.000
    eigenvectors:
  0.000  0.000  0.000  0.000  1.000
  0.244  0.414  0.061  0.281  0.000
  0.414  0.244  0.281  0.061  0.000
  0.319  0.023  0.657  0.001  0.000
  0.023  0.319  0.001  0.657  0.000
    occupations:
  1.000  0.000  0.000  0.000  0.000
  0.000  0.680  0.000  0.088  0.212
  0.000  0.000  0.680  0.212 -0.088
  0.000  0.088  0.212  0.833  0.000
  0.000  0.212 -0.088  0.000  0.833
atom    3   Tr[ns(na)] =   3.78930
    eigenvalues: 
  0.356  0.356  0.381  0.401  0.401
    eigenvectors:
  0.000  0.000  1.000  0.000  0.000
  0.689  0.231  0.000  0.053  0.026
  0.231  0.690  0.000  0.026  0.053
  0.020  0.059  0.000  0.298  0.623
  0.059  0.020  0.000  0.623  0.298
    occupations:
  0.381  0.000  0.000  0.000  0.000
  0.000  0.359  0.000  0.000  0.012
  0.000  0.000  0.359  0.012  0.000
  0.000  0.000  0.012  0.398  0.000
  0.000  0.012  0.000  0.000  0.398
atom    4   Tr[ns(na)] =   3.78929
    eigenvalues: 
  0.356  0.356  0.381  0.401  0.401
    eigenvectors:
  0.000  0.000  1.000  0.000  0.000
  0.714  0.207  0.000  0.021  0.059
  0.207  0.714  0.000  0.058  0.021
  0.018  0.061  0.000  0.672  0.249
  0.061  0.018  0.000  0.249  0.671
    occupations:
  0.381  0.000  0.000  0.000  0.000
  0.000  0.359  0.000  0.000  0.012
  0.000  0.000  0.359  0.012  0.000
  0.000  0.000  0.012  0.398  0.000
  0.000  0.012  0.000  0.000  0.398
atom    5   Tr[ns(na)] =   5.43153
    eigenvalues: 
  0.837  0.930  0.949
    eigenvectors:
  0.337  0.000  0.663
  0.496  0.252  0.252
  0.167  0.748  0.085
    occupations:
  0.911 -0.046  0.026
 -0.046  0.889  0.024
  0.026  0.024  0.916
atom    6   Tr[ns(na)] =   5.43446
    eigenvalues: 
  0.838  0.931  0.949
    eigenvectors:
  0.337  0.000  0.663
  0.498  0.249  0.253
  0.165  0.751  0.084
    occupations:
  0.911  0.045  0.026
  0.045  0.889 -0.024
  0.026 -0.024  0.917
atom    7   Tr[ns(na)] =   5.43446
    eigenvalues: 
  0.838  0.931  0.949
    eigenvectors:
  0.337  0.000  0.663
  0.000  1.000  0.000
  0.663  0.000  0.337
    occupations:
  0.911  0.000 -0.052
  0.000  0.931  0.000
 -0.052  0.000  0.875
atom    8   Tr[ns(na)] =   5.43406
    eigenvalues: 
  0.838  0.931  0.949
    eigenvectors:
  0.337  0.000  0.663
  0.496  0.252  0.252
  0.167  0.748  0.085
    occupations:
  0.911 -0.045  0.026
 -0.045  0.889  0.024
  0.026  0.024  0.917
atom    9   Tr[ns(na)] =   5.43451
    eigenvalues: 
  0.838  0.931  0.949
    eigenvectors:
  0.337  0.000  0.663
  0.499  0.249  0.253
  0.165  0.751  0.084
    occupations:
  0.911  0.045  0.026
  0.045  0.889 -0.024
  0.026 -0.024  0.917
atom   10   Tr[ns(na)] =   5.43451
    eigenvalues: 
  0.838  0.931  0.949
    eigenvectors:
  0.337  0.000  0.663
  0.000  1.000  0.000
  0.663  0.000  0.337
    occupations:
  0.911  0.000 -0.052
  0.000  0.931  0.000
 -0.052  0.000  0.875
N of occupied +U levels =  56.2878384
 --- exit write_ns ---
 --- in v_hubbard ---
Hubbard energy    0.5348
 -------

     total cpu time spent up to now is      234.9 secs

     total energy              =    -537.75398651 Ry
     Harris-Foulkes estimate   =    -537.75388000 Ry
     estimated scf accuracy    <       0.00007516 Ry

     iteration #  7     ecut=    30.00 Ry     beta=0.20
     Davidson diagonalization with overlap
     ethr =  9.89E-08,  avg # of iterations =  1.7
 --- enter write_ns ---
 LDA+U parameters:
U( 1)     =  7.00000000
alpha( 1) =  0.00000000
U( 2)     =  0.00000000
alpha( 2) =  0.00000000
U( 3)     =  0.00000000
alpha( 3) =  0.05000000
U( 4)     =  0.00000000
alpha( 4) =  0.00000000
atom    1   Tr[ns(na)] =   8.04951
    eigenvalues: 
  0.514  0.515  0.998  0.998  1.000
    eigenvectors:
  0.000  0.000  0.000  0.000  1.000
  0.096  0.562  0.110  0.232  0.000
  0.562  0.096  0.232  0.110  0.000
  0.170  0.172  0.193  0.465  0.000
  0.172  0.170  0.465  0.193  0.000
    occupations:
  1.000  0.000  0.000  0.000  0.000
  0.000  0.680  0.000 -0.088  0.212
  0.000  0.000  0.679  0.212  0.089
  0.000 -0.088  0.212  0.833  0.000
  0.000  0.212  0.089  0.000  0.833
atom    2   Tr[ns(na)] =   8.04655
    eigenvalues: 
  0.513  0.514  0.998  0.998  1.000
    eigenvectors:
  0.000  0.000  0.000  0.000  1.000
  0.244  0.414  0.062  0.280  0.000
  0.414  0.244  0.280  0.062  0.000
  0.319  0.023  0.657  0.001  0.000
  0.023  0.319  0.001  0.657  0.000
    occupations:
  1.000  0.000  0.000  0.000  0.000
  0.000  0.679  0.000  0.088  0.212
  0.000  0.000  0.679  0.213 -0.088
  0.000  0.088  0.213  0.832  0.000
  0.000  0.212 -0.088  0.000  0.833
atom    3   Tr[ns(na)] =   3.78980
    eigenvalues: 
  0.356  0.356  0.381  0.401  0.401
    eigenvectors:
  0.000  0.000  1.000  0.000  0.000
  0.690  0.231  0.000  0.033  0.046
  0.231  0.690  0.000  0.046  0.033
  0.020  0.058  0.000  0.526  0.395
  0.058  0.020  0.000  0.395  0.526
    occupations:
  0.381  0.000  0.000  0.000  0.000
  0.000  0.359  0.000  0.000  0.012
  0.000  0.000  0.359  0.012  0.000
  0.000  0.000  0.012  0.398  0.000
  0.000  0.012  0.000  0.000  0.398
atom    4   Tr[ns(na)] =   3.78979
    eigenvalues: 
  0.356  0.356  0.381  0.401  0.401
    eigenvectors:
  0.000  0.000  1.000  0.000  0.000
  0.728  0.193  0.000  0.020  0.059
  0.193  0.728  0.000  0.059  0.020
  0.017  0.062  0.000  0.677  0.244
  0.062  0.017  0.000  0.244  0.676
    occupations:
  0.381  0.000  0.000  0.000  0.000
  0.000  0.360  0.000  0.000  0.012
  0.000  0.000  0.359  0.012  0.000
  0.000  0.000  0.012  0.398  0.000
  0.000  0.012  0.000  0.000  0.398
atom    5   Tr[ns(na)] =   5.43287
    eigenvalues: 
  0.837  0.930  0.949
    eigenvectors:
  0.337  0.000  0.663
  0.497  0.251  0.252
  0.167  0.749  0.085
    occupations:
  0.911 -0.045  0.026
 -0.045  0.889  0.024
  0.026  0.024  0.916
atom    6   Tr[ns(na)] =   5.43583
    eigenvalues: 
  0.838  0.931  0.949
    eigenvectors:
  0.337  0.000  0.663
  0.498  0.249  0.253
  0.165  0.751  0.084
    occupations:
  0.912  0.045  0.026
  0.045  0.889 -0.024
  0.026 -0.024  0.917
atom    7   Tr[ns(na)] =   5.43583
    eigenvalues: 
  0.838  0.931  0.949
    eigenvectors:
  0.337  0.000  0.663
  0.000  1.000  0.000
  0.663  0.000  0.337
    occupations:
  0.912  0.000 -0.052
  0.000  0.931  0.000
 -0.052  0.000  0.875
atom    8   Tr[ns(na)] =   5.43546
    eigenvalues: 
  0.838  0.931  0.949
    eigenvectors:
  0.337  0.000  0.663
  0.497  0.251  0.252
  0.167  0.749  0.085
    occupations:
  0.912 -0.045  0.026
 -0.045  0.889  0.024
  0.026  0.024  0.917
atom    9   Tr[ns(na)] =   5.43587
    eigenvalues: 
  0.838  0.931  0.949
    eigenvectors:
  0.337  0.000  0.663
  0.499  0.249  0.253
  0.165  0.751  0.084
    occupations:
  0.912  0.045  0.026
  0.045  0.889 -0.024
  0.026 -0.024  0.917
atom   10   Tr[ns(na)] =   5.43587
    eigenvalues: 
  0.838  0.931  0.949
    eigenvectors:
  0.337  0.000  0.663
  0.000  1.000  0.000
  0.663  0.000  0.337
    occupations:
  0.912  0.000 -0.052
  0.000  0.931  0.000
 -0.052  0.000  0.875
N of occupied +U levels =  56.2873877
 --- exit write_ns ---
 --- in v_hubbard ---
Hubbard energy    0.5359
 -------

     total cpu time spent up to now is      257.7 secs

     total energy              =    -537.75406100 Ry
     Harris-Foulkes estimate   =    -537.75399415 Ry
     estimated scf accuracy    <       0.00008029 Ry

     iteration #  8     ecut=    30.00 Ry     beta=0.20
     Davidson diagonalization with overlap
     ethr =  9.89E-08,  avg # of iterations =  1.6
 --- enter write_ns ---
 LDA+U parameters:
U( 1)     =  7.00000000
alpha( 1) =  0.00000000
U( 2)     =  0.00000000
alpha( 2) =  0.00000000
U( 3)     =  0.00000000
alpha( 3) =  0.05000000
U( 4)     =  0.00000000
alpha( 4) =  0.00000000
atom    1   Tr[ns(na)] =   8.04592
    eigenvalues: 
  0.513  0.514  0.998  0.998  1.000
    eigenvectors:
  0.000  0.000  0.000  0.000  1.000
  0.095  0.563  0.109  0.233  0.000
  0.563  0.096  0.233  0.109  0.000
  0.170  0.172  0.194  0.464  0.000
  0.172  0.170  0.464  0.194  0.000
    occupations:
  1.000  0.000  0.000  0.000  0.000
  0.000  0.679  0.000 -0.089  0.212
  0.000  0.000  0.679  0.212  0.089
  0.000 -0.089  0.212  0.832  0.000
  0.000  0.212  0.089  0.000  0.832
atom    2   Tr[ns(na)] =   8.04451
    eigenvalues: 
  0.512  0.513  0.998  0.998  1.000
    eigenvectors:
  0.000  0.000  0.000  0.000  1.000
  0.245  0.413  0.063  0.279  0.000
  0.413  0.245  0.279  0.063  0.000
  0.319  0.023  0.657  0.002  0.000
  0.023  0.319  0.002  0.657  0.000
    occupations:
  1.000  0.000  0.000  0.000  0.000
  0.000  0.679  0.000  0.089  0.213
  0.000  0.000  0.679  0.213 -0.088
  0.000  0.089  0.213  0.832  0.000
  0.000  0.213 -0.088  0.000  0.832
atom    3   Tr[ns(na)] =   3.79242
    eigenvalues: 
  0.356  0.356  0.381  0.401  0.401
    eigenvectors:
  0.000  0.000  1.000  0.000  0.000
  0.690  0.232  0.000  0.013  0.066
  0.232  0.690  0.000  0.066  0.013
  0.020  0.058  0.000  0.766  0.156
  0.058  0.020  0.000  0.156  0.766
    occupations:
  0.381  0.000  0.000  0.000  0.000
  0.000  0.360  0.000  0.000  0.012
  0.000  0.000  0.360  0.012  0.000
  0.000  0.000  0.012  0.398  0.000
  0.000  0.012  0.000  0.000  0.398
atom    4   Tr[ns(na)] =   3.79240
    eigenvalues: 
  0.356  0.356  0.381  0.401  0.401
    eigenvectors:
  0.000  0.000  1.000  0.000  0.000
  0.274  0.647  0.000  0.019  0.060
  0.647  0.274  0.000  0.059  0.019
  0.054  0.024  0.000  0.691  0.230
  0.024  0.055  0.000  0.230  0.691
    occupations:
  0.381  0.000  0.000  0.000  0.000
  0.000  0.360  0.000  0.000  0.012
  0.000  0.000  0.360  0.012  0.000
  0.000  0.000  0.012  0.398  0.000
  0.000  0.012  0.000  0.000  0.398
atom    5   Tr[ns(na)] =   5.43292
    eigenvalues: 
  0.838  0.930  0.948
    eigenvectors:
  0.337  0.000  0.663
  0.496  0.252  0.252
  0.167  0.748  0.085
    occupations:
  0.911 -0.045  0.026
 -0.045  0.889  0.024
  0.026  0.024  0.916
atom    6   Tr[ns(na)] =   5.43607
    eigenvalues: 
  0.838  0.931  0.949
    eigenvectors:
  0.337  0.000  0.663
  0.498  0.249  0.253
  0.165  0.751  0.084
    occupations:
  0.912  0.045  0.026
  0.045  0.889 -0.024
  0.026 -0.024  0.917
atom    7   Tr[ns(na)] =   5.43607
    eigenvalues: 
  0.838  0.931  0.949
    eigenvectors:
  0.337  0.000  0.663
  0.000  1.000  0.000
  0.663  0.000  0.337
    occupations:
  0.912  0.000 -0.052
  0.000  0.931  0.000
 -0.052  0.000  0.876
atom    8   Tr[ns(na)] =   5.43577
    eigenvalues: 
  0.838  0.931  0.949
    eigenvectors:
  0.337  0.000  0.663
  0.497  0.252  0.252
  0.167  0.748  0.085
    occupations:
  0.912 -0.045  0.026
 -0.045  0.889  0.024
  0.026  0.024  0.917
atom    9   Tr[ns(na)] =   5.43609
    eigenvalues: 
  0.838  0.931  0.949
    eigenvectors:
  0.337  0.000  0.663
  0.499  0.249  0.253
  0.165  0.751  0.084
    occupations:
  0.912  0.045  0.026
  0.045  0.889 -0.024
  0.026 -0.024  0.917
atom   10   Tr[ns(na)] =   5.43609
    eigenvalues: 
  0.838  0.931  0.949
    eigenvectors:
  0.337  0.000  0.663
  0.000  1.000  0.000
  0.663  0.000  0.337
    occupations:
  0.912  0.000 -0.052
  0.000  0.931  0.000
 -0.052  0.000  0.876
N of occupied +U levels =  56.2882657
 --- exit write_ns ---
 --- in v_hubbard ---
Hubbard energy    0.5373
 -------

     total cpu time spent up to now is      281.3 secs

     total energy              =    -537.75410749 Ry
     Harris-Foulkes estimate   =    -537.75406878 Ry
     estimated scf accuracy    <       0.00007305 Ry

     iteration #  9     ecut=    30.00 Ry     beta=0.20
     Davidson diagonalization with overlap
     ethr =  9.61E-08,  avg # of iterations =  1.3
 --- enter write_ns ---
 LDA+U parameters:
U( 1)     =  7.00000000
alpha( 1) =  0.00000000
U( 2)     =  0.00000000
alpha( 2) =  0.00000000
U( 3)     =  0.00000000
alpha( 3) =  0.05000000
U( 4)     =  0.00000000
alpha( 4) =  0.00000000
atom    1   Tr[ns(na)] =   8.05161
    eigenvalues: 
  0.514  0.515  0.998  0.998  1.000
    eigenvectors:
  0.000  0.000  0.000  0.000  1.000
  0.095  0.563  0.109  0.233  0.000
  0.563  0.095  0.233  0.108  0.000
  0.170  0.172  0.194  0.464  0.000
  0.172  0.170  0.464  0.194  0.000
    occupations:
  1.000  0.000  0.000  0.000  0.000
  0.000  0.680  0.000 -0.089  0.211
  0.000  0.000  0.680  0.211  0.089
  0.000 -0.089  0.211  0.833  0.000
  0.000  0.211  0.089  0.000  0.833
atom    2   Tr[ns(na)] =   8.04843
    eigenvalues: 
  0.513  0.514  0.998  0.998  1.000
    eigenvectors:
  0.000  0.000  0.000  0.000  1.000
  0.245  0.413  0.063  0.278  0.000
  0.413  0.245  0.279  0.063  0.000
  0.319  0.023  0.656  0.002  0.000
  0.023  0.319  0.002  0.657  0.000
    occupations:
  1.000  0.000  0.000  0.000  0.000
  0.000  0.679  0.000  0.089  0.212
  0.000  0.000  0.679  0.212 -0.089
  0.000  0.089  0.212  0.832  0.000
  0.000  0.212 -0.089  0.000  0.833
atom    3   Tr[ns(na)] =   3.79320
    eigenvalues: 
  0.356  0.356  0.381  0.402  0.402
    eigenvectors:
  0.000  0.000  1.000  0.000  0.000
  0.690  0.232  0.000  0.014  0.065
  0.232  0.690  0.000  0.065  0.014
  0.020  0.058  0.000  0.756  0.166
  0.058  0.020  0.000  0.166  0.756
    occupations:
  0.381  0.000  0.000  0.000  0.000
  0.000  0.360  0.000  0.000  0.012
  0.000  0.000  0.360  0.012  0.000
  0.000  0.000  0.012  0.398  0.000
  0.000  0.012  0.000  0.000  0.398
atom    4   Tr[ns(na)] =   3.79319
    eigenvalues: 
  0.356  0.356  0.381  0.402  0.402
    eigenvectors:
  0.000  0.000  1.000  0.000  0.000
  0.244  0.677  0.000  0.019  0.060
  0.677  0.244  0.000  0.060  0.019
  0.057  0.022  0.000  0.695  0.226
  0.021  0.058  0.000  0.226  0.695
    occupations:
  0.381  0.000  0.000  0.000  0.000
  0.000  0.360  0.000  0.000  0.012
  0.000  0.000  0.360  0.012  0.000
  0.000  0.000  0.012  0.398  0.000
  0.000  0.012  0.000  0.000  0.398
atom    5   Tr[ns(na)] =   5.43114
    eigenvalues: 
  0.837  0.930  0.948
    eigenvectors:
  0.337  0.000  0.663
  0.497  0.251  0.252
  0.167  0.749  0.085
    occupations:
  0.911 -0.046  0.026
 -0.046  0.889  0.024
  0.026  0.024  0.916
atom    6   Tr[ns(na)] =   5.43433
    eigenvalues: 
  0.838  0.931  0.949
    eigenvectors:
  0.337  0.000  0.663
  0.498  0.249  0.253
  0.165  0.751  0.084
    occupations:
  0.911  0.045  0.026
  0.045  0.889 -0.024
  0.026 -0.024  0.917
atom    7   Tr[ns(na)] =   5.43433
    eigenvalues: 
  0.838  0.931  0.949
    eigenvectors:
  0.337  0.000  0.663
  0.000  1.000  0.000
  0.663  0.000  0.337
    occupations:
  0.911  0.000 -0.052
  0.000  0.931  0.000
 -0.052  0.000  0.875
atom    8   Tr[ns(na)] =   5.43404
    eigenvalues: 
  0.838  0.931  0.949
    eigenvectors:
  0.337  0.000  0.663
  0.497  0.251  0.252
  0.167  0.749  0.085
    occupations:
  0.911 -0.045  0.026
 -0.045  0.889  0.024
  0.026  0.024  0.917
atom    9   Tr[ns(na)] =   5.43435
    eigenvalues: 
  0.838  0.931  0.949
    eigenvectors:
  0.337  0.000  0.663
  0.498  0.249  0.253
  0.165  0.751  0.084
    occupations:
  0.911  0.045  0.026
  0.045  0.889 -0.024
  0.026 -0.024  0.917
atom   10   Tr[ns(na)] =   5.43435
    eigenvalues: 
  0.838  0.931  0.949
    eigenvectors:
  0.337  0.000  0.663
  0.000  1.000  0.000
  0.663  0.000  0.337
    occupations:
  0.911  0.000 -0.052
  0.000  0.931  0.000
 -0.052  0.000  0.875
N of occupied +U levels =  56.2889917
 --- exit write_ns ---
 --- in v_hubbard ---
Hubbard energy    0.5373
 -------

     total cpu time spent up to now is      305.8 secs

     total energy              =    -537.75414674 Ry
     Harris-Foulkes estimate   =    -537.75411665 Ry
     estimated scf accuracy    <       0.00000677 Ry

     iteration # 10     ecut=    30.00 Ry     beta=0.20
     Davidson diagonalization with overlap
     ethr =  8.91E-09,  avg # of iterations =  2.0
 --- enter write_ns ---
 LDA+U parameters:
U( 1)     =  7.00000000
alpha( 1) =  0.00000000
U( 2)     =  0.00000000
alpha( 2) =  0.00000000
U( 3)     =  0.00000000
alpha( 3) =  0.05000000
U( 4)     =  0.00000000
alpha( 4) =  0.00000000
atom    1   Tr[ns(na)] =   8.04968
    eigenvalues: 
  0.514  0.515  0.998  0.998  1.000
    eigenvectors:
  0.000  0.000  0.000  0.000  1.000
  0.095  0.563  0.106  0.236  0.000
  0.563  0.095  0.236  0.106  0.000
  0.169  0.173  0.197  0.461  0.000
  0.173  0.169  0.461  0.197  0.000
    occupations:
  1.000  0.000  0.000  0.000  0.000
  0.000  0.680  0.000 -0.089  0.211
  0.000  0.000  0.679  0.211  0.090
  0.000 -0.089  0.211  0.833  0.000
  0.000  0.211  0.090  0.000  0.833
atom    2   Tr[ns(na)] =   8.04605
    eigenvalues: 
  0.513  0.513  0.998  0.998  1.000
    eigenvectors:
  0.000  0.000  0.000  0.000  1.000
  0.245  0.413  0.065  0.276  0.000
  0.413  0.245  0.276  0.065  0.000
  0.319  0.022  0.656  0.002  0.000
  0.022  0.319  0.002  0.656  0.000
    occupations:
  1.000  0.000  0.000  0.000  0.000
  0.000  0.679  0.000  0.089  0.212
  0.000  0.000  0.679  0.212 -0.089
  0.000  0.089  0.212  0.832  0.000
  0.000  0.212 -0.089  0.000  0.833
atom    3   Tr[ns(na)] =   3.79303
    eigenvalues: 
  0.356  0.356  0.381  0.402  0.402
    eigenvectors:
  0.000  0.000  1.000  0.000  0.000
  0.690  0.232  0.000  0.016  0.062
  0.232  0.690  0.000  0.062  0.016
  0.020  0.058  0.000  0.723  0.199
  0.058  0.020  0.000  0.199  0.723
    occupations:
  0.381  0.000  0.000  0.000  0.000
  0.000  0.360  0.000  0.000  0.012
  0.000  0.000  0.360  0.012  0.000
  0.000  0.000  0.012  0.398  0.000
  0.000  0.012  0.000  0.000  0.398
atom    4   Tr[ns(na)] =   3.79302
    eigenvalues: 
  0.356  0.356  0.381  0.402  0.402
    eigenvectors:
  0.000  0.000  1.000  0.000  0.000
  0.248  0.673  0.000  0.019  0.060
  0.673  0.248  0.000  0.059  0.019
  0.057  0.022  0.000  0.688  0.234
  0.022  0.057  0.000  0.234  0.687
    occupations:
  0.381  0.000  0.000  0.000  0.000
  0.000  0.360  0.000  0.000  0.012
  0.000  0.000  0.360  0.012  0.000
  0.000  0.000  0.012  0.398  0.000
  0.000  0.012  0.000  0.000  0.398
atom    5   Tr[ns(na)] =   5.43182
    eigenvalues: 
  0.837  0.930  0.948
    eigenvectors:
  0.337  0.000  0.663
  0.497  0.251  0.252
  0.167  0.749  0.085
    occupations:
  0.911 -0.045  0.026
 -0.045  0.889  0.024
  0.026  0.024  0.916
atom    6   Tr[ns(na)] =   5.43499
    eigenvalues: 
  0.838  0.931  0.949
    eigenvectors:
  0.337  0.000  0.663
  0.498  0.249  0.253
  0.165  0.751  0.084
    occupations:
  0.911  0.045  0.026
  0.045  0.889 -0.024
  0.026 -0.024  0.917
atom    7   Tr[ns(na)] =   5.43499
    eigenvalues: 
  0.838  0.931  0.949
    eigenvectors:
  0.337  0.000  0.663
  0.000  1.000  0.000
  0.663  0.000  0.337
    occupations:
  0.911  0.000 -0.052
  0.000  0.931  0.000
 -0.052  0.000  0.875
atom    8   Tr[ns(na)] =   5.43471
    eigenvalues: 
  0.838  0.931  0.949
    eigenvectors:
  0.337  0.000  0.663
  0.497  0.251  0.252
  0.167  0.749  0.085
    occupations:
  0.911 -0.045  0.026
 -0.045  0.889  0.024
  0.026  0.024  0.917
atom    9   Tr[ns(na)] =   5.43500
    eigenvalues: 
  0.838  0.931  0.949
    eigenvectors:
  0.337  0.000  0.663
  0.498  0.249  0.253
  0.165  0.751  0.084
    occupations:
  0.911  0.045  0.026
  0.045  0.889 -0.024
  0.026 -0.024  0.917
atom   10   Tr[ns(na)] =   5.43500
    eigenvalues: 
  0.838  0.931  0.949
    eigenvectors:
  0.337  0.000  0.663
  0.000  1.000  0.000
  0.663  0.000  0.337
    occupations:
  0.911  0.000 -0.052
  0.000  0.931  0.000
 -0.052  0.000  0.875
N of occupied +U levels =  56.2882862
 --- exit write_ns ---
 --- in v_hubbard ---
Hubbard energy    0.5379
 -------

     total cpu time spent up to now is      332.1 secs

     total energy              =    -537.75417159 Ry
     Harris-Foulkes estimate   =    -537.75414914 Ry
     estimated scf accuracy    <       0.00000404 Ry

     iteration # 11     ecut=    30.00 Ry     beta=0.20
     Davidson diagonalization with overlap
     ethr =  5.32E-09,  avg # of iterations =  1.4
 --- enter write_ns ---
 LDA+U parameters:
U( 1)     =  7.00000000
alpha( 1) =  0.00000000
U( 2)     =  0.00000000
alpha( 2) =  0.00000000
U( 3)     =  0.00000000
alpha( 3) =  0.05000000
U( 4)     =  0.00000000
alpha( 4) =  0.00000000
atom    1   Tr[ns(na)] =   8.05077
    eigenvalues: 
  0.514  0.515  0.998  0.998  1.000
    eigenvectors:
  0.000  0.000  0.000  0.000  1.000
  0.095  0.563  0.106  0.236  0.000
  0.563  0.095  0.236  0.105  0.000
  0.169  0.173  0.197  0.461  0.000
  0.173  0.169  0.461  0.197  0.000
    occupations:
  1.000  0.000  0.000  0.000  0.000
  0.000  0.680  0.000 -0.090  0.211
  0.000  0.000  0.680  0.211  0.090
  0.000 -0.090  0.211  0.833  0.000
  0.000  0.211  0.090  0.000  0.833
atom    2   Tr[ns(na)] =   8.04758
    eigenvalues: 
  0.513  0.514  0.998  0.998  1.000
    eigenvectors:
  0.000  0.000  0.000  0.000  1.000
  0.246  0.413  0.066  0.276  0.000
  0.413  0.246  0.276  0.066  0.000
  0.320  0.022  0.656  0.002  0.000
  0.022  0.320  0.002  0.656  0.000
    occupations:
  1.000  0.000  0.000  0.000  0.000
  0.000  0.679  0.000  0.090  0.212
  0.000  0.000  0.679  0.212 -0.089
  0.000  0.090  0.212  0.832  0.000
  0.000  0.212 -0.089  0.000  0.833
atom    3   Tr[ns(na)] =   3.79302
    eigenvalues: 
  0.356  0.356  0.381  0.402  0.402
    eigenvectors:
  0.000  0.000  1.000  0.000  0.000
  0.690  0.231  0.000  0.016  0.062
  0.231  0.690  0.000  0.062  0.016
  0.020  0.058  0.000  0.725  0.197
  0.058  0.020  0.000  0.197  0.725
    occupations:
  0.381  0.000  0.000  0.000  0.000
  0.000  0.360  0.000  0.000  0.012
  0.000  0.000  0.360  0.012  0.000
  0.000  0.000  0.012  0.398  0.000
  0.000  0.012  0.000  0.000  0.398
atom    4   Tr[ns(na)] =   3.79300
    eigenvalues: 
  0.356  0.356  0.381  0.402  0.402
    eigenvectors:
  0.000  0.000  1.000  0.000  0.000
  0.251  0.670  0.000  0.019  0.060
  0.670  0.251  0.000  0.059  0.019
  0.056  0.022  0.000  0.688  0.234
  0.022  0.057  0.000  0.234  0.687
    occupations:
  0.381  0.000  0.000  0.000  0.000
  0.000  0.360  0.000  0.000  0.012
  0.000  0.000  0.360  0.012  0.000
  0.000  0.000  0.012  0.398  0.000
  0.000  0.012  0.000  0.000  0.398
atom    5   Tr[ns(na)] =   5.43141
    eigenvalues: 
  0.837  0.930  0.948
    eigenvectors:
  0.337  0.000  0.663
  0.497  0.251  0.252
  0.167  0.749  0.085
    occupations:
  0.911 -0.046  0.026
 -0.046  0.889  0.024
  0.026  0.024  0.916
atom    6   Tr[ns(na)] =   5.43458
    eigenvalues: 
  0.838  0.931  0.949
    eigenvectors:
  0.337  0.000  0.663
  0.498  0.249  0.253
  0.165  0.751  0.084
    occupations:
  0.911  0.045  0.026
  0.045  0.889 -0.024
  0.026 -0.024  0.917
atom    7   Tr[ns(na)] =   5.43458
    eigenvalues: 
  0.838  0.931  0.949
    eigenvectors:
  0.337  0.000  0.663
  0.000  1.000  0.000
  0.663  0.000  0.337
    occupations:
  0.911  0.000 -0.052
  0.000  0.931  0.000
 -0.052  0.000  0.875
atom    8   Tr[ns(na)] =   5.43429
    eigenvalues: 
  0.838  0.931  0.949
    eigenvectors:
  0.337  0.000  0.663
  0.497  0.251  0.252
  0.167  0.749  0.085
    occupations:
  0.911 -0.045  0.026
 -0.045  0.889  0.024
  0.026  0.024  0.917
atom    9   Tr[ns(na)] =   5.43460
    eigenvalues: 
  0.838  0.931  0.949
    eigenvectors:
  0.337  0.000  0.663
  0.498  0.249  0.253
  0.165  0.751  0.084
    occupations:
  0.911  0.045  0.026
  0.045  0.889 -0.024
  0.026 -0.024  0.917
atom   10   Tr[ns(na)] =   5.43460
    eigenvalues: 
  0.838  0.931  0.949
    eigenvectors:
  0.337  0.000  0.663
  0.000  1.000  0.000
  0.663  0.000  0.337
    occupations:
  0.911  0.000 -0.052
  0.000  0.931  0.000
 -0.052  0.000  0.875
N of occupied +U levels =  56.2884322
 --- exit write_ns ---
 --- in v_hubbard ---
Hubbard energy    0.5376
 -------

     total cpu time spent up to now is      357.2 secs

     total energy              =    -537.75418703 Ry
     Harris-Foulkes estimate   =    -537.75417292 Ry
     estimated scf accuracy    <       0.00000176 Ry

     iteration # 12     ecut=    30.00 Ry     beta=0.20
     Davidson diagonalization with overlap
     ethr =  2.31E-09,  avg # of iterations =  1.6
 --- enter write_ns ---
 LDA+U parameters:
U( 1)     =  7.00000000
alpha( 1) =  0.00000000
U( 2)     =  0.00000000
alpha( 2) =  0.00000000
U( 3)     =  0.00000000
alpha( 3) =  0.05000000
U( 4)     =  0.00000000
alpha( 4) =  0.00000000
atom    1   Tr[ns(na)] =   8.05047
    eigenvalues: 
  0.514  0.515  0.998  0.998  1.000
    eigenvectors:
  0.000  0.000  0.000  0.000  1.000
  0.095  0.563  0.105  0.237  0.000
  0.564  0.095  0.237  0.105  0.000
  0.169  0.173  0.198  0.460  0.000
  0.173  0.169  0.460  0.198  0.000
    occupations:
  1.000  0.000  0.000  0.000  0.000
  0.000  0.680  0.000 -0.090  0.211
  0.000  0.000  0.680  0.211  0.090
  0.000 -0.090  0.211  0.833  0.000
  0.000  0.211  0.090  0.000  0.833
atom    2   Tr[ns(na)] =   8.04715
    eigenvalues: 
  0.513  0.514  0.998  0.998  1.000
    eigenvectors:
  0.000  0.000  0.000  0.000  1.000
  0.246  0.413  0.066  0.275  0.000
  0.412  0.246  0.275  0.067  0.000
  0.320  0.022  0.656  0.002  0.000
  0.022  0.320  0.002  0.656  0.000
    occupations:
  1.000  0.000  0.000  0.000  0.000
  0.000  0.679  0.000  0.090  0.212
  0.000  0.000  0.679  0.212 -0.090
  0.000  0.090  0.212  0.832  0.000
  0.000  0.212 -0.090  0.000  0.833
atom    3   Tr[ns(na)] =   3.79336
    eigenvalues: 
  0.356  0.356  0.381  0.402  0.402
    eigenvectors:
  0.000  0.000  1.000  0.000  0.000
  0.691  0.231  0.000  0.017  0.062
  0.231  0.691  0.000  0.062  0.017
  0.020  0.058  0.000  0.718  0.204
  0.058  0.020  0.000  0.204  0.718
    occupations:
  0.381  0.000  0.000  0.000  0.000
  0.000  0.360  0.000  0.000  0.012
  0.000  0.000  0.360  0.012  0.000
  0.000  0.000  0.012  0.398  0.000
  0.000  0.012  0.000  0.000  0.398
atom    4   Tr[ns(na)] =   3.79335
    eigenvalues: 
  0.356  0.356  0.381  0.402  0.402
    eigenvectors:
  0.000  0.000  1.000  0.000  0.000
  0.250  0.671  0.000  0.019  0.060
  0.671  0.250  0.000  0.059  0.019
  0.057  0.022  0.000  0.688  0.233
  0.022  0.057  0.000  0.233  0.688
    occupations:
  0.381  0.000  0.000  0.000  0.000
  0.000  0.360  0.000  0.000  0.012
  0.000  0.000  0.360  0.012  0.000
  0.000  0.000  0.012  0.398  0.000
  0.000  0.012  0.000  0.000  0.398
atom    5   Tr[ns(na)] =   5.43144
    eigenvalues: 
  0.837  0.930  0.948
    eigenvectors:
  0.337  0.000  0.663
  0.497  0.251  0.252
  0.167  0.749  0.085
    occupations:
  0.911 -0.045  0.026
 -0.045  0.889  0.024
  0.026  0.024  0.916
atom    6   Tr[ns(na)] =   5.43463
    eigenvalues: 
  0.838  0.931  0.949
    eigenvectors:
  0.337  0.000  0.663
  0.498  0.249  0.253
  0.165  0.751  0.084
    occupations:
  0.911  0.045  0.026
  0.045  0.889 -0.024
  0.026 -0.024  0.917
atom    7   Tr[ns(na)] =   5.43463
    eigenvalues: 
  0.838  0.931  0.949
    eigenvectors:
  0.337  0.000  0.663
  0.000  1.000  0.000
  0.663  0.000  0.337
    occupations:
  0.911  0.000 -0.052
  0.000  0.931  0.000
 -0.052  0.000  0.875
atom    8   Tr[ns(na)] =   5.43432
    eigenvalues: 
  0.838  0.931  0.948
    eigenvectors:
  0.337  0.000  0.663
  0.497  0.251  0.252
  0.167  0.749  0.085
    occupations:
  0.911 -0.045  0.026
 -0.045  0.889  0.024
  0.026  0.024  0.917
atom    9   Tr[ns(na)] =   5.43465
    eigenvalues: 
  0.838  0.931  0.949
    eigenvectors:
  0.337  0.000  0.663
  0.498  0.249  0.253
  0.165  0.751  0.084
    occupations:
  0.911  0.045  0.026
  0.045  0.889 -0.024
  0.026 -0.024  0.917
atom   10   Tr[ns(na)] =   5.43465
    eigenvalues: 
  0.838  0.931  0.949
    eigenvectors:
  0.337  0.000  0.663
  0.000  1.000  0.000
  0.663  0.000  0.337
    occupations:
  0.911  0.000 -0.052
  0.000  0.931  0.000
 -0.052  0.000  0.875
N of occupied +U levels =  56.2886620
 --- exit write_ns ---
 --- in v_hubbard ---
Hubbard energy    0.5375
 -------

     total cpu time spent up to now is      382.8 secs

     total energy              =    -537.75419615 Ry
     Harris-Foulkes estimate   =    -537.75418754 Ry
     estimated scf accuracy    <       0.00000049 Ry

     iteration # 13     ecut=    30.00 Ry     beta=0.20
     Davidson diagonalization with overlap
     ethr =  6.45E-10,  avg # of iterations =  2.0
 --- enter write_ns ---
 LDA+U parameters:
U( 1)     =  7.00000000
alpha( 1) =  0.00000000
U( 2)     =  0.00000000
alpha( 2) =  0.00000000
U( 3)     =  0.00000000
alpha( 3) =  0.05000000
U( 4)     =  0.00000000
alpha( 4) =  0.00000000
atom    1   Tr[ns(na)] =   8.05031
    eigenvalues: 
  0.514  0.515  0.998  0.998  1.000
    eigenvectors:
  0.000  0.000  0.000  0.000  1.000
  0.095  0.564  0.104  0.237  0.000
  0.564  0.095  0.237  0.104  0.000
  0.168  0.173  0.198  0.460  0.000
  0.173  0.168  0.460  0.198  0.000
    occupations:
  1.000  0.000  0.000  0.000  0.000
  0.000  0.680  0.000 -0.090  0.211
  0.000  0.000  0.680  0.211  0.090
  0.000 -0.090  0.211  0.833  0.000
  0.000  0.211  0.090  0.000  0.833
atom    2   Tr[ns(na)] =   8.04707
    eigenvalues: 
  0.513  0.514  0.998  0.998  1.000
    eigenvectors:
  0.000  0.000  0.000  0.000  1.000
  0.246  0.412  0.067  0.275  0.000
  0.412  0.246  0.275  0.067  0.000
  0.320  0.022  0.656  0.002  0.000
  0.022  0.320  0.002  0.656  0.000
    occupations:
  1.000  0.000  0.000  0.000  0.000
  0.000  0.679  0.000  0.090  0.212
  0.000  0.000  0.679  0.212 -0.090
  0.000  0.090  0.212  0.832  0.000
  0.000  0.212 -0.090  0.000  0.833
atom    3   Tr[ns(na)] =   3.79313
    eigenvalues: 
  0.356  0.356  0.381  0.402  0.402
    eigenvectors:
  0.000  0.000  1.000  0.000  0.000
  0.691  0.231  0.000  0.017  0.061
  0.231  0.691  0.000  0.061  0.017
  0.020  0.058  0.000  0.712  0.209
  0.058  0.020  0.000  0.209  0.712
    occupations:
  0.381  0.000  0.000  0.000  0.000
  0.000  0.360  0.000  0.000  0.012
  0.000  0.000  0.360  0.012  0.000
  0.000  0.000  0.012  0.398  0.000
  0.000  0.012  0.000  0.000  0.398
atom    4   Tr[ns(na)] =   3.79311
    eigenvalues: 
  0.356  0.356  0.381  0.402  0.402
    eigenvectors:
  0.000  0.000  1.000  0.000  0.000
  0.252  0.669  0.000  0.019  0.059
  0.670  0.252  0.000  0.059  0.020
  0.056  0.022  0.000  0.686  0.235
  0.022  0.057  0.000  0.235  0.686
    occupations:
  0.381  0.000  0.000  0.000  0.000
  0.000  0.360  0.000  0.000  0.012
  0.000  0.000  0.360  0.012  0.000
  0.000  0.000  0.012  0.398  0.000
  0.000  0.012  0.000  0.000  0.398
atom    5   Tr[ns(na)] =   5.43154
    eigenvalues: 
  0.837  0.930  0.948
    eigenvectors:
  0.337  0.000  0.663
  0.497  0.251  0.252
  0.167  0.749  0.085
    occupations:
  0.911 -0.045  0.026
 -0.045  0.889  0.024
  0.026  0.024  0.916
atom    6   Tr[ns(na)] =   5.43472
    eigenvalues: 
  0.838  0.931  0.949
    eigenvectors:
  0.337  0.000  0.663
  0.498  0.249  0.253
  0.165  0.751  0.084
    occupations:
  0.911  0.045  0.026
  0.045  0.889 -0.024
  0.026 -0.024  0.917
atom    7   Tr[ns(na)] =   5.43472
    eigenvalues: 
  0.838  0.931  0.949
    eigenvectors:
  0.337  0.000  0.663
  0.000  1.000  0.000
  0.663  0.000  0.337
    occupations:
  0.911  0.000 -0.052
  0.000  0.931  0.000
 -0.052  0.000  0.875
atom    8   Tr[ns(na)] =   5.43442
    eigenvalues: 
  0.838  0.931  0.949
    eigenvectors:
  0.337  0.000  0.663
  0.497  0.251  0.252
  0.167  0.749  0.085
    occupations:
  0.911 -0.045  0.026
 -0.045  0.889  0.024
  0.026  0.024  0.917
atom    9   Tr[ns(na)] =   5.43474
    eigenvalues: 
  0.838  0.931  0.949
    eigenvectors:
  0.337  0.000  0.663
  0.498  0.249  0.253
  0.165  0.751  0.084
    occupations:
  0.911  0.045  0.026
  0.045  0.889 -0.024
  0.026 -0.024  0.917
atom   10   Tr[ns(na)] =   5.43474
    eigenvalues: 
  0.838  0.931  0.949
    eigenvectors:
  0.337  0.000  0.663
  0.000  1.000  0.000
  0.663  0.000  0.337
    occupations:
  0.911  0.000 -0.052
  0.000  0.931  0.000
 -0.052  0.000  0.875
N of occupied +U levels =  56.2884946
 --- exit write_ns ---
 --- in v_hubbard ---
Hubbard energy    0.5374
 -------

     total cpu time spent up to now is      412.2 secs

     End of self-consistent calculation

          k = 0.0000 0.0000 0.0000 (  2175 PWs)   bands (ev):

   -19.7923 -19.6189  -6.5527  -5.8988  -5.8910  -5.8288  -5.8219  -5.4866
    -3.9366  -3.3100  -3.3088  -3.2540  -3.0203  -3.0200   5.1632   5.8188
     5.8207   5.8761   6.4948   6.4966   7.2390   7.5125   7.5181   7.7097
     7.7098   7.7139   9.3026   9.6287   9.6334   9.9737   9.9744  10.1473
    10.4613  10.4627  10.6071  10.6091  10.6788  10.8896  11.8194  11.8205
    14.7047  14.7051  15.4321  15.4328  16.2021  16.7877

     occupation numbers 
     0.0313   0.0313   0.0313   0.0313   0.0313   0.0313   0.0313   0.0313
     0.0313   0.0313   0.0313   0.0313   0.0313   0.0313   0.0313   0.0313
     0.0313   0.0313   0.0313   0.0313   0.0313   0.0313   0.0313   0.0313
     0.0313   0.0313   0.0312   0.0312   0.0312   0.0312   0.0312   0.0312
     0.0312   0.0312   0.0311   0.0311   0.0310   0.0297   0.0018   0.0018
     0.0000   0.0000   0.0000   0.0000   0.0000   0.0000

          k =-0.2471-0.1427 0.1027 (  2181 PWs)   bands (ev):

   -19.7688 -19.6673  -6.7304  -6.3113  -5.9811  -5.8660  -5.6189  -5.4894
    -3.6924  -3.4386  -2.9568  -2.9126  -2.8878  -2.7727   5.3399   5.6984
     5.8723   5.9524   6.4104   6.4153   6.7714   7.0157   7.3983   7.5143
     7.5513   7.6999   9.2738   9.4490   9.6974   9.8120   9.8385   9.9429
    10.1707  10.3529  10.3997  10.5628  10.6749  10.7331  12.2604  12.3355
    14.2543  14.2659  15.8192  16.0723  16.9737  17.2680

     occupation numbers 
     0.0625   0.0625   0.0625   0.0625   0.0625   0.0625   0.0625   0.0625
     0.0625   0.0625   0.0625   0.0625   0.0625   0.0625   0.0625   0.0625
     0.0625   0.0625   0.0625   0.0625   0.0625   0.0625   0.0625   0.0625
     0.0625   0.0625   0.0625   0.0625   0.0625   0.0625   0.0625   0.0625
     0.0625   0.0625   0.0625   0.0623   0.0620   0.0616   0.0001   0.0000
     0.0000   0.0000   0.0000   0.0000   0.0000   0.0000

          k = 0.4942 0.2853-0.2053 (  2202 PWs)   bands (ev):

   -19.7311 -19.7305  -6.7308  -6.7161  -5.9825  -5.9740  -5.5320  -5.5257
    -3.4274  -3.4230  -2.8133  -2.8127  -2.5062  -2.5035   5.4262   5.4372
     6.0517   6.0646   6.1996   6.2115   6.7242   6.7341   7.2613   7.2732
     7.3934   7.4070   9.2948   9.3039   9.6711   9.6885   9.9147   9.9292
    10.0430  10.0624  10.3387  10.3509  10.4979  10.5207  13.2411  13.2895
    13.3246  13.3730  16.8336  16.8375  17.1275  17.1303

     occupation numbers 
     0.0313   0.0313   0.0313   0.0313   0.0313   0.0313   0.0313   0.0313
     0.0313   0.0313   0.0313   0.0313   0.0313   0.0313   0.0313   0.0313
     0.0313   0.0313   0.0313   0.0313   0.0313   0.0313   0.0313   0.0313
     0.0313   0.0313   0.0312   0.0312   0.0312   0.0312   0.0312   0.0312
     0.0312   0.0312   0.0312   0.0312   0.0312   0.0312   0.0000   0.0000
     0.0000   0.0000   0.0000   0.0000   0.0000   0.0000

          k =-0.2471 0.1427 0.2053 (  2195 PWs)   bands (ev):

   -19.7596 -19.6852  -6.8525  -6.2598  -6.0835  -5.8486  -5.6640  -5.4794
    -3.4791  -3.2850  -3.1331  -2.9227  -2.8568  -2.5575   5.2661   5.5172
     5.7770   5.9485   6.4025   6.6696   6.9257   7.0246   7.2760   7.4854
     7.6259   7.6678   8.7132   9.2872   9.6586   9.8123   9.9297   9.9400
    10.2387  10.3418  10.5200  10.5468  10.6196  10.6914  11.7616  12.6908
    13.5884  14.7243  15.9970  16.1993  17.0369  17.5384

     occupation numbers 
     0.0625   0.0625   0.0625   0.0625   0.0625   0.0625   0.0625   0.0625
     0.0625   0.0625   0.0625   0.0625   0.0625   0.0625   0.0625   0.0625
     0.0625   0.0625   0.0625   0.0625   0.0625   0.0625   0.0625   0.0625
     0.0625   0.0625   0.0625   0.0625   0.0625   0.0625   0.0625   0.0625
     0.0625   0.0625   0.0624   0.0624   0.0622   0.0619   0.0053   0.0000
     0.0000   0.0000   0.0000   0.0000   0.0000   0.0000

          k = 0.4942 0.5706-0.1027 (  2198 PWs)   bands (ev):

   -19.7366 -19.7330  -6.9541  -6.6521  -6.1321  -5.9031  -5.5243  -5.3937
    -3.3485  -3.2785  -2.8891  -2.7176  -2.5320  -2.3868   5.0779   5.6335
     5.7460   6.0852   6.1813   6.3638   6.4264   6.8814   7.2248   7.3647
     7.6804   7.8388   8.7513   9.0803   9.4249   9.6232   9.6467   9.9679
    10.1600  10.2157  10.2620  10.3668  10.5656  10.7497  12.2549  12.6945
    13.3851  14.3071  16.9062  17.1150  17.3066  18.0162

     occupation numbers 
     0.0625   0.0625   0.0625   0.0625   0.0625   0.0625   0.0625   0.0625
     0.0625   0.0625   0.0625   0.0625   0.0625   0.0625   0.0625   0.0625
     0.0625   0.0625   0.0625   0.0625   0.0625   0.0625   0.0625   0.0625
     0.0625   0.0625   0.0625   0.0625   0.0625   0.0625   0.0625   0.0625
     0.0625   0.0625   0.0625   0.0625   0.0623   0.0615   0.0001   0.0000
     0.0000   0.0000   0.0000   0.0000   0.0000   0.0000

          k = 0.2471 0.4280 0.0000 (  2203 PWs)   bands (ev):

   -19.7501 -19.7106  -6.8511  -6.6468  -6.0668  -5.9822  -5.4450  -5.3805
    -3.5976  -3.3125  -2.8078  -2.7108  -2.5871  -2.5731   5.2536   5.6590
     5.8767   5.9436   6.2025   6.4405   6.5510   6.7123   7.2210   7.3467
     7.3959   8.0397   8.8573   9.2622   9.5997   9.6931   9.7868  10.0113
    10.1099  10.2012  10.2440  10.3560  10.4419  10.8239  12.1574  13.2732
    13.3569  14.1027  16.4337  16.9962  17.4200  17.9269

     occupation numbers 
     0.0625   0.0625   0.0625   0.0625   0.0625   0.0625   0.0625   0.0625
     0.0625   0.0625   0.0625   0.0625   0.0625   0.0625   0.0625   0.0625
     0.0625   0.0625   0.0625   0.0625   0.0625   0.0625   0.0625   0.0625
     0.0625   0.0625   0.0625   0.0625   0.0625   0.0625   0.0625   0.0625
     0.0625   0.0625   0.0625   0.0625   0.0625   0.0606   0.0002   0.0000
     0.0000   0.0000   0.0000   0.0000   0.0000   0.0000

          k = 0.4942-0.2853-0.4107 (  2202 PWs)   bands (ev):

   -19.7512 -19.7264  -7.1643  -6.4513  -6.2347  -5.9850  -5.5391  -5.3022
    -3.2332  -3.1138  -3.0764  -2.6449  -2.4771  -2.2207   4.6598   5.5356
     5.6018   6.0352   6.2510   6.7160   6.7600   6.9200   7.1458   7.2546
     7.6444   8.1713   8.3104   8.6062   9.4278   9.6828   9.9407  10.0367
    10.0660  10.1281  10.2002  10.4800  10.5342  10.8479  11.7222  12.3574
    13.2887  14.7401  17.0469  17.2705  17.5194  17.6150

     occupation numbers 
     0.0313   0.0313   0.0313   0.0313   0.0313   0.0313   0.0313   0.0313
     0.0313   0.0313   0.0313   0.0313   0.0313   0.0313   0.0313   0.0313
     0.0313   0.0313   0.0313   0.0313   0.0313   0.0313   0.0313   0.0313
     0.0313   0.0313   0.0313   0.0313   0.0312   0.0312   0.0312   0.0312
     0.0312   0.0312   0.0312   0.0312   0.0312   0.0301   0.0034   0.0000
     0.0000   0.0000   0.0000   0.0000   0.0000   0.0000

          k = 0.0000 0.0000 0.3080 (  2187 PWs)   bands (ev):

   -19.7684 -19.6701  -6.6184  -6.0001  -5.9690  -5.9626  -5.8530  -5.8464
    -3.2516  -3.1818  -3.1805  -2.9807  -2.9019  -2.9008   5.5309   5.6374
     5.8744   5.8760   6.4435   6.4452   6.7408   7.3783   7.3813   7.5294
     7.5455   7.5513   9.3919   9.3975   9.4444   9.6769  10.0412  10.0468
    10.0702  10.0758  10.4274  10.5946  10.6593  10.6624  12.2311  12.2322
[...]
     0.0625   0.0625   0.0625   0.0625   0.0625   0.0625   0.0625   0.0625
     0.0625   0.0625   0.0625   0.0625   0.0625   0.0625   0.0625   0.0625
     0.0625   0.0625   0.0624   0.0624   0.0622   0.0619   0.0054   0.0000
     0.0000   0.0000   0.0000   0.0000   0.0000   0.0000

          k = 0.4942-0.5706 0.1027 (  2198 PWs)   bands (ev):

   -19.7362 -19.7328  -6.9594  -6.6500  -6.1378  -5.8925  -5.5210  -5.3987
    -3.3497  -3.2786  -2.8885  -2.7180  -2.5330  -2.3878   5.0817   5.6378
     5.7408   6.0839   6.1833   6.3653   6.4296   6.8779   7.2292   7.3663
     7.6804   7.8336   8.7518   9.0805   9.4243   9.6186   9.6487   9.9633
    10.1622  10.2259  10.2543  10.3734  10.5672  10.7409  12.2539  12.6957
    13.3842  14.3070  16.9080  17.1131  17.3075  18.0168

     occupation numbers 
     0.0625   0.0625   0.0625   0.0625   0.0625   0.0625   0.0625   0.0625
     0.0625   0.0625   0.0625   0.0625   0.0625   0.0625   0.0625   0.0625
     0.0625   0.0625   0.0625   0.0625   0.0625   0.0625   0.0625   0.0625
     0.0625   0.0625   0.0625   0.0625   0.0625   0.0625   0.0625   0.0625
     0.0625   0.0625   0.0625   0.0625   0.0623   0.0616   0.0001   0.0000
     0.0000   0.0000   0.0000   0.0000   0.0000   0.0000

          k =-0.7412 0.1427-0.1027 (  2198 PWs)   bands (ev):

   -19.7362 -19.7328  -6.9589  -6.6507  -6.1368  -5.8936  -5.5200  -5.3993
    -3.3489  -3.2787  -2.8884  -2.7191  -2.5324  -2.3881   5.0827   5.6344
     5.7450   6.0864   6.1801   6.3677   6.4253   6.8780   7.2264   7.3708
     7.6827   7.8292   8.7509   9.0814   9.4259   9.6233   9.6464   9.9649
    10.1602  10.2210  10.2600  10.3715  10.5633  10.7432  12.2541  12.6959
    13.3843  14.3073  16.9062  17.1159  17.3069  18.0163

     occupation numbers 
     0.0625   0.0625   0.0625   0.0625   0.0625   0.0625   0.0625   0.0625
     0.0625   0.0625   0.0625   0.0625   0.0625   0.0625   0.0625   0.0625
     0.0625   0.0625   0.0625   0.0625   0.0625   0.0625   0.0625   0.0625
     0.0625   0.0625   0.0625   0.0625   0.0625   0.0625   0.0625   0.0625
     0.0625   0.0625   0.0625   0.0625   0.0623   0.0615   0.0001   0.0000
     0.0000   0.0000   0.0000   0.0000   0.0000   0.0000

          k = 0.2471-0.7133-0.1027 (  2198 PWs)   bands (ev):

   -19.7362 -19.7328  -6.9591  -6.6505  -6.1374  -5.8930  -5.5195  -5.4000
    -3.3489  -3.2787  -2.8885  -2.7185  -2.5325  -2.3882   5.0826   5.6339
     5.7449   6.0866   6.1806   6.3654   6.4270   6.8783   7.2264   7.3692
     7.6847   7.8294   8.7519   9.0802   9.4247   9.6252   9.6456   9.9659
    10.1638  10.2171  10.2598  10.3661  10.5673  10.7440  12.2540  12.6959
    13.3843  14.3073  16.9069  17.1149  17.3069  18.0158

     occupation numbers 
     0.0625   0.0625   0.0625   0.0625   0.0625   0.0625   0.0625   0.0625
     0.0625   0.0625   0.0625   0.0625   0.0625   0.0625   0.0625   0.0625
     0.0625   0.0625   0.0625   0.0625   0.0625   0.0625   0.0625   0.0625
     0.0625   0.0625   0.0625   0.0625   0.0625   0.0625   0.0625   0.0625
     0.0625   0.0625   0.0625   0.0625   0.0623   0.0615   0.0001   0.0000
     0.0000   0.0000   0.0000   0.0000   0.0000   0.0000

          k =-0.7412-0.1427 0.1027 (  2198 PWs)   bands (ev):

   -19.7362 -19.7328  -6.9595  -6.6497  -6.1383  -5.8919  -5.5205  -5.3994
    -3.3497  -3.2786  -2.8886  -2.7175  -2.5331  -2.3879   5.0816   5.6372
     5.7408   6.0841   6.1838   6.3631   6.4315   6.8781   7.2291   7.3649
     7.6822   7.8338   8.7527   9.0794   9.4231   9.6209   9.6474   9.9642
    10.1656  10.2218  10.2547  10.3681  10.5711  10.7418  12.2539  12.6956
    13.3842  14.3070  16.9087  17.1120  17.3074  18.0164

     occupation numbers 
     0.0625   0.0625   0.0625   0.0625   0.0625   0.0625   0.0625   0.0625
     0.0625   0.0625   0.0625   0.0625   0.0625   0.0625   0.0625   0.0625
     0.0625   0.0625   0.0625   0.0625   0.0625   0.0625   0.0625   0.0625
     0.0625   0.0625   0.0625   0.0625   0.0625   0.0625   0.0625   0.0625
     0.0625   0.0625   0.0625   0.0625   0.0623   0.0615   0.0001   0.0000
     0.0000   0.0000   0.0000   0.0000   0.0000   0.0000

          k = 0.2471 0.7133 0.1027 (  2198 PWs)   bands (ev):

   -19.7366 -19.7330  -6.9545  -6.6514  -6.1331  -5.9019  -5.5253  -5.3930
    -3.3492  -3.2785  -2.8892  -2.7166  -2.5326  -2.3865   5.0769   5.6366
     5.7423   6.0829   6.1843   6.3614   6.4307   6.8813   7.2277   7.3604
     7.6780   7.8431   8.7521   9.0795   9.4233   9.6189   9.6486   9.9663
    10.1617  10.2204  10.2568  10.3687  10.5696  10.7474  12.2548  12.6942
    13.3849  14.3068  16.9080  17.1121  17.3072  18.0167

     occupation numbers 
     0.0625   0.0625   0.0625   0.0625   0.0625   0.0625   0.0625   0.0625
     0.0625   0.0625   0.0625   0.0625   0.0625   0.0625   0.0625   0.0625
     0.0625   0.0625   0.0625   0.0625   0.0625   0.0625   0.0625   0.0625
     0.0625   0.0625   0.0625   0.0625   0.0625   0.0625   0.0625   0.0625
     0.0625   0.0625   0.0625   0.0625   0.0623   0.0615   0.0001   0.0000
     0.0000   0.0000   0.0000   0.0000   0.0000   0.0000

          k = 0.2471-0.4280 0.0000 (  2203 PWs)   bands (ev):

   -19.7502 -19.7106  -6.8487  -6.6515  -6.0567  -5.9881  -5.4503  -5.3771
    -3.5984  -3.3125  -2.8089  -2.7085  -2.5863  -2.5742   5.2510   5.6559
     5.8802   5.9412   6.2026   6.4426   6.5546   6.7145   7.2217   7.3492
     7.3988   8.0320   8.8522   9.2544   9.6008   9.6965   9.7912  10.0114
    10.1080  10.2047  10.2475  10.3571  10.4426  10.8177  12.1590  13.2730
    13.3568  14.1020  16.4334  16.9971  17.4210  17.9268

     occupation numbers 
     0.0625   0.0625   0.0625   0.0625   0.0625   0.0625   0.0625   0.0625
     0.0625   0.0625   0.0625   0.0625   0.0625   0.0625   0.0625   0.0625
     0.0625   0.0625   0.0625   0.0625   0.0625   0.0625   0.0625   0.0625
     0.0625   0.0625   0.0625   0.0625   0.0625   0.0625   0.0625   0.0625
     0.0625   0.0625   0.0625   0.0625   0.0625   0.0607   0.0002   0.0000
     0.0000   0.0000   0.0000   0.0000   0.0000   0.0000

          k =-0.4942 0.0000 0.0000 (  2203 PWs)   bands (ev):

   -19.7502 -19.7106  -6.8487  -6.6516  -6.0567  -5.9881  -5.4503  -5.3771
    -3.5984  -3.3125  -2.8089  -2.7085  -2.5863  -2.5743   5.2510   5.6559
     5.8801   5.9412   6.2025   6.4426   6.5546   6.7145   7.2216   7.3500
     7.3980   8.0320   8.8522   9.2544   9.6011   9.6965   9.7911  10.0114
    10.1080  10.2044  10.2474  10.3575  10.4427  10.8177  12.1590  13.2730
    13.3568  14.1020  16.4334  16.9971  17.4210  17.9267

     occupation numbers 
     0.0625   0.0625   0.0625   0.0625   0.0625   0.0625   0.0625   0.0625
     0.0625   0.0625   0.0625   0.0625   0.0625   0.0625   0.0625   0.0625
     0.0625   0.0625   0.0625   0.0625   0.0625   0.0625   0.0625   0.0625
     0.0625   0.0625   0.0625   0.0625   0.0625   0.0625   0.0625   0.0625
     0.0625   0.0625   0.0625   0.0625   0.0625   0.0607   0.0002   0.0000
     0.0000   0.0000   0.0000   0.0000   0.0000   0.0000

          k = 0.4942 0.2853 0.4107 (  2202 PWs)   bands (ev):

   -19.7506 -19.7257  -7.1699  -6.4536  -6.2406  -5.9723  -5.5313  -5.3090
    -3.2336  -3.1142  -3.0766  -2.6470  -2.4783  -2.2223   4.6656   5.5332
     5.6086   6.0378   6.2488   6.7143   6.7576   6.9166   7.1524   7.2620
     7.6453   8.1719   8.2997   8.6147   9.4175   9.6806   9.9430  10.0358
    10.0692  10.1310  10.2006  10.4769  10.5379  10.8408  11.7207  12.3592
    13.2877  14.7404  17.0475  17.2708  17.5206  17.6159

     occupation numbers 
     0.0313   0.0313   0.0313   0.0313   0.0313   0.0313   0.0313   0.0313
     0.0313   0.0313   0.0313   0.0313   0.0313   0.0313   0.0313   0.0313
     0.0313   0.0313   0.0313   0.0313   0.0313   0.0313   0.0313   0.0313
     0.0313   0.0313   0.0313   0.0313   0.0312   0.0312   0.0312   0.0312
     0.0312   0.0312   0.0312   0.0312   0.0312   0.0302   0.0034   0.0000
     0.0000   0.0000   0.0000   0.0000   0.0000   0.0000

          k = 0.0000 0.5706-0.4107 (  2202 PWs)   bands (ev):

   -19.7506 -19.7257  -7.1699  -6.4536  -6.2405  -5.9724  -5.5313  -5.3090
    -3.2336  -3.1142  -3.0766  -2.6470  -2.4783  -2.2223   4.6656   5.5332
     5.6086   6.0377   6.2489   6.7141   6.7579   6.9165   7.1524   7.2620
     7.6453   8.1720   8.2996   8.6148   9.4176   9.6806   9.9429  10.0359
    10.0692  10.1312  10.2005  10.4767  10.5381  10.8408  11.7207  12.3592
    13.2877  14.7404  17.0475  17.2708  17.5206  17.6159

     occupation numbers 
     0.0313   0.0313   0.0313   0.0313   0.0313   0.0313   0.0313   0.0313
     0.0313   0.0313   0.0313   0.0313   0.0313   0.0313   0.0313   0.0313
     0.0313   0.0313   0.0313   0.0313   0.0313   0.0313   0.0313   0.0313
     0.0313   0.0313   0.0313   0.0313   0.0312   0.0312   0.0312   0.0312
     0.0312   0.0312   0.0312   0.0312   0.0312   0.0302   0.0034   0.0000
     0.0000   0.0000   0.0000   0.0000   0.0000   0.0000

          k = 0.7412-0.4280 0.0000 (  2204 PWs)   bands (ev):

   -19.7490 -19.7142  -6.7364  -6.6126  -6.1478  -5.8417  -5.7128  -5.5528
    -3.2293  -3.1141  -3.0514  -2.6841  -2.6762  -2.5890   5.3273   5.7143
     5.7766   6.0943   6.1117   6.5613   6.5782   6.7342   7.2819   7.3414
     7.4536   7.8687   8.8434   9.3314   9.3823   9.6447   9.8173   9.9803
    10.1453  10.2208  10.3581  10.3695  10.3932  10.5476  12.1543  13.1927
    13.2728  14.1327  16.6857  16.7280  17.5898  17.7954

     occupation numbers 
     0.0625   0.0625   0.0625   0.0625   0.0625   0.0625   0.0625   0.0625
     0.0625   0.0625   0.0625   0.0625   0.0625   0.0625   0.0625   0.0625
     0.0625   0.0625   0.0625   0.0625   0.0625   0.0625   0.0625   0.0625
     0.0625   0.0625   0.0625   0.0625   0.0625   0.0625   0.0625   0.0625
     0.0625   0.0625   0.0625   0.0625   0.0625   0.0624   0.0002   0.0000
     0.0000   0.0000   0.0000   0.0000   0.0000   0.0000

          k = 0.0000-0.8559 0.0000 (  2204 PWs)   bands (ev):

   -19.7490 -19.7141  -6.7340  -6.6169  -6.1453  -5.8398  -5.7102  -5.5583
    -3.2299  -3.1139  -3.0514  -2.6826  -2.6753  -2.5902   5.3233   5.7092
     5.7785   6.0949   6.1137   6.5636   6.5802   6.7370   7.2847   7.3443
     7.4564   7.8606   8.8354   9.3349   9.3756   9.6479   9.8180   9.9828
    10.1483  10.2243  10.3591  10.3671  10.3888  10.5478  12.1558  13.1925
    13.2728  14.1321  16.6850  16.7285  17.5905  17.7956

     occupation numbers 
     0.0625   0.0625   0.0625   0.0625   0.0625   0.0625   0.0625   0.0625
     0.0625   0.0625   0.0625   0.0625   0.0625   0.0625   0.0625   0.0625
     0.0625   0.0625   0.0625   0.0625   0.0625   0.0625   0.0625   0.0625
     0.0625   0.0625   0.0625   0.0625   0.0625   0.0625   0.0625   0.0625
     0.0625   0.0625   0.0625   0.0625   0.0625   0.0624   0.0002   0.0000
     0.0000   0.0000   0.0000   0.0000   0.0000   0.0000

          k = 0.4942-0.2853-0.1027 (  2211 PWs)   bands (ev):

   -19.7383 -19.7314  -6.9710  -6.5468  -6.3283  -5.7157  -5.6297  -5.3650
    -3.3643  -3.1763  -3.0626  -2.6027  -2.5710  -2.3774   5.0911   5.6461
     5.7524   5.9247   6.1767   6.4698   6.5836   6.7567   7.2189   7.2472
     7.7928   7.8479   8.7127   9.2273   9.3097   9.5672   9.7898   9.8685
    10.1704  10.2298  10.3734  10.4571  10.5161  10.5884  12.2109  12.7079
    13.4326  14.2887  16.8866  16.9358  17.5783  17.9280

     occupation numbers 
     0.0625   0.0625   0.0625   0.0625   0.0625   0.0625   0.0625   0.0625
     0.0625   0.0625   0.0625   0.0625   0.0625   0.0625   0.0625   0.0625
     0.0625   0.0625   0.0625   0.0625   0.0625   0.0625   0.0625   0.0625
     0.0625   0.0625   0.0625   0.0625   0.0625   0.0625   0.0625   0.0625
     0.0625   0.0625   0.0625   0.0624   0.0624   0.0623   0.0001   0.0000
     0.0000   0.0000   0.0000   0.0000   0.0000   0.0000

          k = 0.0000-0.5706 0.1027 (  2211 PWs)   bands (ev):

   -19.7379 -19.7311  -6.9757  -6.5455  -6.3290  -5.7115  -5.6248  -5.3702
    -3.3644  -3.1764  -3.0627  -2.6036  -2.5710  -2.3788   5.0957   5.6432
     5.7567   5.9223   6.1773   6.4716   6.5844   6.7545   7.2192   7.2515
     7.7967   7.8398   8.7118   9.2335   9.3112   9.5605   9.7911   9.8650
    10.1727  10.2319  10.3742  10.4555  10.5132  10.5871  12.2100  12.7092
    13.4319  14.2889  16.8869  16.9357  17.5780  17.9282

     occupation numbers 
     0.0625   0.0625   0.0625   0.0625   0.0625   0.0625   0.0625   0.0625
     0.0625   0.0625   0.0625   0.0625   0.0625   0.0625   0.0625   0.0625
     0.0625   0.0625   0.0625   0.0625   0.0625   0.0625   0.0625   0.0625
     0.0625   0.0625   0.0625   0.0625   0.0625   0.0625   0.0625   0.0625
     0.0625   0.0625   0.0625   0.0624   0.0624   0.0623   0.0001   0.0000
     0.0000   0.0000   0.0000   0.0000   0.0000   0.0000

          k = 0.7412 0.4280 0.3080 (  2210 PWs)   bands (ev):

   -19.7375 -19.7340  -6.9122  -6.4579  -6.3076  -5.7968  -5.7718  -5.5059
    -3.0937  -3.0750  -2.9773  -2.7407  -2.6316  -2.4299   5.1346   5.7216
     5.8228   5.9477   6.1736   6.4198   6.5728   6.8272   7.2742   7.2918
     7.7586   7.8271   8.6738   9.1667   9.3594   9.4542   9.6352   9.9817
    10.1204  10.1972  10.2599  10.4306  10.5435  10.6026  12.1710  12.6639
    13.3813  14.2591  17.0614  17.0716  17.5458  17.9028

     occupation numbers 
     0.0625   0.0625   0.0625   0.0625   0.0625   0.0625   0.0625   0.0625
     0.0625   0.0625   0.0625   0.0625   0.0625   0.0625   0.0625   0.0625
     0.0625   0.0625   0.0625   0.0625   0.0625   0.0625   0.0625   0.0625
     0.0625   0.0625   0.0625   0.0625   0.0625   0.0625   0.0625   0.0625
     0.0625   0.0625   0.0625   0.0625   0.0624   0.0622   0.0002   0.0000
     0.0000   0.0000   0.0000   0.0000   0.0000   0.0000

          k = 0.0000 0.8559-0.3080 (  2210 PWs)   bands (ev):

   -19.7375 -19.7340  -6.9122  -6.4579  -6.3076  -5.7967  -5.7719  -5.5059
    -3.0937  -3.0750  -2.9773  -2.7407  -2.6316  -2.4299   5.1346   5.7216
     5.8229   5.9476   6.1736   6.4199   6.5727   6.8273   7.2747   7.2913
     7.7586   7.8271   8.6738   9.1667   9.3593   9.4543   9.6352   9.9819
    10.1205  10.1971  10.2595  10.4308  10.5436  10.6025  12.1710  12.6639
    13.3813  14.2591  17.0615  17.0716  17.5458  17.9028

     occupation numbers 
     0.0625   0.0625   0.0625   0.0625   0.0625   0.0625   0.0625   0.0625
     0.0625   0.0625   0.0625   0.0625   0.0625   0.0625   0.0625   0.0625
     0.0625   0.0625   0.0625   0.0625   0.0625   0.0625   0.0625   0.0625
     0.0625   0.0625   0.0625   0.0625   0.0625   0.0625   0.0625   0.0625
     0.0625   0.0625   0.0625   0.0625   0.0624   0.0622   0.0002   0.0000
     0.0000   0.0000   0.0000   0.0000   0.0000   0.0000

          k = 0.2471 0.7133-0.2053 (  2206 PWs)   bands (ev):

   -19.7391 -19.7390  -6.8868  -6.8749  -6.0431  -6.0323  -5.4414  -5.4341
    -3.1690  -3.1687  -2.8316  -2.8297  -2.3824  -2.3799   5.3523   5.3572
     5.7149   5.7250   6.3019   6.3062   6.6068   6.6155   7.2352   7.2419
     8.0403   8.0502   8.7555   8.7644   9.3852   9.3910   9.8383   9.8477
    10.1315  10.1393  10.2724  10.2832  10.6144  10.6240  12.2120  12.2186
    13.9544  13.9663  17.4254  17.4266  17.8714  17.8731

     occupation numbers 
     0.0625   0.0625   0.0625   0.0625   0.0625   0.0625   0.0625   0.0625
     0.0625   0.0625   0.0625   0.0625   0.0625   0.0625   0.0625   0.0625
     0.0625   0.0625   0.0625   0.0625   0.0625   0.0625   0.0625   0.0625
     0.0625   0.0625   0.0625   0.0625   0.0625   0.0625   0.0625   0.0625
     0.0625   0.0625   0.0625   0.0625   0.0622   0.0622   0.0001   0.0001
     0.0000   0.0000   0.0000   0.0000   0.0000   0.0000

          k =-0.7412-0.1427-0.2053 (  2206 PWs)   bands (ev):

   -19.7388 -19.7387  -6.8916  -6.8763  -6.0338  -6.0323  -5.4450  -5.4343
    -3.1696  -3.1689  -2.8304  -2.8296  -2.3854  -2.3802   5.3556   5.3580
     5.7136   5.7217   6.3050   6.3088   6.6076   6.6200   7.2366   7.2466
     8.0402   8.0420   8.7543   8.7571   9.3853   9.3859   9.8431   9.8533
    10.1329  10.1420  10.2737  10.2812  10.6134  10.6180  12.2127  12.2193
    13.9540  13.9660  17.4254  17.4259  17.8717  17.8741

     occupation numbers 
     0.0625   0.0625   0.0625   0.0625   0.0625   0.0625   0.0625   0.0625
     0.0625   0.0625   0.0625   0.0625   0.0625   0.0625   0.0625   0.0625
     0.0625   0.0625   0.0625   0.0625   0.0625   0.0625   0.0625   0.0625
     0.0625   0.0625   0.0625   0.0625   0.0625   0.0625   0.0625   0.0625
     0.0625   0.0625   0.0625   0.0625   0.0622   0.0622   0.0001   0.0001
     0.0000   0.0000   0.0000   0.0000   0.0000   0.0000

     the Fermi energy is    11.3657 ev

!    total energy              =    -537.75421364 Ry
     Harris-Foulkes estimate   =    -537.75419654 Ry
     estimated scf accuracy    <          8.3E-09 Ry

     The total energy is the sum of the following terms:

     one-electron contribution =     -32.88073183 Ry
     hartree contribution      =      83.65759030 Ry
     xc contribution           =    -199.62213201 Ry
     ewald contribution        =    -389.44315552 Ry
     Hubbard energy            =       0.53744916 Ry
     smearing contrib. (-TS)   =      -0.00323372 Ry

     convergence has been achieved in  13 iterations

     init_run     :      6.70s CPU      6.79s WALL (       1 calls)
     electrons    :    402.88s CPU    404.97s WALL (       1 calls)

     Called by init_run:
     wfcinit      :      0.00s CPU      0.00s WALL (       1 calls)
     potinit      :      0.26s CPU      0.28s WALL (       1 calls)

     Called by electrons:
     c_bands      :    310.93s CPU    312.15s WALL (      13 calls)
     sum_band     :     67.24s CPU     67.76s WALL (      13 calls)
     v_of_rho     :      3.44s CPU      3.45s WALL (      14 calls)
     v_h          :      0.19s CPU      0.19s WALL (      14 calls)
     v_xc         :      3.25s CPU      3.26s WALL (      14 calls)
     newd         :     22.00s CPU     22.02s WALL (      14 calls)
     mix_rho      :      0.36s CPU      0.36s WALL (      13 calls)

     Called by c_bands:
     init_us_2    :      3.37s CPU      3.36s WALL (     936 calls)
     cegterg      :    301.43s CPU    302.10s WALL (     468 calls)

     Called by sum_band:
     sum_band:bec :      0.35s CPU      0.35s WALL (     468 calls)
     addusdens    :     14.85s CPU     14.85s WALL (      13 calls)

     Called by *egterg:
     h_psi        :    225.30s CPU    225.82s WALL (    1784 calls)
     s_psi        :     12.79s CPU     12.81s WALL (    1784 calls)
     g_psi        :      1.13s CPU      1.11s WALL (    1316 calls)
     cdiaghg      :     21.11s CPU     21.17s WALL (    1748 calls)
     cegterg:over :     14.93s CPU     14.97s WALL (    1316 calls)
     cegterg:upda :      9.73s CPU      9.76s WALL (    1316 calls)
     cegterg:last :      7.50s CPU      7.53s WALL (     538 calls)

     Called by h_psi:
     h_psi:vloc   :    183.09s CPU    183.58s WALL (    1784 calls)
     h_psi:vnl    :     26.99s CPU     27.00s WALL (    1784 calls)
     add_vuspsi   :     13.04s CPU     13.07s WALL (    1784 calls)
     vhpsi        :     14.64s CPU     14.65s WALL (    1784 calls)

     General routines
     calbec       :     28.70s CPU     28.71s WALL (    4504 calls)
     fft          :      2.19s CPU      2.20s WALL (     219 calls)
     ffts         :      0.06s CPU      0.07s WALL (      27 calls)
     fftw         :    177.20s CPU    177.40s WALL (  131048 calls)
     interpolate  :      0.39s CPU      0.39s WALL (      27 calls)
     davcio       :      0.01s CPU      1.01s WALL (     972 calls)

     Parallel routines
     fft_scatter  :     41.93s CPU     42.47s WALL (  131294 calls)
     Hubbard U routines
     new_ns       :      2.83s CPU      3.27s WALL (      13 calls)
     vhpsi        :     14.64s CPU     14.65s WALL (    1784 calls)

     PWSCF        :  6m50.01s CPU     6m52.21s WALL


   This run was terminated on:   6: 4:19  13Nov2012            

=------------------------------------------------------------------------------=
