   JOB DONE.
=------------------------------------------------------------------------------=

     Program PWSCF v.5.0.1 starts on 13Nov2012 at  5:27:49 

     This program is part of the open-source Quantum ESPRESSO suite
     for quantum simulation of materials; please cite
         "P. Giannozzi et al., J. Phys.:Condens. Matter 21 395502 (2009);
          URL http://www.quantum-espresso.org", 
     in publications or presentations arising from this work. More details at
     http://www.quantum-espresso.org/quote.php

     Parallel version (MPI), running on     2 processors
     R & G space division:  proc/pool =    2

     Current dimensions of program PWSCF are:
     Max number of different atomic species (ntypx) = 10
     Max number of k-points (npk) =  40000
     Max angular momentum in pseudopotentials (lmaxx) =  3
     Reading input from CoLaO_U700_a-15.in
               file Co.pbe-nd-rrkjus.UPF: wavefunction(s)  4S 3D renormalized
               file O.pbe-rrkjus.UPF: wavefunction(s)  2S renormalized
               file O.pbe-rrkjus.UPF: wavefunction(s)  2S renormalized

     Subspace diagonalization in iterative solution of the eigenvalue problem:
     a serial algorithm will be used


     Parallelization info
     --------------------
     sticks:   dense  smooth     PW     G-vecs:    dense   smooth      PW
     Min        1112     444    131                34808     8786    1448
     Max        1113     445    132                34809     8787    1449
     Sum        2225     889    263                69617    17573    2897


     Title: 
     GGA + U, U = 7.000, alpha = -0.150                                         


     bravais-lattice index     =            5
     lattice parameter (alat)  =      10.3292  a.u.
     unit-cell volume          =     793.0599 (a.u.)^3
     number of atoms/cell      =           10
     number of atomic types    =            4
     number of electrons       =        76.00
     number of Kohn-Sham states=           46
     kinetic-energy cutoff     =      30.0000  Ry
     charge density cutoff     =     300.0000  Ry
     convergence threshold     =      1.0E-08
     mixing beta               =       0.2000
     number of iterations used =            8  plain     mixing
     Exchange-correlation      =  SLA  PW   PBE  PBE ( 1 4 3 4 0)
     EXX-fraction              =        0.00

     celldm(1)=  10.329242  celldm(2)=   0.000000  celldm(3)=   0.000000
     celldm(4)=   0.488100  celldm(5)=   0.000000  celldm(6)=   0.000000

     crystal axes: (cart. coord. in units of alat)
               a(1) = (   0.505915  -0.292090   0.811624 )  
               a(2) = (   0.000000   0.584180   0.811624 )  
               a(3) = (  -0.505915  -0.292090   0.811624 )  

     reciprocal axes: (cart. coord. in units 2 pi/alat)
               b(1) = (  0.988308 -0.570600  0.410699 )  
               b(2) = (  0.000000  1.141200  0.410699 )  
               b(3) = ( -0.988308 -0.570600  0.410699 )  


     PseudoPot. # 1 for Co read from file:
     /home/mcurnan/dft-course/Project1/example_LaCoO3/Co.pbe-nd-rrkjus.UPF
     MD5 check sum: 3e47a84addf5e975e0edeaeee2a73f59
     Pseudo is Ultrasoft + core correction, Zval =  9.0
     Generated by new atomic code, or converted to UPF format
     Using radial grid of  961 points,  6 beta functions with: 
                l(1) =   0
                l(2) =   0
                l(3) =   1
                l(4) =   1
                l(5) =   2
                l(6) =   2
     Q(r) pseudized with 0 coefficients 


     PseudoPot. # 2 for La read from file:
     /home/mcurnan/dft-course/Project1/example_LaCoO3/La.pbe-nsp-van.UPF
     MD5 check sum: b2f11743f52dde65f77d1302becd7929
     Pseudo is Ultrasoft + core correction, Zval = 11.0
     Generated by new atomic code, or converted to UPF format
     Using radial grid of  907 points,  6 beta functions with: 
                l(1) =   0
                l(2) =   0
                l(3) =   1
                l(4) =   1
                l(5) =   2
                l(6) =   2
     Q(r) pseudized with  6 coefficients,  rinner =    1.200   1.200   1.200
                                                       1.200   1.200

     PseudoPot. # 3 for O  read from file:
     /home/mcurnan/dft-course/Project1/example_LaCoO3/O.pbe-rrkjus.UPF
     MD5 check sum: 390ba29e75625707450f3bd3f0eb6be9
     Pseudo is Ultrasoft, Zval =  6.0
     Generated by new atomic code, or converted to UPF format
     Using radial grid of 1269 points,  4 beta functions with: 
                l(1) =   0
                l(2) =   0
                l(3) =   1
                l(4) =   1
     Q(r) pseudized with 0 coefficients 


     PseudoPot. # 4 for O  read from file:
     /home/mcurnan/dft-course/Project1/example_LaCoO3/O.pbe-rrkjus.UPF
     MD5 check sum: 390ba29e75625707450f3bd3f0eb6be9
     Pseudo is Ultrasoft, Zval =  6.0
     Generated by new atomic code, or converted to UPF format
     Using radial grid of 1269 points,  4 beta functions with: 
                l(1) =   0
                l(2) =   0
                l(3) =   1
                l(4) =   1
     Q(r) pseudized with 0 coefficients 


     atomic species   valence    mass     pseudopotential
        Co1            9.00     1.00000     Co( 1.00)
        La1           11.00     1.00000     La( 1.00)
        O1             6.00     1.00000     O ( 1.00)
        O2             6.00     1.00000     O ( 1.00)
 -----
     simplified LDA+U calculation, Hubbard_lmax = 2
     atomic species  L   Hubbard U  Hubbard alpha
        Co1          2    7.000000    0.000000
        La1          2    0.000000    0.000000
        O1           1    0.000000   -0.150000
        O2           1    0.000000    0.000000
 -----

     No symmetry found


                                    s                        frac. trans.

      isym =  1     identity                                     

 cryst.   s( 1) = (     1          0          0      )
                  (     0          1          0      )
                  (     0          0          1      )

 cart.    s( 1) = (  1.0000000  0.0000000  0.0000000 )
                  (  0.0000000  1.0000000  0.0000000 )
                  (  0.0000000  0.0000000  1.0000000 )


     point group C_1 (1)    
     there are  1 classes
     the character table:

       E    
A      1.00

     the symmetry operations in each class:
     E        1

   Cartesian axes

     site n.     atom                  positions (alat units)
         1           Co1 tau(   1) = (   0.2228050  -0.1992639   1.0141240  )
         2           Co1 tau(   2) = (  -0.2831100   0.0928263   1.4199360  )
         3           La1 tau(   3) = (  -0.2831100   0.0928263   0.8112181  )
         4           La1 tau(   4) = (   0.2228050   0.3849164   1.2170300  )
         5           O1  tau(   5) = (   0.0000000   0.0000000   0.0000000  )
         6           O2  tau(   6) = (   0.0008601   0.1861491   1.6232478  )
         7           O2  tau(   7) = (   0.1616398   0.0923297   0.8116239  )
         8           O2  tau(   8) = (  -0.0603051  -0.1064377   1.2166242  )
         9           O2  tau(   9) = (   0.4447499  -0.0004966   1.2166242  )
        10           O2  tau(  10) = (  -0.2219449   0.3854130   1.2166242  )

   Crystallographic axes

     site n.     atom                  positions (cryst. coord.)
         1           Co1 tau(   1) = (  0.7504000  0.1891000  0.3100000  )
         2           Co1 tau(   2) = (  0.2504000  0.6891000  0.8100000  )
         3           La1 tau(   3) = (  0.0004000  0.4391000  0.5600000  )
         4           La1 tau(   4) = (  0.5004000  0.9391000  0.0600000  )
         5           O1  tau(   5) = (  0.0000000  0.0000000  0.0000000  )
         6           O2  tau(   6) = (  0.5613000  0.8791000  0.5596000  )
         7           O2  tau(   7) = (  0.4404000  0.4387000  0.1209000  )
         8           O2  tau(   8) = (  0.5008000  0.3782000  0.6200000  )
         9           O2  tau(   9) = (  0.9395000  0.4991000  0.0604000  )
        10           O2  tau(  10) = (  0.0604000  0.9395000  0.4991000  )

     number of k points=    36  gaussian smearing, width (Ry)=  0.0300
                       cart. coord. in units 2pi/alat
        k(    1) = (   0.0000000   0.0000000   0.0000000), wk =   0.0312500
        k(    2) = (  -0.2470771  -0.1426500   0.1026748), wk =   0.0625000
        k(    3) = (   0.4941541   0.2853000  -0.2053496), wk =   0.0312500
        k(    4) = (  -0.2470771   0.1426500   0.2053496), wk =   0.0625000
        k(    5) = (   0.4941541   0.5706001  -0.1026748), wk =   0.0625000
        k(    6) = (   0.2470771   0.4279500   0.0000000), wk =   0.0625000
        k(    7) = (   0.4941541  -0.2853000  -0.4106993), wk =   0.0312500
        k(    8) = (   0.0000000   0.0000000   0.3080244), wk =   0.0625000
        k(    9) = (   0.7412312   0.4279500   0.0000000), wk =   0.0625000
        k(   10) = (   0.4941541   0.2853000   0.1026748), wk =   0.0625000
        k(   11) = (   0.7412312  -0.4279500  -0.3080244), wk =   0.0625000
        k(   12) = (   0.4941541  -0.5706001  -0.2053496), wk =   0.0625000
        k(   13) = (   0.0000000   0.0000000  -0.6160489), wk =   0.0312500
        k(   14) = (  -0.2470771   0.1426500  -0.1026748), wk =   0.0625000
        k(   15) = (   0.0000000   0.2853000   0.1026748), wk =   0.0625000
        k(   16) = (   0.4941541  -0.2853000   0.2053496), wk =   0.0312500
        k(   17) = (   0.0000000  -0.5706001  -0.2053496), wk =   0.0312500
        k(   18) = (  -0.2470771  -0.1426500  -0.2053496), wk =   0.0625000
        k(   19) = (   0.0000000  -0.2853000   0.2053496), wk =   0.0625000
        k(   20) = (   0.4941541  -0.5706001   0.1026748), wk =   0.0625000
        k(   21) = (  -0.7412312   0.1426500  -0.1026748), wk =   0.0625000
        k(   22) = (   0.2470771  -0.7132501  -0.1026748), wk =   0.0625000
        k(   23) = (  -0.7412312  -0.1426500   0.1026748), wk =   0.0625000
        k(   24) = (   0.2470771   0.7132501   0.1026748), wk =   0.0625000
        k(   25) = (   0.2470771  -0.4279500   0.0000000), wk =   0.0625000
        k(   26) = (  -0.4941541   0.0000000   0.0000000), wk =   0.0625000
        k(   27) = (   0.4941541   0.2853000   0.4106993), wk =   0.0312500
        k(   28) = (   0.0000000   0.5706001  -0.4106993), wk =   0.0312500
        k(   29) = (   0.7412312  -0.4279500   0.0000000), wk =   0.0625000
        k(   30) = (   0.0000000  -0.8559001   0.0000000), wk =   0.0625000
        k(   31) = (   0.4941541  -0.2853000  -0.1026748), wk =   0.0625000
        k(   32) = (   0.0000000  -0.5706001   0.1026748), wk =   0.0625000
        k(   33) = (   0.7412312   0.4279500   0.3080244), wk =   0.0625000
        k(   34) = (   0.0000000   0.8559001  -0.3080244), wk =   0.0625000
        k(   35) = (   0.2470771   0.7132501  -0.2053496), wk =   0.0625000
        k(   36) = (  -0.7412312  -0.1426500  -0.2053496), wk =   0.0625000

                       cryst. coord.
        k(    1) = (   0.0000000   0.0000000   0.0000000), wk =   0.0312500
        k(    2) = (   0.0000000   0.0000000   0.2500000), wk =   0.0625000
        k(    3) = (   0.0000000   0.0000000  -0.5000000), wk =   0.0312500
        k(    4) = (   0.0000000   0.2500000   0.2500000), wk =   0.0625000
        k(    5) = (   0.0000000   0.2500000  -0.5000000), wk =   0.0625000
        k(    6) = (   0.0000000   0.2500000  -0.2500000), wk =   0.0625000
        k(    7) = (   0.0000000  -0.5000000  -0.5000000), wk =   0.0312500
        k(    8) = (   0.2500000   0.2500000   0.2500000), wk =   0.0625000
        k(    9) = (   0.2500000   0.2500000  -0.5000000), wk =   0.0625000
        k(   10) = (   0.2500000   0.2500000  -0.2500000), wk =   0.0625000
        k(   11) = (   0.2500000  -0.5000000  -0.5000000), wk =   0.0625000
        k(   12) = (   0.2500000  -0.5000000  -0.2500000), wk =   0.0625000
        k(   13) = (  -0.5000000  -0.5000000  -0.5000000), wk =   0.0312500
        k(   14) = (  -0.2500000   0.0000000   0.0000000), wk =   0.0625000
        k(   15) = (   0.0000000   0.2500000   0.0000000), wk =   0.0625000
        k(   16) = (   0.5000000   0.0000000   0.0000000), wk =   0.0312500
        k(   17) = (   0.0000000  -0.5000000   0.0000000), wk =   0.0312500
        k(   18) = (  -0.2500000  -0.2500000   0.0000000), wk =   0.0625000
        k(   19) = (   0.2500000   0.0000000   0.2500000), wk =   0.0625000
        k(   20) = (   0.5000000  -0.2500000   0.0000000), wk =   0.0625000
        k(   21) = (  -0.5000000   0.0000000   0.2500000), wk =   0.0625000
        k(   22) = (   0.2500000  -0.5000000   0.0000000), wk =   0.0625000
        k(   23) = (  -0.2500000   0.0000000   0.5000000), wk =   0.0625000
        k(   24) = (   0.0000000   0.5000000  -0.2500000), wk =   0.0625000
        k(   25) = (   0.2500000  -0.2500000   0.0000000), wk =   0.0625000
        k(   26) = (  -0.2500000   0.0000000   0.2500000), wk =   0.0625000
        k(   27) = (   0.5000000   0.5000000   0.0000000), wk =   0.0312500
        k(   28) = (  -0.5000000   0.0000000  -0.5000000), wk =   0.0312500
        k(   29) = (   0.5000000  -0.2500000  -0.2500000), wk =   0.0625000
        k(   30) = (   0.2500000  -0.5000000   0.2500000), wk =   0.0625000
        k(   31) = (   0.2500000  -0.2500000  -0.2500000), wk =   0.0625000
        k(   32) = (   0.2500000  -0.2500000   0.2500000), wk =   0.0625000
        k(   33) = (   0.5000000   0.5000000  -0.2500000), wk =   0.0625000
        k(   34) = (  -0.5000000   0.2500000  -0.5000000), wk =   0.0625000
        k(   35) = (  -0.2500000   0.2500000  -0.5000000), wk =   0.0625000
        k(   36) = (  -0.5000000  -0.2500000   0.2500000), wk =   0.0625000

     Dense  grid:    69617 G-vectors     FFT dimensions: (  60,  60,  60)

     Smooth grid:    17573 G-vectors     FFT dimensions: (  40,  40,  40)

     Largest allocated arrays     est. size (Mb)     dimensions
        Kohn-Sham Wavefunctions         0.79 Mb     (   1119,   46)
        Atomic wavefunctions            1.06 Mb     (   1119,   62)
        NL pseudopotentials             2.05 Mb     (   1119,  120)
        Each V/rho on FFT grid          1.65 Mb     ( 108000)
        Each G-vector array             0.27 Mb     (  34808)
        G-vector shells                 0.04 Mb     (   4682)
     Largest temporary arrays     est. size (Mb)     dimensions
        Auxiliary wavefunctions         3.14 Mb     (   1119,  184)
        Each subspace H/S matrix        0.52 Mb     ( 184, 184)
        Each <psi_i|beta_j> matrix      0.08 Mb     (    120,   46)
        Arrays for rho mixing          13.18 Mb     ( 108000,   8)

     Check: negative/imaginary core charge=   -0.000028    0.000000

     The initial density is read from file :
     /home/mcurnan/dft-course/Project1/example_LaCoO3/700/O/alpha/CoLaO_U700.save/charge-density.dat

 --- in v_hubbard ---
Hubbard energy    0.6099
 -------
     Number of +U iterations with fixed ns =  0
     Starting occupations:
 --- enter write_ns ---
 LDA+U parameters:
U( 1)     =  7.00000000
alpha( 1) =  0.00000000
U( 2)     =  0.00000000
alpha( 2) =  0.00000000
U( 3)     =  0.00000000
alpha( 3) = -0.15000000
U( 4)     =  0.00000000
alpha( 4) =  0.00000000
atom    1   Tr[ns(na)] =   8.02205
    eigenvalues: 
  0.596  0.596  0.938  0.941  0.941
    eigenvectors:
  0.000  0.000  1.000  0.000  0.000
  0.057  0.598  0.000  0.178  0.167
  0.598  0.057  0.000  0.167  0.178
  0.210  0.135  0.000  0.095  0.560
  0.135  0.210  0.000  0.560  0.095
    occupations:
  0.938  0.000  0.000  0.000  0.000
  0.000  0.715  0.000 -0.060  0.152
  0.000  0.000  0.715  0.152  0.060
  0.000 -0.060  0.152  0.822  0.000
  0.000  0.152  0.060  0.000  0.822
atom    2   Tr[ns(na)] =   8.02142
    eigenvalues: 
  0.595  0.595  0.938  0.941  0.941
    eigenvectors:
  0.000  0.000  1.000  0.000  0.000
  0.332  0.323  0.000  0.023  0.322
  0.323  0.332  0.000  0.322  0.023
  0.288  0.057  0.000  0.647  0.008
  0.057  0.288  0.000  0.008  0.647
    occupations:
  0.938  0.000  0.000  0.000  0.000
  0.000  0.715  0.000  0.060  0.153
  0.000  0.000  0.715  0.153 -0.060
  0.000  0.060  0.153  0.822  0.000
  0.000  0.153 -0.060  0.000  0.822
atom    3   Tr[ns(na)] =   3.80282
    eigenvalues: 
  0.355  0.355  0.384  0.403  0.403
    eigenvectors:
  0.000  0.000  1.000  0.000  0.000
  0.065  0.856  0.000  0.058  0.021
  0.856  0.065  0.000  0.021  0.058
  0.073  0.006  0.000  0.250  0.670
  0.006  0.073  0.000  0.670  0.250
    occupations:
  0.384  0.000  0.000  0.000  0.000
  0.000  0.359  0.000  0.000  0.013
  0.000  0.000  0.359  0.013  0.000
  0.000  0.000  0.013  0.399  0.000
  0.000  0.013  0.000  0.000  0.399
atom    4   Tr[ns(na)] =   3.80282
    eigenvalues: 
  0.355  0.355  0.384  0.403  0.403
    eigenvectors:
  0.000  0.000  1.000  0.000  0.000
  0.729  0.192  0.000  0.048  0.032
  0.192  0.729  0.000  0.032  0.048
  0.017  0.062  0.000  0.359  0.562
  0.062  0.017  0.000  0.562  0.359
    occupations:
  0.384  0.000  0.000  0.000  0.000
  0.000  0.359  0.000  0.000  0.013
  0.000  0.000  0.359  0.013  0.000
  0.000  0.000  0.013  0.399  0.000
  0.000  0.013  0.000  0.000  0.399
atom    5   Tr[ns(na)] =   5.43357
    eigenvalues: 
  0.846  0.929  0.941
    eigenvectors:
  0.340  0.000  0.660
  0.496  0.250  0.255
  0.164  0.750  0.086
    occupations:
  0.909 -0.039  0.022
 -0.039  0.891  0.022
  0.022  0.022  0.917
atom    6   Tr[ns(na)] =   5.43358
    eigenvalues: 
  0.846  0.929  0.941
    eigenvectors:
  0.340  0.000  0.660
  0.494  0.250  0.256
  0.166  0.750  0.085
    occupations:
  0.909  0.039  0.022
  0.039  0.891 -0.022
  0.022 -0.022  0.917
atom    7   Tr[ns(na)] =   5.43358
    eigenvalues: 
  0.846  0.929  0.941
    eigenvectors:
  0.340  0.000  0.660
  0.000  1.000  0.000
  0.660  0.000  0.340
    occupations:
  0.909  0.000 -0.045
  0.000  0.929  0.000
 -0.045  0.000  0.879
atom    8   Tr[ns(na)] =   5.43357
    eigenvalues: 
  0.846  0.929  0.941
    eigenvectors:
  0.340  0.000  0.660
  0.496  0.250  0.255
  0.164  0.750  0.086
    occupations:
  0.909 -0.039  0.022
 -0.039  0.891  0.022
  0.022  0.022  0.917
atom    9   Tr[ns(na)] =   5.43358
    eigenvalues: 
  0.846  0.929  0.941
    eigenvectors:
  0.340  0.000  0.660
  0.494  0.250  0.256
  0.166  0.750  0.085
    occupations:
  0.909  0.039  0.022
  0.039  0.891 -0.022
  0.022 -0.022  0.917
atom   10   Tr[ns(na)] =   5.43358
    eigenvalues: 
  0.846  0.929  0.941
    eigenvectors:
  0.340  0.000  0.660
  0.000  1.000  0.000
  0.660  0.000  0.340
    occupations:
  0.909  0.000 -0.045
  0.000  0.929  0.000
 -0.045  0.000  0.879
N of occupied +U levels =  56.2505796
 --- exit write_ns ---
 LDA+U Projector read from file 
     Starting wfc from file

     total cpu time spent up to now is        7.2 secs

     per-process dynamical memory:    62.8 Mb

     Self-consistent Calculation

     iteration #  1     ecut=    30.00 Ry     beta=0.20
     Davidson diagonalization with overlap
     c_bands:  1 eigenvalues not converged
     c_bands:  1 eigenvalues not converged
     c_bands:  1 eigenvalues not converged
     c_bands:  1 eigenvalues not converged
     c_bands:  1 eigenvalues not converged
     c_bands:  1 eigenvalues not converged
     c_bands:  1 eigenvalues not converged
     c_bands:  1 eigenvalues not converged
     c_bands:  1 eigenvalues not converged
     c_bands:  1 eigenvalues not converged
     c_bands:  1 eigenvalues not converged
     c_bands:  1 eigenvalues not converged
     c_bands:  1 eigenvalues not converged
     c_bands:  1 eigenvalues not converged
     c_bands:  1 eigenvalues not converged
     c_bands:  1 eigenvalues not converged
     c_bands:  1 eigenvalues not converged
     c_bands:  1 eigenvalues not converged
     ethr =  1.00E-10,  avg # of iterations = 17.8
 --- enter write_ns ---
 LDA+U parameters:
U( 1)     =  7.00000000
alpha( 1) =  0.00000000
U( 2)     =  0.00000000
alpha( 2) =  0.00000000
U( 3)     =  0.00000000
alpha( 3) = -0.15000000
U( 4)     =  0.00000000
alpha( 4) =  0.00000000
atom    1   Tr[ns(na)] =   8.27970
    eigenvalues: 
  0.575  0.578  0.995  0.995  0.998
    eigenvectors:
  0.000  0.000  0.003  0.000  0.997
  0.557  0.098  0.169  0.175  0.001
  0.098  0.556  0.176  0.170  0.000
  0.168  0.178  0.553  0.100  0.001
  0.177  0.168  0.099  0.554  0.001
    occupations:
  0.998  0.000  0.000  0.000  0.000
  0.000  0.720  0.001 -0.074  0.185
  0.000  0.001  0.722  0.185  0.072
  0.000 -0.074  0.185  0.850  0.001
  0.000  0.185  0.072  0.001  0.850
atom    2   Tr[ns(na)] =   8.26972
    eigenvalues: 
  0.572  0.575  0.995  0.995  0.998
    eigenvectors:
  0.000  0.000  0.003  0.000  0.997
  0.415  0.239  0.324  0.021  0.001
  0.239  0.415  0.021  0.324  0.000
  0.026  0.320  0.010  0.645  0.000
  0.320  0.026  0.643  0.009  0.002
    occupations:
  0.998  0.000  0.000  0.000  0.000
  0.000  0.719  0.001  0.072  0.187
  0.000  0.001  0.719  0.186 -0.073
  0.000  0.072  0.186  0.850  0.000
  0.000  0.187 -0.073  0.000  0.849
atom    3   Tr[ns(na)] =   3.78550
    eigenvalues: 
  0.355  0.356  0.380  0.400  0.401
    eigenvectors:
  0.000  0.000  1.000  0.000  0.000
  0.228  0.685  0.000  0.067  0.021
  0.686  0.227  0.000  0.021  0.066
  0.065  0.023  0.000  0.225  0.688
  0.022  0.065  0.000  0.687  0.225
    occupations:
  0.380  0.000  0.000  0.000  0.000
  0.000  0.360  0.000  0.000  0.013
  0.000  0.000  0.359  0.013  0.000
  0.000  0.000  0.013  0.397  0.000
  0.000  0.013  0.000  0.000  0.396
atom    4   Tr[ns(na)] =   3.78557
    eigenvalues: 
  0.355  0.356  0.380  0.401  0.401
    eigenvectors:
  0.000  0.000  1.000  0.000  0.000
  0.688  0.231  0.000  0.060  0.021
  0.232  0.683  0.000  0.020  0.065
  0.021  0.063  0.000  0.233  0.683
  0.059  0.022  0.000  0.687  0.232
    occupations:
  0.380  0.000  0.000  0.000  0.000
  0.000  0.359  0.000  0.000  0.012
  0.000  0.000  0.359  0.013  0.000
  0.000  0.000  0.013  0.397  0.000
  0.000  0.012  0.000  0.000  0.397
atom    5   Tr[ns(na)] =   5.39323
    eigenvalues: 
  0.825  0.925  0.947
    eigenvectors:
  0.341  0.000  0.659
  0.495  0.250  0.255
  0.165  0.750  0.086
    occupations:
  0.905 -0.050  0.029
 -0.050  0.881  0.026
  0.029  0.026  0.910
atom    6   Tr[ns(na)] =   5.36491
    eigenvalues: 
  0.818  0.921  0.944
    eigenvectors:
  0.342  0.000  0.658
  0.494  0.248  0.258
  0.164  0.752  0.084
    occupations:
  0.901  0.052  0.030
  0.052  0.876 -0.026
  0.030 -0.026  0.906
atom    7   Tr[ns(na)] =   5.36491
    eigenvalues: 
  0.818  0.921  0.944
    eigenvectors:
  0.342  0.000  0.658
  0.000  1.000  0.000
  0.658  0.000  0.342
    occupations:
  0.901  0.000 -0.060
  0.000  0.921  0.000
 -0.060  0.000  0.861
atom    8   Tr[ns(na)] =   5.36477
    eigenvalues: 
  0.818  0.921  0.944
    eigenvectors:
  0.342  0.000  0.658
  0.494  0.250  0.256
  0.164  0.750  0.086
    occupations:
  0.901 -0.052  0.030
 -0.052  0.876  0.026
  0.030  0.026  0.906
atom    9   Tr[ns(na)] =   5.36504
    eigenvalues: 
  0.818  0.921  0.944
    eigenvectors:
  0.341  0.000  0.658
  0.493  0.249  0.257
  0.165  0.751  0.084
    occupations:
  0.901  0.052  0.030
  0.052  0.876 -0.026
  0.030 -0.026  0.906
atom   10   Tr[ns(na)] =   5.36505
    eigenvalues: 
  0.818  0.921  0.944
    eigenvectors:
  0.341  0.000  0.659
  0.000  1.000  0.000
  0.659  0.000  0.341
    occupations:
  0.901  0.000 -0.060
  0.000  0.921  0.000
 -0.060  0.000  0.861
N of occupied +U levels =  56.3383946
 --- exit write_ns ---
 --- in v_hubbard ---
Hubbard energy    0.5809
 -------

     total cpu time spent up to now is       86.9 secs

     total energy              =    -537.80424634 Ry
     Harris-Foulkes estimate   =    -537.82324646 Ry
     estimated scf accuracy    <       0.08244174 Ry

     iteration #  2     ecut=    30.00 Ry     beta=0.20
     Davidson diagonalization with overlap
     ethr =  1.08E-04,  avg # of iterations =  1.5
 --- enter write_ns ---
 LDA+U parameters:
U( 1)     =  7.00000000
alpha( 1) =  0.00000000
U( 2)     =  0.00000000
alpha( 2) =  0.00000000
U( 3)     =  0.00000000
alpha( 3) = -0.15000000
U( 4)     =  0.00000000
alpha( 4) =  0.00000000
atom    1   Tr[ns(na)] =   8.02146
    eigenvalues: 
  0.509  0.511  0.996  0.996  0.999
    eigenvectors:
  0.000  0.000  0.000  0.000  1.000
  0.558  0.098  0.216  0.129  0.000
  0.098  0.558  0.129  0.216  0.000
  0.171  0.174  0.488  0.167  0.000
  0.174  0.171  0.167  0.488  0.000
    occupations:
  0.999  0.000  0.000  0.000  0.000
  0.000  0.677  0.000 -0.087  0.214
  0.000  0.000  0.678  0.214  0.086
  0.000 -0.087  0.214  0.828  0.000
  0.000  0.214  0.086  0.000  0.828
atom    2   Tr[ns(na)] =   8.02102
    eigenvalues: 
  0.509  0.510  0.996  0.996  0.999
    eigenvectors:
  0.000  0.000  0.000  0.000  1.000
  0.416  0.240  0.276  0.069  0.000
  0.240  0.416  0.069  0.276  0.000
  0.024  0.320  0.004  0.651  0.000
  0.320  0.024  0.651  0.004  0.000
    occupations:
  0.999  0.000  0.000  0.000  0.000
  0.000  0.677  0.001  0.086  0.215
  0.000  0.001  0.677  0.214 -0.086
  0.000  0.086  0.214  0.829  0.000
  0.000  0.215 -0.086  0.000  0.828
atom    3   Tr[ns(na)] =   3.78072
    eigenvalues: 
  0.354  0.355  0.380  0.401  0.401
    eigenvectors:
  0.000  0.000  1.000  0.000  0.000
  0.224  0.695  0.000  0.065  0.016
  0.695  0.224  0.000  0.016  0.065
  0.061  0.020  0.000  0.187  0.732
  0.020  0.061  0.000  0.732  0.187
    occupations:
  0.380  0.000  0.000  0.000  0.000
  0.000  0.358  0.000  0.000  0.013
  0.000  0.000  0.358  0.013  0.000
  0.000  0.000  0.013  0.397  0.000
  0.000  0.013  0.000  0.000  0.397
atom    4   Tr[ns(na)] =   3.78089
    eigenvalues: 
  0.354  0.355  0.380  0.401  0.401
    eigenvectors:
  0.000  0.000  1.000  0.000  0.000
  0.678  0.242  0.000  0.061  0.019
  0.243  0.677  0.000  0.018  0.062
  0.021  0.059  0.000  0.218  0.702
  0.057  0.022  0.000  0.703  0.218
    occupations:
  0.380  0.000  0.000  0.000  0.000
  0.000  0.358  0.000  0.000  0.012
  0.000  0.000  0.358  0.013  0.000
  0.000  0.000  0.013  0.397  0.000
  0.000  0.012  0.000  0.000  0.397
atom    5   Tr[ns(na)] =   5.45735
    eigenvalues: 
  0.844  0.934  0.951
    eigenvectors:
  0.335  0.000  0.665
  0.498  0.252  0.251
  0.167  0.748  0.084
    occupations:
  0.915 -0.043  0.025
 -0.043  0.893  0.023
  0.025  0.023  0.920
atom    6   Tr[ns(na)] =   5.44943
    eigenvalues: 
  0.842  0.932  0.950
    eigenvectors:
  0.335  0.000  0.665
  0.501  0.247  0.252
  0.165  0.753  0.083
    occupations:
  0.914  0.044  0.025
  0.044  0.892 -0.023
  0.025 -0.023  0.919
atom    7   Tr[ns(na)] =   5.44943
    eigenvalues: 
  0.842  0.932  0.950
    eigenvectors:
  0.335  0.000  0.665
  0.000  1.000  0.000
  0.665  0.000  0.335
    occupations:
  0.914  0.000 -0.051
  0.000  0.932  0.000
 -0.051  0.000  0.878
atom    8   Tr[ns(na)] =   5.45073
    eigenvalues: 
  0.843  0.933  0.950
    eigenvectors:
  0.335  0.000  0.665
  0.498  0.252  0.251
  0.167  0.748  0.084
    occupations:
  0.914 -0.044  0.025
 -0.044  0.892  0.023
  0.025  0.023  0.919
atom    9   Tr[ns(na)] =   5.44917
    eigenvalues: 
  0.842  0.932  0.950
    eigenvectors:
  0.335  0.000  0.665
  0.499  0.248  0.253
  0.165  0.752  0.083
    occupations:
  0.914  0.044  0.025
  0.044  0.892 -0.023
  0.025 -0.023  0.919
atom   10   Tr[ns(na)] =   5.44918
    eigenvalues: 
  0.842  0.932  0.950
    eigenvectors:
  0.335  0.000  0.665
  0.000  1.000  0.000
  0.665  0.000  0.335
    occupations:
  0.914  0.000 -0.051
  0.000  0.932  0.000
 -0.051  0.000  0.878
N of occupied +U levels =  56.3093723
 --- exit write_ns ---
 --- in v_hubbard ---
Hubbard energy    0.5689
 -------

     total cpu time spent up to now is      108.4 secs

     total energy              =    -537.82201536 Ry
     Harris-Foulkes estimate   =    -537.82174984 Ry
     estimated scf accuracy    <       0.04976678 Ry

     iteration #  3     ecut=    30.00 Ry     beta=0.20
     Davidson diagonalization with overlap
     ethr =  6.55E-05,  avg # of iterations =  1.0
 --- enter write_ns ---
 LDA+U parameters:
U( 1)     =  7.00000000
alpha( 1) =  0.00000000
U( 2)     =  0.00000000
alpha( 2) =  0.00000000
U( 3)     =  0.00000000
alpha( 3) = -0.15000000
U( 4)     =  0.00000000
alpha( 4) =  0.00000000
atom    1   Tr[ns(na)] =   8.07013
    eigenvalues: 
  0.521  0.523  0.996  0.996  0.999
    eigenvectors:
  0.000  0.000  0.000  0.000  1.000
  0.558  0.098  0.214  0.130  0.000
  0.098  0.558  0.131  0.214  0.000
  0.171  0.174  0.491  0.164  0.000
  0.174  0.170  0.164  0.492  0.000
    occupations:
  0.999  0.000  0.000  0.000  0.000
  0.000  0.685  0.000 -0.085  0.209
  0.000  0.000  0.686  0.209  0.084
  0.000 -0.085  0.209  0.833  0.000
  0.000  0.209  0.084  0.000  0.833
atom    2   Tr[ns(na)] =   8.06768
    eigenvalues: 
  0.520  0.522  0.996  0.996  0.999
    eigenvectors:
  0.000  0.000  0.000  0.000  1.000
  0.416  0.239  0.285  0.060  0.000
  0.239  0.416  0.060  0.285  0.000
  0.024  0.320  0.002  0.654  0.000
  0.320  0.024  0.654  0.002  0.000
    occupations:
  0.999  0.000  0.000  0.000  0.000
  0.000  0.685  0.001  0.084  0.210
  0.000  0.001  0.685  0.209 -0.084
  0.000  0.084  0.209  0.833  0.000
  0.000  0.210 -0.084  0.000  0.832
atom    3   Tr[ns(na)] =   3.78247
    eigenvalues: 
  0.355  0.355  0.380  0.401  0.401
    eigenvectors:
  0.000  0.000  1.000  0.000  0.000
  0.228  0.691  0.000  0.065  0.015
  0.691  0.228  0.000  0.015  0.065
  0.060  0.021  0.000  0.179  0.740
  0.021  0.060  0.000  0.740  0.179
    occupations:
  0.380  0.000  0.000  0.000  0.000
  0.000  0.359  0.000  0.000  0.012
  0.000  0.000  0.359  0.012  0.000
  0.000  0.000  0.012  0.397  0.000
  0.000  0.012  0.000  0.000  0.397
atom    4   Tr[ns(na)] =   3.78255
    eigenvalues: 
  0.355  0.355  0.380  0.401  0.401
    eigenvectors:
  0.000  0.000  1.000  0.000  0.000
  0.686  0.235  0.000  0.061  0.018
  0.236  0.684  0.000  0.018  0.062
  0.021  0.059  0.000  0.219  0.702
  0.058  0.021  0.000  0.703  0.218
    occupations:
  0.380  0.000  0.000  0.000  0.000
  0.000  0.359  0.000  0.000  0.012
  0.000  0.000  0.359  0.012  0.000
  0.000  0.000  0.012  0.397  0.000
  0.000  0.012  0.000  0.000  0.397
atom    5   Tr[ns(na)] =   5.44256
    eigenvalues: 
  0.840  0.932  0.950
    eigenvectors:
  0.336  0.000  0.664
  0.497  0.251  0.252
  0.167  0.749  0.085
    occupations:
  0.913 -0.045  0.026
 -0.045  0.891  0.024
  0.026  0.024  0.918
atom    6   Tr[ns(na)] =   5.43389
    eigenvalues: 
  0.837  0.930  0.949
    eigenvectors:
  0.336  0.000  0.664
  0.499  0.248  0.253
  0.165  0.752  0.083
    occupations:
  0.912  0.046  0.026
  0.046  0.889 -0.024
  0.026 -0.024  0.917
atom    7   Tr[ns(na)] =   5.43389
    eigenvalues: 
  0.837  0.930  0.949
    eigenvectors:
  0.336  0.000  0.664
  0.000  1.000  0.000
  0.664  0.000  0.336
    occupations:
  0.912  0.000 -0.053
  0.000  0.930  0.000
 -0.053  0.000  0.875
atom    8   Tr[ns(na)] =   5.43500
    eigenvalues: 
  0.838  0.931  0.949
    eigenvectors:
  0.336  0.000  0.664
  0.497  0.251  0.252
  0.167  0.749  0.085
    occupations:
  0.912 -0.046  0.026
 -0.046  0.889  0.024
  0.026  0.024  0.917
atom    9   Tr[ns(na)] =   5.43372
    eigenvalues: 
  0.837  0.930  0.949
    eigenvectors:
  0.337  0.000  0.663
  0.498  0.248  0.254
  0.165  0.752  0.083
    occupations:
  0.911  0.046  0.026
  0.046  0.889 -0.024
  0.026 -0.024  0.917
atom   10   Tr[ns(na)] =   5.43372
    eigenvalues: 
  0.837  0.930  0.949
    eigenvectors:
  0.337  0.000  0.663
  0.000  1.000  0.000
  0.663  0.000  0.337
    occupations:
  0.911  0.000 -0.053
  0.000  0.930  0.000
 -0.053  0.000  0.875
N of occupied +U levels =  56.3156103
 --- exit write_ns ---
 --- in v_hubbard ---
Hubbard energy    0.4589
 -------

     total cpu time spent up to now is      129.8 secs

     total energy              =    -537.83151967 Ry
     Harris-Foulkes estimate   =    -537.82301309 Ry
     estimated scf accuracy    <       0.02247301 Ry

     iteration #  4     ecut=    30.00 Ry     beta=0.20
     Davidson diagonalization with overlap
     ethr =  2.96E-05,  avg # of iterations =  2.0
 --- enter write_ns ---
 LDA+U parameters:
U( 1)     =  7.00000000
alpha( 1) =  0.00000000
U( 2)     =  0.00000000
alpha( 2) =  0.00000000
U( 3)     =  0.00000000
alpha( 3) = -0.15000000
U( 4)     =  0.00000000
alpha( 4) =  0.00000000
atom    1   Tr[ns(na)] =   8.08672
    eigenvalues: 
  0.523  0.525  0.998  0.998  1.000
    eigenvectors:
  0.000  0.000  0.000  0.000  1.000
  0.561  0.097  0.223  0.119  0.000
  0.097  0.561  0.119  0.223  0.000
  0.171  0.171  0.478  0.180  0.000
  0.171  0.171  0.180  0.478  0.000
    occupations:
  1.000  0.000  0.000  0.000  0.000
  0.000  0.685  0.000 -0.086  0.208
  0.000  0.000  0.687  0.208  0.085
  0.000 -0.086  0.208  0.836  0.000
  0.000  0.208  0.085  0.000  0.836
atom    2   Tr[ns(na)] =   8.08281
    eigenvalues: 
  0.522  0.524  0.998  0.998  1.000
    eigenvectors:
  0.000  0.000  0.000  0.000  1.000
  0.416  0.242  0.276  0.066  0.000
  0.242  0.416  0.065  0.276  0.000
  0.023  0.319  0.003  0.655  0.000
  0.319  0.023  0.655  0.003  0.000
    occupations:
  1.000  0.000  0.000  0.000  0.000
  0.000  0.685  0.001  0.085  0.209
  0.000  0.001  0.685  0.208 -0.086
  0.000  0.085  0.208  0.836  0.000
  0.000  0.209 -0.086  0.000  0.835
atom    3   Tr[ns(na)] =   3.79802
    eigenvalues: 
  0.357  0.357  0.381  0.402  0.402
    eigenvectors:
  0.000  0.000  1.000  0.000  0.000
  0.232  0.690  0.000  0.062  0.016
  0.691  0.231  0.000  0.017  0.061
  0.058  0.020  0.000  0.202  0.720
  0.020  0.058  0.000  0.719  0.203
    occupations:
  0.381  0.000  0.000  0.000  0.000
  0.000  0.361  0.000  0.000  0.012
  0.000  0.000  0.360  0.012  0.000
  0.000  0.000  0.012  0.398  0.000
  0.000  0.012  0.000  0.000  0.398
atom    4   Tr[ns(na)] =   3.79809
    eigenvalues: 
  0.357  0.357  0.381  0.402  0.402
    eigenvectors:
  0.000  0.000  1.000  0.000  0.000
  0.697  0.228  0.000  0.058  0.017
  0.228  0.695  0.000  0.017  0.060
  0.019  0.058  0.000  0.213  0.710
  0.056  0.020  0.000  0.712  0.212
    occupations:
  0.381  0.000  0.000  0.000  0.000
  0.000  0.360  0.000  0.000  0.012
  0.000  0.000  0.361  0.012  0.000
  0.000  0.000  0.012  0.398  0.000
  0.000  0.012  0.000  0.000  0.398
atom    5   Tr[ns(na)] =   5.43236
    eigenvalues: 
  0.837  0.931  0.948
    eigenvectors:
  0.337  0.000  0.663
  0.497  0.251  0.252
  0.166  0.749  0.085
    occupations:
  0.911 -0.045  0.026
 -0.045  0.889  0.024
  0.026  0.024  0.917
atom    6   Tr[ns(na)] =   5.42070
    eigenvalues: 
  0.834  0.929  0.947
    eigenvectors:
  0.337  0.000  0.663
  0.498  0.248  0.254
  0.165  0.752  0.083
    occupations:
  0.909  0.047  0.027
  0.047  0.886 -0.024
  0.027 -0.024  0.915
atom    7   Tr[ns(na)] =   5.42071
    eigenvalues: 
  0.834  0.929  0.947
    eigenvectors:
  0.337  0.000  0.663
  0.000  1.000  0.000
  0.663  0.000  0.337
    occupations:
  0.909  0.000 -0.054
  0.000  0.929  0.000
 -0.054  0.000  0.872
atom    8   Tr[ns(na)] =   5.42011
    eigenvalues: 
  0.834  0.929  0.947
    eigenvectors:
  0.337  0.000  0.663
  0.496  0.251  0.252
  0.166  0.749  0.085
    occupations:
  0.909 -0.046  0.027
 -0.046  0.886  0.025
  0.027  0.025  0.915
atom    9   Tr[ns(na)] =   5.42096
    eigenvalues: 
  0.834  0.929  0.947
    eigenvectors:
  0.337  0.000  0.663
  0.497  0.248  0.254
  0.165  0.752  0.083
    occupations:
  0.909  0.046  0.027
  0.046  0.886 -0.025
  0.027 -0.025  0.915
atom   10   Tr[ns(na)] =   5.42096
    eigenvalues: 
  0.834  0.929  0.947
    eigenvectors:
  0.337  0.000  0.663
  0.000  1.000  0.000
  0.663  0.000  0.337
    occupations:
  0.909  0.000 -0.054
  0.000  0.929  0.000
 -0.054  0.000  0.872
N of occupied +U levels =  56.3014311
 --- exit write_ns ---
 --- in v_hubbard ---
Hubbard energy    0.4538
 -------

     total cpu time spent up to now is      152.9 secs

     total energy              =    -537.83334518 Ry
     Harris-Foulkes estimate   =    -537.83374021 Ry
     estimated scf accuracy    <       0.00280982 Ry

     iteration #  5     ecut=    30.00 Ry     beta=0.20
     Davidson diagonalization with overlap
     ethr =  3.70E-06,  avg # of iterations =  1.1
 --- enter write_ns ---
 LDA+U parameters:
U( 1)     =  7.00000000
alpha( 1) =  0.00000000
U( 2)     =  0.00000000
alpha( 2) =  0.00000000
U( 3)     =  0.00000000
alpha( 3) = -0.15000000
U( 4)     =  0.00000000
alpha( 4) =  0.00000000
atom    1   Tr[ns(na)] =   8.05564
    eigenvalues: 
  0.515  0.517  0.998  0.998  1.000
    eigenvectors:
  0.000  0.000  0.000  0.000  1.000
  0.561  0.097  0.233  0.108  0.000
  0.097  0.561  0.109  0.233  0.000
  0.172  0.170  0.460  0.197  0.000
  0.170  0.171  0.198  0.461  0.000
    occupations:
  1.000  0.000  0.000  0.000  0.000
  0.000  0.680  0.000 -0.088  0.211
  0.000  0.000  0.681  0.211  0.087
  0.000 -0.088  0.211  0.833  0.000
  0.000  0.211  0.087  0.000  0.833
atom    2   Tr[ns(na)] =   8.05175
    eigenvalues: 
  0.514  0.516  0.998  0.998  1.000
    eigenvectors:
  0.000  0.000  0.000  0.000  1.000
  0.416  0.242  0.279  0.063  0.000
  0.242  0.416  0.063  0.278  0.000
  0.023  0.319  0.002  0.656  0.000
  0.319  0.023  0.656  0.002  0.000
    occupations:
  1.000  0.000  0.000  0.000  0.000
  0.000  0.680  0.001  0.087  0.213
  0.000  0.001  0.680  0.212 -0.087
  0.000  0.087  0.212  0.833  0.000
  0.000  0.213 -0.087  0.000  0.833
atom    3   Tr[ns(na)] =   3.79631
    eigenvalues: 
  0.357  0.357  0.381  0.402  0.402
    eigenvectors:
  0.000  0.000  1.000  0.000  0.000
  0.229  0.693  0.000  0.062  0.017
  0.693  0.229  0.000  0.017  0.061
  0.058  0.020  0.000  0.206  0.716
  0.020  0.058  0.000  0.716  0.206
    occupations:
  0.381  0.000  0.000  0.000  0.000
  0.000  0.360  0.000  0.000  0.012
  0.000  0.000  0.360  0.012  0.000
  0.000  0.000  0.012  0.398  0.000
  0.000  0.012  0.000  0.000  0.398
atom    4   Tr[ns(na)] =   3.79638
    eigenvalues: 
  0.357  0.357  0.381  0.402  0.402
    eigenvectors:
  0.000  0.000  1.000  0.000  0.000
  0.685  0.239  0.000  0.058  0.018
  0.239  0.683  0.000  0.018  0.060
  0.020  0.057  0.000  0.225  0.698
  0.056  0.021  0.000  0.699  0.224
    occupations:
  0.381  0.000  0.000  0.000  0.000
  0.000  0.360  0.000  0.000  0.012
  0.000  0.000  0.360  0.012  0.000
  0.000  0.000  0.012  0.398  0.000
  0.000  0.012  0.000  0.000  0.398
atom    5   Tr[ns(na)] =   5.44041
    eigenvalues: 
  0.840  0.932  0.949
    eigenvectors:
  0.336  0.000  0.664
  0.497  0.251  0.252
  0.167  0.749  0.085
    occupations:
  0.912 -0.045  0.026
 -0.045  0.890  0.024
  0.026  0.024  0.918
atom    6   Tr[ns(na)] =   5.43068
    eigenvalues: 
  0.837  0.930  0.948
    eigenvectors:
  0.336  0.000  0.664
  0.499  0.248  0.254
  0.165  0.752  0.083
    occupations:
  0.911  0.046  0.026
  0.046  0.888 -0.024
  0.026 -0.024  0.916
atom    7   Tr[ns(na)] =   5.43068
    eigenvalues: 
  0.837  0.930  0.948
    eigenvectors:
  0.336  0.000  0.664
  0.000  1.000  0.000
  0.664  0.000  0.336
    occupations:
  0.911  0.000 -0.053
  0.000  0.930  0.000
 -0.053  0.000  0.874
atom    8   Tr[ns(na)] =   5.43109
    eigenvalues: 
  0.837  0.930  0.948
    eigenvectors:
  0.336  0.000  0.664
  0.497  0.251  0.252
  0.167  0.749  0.085
    occupations:
  0.911 -0.045  0.026
 -0.045  0.888  0.024
  0.026  0.024  0.916
atom    9   Tr[ns(na)] =   5.43068
    eigenvalues: 
  0.837  0.930  0.948
    eigenvectors:
  0.337  0.000  0.663
  0.498  0.248  0.254
  0.165  0.752  0.083
    occupations:
  0.911  0.046  0.026
  0.046  0.888 -0.024
  0.026 -0.024  0.916
atom   10   Tr[ns(na)] =   5.43067
    eigenvalues: 
  0.837  0.930  0.948
    eigenvectors:
  0.337  0.000  0.663
  0.000  1.000  0.000
  0.663  0.000  0.337
    occupations:
  0.911  0.000 -0.053
  0.000  0.930  0.000
 -0.053  0.000  0.874
N of occupied +U levels =  56.2942939
 --- exit write_ns ---
 --- in v_hubbard ---
Hubbard energy    0.4546
 -------

     total cpu time spent up to now is      174.2 secs

     total energy              =    -537.83373123 Ry
     Harris-Foulkes estimate   =    -537.83364855 Ry
     estimated scf accuracy    <       0.00029334 Ry

     iteration #  6     ecut=    30.00 Ry     beta=0.20
     Davidson diagonalization with overlap
     ethr =  3.86E-07,  avg # of iterations =  2.5
 --- enter write_ns ---
 LDA+U parameters:
U( 1)     =  7.00000000
alpha( 1) =  0.00000000
U( 2)     =  0.00000000
alpha( 2) =  0.00000000
U( 3)     =  0.00000000
alpha( 3) = -0.15000000
U( 4)     =  0.00000000
alpha( 4) =  0.00000000
atom    1   Tr[ns(na)] =   8.04868
    eigenvalues: 
  0.513  0.515  0.998  0.998  1.000
    eigenvectors:
  0.000  0.000  0.000  0.000  1.000
  0.561  0.097  0.233  0.109  0.000
  0.097  0.561  0.109  0.233  0.000
  0.172  0.170  0.463  0.195  0.000
  0.170  0.172  0.195  0.463  0.000
    occupations:
  1.000  0.000  0.000  0.000  0.000
  0.000  0.679  0.000 -0.089  0.212
  0.000  0.000  0.680  0.212  0.088
  0.000 -0.089  0.212  0.832  0.000
  0.000  0.212  0.088  0.000  0.833
atom    2   Tr[ns(na)] =   8.04784
    eigenvalues: 
  0.512  0.515  0.998  0.998  1.000
    eigenvectors:
  0.000  0.000  0.000  0.000  1.000
  0.415  0.243  0.277  0.065  0.000
  0.243  0.415  0.065  0.277  0.000
  0.023  0.319  0.002  0.656  0.000
  0.319  0.023  0.656  0.002  0.000
    occupations:
  1.000  0.000  0.000  0.000  0.000
  0.000  0.679  0.001  0.088  0.213
  0.000  0.001  0.679  0.212 -0.088
  0.000  0.088  0.212  0.833  0.000
  0.000  0.213 -0.088  0.000  0.832
atom    3   Tr[ns(na)] =   3.78794
    eigenvalues: 
  0.356  0.356  0.381  0.401  0.401
    eigenvectors:
  0.000  0.000  1.000  0.000  0.000
  0.228  0.692  0.000  0.065  0.014
  0.692  0.228  0.000  0.014  0.066
  0.059  0.020  0.000  0.171  0.750
  0.020  0.059  0.000  0.750  0.171
    occupations:
  0.381  0.000  0.000  0.000  0.000
  0.000  0.359  0.000  0.000  0.012
  0.000  0.000  0.359  0.012  0.000
  0.000  0.000  0.012  0.397  0.000
  0.000  0.012  0.000  0.000  0.397
atom    4   Tr[ns(na)] =   3.78796
    eigenvalues: 
  0.356  0.356  0.380  0.401  0.401
    eigenvectors:
  0.000  0.000  1.000  0.000  0.000
  0.195  0.726  0.000  0.059  0.019
  0.725  0.196  0.000  0.019  0.060
  0.062  0.017  0.000  0.230  0.691
  0.017  0.061  0.000  0.692  0.229
    occupations:
  0.380  0.000  0.000  0.000  0.000
  0.000  0.359  0.000  0.000  0.012
  0.000  0.000  0.359  0.012  0.000
  0.000  0.000  0.012  0.398  0.000
  0.000  0.012  0.000  0.000  0.398
atom    5   Tr[ns(na)] =   5.44279
    eigenvalues: 
  0.840  0.932  0.949
    eigenvectors:
  0.336  0.000  0.664
  0.497  0.252  0.252
  0.167  0.748  0.085
    occupations:
  0.913 -0.045  0.026
 -0.045  0.891  0.024
  0.026  0.024  0.918
atom    6   Tr[ns(na)] =   5.43411
    eigenvalues: 
  0.838  0.931  0.949
    eigenvectors:
  0.336  0.000  0.664
  0.499  0.247  0.254
  0.164  0.753  0.083
    occupations:
  0.911  0.046  0.026
  0.046  0.889 -0.024
  0.026 -0.024  0.917
atom    7   Tr[ns(na)] =   5.43411
    eigenvalues: 
  0.838  0.931  0.949
    eigenvectors:
  0.336  0.000  0.664
  0.000  1.000  0.000
  0.664  0.000  0.336
    occupations:
  0.911  0.000 -0.052
  0.000  0.931  0.000
 -0.052  0.000  0.875
atom    8   Tr[ns(na)] =   5.43530
    eigenvalues: 
  0.838  0.931  0.949
    eigenvectors:
  0.337  0.000  0.663
  0.496  0.252  0.252
  0.167  0.748  0.085
    occupations:
  0.912 -0.045  0.026
 -0.045  0.889  0.024
  0.026  0.024  0.917
atom    9   Tr[ns(na)] =   5.43397
    eigenvalues: 
  0.838  0.931  0.949
    eigenvectors:
  0.337  0.000  0.663
  0.498  0.248  0.254
  0.165  0.752  0.083
    occupations:
  0.911  0.046  0.026
  0.046  0.889 -0.024
  0.026 -0.024  0.917
atom   10   Tr[ns(na)] =   5.43397
    eigenvalues: 
  0.838  0.931  0.949
    eigenvectors:
  0.337  0.000  0.663
  0.000  1.000  0.000
  0.663  0.000  0.337
    occupations:
  0.911  0.000 -0.052
  0.000  0.931  0.000
 -0.052  0.000  0.875
N of occupied +U levels =  56.2866766
 --- exit write_ns ---
 --- in v_hubbard ---
Hubbard energy    0.4546
 -------

     total cpu time spent up to now is      200.4 secs

     total energy              =    -537.83391282 Ry
     Harris-Foulkes estimate   =    -537.83380127 Ry
     estimated scf accuracy    <       0.00007110 Ry

     iteration #  7     ecut=    30.00 Ry     beta=0.20
     Davidson diagonalization with overlap
     ethr =  9.36E-08,  avg # of iterations =  1.0
 --- enter write_ns ---
 LDA+U parameters:
U( 1)     =  7.00000000
alpha( 1) =  0.00000000
U( 2)     =  0.00000000
alpha( 2) =  0.00000000
U( 3)     =  0.00000000
alpha( 3) = -0.15000000
U( 4)     =  0.00000000
alpha( 4) =  0.00000000
atom    1   Tr[ns(na)] =   8.04745
    eigenvalues: 
  0.513  0.515  0.998  0.998  1.000
    eigenvectors:
  0.000  0.000  0.000  0.000  1.000
  0.562  0.097  0.234  0.108  0.000
  0.097  0.561  0.108  0.234  0.000
  0.172  0.170  0.461  0.197  0.000
  0.170  0.172  0.197  0.461  0.000
    occupations:
  1.000  0.000  0.000  0.000  0.000
  0.000  0.679  0.000 -0.089  0.212
  0.000  0.000  0.680  0.212  0.088
  0.000 -0.089  0.212  0.832  0.000
  0.000  0.212  0.088  0.000  0.833
atom    2   Tr[ns(na)] =   8.04389
    eigenvalues: 
  0.511  0.514  0.998  0.998  1.000
    eigenvectors:
  0.000  0.000  0.000  0.000  1.000
  0.415  0.243  0.276  0.066  0.000
  0.243  0.415  0.065  0.276  0.000
  0.023  0.319  0.002  0.656  0.000
  0.319  0.023  0.656  0.002  0.000
    occupations:
  1.000  0.000  0.000  0.000  0.000
  0.000  0.678  0.001  0.088  0.213
  0.000  0.001  0.679  0.213 -0.089
  0.000  0.088  0.213  0.833  0.000
  0.000  0.213 -0.089  0.000  0.832
atom    3   Tr[ns(na)] =   3.78865
    eigenvalues: 
  0.356  0.356  0.381  0.401  0.401
    eigenvectors:
  0.000  0.000  1.000  0.000  0.000
  0.229  0.692  0.000  0.064  0.016
  0.692  0.229  0.000  0.016  0.064
  0.059  0.020  0.000  0.191  0.729
  0.020  0.059  0.000  0.729  0.191
    occupations:
  0.381  0.000  0.000  0.000  0.000
  0.000  0.359  0.000  0.000  0.012
  0.000  0.000  0.359  0.012  0.000
  0.000  0.000  0.012  0.398  0.000
  0.000  0.012  0.000  0.000  0.398
atom    4   Tr[ns(na)] =   3.78868
    eigenvalues: 
  0.356  0.356  0.380  0.401  0.401
    eigenvectors:
  0.000  0.000  1.000  0.000  0.000
  0.637  0.285  0.000  0.059  0.019
  0.285  0.636  0.000  0.019  0.060
  0.025  0.054  0.000  0.231  0.690
  0.053  0.025  0.000  0.691  0.231
    occupations:
  0.380  0.000  0.000  0.000  0.000
  0.000  0.359  0.000  0.000  0.012
  0.000  0.000  0.359  0.012  0.000
  0.000  0.000  0.012  0.398  0.000
  0.000  0.012  0.000  0.000  0.398
atom    5   Tr[ns(na)] =   5.44359
    eigenvalues: 
  0.841  0.932  0.949
    eigenvectors:
  0.336  0.000  0.664
  0.497  0.251  0.252
  0.167  0.749  0.085
    occupations:
  0.913 -0.044  0.026
 -0.044  0.891  0.024
  0.026  0.024  0.918
atom    6   Tr[ns(na)] =   5.43471
    eigenvalues: 
  0.838  0.931  0.949
    eigenvectors:
  0.336  0.000  0.664
  0.499  0.248  0.254
  0.165  0.752  0.083
    occupations:
  0.911  0.045  0.026
  0.045  0.889 -0.024
  0.026 -0.024  0.917
atom    7   Tr[ns(na)] =   5.43471
    eigenvalues: 
  0.838  0.931  0.949
    eigenvectors:
  0.336  0.000  0.664
  0.000  1.000  0.000
  0.664  0.000  0.336
    occupations:
  0.911  0.000 -0.052
  0.000  0.931  0.000
 -0.052  0.000  0.875
atom    8   Tr[ns(na)] =   5.43571
    eigenvalues: 
  0.838  0.931  0.949
    eigenvectors:
  0.337  0.000  0.663
  0.497  0.251  0.252
  0.167  0.749  0.085
    occupations:
  0.912 -0.045  0.026
 -0.045  0.889  0.024
  0.026  0.024  0.917
atom    9   Tr[ns(na)] =   5.43459
    eigenvalues: 
  0.838  0.931  0.949
    eigenvectors:
  0.337  0.000  0.663
  0.498  0.248  0.254
  0.165  0.752  0.083
    occupations:
  0.911  0.045  0.026
  0.045  0.889 -0.024
  0.026 -0.024  0.917
atom   10   Tr[ns(na)] =   5.43459
    eigenvalues: 
  0.838  0.931  0.949
    eigenvectors:
  0.337  0.000  0.663
  0.000  1.000  0.000
  0.663  0.000  0.337
    occupations:
  0.911  0.000 -0.052
  0.000  0.931  0.000
 -0.052  0.000  0.875
N of occupied +U levels =  56.2865691
 --- exit write_ns ---
 --- in v_hubbard ---
Hubbard energy    0.4558
 -------

     total cpu time spent up to now is      221.3 secs

     total energy              =    -537.83398520 Ry
     Harris-Foulkes estimate   =    -537.83391610 Ry
     estimated scf accuracy    <       0.00006735 Ry

     iteration #  8     ecut=    30.00 Ry     beta=0.20
     Davidson diagonalization with overlap
     ethr =  8.86E-08,  avg # of iterations =  2.0
 --- enter write_ns ---
 LDA+U parameters:
U( 1)     =  7.00000000
alpha( 1) =  0.00000000
U( 2)     =  0.00000000
alpha( 2) =  0.00000000
U( 3)     =  0.00000000
alpha( 3) = -0.15000000
U( 4)     =  0.00000000
alpha( 4) =  0.00000000
atom    1   Tr[ns(na)] =   8.04564
    eigenvalues: 
  0.512  0.514  0.998  0.998  1.000
    eigenvectors:
  0.000  0.000  0.000  0.000  1.000
  0.562  0.096  0.236  0.105  0.000
  0.096  0.562  0.106  0.236  0.000
  0.173  0.169  0.458  0.200  0.000
  0.169  0.172  0.200  0.458  0.000
    occupations:
  1.000  0.000  0.000  0.000  0.000
  0.000  0.678  0.000 -0.090  0.212
  0.000  0.000  0.680  0.212  0.089
  0.000 -0.090  0.212  0.832  0.000
  0.000  0.212  0.089  0.000  0.832
atom    2   Tr[ns(na)] =   8.04346
    eigenvalues: 
  0.511  0.514  0.998  0.998  1.000
    eigenvectors:
  0.000  0.000  0.000  0.000  1.000
  0.414  0.244  0.275  0.067  0.000
  0.244  0.415  0.067  0.275  0.000
  0.022  0.319  0.003  0.656  0.000
  0.319  0.022  0.655  0.003  0.000
    occupations:
  1.000  0.000  0.000  0.000  0.000
  0.000  0.678  0.001  0.088  0.213
  0.000  0.001  0.679  0.212 -0.089
  0.000  0.088  0.212  0.833  0.000
  0.000  0.213 -0.089  0.000  0.832
atom    3   Tr[ns(na)] =   3.79111
    eigenvalues: 
  0.356  0.356  0.381  0.401  0.401
    eigenvectors:
  0.000  0.000  1.000  0.000  0.000
  0.228  0.692  0.000  0.061  0.018
  0.692  0.228  0.000  0.018  0.061
  0.059  0.020  0.000  0.221  0.699
  0.020  0.059  0.000  0.699  0.221
    occupations:
  0.381  0.000  0.000  0.000  0.000
  0.000  0.360  0.000  0.000  0.012
  0.000  0.000  0.360  0.012  0.000
  0.000  0.000  0.012  0.398  0.000
  0.000  0.012  0.000  0.000  0.398
atom    4   Tr[ns(na)] =   3.79117
    eigenvalues: 
  0.356  0.356  0.381  0.401  0.401
    eigenvectors:
  0.000  0.000  1.000  0.000  0.000
  0.680  0.242  0.000  0.058  0.020
  0.243  0.678  0.000  0.019  0.060
  0.021  0.058  0.000  0.235  0.686
  0.056  0.021  0.000  0.688  0.235
    occupations:
  0.381  0.000  0.000  0.000  0.000
  0.000  0.360  0.000  0.000  0.012
  0.000  0.000  0.360  0.012  0.000
  0.000  0.000  0.012  0.398  0.000
  0.000  0.012  0.000  0.000  0.398
atom    5   Tr[ns(na)] =   5.44383
    eigenvalues: 
  0.841  0.932  0.949
    eigenvectors:
  0.336  0.000  0.664
  0.497  0.251  0.252
  0.167  0.749  0.085
    occupations:
  0.913 -0.044  0.026
 -0.044  0.891  0.024
  0.026  0.024  0.918
atom    6   Tr[ns(na)] =   5.43432
    eigenvalues: 
  0.838  0.931  0.949
    eigenvectors:
  0.336  0.000  0.664
  0.499  0.247  0.254
  0.165  0.753  0.083
    occupations:
  0.911  0.045  0.026
  0.045  0.889 -0.024
  0.026 -0.024  0.917
atom    7   Tr[ns(na)] =   5.43433
    eigenvalues: 
  0.838  0.931  0.949
    eigenvectors:
  0.336  0.000  0.664
  0.000  1.000  0.000
  0.664  0.000  0.336
    occupations:
  0.911  0.000 -0.052
  0.000  0.931  0.000
 -0.052  0.000  0.875
atom    8   Tr[ns(na)] =   5.43494
    eigenvalues: 
  0.838  0.931  0.949
    eigenvectors:
  0.337  0.000  0.663
  0.497  0.252  0.252
  0.167  0.748  0.085
    occupations:
  0.911 -0.045  0.026
 -0.045  0.889  0.024
  0.026  0.024  0.917
atom    9   Tr[ns(na)] =   5.43428
    eigenvalues: 
  0.838  0.931  0.949
    eigenvectors:
  0.337  0.000  0.663
  0.498  0.248  0.254
  0.165  0.752  0.083
    occupations:
  0.911  0.045  0.026
  0.045  0.889 -0.024
  0.026 -0.024  0.917
atom   10   Tr[ns(na)] =   5.43428
    eigenvalues: 
  0.838  0.931  0.949
    eigenvectors:
  0.337  0.000  0.663
  0.000  1.000  0.000
  0.663  0.000  0.337
    occupations:
  0.911  0.000 -0.052
  0.000  0.931  0.000
 -0.052  0.000  0.875
N of occupied +U levels =  56.2873521
 --- exit write_ns ---
 --- in v_hubbard ---
Hubbard energy    0.4573
 -------

     total cpu time spent up to now is      243.7 secs

     total energy              =    -537.83403941 Ry
     Harris-Foulkes estimate   =    -537.83399140 Ry
     estimated scf accuracy    <       0.00003052 Ry

     iteration #  9     ecut=    30.00 Ry     beta=0.20
     Davidson diagonalization with overlap
     ethr =  4.02E-08,  avg # of iterations =  1.9
 --- enter write_ns ---
 LDA+U parameters:
U( 1)     =  7.00000000
alpha( 1) =  0.00000000
U( 2)     =  0.00000000
alpha( 2) =  0.00000000
U( 3)     =  0.00000000
alpha( 3) = -0.15000000
U( 4)     =  0.00000000
alpha( 4) =  0.00000000
atom    1   Tr[ns(na)] =   8.04908
    eigenvalues: 
  0.513  0.515  0.998  0.998  1.000
    eigenvectors:
  0.000  0.000  0.000  0.000  1.000
  0.562  0.096  0.237  0.105  0.000
  0.096  0.562  0.105  0.237  0.000
  0.173  0.169  0.457  0.201  0.000
  0.169  0.173  0.201  0.457  0.000
    occupations:
  1.000  0.000  0.000  0.000  0.000
  0.000  0.679  0.000 -0.090  0.212
  0.000  0.000  0.680  0.211  0.089
  0.000 -0.090  0.211  0.832  0.000
  0.000  0.212  0.089  0.000  0.833
atom    2   Tr[ns(na)] =   8.04582
    eigenvalues: 
  0.512  0.514  0.998  0.998  1.000
    eigenvectors:
  0.000  0.000  0.000  0.000  1.000
  0.414  0.244  0.274  0.068  0.000
  0.244  0.414  0.068  0.274  0.000
  0.022  0.320  0.003  0.655  0.000
  0.320  0.022  0.655  0.003  0.000
    occupations:
  1.000  0.000  0.000  0.000  0.000
  0.000  0.679  0.001  0.088  0.213
  0.000  0.001  0.679  0.212 -0.089
  0.000  0.088  0.212  0.833  0.000
  0.000  0.213 -0.089  0.000  0.832
atom    3   Tr[ns(na)] =   3.79091
    eigenvalues: 
  0.356  0.356  0.381  0.401  0.401
    eigenvectors:
  0.000  0.000  1.000  0.000  0.000
  0.228  0.692  0.000  0.061  0.018
  0.692  0.228  0.000  0.018  0.061
  0.059  0.020  0.000  0.220  0.700
  0.020  0.059  0.000  0.700  0.220
    occupations:
  0.381  0.000  0.000  0.000  0.000
  0.000  0.360  0.000  0.000  0.012
  0.000  0.000  0.360  0.012  0.000
  0.000  0.000  0.012  0.398  0.000
  0.000  0.012  0.000  0.000  0.398
atom    4   Tr[ns(na)] =   3.79097
    eigenvalues: 
  0.356  0.356  0.381  0.401  0.401
    eigenvectors:
  0.000  0.000  1.000  0.000  0.000
  0.679  0.243  0.000  0.058  0.020
  0.244  0.678  0.000  0.019  0.060
  0.021  0.058  0.000  0.235  0.686
  0.057  0.022  0.000  0.687  0.235
    occupations:
  0.381  0.000  0.000  0.000  0.000
  0.000  0.360  0.000  0.000  0.012
  0.000  0.000  0.360  0.012  0.000
  0.000  0.000  0.012  0.398  0.000
  0.000  0.012  0.000  0.000  0.398
atom    5   Tr[ns(na)] =   5.44278
    eigenvalues: 
  0.840  0.932  0.949
    eigenvectors:
  0.336  0.000  0.664
  0.497  0.251  0.252
  0.167  0.749  0.085
    occupations:
  0.913 -0.044  0.026
 -0.044  0.891  0.024
  0.026  0.024  0.918
atom    6   Tr[ns(na)] =   5.43340
    eigenvalues: 
  0.838  0.931  0.949
    eigenvectors:
  0.337  0.000  0.663
  0.499  0.247  0.254
  0.165  0.753  0.083
    occupations:
  0.911  0.045  0.026
  0.045  0.889 -0.024
  0.026 -0.024  0.917
atom    7   Tr[ns(na)] =   5.43340
    eigenvalues: 
  0.838  0.931  0.949
    eigenvectors:
  0.337  0.000  0.663
  0.000  1.000  0.000
  0.663  0.000  0.337
    occupations:
  0.911  0.000 -0.052
  0.000  0.931  0.000
 -0.052  0.000  0.875
atom    8   Tr[ns(na)] =   5.43419
    eigenvalues: 
  0.838  0.931  0.949
    eigenvectors:
  0.337  0.000  0.663
  0.497  0.251  0.252
  0.167  0.749  0.085
    occupations:
  0.911 -0.045  0.026
 -0.045  0.889  0.024
  0.026  0.024  0.917
atom    9   Tr[ns(na)] =   5.43333
    eigenvalues: 
  0.838  0.931  0.949
    eigenvectors:
  0.337  0.000  0.663
  0.498  0.248  0.254
  0.165  0.752  0.083
    occupations:
  0.911  0.045  0.026
  0.045  0.889 -0.024
  0.026 -0.024  0.917
atom   10   Tr[ns(na)] =   5.43333
    eigenvalues: 
  0.838  0.931  0.949
    eigenvectors:
  0.337  0.000  0.663
  0.000  1.000  0.000
  0.663  0.000  0.337
    occupations:
  0.911  0.000 -0.052
  0.000  0.931  0.000
 -0.052  0.000  0.875
N of occupied +U levels =  56.2872010
 --- exit write_ns ---
 --- in v_hubbard ---
Hubbard energy    0.4574
 -------

     total cpu time spent up to now is      265.7 secs

     total energy              =    -537.83407396 Ry
     Harris-Foulkes estimate   =    -537.83404371 Ry
     estimated scf accuracy    <       0.00000773 Ry

     iteration # 10     ecut=    30.00 Ry     beta=0.20
     Davidson diagonalization with overlap
     ethr =  1.02E-08,  avg # of iterations =  1.8
 --- enter write_ns ---
 LDA+U parameters:
U( 1)     =  7.00000000
alpha( 1) =  0.00000000
U( 2)     =  0.00000000
alpha( 2) =  0.00000000
U( 3)     =  0.00000000
alpha( 3) = -0.15000000
U( 4)     =  0.00000000
alpha( 4) =  0.00000000
atom    1   Tr[ns(na)] =   8.04615
    eigenvalues: 
  0.512  0.515  0.998  0.998  1.000
    eigenvectors:
  0.000  0.000  0.000  0.000  1.000
  0.562  0.096  0.239  0.102  0.000
  0.096  0.562  0.103  0.240  0.000
  0.173  0.169  0.454  0.204  0.000
  0.168  0.173  0.204  0.454  0.000
    occupations:
  1.000  0.000  0.000  0.000  0.000
  0.000  0.678  0.000 -0.090  0.212
  0.000  0.000  0.680  0.212  0.089
  0.000 -0.090  0.212  0.832  0.000
  0.000  0.212  0.089  0.000  0.833
atom    2   Tr[ns(na)] =   8.04268
    eigenvalues: 
  0.511  0.513  0.998  0.998  1.000
    eigenvectors:
  0.000  0.000  0.000  0.000  1.000
  0.414  0.244  0.272  0.069  0.000
  0.244  0.414  0.069  0.272  0.000
  0.022  0.320  0.003  0.655  0.000
  0.320  0.022  0.655  0.003  0.000
    occupations:
  1.000  0.000  0.000  0.000  0.000
  0.000  0.678  0.001  0.089  0.213
  0.000  0.001  0.678  0.212 -0.090
  0.000  0.089  0.212  0.833  0.000
  0.000  0.213 -0.090  0.000  0.832
atom    3   Tr[ns(na)] =   3.79087
    eigenvalues: 
  0.356  0.356  0.381  0.401  0.401
    eigenvectors:
  0.000  0.000  1.000  0.000  0.000
  0.229  0.692  0.000  0.062  0.018
  0.692  0.229  0.000  0.018  0.062
  0.059  0.020  0.000  0.215  0.705
  0.020  0.059  0.000  0.705  0.215
    occupations:
  0.381  0.000  0.000  0.000  0.000
  0.000  0.360  0.000  0.000  0.012
  0.000  0.000  0.360  0.012  0.000
  0.000  0.000  0.012  0.398  0.000
  0.000  0.012  0.000  0.000  0.398
atom    4   Tr[ns(na)] =   3.79092
    eigenvalues: 
  0.356  0.356  0.381  0.401  0.401
    eigenvectors:
  0.000  0.000  1.000  0.000  0.000
  0.677  0.245  0.000  0.059  0.019
  0.245  0.676  0.000  0.019  0.060
  0.021  0.058  0.000  0.234  0.688
  0.056  0.022  0.000  0.689  0.233
    occupations:
  0.381  0.000  0.000  0.000  0.000
  0.000  0.360  0.000  0.000  0.012
  0.000  0.000  0.360  0.012  0.000
  0.000  0.000  0.012  0.398  0.000
  0.000  0.012  0.000  0.000  0.398
atom    5   Tr[ns(na)] =   5.44353
    eigenvalues: 
  0.841  0.932  0.949
    eigenvectors:
  0.336  0.000  0.664
  0.497  0.251  0.252
  0.167  0.749  0.085
    occupations:
  0.913 -0.044  0.026
 -0.044  0.891  0.024
  0.026  0.024  0.918
atom    6   Tr[ns(na)] =   5.43433
    eigenvalues: 
  0.838  0.931  0.949
    eigenvectors:
  0.336  0.000  0.664
  0.499  0.247  0.254
  0.165  0.753  0.083
    occupations:
  0.911  0.045  0.026
  0.045  0.889 -0.024
  0.026 -0.024  0.917
atom    7   Tr[ns(na)] =   5.43433
    eigenvalues: 
  0.838  0.931  0.949
    eigenvectors:
  0.336  0.000  0.664
  0.000  1.000  0.000
  0.664  0.000  0.336
    occupations:
  0.911  0.000 -0.052
  0.000  0.931  0.000
 -0.052  0.000  0.875
atom    8   Tr[ns(na)] =   5.43516
    eigenvalues: 
  0.838  0.931  0.949
    eigenvectors:
  0.337  0.000  0.663
  0.497  0.251  0.252
  0.167  0.749  0.085
    occupations:
  0.911 -0.045  0.026
 -0.045  0.889  0.024
  0.026  0.024  0.917
atom    9   Tr[ns(na)] =   5.43426
    eigenvalues: 
  0.838  0.931  0.949
    eigenvectors:
  0.337  0.000  0.663
  0.498  0.248  0.254
  0.165  0.752  0.083
    occupations:
  0.911  0.045  0.026
  0.045  0.889 -0.024
  0.026 -0.024  0.917
atom   10   Tr[ns(na)] =   5.43426
    eigenvalues: 
  0.838  0.931  0.949
    eigenvectors:
  0.337  0.000  0.663
  0.000  1.000  0.000
  0.663  0.000  0.337
    occupations:
  0.911  0.000 -0.052
  0.000  0.931  0.000
 -0.052  0.000  0.875
N of occupied +U levels =  56.2864804
 --- exit write_ns ---
 --- in v_hubbard ---
Hubbard energy    0.4579
 -------

     total cpu time spent up to now is      287.6 secs

     total energy              =    -537.83409847 Ry
     Harris-Foulkes estimate   =    -537.83407712 Ry
     estimated scf accuracy    <       0.00000826 Ry

     iteration # 11     ecut=    30.00 Ry     beta=0.20
     Davidson diagonalization with overlap
     ethr =  1.02E-08,  avg # of iterations =  1.1
 --- enter write_ns ---
 LDA+U parameters:
U( 1)     =  7.00000000
alpha( 1) =  0.00000000
U( 2)     =  0.00000000
alpha( 2) =  0.00000000
U( 3)     =  0.00000000
alpha( 3) = -0.15000000
U( 4)     =  0.00000000
alpha( 4) =  0.00000000
atom    1   Tr[ns(na)] =   8.04758
    eigenvalues: 
  0.512  0.515  0.998  0.998  1.000
    eigenvectors:
  0.000  0.000  0.000  0.000  1.000
  0.563  0.096  0.240  0.101  0.000
  0.096  0.563  0.102  0.240  0.000
  0.174  0.168  0.453  0.205  0.000
  0.168  0.174  0.205  0.454  0.000
    occupations:
  1.000  0.000  0.000  0.000  0.000
  0.000  0.679  0.000 -0.091  0.212
  0.000  0.000  0.680  0.211  0.089
  0.000 -0.091  0.211  0.832  0.000
  0.000  0.212  0.089  0.000  0.833
atom    2   Tr[ns(na)] =   8.04432
    eigenvalues: 
  0.511  0.514  0.998  0.998  1.000
    eigenvectors:
  0.000  0.000  0.000  0.000  1.000
  0.413  0.245  0.272  0.070  0.000
  0.245  0.414  0.070  0.272  0.000
  0.022  0.320  0.003  0.655  0.000
  0.320  0.022  0.655  0.003  0.000
    occupations:
  1.000  0.000  0.000  0.000  0.000
  0.000  0.678  0.001  0.089  0.213
  0.000  0.001  0.679  0.212 -0.090
  0.000  0.089  0.212  0.833  0.000
  0.000  0.213 -0.090  0.000  0.832
atom    3   Tr[ns(na)] =   3.79097
    eigenvalues: 
  0.356  0.356  0.381  0.401  0.401
    eigenvectors:
  0.000  0.000  1.000  0.000  0.000
  0.229  0.692  0.000  0.062  0.018
  0.692  0.229  0.000  0.018  0.062
  0.059  0.020  0.000  0.213  0.708
  0.020  0.059  0.000  0.708  0.213
    occupations:
  0.381  0.000  0.000  0.000  0.000
  0.000  0.360  0.000  0.000  0.012
  0.000  0.000  0.360  0.012  0.000
  0.000  0.000  0.012  0.398  0.000
  0.000  0.012  0.000  0.000  0.398
atom    4   Tr[ns(na)] =   3.79102
    eigenvalues: 
  0.356  0.356  0.381  0.401  0.401
    eigenvectors:
  0.000  0.000  1.000  0.000  0.000
  0.679  0.243  0.000  0.059  0.019
  0.243  0.678  0.000  0.019  0.060
  0.021  0.058  0.000  0.234  0.687
  0.056  0.022  0.000  0.689  0.233
    occupations:
  0.381  0.000  0.000  0.000  0.000
  0.000  0.360  0.000  0.000  0.012
  0.000  0.000  0.360  0.012  0.000
  0.000  0.000  0.012  0.398  0.000
  0.000  0.012  0.000  0.000  0.398
atom    5   Tr[ns(na)] =   5.44311
    eigenvalues: 
  0.840  0.932  0.949
    eigenvectors:
  0.336  0.000  0.664
  0.497  0.251  0.252
  0.167  0.749  0.085
    occupations:
  0.913 -0.044  0.026
 -0.044  0.891  0.024
  0.026  0.024  0.918
atom    6   Tr[ns(na)] =   5.43381
    eigenvalues: 
  0.838  0.931  0.949
    eigenvectors:
  0.336  0.000  0.664
  0.499  0.247  0.254
  0.165  0.753  0.083
    occupations:
  0.911  0.045  0.026
  0.045  0.889 -0.024
  0.026 -0.024  0.917
atom    7   Tr[ns(na)] =   5.43381
    eigenvalues: 
  0.838  0.931  0.949
    eigenvectors:
  0.336  0.000  0.664
  0.000  1.000  0.000
  0.664  0.000  0.336
    occupations:
  0.911  0.000 -0.052
  0.000  0.931  0.000
 -0.052  0.000  0.875
atom    8   Tr[ns(na)] =   5.43461
    eigenvalues: 
  0.838  0.931  0.949
    eigenvectors:
  0.337  0.000  0.663
  0.497  0.251  0.252
  0.167  0.749  0.085
    occupations:
  0.911 -0.045  0.026
 -0.045  0.889  0.024
  0.026  0.024  0.917
atom    9   Tr[ns(na)] =   5.43374
    eigenvalues: 
  0.838  0.931  0.949
    eigenvectors:
  0.337  0.000  0.663
  0.498  0.248  0.254
  0.165  0.752  0.083
    occupations:
  0.911  0.045  0.026
  0.045  0.889 -0.024
  0.026 -0.024  0.917
atom   10   Tr[ns(na)] =   5.43374
    eigenvalues: 
  0.838  0.931  0.949
    eigenvectors:
  0.337  0.000  0.663
  0.000  1.000  0.000
  0.663  0.000  0.337
    occupations:
  0.911  0.000 -0.052
  0.000  0.931  0.000
 -0.052  0.000  0.875
N of occupied +U levels =  56.2867247
 --- exit write_ns ---
 --- in v_hubbard ---
Hubbard energy    0.4577
 -------

     total cpu time spent up to now is      308.7 secs

     total energy              =    -537.83411487 Ry
     Harris-Foulkes estimate   =    -537.83410032 Ry
     estimated scf accuracy    <       0.00000106 Ry

     iteration # 12     ecut=    30.00 Ry     beta=0.20
     Davidson diagonalization with overlap
     ethr =  1.39E-09,  avg # of iterations =  2.0
 --- enter write_ns ---
 LDA+U parameters:
U( 1)     =  7.00000000
alpha( 1) =  0.00000000
U( 2)     =  0.00000000
alpha( 2) =  0.00000000
U( 3)     =  0.00000000
alpha( 3) = -0.15000000
U( 4)     =  0.00000000
alpha( 4) =  0.00000000
atom    1   Tr[ns(na)] =   8.04767
    eigenvalues: 
  0.512  0.515  0.998  0.998  1.000
    eigenvectors:
  0.000  0.000  0.000  0.000  1.000
  0.563  0.096  0.240  0.101  0.000
  0.095  0.563  0.102  0.240  0.000
  0.174  0.168  0.453  0.205  0.000
  0.168  0.174  0.205  0.454  0.000
    occupations:
  1.000  0.000  0.000  0.000  0.000
  0.000  0.679  0.000 -0.091  0.212
  0.000  0.000  0.680  0.211  0.090
  0.000 -0.091  0.211  0.832  0.000
  0.000  0.212  0.090  0.000  0.833
atom    2   Tr[ns(na)] =   8.04441
    eigenvalues: 
  0.511  0.514  0.998  0.998  1.000
    eigenvectors:
  0.000  0.000  0.000  0.000  1.000
  0.413  0.245  0.272  0.070  0.000
  0.245  0.414  0.070  0.271  0.000
  0.022  0.320  0.003  0.655  0.000
  0.320  0.022  0.655  0.003  0.000
    occupations:
  1.000  0.000  0.000  0.000  0.000
  0.000  0.678  0.001  0.089  0.213
  0.000  0.001  0.679  0.212 -0.090
  0.000  0.089  0.212  0.833  0.000
  0.000  0.213 -0.090  0.000  0.832
atom    3   Tr[ns(na)] =   3.79081
    eigenvalues: 
  0.356  0.356  0.381  0.401  0.401
    eigenvectors:
  0.000  0.000  1.000  0.000  0.000
  0.229  0.691  0.000  0.061  0.018
  0.691  0.229  0.000  0.018  0.062
  0.059  0.020  0.000  0.216  0.705
  0.020  0.059  0.000  0.705  0.215
    occupations:
  0.381  0.000  0.000  0.000  0.000
  0.000  0.360  0.000  0.000  0.012
  0.000  0.000  0.360  0.012  0.000
  0.000  0.000  0.012  0.398  0.000
  0.000  0.012  0.000  0.000  0.398
atom    4   Tr[ns(na)] =   3.79086
    eigenvalues: 
  0.356  0.356  0.381  0.401  0.401
    eigenvectors:
  0.000  0.000  1.000  0.000  0.000
  0.679  0.243  0.000  0.059  0.019
  0.243  0.678  0.000  0.019  0.060
  0.021  0.058  0.000  0.233  0.688
  0.057  0.022  0.000  0.689  0.233
    occupations:
  0.381  0.000  0.000  0.000  0.000
  0.000  0.360  0.000  0.000  0.012
  0.000  0.000  0.360  0.012  0.000
  0.000  0.000  0.012  0.398  0.000
  0.000  0.012  0.000  0.000  0.398
atom    5   Tr[ns(na)] =   5.44314
    eigenvalues: 
  0.840  0.932  0.949
    eigenvectors:
  0.336  0.000  0.664
  0.497  0.251  0.252
  0.167  0.749  0.085
    occupations:
  0.913 -0.044  0.026
 -0.044  0.891  0.024
  0.026  0.024  0.918
atom    6   Tr[ns(na)] =   5.43381
    eigenvalues: 
  0.838  0.931  0.949
    eigenvectors:
  0.336  0.000  0.664
  0.499  0.247  0.254
  0.165  0.753  0.083
    occupations:
  0.911  0.045  0.026
  0.045  0.889 -0.024
  0.026 -0.024  0.917
atom    7   Tr[ns(na)] =   5.43381
    eigenvalues: 
  0.838  0.931  0.949
    eigenvectors:
  0.336  0.000  0.664
  0.000  1.000  0.000
  0.664  0.000  0.336
    occupations:
  0.911  0.000 -0.052
  0.000  0.931  0.000
 -0.052  0.000  0.875
atom    8   Tr[ns(na)] =   5.43467
    eigenvalues: 
  0.838  0.931  0.949
    eigenvectors:
  0.337  0.000  0.663
  0.497  0.251  0.252
  0.167  0.749  0.085
    occupations:
  0.911 -0.045  0.026
 -0.045  0.889  0.024
  0.026  0.024  0.917
atom    9   Tr[ns(na)] =   5.43373
    eigenvalues: 
  0.838  0.931  0.949
    eigenvectors:
  0.337  0.000  0.663
  0.498  0.248  0.254
  0.165  0.752  0.083
    occupations:
  0.911  0.045  0.026
  0.045  0.889 -0.024
  0.026 -0.024  0.917
atom   10   Tr[ns(na)] =   5.43373
    eigenvalues: 
  0.838  0.931  0.949
    eigenvectors:
  0.337  0.000  0.663
  0.000  1.000  0.000
  0.663  0.000  0.337
    occupations:
  0.911  0.000 -0.052
  0.000  0.931  0.000
 -0.052  0.000  0.875
N of occupied +U levels =  56.2866361
 --- exit write_ns ---
 --- in v_hubbard ---
Hubbard energy    0.4576
 -------

     total cpu time spent up to now is      332.0 secs

     total energy              =    -537.83412393 Ry
     Harris-Foulkes estimate   =    -537.83411516 Ry
     estimated scf accuracy    <       0.00000049 Ry

     iteration # 13     ecut=    30.00 Ry     beta=0.20
     Davidson diagonalization with overlap
     ethr =  6.45E-10,  avg # of iterations =  1.6
 --- enter write_ns ---
 LDA+U parameters:
U( 1)     =  7.00000000
alpha( 1) =  0.00000000
U( 2)     =  0.00000000
alpha( 2) =  0.00000000
U( 3)     =  0.00000000
alpha( 3) = -0.15000000
U( 4)     =  0.00000000
alpha( 4) =  0.00000000
atom    1   Tr[ns(na)] =   8.04739
    eigenvalues: 
  0.512  0.515  0.998  0.998  1.000
    eigenvectors:
  0.000  0.000  0.000  0.000  1.000
  0.563  0.095  0.241  0.100  0.000
  0.095  0.563  0.101  0.241  0.000
  0.174  0.168  0.452  0.205  0.000
  0.168  0.174  0.206  0.453  0.000
    occupations:
  1.000  0.000  0.000  0.000  0.000
  0.000  0.679  0.000 -0.091  0.211
  0.000  0.000  0.680  0.211  0.090
  0.000 -0.091  0.211  0.832  0.000
  0.000  0.211  0.090  0.000  0.833
atom    2   Tr[ns(na)] =   8.04414
    eigenvalues: 
  0.511  0.514  0.998  0.998  1.000
    eigenvectors:
  0.000  0.000  0.000  0.000  1.000
  0.413  0.245  0.271  0.071  0.000
  0.245  0.413  0.071  0.271  0.000
  0.022  0.320  0.003  0.655  0.000
  0.320  0.022  0.655  0.003  0.000
    occupations:
  1.000  0.000  0.000  0.000  0.000
  0.000  0.678  0.001  0.090  0.212
  0.000  0.001  0.679  0.212 -0.091
  0.000  0.090  0.212  0.833  0.000
  0.000  0.212 -0.091  0.000  0.832
atom    3   Tr[ns(na)] =   3.79086
    eigenvalues: 
  0.356  0.356  0.381  0.401  0.401
    eigenvectors:
  0.000  0.000  1.000  0.000  0.000
  0.229  0.691  0.000  0.062  0.018
  0.691  0.229  0.000  0.018  0.062
  0.059  0.020  0.000  0.214  0.706
  0.020  0.059  0.000  0.706  0.214
    occupations:
  0.381  0.000  0.000  0.000  0.000
  0.000  0.360  0.000  0.000  0.012
  0.000  0.000  0.360  0.012  0.000
  0.000  0.000  0.012  0.398  0.000
  0.000  0.012  0.000  0.000  0.398
atom    4   Tr[ns(na)] =   3.79091
    eigenvalues: 
  0.356  0.356  0.381  0.401  0.401
    eigenvectors:
  0.000  0.000  1.000  0.000  0.000
  0.679  0.243  0.000  0.059  0.019
  0.243  0.678  0.000  0.019  0.060
  0.021  0.058  0.000  0.233  0.688
  0.056  0.022  0.000  0.689  0.233
    occupations:
  0.381  0.000  0.000  0.000  0.000
  0.000  0.360  0.000  0.000  0.012
  0.000  0.000  0.360  0.012  0.000
  0.000  0.000  0.012  0.398  0.000
  0.000  0.012  0.000  0.000  0.398
atom    5   Tr[ns(na)] =   5.44320
    eigenvalues: 
  0.840  0.932  0.949
    eigenvectors:
  0.336  0.000  0.664
  0.497  0.251  0.252
  0.167  0.749  0.085
    occupations:
  0.913 -0.044  0.026
 -0.044  0.891  0.024
  0.026  0.024  0.918
atom    6   Tr[ns(na)] =   5.43390
    eigenvalues: 
  0.838  0.931  0.949
    eigenvectors:
  0.336  0.000  0.664
  0.499  0.247  0.254
  0.165  0.753  0.083
    occupations:
  0.911  0.045  0.026
  0.045  0.889 -0.024
  0.026 -0.024  0.917
atom    7   Tr[ns(na)] =   5.43390
    eigenvalues: 
  0.838  0.931  0.949
    eigenvectors:
  0.336  0.000  0.664
  0.000  1.000  0.000
  0.664  0.000  0.336
    occupations:
  0.911  0.000 -0.052
  0.000  0.931  0.000
 -0.052  0.000  0.875
atom    8   Tr[ns(na)] =   5.43475
    eigenvalues: 
  0.838  0.931  0.949
    eigenvectors:
  0.337  0.000  0.663
  0.497  0.251  0.252
  0.167  0.749  0.085
    occupations:
  0.911 -0.045  0.026
 -0.045  0.889  0.024
  0.026  0.024  0.917
atom    9   Tr[ns(na)] =   5.43382
    eigenvalues: 
  0.838  0.931  0.949
    eigenvectors:
  0.337  0.000  0.663
  0.498  0.248  0.254
  0.165  0.752  0.083
    occupations:
  0.911  0.045  0.026
  0.045  0.889 -0.024
  0.026 -0.024  0.917
atom   10   Tr[ns(na)] =   5.43382
    eigenvalues: 
  0.838  0.931  0.949
    eigenvectors:
  0.337  0.000  0.663
  0.000  1.000  0.000
  0.663  0.000  0.337
    occupations:
  0.911  0.000 -0.052
  0.000  0.931  0.000
 -0.052  0.000  0.875
N of occupied +U levels =  56.2866795
 --- exit write_ns ---
 --- in v_hubbard ---
Hubbard energy    0.4575
 -------

     total cpu time spent up to now is      356.9 secs

     total energy              =    -537.83413059 Ry
     Harris-Foulkes estimate   =    -537.83412440 Ry
     estimated scf accuracy    <       0.00000005 Ry

     iteration # 14     ecut=    30.00 Ry     beta=0.20
     Davidson diagonalization with overlap
     ethr =  6.03E-11,  avg # of iterations =  2.1
 --- enter write_ns ---
 LDA+U parameters:
U( 1)     =  7.00000000
alpha( 1) =  0.00000000
U( 2)     =  0.00000000
alpha( 2) =  0.00000000
U( 3)     =  0.00000000
alpha( 3) = -0.15000000
U( 4)     =  0.00000000
alpha( 4) =  0.00000000
atom    1   Tr[ns(na)] =   8.04755
    eigenvalues: 
  0.512  0.515  0.998  0.998  1.000
    eigenvectors:
  0.000  0.000  0.000  0.000  1.000
  0.563  0.095  0.241  0.100  0.000
  0.095  0.563  0.101  0.241  0.000
  0.174  0.168  0.452  0.205  0.000
  0.168  0.174  0.205  0.453  0.000
    occupations:
  1.000  0.000  0.000  0.000  0.000
  0.000  0.679  0.000 -0.091  0.211
  0.000  0.000  0.680  0.211  0.090
  0.000 -0.091  0.211  0.832  0.000
  0.000  0.211  0.090  0.000  0.833
atom    2   Tr[ns(na)] =   8.04430
    eigenvalues: 
  0.511  0.514  0.998  0.998  1.000
    eigenvectors:
  0.000  0.000  0.000  0.000  1.000
  0.413  0.245  0.271  0.071  0.000
  0.245  0.413  0.071  0.271  0.000
  0.022  0.320  0.003  0.655  0.000
  0.320  0.022  0.655  0.003  0.000
    occupations:
  1.000  0.000  0.000  0.000  0.000
  0.000  0.678  0.001  0.090  0.212
  0.000  0.001  0.679  0.212 -0.091
  0.000  0.090  0.212  0.833  0.000
  0.000  0.212 -0.091  0.000  0.832
atom    3   Tr[ns(na)] =   3.79091
    eigenvalues: 
  0.356  0.356  0.381  0.401  0.401
    eigenvectors:
  0.000  0.000  1.000  0.000  0.000
  0.229  0.691  0.000  0.062  0.018
  0.691  0.229  0.000  0.018  0.062
  0.059  0.020  0.000  0.214  0.707
  0.020  0.059  0.000  0.707  0.214
    occupations:
  0.381  0.000  0.000  0.000  0.000
  0.000  0.360  0.000  0.000  0.012
  0.000  0.000  0.360  0.012  0.000
  0.000  0.000  0.012  0.398  0.000
  0.000  0.012  0.000  0.000  0.398
atom    4   Tr[ns(na)] =   3.79096
    eigenvalues: 
  0.356  0.356  0.381  0.401  0.401
    eigenvectors:
  0.000  0.000  1.000  0.000  0.000
  0.680  0.242  0.000  0.059  0.019
  0.243  0.679  0.000  0.019  0.060
  0.021  0.058  0.000  0.233  0.688
  0.057  0.021  0.000  0.689  0.233
    occupations:
  0.381  0.000  0.000  0.000  0.000
  0.000  0.360  0.000  0.000  0.012
  0.000  0.000  0.360  0.012  0.000
  0.000  0.000  0.012  0.398  0.000
  0.000  0.012  0.000  0.000  0.398
atom    5   Tr[ns(na)] =   5.44314
    eigenvalues: 
  0.840  0.932  0.949
    eigenvectors:
  0.336  0.000  0.664
  0.497  0.251  0.252
  0.167  0.749  0.085
    occupations:
  0.913 -0.044  0.026
 -0.044  0.891  0.024
  0.026  0.024  0.918
atom    6   Tr[ns(na)] =   5.43384
    eigenvalues: 
  0.838  0.931  0.949
    eigenvectors:
  0.336  0.000  0.664
  0.499  0.247  0.254
  0.165  0.753  0.083
    occupations:
  0.911  0.045  0.026
  0.045  0.889 -0.024
  0.026 -0.024  0.917
atom    7   Tr[ns(na)] =   5.43384
    eigenvalues: 
  0.838  0.931  0.949
    eigenvectors:
  0.336  0.000  0.664
  0.000  1.000  0.000
  0.664  0.000  0.336
    occupations:
  0.911  0.000 -0.052
  0.000  0.931  0.000
 -0.052  0.000  0.875
atom    8   Tr[ns(na)] =   5.43467
    eigenvalues: 
  0.838  0.931  0.949
    eigenvectors:
  0.337  0.000  0.663
  0.497  0.251  0.252
  0.167  0.749  0.085
    occupations:
  0.911 -0.045  0.026
 -0.045  0.889  0.024
  0.026  0.024  0.917
atom    9   Tr[ns(na)] =   5.43377
    eigenvalues: 
  0.838  0.931  0.949
    eigenvectors:
  0.337  0.000  0.663
  0.498  0.248  0.254
  0.165  0.752  0.083
    occupations:
  0.911  0.045  0.026
  0.045  0.889 -0.024
  0.026 -0.024  0.917
atom   10   Tr[ns(na)] =   5.43376
    eigenvalues: 
  0.838  0.931  0.949
    eigenvectors:
  0.337  0.000  0.663
  0.000  1.000  0.000
  0.663  0.000  0.337
    occupations:
  0.911  0.000 -0.052
  0.000  0.931  0.000
 -0.052  0.000  0.875
N of occupied +U levels =  56.2867498
 --- exit write_ns ---
 --- in v_hubbard ---
Hubbard energy    0.4575
 -------

     total cpu time spent up to now is      384.8 secs

     End of self-consistent calculation

          k = 0.0000 0.0000 0.0000 (  2175 PWs)   bands (ev):

   -19.7956 -19.6227  -6.5458  -5.8991  -5.8848  -5.8290  -5.8027  -5.4765
    -3.9456  -3.3164  -3.3128  -3.2593  -3.0257  -3.0248   5.1265   5.7973
     5.8025   5.8562   6.4759   6.4816   7.2239   7.4781   7.4957   7.6837
     7.6958   7.6960   9.2797   9.6015   9.6165   9.9552   9.9569  10.1281
    10.4413  10.4451  10.5857  10.5928  10.6604  10.8690  11.8044  11.8075
    14.6899  14.6912  15.4305  15.4327  16.2021  16.7867

     occupation numbers 
     0.0313   0.0313   0.0313   0.0313   0.0313   0.0313   0.0313   0.0313
     0.0313   0.0313   0.0313   0.0313   0.0313   0.0313   0.0313   0.0313
     0.0313   0.0313   0.0313   0.0313   0.0313   0.0313   0.0313   0.0313
     0.0313   0.0313   0.0312   0.0312   0.0312   0.0312   0.0312   0.0312
     0.0312   0.0312   0.0311   0.0311   0.0310   0.0297   0.0018   0.0018
     0.0000   0.0000   0.0000   0.0000   0.0000   0.0000

          k =-0.2471-0.1427 0.1027 (  2181 PWs)   bands (ev):

   -19.7730 -19.6717  -6.7246  -6.3064  -5.9761  -5.8613  -5.6114  -5.4776
    -3.7005  -3.4445  -2.9610  -2.9155  -2.8911  -2.7763   5.3127   5.6701
     5.8542   5.9310   6.3870   6.3990   6.7530   6.9925   7.3756   7.4881
     7.5365   7.6770   9.2513   9.4316   9.6716   9.7902   9.8234   9.9222
    10.1550  10.3394  10.3782  10.5430  10.6501  10.7131  12.2475  12.3208
    14.2398  14.2522  15.8176  16.0726  16.9734  17.2682

     occupation numbers 
     0.0625   0.0625   0.0625   0.0625   0.0625   0.0625   0.0625   0.0625
     0.0625   0.0625   0.0625   0.0625   0.0625   0.0625   0.0625   0.0625
     0.0625   0.0625   0.0625   0.0625   0.0625   0.0625   0.0625   0.0625
     0.0625   0.0625   0.0625   0.0625   0.0625   0.0625   0.0625   0.0625
     0.0625   0.0625   0.0625   0.0623   0.0620   0.0616   0.0001   0.0000
     0.0000   0.0000   0.0000   0.0000   0.0000   0.0000

          k = 0.4942 0.2853-0.2053 (  2202 PWs)   bands (ev):

   -19.7367 -19.7348  -6.7305  -6.7070  -5.9824  -5.9637  -5.5344  -5.5063
    -3.4317  -3.4301  -2.8188  -2.8124  -2.5093  -2.5038   5.3925   5.4184
     6.0361   6.0439   6.1797   6.1920   6.6902   6.7153   7.2292   7.2562
     7.3713   7.3939   9.2684   9.2889   9.6440   9.6638   9.8935   9.9198
    10.0343  10.0437  10.3121  10.3318  10.4842  10.4908  13.2265  13.2755
    13.3109  13.3586  16.8303  16.8388  17.1262  17.1318

     occupation numbers 
     0.0313   0.0313   0.0313   0.0313   0.0313   0.0313   0.0313   0.0313
     0.0313   0.0313   0.0313   0.0313   0.0313   0.0313   0.0313   0.0313
     0.0313   0.0313   0.0313   0.0313   0.0313   0.0313   0.0313   0.0313
     0.0313   0.0313   0.0312   0.0312   0.0312   0.0312   0.0312   0.0312
     0.0312   0.0312   0.0312   0.0312   0.0312   0.0312   0.0000   0.0000
     0.0000   0.0000   0.0000   0.0000   0.0000   0.0000

          k =-0.2471 0.1427 0.2053 (  2195 PWs)   bands (ev):

[...]
     0.0625   0.0625   0.0625   0.0625   0.0625   0.0625   0.0625   0.0625
     0.0625   0.0625   0.0625   0.0625   0.0625   0.0625   0.0625   0.0625
     0.0625   0.0625   0.0624   0.0624   0.0622   0.0619   0.0052   0.0000
     0.0000   0.0000   0.0000   0.0000   0.0000   0.0000

          k = 0.4942-0.5706 0.1027 (  2198 PWs)   bands (ev):

   -19.7420 -19.7382  -6.9495  -6.6470  -6.1278  -5.8977  -5.5188  -5.3818
    -3.3542  -3.2831  -2.8929  -2.7175  -2.5345  -2.3874   5.0507   5.6092
     5.7195   6.0636   6.1659   6.3344   6.4118   6.8624   7.2065   7.3322
     7.6592   7.8241   8.7315   9.0557   9.4005   9.5993   9.6286   9.9485
    10.1450  10.1943  10.2394  10.3415  10.5560  10.7310  12.2413  12.6801
    13.3710  14.2923  16.9083  17.1094  17.3062  18.0152

     occupation numbers 
     0.0625   0.0625   0.0625   0.0625   0.0625   0.0625   0.0625   0.0625
     0.0625   0.0625   0.0625   0.0625   0.0625   0.0625   0.0625   0.0625
     0.0625   0.0625   0.0625   0.0625   0.0625   0.0625   0.0625   0.0625
     0.0625   0.0625   0.0625   0.0625   0.0625   0.0625   0.0625   0.0625
     0.0625   0.0625   0.0625   0.0625   0.0623   0.0615   0.0001   0.0000
     0.0000   0.0000   0.0000   0.0000   0.0000   0.0000

          k =-0.7412 0.1427-0.1027 (  2198 PWs)   bands (ev):

   -19.7420 -19.7382  -6.9491  -6.6477  -6.1269  -5.8989  -5.5178  -5.3824
    -3.3535  -3.2831  -2.8927  -2.7186  -2.5339  -2.3877   5.0517   5.6065
     5.7227   6.0659   6.1630   6.3368   6.4074   6.8627   7.2037   7.3362
     7.6617   7.8198   8.7309   9.0563   9.4021   9.6026   9.6279   9.9500
    10.1438  10.1896  10.2440  10.3395  10.5521  10.7333  12.2414  12.6804
    13.3712  14.2926  16.9065  17.1123  17.3056  18.0147

     occupation numbers 
     0.0625   0.0625   0.0625   0.0625   0.0625   0.0625   0.0625   0.0625
     0.0625   0.0625   0.0625   0.0625   0.0625   0.0625   0.0625   0.0625
     0.0625   0.0625   0.0625   0.0625   0.0625   0.0625   0.0625   0.0625
     0.0625   0.0625   0.0625   0.0625   0.0625   0.0625   0.0625   0.0625
     0.0625   0.0625   0.0625   0.0625   0.0623   0.0615   0.0001   0.0000
     0.0000   0.0000   0.0000   0.0000   0.0000   0.0000

          k = 0.2471-0.7133-0.1027 (  2198 PWs)   bands (ev):

   -19.7420 -19.7382  -6.9486  -6.6484  -6.1251  -5.9006  -5.5191  -5.3804
    -3.3536  -3.2833  -2.8923  -2.7200  -2.5336  -2.3873   5.0521   5.6081
     5.7230   6.0654   6.1617   6.3430   6.4023   6.8618   7.2038   7.3408
     7.6561   7.8192   8.7278   9.0602   9.4055   9.5982   9.6291   9.9470
    10.1349  10.2003  10.2436  10.3545  10.5409  10.7308  12.2416  12.6804
    13.3711  14.2926  16.9044  17.1155  17.3057  18.0161

     occupation numbers 
     0.0625   0.0625   0.0625   0.0625   0.0625   0.0625   0.0625   0.0625
     0.0625   0.0625   0.0625   0.0625   0.0625   0.0625   0.0625   0.0625
     0.0625   0.0625   0.0625   0.0625   0.0625   0.0625   0.0625   0.0625
     0.0625   0.0625   0.0625   0.0625   0.0625   0.0625   0.0625   0.0625
     0.0625   0.0625   0.0625   0.0625   0.0623   0.0615   0.0001   0.0000
     0.0000   0.0000   0.0000   0.0000   0.0000   0.0000

          k =-0.7412-0.1427 0.1027 (  2198 PWs)   bands (ev):

   -19.7420 -19.7382  -6.9491  -6.6476  -6.1262  -5.8994  -5.5201  -5.3798
    -3.3543  -3.2833  -2.8925  -2.7190  -2.5342  -2.3870   5.0511   5.6110
     5.7194   6.0631   6.1647   6.3404   6.4065   6.8620   7.2068   7.3359
     7.6540   7.8236   8.7287   9.0591   9.4038   9.5937   9.6315   9.9454
    10.1368  10.2051  10.2378  10.3565  10.5450  10.7285  12.2415  12.6801
    13.3710  14.2923  16.9062  17.1126  17.3063  18.0165

     occupation numbers 
     0.0625   0.0625   0.0625   0.0625   0.0625   0.0625   0.0625   0.0625
     0.0625   0.0625   0.0625   0.0625   0.0625   0.0625   0.0625   0.0625
     0.0625   0.0625   0.0625   0.0625   0.0625   0.0625   0.0625   0.0625
     0.0625   0.0625   0.0625   0.0625   0.0625   0.0625   0.0625   0.0625
     0.0625   0.0625   0.0625   0.0625   0.0623   0.0615   0.0001   0.0000
     0.0000   0.0000   0.0000   0.0000   0.0000   0.0000

          k = 0.2471 0.7133 0.1027 (  2198 PWs)   bands (ev):

   -19.7408 -19.7375  -6.9624  -6.6440  -6.1413  -5.8720  -5.5031  -5.3999
    -3.3558  -3.2835  -2.8908  -2.7218  -2.5357  -2.3913   5.0656   5.6130
     5.7151   6.0665   6.1633   6.3465   6.4079   6.8519   7.2117   7.3497
     7.6653   7.7967   8.7307   9.0580   9.4032   9.6001   9.6278   9.9391
    10.1478  10.2097  10.2314  10.3546  10.5491  10.7126  12.2389  12.6841
    13.3689  14.2930  16.9084  17.1121  17.3070  18.0159

     occupation numbers 
     0.0625   0.0625   0.0625   0.0625   0.0625   0.0625   0.0625   0.0625
     0.0625   0.0625   0.0625   0.0625   0.0625   0.0625   0.0625   0.0625
     0.0625   0.0625   0.0625   0.0625   0.0625   0.0625   0.0625   0.0625
     0.0625   0.0625   0.0625   0.0625   0.0625   0.0625   0.0625   0.0625
     0.0625   0.0625   0.0625   0.0625   0.0623   0.0616   0.0001   0.0000
     0.0000   0.0000   0.0000   0.0000   0.0000   0.0000

          k = 0.2471-0.4280 0.0000 (  2203 PWs)   bands (ev):

   -19.7550 -19.7157  -6.8474  -6.6411  -6.0645  -5.9751  -5.4367  -5.3694
    -3.6042  -3.3178  -2.8104  -2.7135  -2.5901  -2.5742   5.2309   5.6318
     5.8537   5.9246   6.1824   6.4187   6.5242   6.6904   7.1993   7.3253
     7.3758   8.0202   8.8380   9.2430   9.5785   9.6709   9.7648   9.9918
    10.0909  10.1778  10.2245  10.3372  10.4234  10.8061  12.1433  13.2590
    13.3429  14.0886  16.4328  16.9952  17.4190  17.9259

     occupation numbers 
     0.0625   0.0625   0.0625   0.0625   0.0625   0.0625   0.0625   0.0625
     0.0625   0.0625   0.0625   0.0625   0.0625   0.0625   0.0625   0.0625
     0.0625   0.0625   0.0625   0.0625   0.0625   0.0625   0.0625   0.0625
     0.0625   0.0625   0.0625   0.0625   0.0625   0.0625   0.0625   0.0625
     0.0625   0.0625   0.0625   0.0625   0.0625   0.0606   0.0002   0.0000
     0.0000   0.0000   0.0000   0.0000   0.0000   0.0000

          k =-0.4942 0.0000 0.0000 (  2203 PWs)   bands (ev):

   -19.7550 -19.7157  -6.8474  -6.6411  -6.0646  -5.9751  -5.4367  -5.3694
    -3.6042  -3.3178  -2.8104  -2.7135  -2.5903  -2.5741   5.2308   5.6317
     5.8539   5.9246   6.1825   6.4187   6.5241   6.6904   7.1994   7.3232
     7.3779   8.0202   8.8380   9.2430   9.5778   9.6711   9.7653   9.9916
    10.0910  10.1794  10.2242  10.3364  10.4231  10.8062  12.1433  13.2591
    13.3428  14.0886  16.4328  16.9952  17.4190  17.9265

     occupation numbers 
     0.0625   0.0625   0.0625   0.0625   0.0625   0.0625   0.0625   0.0625
     0.0625   0.0625   0.0625   0.0625   0.0625   0.0625   0.0625   0.0625
     0.0625   0.0625   0.0625   0.0625   0.0625   0.0625   0.0625   0.0625
     0.0625   0.0625   0.0625   0.0625   0.0625   0.0625   0.0625   0.0625
     0.0625   0.0625   0.0625   0.0625   0.0625   0.0606   0.0002   0.0000
     0.0000   0.0000   0.0000   0.0000   0.0000   0.0000

          k = 0.4942 0.2853 0.4107 (  2202 PWs)   bands (ev):

   -19.7567 -19.7321  -7.1589  -6.4473  -6.2283  -5.9813  -5.5345  -5.2899
    -3.2374  -3.1172  -3.0810  -2.6458  -2.4782  -2.2206   4.6325   5.5144
     5.5713   6.0156   6.2338   6.6971   6.7431   6.9020   7.1161   7.2251
     7.6286   8.1476   8.2894   8.5778   9.4092   9.6618   9.9202  10.0168
    10.0453  10.1094  10.1811  10.4609  10.5152  10.8303  11.7095  12.3434
    13.2749  14.7253  17.0466  17.2693  17.5186  17.6134

     occupation numbers 
     0.0313   0.0313   0.0313   0.0313   0.0313   0.0313   0.0313   0.0313
     0.0313   0.0313   0.0313   0.0313   0.0313   0.0313   0.0313   0.0313
     0.0313   0.0313   0.0313   0.0313   0.0313   0.0313   0.0313   0.0313
     0.0313   0.0313   0.0313   0.0313   0.0312   0.0312   0.0312   0.0312
     0.0312   0.0312   0.0312   0.0312   0.0312   0.0301   0.0033   0.0000
     0.0000   0.0000   0.0000   0.0000   0.0000   0.0000

          k = 0.0000 0.5706-0.4107 (  2202 PWs)   bands (ev):

   -19.7567 -19.7321  -7.1589  -6.4471  -6.2284  -5.9813  -5.5345  -5.2899
    -3.2374  -3.1172  -3.0810  -2.6458  -2.4782  -2.2206   4.6325   5.5143
     5.5713   6.0158   6.2337   6.6976   6.7423   6.9022   7.1161   7.2251
     7.6286   8.1474   8.2898   8.5777   9.4091   9.6619   9.9204  10.0165
    10.0456  10.1088  10.1814  10.4617  10.5145  10.8303  11.7095  12.3434
    13.2749  14.7253  17.0466  17.2692  17.5186  17.6134

     occupation numbers 
     0.0313   0.0313   0.0313   0.0313   0.0313   0.0313   0.0313   0.0313
     0.0313   0.0313   0.0313   0.0313   0.0313   0.0313   0.0313   0.0313
     0.0313   0.0313   0.0313   0.0313   0.0313   0.0313   0.0313   0.0313
     0.0313   0.0313   0.0313   0.0313   0.0312   0.0312   0.0312   0.0312
     0.0312   0.0312   0.0312   0.0312   0.0312   0.0301   0.0033   0.0000
     0.0000   0.0000   0.0000   0.0000   0.0000   0.0000

          k = 0.7412-0.4280 0.0000 (  2204 PWs)   bands (ev):

   -19.7541 -19.7190  -6.7256  -6.6198  -6.1372  -5.8319  -5.6962  -5.5592
    -3.2359  -3.1179  -3.0545  -2.6851  -2.6738  -2.5939   5.2939   5.6734
     5.7588   6.0773   6.0974   6.5460   6.5609   6.7177   7.2700   7.3270
     7.4421   7.8246   8.7998   9.3188   9.3439   9.6326   9.7994   9.9668
    10.1330  10.2100  10.3373  10.3428  10.3665  10.5296  12.1448  13.1781
    13.2586  14.1167  16.6827  16.7287  17.5909  17.7948

     occupation numbers 
     0.0625   0.0625   0.0625   0.0625   0.0625   0.0625   0.0625   0.0625
     0.0625   0.0625   0.0625   0.0625   0.0625   0.0625   0.0625   0.0625
     0.0625   0.0625   0.0625   0.0625   0.0625   0.0625   0.0625   0.0625
     0.0625   0.0625   0.0625   0.0625   0.0625   0.0625   0.0625   0.0625
     0.0625   0.0625   0.0625   0.0625   0.0625   0.0624   0.0002   0.0000
     0.0000   0.0000   0.0000   0.0000   0.0000   0.0000

          k = 0.0000-0.8559 0.0000 (  2204 PWs)   bands (ev):

   -19.7539 -19.7192  -6.7331  -6.6071  -6.1434  -5.8371  -5.7071  -5.5410
    -3.2340  -3.1183  -3.0544  -2.6869  -2.6790  -2.5903   5.3063   5.6883
     5.7540   6.0736   6.0928   6.5328   6.5587   6.7106   7.2592   7.3207
     7.4352   7.8480   8.8242   9.3094   9.3629   9.6219   9.7969   9.9592
    10.1238  10.1998  10.3389  10.3506  10.3753  10.5292  12.1403  13.1785
    13.2590  14.1186  16.6849  16.7273  17.5888  17.7943

     occupation numbers 
     0.0625   0.0625   0.0625   0.0625   0.0625   0.0625   0.0625   0.0625
     0.0625   0.0625   0.0625   0.0625   0.0625   0.0625   0.0625   0.0625
     0.0625   0.0625   0.0625   0.0625   0.0625   0.0625   0.0625   0.0625
     0.0625   0.0625   0.0625   0.0625   0.0625   0.0625   0.0625   0.0625
     0.0625   0.0625   0.0625   0.0625   0.0625   0.0624   0.0002   0.0000
     0.0000   0.0000   0.0000   0.0000   0.0000   0.0000

          k = 0.4942-0.2853-0.1027 (  2211 PWs)   bands (ev):

   -19.7424 -19.7359  -6.9784  -6.5400  -6.3259  -5.7026  -5.6045  -5.3690
    -3.3696  -3.1806  -3.0674  -2.6069  -2.5730  -2.3822   5.0793   5.6141
     5.7380   5.8974   6.1590   6.4547   6.5646   6.7288   7.2002   7.2332
     7.7829   7.8045   8.6887   9.2206   9.2940   9.5270   9.7738   9.8385
    10.1566  10.2156  10.3554  10.4338  10.4899  10.5665  12.1949  12.6977
    13.4165  14.2749  16.8862  16.9349  17.5766  17.9278

     occupation numbers 
     0.0625   0.0625   0.0625   0.0625   0.0625   0.0625   0.0625   0.0625
     0.0625   0.0625   0.0625   0.0625   0.0625   0.0625   0.0625   0.0625
     0.0625   0.0625   0.0625   0.0625   0.0625   0.0625   0.0625   0.0625
     0.0625   0.0625   0.0625   0.0625   0.0625   0.0625   0.0625   0.0625
     0.0625   0.0625   0.0625   0.0625   0.0624   0.0623   0.0001   0.0000
     0.0000   0.0000   0.0000   0.0000   0.0000   0.0000

          k = 0.0000-0.5706 0.1027 (  2211 PWs)   bands (ev):

   -19.7436 -19.7366  -6.9658  -6.5427  -6.3234  -5.7097  -5.6248  -5.3533
    -3.3695  -3.1801  -3.0670  -2.6045  -2.5726  -2.3780   5.0652   5.6235
     5.7242   5.9052   6.1571   6.4491   6.5621   6.7359   7.1978   7.2220
     7.7717   7.8279   8.6913   9.2018   9.2896   9.5481   9.7690   9.8499
    10.1485  10.2107  10.3530  10.4390  10.4979  10.5696  12.1976  12.6938
    13.4186  14.2741  16.8854  16.9353  17.5774  17.9272

     occupation numbers 
     0.0625   0.0625   0.0625   0.0625   0.0625   0.0625   0.0625   0.0625
     0.0625   0.0625   0.0625   0.0625   0.0625   0.0625   0.0625   0.0625
     0.0625   0.0625   0.0625   0.0625   0.0625   0.0625   0.0625   0.0625
     0.0625   0.0625   0.0625   0.0625   0.0625   0.0625   0.0625   0.0625
     0.0625   0.0625   0.0625   0.0624   0.0624   0.0623   0.0001   0.0000
     0.0000   0.0000   0.0000   0.0000   0.0000   0.0000

          k = 0.7412 0.4280 0.3080 (  2210 PWs)   bands (ev):

   -19.7433 -19.7394  -6.9019  -6.4557  -6.3009  -5.7999  -5.7703  -5.4885
    -3.0984  -3.0788  -2.9808  -2.7408  -2.6328  -2.4294   5.1042   5.7030
     5.7894   5.9319   6.1530   6.3945   6.5521   6.8125   7.2474   7.2638
     7.7333   7.8173   8.6530   9.1374   9.3371   9.4373   9.6176   9.9618
    10.0977  10.1775  10.2382  10.4093  10.5300  10.5869  12.1590  12.6484
    13.3680  14.2444  17.0595  17.0712  17.5453  17.9018

     occupation numbers 
     0.0625   0.0625   0.0625   0.0625   0.0625   0.0625   0.0625   0.0625
     0.0625   0.0625   0.0625   0.0625   0.0625   0.0625   0.0625   0.0625
     0.0625   0.0625   0.0625   0.0625   0.0625   0.0625   0.0625   0.0625
     0.0625   0.0625   0.0625   0.0625   0.0625   0.0625   0.0625   0.0625
     0.0625   0.0625   0.0625   0.0625   0.0624   0.0622   0.0002   0.0000
     0.0000   0.0000   0.0000   0.0000   0.0000   0.0000

          k = 0.0000 0.8559-0.3080 (  2210 PWs)   bands (ev):

   -19.7433 -19.7394  -6.9019  -6.4557  -6.3008  -5.8000  -5.7702  -5.4885
    -3.0984  -3.0788  -2.9807  -2.7409  -2.6327  -2.4295   5.1042   5.7032
     5.7889   5.9322   6.1531   6.3942   6.5524   6.8123   7.2464   7.2650
     7.7331   7.8173   8.6530   9.1374   9.3374   9.4371   9.6176   9.9612
    10.0977  10.1777  10.2392  10.4089  10.5296  10.5870  12.1590  12.6485
    13.3680  14.2444  17.0594  17.0712  17.5453  17.9018

     occupation numbers 
     0.0625   0.0625   0.0625   0.0625   0.0625   0.0625   0.0625   0.0625
     0.0625   0.0625   0.0625   0.0625   0.0625   0.0625   0.0625   0.0625
     0.0625   0.0625   0.0625   0.0625   0.0625   0.0625   0.0625   0.0625
     0.0625   0.0625   0.0625   0.0625   0.0625   0.0625   0.0625   0.0625
     0.0625   0.0625   0.0625   0.0625   0.0624   0.0622   0.0002   0.0000
     0.0000   0.0000   0.0000   0.0000   0.0000   0.0000

          k = 0.2471 0.7133-0.2053 (  2206 PWs)   bands (ev):

   -19.7443 -19.7438  -6.8895  -6.8724  -6.0420  -6.0114  -5.4424  -5.4195
    -3.1736  -3.1730  -2.8352  -2.8302  -2.3865  -2.3824   5.3273   5.3417
     5.6857   5.7005   6.2869   6.2898   6.5886   6.5950   7.2179   7.2274
     8.0041   8.0294   8.7209   8.7421   9.3551   9.3711   9.8252   9.8335
    10.1112  10.1264  10.2570  10.2601  10.5860  10.6046  12.1986  12.2069
    13.9395  13.9516  17.4233  17.4256  17.8700  17.8746

     occupation numbers 
     0.0625   0.0625   0.0625   0.0625   0.0625   0.0625   0.0625   0.0625
     0.0625   0.0625   0.0625   0.0625   0.0625   0.0625   0.0625   0.0625
     0.0625   0.0625   0.0625   0.0625   0.0625   0.0625   0.0625   0.0625
     0.0625   0.0625   0.0625   0.0625   0.0625   0.0625   0.0625   0.0625
     0.0625   0.0625   0.0625   0.0625   0.0622   0.0622   0.0001   0.0001
     0.0000   0.0000   0.0000   0.0000   0.0000   0.0000

          k =-0.7412-0.1427-0.2053 (  2206 PWs)   bands (ev):

   -19.7451 -19.7449  -6.8884  -6.8560  -6.0405  -6.0388  -5.4422  -5.4099
    -3.1731  -3.1713  -2.8352  -2.8340  -2.3867  -2.3729   5.3246   5.3312
     5.6961   5.7042   6.2759   6.2827   6.5693   6.5986   7.2036   7.2245
     8.0279   8.0301   8.7429   8.7463   9.3700   9.3707   9.8039   9.8225
    10.1072  10.1189  10.2562  10.2638  10.6031  10.6078  12.1968  12.2047
    13.9401  13.9531  17.4249  17.4257  17.8693  17.8718

     occupation numbers 
     0.0625   0.0625   0.0625   0.0625   0.0625   0.0625   0.0625   0.0625
     0.0625   0.0625   0.0625   0.0625   0.0625   0.0625   0.0625   0.0625
     0.0625   0.0625   0.0625   0.0625   0.0625   0.0625   0.0625   0.0625
     0.0625   0.0625   0.0625   0.0625   0.0625   0.0625   0.0625   0.0625
     0.0625   0.0625   0.0625   0.0625   0.0622   0.0622   0.0001   0.0001
     0.0000   0.0000   0.0000   0.0000   0.0000   0.0000

     the Fermi energy is    11.3489 ev

!    total energy              =    -537.83414153 Ry
     Harris-Foulkes estimate   =    -537.83413061 Ry
     estimated scf accuracy    <          8.7E-09 Ry

     The total energy is the sum of the following terms:

     one-electron contribution =     -32.88563036 Ry
     hartree contribution      =      83.66425275 Ry
     xc contribution           =    -199.62389131 Ry
     ewald contribution        =    -389.44315552 Ry
     Hubbard energy            =       0.45745389 Ry
     smearing contrib. (-TS)   =      -0.00317098 Ry

     convergence has been achieved in  14 iterations

     init_run     :      6.67s CPU      6.76s WALL (       1 calls)
     electrons    :    375.33s CPU    377.60s WALL (       1 calls)

     Called by init_run:
     wfcinit      :      0.00s CPU      0.00s WALL (       1 calls)
     potinit      :      0.27s CPU      0.28s WALL (       1 calls)

     Called by electrons:
     c_bands      :    289.06s CPU    290.28s WALL (      14 calls)
     sum_band     :     62.21s CPU     62.85s WALL (      14 calls)
     v_of_rho     :      3.36s CPU      3.38s WALL (      15 calls)
     v_h          :      0.16s CPU      0.16s WALL (      15 calls)
     v_xc         :      3.20s CPU      3.21s WALL (      15 calls)
     newd         :     21.52s CPU     21.53s WALL (      15 calls)
     mix_rho      :      0.31s CPU      0.32s WALL (      14 calls)

     Called by c_bands:
     init_us_2    :      3.18s CPU      3.17s WALL (    1008 calls)
     cegterg      :    279.72s CPU    280.37s WALL (     504 calls)

     Called by sum_band:
     sum_band:bec :      0.39s CPU      0.38s WALL (     504 calls)
     addusdens    :     14.66s CPU     14.67s WALL (      14 calls)

     Called by *egterg:
     h_psi        :    208.54s CPU    209.08s WALL (    1927 calls)
     s_psi        :     12.21s CPU     12.21s WALL (    1927 calls)
     g_psi        :      1.14s CPU      1.15s WALL (    1423 calls)
     cdiaghg      :     20.86s CPU     20.90s WALL (    1891 calls)
     cegterg:over :     13.87s CPU     13.90s WALL (    1423 calls)
     cegterg:upda :      8.48s CPU      8.50s WALL (    1423 calls)
     cegterg:last :      6.62s CPU      6.63s WALL (     575 calls)

     Called by h_psi:
     h_psi:vloc   :    169.02s CPU    169.52s WALL (    1927 calls)
     h_psi:vnl    :     25.12s CPU     25.16s WALL (    1927 calls)
     add_vuspsi   :     12.22s CPU     12.25s WALL (    1927 calls)
     vhpsi        :     13.98s CPU     14.00s WALL (    1927 calls)

     General routines
     calbec       :     26.92s CPU     26.98s WALL (    4862 calls)
     fft          :      2.12s CPU      2.13s WALL (     235 calls)
     ffts         :      0.06s CPU      0.07s WALL (      29 calls)
     fftw         :    172.53s CPU    173.13s WALL (  139898 calls)
     interpolate  :      0.35s CPU      0.36s WALL (      29 calls)
     davcio       :      0.00s CPU      1.10s WALL (    1044 calls)

     Parallel routines
     fft_scatter  :     36.15s CPU     36.86s WALL (  140162 calls)
     Hubbard U routines
     new_ns       :      2.65s CPU      3.16s WALL (      14 calls)
     vhpsi        :     13.98s CPU     14.00s WALL (    1927 calls)

     PWSCF        :  6m22.42s CPU     6m24.80s WALL


   This run was terminated on:   5:34:14  13Nov2012            

=------------------------------------------------------------------------------=
