   JOB DONE.
=------------------------------------------------------------------------------=

     Program PWSCF v.5.0.1 starts on 13Nov2012 at  5:42:27 

     This program is part of the open-source Quantum ESPRESSO suite
     for quantum simulation of materials; please cite
         "P. Giannozzi et al., J. Phys.:Condens. Matter 21 395502 (2009);
          URL http://www.quantum-espresso.org", 
     in publications or presentations arising from this work. More details at
     http://www.quantum-espresso.org/quote.php

     Parallel version (MPI), running on     2 processors
     R & G space division:  proc/pool =    2

     Current dimensions of program PWSCF are:
     Max number of different atomic species (ntypx) = 10
     Max number of k-points (npk) =  40000
     Max angular momentum in pseudopotentials (lmaxx) =  3
     Reading input from CoLaO_U700_a-5.in
               file Co.pbe-nd-rrkjus.UPF: wavefunction(s)  4S 3D renormalized
               file O.pbe-rrkjus.UPF: wavefunction(s)  2S renormalized
               file O.pbe-rrkjus.UPF: wavefunction(s)  2S renormalized

     Subspace diagonalization in iterative solution of the eigenvalue problem:
     a serial algorithm will be used


     Parallelization info
     --------------------
     sticks:   dense  smooth     PW     G-vecs:    dense   smooth      PW
     Min        1112     444    131                34808     8786    1448
     Max        1113     445    132                34809     8787    1449
     Sum        2225     889    263                69617    17573    2897


     Title: 
     GGA + U, U = 7.000, alpha = -0.050                                         


     bravais-lattice index     =            5
     lattice parameter (alat)  =      10.3292  a.u.
     unit-cell volume          =     793.0599 (a.u.)^3
     number of atoms/cell      =           10
     number of atomic types    =            4
     number of electrons       =        76.00
     number of Kohn-Sham states=           46
     kinetic-energy cutoff     =      30.0000  Ry
     charge density cutoff     =     300.0000  Ry
     convergence threshold     =      1.0E-08
     mixing beta               =       0.2000
     number of iterations used =            8  plain     mixing
     Exchange-correlation      =  SLA  PW   PBE  PBE ( 1 4 3 4 0)
     EXX-fraction              =        0.00

     celldm(1)=  10.329242  celldm(2)=   0.000000  celldm(3)=   0.000000
     celldm(4)=   0.488100  celldm(5)=   0.000000  celldm(6)=   0.000000

     crystal axes: (cart. coord. in units of alat)
               a(1) = (   0.505915  -0.292090   0.811624 )  
               a(2) = (   0.000000   0.584180   0.811624 )  
               a(3) = (  -0.505915  -0.292090   0.811624 )  

     reciprocal axes: (cart. coord. in units 2 pi/alat)
               b(1) = (  0.988308 -0.570600  0.410699 )  
               b(2) = (  0.000000  1.141200  0.410699 )  
               b(3) = ( -0.988308 -0.570600  0.410699 )  


     PseudoPot. # 1 for Co read from file:
     /home/mcurnan/dft-course/Project1/example_LaCoO3/Co.pbe-nd-rrkjus.UPF
     MD5 check sum: 3e47a84addf5e975e0edeaeee2a73f59
     Pseudo is Ultrasoft + core correction, Zval =  9.0
     Generated by new atomic code, or converted to UPF format
     Using radial grid of  961 points,  6 beta functions with: 
                l(1) =   0
                l(2) =   0
                l(3) =   1
                l(4) =   1
                l(5) =   2
                l(6) =   2
     Q(r) pseudized with 0 coefficients 


     PseudoPot. # 2 for La read from file:
     /home/mcurnan/dft-course/Project1/example_LaCoO3/La.pbe-nsp-van.UPF
     MD5 check sum: b2f11743f52dde65f77d1302becd7929
     Pseudo is Ultrasoft + core correction, Zval = 11.0
     Generated by new atomic code, or converted to UPF format
     Using radial grid of  907 points,  6 beta functions with: 
                l(1) =   0
                l(2) =   0
                l(3) =   1
                l(4) =   1
                l(5) =   2
                l(6) =   2
     Q(r) pseudized with  6 coefficients,  rinner =    1.200   1.200   1.200
                                                       1.200   1.200

     PseudoPot. # 3 for O  read from file:
     /home/mcurnan/dft-course/Project1/example_LaCoO3/O.pbe-rrkjus.UPF
     MD5 check sum: 390ba29e75625707450f3bd3f0eb6be9
     Pseudo is Ultrasoft, Zval =  6.0
     Generated by new atomic code, or converted to UPF format
     Using radial grid of 1269 points,  4 beta functions with: 
                l(1) =   0
                l(2) =   0
                l(3) =   1
                l(4) =   1
     Q(r) pseudized with 0 coefficients 


     PseudoPot. # 4 for O  read from file:
     /home/mcurnan/dft-course/Project1/example_LaCoO3/O.pbe-rrkjus.UPF
     MD5 check sum: 390ba29e75625707450f3bd3f0eb6be9
     Pseudo is Ultrasoft, Zval =  6.0
     Generated by new atomic code, or converted to UPF format
     Using radial grid of 1269 points,  4 beta functions with: 
                l(1) =   0
                l(2) =   0
                l(3) =   1
                l(4) =   1
     Q(r) pseudized with 0 coefficients 


     atomic species   valence    mass     pseudopotential
        Co1            9.00     1.00000     Co( 1.00)
        La1           11.00     1.00000     La( 1.00)
        O1             6.00     1.00000     O ( 1.00)
        O2             6.00     1.00000     O ( 1.00)
 -----
     simplified LDA+U calculation, Hubbard_lmax = 2
     atomic species  L   Hubbard U  Hubbard alpha
        Co1          2    7.000000    0.000000
        La1          2    0.000000    0.000000
        O1           1    0.000000   -0.050000
        O2           1    0.000000    0.000000
 -----

     No symmetry found


                                    s                        frac. trans.

      isym =  1     identity                                     

 cryst.   s( 1) = (     1          0          0      )
                  (     0          1          0      )
                  (     0          0          1      )

 cart.    s( 1) = (  1.0000000  0.0000000  0.0000000 )
                  (  0.0000000  1.0000000  0.0000000 )
                  (  0.0000000  0.0000000  1.0000000 )


     point group C_1 (1)    
     there are  1 classes
     the character table:

       E    
A      1.00

     the symmetry operations in each class:
     E        1

   Cartesian axes

     site n.     atom                  positions (alat units)
         1           Co1 tau(   1) = (   0.2228050  -0.1992639   1.0141240  )
         2           Co1 tau(   2) = (  -0.2831100   0.0928263   1.4199360  )
         3           La1 tau(   3) = (  -0.2831100   0.0928263   0.8112181  )
         4           La1 tau(   4) = (   0.2228050   0.3849164   1.2170300  )
         5           O1  tau(   5) = (   0.0000000   0.0000000   0.0000000  )
         6           O2  tau(   6) = (   0.0008601   0.1861491   1.6232478  )
         7           O2  tau(   7) = (   0.1616398   0.0923297   0.8116239  )
         8           O2  tau(   8) = (  -0.0603051  -0.1064377   1.2166242  )
         9           O2  tau(   9) = (   0.4447499  -0.0004966   1.2166242  )
        10           O2  tau(  10) = (  -0.2219449   0.3854130   1.2166242  )

   Crystallographic axes

     site n.     atom                  positions (cryst. coord.)
         1           Co1 tau(   1) = (  0.7504000  0.1891000  0.3100000  )
         2           Co1 tau(   2) = (  0.2504000  0.6891000  0.8100000  )
         3           La1 tau(   3) = (  0.0004000  0.4391000  0.5600000  )
         4           La1 tau(   4) = (  0.5004000  0.9391000  0.0600000  )
         5           O1  tau(   5) = (  0.0000000  0.0000000  0.0000000  )
         6           O2  tau(   6) = (  0.5613000  0.8791000  0.5596000  )
         7           O2  tau(   7) = (  0.4404000  0.4387000  0.1209000  )
         8           O2  tau(   8) = (  0.5008000  0.3782000  0.6200000  )
         9           O2  tau(   9) = (  0.9395000  0.4991000  0.0604000  )
        10           O2  tau(  10) = (  0.0604000  0.9395000  0.4991000  )

     number of k points=    36  gaussian smearing, width (Ry)=  0.0300
                       cart. coord. in units 2pi/alat
        k(    1) = (   0.0000000   0.0000000   0.0000000), wk =   0.0312500
        k(    2) = (  -0.2470771  -0.1426500   0.1026748), wk =   0.0625000
        k(    3) = (   0.4941541   0.2853000  -0.2053496), wk =   0.0312500
        k(    4) = (  -0.2470771   0.1426500   0.2053496), wk =   0.0625000
        k(    5) = (   0.4941541   0.5706001  -0.1026748), wk =   0.0625000
        k(    6) = (   0.2470771   0.4279500   0.0000000), wk =   0.0625000
        k(    7) = (   0.4941541  -0.2853000  -0.4106993), wk =   0.0312500
        k(    8) = (   0.0000000   0.0000000   0.3080244), wk =   0.0625000
        k(    9) = (   0.7412312   0.4279500   0.0000000), wk =   0.0625000
        k(   10) = (   0.4941541   0.2853000   0.1026748), wk =   0.0625000
        k(   11) = (   0.7412312  -0.4279500  -0.3080244), wk =   0.0625000
        k(   12) = (   0.4941541  -0.5706001  -0.2053496), wk =   0.0625000
        k(   13) = (   0.0000000   0.0000000  -0.6160489), wk =   0.0312500
        k(   14) = (  -0.2470771   0.1426500  -0.1026748), wk =   0.0625000
        k(   15) = (   0.0000000   0.2853000   0.1026748), wk =   0.0625000
        k(   16) = (   0.4941541  -0.2853000   0.2053496), wk =   0.0312500
        k(   17) = (   0.0000000  -0.5706001  -0.2053496), wk =   0.0312500
        k(   18) = (  -0.2470771  -0.1426500  -0.2053496), wk =   0.0625000
        k(   19) = (   0.0000000  -0.2853000   0.2053496), wk =   0.0625000
        k(   20) = (   0.4941541  -0.5706001   0.1026748), wk =   0.0625000
        k(   21) = (  -0.7412312   0.1426500  -0.1026748), wk =   0.0625000
        k(   22) = (   0.2470771  -0.7132501  -0.1026748), wk =   0.0625000
        k(   23) = (  -0.7412312  -0.1426500   0.1026748), wk =   0.0625000
        k(   24) = (   0.2470771   0.7132501   0.1026748), wk =   0.0625000
        k(   25) = (   0.2470771  -0.4279500   0.0000000), wk =   0.0625000
        k(   26) = (  -0.4941541   0.0000000   0.0000000), wk =   0.0625000
        k(   27) = (   0.4941541   0.2853000   0.4106993), wk =   0.0312500
        k(   28) = (   0.0000000   0.5706001  -0.4106993), wk =   0.0312500
        k(   29) = (   0.7412312  -0.4279500   0.0000000), wk =   0.0625000
        k(   30) = (   0.0000000  -0.8559001   0.0000000), wk =   0.0625000
        k(   31) = (   0.4941541  -0.2853000  -0.1026748), wk =   0.0625000
        k(   32) = (   0.0000000  -0.5706001   0.1026748), wk =   0.0625000
        k(   33) = (   0.7412312   0.4279500   0.3080244), wk =   0.0625000
        k(   34) = (   0.0000000   0.8559001  -0.3080244), wk =   0.0625000
        k(   35) = (   0.2470771   0.7132501  -0.2053496), wk =   0.0625000
        k(   36) = (  -0.7412312  -0.1426500  -0.2053496), wk =   0.0625000

                       cryst. coord.
        k(    1) = (   0.0000000   0.0000000   0.0000000), wk =   0.0312500
        k(    2) = (   0.0000000   0.0000000   0.2500000), wk =   0.0625000
        k(    3) = (   0.0000000   0.0000000  -0.5000000), wk =   0.0312500
        k(    4) = (   0.0000000   0.2500000   0.2500000), wk =   0.0625000
        k(    5) = (   0.0000000   0.2500000  -0.5000000), wk =   0.0625000
        k(    6) = (   0.0000000   0.2500000  -0.2500000), wk =   0.0625000
        k(    7) = (   0.0000000  -0.5000000  -0.5000000), wk =   0.0312500
        k(    8) = (   0.2500000   0.2500000   0.2500000), wk =   0.0625000
        k(    9) = (   0.2500000   0.2500000  -0.5000000), wk =   0.0625000
        k(   10) = (   0.2500000   0.2500000  -0.2500000), wk =   0.0625000
        k(   11) = (   0.2500000  -0.5000000  -0.5000000), wk =   0.0625000
        k(   12) = (   0.2500000  -0.5000000  -0.2500000), wk =   0.0625000
        k(   13) = (  -0.5000000  -0.5000000  -0.5000000), wk =   0.0312500
        k(   14) = (  -0.2500000   0.0000000   0.0000000), wk =   0.0625000
        k(   15) = (   0.0000000   0.2500000   0.0000000), wk =   0.0625000
        k(   16) = (   0.5000000   0.0000000   0.0000000), wk =   0.0312500
        k(   17) = (   0.0000000  -0.5000000   0.0000000), wk =   0.0312500
        k(   18) = (  -0.2500000  -0.2500000   0.0000000), wk =   0.0625000
        k(   19) = (   0.2500000   0.0000000   0.2500000), wk =   0.0625000
        k(   20) = (   0.5000000  -0.2500000   0.0000000), wk =   0.0625000
        k(   21) = (  -0.5000000   0.0000000   0.2500000), wk =   0.0625000
        k(   22) = (   0.2500000  -0.5000000   0.0000000), wk =   0.0625000
        k(   23) = (  -0.2500000   0.0000000   0.5000000), wk =   0.0625000
        k(   24) = (   0.0000000   0.5000000  -0.2500000), wk =   0.0625000
        k(   25) = (   0.2500000  -0.2500000   0.0000000), wk =   0.0625000
        k(   26) = (  -0.2500000   0.0000000   0.2500000), wk =   0.0625000
        k(   27) = (   0.5000000   0.5000000   0.0000000), wk =   0.0312500
        k(   28) = (  -0.5000000   0.0000000  -0.5000000), wk =   0.0312500
        k(   29) = (   0.5000000  -0.2500000  -0.2500000), wk =   0.0625000
        k(   30) = (   0.2500000  -0.5000000   0.2500000), wk =   0.0625000
        k(   31) = (   0.2500000  -0.2500000  -0.2500000), wk =   0.0625000
        k(   32) = (   0.2500000  -0.2500000   0.2500000), wk =   0.0625000
        k(   33) = (   0.5000000   0.5000000  -0.2500000), wk =   0.0625000
        k(   34) = (  -0.5000000   0.2500000  -0.5000000), wk =   0.0625000
        k(   35) = (  -0.2500000   0.2500000  -0.5000000), wk =   0.0625000
        k(   36) = (  -0.5000000  -0.2500000   0.2500000), wk =   0.0625000

     Dense  grid:    69617 G-vectors     FFT dimensions: (  60,  60,  60)

     Smooth grid:    17573 G-vectors     FFT dimensions: (  40,  40,  40)

     Largest allocated arrays     est. size (Mb)     dimensions
        Kohn-Sham Wavefunctions         0.79 Mb     (   1119,   46)
        Atomic wavefunctions            1.06 Mb     (   1119,   62)
        NL pseudopotentials             2.05 Mb     (   1119,  120)
        Each V/rho on FFT grid          1.65 Mb     ( 108000)
        Each G-vector array             0.27 Mb     (  34808)
        G-vector shells                 0.04 Mb     (   4682)
     Largest temporary arrays     est. size (Mb)     dimensions
        Auxiliary wavefunctions         3.14 Mb     (   1119,  184)
        Each subspace H/S matrix        0.52 Mb     ( 184, 184)
        Each <psi_i|beta_j> matrix      0.08 Mb     (    120,   46)
        Arrays for rho mixing          13.18 Mb     ( 108000,   8)

     Check: negative/imaginary core charge=   -0.000028    0.000000

     The initial density is read from file :
     /home/mcurnan/dft-course/Project1/example_LaCoO3/700/O/alpha/CoLaO_U700.save/charge-density.dat

 --- in v_hubbard ---
Hubbard energy    0.6499
 -------
     Number of +U iterations with fixed ns =  0
     Starting occupations:
 --- enter write_ns ---
 LDA+U parameters:
U( 1)     =  7.00000000
alpha( 1) =  0.00000000
U( 2)     =  0.00000000
alpha( 2) =  0.00000000
U( 3)     =  0.00000000
alpha( 3) = -0.05000000
U( 4)     =  0.00000000
alpha( 4) =  0.00000000
atom    1   Tr[ns(na)] =   8.02205
    eigenvalues: 
  0.596  0.596  0.938  0.941  0.941
    eigenvectors:
  0.000  0.000  1.000  0.000  0.000
  0.057  0.598  0.000  0.178  0.167
  0.598  0.057  0.000  0.167  0.178
  0.210  0.135  0.000  0.095  0.560
  0.135  0.210  0.000  0.560  0.095
    occupations:
  0.938  0.000  0.000  0.000  0.000
  0.000  0.715  0.000 -0.060  0.152
  0.000  0.000  0.715  0.152  0.060
  0.000 -0.060  0.152  0.822  0.000
  0.000  0.152  0.060  0.000  0.822
atom    2   Tr[ns(na)] =   8.02142
    eigenvalues: 
  0.595  0.595  0.938  0.941  0.941
    eigenvectors:
  0.000  0.000  1.000  0.000  0.000
  0.332  0.323  0.000  0.023  0.322
  0.323  0.332  0.000  0.322  0.023
  0.288  0.057  0.000  0.647  0.008
  0.057  0.288  0.000  0.008  0.647
    occupations:
  0.938  0.000  0.000  0.000  0.000
  0.000  0.715  0.000  0.060  0.153
  0.000  0.000  0.715  0.153 -0.060
  0.000  0.060  0.153  0.822  0.000
  0.000  0.153 -0.060  0.000  0.822
atom    3   Tr[ns(na)] =   3.80282
    eigenvalues: 
  0.355  0.355  0.384  0.403  0.403
    eigenvectors:
  0.000  0.000  1.000  0.000  0.000
  0.065  0.856  0.000  0.058  0.021
  0.856  0.065  0.000  0.021  0.058
  0.073  0.006  0.000  0.250  0.670
  0.006  0.073  0.000  0.670  0.250
    occupations:
  0.384  0.000  0.000  0.000  0.000
  0.000  0.359  0.000  0.000  0.013
  0.000  0.000  0.359  0.013  0.000
  0.000  0.000  0.013  0.399  0.000
  0.000  0.013  0.000  0.000  0.399
atom    4   Tr[ns(na)] =   3.80282
    eigenvalues: 
  0.355  0.355  0.384  0.403  0.403
    eigenvectors:
  0.000  0.000  1.000  0.000  0.000
  0.729  0.192  0.000  0.048  0.032
  0.192  0.729  0.000  0.032  0.048
  0.017  0.062  0.000  0.359  0.562
  0.062  0.017  0.000  0.562  0.359
    occupations:
  0.384  0.000  0.000  0.000  0.000
  0.000  0.359  0.000  0.000  0.013
  0.000  0.000  0.359  0.013  0.000
  0.000  0.000  0.013  0.399  0.000
  0.000  0.013  0.000  0.000  0.399
atom    5   Tr[ns(na)] =   5.43357
    eigenvalues: 
  0.846  0.929  0.941
    eigenvectors:
  0.340  0.000  0.660
  0.496  0.250  0.255
  0.164  0.750  0.086
    occupations:
  0.909 -0.039  0.022
 -0.039  0.891  0.022
  0.022  0.022  0.917
atom    6   Tr[ns(na)] =   5.43358
    eigenvalues: 
  0.846  0.929  0.941
    eigenvectors:
  0.340  0.000  0.660
  0.494  0.250  0.256
  0.166  0.750  0.085
    occupations:
  0.909  0.039  0.022
  0.039  0.891 -0.022
  0.022 -0.022  0.917
atom    7   Tr[ns(na)] =   5.43358
    eigenvalues: 
  0.846  0.929  0.941
    eigenvectors:
  0.340  0.000  0.660
  0.000  1.000  0.000
  0.660  0.000  0.340
    occupations:
  0.909  0.000 -0.045
  0.000  0.929  0.000
 -0.045  0.000  0.879
atom    8   Tr[ns(na)] =   5.43357
    eigenvalues: 
  0.846  0.929  0.941
    eigenvectors:
  0.340  0.000  0.660
  0.496  0.250  0.255
  0.164  0.750  0.086
    occupations:
  0.909 -0.039  0.022
 -0.039  0.891  0.022
  0.022  0.022  0.917
atom    9   Tr[ns(na)] =   5.43358
    eigenvalues: 
  0.846  0.929  0.941
    eigenvectors:
  0.340  0.000  0.660
  0.494  0.250  0.256
  0.166  0.750  0.085
    occupations:
  0.909  0.039  0.022
  0.039  0.891 -0.022
  0.022 -0.022  0.917
atom   10   Tr[ns(na)] =   5.43358
    eigenvalues: 
  0.846  0.929  0.941
    eigenvectors:
  0.340  0.000  0.660
  0.000  1.000  0.000
  0.660  0.000  0.340
    occupations:
  0.909  0.000 -0.045
  0.000  0.929  0.000
 -0.045  0.000  0.879
N of occupied +U levels =  56.2505796
 --- exit write_ns ---
 LDA+U Projector read from file 
     Starting wfc from file

     total cpu time spent up to now is        7.3 secs

     per-process dynamical memory:    62.8 Mb

     Self-consistent Calculation

     iteration #  1     ecut=    30.00 Ry     beta=0.20
     Davidson diagonalization with overlap
     c_bands:  1 eigenvalues not converged
     c_bands:  1 eigenvalues not converged
     c_bands:  1 eigenvalues not converged
     c_bands:  1 eigenvalues not converged
     c_bands:  1 eigenvalues not converged
     c_bands:  1 eigenvalues not converged
     c_bands:  1 eigenvalues not converged
     c_bands:  1 eigenvalues not converged
     c_bands:  1 eigenvalues not converged
     c_bands:  1 eigenvalues not converged
     c_bands:  1 eigenvalues not converged
     c_bands:  1 eigenvalues not converged
     c_bands:  1 eigenvalues not converged
     c_bands:  1 eigenvalues not converged
     c_bands:  1 eigenvalues not converged
     ethr =  1.00E-10,  avg # of iterations = 17.3
 --- enter write_ns ---
 LDA+U parameters:
U( 1)     =  7.00000000
alpha( 1) =  0.00000000
U( 2)     =  0.00000000
alpha( 2) =  0.00000000
U( 3)     =  0.00000000
alpha( 3) = -0.05000000
U( 4)     =  0.00000000
alpha( 4) =  0.00000000
atom    1   Tr[ns(na)] =   8.28487
    eigenvalues: 
  0.577  0.578  0.995  0.995  0.998
    eigenvectors:
  0.000  0.000  0.000  0.000  1.000
  0.556  0.098  0.159  0.187  0.000
  0.098  0.556  0.187  0.159  0.000
  0.169  0.177  0.568  0.086  0.000
  0.177  0.168  0.086  0.569  0.000
    occupations:
  0.998  0.000  0.000  0.000  0.000
  0.000  0.722  0.000 -0.073  0.185
  0.000  0.000  0.722  0.184  0.072
  0.000 -0.073  0.184  0.850  0.000
  0.000  0.185  0.072  0.000  0.851
atom    2   Tr[ns(na)] =   8.27498
    eigenvalues: 
  0.574  0.575  0.995  0.995  0.998
    eigenvectors:
  0.000  0.000  0.000  0.000  1.000
  0.415  0.239  0.329  0.016  0.000
  0.239  0.415  0.016  0.329  0.000
  0.026  0.320  0.015  0.639  0.000
  0.320  0.026  0.639  0.015  0.000
    occupations:
  0.998  0.000  0.000  0.000  0.000
  0.000  0.720  0.000  0.072  0.186
  0.000  0.000  0.720  0.186 -0.073
  0.000  0.072  0.186  0.850  0.000
  0.000  0.186 -0.073  0.000  0.850
atom    3   Tr[ns(na)] =   3.78774
    eigenvalues: 
  0.356  0.356  0.381  0.401  0.401
    eigenvectors:
  0.000  0.000  1.000  0.000  0.000
  0.227  0.687  0.000  0.065  0.020
  0.687  0.227  0.000  0.021  0.065
  0.064  0.022  0.000  0.225  0.689
  0.022  0.064  0.000  0.689  0.226
    occupations:
  0.381  0.000  0.000  0.000  0.000
  0.000  0.360  0.000  0.000  0.013
  0.000  0.000  0.360  0.013  0.000
  0.000  0.000  0.013  0.397  0.000
  0.000  0.013  0.000  0.000  0.397
atom    4   Tr[ns(na)] =   3.78775
    eigenvalues: 
  0.356  0.356  0.381  0.401  0.401
    eigenvectors:
  0.000  0.000  1.000  0.000  0.000
  0.685  0.231  0.000  0.063  0.021
  0.231  0.684  0.000  0.020  0.064
  0.022  0.063  0.000  0.232  0.683
  0.062  0.022  0.000  0.684  0.232
    occupations:
  0.381  0.000  0.000  0.000  0.000
  0.000  0.360  0.000  0.000  0.012
  0.000  0.000  0.360  0.013  0.000
  0.000  0.000  0.013  0.397  0.000
  0.000  0.012  0.000  0.000  0.397
atom    5   Tr[ns(na)] =   5.37557
    eigenvalues: 
  0.820  0.922  0.945
    eigenvectors:
  0.341  0.000  0.659
  0.494  0.250  0.256
  0.164  0.750  0.086
    occupations:
  0.902 -0.051  0.030
 -0.051  0.878  0.026
  0.030  0.026  0.908
atom    6   Tr[ns(na)] =   5.36579
    eigenvalues: 
  0.818  0.921  0.944
    eigenvectors:
  0.342  0.000  0.658
  0.493  0.249  0.257
  0.165  0.751  0.085
    occupations:
  0.901  0.052  0.030
  0.052  0.876 -0.026
  0.030 -0.026  0.906
atom    7   Tr[ns(na)] =   5.36579
    eigenvalues: 
  0.818  0.921  0.944
    eigenvectors:
  0.342  0.000  0.658
  0.000  1.000  0.000
  0.658  0.000  0.342
    occupations:
  0.901  0.000 -0.060
  0.000  0.921  0.000
 -0.060  0.000  0.861
atom    8   Tr[ns(na)] =   5.36575
    eigenvalues: 
  0.818  0.921  0.944
    eigenvectors:
  0.342  0.000  0.658
  0.494  0.250  0.256
  0.164  0.750  0.086
    occupations:
  0.901 -0.052  0.030
 -0.052  0.876  0.026
  0.030  0.026  0.906
atom    9   Tr[ns(na)] =   5.36583
    eigenvalues: 
  0.818  0.921  0.944
    eigenvectors:
  0.342  0.000  0.658
  0.493  0.250  0.257
  0.165  0.750  0.085
    occupations:
  0.901  0.052  0.030
  0.052  0.876 -0.026
  0.030 -0.026  0.906
atom   10   Tr[ns(na)] =   5.36584
    eigenvalues: 
  0.818  0.921  0.944
    eigenvectors:
  0.342  0.000  0.658
  0.000  1.000  0.000
  0.658  0.000  0.342
    occupations:
  0.901  0.000 -0.060
  0.000  0.921  0.000
 -0.060  0.000  0.861
N of occupied +U levels =  56.3398945
 --- exit write_ns ---
 --- in v_hubbard ---
Hubbard energy    0.6207
 -------

     total cpu time spent up to now is      106.6 secs

     total energy              =    -537.76361721 Ry
     Harris-Foulkes estimate   =    -537.78367108 Ry
     estimated scf accuracy    <       0.08519367 Ry

     iteration #  2     ecut=    30.00 Ry     beta=0.20
     Davidson diagonalization with overlap
     ethr =  1.12E-04,  avg # of iterations =  1.6
 --- enter write_ns ---
 LDA+U parameters:
U( 1)     =  7.00000000
alpha( 1) =  0.00000000
U( 2)     =  0.00000000
alpha( 2) =  0.00000000
U( 3)     =  0.00000000
alpha( 3) = -0.05000000
U( 4)     =  0.00000000
alpha( 4) =  0.00000000
atom    1   Tr[ns(na)] =   8.02083
    eigenvalues: 
  0.510  0.510  0.996  0.996  0.999
    eigenvectors:
  0.000  0.000  0.000  0.000  1.000
  0.557  0.098  0.223  0.122  0.000
  0.098  0.557  0.122  0.223  0.000
  0.171  0.174  0.477  0.178  0.000
  0.173  0.171  0.179  0.477  0.000
    occupations:
  0.999  0.000  0.000  0.000  0.000
  0.000  0.677  0.000 -0.087  0.214
  0.000  0.000  0.678  0.214  0.086
  0.000 -0.087  0.214  0.828  0.000
  0.000  0.214  0.086  0.000  0.828
atom    2   Tr[ns(na)] =   8.02029
    eigenvalues: 
  0.509  0.510  0.996  0.996  0.999
    eigenvectors:
  0.000  0.000  0.000  0.000  1.000
  0.416  0.239  0.291  0.053  0.000
  0.239  0.416  0.053  0.291  0.000
  0.024  0.321  0.000  0.655  0.000
  0.321  0.024  0.655  0.000  0.000
    occupations:
  0.999  0.000  0.000  0.000  0.000
  0.000  0.677  0.000  0.086  0.215
  0.000  0.000  0.677  0.215 -0.086
  0.000  0.086  0.215  0.828  0.000
  0.000  0.215 -0.086  0.000  0.828
atom    3   Tr[ns(na)] =   3.78249
    eigenvalues: 
  0.355  0.355  0.380  0.401  0.401
    eigenvectors:
  0.000  0.000  1.000  0.000  0.000
  0.206  0.714  0.000  0.073  0.007
  0.714  0.206  0.000  0.007  0.073
  0.062  0.019  0.000  0.088  0.831
  0.019  0.062  0.000  0.831  0.088
    occupations:
  0.380  0.000  0.000  0.000  0.000
  0.000  0.358  0.000  0.000  0.013
  0.000  0.000  0.358  0.013  0.000
  0.000  0.000  0.013  0.397  0.000
  0.000  0.013  0.000  0.000  0.397
atom    4   Tr[ns(na)] =   3.78250
    eigenvalues: 
  0.355  0.355  0.380  0.401  0.401
    eigenvectors:
  0.000  0.000  1.000  0.000  0.000
  0.632  0.288  0.000  0.065  0.015
  0.288  0.631  0.000  0.015  0.065
  0.026  0.055  0.000  0.178  0.741
  0.054  0.026  0.000  0.742  0.178
    occupations:
  0.380  0.000  0.000  0.000  0.000
  0.000  0.358  0.000  0.000  0.013
  0.000  0.000  0.358  0.013  0.000
  0.000  0.000  0.013  0.397  0.000
  0.000  0.013  0.000  0.000  0.397
atom    5   Tr[ns(na)] =   5.45275
    eigenvalues: 
  0.843  0.933  0.950
    eigenvectors:
  0.335  0.000  0.665
  0.498  0.252  0.251
  0.167  0.748  0.084
    occupations:
  0.914 -0.044  0.025
 -0.044  0.893  0.023
  0.025  0.023  0.919
atom    6   Tr[ns(na)] =   5.45024
    eigenvalues: 
  0.843  0.933  0.950
    eigenvectors:
  0.335  0.000  0.665
  0.500  0.248  0.252
  0.165  0.752  0.083
    occupations:
  0.914  0.044  0.025
  0.044  0.892 -0.023
  0.025 -0.023  0.919
atom    7   Tr[ns(na)] =   5.45024
    eigenvalues: 
  0.843  0.933  0.950
    eigenvectors:
  0.335  0.000  0.665
  0.000  1.000  0.000
  0.665  0.000  0.335
    occupations:
  0.914  0.000 -0.051
  0.000  0.933  0.000
 -0.051  0.000  0.879
atom    8   Tr[ns(na)] =   5.45068
    eigenvalues: 
  0.843  0.933  0.950
    eigenvectors:
  0.335  0.000  0.665
  0.498  0.252  0.251
  0.167  0.748  0.084
    occupations:
  0.914 -0.044  0.025
 -0.044  0.892  0.023
  0.025  0.023  0.919
atom    9   Tr[ns(na)] =   5.45015
    eigenvalues: 
  0.843  0.933  0.950
    eigenvectors:
  0.335  0.000  0.665
  0.500  0.248  0.252
  0.165  0.752  0.083
    occupations:
  0.914  0.044  0.025
  0.044  0.892 -0.023
  0.025 -0.023  0.919
atom   10   Tr[ns(na)] =   5.45015
    eigenvalues: 
  0.843  0.933  0.950
    eigenvectors:
  0.335  0.000  0.665
  0.000  1.000  0.000
  0.665  0.000  0.335
    occupations:
  0.914  0.000 -0.051
  0.000  0.933  0.000
 -0.051  0.000  0.879
N of occupied +U levels =  56.3103180
 --- exit write_ns ---
 --- in v_hubbard ---
Hubbard energy    0.6088
 -------

     total cpu time spent up to now is      131.7 secs

     total energy              =    -537.78202128 Ry
     Harris-Foulkes estimate   =    -537.78191684 Ry
     estimated scf accuracy    <       0.05083975 Ry

     iteration #  3     ecut=    30.00 Ry     beta=0.20
     Davidson diagonalization with overlap
     ethr =  6.69E-05,  avg # of iterations =  1.0
 --- enter write_ns ---
 LDA+U parameters:
U( 1)     =  7.00000000
alpha( 1) =  0.00000000
U( 2)     =  0.00000000
alpha( 2) =  0.00000000
U( 3)     =  0.00000000
alpha( 3) = -0.05000000
U( 4)     =  0.00000000
alpha( 4) =  0.00000000
atom    1   Tr[ns(na)] =   8.07113
    eigenvalues: 
  0.522  0.523  0.996  0.996  0.999
    eigenvectors:
  0.000  0.000  0.000  0.000  1.000
  0.557  0.099  0.218  0.126  0.000
  0.099  0.557  0.126  0.218  0.000
  0.171  0.173  0.484  0.171  0.000
  0.173  0.171  0.171  0.484  0.000
    occupations:
  0.999  0.000  0.000  0.000  0.000
  0.000  0.685  0.000 -0.084  0.209
  0.000  0.000  0.686  0.209  0.084
  0.000 -0.084  0.209  0.833  0.000
  0.000  0.209  0.084  0.000  0.833
atom    2   Tr[ns(na)] =   8.06868
    eigenvalues: 
  0.521  0.522  0.996  0.996  0.999
    eigenvectors:
  0.000  0.000  0.000  0.000  1.000
  0.417  0.239  0.293  0.052  0.000
  0.239  0.417  0.052  0.293  0.000
  0.024  0.320  0.000  0.655  0.000
  0.320  0.024  0.655  0.000  0.000
    occupations:
  0.999  0.000  0.000  0.000  0.000
  0.000  0.685  0.000  0.084  0.210
  0.000  0.000  0.685  0.210 -0.084
  0.000  0.084  0.210  0.833  0.000
  0.000  0.210 -0.084  0.000  0.833
atom    3   Tr[ns(na)] =   3.78395
    eigenvalues: 
  0.355  0.355  0.380  0.401  0.401
    eigenvectors:
  0.000  0.000  1.000  0.000  0.000
  0.221  0.698  0.000  0.068  0.012
  0.698  0.221  0.000  0.012  0.068
  0.060  0.020  0.000  0.146  0.774
  0.020  0.060  0.000  0.774  0.146
    occupations:
  0.380  0.000  0.000  0.000  0.000
  0.000  0.359  0.000  0.000  0.012
  0.000  0.000  0.359  0.012  0.000
  0.000  0.000  0.012  0.397  0.000
  0.000  0.012  0.000  0.000  0.397
atom    4   Tr[ns(na)] =   3.78396
    eigenvalues: 
  0.355  0.355  0.380  0.401  0.401
    eigenvectors:
  0.000  0.000  1.000  0.000  0.000
  0.665  0.255  0.000  0.062  0.017
  0.255  0.665  0.000  0.017  0.063
  0.023  0.057  0.000  0.207  0.713
  0.057  0.023  0.000  0.714  0.207
    occupations:
  0.380  0.000  0.000  0.000  0.000
  0.000  0.359  0.000  0.000  0.012
  0.000  0.000  0.359  0.012  0.000
  0.000  0.000  0.012  0.397  0.000
  0.000  0.012  0.000  0.000  0.397
atom    5   Tr[ns(na)] =   5.43718
    eigenvalues: 
  0.838  0.931  0.949
    eigenvectors:
  0.336  0.000  0.664
  0.497  0.251  0.252
  0.167  0.749  0.085
    occupations:
  0.912 -0.045  0.026
 -0.045  0.890  0.024
  0.026  0.024  0.917
atom    6   Tr[ns(na)] =   5.43431
    eigenvalues: 
  0.838  0.931  0.949
    eigenvectors:
  0.336  0.000  0.664
  0.499  0.248  0.253
  0.165  0.752  0.083
    occupations:
  0.912  0.046  0.026
  0.046  0.889 -0.024
  0.026 -0.024  0.917
atom    7   Tr[ns(na)] =   5.43431
    eigenvalues: 
  0.838  0.931  0.949
    eigenvectors:
  0.336  0.000  0.664
  0.000  1.000  0.000
  0.664  0.000  0.336
    occupations:
  0.912  0.000 -0.053
  0.000  0.931  0.000
 -0.053  0.000  0.875
atom    8   Tr[ns(na)] =   5.43467
    eigenvalues: 
  0.838  0.931  0.949
    eigenvectors:
  0.336  0.000  0.664
  0.497  0.251  0.252
  0.167  0.749  0.085
    occupations:
  0.912 -0.046  0.026
 -0.046  0.889  0.024
  0.026  0.024  0.917
atom    9   Tr[ns(na)] =   5.43425
    eigenvalues: 
  0.837  0.931  0.949
    eigenvectors:
  0.336  0.000  0.664
  0.498  0.249  0.253
  0.165  0.751  0.083
    occupations:
  0.912  0.046  0.026
  0.046  0.889 -0.024
  0.026 -0.024  0.917
atom   10   Tr[ns(na)] =   5.43425
    eigenvalues: 
  0.837  0.931  0.949
    eigenvectors:
  0.336  0.000  0.664
  0.000  1.000  0.000
  0.664  0.000  0.336
    occupations:
  0.912  0.000 -0.053
  0.000  0.931  0.000
 -0.053  0.000  0.875
N of occupied +U levels =  56.3166837
 --- exit write_ns ---
 --- in v_hubbard ---
Hubbard energy    0.4956
 -------

     total cpu time spent up to now is      155.8 secs

     total energy              =    -537.79143420 Ry
     Harris-Foulkes estimate   =    -537.78306999 Ry
     estimated scf accuracy    <       0.02249932 Ry

     iteration #  4     ecut=    30.00 Ry     beta=0.20
     Davidson diagonalization with overlap
     ethr =  2.96E-05,  avg # of iterations =  2.0
 --- enter write_ns ---
 LDA+U parameters:
U( 1)     =  7.00000000
alpha( 1) =  0.00000000
U( 2)     =  0.00000000
alpha( 2) =  0.00000000
U( 3)     =  0.00000000
alpha( 3) = -0.05000000
U( 4)     =  0.00000000
alpha( 4) =  0.00000000
atom    1   Tr[ns(na)] =   8.09051
    eigenvalues: 
  0.524  0.525  0.998  0.998  1.000
    eigenvectors:
  0.000  0.000  0.000  0.000  1.000
  0.560  0.098  0.222  0.120  0.000
  0.098  0.560  0.120  0.222  0.000
  0.171  0.170  0.480  0.178  0.000
  0.170  0.171  0.178  0.480  0.000
    occupations:
  1.000  0.000  0.000  0.000  0.000
  0.000  0.686  0.000 -0.086  0.208
  0.000  0.000  0.687  0.207  0.085
  0.000 -0.086  0.207  0.836  0.000
  0.000  0.208  0.085  0.000  0.836
atom    2   Tr[ns(na)] =   8.08628
    eigenvalues: 
  0.523  0.524  0.998  0.998  1.000
    eigenvectors:
  0.000  0.000  0.000  0.000  1.000
  0.416  0.242  0.289  0.053  0.000
  0.242  0.416  0.053  0.289  0.000
  0.023  0.319  0.000  0.658  0.000
  0.319  0.023  0.658  0.000  0.000
    occupations:
  1.000  0.000  0.000  0.000  0.000
  0.000  0.686  0.000  0.085  0.209
  0.000  0.000  0.686  0.208 -0.085
  0.000  0.085  0.208  0.836  0.000
  0.000  0.209 -0.085  0.000  0.836
atom    3   Tr[ns(na)] =   3.79940
    eigenvalues: 
  0.357  0.357  0.381  0.402  0.402
    eigenvectors:
  0.000  0.000  1.000  0.000  0.000
  0.241  0.682  0.000  0.053  0.025
  0.682  0.240  0.000  0.025  0.053
  0.056  0.021  0.000  0.301  0.621
  0.021  0.057  0.000  0.621  0.301
    occupations:
  0.381  0.000  0.000  0.000  0.000
  0.000  0.361  0.000  0.000  0.012
  0.000  0.000  0.361  0.012  0.000
  0.000  0.000  0.012  0.398  0.000
  0.000  0.012  0.000  0.000  0.398
atom    4   Tr[ns(na)] =   3.79940
    eigenvalues: 
  0.357  0.357  0.381  0.402  0.402
    eigenvectors:
  0.000  0.000  1.000  0.000  0.000
  0.722  0.202  0.000  0.051  0.025
  0.202  0.721  0.000  0.025  0.052
  0.017  0.060  0.000  0.310  0.613
  0.059  0.017  0.000  0.614  0.310
    occupations:
  0.381  0.000  0.000  0.000  0.000
  0.000  0.361  0.000  0.000  0.012
  0.000  0.000  0.361  0.012  0.000
  0.000  0.000  0.012  0.399  0.000
  0.000  0.012  0.000  0.000  0.399
atom    5   Tr[ns(na)] =   5.42430
    eigenvalues: 
  0.835  0.929  0.948
    eigenvectors:
  0.337  0.000  0.663
  0.497  0.251  0.252
  0.166  0.749  0.085
    occupations:
  0.910 -0.046  0.027
 -0.046  0.887  0.024
  0.027  0.024  0.915
atom    6   Tr[ns(na)] =   5.42041
    eigenvalues: 
  0.834  0.929  0.947
    eigenvectors:
  0.337  0.000  0.663
  0.498  0.248  0.254
  0.165  0.752  0.083
    occupations:
  0.909  0.046  0.027
  0.046  0.886 -0.024
  0.027 -0.024  0.915
atom    7   Tr[ns(na)] =   5.42042
    eigenvalues: 
  0.834  0.929  0.947
    eigenvectors:
  0.337  0.000  0.663
  0.000  1.000  0.000
  0.663  0.000  0.337
    occupations:
  0.909  0.000 -0.054
  0.000  0.929  0.000
 -0.054  0.000  0.872
atom    8   Tr[ns(na)] =   5.42023
    eigenvalues: 
  0.834  0.929  0.947
    eigenvectors:
  0.337  0.000  0.663
  0.496  0.251  0.252
  0.166  0.749  0.085
    occupations:
  0.909 -0.046  0.027
 -0.046  0.886  0.025
  0.027  0.025  0.915
atom    9   Tr[ns(na)] =   5.42052
    eigenvalues: 
  0.834  0.929  0.947
    eigenvectors:
  0.337  0.000  0.663
  0.497  0.249  0.254
  0.165  0.751  0.084
    occupations:
  0.909  0.046  0.027
  0.046  0.886 -0.024
  0.027 -0.024  0.915
atom   10   Tr[ns(na)] =   5.42052
    eigenvalues: 
  0.834  0.929  0.947
    eigenvectors:
  0.337  0.000  0.663
  0.000  1.000  0.000
  0.663  0.000  0.337
    occupations:
  0.909  0.000 -0.054
  0.000  0.929  0.000
 -0.054  0.000  0.872
N of occupied +U levels =  56.3019942
 --- exit write_ns ---
 --- in v_hubbard ---
Hubbard energy    0.4936
 -------

     total cpu time spent up to now is      182.4 secs

     total energy              =    -537.79347777 Ry
     Harris-Foulkes estimate   =    -537.79384352 Ry
     estimated scf accuracy    <       0.00343859 Ry

     iteration #  5     ecut=    30.00 Ry     beta=0.20
     Davidson diagonalization with overlap
     ethr =  4.52E-06,  avg # of iterations =  1.0
 --- enter write_ns ---
 LDA+U parameters:
U( 1)     =  7.00000000
alpha( 1) =  0.00000000
U( 2)     =  0.00000000
alpha( 2) =  0.00000000
U( 3)     =  0.00000000
alpha( 3) = -0.05000000
U( 4)     =  0.00000000
alpha( 4) =  0.00000000
atom    1   Tr[ns(na)] =   8.06404
    eigenvalues: 
  0.518  0.518  0.998  0.998  1.000
    eigenvectors:
  0.000  0.000  0.000  0.000  1.000
  0.561  0.098  0.231  0.111  0.000
  0.098  0.560  0.111  0.231  0.000
  0.172  0.170  0.465  0.193  0.000
  0.170  0.172  0.193  0.465  0.000
    occupations:
  1.000  0.000  0.000  0.000  0.000
  0.000  0.682  0.000 -0.087  0.210
  0.000  0.000  0.682  0.210  0.087
  0.000 -0.087  0.210  0.834  0.000
  0.000  0.210  0.087  0.000  0.834
atom    2   Tr[ns(na)] =   8.06015
    eigenvalues: 
  0.516  0.517  0.998  0.998  1.000
    eigenvectors:
  0.000  0.000  0.000  0.000  1.000
  0.416  0.242  0.284  0.057  0.000
  0.242  0.416  0.057  0.284  0.000
  0.023  0.319  0.001  0.658  0.000
  0.319  0.023  0.657  0.001  0.000
    occupations:
  1.000  0.000  0.000  0.000  0.000
  0.000  0.681  0.000  0.086  0.211
  0.000  0.000  0.681  0.211 -0.087
  0.000  0.086  0.211  0.834  0.000
  0.000  0.211 -0.087  0.000  0.834
atom    3   Tr[ns(na)] =   3.79823
    eigenvalues: 
  0.357  0.357  0.381  0.402  0.402
    eigenvectors:
  0.000  0.000  1.000  0.000  0.000
  0.234  0.688  0.000  0.058  0.019
  0.688  0.234  0.000  0.019  0.058
  0.057  0.020  0.000  0.238  0.685
  0.020  0.057  0.000  0.685  0.238
    occupations:
  0.381  0.000  0.000  0.000  0.000
  0.000  0.360  0.000  0.000  0.012
  0.000  0.000  0.360  0.012  0.000
  0.000  0.000  0.012  0.398  0.000
  0.000  0.012  0.000  0.000  0.398
atom    4   Tr[ns(na)] =   3.79823
    eigenvalues: 
  0.357  0.357  0.381  0.402  0.402
    eigenvectors:
  0.000  0.000  1.000  0.000  0.000
  0.712  0.211  0.000  0.057  0.020
  0.211  0.711  0.000  0.020  0.058
  0.018  0.059  0.000  0.244  0.679
  0.059  0.018  0.000  0.679  0.244
    occupations:
  0.381  0.000  0.000  0.000  0.000
  0.000  0.360  0.000  0.000  0.012
  0.000  0.000  0.360  0.012  0.000
  0.000  0.000  0.012  0.399  0.000
  0.000  0.012  0.000  0.000  0.399
atom    5   Tr[ns(na)] =   5.43212
    eigenvalues: 
  0.837  0.930  0.948
    eigenvectors:
  0.337  0.000  0.663
  0.497  0.251  0.252
  0.167  0.749  0.085
    occupations:
  0.911 -0.045  0.026
 -0.045  0.889  0.024
  0.026  0.024  0.916
atom    6   Tr[ns(na)] =   5.42875
    eigenvalues: 
  0.836  0.930  0.948
    eigenvectors:
  0.337  0.000  0.663
  0.498  0.248  0.253
  0.165  0.752  0.083
    occupations:
  0.910  0.046  0.026
  0.046  0.888 -0.024
  0.026 -0.024  0.916
atom    7   Tr[ns(na)] =   5.42875
    eigenvalues: 
  0.836  0.930  0.948
    eigenvectors:
  0.337  0.000  0.663
  0.000  1.000  0.000
  0.663  0.000  0.337
    occupations:
  0.910  0.000 -0.053
  0.000  0.930  0.000
 -0.053  0.000  0.874
atom    8   Tr[ns(na)] =   5.42881
    eigenvalues: 
  0.836  0.930  0.948
    eigenvectors:
  0.337  0.000  0.663
  0.497  0.251  0.252
  0.167  0.749  0.085
    occupations:
  0.910 -0.046  0.026
 -0.046  0.888  0.024
  0.026  0.024  0.916
atom    9   Tr[ns(na)] =   5.42877
    eigenvalues: 
  0.836  0.930  0.948
    eigenvectors:
  0.337  0.000  0.663
  0.498  0.249  0.253
  0.165  0.751  0.083
    occupations:
  0.910  0.046  0.026
  0.046  0.888 -0.024
  0.026 -0.024  0.916
atom   10   Tr[ns(na)] =   5.42877
    eigenvalues: 
  0.836  0.930  0.948
    eigenvectors:
  0.337  0.000  0.663
  0.000  1.000  0.000
  0.663  0.000  0.337
    occupations:
  0.910  0.000 -0.053
  0.000  0.930  0.000
 -0.053  0.000  0.874
N of occupied +U levels =  56.2966227
 --- exit write_ns ---
 --- in v_hubbard ---
Hubbard energy    0.4949
 -------

     total cpu time spent up to now is      208.1 secs

     total energy              =    -537.79372160 Ry
     Harris-Foulkes estimate   =    -537.79371032 Ry
     estimated scf accuracy    <       0.00051436 Ry

     iteration #  6     ecut=    30.00 Ry     beta=0.20
     Davidson diagonalization with overlap
     ethr =  6.77E-07,  avg # of iterations =  2.1
 --- enter write_ns ---
 LDA+U parameters:
U( 1)     =  7.00000000
alpha( 1) =  0.00000000
U( 2)     =  0.00000000
alpha( 2) =  0.00000000
U( 3)     =  0.00000000
alpha( 3) = -0.05000000
U( 4)     =  0.00000000
alpha( 4) =  0.00000000
atom    1   Tr[ns(na)] =   8.05232
    eigenvalues: 
  0.515  0.515  0.998  0.998  1.000
    eigenvectors:
  0.000  0.000  0.000  0.000  1.000
  0.561  0.097  0.231  0.111  0.000
  0.097  0.561  0.111  0.231  0.000
  0.172  0.170  0.466  0.192  0.000
  0.170  0.172  0.192  0.466  0.000
    occupations:
  1.000  0.000  0.000  0.000  0.000
  0.000  0.680  0.000 -0.088  0.212
  0.000  0.000  0.680  0.211  0.088
  0.000 -0.088  0.211  0.833  0.000
  0.000  0.212  0.088  0.000  0.833
atom    2   Tr[ns(na)] =   8.05111
    eigenvalues: 
  0.514  0.515  0.998  0.998  1.000
    eigenvectors:
  0.000  0.000  0.000  0.000  1.000
  0.416  0.242  0.279  0.063  0.000
  0.242  0.416  0.063  0.279  0.000
  0.022  0.319  0.002  0.657  0.000
  0.319  0.023  0.656  0.002  0.000
    occupations:
  1.000  0.000  0.000  0.000  0.000
  0.000  0.680  0.000  0.088  0.212
  0.000  0.000  0.680  0.212 -0.088
  0.000  0.088  0.212  0.833  0.000
  0.000  0.212 -0.088  0.000  0.833
atom    3   Tr[ns(na)] =   3.78843
    eigenvalues: 
  0.356  0.356  0.381  0.401  0.401
    eigenvectors:
  0.000  0.000  1.000  0.000  0.000
  0.229  0.692  0.000  0.063  0.017
  0.692  0.229  0.000  0.017  0.063
  0.059  0.020  0.000  0.202  0.718
  0.020  0.059  0.000  0.718  0.202
    occupations:
  0.381  0.000  0.000  0.000  0.000
  0.000  0.359  0.000  0.000  0.012
  0.000  0.000  0.359  0.012  0.000
  0.000  0.000  0.012  0.398  0.000
  0.000  0.012  0.000  0.000  0.398
atom    4   Tr[ns(na)] =   3.78844
    eigenvalues: 
  0.356  0.356  0.380  0.401  0.401
    eigenvectors:
  0.000  0.000  1.000  0.000  0.000
  0.236  0.685  0.000  0.060  0.019
  0.684  0.236  0.000  0.019  0.060
  0.058  0.021  0.000  0.230  0.690
  0.021  0.058  0.000  0.691  0.230
    occupations:
  0.380  0.000  0.000  0.000  0.000
  0.000  0.359  0.000  0.000  0.012
  0.000  0.000  0.359  0.012  0.000
  0.000  0.000  0.012  0.398  0.000
  0.000  0.012  0.000  0.000  0.398
atom    5   Tr[ns(na)] =   5.43689
    eigenvalues: 
  0.839  0.931  0.949
    eigenvectors:
  0.337  0.000  0.663
  0.496  0.252  0.252
  0.167  0.748  0.085
    occupations:
  0.912 -0.045  0.026
 -0.045  0.890  0.024
  0.026  0.024  0.917
atom    6   Tr[ns(na)] =   5.43395
    eigenvalues: 
  0.838  0.931  0.949
    eigenvectors:
  0.337  0.000  0.663
  0.499  0.248  0.253
  0.165  0.752  0.083
    occupations:
  0.911  0.046  0.026
  0.046  0.889 -0.024
  0.026 -0.024  0.917
atom    7   Tr[ns(na)] =   5.43395
    eigenvalues: 
  0.838  0.931  0.949
    eigenvectors:
  0.337  0.000  0.663
  0.000  1.000  0.000
  0.663  0.000  0.337
    occupations:
  0.911  0.000 -0.052
  0.000  0.931  0.000
 -0.052  0.000  0.875
atom    8   Tr[ns(na)] =   5.43434
    eigenvalues: 
  0.838  0.931  0.949
    eigenvectors:
  0.337  0.000  0.663
  0.496  0.252  0.252
  0.167  0.748  0.085
    occupations:
  0.911 -0.045  0.026
 -0.045  0.889  0.024
  0.026  0.024  0.917
atom    9   Tr[ns(na)] =   5.43390
    eigenvalues: 
  0.838  0.931  0.949
    eigenvectors:
  0.337  0.000  0.663
  0.498  0.248  0.253
  0.165  0.752  0.083
    occupations:
  0.911  0.046  0.026
  0.046  0.889 -0.024
  0.026 -0.024  0.917
atom   10   Tr[ns(na)] =   5.43390
    eigenvalues: 
  0.838  0.931  0.949
    eigenvectors:
  0.337  0.000  0.663
  0.000  1.000  0.000
  0.663  0.000  0.337
    occupations:
  0.911  0.000 -0.052
  0.000  0.931  0.000
 -0.052  0.000  0.875
N of occupied +U levels =  56.2872275
 --- exit write_ns ---
 --- in v_hubbard ---
Hubbard energy    0.4948
 -------

     total cpu time spent up to now is      240.7 secs

     total energy              =    -537.79392662 Ry
     Harris-Foulkes estimate   =    -537.79382064 Ry
     estimated scf accuracy    <       0.00007665 Ry

     iteration #  7     ecut=    30.00 Ry     beta=0.20
     Davidson diagonalization with overlap
     ethr =  1.01E-07,  avg # of iterations =  1.6
 --- enter write_ns ---
 LDA+U parameters:
U( 1)     =  7.00000000
alpha( 1) =  0.00000000
U( 2)     =  0.00000000
alpha( 2) =  0.00000000
U( 3)     =  0.00000000
alpha( 3) = -0.05000000
U( 4)     =  0.00000000
alpha( 4) =  0.00000000
atom    1   Tr[ns(na)] =   8.04818
    eigenvalues: 
  0.514  0.514  0.998  0.998  1.000
    eigenvectors:
  0.000  0.000  0.000  0.000  1.000
  0.561  0.097  0.233  0.109  0.000
  0.097  0.561  0.109  0.233  0.000
  0.172  0.170  0.464  0.194  0.000
  0.169  0.172  0.194  0.464  0.000
    occupations:
  1.000  0.000  0.000  0.000  0.000
  0.000  0.679  0.000 -0.089  0.212
  0.000  0.000  0.680  0.212  0.088
  0.000 -0.089  0.212  0.832  0.000
  0.000  0.212  0.088  0.000  0.833
atom    2   Tr[ns(na)] =   8.04514
    eigenvalues: 
  0.512  0.513  0.998  0.998  1.000
    eigenvectors:
  0.000  0.000  0.000  0.000  1.000
  0.416  0.242  0.279  0.063  0.000
  0.242  0.416  0.063  0.279  0.000
  0.022  0.319  0.002  0.656  0.000
  0.319  0.022  0.656  0.002  0.000
    occupations:
  1.000  0.000  0.000  0.000  0.000
  0.000  0.679  0.000  0.088  0.213
  0.000  0.000  0.679  0.213 -0.088
  0.000  0.088  0.213  0.832  0.000
  0.000  0.213 -0.088  0.000  0.832
atom    3   Tr[ns(na)] =   3.78887
    eigenvalues: 
  0.356  0.356  0.381  0.401  0.401
    eigenvectors:
  0.000  0.000  1.000  0.000  0.000
  0.229  0.692  0.000  0.064  0.015
  0.692  0.229  0.000  0.015  0.064
  0.059  0.020  0.000  0.180  0.741
  0.020  0.059  0.000  0.741  0.180
    occupations:
  0.381  0.000  0.000  0.000  0.000
  0.000  0.359  0.000  0.000  0.012
  0.000  0.000  0.359  0.012  0.000
  0.000  0.000  0.012  0.398  0.000
  0.000  0.012  0.000  0.000  0.398
atom    4   Tr[ns(na)] =   3.78889
    eigenvalues: 
  0.356  0.356  0.381  0.401  0.401
    eigenvectors:
  0.000  0.000  1.000  0.000  0.000
  0.734  0.187  0.000  0.060  0.019
  0.187  0.734  0.000  0.019  0.060
  0.017  0.063  0.000  0.228  0.693
  0.062  0.017  0.000  0.693  0.228
    occupations:
  0.381  0.000  0.000  0.000  0.000
  0.000  0.359  0.000  0.000  0.012
  0.000  0.000  0.359  0.012  0.000
  0.000  0.000  0.012  0.398  0.000
  0.000  0.012  0.000  0.000  0.398
atom    5   Tr[ns(na)] =   5.43835
    eigenvalues: 
  0.839  0.931  0.949
    eigenvectors:
  0.336  0.000  0.664
  0.497  0.251  0.252
  0.167  0.749  0.085
    occupations:
  0.912 -0.045  0.026
 -0.045  0.890  0.024
  0.026  0.024  0.917
atom    6   Tr[ns(na)] =   5.43540
    eigenvalues: 
  0.838  0.931  0.949
    eigenvectors:
  0.337  0.000  0.663
  0.499  0.248  0.253
  0.165  0.752  0.083
    occupations:
  0.912  0.045  0.026
  0.045  0.889 -0.024
  0.026 -0.024  0.917
atom    7   Tr[ns(na)] =   5.43540
    eigenvalues: 
  0.838  0.931  0.949
    eigenvectors:
  0.337  0.000  0.663
  0.000  1.000  0.000
  0.663  0.000  0.337
    occupations:
  0.912  0.000 -0.052
  0.000  0.931  0.000
 -0.052  0.000  0.875
atom    8   Tr[ns(na)] =   5.43575
    eigenvalues: 
  0.838  0.931  0.949
    eigenvectors:
  0.337  0.000  0.663
  0.497  0.251  0.252
  0.167  0.749  0.085
    occupations:
  0.912 -0.045  0.026
 -0.045  0.889  0.024
  0.026  0.024  0.917
atom    9   Tr[ns(na)] =   5.43535
    eigenvalues: 
  0.838  0.931  0.949
    eigenvectors:
  0.337  0.000  0.663
  0.498  0.249  0.253
  0.165  0.751  0.083
    occupations:
  0.911  0.045  0.026
  0.045  0.889 -0.024
  0.026 -0.024  0.917
atom   10   Tr[ns(na)] =   5.43535
    eigenvalues: 
  0.838  0.931  0.949
    eigenvectors:
  0.337  0.000  0.663
  0.000  1.000  0.000
  0.663  0.000  0.337
    occupations:
  0.911  0.000 -0.052
  0.000  0.931  0.000
 -0.052  0.000  0.875
N of occupied +U levels =  56.2866701
 --- exit write_ns ---
 --- in v_hubbard ---
Hubbard energy    0.4958
 -------

     total cpu time spent up to now is      267.7 secs

     total energy              =    -537.79400459 Ry
     Harris-Foulkes estimate   =    -537.79393481 Ry
     estimated scf accuracy    <       0.00007987 Ry

     iteration #  8     ecut=    30.00 Ry     beta=0.20
     Davidson diagonalization with overlap
     ethr =  1.01E-07,  avg # of iterations =  1.0
 --- enter write_ns ---
 LDA+U parameters:
U( 1)     =  7.00000000
alpha( 1) =  0.00000000
U( 2)     =  0.00000000
alpha( 2) =  0.00000000
U( 3)     =  0.00000000
alpha( 3) = -0.05000000
U( 4)     =  0.00000000
alpha( 4) =  0.00000000
atom    1   Tr[ns(na)] =   8.04382
    eigenvalues: 
  0.512  0.513  0.998  0.998  1.000
    eigenvectors:
  0.000  0.000  0.000  0.000  1.000
  0.561  0.097  0.236  0.106  0.000
  0.097  0.561  0.106  0.236  0.000
  0.173  0.169  0.459  0.199  0.000
  0.169  0.173  0.199  0.459  0.000
    occupations:
  1.000  0.000  0.000  0.000  0.000
  0.000  0.679  0.000 -0.089  0.212
  0.000  0.000  0.679  0.212  0.089
  0.000 -0.089  0.212  0.832  0.000
  0.000  0.212  0.089  0.000  0.832
atom    2   Tr[ns(na)] =   8.04220
    eigenvalues: 
  0.512  0.512  0.998  0.998  1.000
    eigenvectors:
  0.000  0.000  0.000  0.000  1.000
  0.415  0.243  0.276  0.066  0.000
  0.243  0.415  0.066  0.276  0.000
  0.022  0.320  0.002  0.656  0.000
  0.320  0.022  0.656  0.002  0.000
    occupations:
  1.000  0.000  0.000  0.000  0.000
  0.000  0.678  0.000  0.089  0.213
  0.000  0.000  0.678  0.213 -0.089
  0.000  0.089  0.213  0.832  0.000
  0.000  0.213 -0.089  0.000  0.832
atom    3   Tr[ns(na)] =   3.79119
    eigenvalues: 
  0.356  0.356  0.381  0.401  0.401
    eigenvectors:
  0.000  0.000  1.000  0.000  0.000
  0.230  0.692  0.000  0.057  0.022
  0.691  0.230  0.000  0.022  0.057
  0.059  0.020  0.000  0.266  0.655
  0.020  0.059  0.000  0.655  0.266
    occupations:
  0.381  0.000  0.000  0.000  0.000
  0.000  0.360  0.000  0.000  0.012
  0.000  0.000  0.360  0.012  0.000
  0.000  0.000  0.012  0.398  0.000
  0.000  0.012  0.000  0.000  0.398
atom    4   Tr[ns(na)] =   3.79121
    eigenvalues: 
  0.356  0.356  0.381  0.401  0.401
    eigenvectors:
  0.000  0.000  1.000  0.000  0.000
  0.698  0.224  0.000  0.058  0.020
  0.224  0.697  0.000  0.020  0.059
  0.020  0.059  0.000  0.242  0.680
  0.059  0.020  0.000  0.680  0.241
    occupations:
  0.381  0.000  0.000  0.000  0.000
  0.000  0.360  0.000  0.000  0.012
  0.000  0.000  0.360  0.012  0.000
  0.000  0.000  0.012  0.398  0.000
  0.000  0.012  0.000  0.000  0.398
atom    5   Tr[ns(na)] =   5.43900
    eigenvalues: 
  0.839  0.931  0.949
    eigenvectors:
  0.336  0.000  0.664
  0.497  0.252  0.252
  0.167  0.748  0.085
    occupations:
  0.912 -0.045  0.026
 -0.045  0.890  0.024
  0.026  0.024  0.917
atom    6   Tr[ns(na)] =   5.43593
    eigenvalues: 
  0.838  0.931  0.949
    eigenvectors:
  0.337  0.000  0.663
  0.499  0.248  0.253
  0.165  0.752  0.083
    occupations:
  0.912  0.045  0.026
  0.045  0.889 -0.024
  0.026 -0.024  0.917
atom    7   Tr[ns(na)] =   5.43593
    eigenvalues: 
  0.838  0.931  0.949
    eigenvectors:
  0.337  0.000  0.663
  0.000  1.000  0.000
  0.663  0.000  0.337
    occupations:
  0.912  0.000 -0.052
  0.000  0.931  0.000
 -0.052  0.000  0.875
atom    8   Tr[ns(na)] =   5.43619
    eigenvalues: 
  0.838  0.931  0.949
    eigenvectors:
  0.337  0.000  0.663
  0.497  0.252  0.252
  0.167  0.748  0.085
    occupations:
  0.912 -0.045  0.026
 -0.045  0.889  0.024
  0.026  0.024  0.917
atom    9   Tr[ns(na)] =   5.43589
    eigenvalues: 
  0.838  0.931  0.949
    eigenvectors:
  0.337  0.000  0.663
  0.498  0.248  0.253
  0.165  0.752  0.083
    occupations:
  0.912  0.045  0.026
  0.045  0.889 -0.024
  0.026 -0.024  0.917
atom   10   Tr[ns(na)] =   5.43589
    eigenvalues: 
  0.838  0.931  0.949
    eigenvectors:
  0.337  0.000  0.663
  0.000  1.000  0.000
  0.663  0.000  0.337
    occupations:
  0.912  0.000 -0.052
  0.000  0.931  0.000
 -0.052  0.000  0.875
N of occupied +U levels =  56.2872414
 --- exit write_ns ---
 --- in v_hubbard ---
Hubbard energy    0.4974
 -------

     total cpu time spent up to now is      299.3 secs

     total energy              =    -537.79404723 Ry
     Harris-Foulkes estimate   =    -537.79401270 Ry
     estimated scf accuracy    <       0.00009684 Ry

     iteration #  9     ecut=    30.00 Ry     beta=0.20
     Davidson diagonalization with overlap
     ethr =  1.01E-07,  avg # of iterations =  1.8
 --- enter write_ns ---
 LDA+U parameters:
U( 1)     =  7.00000000
alpha( 1) =  0.00000000
U( 2)     =  0.00000000
alpha( 2) =  0.00000000
U( 3)     =  0.00000000
alpha( 3) = -0.05000000
U( 4)     =  0.00000000
alpha( 4) =  0.00000000
atom    1   Tr[ns(na)] =   8.05011
    eigenvalues: 
  0.514  0.515  0.998  0.998  1.000
    eigenvectors:
  0.000  0.000  0.000  0.000  1.000
  0.562  0.096  0.236  0.106  0.000
  0.096  0.562  0.106  0.236  0.000
  0.173  0.169  0.459  0.199  0.000
  0.169  0.173  0.199  0.459  0.000
    occupations:
  1.000  0.000  0.000  0.000  0.000
  0.000  0.680  0.000 -0.089  0.211
  0.000  0.000  0.680  0.211  0.089
  0.000 -0.089  0.211  0.833  0.000
  0.000  0.211  0.089  0.000  0.833
atom    2   Tr[ns(na)] =   8.04694
    eigenvalues: 
  0.513  0.514  0.998  0.998  1.000
    eigenvectors:
  0.000  0.000  0.000  0.000  1.000
  0.415  0.243  0.275  0.067  0.000
  0.243  0.415  0.066  0.275  0.000
  0.022  0.320  0.002  0.656  0.000
  0.320  0.022  0.656  0.002  0.000
    occupations:
  1.000  0.000  0.000  0.000  0.000
  0.000  0.679  0.000  0.089  0.212
  0.000  0.000  0.679  0.212 -0.089
  0.000  0.089  0.212  0.833  0.000
  0.000  0.212 -0.089  0.000  0.832
atom    3   Tr[ns(na)] =   3.79211
    eigenvalues: 
  0.356  0.356  0.381  0.401  0.401
    eigenvectors:
  0.000  0.000  1.000  0.000  0.000
  0.230  0.691  0.000  0.061  0.018
  0.691  0.230  0.000  0.018  0.061
  0.059  0.020  0.000  0.219  0.702
  0.020  0.059  0.000  0.702  0.219
    occupations:
  0.381  0.000  0.000  0.000  0.000
  0.000  0.360  0.000  0.000  0.012
  0.000  0.000  0.360  0.012  0.000
  0.000  0.000  0.012  0.398  0.000
  0.000  0.012  0.000  0.000  0.398
atom    4   Tr[ns(na)] =   3.79212
    eigenvalues: 
  0.356  0.356  0.381  0.401  0.401
    eigenvectors:
  0.000  0.000  1.000  0.000  0.000
  0.697  0.224  0.000  0.059  0.019
  0.224  0.697  0.000  0.019  0.060
  0.020  0.059  0.000  0.234  0.687
  0.059  0.020  0.000  0.688  0.234
    occupations:
  0.381  0.000  0.000  0.000  0.000
  0.000  0.360  0.000  0.000  0.012
  0.000  0.000  0.360  0.012  0.000
  0.000  0.000  0.012  0.398  0.000
  0.000  0.012  0.000  0.000  0.398
atom    5   Tr[ns(na)] =   5.43705
    eigenvalues: 
  0.839  0.931  0.949
    eigenvectors:
  0.337  0.000  0.663
  0.497  0.251  0.252
  0.167  0.749  0.085
    occupations:
  0.912 -0.045  0.026
 -0.045  0.890  0.024
  0.026  0.024  0.917
atom    6   Tr[ns(na)] =   5.43391
    eigenvalues: 
  0.838  0.931  0.949
    eigenvectors:
  0.337  0.000  0.663
  0.498  0.248  0.253
  0.165  0.752  0.083
    occupations:
  0.911  0.045  0.026
  0.045  0.889 -0.024
  0.026 -0.024  0.917
atom    7   Tr[ns(na)] =   5.43391
    eigenvalues: 
  0.838  0.931  0.949
    eigenvectors:
  0.337  0.000  0.663
  0.000  1.000  0.000
  0.663  0.000  0.337
    occupations:
  0.911  0.000 -0.052
  0.000  0.931  0.000
 -0.052  0.000  0.875
atom    8   Tr[ns(na)] =   5.43417
    eigenvalues: 
  0.838  0.931  0.949
    eigenvectors:
  0.337  0.000  0.663
  0.497  0.251  0.252
  0.167  0.749  0.085
    occupations:
  0.911 -0.045  0.026
 -0.045  0.889  0.024
  0.026  0.024  0.917
atom    9   Tr[ns(na)] =   5.43389
    eigenvalues: 
  0.838  0.931  0.949
    eigenvectors:
  0.337  0.000  0.663
  0.498  0.248  0.253
  0.165  0.752  0.083
    occupations:
  0.911  0.045  0.026
  0.045  0.889 -0.024
  0.026 -0.024  0.917
atom   10   Tr[ns(na)] =   5.43388
    eigenvalues: 
  0.838  0.931  0.949
    eigenvectors:
  0.337  0.000  0.663
  0.000  1.000  0.000
  0.663  0.000  0.337
    occupations:
  0.911  0.000 -0.052
  0.000  0.931  0.000
 -0.052  0.000  0.875
N of occupied +U levels =  56.2881077
 --- exit write_ns ---
 --- in v_hubbard ---
Hubbard energy    0.4973
 -------

     total cpu time spent up to now is      325.2 secs

     total energy              =    -537.79408877 Ry
     Harris-Foulkes estimate   =    -537.79405881 Ry
     estimated scf accuracy    <       0.00000654 Ry

     iteration # 10     ecut=    30.00 Ry     beta=0.20
     Davidson diagonalization with overlap
     ethr =  8.60E-09,  avg # of iterations =  2.0
 --- enter write_ns ---
 LDA+U parameters:
U( 1)     =  7.00000000
alpha( 1) =  0.00000000
U( 2)     =  0.00000000
alpha( 2) =  0.00000000
U( 3)     =  0.00000000
alpha( 3) = -0.05000000
U( 4)     =  0.00000000
alpha( 4) =  0.00000000
atom    1   Tr[ns(na)] =   8.04835
    eigenvalues: 
  0.513  0.514  0.998  0.998  1.000
    eigenvectors:
  0.000  0.000  0.000  0.000  1.000
  0.562  0.096  0.238  0.104  0.000
  0.096  0.562  0.104  0.238  0.000
  0.174  0.168  0.457  0.201  0.000
  0.168  0.174  0.201  0.457  0.000
    occupations:
  1.000  0.000  0.000  0.000  0.000
  0.000  0.679  0.000 -0.090  0.212
  0.000  0.000  0.680  0.211  0.089
  0.000 -0.090  0.211  0.833  0.000
  0.000  0.212  0.089  0.000  0.833
atom    2   Tr[ns(na)] =   8.04466
    eigenvalues: 
  0.512  0.513  0.998  0.998  1.000
    eigenvectors:
  0.000  0.000  0.000  0.000  1.000
  0.414  0.244  0.273  0.068  0.000
  0.244  0.415  0.068  0.273  0.000
  0.022  0.320  0.003  0.655  0.000
  0.320  0.022  0.655  0.003  0.000
    occupations:
  1.000  0.000  0.000  0.000  0.000
  0.000  0.679  0.000  0.089  0.212
  0.000  0.000  0.679  0.212 -0.089
  0.000  0.089  0.212  0.832  0.000
  0.000  0.212 -0.089  0.000  0.832
atom    3   Tr[ns(na)] =   3.79172
    eigenvalues: 
  0.356  0.356  0.381  0.401  0.401
    eigenvectors:
  0.000  0.000  1.000  0.000  0.000
  0.229  0.692  0.000  0.061  0.018
  0.692  0.229  0.000  0.018  0.061
  0.059  0.020  0.000  0.212  0.709
  0.020  0.059  0.000  0.709  0.212
    occupations:
  0.381  0.000  0.000  0.000  0.000
  0.000  0.360  0.000  0.000  0.012
  0.000  0.000  0.360  0.012  0.000
  0.000  0.000  0.012  0.398  0.000
  0.000  0.012  0.000  0.000  0.398
atom    4   Tr[ns(na)] =   3.79173
    eigenvalues: 
  0.356  0.356  0.381  0.401  0.401
    eigenvectors:
  0.000  0.000  1.000  0.000  0.000
  0.682  0.240  0.000  0.059  0.019
  0.240  0.681  0.000  0.019  0.060
  0.021  0.058  0.000  0.231  0.690
  0.057  0.021  0.000  0.690  0.231
    occupations:
  0.381  0.000  0.000  0.000  0.000
  0.000  0.360  0.000  0.000  0.012
  0.000  0.000  0.360  0.012  0.000
  0.000  0.000  0.012  0.398  0.000
  0.000  0.012  0.000  0.000  0.398
atom    5   Tr[ns(na)] =   5.43767
    eigenvalues: 
  0.839  0.931  0.949
    eigenvectors:
  0.337  0.000  0.663
  0.497  0.251  0.252
  0.167  0.749  0.085
    occupations:
  0.912 -0.045  0.026
 -0.045  0.890  0.024
  0.026  0.024  0.917
atom    6   Tr[ns(na)] =   5.43459
    eigenvalues: 
  0.838  0.931  0.949
    eigenvectors:
  0.337  0.000  0.663
  0.498  0.248  0.253
  0.165  0.752  0.083
    occupations:
  0.911  0.045  0.026
  0.045  0.889 -0.024
  0.026 -0.024  0.917
atom    7   Tr[ns(na)] =   5.43459
    eigenvalues: 
  0.838  0.931  0.949
    eigenvectors:
  0.337  0.000  0.663
  0.000  1.000  0.000
  0.663  0.000  0.337
    occupations:
  0.911  0.000 -0.052
  0.000  0.931  0.000
 -0.052  0.000  0.875
atom    8   Tr[ns(na)] =   5.43484
    eigenvalues: 
  0.838  0.931  0.949
    eigenvectors:
  0.337  0.000  0.663
  0.497  0.251  0.252
  0.167  0.749  0.085
    occupations:
  0.911 -0.045  0.026
 -0.045  0.889  0.024
  0.026  0.024  0.917
atom    9   Tr[ns(na)] =   5.43456
    eigenvalues: 
  0.838  0.931  0.949
    eigenvectors:
  0.337  0.000  0.663
  0.498  0.249  0.253
  0.165  0.751  0.083
    occupations:
  0.911  0.045  0.026
  0.045  0.889 -0.024
  0.026 -0.024  0.917
atom   10   Tr[ns(na)] =   5.43456
    eigenvalues: 
  0.838  0.931  0.949
    eigenvectors:
  0.337  0.000  0.663
  0.000  1.000  0.000
  0.663  0.000  0.337
    occupations:
  0.911  0.000 -0.052
  0.000  0.931  0.000
 -0.052  0.000  0.875
N of occupied +U levels =  56.2872794
 --- exit write_ns ---
 --- in v_hubbard ---
Hubbard energy    0.4980
 -------

     total cpu time spent up to now is      354.1 secs

     total energy              =    -537.79411421 Ry
     Harris-Foulkes estimate   =    -537.79409135 Ry
     estimated scf accuracy    <       0.00000372 Ry

     iteration # 11     ecut=    30.00 Ry     beta=0.20
     Davidson diagonalization with overlap
     ethr =  4.89E-09,  avg # of iterations =  1.1
 --- enter write_ns ---
 LDA+U parameters:
U( 1)     =  7.00000000
alpha( 1) =  0.00000000
U( 2)     =  0.00000000
alpha( 2) =  0.00000000
U( 3)     =  0.00000000
alpha( 3) = -0.05000000
U( 4)     =  0.00000000
alpha( 4) =  0.00000000
atom    1   Tr[ns(na)] =   8.04917
    eigenvalues: 
  0.514  0.515  0.998  0.998  1.000
    eigenvectors:
  0.000  0.000  0.000  0.000  1.000
  0.562  0.096  0.238  0.103  0.000
  0.096  0.562  0.103  0.238  0.000
  0.174  0.168  0.457  0.201  0.000
  0.168  0.174  0.202  0.457  0.000
    occupations:
  1.000  0.000  0.000  0.000  0.000
  0.000  0.679  0.000 -0.090  0.211
  0.000  0.000  0.680  0.211  0.090
  0.000 -0.090  0.211  0.833  0.000
  0.000  0.211  0.090  0.000  0.833
atom    2   Tr[ns(na)] =   8.04597
    eigenvalues: 
  0.513  0.513  0.998  0.998  1.000
    eigenvectors:
  0.000  0.000  0.000  0.000  1.000
  0.414  0.244  0.273  0.069  0.000
  0.244  0.414  0.069  0.273  0.000
  0.022  0.320  0.003  0.655  0.000
  0.320  0.022  0.655  0.003  0.000
    occupations:
  1.000  0.000  0.000  0.000  0.000
  0.000  0.679  0.000  0.089  0.212
  0.000  0.000  0.679  0.212 -0.090
  0.000  0.089  0.212  0.833  0.000
  0.000  0.212 -0.090  0.000  0.832
atom    3   Tr[ns(na)] =   3.79197
    eigenvalues: 
  0.356  0.356  0.381  0.401  0.401
    eigenvectors:
  0.000  0.000  1.000  0.000  0.000
  0.228  0.693  0.000  0.061  0.018
  0.693  0.228  0.000  0.018  0.061
  0.059  0.020  0.000  0.219  0.702
  0.020  0.059  0.000  0.702  0.219
    occupations:
  0.381  0.000  0.000  0.000  0.000
  0.000  0.360  0.000  0.000  0.012
  0.000  0.000  0.360  0.012  0.000
  0.000  0.000  0.012  0.398  0.000
  0.000  0.012  0.000  0.000  0.398
atom    4   Tr[ns(na)] =   3.79198
    eigenvalues: 
  0.356  0.356  0.381  0.401  0.401
    eigenvectors:
  0.000  0.000  1.000  0.000  0.000
  0.679  0.242  0.000  0.059  0.019
  0.242  0.679  0.000  0.019  0.060
  0.021  0.058  0.000  0.234  0.688
  0.057  0.021  0.000  0.688  0.233
    occupations:
  0.381  0.000  0.000  0.000  0.000
  0.000  0.360  0.000  0.000  0.012
  0.000  0.000  0.360  0.012  0.000
  0.000  0.000  0.012  0.398  0.000
  0.000  0.012  0.000  0.000  0.398
atom    5   Tr[ns(na)] =   5.43730
    eigenvalues: 
  0.839  0.931  0.949
    eigenvectors:
  0.337  0.000  0.663
  0.497  0.251  0.252
  0.167  0.749  0.085
    occupations:
  0.912 -0.045  0.026
 -0.045  0.890  0.024
  0.026  0.024  0.917
atom    6   Tr[ns(na)] =   5.43419
    eigenvalues: 
  0.838  0.931  0.949
    eigenvectors:
  0.337  0.000  0.663
  0.498  0.248  0.253
  0.165  0.752  0.083
    occupations:
  0.911  0.045  0.026
  0.045  0.889 -0.024
  0.026 -0.024  0.917
atom    7   Tr[ns(na)] =   5.43419
    eigenvalues: 
  0.838  0.931  0.949
    eigenvectors:
  0.337  0.000  0.663
  0.000  1.000  0.000
  0.663  0.000  0.337
    occupations:
  0.911  0.000 -0.052
  0.000  0.931  0.000
 -0.052  0.000  0.875
atom    8   Tr[ns(na)] =   5.43446
    eigenvalues: 
  0.838  0.931  0.949
    eigenvectors:
  0.337  0.000  0.663
  0.497  0.251  0.252
  0.167  0.749  0.085
    occupations:
  0.911 -0.045  0.026
 -0.045  0.889  0.024
  0.026  0.024  0.917
atom    9   Tr[ns(na)] =   5.43417
    eigenvalues: 
  0.838  0.931  0.949
    eigenvectors:
  0.337  0.000  0.663
  0.498  0.249  0.253
  0.165  0.751  0.083
    occupations:
  0.911  0.045  0.026
  0.045  0.889 -0.024
  0.026 -0.024  0.917
atom   10   Tr[ns(na)] =   5.43417
    eigenvalues: 
  0.838  0.931  0.949
    eigenvectors:
  0.337  0.000  0.663
  0.000  1.000  0.000
  0.663  0.000  0.337
    occupations:
  0.911  0.000 -0.052
  0.000  0.931  0.000
 -0.052  0.000  0.875
N of occupied +U levels =  56.2875820
 --- exit write_ns ---
 --- in v_hubbard ---
Hubbard energy    0.4976
 -------

     total cpu time spent up to now is      382.1 secs

     total energy              =    -537.79412925 Ry
     Harris-Foulkes estimate   =    -537.79411527 Ry
     estimated scf accuracy    <       0.00000139 Ry

     iteration # 12     ecut=    30.00 Ry     beta=0.20
     Davidson diagonalization with overlap
     ethr =  1.83E-09,  avg # of iterations =  1.1
 --- enter write_ns ---
 LDA+U parameters:
U( 1)     =  7.00000000
alpha( 1) =  0.00000000
U( 2)     =  0.00000000
alpha( 2) =  0.00000000
U( 3)     =  0.00000000
alpha( 3) = -0.05000000
U( 4)     =  0.00000000
alpha( 4) =  0.00000000
atom    1   Tr[ns(na)] =   8.04901
    eigenvalues: 
  0.514  0.514  0.998  0.998  1.000
    eigenvectors:
  0.000  0.000  0.000  0.000  1.000
  0.562  0.096  0.239  0.103  0.000
  0.096  0.562  0.103  0.239  0.000
  0.174  0.168  0.457  0.201  0.000
  0.168  0.174  0.201  0.457  0.000
    occupations:
  1.000  0.000  0.000  0.000  0.000
  0.000  0.679  0.000 -0.090  0.211
  0.000  0.000  0.680  0.211  0.090
  0.000 -0.090  0.211  0.833  0.000
  0.000  0.211  0.090  0.000  0.833
atom    2   Tr[ns(na)] =   8.04567
    eigenvalues: 
  0.512  0.513  0.998  0.998  1.000
    eigenvectors:
  0.000  0.000  0.000  0.000  1.000
  0.414  0.244  0.273  0.069  0.000
  0.244  0.414  0.069  0.273  0.000
  0.022  0.320  0.003  0.655  0.000
  0.320  0.022  0.655  0.003  0.000
    occupations:
  1.000  0.000  0.000  0.000  0.000
  0.000  0.679  0.000  0.090  0.212
  0.000  0.000  0.679  0.212 -0.090
  0.000  0.090  0.212  0.833  0.000
  0.000  0.212 -0.090  0.000  0.832
atom    3   Tr[ns(na)] =   3.79214
    eigenvalues: 
  0.356  0.356  0.381  0.401  0.401
    eigenvectors:
  0.000  0.000  1.000  0.000  0.000
  0.228  0.693  0.000  0.061  0.018
  0.693  0.228  0.000  0.018  0.061
  0.059  0.020  0.000  0.218  0.703
  0.020  0.059  0.000  0.703  0.218
    occupations:
  0.381  0.000  0.000  0.000  0.000
  0.000  0.360  0.000  0.000  0.012
  0.000  0.000  0.360  0.012  0.000
  0.000  0.000  0.012  0.398  0.000
  0.000  0.012  0.000  0.000  0.398
atom    4   Tr[ns(na)] =   3.79216
    eigenvalues: 
  0.356  0.356  0.381  0.401  0.402
    eigenvectors:
  0.000  0.000  1.000  0.000  0.000
  0.685  0.237  0.000  0.059  0.019
  0.237  0.684  0.000  0.019  0.060
  0.021  0.058  0.000  0.233  0.689
  0.058  0.021  0.000  0.689  0.232
    occupations:
  0.381  0.000  0.000  0.000  0.000
  0.000  0.360  0.000  0.000  0.012
  0.000  0.000  0.360  0.012  0.000
  0.000  0.000  0.012  0.398  0.000
  0.000  0.012  0.000  0.000  0.398
atom    5   Tr[ns(na)] =   5.43738
    eigenvalues: 
  0.839  0.931  0.949
    eigenvectors:
  0.337  0.000  0.663
  0.497  0.251  0.252
  0.167  0.749  0.085
    occupations:
  0.912 -0.045  0.026
 -0.045  0.890  0.024
  0.026  0.024  0.917
atom    6   Tr[ns(na)] =   5.43422
    eigenvalues: 
  0.838  0.931  0.949
    eigenvectors:
  0.337  0.000  0.663
  0.498  0.248  0.253
  0.165  0.752  0.083
    occupations:
  0.911  0.045  0.026
  0.045  0.889 -0.024
  0.026 -0.024  0.917
atom    7   Tr[ns(na)] =   5.43422
    eigenvalues: 
  0.838  0.931  0.949
    eigenvectors:
  0.337  0.000  0.663
  0.000  1.000  0.000
  0.663  0.000  0.337
    occupations:
  0.911  0.000 -0.052
  0.000  0.931  0.000
 -0.052  0.000  0.875
atom    8   Tr[ns(na)] =   5.43451
    eigenvalues: 
  0.838  0.931  0.949
    eigenvectors:
  0.337  0.000  0.663
  0.497  0.251  0.252
  0.167  0.749  0.085
    occupations:
  0.911 -0.045  0.026
 -0.045  0.889  0.024
  0.026  0.024  0.917
atom    9   Tr[ns(na)] =   5.43419
    eigenvalues: 
  0.838  0.931  0.949
    eigenvectors:
  0.337  0.000  0.663
  0.498  0.249  0.253
  0.165  0.751  0.083
    occupations:
  0.911  0.045  0.026
  0.045  0.889 -0.024
  0.026 -0.024  0.917
atom   10   Tr[ns(na)] =   5.43419
    eigenvalues: 
  0.838  0.931  0.949
    eigenvectors:
  0.337  0.000  0.663
  0.000  1.000  0.000
  0.663  0.000  0.337
    occupations:
  0.911  0.000 -0.052
  0.000  0.931  0.000
 -0.052  0.000  0.875
N of occupied +U levels =  56.2877036
 --- exit write_ns ---
 --- in v_hubbard ---
Hubbard energy    0.4975
 -------

     total cpu time spent up to now is      412.3 secs

     total energy              =    -537.79413894 Ry
     Harris-Foulkes estimate   =    -537.79412993 Ry
     estimated scf accuracy    <       0.00000022 Ry

     iteration # 13     ecut=    30.00 Ry     beta=0.20
     Davidson diagonalization with overlap
     ethr =  2.87E-10,  avg # of iterations =  2.0
 --- enter write_ns ---
 LDA+U parameters:
U( 1)     =  7.00000000
alpha( 1) =  0.00000000
U( 2)     =  0.00000000
alpha( 2) =  0.00000000
U( 3)     =  0.00000000
alpha( 3) = -0.05000000
U( 4)     =  0.00000000
alpha( 4) =  0.00000000
atom    1   Tr[ns(na)] =   8.04892
    eigenvalues: 
  0.514  0.514  0.998  0.998  1.000
    eigenvectors:
  0.000  0.000  0.000  0.000  1.000
  0.562  0.096  0.240  0.102  0.000
  0.096  0.562  0.102  0.240  0.000
  0.174  0.167  0.456  0.203  0.000
  0.167  0.174  0.203  0.456  0.000
    occupations:
  1.000  0.000  0.000  0.000  0.000
  0.000  0.679  0.000 -0.090  0.211
  0.000  0.000  0.680  0.211  0.090
  0.000 -0.090  0.211  0.833  0.000
  0.000  0.211  0.090  0.000  0.833
atom    2   Tr[ns(na)] =   8.04567
    eigenvalues: 
  0.512  0.513  0.998  0.998  1.000
    eigenvectors:
  0.000  0.000  0.000  0.000  1.000
  0.414  0.245  0.272  0.070  0.000
  0.245  0.414  0.070  0.272  0.000
  0.022  0.320  0.003  0.655  0.000
  0.320  0.022  0.655  0.003  0.000
    occupations:
  1.000  0.000  0.000  0.000  0.000
  0.000  0.679  0.000  0.090  0.212
  0.000  0.000  0.679  0.212 -0.090
  0.000  0.090  0.212  0.833  0.000
  0.000  0.212 -0.090  0.000  0.832
atom    3   Tr[ns(na)] =   3.79202
    eigenvalues: 
  0.356  0.356  0.381  0.401  0.401
    eigenvectors:
  0.000  0.000  1.000  0.000  0.000
  0.228  0.693  0.000  0.061  0.018
  0.693  0.228  0.000  0.018  0.061
  0.059  0.020  0.000  0.217  0.704
  0.020  0.059  0.000  0.704  0.217
    occupations:
  0.381  0.000  0.000  0.000  0.000
  0.000  0.360  0.000  0.000  0.012
  0.000  0.000  0.360  0.012  0.000
  0.000  0.000  0.012  0.398  0.000
  0.000  0.012  0.000  0.000  0.398
atom    4   Tr[ns(na)] =   3.79204
    eigenvalues: 
  0.356  0.356  0.381  0.401  0.401
    eigenvectors:
  0.000  0.000  1.000  0.000  0.000
  0.683  0.239  0.000  0.059  0.019
  0.239  0.682  0.000  0.019  0.060
  0.021  0.058  0.000  0.232  0.689
  0.057  0.021  0.000  0.690  0.232
    occupations:
  0.381  0.000  0.000  0.000  0.000
  0.000  0.360  0.000  0.000  0.012
  0.000  0.000  0.360  0.012  0.000
  0.000  0.000  0.012  0.398  0.000
  0.000  0.012  0.000  0.000  0.398
atom    5   Tr[ns(na)] =   5.43740
    eigenvalues: 
  0.839  0.931  0.949
    eigenvectors:
  0.336  0.000  0.664
  0.497  0.251  0.252
  0.167  0.749  0.085
    occupations:
  0.912 -0.045  0.026
 -0.045  0.890  0.024
  0.026  0.024  0.917
atom    6   Tr[ns(na)] =   5.43427
    eigenvalues: 
  0.838  0.931  0.949
    eigenvectors:
  0.337  0.000  0.663
  0.498  0.248  0.253
  0.165  0.752  0.083
    occupations:
  0.911  0.045  0.026
  0.045  0.889 -0.024
  0.026 -0.024  0.917
atom    7   Tr[ns(na)] =   5.43427
    eigenvalues: 
  0.838  0.931  0.949
    eigenvectors:
  0.337  0.000  0.663
  0.000  1.000  0.000
  0.663  0.000  0.337
    occupations:
  0.911  0.000 -0.052
  0.000  0.931  0.000
 -0.052  0.000  0.875
atom    8   Tr[ns(na)] =   5.43455
    eigenvalues: 
  0.838  0.931  0.949
    eigenvectors:
  0.337  0.000  0.663
  0.497  0.251  0.252
  0.167  0.749  0.085
    occupations:
  0.911 -0.045  0.026
 -0.045  0.889  0.024
  0.026  0.024  0.917
atom    9   Tr[ns(na)] =   5.43424
    eigenvalues: 
  0.838  0.931  0.949
    eigenvectors:
  0.337  0.000  0.663
  0.498  0.249  0.253
  0.165  0.751  0.083
    occupations:
  0.911  0.045  0.026
  0.045  0.889 -0.024
  0.026 -0.024  0.917
atom   10   Tr[ns(na)] =   5.43424
    eigenvalues: 
  0.838  0.931  0.949
    eigenvectors:
  0.337  0.000  0.663
  0.000  1.000  0.000
  0.663  0.000  0.337
    occupations:
  0.911  0.000 -0.052
  0.000  0.931  0.000
 -0.052  0.000  0.875
N of occupied +U levels =  56.2876232
 --- exit write_ns ---
 --- in v_hubbard ---
Hubbard energy    0.4975
 -------

     total cpu time spent up to now is      442.9 secs

     total energy              =    -537.79414531 Ry
     Harris-Foulkes estimate   =    -537.79413913 Ry
     estimated scf accuracy    <       0.00000001 Ry

     iteration # 14     ecut=    30.00 Ry     beta=0.20
     Davidson diagonalization with overlap
     ethr =  1.41E-11,  avg # of iterations =  2.7
 --- enter write_ns ---
 LDA+U parameters:
U( 1)     =  7.00000000
alpha( 1) =  0.00000000
U( 2)     =  0.00000000
alpha( 2) =  0.00000000
U( 3)     =  0.00000000
alpha( 3) = -0.05000000
U( 4)     =  0.00000000
alpha( 4) =  0.00000000
atom    1   Tr[ns(na)] =   8.04893
    eigenvalues: 
  0.514  0.514  0.998  0.998  1.000
    eigenvectors:
  0.000  0.000  0.000  0.000  1.000
  0.562  0.096  0.240  0.102  0.000
  0.096  0.562  0.102  0.240  0.000
  0.174  0.167  0.455  0.203  0.000
  0.167  0.174  0.203  0.455  0.000
    occupations:
  1.000  0.000  0.000  0.000  0.000
  0.000  0.679  0.000 -0.090  0.211
  0.000  0.000  0.680  0.211  0.090
  0.000 -0.090  0.211  0.833  0.000
  0.000  0.211  0.090  0.000  0.833
atom    2   Tr[ns(na)] =   8.04568
    eigenvalues: 
  0.512  0.513  0.998  0.998  1.000
    eigenvectors:
  0.000  0.000  0.000  0.000  1.000
  0.414  0.245  0.272  0.070  0.000
  0.245  0.414  0.070  0.272  0.000
  0.022  0.320  0.003  0.655  0.000
  0.320  0.022  0.655  0.003  0.000
    occupations:
  1.000  0.000  0.000  0.000  0.000
  0.000  0.679  0.000  0.090  0.212
  0.000  0.000  0.679  0.212 -0.090
  0.000  0.090  0.212  0.833  0.000
  0.000  0.212 -0.090  0.000  0.832
atom    3   Tr[ns(na)] =   3.79199
    eigenvalues: 
  0.356  0.356  0.381  0.401  0.401
    eigenvectors:
  0.000  0.000  1.000  0.000  0.000
  0.228  0.693  0.000  0.061  0.018
  0.693  0.228  0.000  0.018  0.061
  0.059  0.020  0.000  0.214  0.707
  0.020  0.059  0.000  0.707  0.214
    occupations:
  0.381  0.000  0.000  0.000  0.000
  0.000  0.360  0.000  0.000  0.012
  0.000  0.000  0.360  0.012  0.000
  0.000  0.000  0.012  0.398  0.000
  0.000  0.012  0.000  0.000  0.398
atom    4   Tr[ns(na)] =   3.79200
    eigenvalues: 
  0.356  0.356  0.381  0.401  0.401
    eigenvectors:
  0.000  0.000  1.000  0.000  0.000
  0.682  0.239  0.000  0.059  0.019
  0.240  0.682  0.000  0.019  0.060
  0.021  0.058  0.000  0.232  0.689
  0.057  0.021  0.000  0.690  0.232
    occupations:
  0.381  0.000  0.000  0.000  0.000
  0.000  0.360  0.000  0.000  0.012
  0.000  0.000  0.360  0.012  0.000
  0.000  0.000  0.012  0.398  0.000
  0.000  0.012  0.000  0.000  0.398
atom    5   Tr[ns(na)] =   5.43739
    eigenvalues: 
  0.839  0.931  0.949
    eigenvectors:
  0.337  0.000  0.663
  0.497  0.251  0.252
  0.167  0.749  0.085
    occupations:
  0.912 -0.045  0.026
 -0.045  0.890  0.024
  0.026  0.024  0.917
atom    6   Tr[ns(na)] =   5.43428
    eigenvalues: 
  0.838  0.931  0.949
    eigenvectors:
  0.337  0.000  0.663
  0.498  0.248  0.253
  0.165  0.752  0.083
    occupations:
  0.911  0.045  0.026
  0.045  0.889 -0.024
  0.026 -0.024  0.917
atom    7   Tr[ns(na)] =   5.43428
    eigenvalues: 
  0.838  0.931  0.949
    eigenvectors:
  0.337  0.000  0.663
  0.000  1.000  0.000
  0.663  0.000  0.337
    occupations:
  0.911  0.000 -0.052
  0.000  0.931  0.000
 -0.052  0.000  0.875
atom    8   Tr[ns(na)] =   5.43455
    eigenvalues: 
  0.838  0.931  0.949
    eigenvectors:
  0.337  0.000  0.663
  0.497  0.251  0.252
  0.167  0.749  0.085
    occupations:
  0.911 -0.045  0.026
 -0.045  0.889  0.024
  0.026  0.024  0.917
atom    9   Tr[ns(na)] =   5.43425
    eigenvalues: 
  0.838  0.931  0.949
    eigenvectors:
  0.337  0.000  0.663
  0.498  0.249  0.253
  0.165  0.751  0.083
    occupations:
  0.911  0.045  0.026
  0.045  0.889 -0.024
  0.026 -0.024  0.917
atom   10   Tr[ns(na)] =   5.43425
    eigenvalues: 
  0.838  0.931  0.949
    eigenvectors:
  0.337  0.000  0.663
  0.000  1.000  0.000
  0.663  0.000  0.337
    occupations:
  0.911  0.000 -0.052
  0.000  0.931  0.000
 -0.052  0.000  0.875
N of occupied +U levels =  56.2876106
 --- exit write_ns ---
 --- in v_hubbard ---
Hubbard energy    0.4975
 -------

     total cpu time spent up to now is      473.7 secs

     End of self-consistent calculation

          k = 0.0000 0.0000 0.0000 (  2175 PWs)   bands (ev):

   -19.7938 -19.6207  -6.5489  -5.8952  -5.8892  -5.8256  -5.8178  -5.4823
    -3.9410  -3.3125  -3.3114  -3.2566  -3.0228  -3.0225   5.1450   5.8089
     5.8107   5.8658   6.4862   6.4881   7.2312   7.4984   7.5041   7.6983
     7.7026   7.7026   9.2913   9.6178   9.6226   9.9647   9.9654  10.1375
    10.4518  10.4531  10.5975  10.5997  10.6692  10.8789  11.8123  11.8133
    14.6973  14.6977  15.4317  15.4324  16.2021  16.7889

     occupation numbers 
     0.0313   0.0313   0.0313   0.0313   0.0313   0.0313   0.0313   0.0313
     0.0313   0.0313   0.0313   0.0313   0.0313   0.0313   0.0313   0.0313
     0.0313   0.0313   0.0313   0.0313   0.0313   0.0313   0.0313   0.0313
     0.0313   0.0313   0.0312   0.0312   0.0312   0.0312   0.0312   0.0312
     0.0312   0.0312   0.0311   0.0311   0.0310   0.0297   0.0018   0.0018
     0.0000   0.0000   0.0000   0.0000   0.0000   0.0000

          k =-0.2471-0.1427 0.1027 (  2181 PWs)   bands (ev):

   -19.7708 -19.6694  -6.7272  -6.3086  -5.9782  -5.8638  -5.6150  -5.4845
    -3.6964  -3.4415  -2.9588  -2.9139  -2.8894  -2.7745   5.3264   5.6843
     5.8632   5.9416   6.3999   6.4058   6.7620   7.0041   7.3871   7.5011
     7.5436   7.6879   9.2627   9.4404   9.6847   9.8015   9.8305   9.9322
    10.1627  10.3461  10.3888  10.5527  10.6624  10.7224  12.2538  12.3280
    14.2470  14.2589  15.8185  16.0725  16.9736  17.2682

     occupation numbers 
     0.0625   0.0625   0.0625   0.0625   0.0625   0.0625   0.0625   0.0625
     0.0625   0.0625   0.0625   0.0625   0.0625   0.0625   0.0625   0.0625
     0.0625   0.0625   0.0625   0.0625   0.0625   0.0625   0.0625   0.0625
     0.0625   0.0625   0.0625   0.0625   0.0625   0.0625   0.0625   0.0625
     0.0625   0.0625   0.0625   0.0623   0.0620   0.0616   0.0001   0.0000
     0.0000   0.0000   0.0000   0.0000   0.0000   0.0000

          k = 0.4942 0.2853-0.2053 (  2202 PWs)   bands (ev):

   -19.7335 -19.7328  -6.7276  -6.7142  -5.9783  -5.9728  -5.5303  -5.5197
    -3.4288  -3.4271  -2.8159  -2.8126  -2.5068  -2.5045   5.4118   5.4254
     6.0444   6.0536   6.1901   6.2010   6.7122   6.7201   7.2476   7.2622
     7.3821   7.3999   9.2822   9.2960   9.6578   9.6761   9.9039   9.9243
    10.0386  10.0531  10.3256  10.3411  10.4909  10.5048  13.2337  13.2825
    13.3175  13.3656  16.8321  16.8381  17.1271  17.1309

     occupation numbers 
     0.0313   0.0313   0.0313   0.0313   0.0313   0.0313   0.0313   0.0313
     0.0313   0.0313   0.0313   0.0313   0.0313   0.0313   0.0313   0.0313
     0.0313   0.0313   0.0313   0.0313   0.0313   0.0313   0.0313   0.0313
     0.0313   0.0313   0.0312   0.0312   0.0312   0.0312   0.0312   0.0312
     0.0312   0.0312   0.0312   0.0312   0.0312   0.0312   0.0000   0.0000
     0.0000   0.0000   0.0000   0.0000   0.0000   0.0000

          k =-0.2471 0.1427 0.2053 (  2195 PWs)   bands (ev):

   -19.7612 -19.6871  -6.8551  -6.2593  -6.0864  -5.8323  -5.6529  -5.4826
[...]
     0.0625   0.0625   0.0625   0.0625   0.0625   0.0625   0.0625   0.0625
     0.0625   0.0625   0.0625   0.0625   0.0625   0.0625   0.0625   0.0625
     0.0625   0.0625   0.0624   0.0624   0.0622   0.0619   0.0053   0.0000
     0.0000   0.0000   0.0000   0.0000   0.0000   0.0000

          k = 0.4942-0.5706 0.1027 (  2198 PWs)   bands (ev):

   -19.7390 -19.7354  -6.9541  -6.6485  -6.1327  -5.8952  -5.5196  -5.3910
    -3.3519  -3.2808  -2.8906  -2.7177  -2.5337  -2.3876   5.0662   5.6237
     5.7300   6.0737   6.1746   6.3498   6.4205   6.8700   7.2179   7.3491
     7.6694   7.8287   8.7418   9.0681   9.4124   9.6097   9.6379   9.9558
    10.1540  10.2096  10.2464  10.3570  10.5614  10.7358  12.2475  12.6877
    13.3775  14.2995  16.9082  17.1113  17.3069  18.0161

     occupation numbers 
     0.0625   0.0625   0.0625   0.0625   0.0625   0.0625   0.0625   0.0625
     0.0625   0.0625   0.0625   0.0625   0.0625   0.0625   0.0625   0.0625
     0.0625   0.0625   0.0625   0.0625   0.0625   0.0625   0.0625   0.0625
     0.0625   0.0625   0.0625   0.0625   0.0625   0.0625   0.0625   0.0625
     0.0625   0.0625   0.0625   0.0625   0.0623   0.0615   0.0001   0.0000
     0.0000   0.0000   0.0000   0.0000   0.0000   0.0000

          k =-0.7412 0.1427-0.1027 (  2198 PWs)   bands (ev):

   -19.7390 -19.7354  -6.9536  -6.6492  -6.1318  -5.8963  -5.5186  -5.3917
    -3.3511  -3.2808  -2.8905  -2.7187  -2.5331  -2.3879   5.0672   5.6207
     5.7338   6.0761   6.1715   6.3522   6.4161   6.8702   7.2151   7.3533
     7.6719   7.8244   8.7411   9.0688   9.4139   9.6139   9.6362   9.9574
    10.1524  10.2049  10.2515  10.3550  10.5575  10.7381  12.2476  12.6880
    13.3776  14.2998  16.9064  17.1141  17.3063  18.0155

     occupation numbers 
     0.0625   0.0625   0.0625   0.0625   0.0625   0.0625   0.0625   0.0625
     0.0625   0.0625   0.0625   0.0625   0.0625   0.0625   0.0625   0.0625
     0.0625   0.0625   0.0625   0.0625   0.0625   0.0625   0.0625   0.0625
     0.0625   0.0625   0.0625   0.0625   0.0625   0.0625   0.0625   0.0625
     0.0625   0.0625   0.0625   0.0625   0.0623   0.0615   0.0001   0.0000
     0.0000   0.0000   0.0000   0.0000   0.0000   0.0000

          k = 0.2471-0.7133-0.1027 (  2198 PWs)   bands (ev):

   -19.7390 -19.7354  -6.9535  -6.6495  -6.1312  -5.8969  -5.5191  -5.3910
    -3.3512  -3.2809  -2.8904  -2.7192  -2.5330  -2.3878   5.0674   5.6212
     5.7339   6.0759   6.1710   6.3544   6.4143   6.8699   7.2151   7.3549
     7.6700   7.8242   8.7401   9.0701   9.4151   9.6121   9.6369   9.9564
    10.1491  10.2087  10.2514  10.3602  10.5537  10.7372  12.2477  12.6880
    13.3775  14.2998  16.9057  17.1152  17.3063  18.0160

     occupation numbers 
     0.0625   0.0625   0.0625   0.0625   0.0625   0.0625   0.0625   0.0625
     0.0625   0.0625   0.0625   0.0625   0.0625   0.0625   0.0625   0.0625
     0.0625   0.0625   0.0625   0.0625   0.0625   0.0625   0.0625   0.0625
     0.0625   0.0625   0.0625   0.0625   0.0625   0.0625   0.0625   0.0625
     0.0625   0.0625   0.0625   0.0625   0.0623   0.0615   0.0001   0.0000
     0.0000   0.0000   0.0000   0.0000   0.0000   0.0000

          k =-0.7412-0.1427 0.1027 (  2198 PWs)   bands (ev):

   -19.7390 -19.7354  -6.9539  -6.6487  -6.1322  -5.8957  -5.5201  -5.3903
    -3.3519  -3.2808  -2.8905  -2.7182  -2.5336  -2.3875   5.0664   5.6243
     5.7300   6.0735   6.1741   6.3519   6.4187   6.8699   7.2180   7.3503
     7.6677   7.8285   8.7409   9.0692   9.4135   9.6076   9.6391   9.9548
    10.1510  10.2135  10.2459  10.3621  10.5577  10.7350  12.2475  12.6877
    13.3774  14.2995  16.9075  17.1123  17.3069  18.0165

     occupation numbers 
     0.0625   0.0625   0.0625   0.0625   0.0625   0.0625   0.0625   0.0625
     0.0625   0.0625   0.0625   0.0625   0.0625   0.0625   0.0625   0.0625
     0.0625   0.0625   0.0625   0.0625   0.0625   0.0625   0.0625   0.0625
     0.0625   0.0625   0.0625   0.0625   0.0625   0.0625   0.0625   0.0625
     0.0625   0.0625   0.0625   0.0625   0.0623   0.0615   0.0001   0.0000
     0.0000   0.0000   0.0000   0.0000   0.0000   0.0000

          k = 0.2471 0.7133 0.1027 (  2198 PWs)   bands (ev):

   -19.7386 -19.7352  -6.9585  -6.6474  -6.1372  -5.8864  -5.5150  -5.3967
    -3.3524  -3.2809  -2.8899  -2.7191  -2.5341  -2.3889   5.0711   5.6250
     5.7286   6.0747   6.1737   6.3538   6.4193   6.8666   7.2196   7.3549
     7.6717   7.8194   8.7415   9.0690   9.4133   9.6097   9.6379   9.9527
    10.1547  10.2150  10.2438  10.3615  10.5591  10.7295  12.2467  12.6891
    13.3768  14.2997  16.9082  17.1122  17.3071  18.0163

     occupation numbers 
     0.0625   0.0625   0.0625   0.0625   0.0625   0.0625   0.0625   0.0625
     0.0625   0.0625   0.0625   0.0625   0.0625   0.0625   0.0625   0.0625
     0.0625   0.0625   0.0625   0.0625   0.0625   0.0625   0.0625   0.0625
     0.0625   0.0625   0.0625   0.0625   0.0625   0.0625   0.0625   0.0625
     0.0625   0.0625   0.0625   0.0625   0.0623   0.0616   0.0001   0.0000
     0.0000   0.0000   0.0000   0.0000   0.0000   0.0000

          k = 0.2471-0.4280 0.0000 (  2203 PWs)   bands (ev):

   -19.7525 -19.7130  -6.8477  -6.6463  -6.0606  -5.9815  -5.4426  -5.3747
    -3.6012  -3.3150  -2.8096  -2.7110  -2.5880  -2.5744   5.2409   5.6439
     5.8668   5.9328   6.1924   6.4310   6.5395   6.7019   7.2106   7.3378
     7.3860   8.0260   8.8451   9.2487   9.5900   9.6840   9.7779  10.0016
    10.0994  10.1918  10.2350  10.3467  10.4325  10.8117  12.1510  13.2659
    13.3496  14.0952  16.4331  16.9962  17.4200  17.9263

     occupation numbers 
     0.0625   0.0625   0.0625   0.0625   0.0625   0.0625   0.0625   0.0625
     0.0625   0.0625   0.0625   0.0625   0.0625   0.0625   0.0625   0.0625
     0.0625   0.0625   0.0625   0.0625   0.0625   0.0625   0.0625   0.0625
     0.0625   0.0625   0.0625   0.0625   0.0625   0.0625   0.0625   0.0625
     0.0625   0.0625   0.0625   0.0625   0.0625   0.0607   0.0002   0.0000
     0.0000   0.0000   0.0000   0.0000   0.0000   0.0000

          k =-0.4942 0.0000 0.0000 (  2203 PWs)   bands (ev):

   -19.7525 -19.7130  -6.8477  -6.6463  -6.0607  -5.9815  -5.4426  -5.3747
    -3.6012  -3.3150  -2.8096  -2.7110  -2.5881  -2.5743   5.2409   5.6439
     5.8669   5.9327   6.1924   6.4310   6.5395   6.7019   7.2107   7.3370
     7.3868   8.0260   8.8451   9.2487   9.5897   9.6840   9.7781  10.0016
    10.0994  10.1922  10.2350  10.3464  10.4324  10.8118  12.1510  13.2660
    13.3496  14.0952  16.4331  16.9962  17.4200  17.9265

     occupation numbers 
     0.0625   0.0625   0.0625   0.0625   0.0625   0.0625   0.0625   0.0625
     0.0625   0.0625   0.0625   0.0625   0.0625   0.0625   0.0625   0.0625
     0.0625   0.0625   0.0625   0.0625   0.0625   0.0625   0.0625   0.0625
     0.0625   0.0625   0.0625   0.0625   0.0625   0.0625   0.0625   0.0625
     0.0625   0.0625   0.0625   0.0625   0.0625   0.0607   0.0002   0.0000
     0.0000   0.0000   0.0000   0.0000   0.0000   0.0000

          k = 0.4942 0.2853 0.4107 (  2202 PWs)   bands (ev):

   -19.7536 -19.7288  -7.1641  -6.4501  -6.2346  -5.9769  -5.5329  -5.2999
    -3.2354  -3.1156  -3.0787  -2.6463  -2.4782  -2.2215   4.6491   5.5238
     5.5901   6.0266   6.2412   6.7057   6.7501   6.9092   7.1342   7.2434
     7.6367   8.1601   8.2944   8.5960   9.4133   9.6712   9.9320  10.0262
    10.0571  10.1197  10.1906  10.4690  10.5259  10.8354  11.7149  12.3512
    13.2811  14.7327  17.0471  17.2700  17.5196  17.6147

     occupation numbers 
     0.0313   0.0313   0.0313   0.0313   0.0313   0.0313   0.0313   0.0313
     0.0313   0.0313   0.0313   0.0313   0.0313   0.0313   0.0313   0.0313
     0.0313   0.0313   0.0313   0.0313   0.0313   0.0313   0.0313   0.0313
     0.0313   0.0313   0.0313   0.0313   0.0312   0.0312   0.0312   0.0312
     0.0312   0.0312   0.0312   0.0312   0.0312   0.0301   0.0034   0.0000
     0.0000   0.0000   0.0000   0.0000   0.0000   0.0000

          k = 0.0000 0.5706-0.4107 (  2202 PWs)   bands (ev):

   -19.7536 -19.7288  -7.1641  -6.4501  -6.2347  -5.9769  -5.5329  -5.2999
    -3.2354  -3.1156  -3.0787  -2.6463  -2.4782  -2.2215   4.6491   5.5238
     5.5901   6.0266   6.2412   6.7059   6.7499   6.9093   7.1342   7.2434
     7.6367   8.1600   8.2945   8.5960   9.4133   9.6712   9.9321  10.0261
    10.0572  10.1195  10.1907  10.4692  10.5257  10.8354  11.7149  12.3512
    13.2811  14.7327  17.0471  17.2700  17.5196  17.6147

     occupation numbers 
     0.0313   0.0313   0.0313   0.0313   0.0313   0.0313   0.0313   0.0313
     0.0313   0.0313   0.0313   0.0313   0.0313   0.0313   0.0313   0.0313
     0.0313   0.0313   0.0313   0.0313   0.0313   0.0313   0.0313   0.0313
     0.0313   0.0313   0.0313   0.0313   0.0312   0.0312   0.0312   0.0312
     0.0312   0.0312   0.0312   0.0312   0.0312   0.0301   0.0034   0.0000
     0.0000   0.0000   0.0000   0.0000   0.0000   0.0000

          k = 0.7412-0.4280 0.0000 (  2204 PWs)   bands (ev):

   -19.7514 -19.7165  -6.7306  -6.6163  -6.1421  -5.8364  -5.7056  -5.5562
    -3.2325  -3.1159  -3.0529  -2.6837  -2.6758  -2.5914   5.3106   5.6941
     5.7676   6.0857   6.1043   6.5538   6.5692   6.7259   7.2758   7.3341
     7.4478   7.8464   8.8217   9.3259   9.3626   9.6385   9.8082   9.9734
    10.1391  10.2153  10.3490  10.3561  10.3777  10.5383  12.1494  13.1852
    13.2656  14.1246  16.6843  16.7284  17.5904  17.7951

     occupation numbers 
     0.0625   0.0625   0.0625   0.0625   0.0625   0.0625   0.0625   0.0625
     0.0625   0.0625   0.0625   0.0625   0.0625   0.0625   0.0625   0.0625
     0.0625   0.0625   0.0625   0.0625   0.0625   0.0625   0.0625   0.0625
     0.0625   0.0625   0.0625   0.0625   0.0625   0.0625   0.0625   0.0625
     0.0625   0.0625   0.0625   0.0625   0.0625   0.0624   0.0002   0.0000
     0.0000   0.0000   0.0000   0.0000   0.0000   0.0000

          k = 0.0000-0.8559 0.0000 (  2204 PWs)   bands (ev):

   -19.7514 -19.7166  -6.7330  -6.6121  -6.1443  -5.8382  -5.7086  -5.5506
    -3.2319  -3.1160  -3.0529  -2.6846  -2.6771  -2.5902   5.3147   5.6991
     5.7659   6.0848   6.1026   6.5503   6.5679   6.7233   7.2726   7.3316
     7.4453   7.8542   8.8297   9.3224   9.3692   9.6351   9.8074   9.9709
    10.1361  10.2119  10.3487  10.3586  10.3815  10.5382  12.1479  13.1854
    13.2657  14.1252  16.6850  16.7279  17.5897  17.7950

     occupation numbers 
     0.0625   0.0625   0.0625   0.0625   0.0625   0.0625   0.0625   0.0625
     0.0625   0.0625   0.0625   0.0625   0.0625   0.0625   0.0625   0.0625
     0.0625   0.0625   0.0625   0.0625   0.0625   0.0625   0.0625   0.0625
     0.0625   0.0625   0.0625   0.0625   0.0625   0.0625   0.0625   0.0625
     0.0625   0.0625   0.0625   0.0625   0.0625   0.0624   0.0002   0.0000
     0.0000   0.0000   0.0000   0.0000   0.0000   0.0000

          k = 0.4942-0.2853-0.1027 (  2211 PWs)   bands (ev):

   -19.7402 -19.7335  -6.9747  -6.5429  -6.3271  -5.7073  -5.6193  -5.3674
    -3.3669  -3.1783  -3.0649  -2.6047  -2.5720  -2.3798   5.0851   5.6304
     5.7450   5.9110   6.1678   6.4622   6.5740   6.7427   7.2096   7.2400
     7.7880   7.8255   8.7008   9.2239   9.3018   9.5474   9.7816   9.8535
    10.1634  10.2227  10.3644  10.4454  10.5024  10.5768  12.2027  12.7026
    13.4244  14.2816  16.8865  16.9354  17.5775  17.9279

     occupation numbers 
     0.0625   0.0625   0.0625   0.0625   0.0625   0.0625   0.0625   0.0625
     0.0625   0.0625   0.0625   0.0625   0.0625   0.0625   0.0625   0.0625
     0.0625   0.0625   0.0625   0.0625   0.0625   0.0625   0.0625   0.0625
     0.0625   0.0625   0.0625   0.0625   0.0625   0.0625   0.0625   0.0625
     0.0625   0.0625   0.0625   0.0625   0.0624   0.0623   0.0001   0.0000
     0.0000   0.0000   0.0000   0.0000   0.0000   0.0000

          k = 0.0000-0.5706 0.1027 (  2211 PWs)   bands (ev):

   -19.7406 -19.7338  -6.9704  -6.5440  -6.3263  -5.7104  -5.6250  -5.3623
    -3.3668  -3.1782  -3.0648  -2.6038  -2.5719  -2.3784   5.0805   5.6334
     5.7406   5.9135   6.1671   6.4604   6.5732   6.7449   7.2091   7.2359
     7.7841   7.8336   8.7017   9.2178   9.3003   9.5543   9.7801   9.8572
    10.1609  10.2208  10.3636  10.4470  10.5052  10.5779  12.2036  12.7013
    13.4251  14.2814  16.8862  16.9355  17.5777  17.9277

     occupation numbers 
     0.0625   0.0625   0.0625   0.0625   0.0625   0.0625   0.0625   0.0625
     0.0625   0.0625   0.0625   0.0625   0.0625   0.0625   0.0625   0.0625
     0.0625   0.0625   0.0625   0.0625   0.0625   0.0625   0.0625   0.0625
     0.0625   0.0625   0.0625   0.0625   0.0625   0.0625   0.0625   0.0625
     0.0625   0.0625   0.0625   0.0624   0.0624   0.0623   0.0001   0.0000
     0.0000   0.0000   0.0000   0.0000   0.0000   0.0000

          k = 0.7412 0.4280 0.3080 (  2210 PWs)   bands (ev):

   -19.7402 -19.7367  -6.9067  -6.4566  -6.3044  -5.7980  -5.7714  -5.4977
    -3.0960  -3.0768  -2.9790  -2.7407  -2.6322  -2.4297   5.1194   5.7124
     5.8064   5.9395   6.1632   6.4072   6.5622   6.8197   7.2630   7.2755
     7.7457   7.8220   8.6635   9.1521   9.3483   9.4458   9.6262   9.9719
    10.1092  10.1867  10.2488  10.4197  10.5365  10.5944  12.1648  12.6560
    13.3745  14.2516  17.0606  17.0713  17.5456  17.9023

     occupation numbers 
     0.0625   0.0625   0.0625   0.0625   0.0625   0.0625   0.0625   0.0625
     0.0625   0.0625   0.0625   0.0625   0.0625   0.0625   0.0625   0.0625
     0.0625   0.0625   0.0625   0.0625   0.0625   0.0625   0.0625   0.0625
     0.0625   0.0625   0.0625   0.0625   0.0625   0.0625   0.0625   0.0625
     0.0625   0.0625   0.0625   0.0625   0.0624   0.0622   0.0002   0.0000
     0.0000   0.0000   0.0000   0.0000   0.0000   0.0000

          k = 0.0000 0.8559-0.3080 (  2210 PWs)   bands (ev):

   -19.7402 -19.7367  -6.9066  -6.4566  -6.3044  -5.7980  -5.7714  -5.4977
    -3.0960  -3.0768  -2.9790  -2.7407  -2.6321  -2.4297   5.1194   5.7124
     5.8062   5.9397   6.1632   6.4071   6.5624   6.8196   7.2625   7.2760
     7.7456   7.8220   8.6635   9.1521   9.3484   9.4457   9.6262   9.9717
    10.1092  10.1868  10.2492  10.4196  10.5364  10.5945  12.1648  12.6560
    13.3745  14.2516  17.0606  17.0713  17.5456  17.9023

     occupation numbers 
     0.0625   0.0625   0.0625   0.0625   0.0625   0.0625   0.0625   0.0625
     0.0625   0.0625   0.0625   0.0625   0.0625   0.0625   0.0625   0.0625
     0.0625   0.0625   0.0625   0.0625   0.0625   0.0625   0.0625   0.0625
     0.0625   0.0625   0.0625   0.0625   0.0625   0.0625   0.0625   0.0625
     0.0625   0.0625   0.0625   0.0625   0.0624   0.0622   0.0002   0.0000
     0.0000   0.0000   0.0000   0.0000   0.0000   0.0000

          k = 0.2471 0.7133-0.2053 (  2206 PWs)   bands (ev):

   -19.7415 -19.7413  -6.8868  -6.8748  -6.0373  -6.0268  -5.4384  -5.4310
    -3.1712  -3.1708  -2.8325  -2.8308  -2.3842  -2.3813   5.3422   5.3469
     5.7024   5.7108   6.2946   6.2975   6.5977   6.6051   7.2266   7.2344
     8.0268   8.0348   8.7426   8.7491   9.3731   9.3780   9.8321   9.8401
    10.1218  10.1322  10.2657  10.2701  10.6037  10.6103  12.2055  12.2122
    13.9468  13.9588  17.4249  17.4256  17.8708  17.8739

     occupation numbers 
     0.0625   0.0625   0.0625   0.0625   0.0625   0.0625   0.0625   0.0625
     0.0625   0.0625   0.0625   0.0625   0.0625   0.0625   0.0625   0.0625
     0.0625   0.0625   0.0625   0.0625   0.0625   0.0625   0.0625   0.0625
     0.0625   0.0625   0.0625   0.0625   0.0625   0.0625   0.0625   0.0625
     0.0625   0.0625   0.0625   0.0625   0.0622   0.0622   0.0001   0.0001
     0.0000   0.0000   0.0000   0.0000   0.0000   0.0000

          k =-0.7412-0.1427-0.2053 (  2206 PWs)   bands (ev):

   -19.7418 -19.7417  -6.8854  -6.8703  -6.0372  -6.0357  -5.4383  -5.4276
    -3.1710  -3.1703  -2.8326  -2.8318  -2.3838  -2.3787   5.3412   5.3436
     5.7049   5.7129   6.2912   6.2951   6.5926   6.6049   7.2227   7.2324
     8.0340   8.0358   8.7487   8.7515   9.3778   9.3783   9.8257   9.8359
    10.1205  10.1296  10.2646  10.2720  10.6081  10.6128  12.2049  12.2115
    13.9472  13.9592  17.4253  17.4258  17.8705  17.8729

     occupation numbers 
     0.0625   0.0625   0.0625   0.0625   0.0625   0.0625   0.0625   0.0625
     0.0625   0.0625   0.0625   0.0625   0.0625   0.0625   0.0625   0.0625
     0.0625   0.0625   0.0625   0.0625   0.0625   0.0625   0.0625   0.0625
     0.0625   0.0625   0.0625   0.0625   0.0625   0.0625   0.0625   0.0625
     0.0625   0.0625   0.0625   0.0625   0.0622   0.0622   0.0001   0.0001
     0.0000   0.0000   0.0000   0.0000   0.0000   0.0000

     the Fermi energy is    11.3570 ev

!    total energy              =    -537.79415625 Ry
     Harris-Foulkes estimate   =    -537.79414531 Ry
     estimated scf accuracy    <          4.0E-09 Ry

     The total energy is the sum of the following terms:

     one-electron contribution =     -32.88349856 Ry
     hartree contribution      =      83.66129005 Ry
     xc contribution           =    -199.62308623 Ry
     ewald contribution        =    -389.44315552 Ry
     Hubbard energy            =       0.49749438 Ry
     smearing contrib. (-TS)   =      -0.00320037 Ry

     convergence has been achieved in  14 iterations

     init_run     :      6.74s CPU      6.82s WALL (       1 calls)
     electrons    :    464.24s CPU    466.48s WALL (       1 calls)

     Called by init_run:
     wfcinit      :      0.00s CPU      0.00s WALL (       1 calls)
     potinit      :      0.27s CPU      0.29s WALL (       1 calls)

     Called by electrons:
     c_bands      :    356.45s CPU    357.71s WALL (      14 calls)
     sum_band     :     78.30s CPU     78.91s WALL (      14 calls)
     v_of_rho     :      3.83s CPU      3.84s WALL (      15 calls)
     v_h          :      0.22s CPU      0.23s WALL (      15 calls)
     v_xc         :      3.60s CPU      3.61s WALL (      15 calls)
     newd         :     26.34s CPU     26.36s WALL (      15 calls)
     mix_rho      :      0.43s CPU      0.44s WALL (      14 calls)

     Called by c_bands:
     init_us_2    :      3.88s CPU      3.87s WALL (    1008 calls)
     cegterg      :    345.64s CPU    346.23s WALL (     504 calls)

     Called by sum_band:
     sum_band:bec :      0.39s CPU      0.39s WALL (     504 calls)
     addusdens    :     16.83s CPU     16.84s WALL (      14 calls)

     Called by *egterg:
     h_psi        :    260.31s CPU    260.81s WALL (    1885 calls)
     s_psi        :     14.72s CPU     14.71s WALL (    1885 calls)
     g_psi        :      1.20s CPU      1.20s WALL (    1381 calls)
     cdiaghg      :     22.60s CPU     22.60s WALL (    1849 calls)
     cegterg:over :     16.92s CPU     16.93s WALL (    1381 calls)
     cegterg:upda :     10.98s CPU     11.00s WALL (    1381 calls)
     cegterg:last :      8.39s CPU      8.41s WALL (     573 calls)

     Called by h_psi:
     h_psi:vloc   :    211.80s CPU    212.24s WALL (    1885 calls)
     h_psi:vnl    :     30.98s CPU     31.02s WALL (    1885 calls)
     add_vuspsi   :     15.00s CPU     15.02s WALL (    1885 calls)
     vhpsi        :     16.77s CPU     16.82s WALL (    1885 calls)

     General routines
     calbec       :     32.79s CPU     32.86s WALL (    4778 calls)
     fft          :      2.56s CPU      2.56s WALL (     235 calls)
     ffts         :      0.08s CPU      0.08s WALL (      29 calls)
     fftw         :    198.21s CPU    198.07s WALL (  141192 calls)
     interpolate  :      0.44s CPU      0.45s WALL (      29 calls)
     davcio       :      0.01s CPU      1.14s WALL (    1044 calls)

     Parallel routines
     fft_scatter  :     50.44s CPU     50.73s WALL (  141456 calls)
     Hubbard U routines
     new_ns       :      3.21s CPU      3.70s WALL (      14 calls)
     vhpsi        :     16.77s CPU     16.82s WALL (    1885 calls)

     PWSCF        :  7m51.42s CPU     7m53.75s WALL


   This run was terminated on:   5:50:21  13Nov2012            

=------------------------------------------------------------------------------=
