   JOB DONE.
=------------------------------------------------------------------------------=

     Program PWSCF v.5.0.1 starts on 11Nov2012 at 14:59:51 

     This program is part of the open-source Quantum ESPRESSO suite
     for quantum simulation of materials; please cite
         "P. Giannozzi et al., J. Phys.:Condens. Matter 21 395502 (2009);
          URL http://www.quantum-espresso.org", 
     in publications or presentations arising from this work. More details at
     http://www.quantum-espresso.org/quote.php

     Parallel version (MPI), running on     2 processors
     R & G space division:  proc/pool =    2

     Current dimensions of program PWSCF are:
     Max number of different atomic species (ntypx) = 10
     Max number of k-points (npk) =  40000
     Max angular momentum in pseudopotentials (lmaxx) =  3
     Reading input from CoLaO_U200_a10.in
               file Co.pbe-nd-rrkjus.UPF: wavefunction(s)  4S 3D renormalized
               file Co.pbe-nd-rrkjus.UPF: wavefunction(s)  4S 3D renormalized
               file O.pbe-rrkjus.UPF: wavefunction(s)  2S renormalized

     Subspace diagonalization in iterative solution of the eigenvalue problem:
     a serial algorithm will be used


     Parallelization info
     --------------------
     sticks:   dense  smooth     PW     G-vecs:    dense   smooth      PW
     Min        1112     444    131                34808     8786    1448
     Max        1113     445    132                34809     8787    1449
     Sum        2225     889    263                69617    17573    2897


     Title: 
     GGA + U, U = 2.000, alpha = 0.100                                          


     bravais-lattice index     =            5
     lattice parameter (alat)  =      10.3292  a.u.
     unit-cell volume          =     793.0599 (a.u.)^3
     number of atoms/cell      =           10
     number of atomic types    =            4
     number of electrons       =        76.00
     number of Kohn-Sham states=           46
     kinetic-energy cutoff     =      30.0000  Ry
     charge density cutoff     =     300.0000  Ry
     convergence threshold     =      1.0E-08
     mixing beta               =       0.2000
     number of iterations used =            8  plain     mixing
     Exchange-correlation      =  SLA  PW   PBE  PBE ( 1 4 3 4 0)
     EXX-fraction              =        0.00

     celldm(1)=  10.329242  celldm(2)=   0.000000  celldm(3)=   0.000000
     celldm(4)=   0.488100  celldm(5)=   0.000000  celldm(6)=   0.000000

     crystal axes: (cart. coord. in units of alat)
               a(1) = (   0.505915  -0.292090   0.811624 )  
               a(2) = (   0.000000   0.584180   0.811624 )  
               a(3) = (  -0.505915  -0.292090   0.811624 )  

     reciprocal axes: (cart. coord. in units 2 pi/alat)
               b(1) = (  0.988308 -0.570600  0.410699 )  
               b(2) = (  0.000000  1.141200  0.410699 )  
               b(3) = ( -0.988308 -0.570600  0.410699 )  


     PseudoPot. # 1 for Co read from file:
     /home/mcurnan/dft-course/Project1/example_LaCoO3/Co.pbe-nd-rrkjus.UPF
     MD5 check sum: 3e47a84addf5e975e0edeaeee2a73f59
     Pseudo is Ultrasoft + core correction, Zval =  9.0
     Generated by new atomic code, or converted to UPF format
     Using radial grid of  961 points,  6 beta functions with: 
                l(1) =   0
                l(2) =   0
                l(3) =   1
                l(4) =   1
                l(5) =   2
                l(6) =   2
     Q(r) pseudized with 0 coefficients 


     PseudoPot. # 2 for Co read from file:
     /home/mcurnan/dft-course/Project1/example_LaCoO3/Co.pbe-nd-rrkjus.UPF
     MD5 check sum: 3e47a84addf5e975e0edeaeee2a73f59
     Pseudo is Ultrasoft + core correction, Zval =  9.0
     Generated by new atomic code, or converted to UPF format
     Using radial grid of  961 points,  6 beta functions with: 
                l(1) =   0
                l(2) =   0
                l(3) =   1
                l(4) =   1
                l(5) =   2
                l(6) =   2
     Q(r) pseudized with 0 coefficients 


     PseudoPot. # 3 for La read from file:
     /home/mcurnan/dft-course/Project1/example_LaCoO3/La.pbe-nsp-van.UPF
     MD5 check sum: b2f11743f52dde65f77d1302becd7929
     Pseudo is Ultrasoft + core correction, Zval = 11.0
     Generated by new atomic code, or converted to UPF format
     Using radial grid of  907 points,  6 beta functions with: 
                l(1) =   0
                l(2) =   0
                l(3) =   1
                l(4) =   1
                l(5) =   2
                l(6) =   2
     Q(r) pseudized with  6 coefficients,  rinner =    1.200   1.200   1.200
                                                       1.200   1.200

     PseudoPot. # 4 for O  read from file:
     /home/mcurnan/dft-course/Project1/example_LaCoO3/O.pbe-rrkjus.UPF
     MD5 check sum: 390ba29e75625707450f3bd3f0eb6be9
     Pseudo is Ultrasoft, Zval =  6.0
     Generated by new atomic code, or converted to UPF format
     Using radial grid of 1269 points,  4 beta functions with: 
                l(1) =   0
                l(2) =   0
                l(3) =   1
                l(4) =   1
     Q(r) pseudized with 0 coefficients 


     atomic species   valence    mass     pseudopotential
        Co1            9.00     1.00000     Co( 1.00)
        Co2            9.00     1.00000     Co( 1.00)
        La1           11.00     1.00000     La( 1.00)
        O1             6.00     1.00000     O ( 1.00)
 -----
     simplified LDA+U calculation, Hubbard_lmax = 2
     atomic species  L   Hubbard U  Hubbard alpha
        Co1          2    2.000000    0.100000
        Co2          2    2.000000    0.000000
        La1          2    0.000000    0.000000
        O1           1    0.000000    0.000000
 -----

      6 Sym. Ops., with inversion, found


                                    s                        frac. trans.

      isym =  1     identity                                     

 cryst.   s( 1) = (     1          0          0      )
                  (     0          1          0      )
                  (     0          0          1      )

 cart.    s( 1) = (  1.0000000  0.0000000  0.0000000 )
                  (  0.0000000  1.0000000  0.0000000 )
                  (  0.0000000  0.0000000  1.0000000 )


      isym =  2     120 deg rotation - cryst. axis [0,0,1]       

 cryst.   s( 2) = (     0          1          0      )
                  (     0          0          1      )
                  (     1          0          0      )

 cart.    s( 2) = ( -0.5000000 -0.8660254  0.0000000 )
                  (  0.8660254 -0.5000000  0.0000000 )
                  (  0.0000000  0.0000000  1.0000000 )


      isym =  3     120 deg rotation - cryst. axis [0,0,-1]      

 cryst.   s( 3) = (     0          0          1      )
                  (     1          0          0      )
                  (     0          1          0      )

 cart.    s( 3) = ( -0.5000000  0.8660254  0.0000000 )
                  ( -0.8660254 -0.5000000  0.0000000 )
                  (  0.0000000  0.0000000  1.0000000 )


      isym =  4     inversion                                    

 cryst.   s( 4) = (    -1          0          0      )
                  (     0         -1          0      )
                  (     0          0         -1      )

 cart.    s( 4) = ( -1.0000000  0.0000000  0.0000000 )
                  (  0.0000000 -1.0000000  0.0000000 )
                  (  0.0000000  0.0000000 -1.0000000 )


      isym =  5     inv. 180 deg rotation - cart. axis [0,1,0]   

 cryst.   s( 5) = (     0         -1          0      )
                  (     0          0         -1      )
                  (    -1          0          0      )

 cart.    s( 5) = (  0.5000000  0.8660254  0.0000000 )
                  ( -0.8660254  0.5000000  0.0000000 )
                  (  0.0000000  0.0000000 -1.0000000 )


      isym =  6     inv. 180 deg rotation - cart. axis [1,0,0]   

 cryst.   s( 6) = (     0          0         -1      )
                  (    -1          0          0      )
                  (     0         -1          0      )

 cart.    s( 6) = (  0.5000000 -0.8660254  0.0000000 )
                  (  0.8660254  0.5000000  0.0000000 )
                  (  0.0000000  0.0000000 -1.0000000 )


     point group S_6 (-3)   
     there are  6 classes
     the character table:

       E     C3    C3^2  i     S6^5  S6   
A_g    1.00  1.00  1.00  1.00  1.00  1.00
E_g    1.00 -0.50 -0.50  1.00 -0.50 -0.50
E_g*   1.00 -0.50 -0.50  1.00 -0.50 -0.50
A_u    1.00  1.00  1.00 -1.00 -1.00 -1.00
E_u    1.00 -0.50 -0.50 -1.00  0.50  0.50
E_u*   1.00 -0.50 -0.50 -1.00  0.50  0.50
     imaginary part
A_g    0.00  0.00  0.00  0.00  0.00  0.00
E_g    0.00  0.87 -0.87  0.00  0.87 -0.87
E_g*   0.00 -0.87  0.87  0.00 -0.87  0.87
A_u    0.00  0.00  0.00  0.00  0.00  0.00
E_u    0.00  0.87 -0.87  0.00 -0.87  0.87
E_u*   0.00 -0.87  0.87  0.00  0.87 -0.87

     the symmetry operations in each class:
     E        1
     C3       2
     C3^2     3
     i        4
     S6^5     5
     S6       6

   Cartesian axes

     site n.     atom                  positions (alat units)
         1           Co1 tau(   1) = (   0.0000000   0.0000000   0.0000000  )
         2           Co2 tau(   2) = (   0.0000000   0.0000000   1.2174358  )
         3           La1 tau(   3) = (   0.0000000   0.0000000   0.6087179  )
         4           La1 tau(   4) = (   0.0000000   0.0000000   1.8261537  )
         5           O1  tau(   5) = (  -0.2839701  -0.0933228   1.0141240  )
         6           O1  tau(   6) = (   0.0611651   0.2925867   1.0141240  )
         7           O1  tau(   7) = (   0.2228050  -0.1992639   1.0141240  )
         8           O1  tau(   8) = (  -0.0611651  -0.2925867   1.4207476  )
         9           O1  tau(   9) = (   0.2839701   0.0933228   1.4207476  )
        10           O1  tau(  10) = (  -0.2228050   0.1992639   1.4207476  )

   Crystallographic axes

     site n.     atom                  positions (cryst. coord.)
         1           Co1 tau(   1) = (  0.0000000  0.0000000  0.0000000  )
         2           Co2 tau(   2) = (  0.5000000  0.5000000  0.5000000  )
         3           La1 tau(   3) = (  0.2500000  0.2500000  0.2500000  )
         4           La1 tau(   4) = (  0.7500000  0.7500000  0.7500000  )
         5           O1  tau(   5) = (  0.1891000  0.3100000  0.7504000  )
         6           O1  tau(   6) = (  0.3100000  0.7504000  0.1891000  )
         7           O1  tau(   7) = (  0.7504000  0.1891000  0.3100000  )
         8           O1  tau(   8) = (  0.6900000  0.2496000  0.8109000  )
         9           O1  tau(   9) = (  0.8109000  0.6900000  0.2496000  )
        10           O1  tau(  10) = (  0.2496000  0.8109000  0.6900000  )

     number of k points=    14  gaussian smearing, width (Ry)=  0.0300
                       cart. coord. in units 2pi/alat
        k(    1) = (   0.0000000   0.0000000   0.0000000), wk =   0.0312500
        k(    2) = (  -0.2470771  -0.1426500   0.1026748), wk =   0.1875000
        k(    3) = (   0.4941541   0.2853000  -0.2053496), wk =   0.0937500
        k(    4) = (  -0.2470771   0.1426500   0.2053496), wk =   0.1875000
        k(    5) = (   0.4941541   0.5706001  -0.1026748), wk =   0.1875000
        k(    6) = (   0.2470771   0.4279500   0.0000000), wk =   0.1875000
        k(    7) = (   0.4941541  -0.2853000  -0.4106993), wk =   0.0937500
        k(    8) = (   0.0000000   0.0000000   0.3080244), wk =   0.0625000
        k(    9) = (   0.7412312   0.4279500   0.0000000), wk =   0.1875000
        k(   10) = (   0.4941541   0.2853000   0.1026748), wk =   0.1875000
        k(   11) = (   0.7412312  -0.4279500  -0.3080244), wk =   0.1875000
        k(   12) = (   0.4941541  -0.5706001  -0.2053496), wk =   0.1875000
        k(   13) = (   0.0000000   0.0000000  -0.6160489), wk =   0.0312500
        k(   14) = (   0.4941541  -0.5706001   0.1026748), wk =   0.1875000

                       cryst. coord.
        k(    1) = (   0.0000000   0.0000000   0.0000000), wk =   0.0312500
        k(    2) = (   0.0000000   0.0000000   0.2500000), wk =   0.1875000
        k(    3) = (   0.0000000   0.0000000  -0.5000000), wk =   0.0937500
        k(    4) = (   0.0000000   0.2500000   0.2500000), wk =   0.1875000
        k(    5) = (   0.0000000   0.2500000  -0.5000000), wk =   0.1875000
        k(    6) = (   0.0000000   0.2500000  -0.2500000), wk =   0.1875000
        k(    7) = (   0.0000000  -0.5000000  -0.5000000), wk =   0.0937500
        k(    8) = (   0.2500000   0.2500000   0.2500000), wk =   0.0625000
        k(    9) = (   0.2500000   0.2500000  -0.5000000), wk =   0.1875000
        k(   10) = (   0.2500000   0.2500000  -0.2500000), wk =   0.1875000
        k(   11) = (   0.2500000  -0.5000000  -0.5000000), wk =   0.1875000
        k(   12) = (   0.2500000  -0.5000000  -0.2500000), wk =   0.1875000
        k(   13) = (  -0.5000000  -0.5000000  -0.5000000), wk =   0.0312500
        k(   14) = (   0.5000000  -0.2500000   0.0000000), wk =   0.1875000

     Dense  grid:    69617 G-vectors     FFT dimensions: (  60,  60,  60)

     Smooth grid:    17573 G-vectors     FFT dimensions: (  40,  40,  40)

     Largest allocated arrays     est. size (Mb)     dimensions
        Kohn-Sham Wavefunctions         0.78 Mb     (   1117,   46)
        Atomic wavefunctions            1.06 Mb     (   1117,   62)
        NL pseudopotentials             2.05 Mb     (   1117,  120)
        Each V/rho on FFT grid          1.65 Mb     ( 108000)
        Each G-vector array             0.27 Mb     (  34808)
        G-vector shells                 0.04 Mb     (   4682)
     Largest temporary arrays     est. size (Mb)     dimensions
        Auxiliary wavefunctions         3.14 Mb     (   1117,  184)
        Each subspace H/S matrix        0.52 Mb     ( 184, 184)
        Each <psi_i|beta_j> matrix      0.08 Mb     (    120,   46)
        Arrays for rho mixing          13.18 Mb     ( 108000,   8)

     Check: negative/imaginary core charge=   -0.000028    0.000000

     The initial density is read from file :
     /home/mcurnan/dft-course/Project1/example_LaCoO3/200/Co/alpha/CoLaO_U200.save/charge-density.dat

 --- in v_hubbard ---
Hubbard energy    0.2503
 -------
     Number of +U iterations with fixed ns =  0
     Starting occupations:
 --- enter write_ns ---
 LDA+U parameters:
U( 1)     =  2.00000000
alpha( 1) =  0.10000000
U( 2)     =  2.00000000
alpha( 2) =  0.00000000
U( 3)     =  0.00000000
alpha( 3) =  0.00000000
U( 4)     =  0.00000000
alpha( 4) =  0.00000000
atom    1   Tr[ns(na)] =   8.02206
    eigenvalues: 
  0.596  0.596  0.938  0.941  0.941
    eigenvectors:
  0.000  0.000  1.000  0.000  0.000
  0.333  0.322  0.000  0.004  0.341
  0.322  0.333  0.000  0.341  0.004
  0.289  0.056  0.000  0.515  0.140
  0.056  0.289  0.000  0.140  0.515
    occupations:
  0.938  0.000  0.000  0.000  0.000
  0.000  0.715  0.000 -0.060  0.152
  0.000  0.000  0.715  0.152  0.060
  0.000 -0.060  0.152  0.822  0.000
  0.000  0.152  0.060  0.000  0.822
atom    2   Tr[ns(na)] =   8.02145
    eigenvalues: 
  0.595  0.595  0.938  0.941  0.941
    eigenvectors:
  0.000  0.000  1.000  0.000  0.000
  0.640  0.015  0.000  0.223  0.122
  0.015  0.640  0.000  0.122  0.223
  0.017  0.329  0.000  0.470  0.185
  0.329  0.017  0.000  0.185  0.470
    occupations:
  0.938  0.000  0.000  0.000  0.000
  0.000  0.715  0.000  0.060  0.153
  0.000  0.000  0.715  0.153 -0.060
  0.000  0.060  0.153  0.822  0.000
  0.000  0.153 -0.060  0.000  0.822
atom    3   Tr[ns(na)] =   3.80284
    eigenvalues: 
  0.355  0.355  0.384  0.403  0.403
    eigenvectors:
  0.000  0.000  1.000  0.000  0.000
  0.781  0.139  0.000  0.012  0.068
  0.139  0.781  0.000  0.068  0.012
  0.013  0.067  0.000  0.780  0.141
  0.067  0.013  0.000  0.141  0.780
    occupations:
  0.384  0.000  0.000  0.000  0.000
  0.000  0.359  0.000  0.000  0.013
  0.000  0.000  0.359  0.013  0.000
  0.000  0.000  0.013  0.399  0.000
  0.000  0.013  0.000  0.000  0.399
atom    4   Tr[ns(na)] =   3.80284
    eigenvalues: 
  0.355  0.355  0.384  0.403  0.403
    eigenvectors:
  0.000  0.000  1.000  0.000  0.000
  0.782  0.139  0.000  0.012  0.068
  0.139  0.782  0.000  0.068  0.012
  0.012  0.067  0.000  0.780  0.141
  0.067  0.012  0.000  0.141  0.780
    occupations:
  0.384  0.000  0.000  0.000  0.000
  0.000  0.359  0.000  0.000  0.013
  0.000  0.000  0.359  0.013  0.000
  0.000  0.000  0.013  0.399  0.000
  0.000  0.013  0.000  0.000  0.399
atom    5   Tr[ns(na)] =   5.43357
    eigenvalues: 
  0.846  0.929  0.941
    eigenvectors:
  0.340  0.000  0.660
  0.494  0.250  0.256
  0.166  0.750  0.085
    occupations:
  0.909  0.039  0.022
  0.039  0.891 -0.022
  0.022 -0.022  0.917
atom    6   Tr[ns(na)] =   5.43357
    eigenvalues: 
  0.846  0.929  0.941
    eigenvectors:
  0.340  0.000  0.660
  0.000  1.000  0.000
  0.660  0.000  0.340
    occupations:
  0.909  0.000 -0.045
  0.000  0.929  0.000
 -0.045  0.000  0.879
atom    7   Tr[ns(na)] =   5.43357
    eigenvalues: 
  0.846  0.929  0.941
    eigenvectors:
  0.340  0.000  0.660
  0.496  0.250  0.255
  0.164  0.750  0.086
    occupations:
  0.909 -0.039  0.022
 -0.039  0.891  0.022
  0.022  0.022  0.917
atom    8   Tr[ns(na)] =   5.43357
    eigenvalues: 
  0.846  0.929  0.941
    eigenvectors:
  0.340  0.000  0.660
  0.000  1.000  0.000
  0.660  0.000  0.340
    occupations:
  0.909  0.000 -0.045
  0.000  0.929  0.000
 -0.045  0.000  0.879
atom    9   Tr[ns(na)] =   5.43357
    eigenvalues: 
  0.846  0.929  0.941
    eigenvectors:
  0.340  0.000  0.660
  0.494  0.250  0.256
  0.166  0.750  0.085
    occupations:
  0.909  0.039  0.022
  0.039  0.891 -0.022
  0.022 -0.022  0.917
atom   10   Tr[ns(na)] =   5.43357
    eigenvalues: 
  0.846  0.929  0.941
    eigenvectors:
  0.340  0.000  0.660
  0.496  0.250  0.255
  0.164  0.750  0.086
    occupations:
  0.909 -0.039  0.022
 -0.039  0.891  0.022
  0.022  0.022  0.917
N of occupied +U levels =  56.2506062
 --- exit write_ns ---
 LDA+U Projector read from file 
     Starting wfc from file

     total cpu time spent up to now is        8.1 secs

     per-process dynamical memory:    46.9 Mb

     Self-consistent Calculation

     iteration #  1     ecut=    30.00 Ry     beta=0.20
     Davidson diagonalization with overlap
     c_bands:  1 eigenvalues not converged
     ethr =  1.00E-10,  avg # of iterations = 14.4
 --- enter write_ns ---
 LDA+U parameters:
U( 1)     =  2.00000000
alpha( 1) =  0.10000000
U( 2)     =  2.00000000
alpha( 2) =  0.00000000
U( 3)     =  0.00000000
alpha( 3) =  0.00000000
U( 4)     =  0.00000000
alpha( 4) =  0.00000000
atom    1   Tr[ns(na)] =   8.06685
    eigenvalues: 
  0.558  0.558  0.972  0.972  0.973
    eigenvectors:
  0.000  0.000  0.000  0.000  1.000
  0.328  0.326  0.005  0.341  0.000
  0.326  0.328  0.341  0.005  0.000
  0.287  0.059  0.512  0.142  0.000
  0.059  0.287  0.142  0.512  0.000
    occupations:
  0.973  0.000  0.000  0.000  0.000
  0.000  0.701  0.000 -0.070  0.184
  0.000  0.000  0.701  0.184  0.070
  0.000 -0.070  0.184  0.829  0.000
  0.000  0.184  0.070  0.000  0.829
atom    2   Tr[ns(na)] =   8.12957
    eigenvalues: 
  0.566  0.566  0.977  0.977  0.979
    eigenvectors:
  0.000  0.000  0.000  0.000  1.000
  0.637  0.017  0.221  0.124  0.000
  0.017  0.637  0.124  0.221  0.000
  0.014  0.331  0.469  0.185  0.000
  0.331  0.014  0.185  0.469  0.000
    occupations:
  0.979  0.000  0.000  0.000  0.000
  0.000  0.708  0.000  0.070  0.183
  0.000  0.000  0.708  0.183 -0.070
  0.000  0.070  0.183  0.835  0.000
  0.000  0.183 -0.070  0.000  0.835
atom    3   Tr[ns(na)] =   3.79818
    eigenvalues: 
  0.356  0.356  0.383  0.402  0.402
    eigenvectors:
  0.000  0.000  1.000  0.000  0.000
  0.780  0.139  0.000  0.012  0.069
  0.139  0.780  0.000  0.069  0.012
  0.013  0.068  0.000  0.778  0.141
  0.068  0.013  0.000  0.141  0.778
    occupations:
  0.383  0.000  0.000  0.000  0.000
  0.000  0.360  0.000  0.000  0.013
  0.000  0.000  0.360  0.013  0.000
  0.000  0.000  0.013  0.399  0.000
  0.000  0.013  0.000  0.000  0.399
atom    4   Tr[ns(na)] =   3.79818
    eigenvalues: 
  0.356  0.356  0.383  0.402  0.402
    eigenvectors:
  0.000  0.000  1.000  0.000  0.000
  0.780  0.140  0.000  0.012  0.069
  0.140  0.780  0.000  0.069  0.012
  0.013  0.068  0.000  0.778  0.141
  0.068  0.013  0.000  0.141  0.778
    occupations:
  0.383  0.000  0.000  0.000  0.000
  0.000  0.360  0.000  0.000  0.013
  0.000  0.000  0.360  0.013  0.000
  0.000  0.000  0.013  0.399  0.000
  0.000  0.013  0.000  0.000  0.399
atom    5   Tr[ns(na)] =   5.41653
    eigenvalues: 
  0.838  0.927  0.943
    eigenvectors:
  0.340  0.000  0.660
  0.499  0.245  0.256
  0.161  0.755  0.084
    occupations:
  0.907  0.044  0.025
  0.044  0.887 -0.023
  0.025 -0.023  0.914
atom    6   Tr[ns(na)] =   5.41653
    eigenvalues: 
  0.838  0.927  0.943
    eigenvectors:
  0.340  0.000  0.660
  0.000  1.000  0.000
  0.660  0.000  0.340
    occupations:
  0.907  0.000 -0.050
  0.000  0.927  0.000
 -0.050  0.000  0.874
atom    7   Tr[ns(na)] =   5.41653
    eigenvalues: 
  0.838  0.927  0.943
    eigenvectors:
  0.340  0.000  0.660
  0.491  0.255  0.254
  0.169  0.745  0.086
    occupations:
  0.907 -0.043  0.025
 -0.043  0.887  0.023
  0.025  0.023  0.914
atom    8   Tr[ns(na)] =   5.41653
    eigenvalues: 
  0.838  0.927  0.943
    eigenvectors:
  0.340  0.000  0.660
  0.000  1.000  0.000
  0.660  0.000  0.340
    occupations:
  0.907  0.000 -0.050
  0.000  0.927  0.000
 -0.050  0.000  0.874
atom    9   Tr[ns(na)] =   5.41653
    eigenvalues: 
  0.838  0.927  0.943
    eigenvectors:
  0.340  0.000  0.660
  0.499  0.245  0.256
  0.161  0.755  0.084
    occupations:
  0.907  0.044  0.025
  0.044  0.887 -0.023
  0.025 -0.023  0.914
atom   10   Tr[ns(na)] =   5.41653
    eigenvalues: 
  0.838  0.927  0.943
    eigenvectors:
  0.340  0.000  0.660
  0.491  0.255  0.254
  0.169  0.745  0.086
    occupations:
  0.907 -0.043  0.025
 -0.043  0.887  0.023
  0.025  0.023  0.914
N of occupied +U levels =  56.2919606
 --- exit write_ns ---
 --- in v_hubbard ---
Hubbard energy    0.2456
 -------

     total cpu time spent up to now is       43.9 secs

     total energy              =    -538.09423082 Ry
     Harris-Foulkes estimate   =    -538.09598614 Ry
     estimated scf accuracy    <       0.01178458 Ry

     iteration #  2     ecut=    30.00 Ry     beta=0.20
     Davidson diagonalization with overlap
     ethr =  1.55E-05,  avg # of iterations =  2.0
 --- enter write_ns ---
 LDA+U parameters:
U( 1)     =  2.00000000
alpha( 1) =  0.10000000
U( 2)     =  2.00000000
alpha( 2) =  0.00000000
U( 3)     =  0.00000000
alpha( 3) =  0.00000000
U( 4)     =  0.00000000
alpha( 4) =  0.00000000
atom    1   Tr[ns(na)] =   8.09010
    eigenvalues: 
  0.553  0.553  0.979  0.979  0.980
    eigenvectors:
  0.000  0.000  0.000  0.000  1.000
  0.333  0.322  0.004  0.341  0.000
  0.322  0.333  0.341  0.004  0.000
  0.288  0.056  0.515  0.140  0.000
  0.056  0.288  0.140  0.515  0.000
    occupations:
  0.980  0.000  0.000  0.000  0.000
  0.000  0.700  0.000 -0.075  0.188
  0.000  0.000  0.700  0.188  0.075
  0.000 -0.075  0.188  0.832  0.000
  0.000  0.188  0.075  0.000  0.832
atom    2   Tr[ns(na)] =   7.97515
    eigenvalues: 
  0.537  0.537  0.971  0.971  0.972
    eigenvectors:
  0.000  0.000  0.000  0.000  1.000
  0.635  0.020  0.218  0.127  0.000
  0.020  0.635  0.127  0.218  0.000
  0.011  0.333  0.470  0.186  0.000
  0.333  0.011  0.186  0.470  0.000
    occupations:
  0.972  0.000  0.000  0.000  0.000
  0.000  0.687  0.000  0.072  0.193
  0.000  0.000  0.687  0.193 -0.072
  0.000  0.072  0.193  0.822  0.000
  0.000  0.193 -0.072  0.000  0.822
atom    3   Tr[ns(na)] =   3.79621
    eigenvalues: 
  0.356  0.356  0.383  0.402  0.402
    eigenvectors:
  0.000  0.000  1.000  0.000  0.000
  0.781  0.140  0.000  0.011  0.068
  0.140  0.781  0.000  0.068  0.011
  0.013  0.067  0.000  0.780  0.141
  0.067  0.013  0.000  0.141  0.780
    occupations:
  0.383  0.000  0.000  0.000  0.000
  0.000  0.359  0.000  0.000  0.013
  0.000  0.000  0.359  0.013  0.000
  0.000  0.000  0.013  0.399  0.000
  0.000  0.013  0.000  0.000  0.399
atom    4   Tr[ns(na)] =   3.79621
    eigenvalues: 
  0.356  0.356  0.383  0.402  0.402
    eigenvectors:
  0.000  0.000  1.000  0.000  0.000
  0.781  0.139  0.000  0.011  0.068
  0.139  0.781  0.000  0.068  0.011
  0.013  0.067  0.000  0.780  0.141
  0.067  0.013  0.000  0.141  0.780
    occupations:
  0.383  0.000  0.000  0.000  0.000
  0.000  0.359  0.000  0.000  0.013
  0.000  0.000  0.359  0.013  0.000
  0.000  0.000  0.013  0.399  0.000
  0.000  0.013  0.000  0.000  0.399
atom    5   Tr[ns(na)] =   5.43715
    eigenvalues: 
  0.844  0.930  0.945
    eigenvectors:
  0.338  0.000  0.662
  0.489  0.258  0.252
  0.172  0.742  0.086
    occupations:
  0.911  0.041  0.024
  0.041  0.892 -0.023
  0.024 -0.023  0.916
atom    6   Tr[ns(na)] =   5.43715
    eigenvalues: 
  0.844  0.930  0.945
    eigenvectors:
  0.338  0.000  0.662
  0.000  1.000  0.000
  0.662  0.000  0.338
    occupations:
  0.911  0.001 -0.048
  0.001  0.930  0.001
 -0.048  0.001  0.878
atom    7   Tr[ns(na)] =   5.43715
    eigenvalues: 
  0.844  0.930  0.945
    eigenvectors:
  0.338  0.000  0.662
  0.503  0.242  0.255
  0.159  0.758  0.083
    occupations:
  0.911 -0.042  0.024
 -0.042  0.890  0.022
  0.024  0.022  0.918
atom    8   Tr[ns(na)] =   5.43715
    eigenvalues: 
  0.844  0.930  0.945
    eigenvectors:
  0.338  0.000  0.662
  0.000  1.000  0.000
  0.662  0.000  0.338
    occupations:
  0.911  0.001 -0.048
  0.001  0.930  0.001
 -0.048  0.001  0.878
atom    9   Tr[ns(na)] =   5.43715
    eigenvalues: 
  0.844  0.930  0.945
    eigenvectors:
  0.338  0.000  0.662
  0.489  0.258  0.252
  0.172  0.742  0.086
    occupations:
  0.911  0.041  0.024
  0.041  0.892 -0.023
  0.024 -0.023  0.916
atom   10   Tr[ns(na)] =   5.43715
    eigenvalues: 
  0.844  0.930  0.945
    eigenvectors:
  0.338  0.000  0.662
  0.503  0.242  0.255
  0.159  0.758  0.083
    occupations:
  0.911 -0.042  0.024
 -0.042  0.890  0.022
  0.024  0.022  0.918
N of occupied +U levels =  56.2805868
 --- exit write_ns ---
 --- in v_hubbard ---
Hubbard energy    0.2441
 -------

     total cpu time spent up to now is       57.6 secs

     total energy              =    -538.09495427 Ry
     Harris-Foulkes estimate   =    -538.09639295 Ry
     estimated scf accuracy    <       0.01594169 Ry

     iteration #  3     ecut=    30.00 Ry     beta=0.20
     Davidson diagonalization with overlap
     ethr =  1.55E-05,  avg # of iterations =  1.0
 --- enter write_ns ---
 LDA+U parameters:
U( 1)     =  2.00000000
alpha( 1) =  0.10000000
U( 2)     =  2.00000000
alpha( 2) =  0.00000000
U( 3)     =  0.00000000
alpha( 3) =  0.00000000
U( 4)     =  0.00000000
alpha( 4) =  0.00000000
atom    1   Tr[ns(na)] =   8.00910
    eigenvalues: 
  0.543  0.543  0.973  0.973  0.973
    eigenvectors:
  0.000  0.000  0.000  0.000  1.000
  0.331  0.325  0.005  0.339  0.000
  0.325  0.331  0.339  0.005  0.000
  0.286  0.059  0.514  0.142  0.000
  0.059  0.286  0.142  0.514  0.000
    occupations:
  0.973  0.000  0.000  0.000  0.000
  0.000  0.691  0.000 -0.073  0.191
  0.000  0.000  0.691  0.191  0.073
  0.000 -0.073  0.191  0.825  0.000
  0.000  0.191  0.073  0.000  0.825
atom    2   Tr[ns(na)] =   8.07793
    eigenvalues: 
  0.551  0.551  0.978  0.978  0.979
    eigenvectors:
  0.000  0.000  0.000  0.000  1.000
  0.639  0.017  0.221  0.123  0.000
  0.017  0.639  0.123  0.221  0.000
  0.015  0.330  0.471  0.185  0.000
  0.330  0.015  0.185  0.471  0.000
    occupations:
  0.979  0.000  0.000  0.000  0.000
  0.000  0.698  0.000  0.073  0.189
  0.000  0.000  0.698  0.189 -0.073
  0.000  0.073  0.189  0.831  0.000
  0.000  0.189 -0.073  0.000  0.831
atom    3   Tr[ns(na)] =   3.79595
    eigenvalues: 
  0.356  0.356  0.382  0.402  0.402
    eigenvectors:
  0.000  0.000  1.000  0.000  0.000
  0.781  0.139  0.000  0.012  0.068
  0.139  0.781  0.000  0.068  0.012
  0.012  0.067  0.000  0.780  0.141
  0.067  0.012  0.000  0.141  0.780
    occupations:
  0.382  0.000  0.000  0.000  0.000
  0.000  0.359  0.000  0.000  0.013
  0.000  0.000  0.359  0.013  0.000
  0.000  0.000  0.013  0.398  0.000
  0.000  0.013  0.000  0.000  0.398
atom    4   Tr[ns(na)] =   3.79595
    eigenvalues: 
  0.356  0.356  0.382  0.402  0.402
    eigenvectors:
  0.000  0.000  1.000  0.000  0.000
  0.782  0.139  0.000  0.012  0.068
  0.139  0.782  0.000  0.068  0.012
  0.012  0.067  0.000  0.780  0.141
  0.067  0.012  0.000  0.141  0.780
    occupations:
  0.382  0.000  0.000  0.000  0.000
  0.000  0.359  0.000  0.000  0.013
  0.000  0.000  0.359  0.013  0.000
  0.000  0.000  0.013  0.398  0.000
  0.000  0.013  0.000  0.000  0.398
atom    5   Tr[ns(na)] =   5.43399
    eigenvalues: 
  0.843  0.930  0.945
    eigenvectors:
  0.339  0.000  0.661
  0.500  0.244  0.255
  0.161  0.756  0.083
    occupations:
  0.910  0.042  0.024
  0.042  0.890 -0.023
  0.024 -0.023  0.917
atom    6   Tr[ns(na)] =   5.43399
    eigenvalues: 
  0.843  0.930  0.945
    eigenvectors:
  0.339  0.000  0.661
  0.000  1.000  0.000
  0.661  0.000  0.338
    occupations:
  0.910  0.000 -0.048
  0.000  0.930  0.000
 -0.048  0.000  0.877
atom    7   Tr[ns(na)] =   5.43399
    eigenvalues: 
  0.843  0.930  0.945
    eigenvectors:
  0.339  0.000  0.661
  0.492  0.256  0.253
  0.170  0.744  0.086
    occupations:
  0.910 -0.042  0.024
 -0.042  0.891  0.023
  0.024  0.023  0.916
atom    8   Tr[ns(na)] =   5.43399
    eigenvalues: 
  0.843  0.930  0.945
    eigenvectors:
  0.339  0.000  0.661
  0.000  1.000  0.000
  0.661  0.000  0.338
    occupations:
  0.910  0.000 -0.048
  0.000  0.930  0.000
 -0.048  0.000  0.877
atom    9   Tr[ns(na)] =   5.43399
    eigenvalues: 
  0.843  0.930  0.945
    eigenvectors:
  0.339  0.000  0.661
  0.500  0.244  0.255
  0.161  0.756  0.083
    occupations:
  0.910  0.042  0.024
  0.042  0.890 -0.023
  0.024 -0.023  0.917
atom   10   Tr[ns(na)] =   5.43399
    eigenvalues: 
  0.843  0.930  0.945
    eigenvectors:
  0.339  0.000  0.661
  0.492  0.256  0.253
  0.170  0.744  0.086
    occupations:
  0.910 -0.042  0.024
 -0.042  0.891  0.023
  0.024  0.023  0.916
N of occupied +U levels =  56.2828909
 --- exit write_ns ---
 --- in v_hubbard ---
Hubbard energy    0.2419
 -------

     total cpu time spent up to now is       69.7 secs

     total energy              =    -538.09593757 Ry
     Harris-Foulkes estimate   =    -538.09603647 Ry
     estimated scf accuracy    <       0.00651502 Ry

     iteration #  4     ecut=    30.00 Ry     beta=0.20
     Davidson diagonalization with overlap
     ethr =  8.57E-06,  avg # of iterations =  1.0
 --- enter write_ns ---
 LDA+U parameters:
U( 1)     =  2.00000000
alpha( 1) =  0.10000000
U( 2)     =  2.00000000
alpha( 2) =  0.00000000
U( 3)     =  0.00000000
alpha( 3) =  0.00000000
U( 4)     =  0.00000000
alpha( 4) =  0.00000000
atom    1   Tr[ns(na)] =   8.05268
    eigenvalues: 
  0.549  0.549  0.976  0.976  0.977
    eigenvectors:
  0.000  0.000  0.000  0.000  1.000
  0.333  0.323  0.004  0.340  0.000
  0.323  0.333  0.340  0.004  0.000
  0.286  0.058  0.515  0.141  0.000
  0.058  0.286  0.141  0.515  0.000
    occupations:
  0.977  0.000  0.000  0.000  0.000
  0.000  0.696  0.000 -0.073  0.189
  0.000  0.000  0.696  0.189  0.073
  0.000 -0.073  0.189  0.829  0.000
  0.000  0.189  0.073  0.000  0.829
atom    2   Tr[ns(na)] =   8.05016
    eigenvalues: 
  0.548  0.548  0.976  0.976  0.977
    eigenvectors:
  0.000  0.000  0.000  0.000  1.000
  0.638  0.018  0.220  0.125  0.000
  0.018  0.638  0.125  0.220  0.000
  0.014  0.331  0.471  0.185  0.000
  0.331  0.014  0.185  0.471  0.000
    occupations:
  0.977  0.000  0.000  0.000  0.000
  0.000  0.695  0.000  0.073  0.190
  0.000  0.000  0.695  0.190 -0.073
  0.000  0.073  0.190  0.829  0.000
  0.000  0.190 -0.073  0.000  0.829
atom    3   Tr[ns(na)] =   3.79609
    eigenvalues: 
  0.356  0.356  0.382  0.402  0.402
    eigenvectors:
  0.000  0.000  1.000  0.000  0.000
  0.781  0.139  0.000  0.012  0.068
  0.139  0.781  0.000  0.068  0.012
  0.013  0.067  0.000  0.780  0.141
  0.067  0.013  0.000  0.141  0.780
    occupations:
  0.382  0.000  0.000  0.000  0.000
  0.000  0.359  0.000  0.000  0.013
  0.000  0.000  0.359  0.013  0.000
  0.000  0.000  0.013  0.398  0.000
  0.000  0.013  0.000  0.000  0.398
atom    4   Tr[ns(na)] =   3.79609
    eigenvalues: 
  0.356  0.356  0.382  0.402  0.402
    eigenvectors:
  0.000  0.000  1.000  0.000  0.000
  0.782  0.139  0.000  0.012  0.068
  0.139  0.782  0.000  0.068  0.012
  0.013  0.067  0.000  0.780  0.141
  0.067  0.013  0.000  0.141  0.780
    occupations:
  0.382  0.000  0.000  0.000  0.000
  0.000  0.359  0.000  0.000  0.013
  0.000  0.000  0.359  0.013  0.000
  0.000  0.000  0.013  0.398  0.000
  0.000  0.013  0.000  0.000  0.398
atom    5   Tr[ns(na)] =   5.43149
    eigenvalues: 
  0.842  0.929  0.945
    eigenvectors:
  0.339  0.000  0.661
  0.496  0.250  0.254
  0.165  0.750  0.084
    occupations:
  0.910  0.042  0.024
  0.042  0.890 -0.023
  0.024 -0.023  0.916
atom    6   Tr[ns(na)] =   5.43149
    eigenvalues: 
  0.842  0.929  0.945
    eigenvectors:
  0.339  0.000  0.661
  0.000  1.000  0.000
  0.661  0.000  0.339
    occupations:
  0.910  0.000 -0.049
  0.000  0.929  0.000
 -0.049  0.000  0.877
atom    7   Tr[ns(na)] =   5.43149
    eigenvalues: 
  0.842  0.929  0.945
    eigenvectors:
  0.339  0.000  0.661
  0.496  0.250  0.254
  0.165  0.750  0.085
    occupations:
  0.910 -0.042  0.024
 -0.042  0.890  0.023
  0.024  0.023  0.916
atom    8   Tr[ns(na)] =   5.43149
    eigenvalues: 
  0.842  0.929  0.945
    eigenvectors:
  0.339  0.000  0.661
  0.000  1.000  0.000
  0.661  0.000  0.339
    occupations:
  0.910  0.000 -0.049
  0.000  0.929  0.000
 -0.049  0.000  0.877
atom    9   Tr[ns(na)] =   5.43149
    eigenvalues: 
  0.842  0.929  0.945
    eigenvectors:
  0.339  0.000  0.661
  0.496  0.250  0.254
  0.165  0.750  0.084
    occupations:
  0.910  0.042  0.024
  0.042  0.890 -0.023
  0.024 -0.023  0.916
atom   10   Tr[ns(na)] =   5.43149
    eigenvalues: 
  0.842  0.929  0.945
    eigenvectors:
  0.339  0.000  0.661
  0.496  0.250  0.254
  0.165  0.750  0.085
    occupations:
  0.910 -0.042  0.024
 -0.042  0.890  0.023
  0.024  0.023  0.916
N of occupied +U levels =  56.2839404
 --- exit write_ns ---
 --- in v_hubbard ---
Hubbard energy    0.2232
 -------

     total cpu time spent up to now is       81.3 secs

     total energy              =    -538.09661214 Ry
     Harris-Foulkes estimate   =    -538.09612272 Ry
     estimated scf accuracy    <       0.00337523 Ry

     iteration #  5     ecut=    30.00 Ry     beta=0.20
     Davidson diagonalization with overlap
     ethr =  4.44E-06,  avg # of iterations =  1.0
 --- enter write_ns ---
 LDA+U parameters:
U( 1)     =  2.00000000
alpha( 1) =  0.10000000
U( 2)     =  2.00000000
alpha( 2) =  0.00000000
U( 3)     =  0.00000000
alpha( 3) =  0.00000000
U( 4)     =  0.00000000
alpha( 4) =  0.00000000
atom    1   Tr[ns(na)] =   8.04527
    eigenvalues: 
  0.545  0.545  0.978  0.978  0.978
    eigenvectors:
  0.000  0.000  0.000  0.000  1.000
  0.336  0.322  0.004  0.338  0.000
  0.322  0.336  0.338  0.004  0.000
  0.284  0.059  0.517  0.141  0.000
  0.059  0.284  0.141  0.517  0.000
    occupations:
  0.978  0.000  0.000  0.000  0.000
  0.000  0.693  0.000 -0.074  0.192
  0.000  0.000  0.693  0.192  0.074
  0.000 -0.074  0.192  0.830  0.000
  0.000  0.192  0.074  0.000  0.830
atom    2   Tr[ns(na)] =   8.05429
    eigenvalues: 
  0.545  0.545  0.979  0.979  0.979
    eigenvectors:
  0.000  0.000  0.000  0.000  1.000
  0.639  0.019  0.218  0.124  0.000
  0.019  0.639  0.124  0.218  0.000
  0.013  0.329  0.473  0.185  0.000
  0.329  0.013  0.185  0.473  0.000
    occupations:
  0.979  0.000  0.000  0.000  0.000
  0.000  0.693  0.000  0.074  0.192
  0.000  0.000  0.693  0.192 -0.074
  0.000  0.074  0.192  0.831  0.000
  0.000  0.192 -0.074  0.000  0.831
atom    3   Tr[ns(na)] =   3.79720
    eigenvalues: 
  0.356  0.356  0.382  0.402  0.402
    eigenvectors:
  0.000  0.000  1.000  0.000  0.000
  0.783  0.139  0.000  0.011  0.067
  0.139  0.783  0.000  0.067  0.011
  0.012  0.066  0.000  0.781  0.141
  0.066  0.012  0.000  0.141  0.781
    occupations:
  0.382  0.000  0.000  0.000  0.000
  0.000  0.360  0.000  0.000  0.012
  0.000  0.000  0.360  0.012  0.000
  0.000  0.000  0.012  0.399  0.000
  0.000  0.012  0.000  0.000  0.399
atom    4   Tr[ns(na)] =   3.79720
    eigenvalues: 
  0.356  0.356  0.382  0.402  0.402
    eigenvectors:
  0.000  0.000  1.000  0.000  0.000
  0.783  0.138  0.000  0.011  0.067
  0.138  0.783  0.000  0.067  0.011
  0.012  0.066  0.000  0.781  0.140
  0.066  0.012  0.000  0.140  0.781
    occupations:
  0.382  0.000  0.000  0.000  0.000
  0.000  0.360  0.000  0.000  0.012
  0.000  0.000  0.360  0.012  0.000
  0.000  0.000  0.012  0.399  0.000
  0.000  0.012  0.000  0.000  0.399
atom    5   Tr[ns(na)] =   5.43128
    eigenvalues: 
  0.842  0.929  0.945
    eigenvectors:
  0.338  0.000  0.662
  0.497  0.249  0.254
  0.165  0.751  0.084
    occupations:
  0.910  0.042  0.024
  0.042  0.890 -0.023
  0.024 -0.023  0.916
atom    6   Tr[ns(na)] =   5.43128
    eigenvalues: 
  0.842  0.929  0.945
    eigenvectors:
  0.338  0.000  0.662
  0.000  1.000  0.000
  0.662  0.000  0.338
    occupations:
  0.910  0.000 -0.049
  0.000  0.929  0.000
 -0.049  0.000  0.876
atom    7   Tr[ns(na)] =   5.43128
    eigenvalues: 
  0.842  0.929  0.945
    eigenvectors:
  0.338  0.000  0.662
  0.495  0.251  0.253
  0.166  0.749  0.085
    occupations:
  0.910 -0.042  0.024
 -0.042  0.890  0.023
  0.024  0.023  0.916
atom    8   Tr[ns(na)] =   5.43128
    eigenvalues: 
  0.842  0.929  0.945
    eigenvectors:
  0.338  0.000  0.662
  0.000  1.000  0.000
  0.662  0.000  0.338
    occupations:
  0.910  0.000 -0.049
  0.000  0.929  0.000
 -0.049  0.000  0.876
atom    9   Tr[ns(na)] =   5.43128
    eigenvalues: 
  0.842  0.929  0.945
    eigenvectors:
  0.338  0.000  0.662
  0.497  0.249  0.254
  0.165  0.751  0.084
    occupations:
  0.910  0.042  0.024
  0.042  0.890 -0.023
  0.024 -0.023  0.916
atom   10   Tr[ns(na)] =   5.43128
    eigenvalues: 
  0.842  0.929  0.945
    eigenvectors:
  0.338  0.000  0.662
  0.495  0.251  0.253
  0.166  0.749  0.085
    occupations:
  0.910 -0.042  0.024
 -0.042  0.890  0.023
  0.024  0.023  0.916
N of occupied +U levels =  56.2816054
 --- exit write_ns ---
 --- in v_hubbard ---
Hubbard energy    0.2235
 -------

     total cpu time spent up to now is       94.0 secs

     total energy              =    -538.09680694 Ry
     Harris-Foulkes estimate   =    -538.09674447 Ry
     estimated scf accuracy    <       0.00004903 Ry

     iteration #  6     ecut=    30.00 Ry     beta=0.20
     Davidson diagonalization with overlap
     ethr =  6.45E-08,  avg # of iterations =  2.9
 --- enter write_ns ---
 LDA+U parameters:
U( 1)     =  2.00000000
alpha( 1) =  0.10000000
U( 2)     =  2.00000000
alpha( 2) =  0.00000000
U( 3)     =  0.00000000
alpha( 3) =  0.00000000
U( 4)     =  0.00000000
alpha( 4) =  0.00000000
atom    1   Tr[ns(na)] =   8.03995
    eigenvalues: 
  0.543  0.543  0.977  0.977  0.978
    eigenvectors:
  0.000  0.000  0.000  0.000  1.000
  0.335  0.323  0.004  0.338  0.000
  0.323  0.335  0.338  0.004  0.000
  0.284  0.058  0.516  0.141  0.000
  0.058  0.284  0.141  0.516  0.000
    occupations:
  0.978  0.000  0.000  0.000  0.000
  0.000  0.692  0.000 -0.074  0.192
  0.000  0.000  0.692  0.192  0.074
  0.000 -0.074  0.192  0.829  0.000
  0.000  0.192  0.074  0.000  0.829
atom    2   Tr[ns(na)] =   8.05171
    eigenvalues: 
  0.544  0.544  0.979  0.979  0.980
    eigenvectors:
  0.000  0.000  0.000  0.000  1.000
  0.639  0.019  0.219  0.124  0.000
  0.019  0.639  0.124  0.219  0.000
  0.013  0.329  0.473  0.185  0.000
  0.329  0.013  0.185  0.473  0.000
    occupations:
  0.980  0.000  0.000  0.000  0.000
  0.000  0.693  0.000  0.074  0.192
  0.000  0.000  0.693  0.192 -0.074
  0.000  0.074  0.192  0.830  0.000
  0.000  0.192 -0.074  0.000  0.830
atom    3   Tr[ns(na)] =   3.79703
    eigenvalues: 
  0.356  0.356  0.382  0.402  0.402
    eigenvectors:
  0.000  0.000  1.000  0.000  0.000
  0.783  0.138  0.000  0.011  0.067
  0.138  0.783  0.000  0.067  0.011
  0.012  0.066  0.000  0.781  0.141
  0.066  0.012  0.000  0.141  0.781
    occupations:
  0.382  0.000  0.000  0.000  0.000
  0.000  0.359  0.000  0.000  0.012
  0.000  0.000  0.359  0.012  0.000
  0.000  0.000  0.012  0.399  0.000
  0.000  0.012  0.000  0.000  0.399
atom    4   Tr[ns(na)] =   3.79703
    eigenvalues: 
  0.356  0.356  0.382  0.402  0.402
    eigenvectors:
  0.000  0.000  1.000  0.000  0.000
  0.783  0.139  0.000  0.012  0.067
  0.139  0.783  0.000  0.067  0.012
  0.012  0.066  0.000  0.781  0.141
  0.066  0.012  0.000  0.141  0.781
    occupations:
  0.382  0.000  0.000  0.000  0.000
  0.000  0.359  0.000  0.000  0.012
  0.000  0.000  0.359  0.012  0.000
  0.000  0.000  0.012  0.399  0.000
  0.000  0.012  0.000  0.000  0.399
atom    5   Tr[ns(na)] =   5.43250
    eigenvalues: 
  0.842  0.930  0.945
    eigenvectors:
  0.338  0.000  0.662
  0.497  0.249  0.254
  0.164  0.751  0.084
    occupations:
  0.910  0.042  0.024
  0.042  0.890 -0.023
  0.024 -0.023  0.916
atom    6   Tr[ns(na)] =   5.43250
    eigenvalues: 
  0.842  0.930  0.945
    eigenvectors:
  0.338  0.000  0.662
  0.000  1.000  0.000
  0.662  0.000  0.338
    occupations:
  0.910  0.000 -0.049
  0.000  0.930  0.000
 -0.049  0.000  0.877
atom    7   Tr[ns(na)] =   5.43250
    eigenvalues: 
  0.842  0.930  0.945
    eigenvectors:
  0.338  0.000  0.662
  0.495  0.251  0.253
  0.166  0.749  0.085
    occupations:
  0.910 -0.042  0.024
 -0.042  0.890  0.023
  0.024  0.023  0.916
atom    8   Tr[ns(na)] =   5.43250
    eigenvalues: 
  0.842  0.930  0.945
    eigenvectors:
  0.338  0.000  0.662
  0.000  1.000  0.000
  0.662  0.000  0.338
    occupations:
  0.910  0.000 -0.049
  0.000  0.930  0.000
 -0.049  0.000  0.877
atom    9   Tr[ns(na)] =   5.43250
    eigenvalues: 
  0.842  0.930  0.945
    eigenvectors:
  0.338  0.000  0.662
  0.497  0.249  0.254
  0.164  0.751  0.084
    occupations:
  0.910  0.042  0.024
  0.042  0.890 -0.023
  0.024 -0.023  0.916
atom   10   Tr[ns(na)] =   5.43250
    eigenvalues: 
  0.842  0.930  0.945
    eigenvectors:
  0.338  0.000  0.662
  0.495  0.251  0.253
  0.166  0.749  0.085
    occupations:
  0.910 -0.042  0.024
 -0.042  0.890  0.023
  0.024  0.023  0.916
N of occupied +U levels =  56.2807168
 --- exit write_ns ---
 --- in v_hubbard ---
Hubbard energy    0.2233
 -------

     total cpu time spent up to now is      107.9 secs

     total energy              =    -538.09684670 Ry
     Harris-Foulkes estimate   =    -538.09681673 Ry
     estimated scf accuracy    <       0.00001198 Ry

     iteration #  7     ecut=    30.00 Ry     beta=0.20
     Davidson diagonalization with overlap
     ethr =  1.58E-08,  avg # of iterations =  2.0
 --- enter write_ns ---
 LDA+U parameters:
U( 1)     =  2.00000000
alpha( 1) =  0.10000000
U( 2)     =  2.00000000
alpha( 2) =  0.00000000
U( 3)     =  0.00000000
alpha( 3) =  0.00000000
U( 4)     =  0.00000000
alpha( 4) =  0.00000000
atom    1   Tr[ns(na)] =   8.04075
    eigenvalues: 
  0.543  0.543  0.978  0.978  0.979
    eigenvectors:
  0.000  0.000  0.000  0.000  1.000
  0.334  0.323  0.004  0.339  0.000
  0.323  0.334  0.339  0.004  0.000
  0.285  0.058  0.516  0.141  0.000
  0.058  0.285  0.141  0.516  0.000
    occupations:
  0.979  0.000  0.000  0.000  0.000
  0.000  0.692  0.000 -0.074  0.192
  0.000  0.000  0.692  0.192  0.074
  0.000 -0.074  0.192  0.829  0.000
  0.000  0.192  0.074  0.000  0.829
atom    2   Tr[ns(na)] =   8.05050
    eigenvalues: 
  0.544  0.544  0.979  0.979  0.980
    eigenvectors:
  0.000  0.000  0.000  0.000  1.000
  0.638  0.019  0.219  0.124  0.000
  0.019  0.638  0.124  0.219  0.000
  0.013  0.330  0.472  0.185  0.000
  0.330  0.013  0.185  0.472  0.000
    occupations:
  0.980  0.000  0.000  0.000  0.000
  0.000  0.693  0.000  0.074  0.193
  0.000  0.000  0.693  0.193 -0.074
  0.000  0.074  0.193  0.830  0.000
  0.000  0.193 -0.074  0.000  0.830
atom    3   Tr[ns(na)] =   3.79656
    eigenvalues: 
  0.356  0.356  0.382  0.402  0.402
    eigenvectors:
  0.000  0.000  1.000  0.000  0.000
  0.783  0.139  0.000  0.012  0.067
  0.139  0.783  0.000  0.067  0.012
  0.012  0.066  0.000  0.781  0.141
  0.066  0.012  0.000  0.141  0.781
    occupations:
  0.382  0.000  0.000  0.000  0.000
  0.000  0.359  0.000  0.000  0.013
  0.000  0.000  0.359  0.013  0.000
  0.000  0.000  0.013  0.399  0.000
  0.000  0.013  0.000  0.000  0.399
atom    4   Tr[ns(na)] =   3.79656
    eigenvalues: 
  0.356  0.356  0.382  0.402  0.402
    eigenvectors:
  0.000  0.000  1.000  0.000  0.000
  0.782  0.139  0.000  0.012  0.067
  0.139  0.782  0.000  0.067  0.012
  0.012  0.066  0.000  0.781  0.141
  0.066  0.012  0.000  0.141  0.781
    occupations:
  0.382  0.000  0.000  0.000  0.000
  0.000  0.359  0.000  0.000  0.013
  0.000  0.000  0.359  0.013  0.000
  0.000  0.000  0.013  0.399  0.000
  0.000  0.013  0.000  0.000  0.399
atom    5   Tr[ns(na)] =   5.43266
    eigenvalues: 
  0.842  0.930  0.945
    eigenvectors:
  0.339  0.000  0.661
  0.497  0.249  0.254
  0.165  0.751  0.084
    occupations:
  0.910  0.042  0.024
  0.042  0.890 -0.023
  0.024 -0.023  0.916
atom    6   Tr[ns(na)] =   5.43266
    eigenvalues: 
  0.842  0.930  0.945
    eigenvectors:
  0.339  0.000  0.661
  0.000  1.000  0.000
  0.661  0.000  0.339
    occupations:
  0.910  0.000 -0.049
  0.000  0.930  0.000
 -0.049  0.000  0.877
atom    7   Tr[ns(na)] =   5.43266
    eigenvalues: 
  0.842  0.930  0.945
    eigenvectors:
  0.339  0.000  0.661
  0.495  0.251  0.253
  0.166  0.749  0.085
    occupations:
  0.910 -0.042  0.024
 -0.042  0.890  0.023
  0.024  0.023  0.916
atom    8   Tr[ns(na)] =   5.43266
    eigenvalues: 
  0.842  0.930  0.945
    eigenvectors:
  0.339  0.000  0.661
  0.000  1.000  0.000
  0.661  0.000  0.339
    occupations:
  0.910  0.000 -0.049
  0.000  0.930  0.000
 -0.049  0.000  0.877
atom    9   Tr[ns(na)] =   5.43266
    eigenvalues: 
  0.842  0.930  0.945
    eigenvectors:
  0.339  0.000  0.661
  0.497  0.249  0.254
  0.165  0.751  0.084
    occupations:
  0.910  0.042  0.024
  0.042  0.890 -0.023
  0.024 -0.023  0.916
atom   10   Tr[ns(na)] =   5.43266
    eigenvalues: 
  0.842  0.930  0.945
    eigenvectors:
  0.339  0.000  0.661
  0.495  0.251  0.253
  0.166  0.749  0.085
    occupations:
  0.910 -0.042  0.024
 -0.042  0.890  0.023
  0.024  0.023  0.916
N of occupied +U levels =  56.2803232
 --- exit write_ns ---
 --- in v_hubbard ---
Hubbard energy    0.2234
 -------

     total cpu time spent up to now is      120.2 secs

     total energy              =    -538.09688072 Ry
     Harris-Foulkes estimate   =    -538.09684838 Ry
     estimated scf accuracy    <       0.00000272 Ry

     iteration #  8     ecut=    30.00 Ry     beta=0.20
     Davidson diagonalization with overlap
     ethr =  3.58E-09,  avg # of iterations =  1.4
 --- enter write_ns ---
 LDA+U parameters:
U( 1)     =  2.00000000
alpha( 1) =  0.10000000
U( 2)     =  2.00000000
alpha( 2) =  0.00000000
U( 3)     =  0.00000000
alpha( 3) =  0.00000000
U( 4)     =  0.00000000
alpha( 4) =  0.00000000
atom    1   Tr[ns(na)] =   8.04105
    eigenvalues: 
  0.543  0.543  0.978  0.978  0.979
    eigenvectors:
  0.000  0.000  0.000  0.000  1.000
  0.334  0.323  0.004  0.339  0.000
  0.323  0.334  0.339  0.004  0.000
  0.285  0.058  0.516  0.141  0.000
  0.058  0.285  0.141  0.516  0.000
    occupations:
  0.979  0.000  0.000  0.000  0.000
  0.000  0.692  0.000 -0.074  0.192
  0.000  0.000  0.692  0.192  0.074
  0.000 -0.074  0.192  0.829  0.000
  0.000  0.192  0.074  0.000  0.829
atom    2   Tr[ns(na)] =   8.05158
    eigenvalues: 
  0.544  0.544  0.979  0.979  0.980
    eigenvectors:
  0.000  0.000  0.000  0.000  1.000
  0.638  0.019  0.219  0.124  0.000
  0.019  0.638  0.124  0.219  0.000
  0.013  0.330  0.472  0.185  0.000
  0.330  0.013  0.185  0.472  0.000
    occupations:
  0.980  0.000  0.000  0.000  0.000
  0.000  0.693  0.000  0.074  0.193
  0.000  0.000  0.693  0.193 -0.074
  0.000  0.074  0.193  0.830  0.000
  0.000  0.193 -0.074  0.000  0.830
atom    3   Tr[ns(na)] =   3.79661
    eigenvalues: 
  0.356  0.356  0.382  0.402  0.402
    eigenvectors:
  0.000  0.000  1.000  0.000  0.000
  0.782  0.139  0.000  0.012  0.067
  0.139  0.782  0.000  0.067  0.012
  0.012  0.066  0.000  0.780  0.141
  0.066  0.012  0.000  0.141  0.780
    occupations:
  0.382  0.000  0.000  0.000  0.000
  0.000  0.359  0.000  0.000  0.012
  0.000  0.000  0.359  0.012  0.000
  0.000  0.000  0.012  0.399  0.000
  0.000  0.012  0.000  0.000  0.399
atom    4   Tr[ns(na)] =   3.79661
    eigenvalues: 
  0.356  0.356  0.382  0.402  0.402
    eigenvectors:
  0.000  0.000  1.000  0.000  0.000
  0.782  0.139  0.000  0.012  0.067
  0.139  0.782  0.000  0.067  0.012
  0.012  0.066  0.000  0.781  0.141
  0.066  0.012  0.000  0.141  0.781
    occupations:
  0.382  0.000  0.000  0.000  0.000
  0.000  0.359  0.000  0.000  0.012
  0.000  0.000  0.359  0.012  0.000
  0.000  0.000  0.012  0.399  0.000
  0.000  0.012  0.000  0.000  0.399
atom    5   Tr[ns(na)] =   5.43244
    eigenvalues: 
  0.842  0.930  0.945
    eigenvectors:
  0.339  0.000  0.661
  0.497  0.249  0.254
  0.164  0.751  0.084
    occupations:
  0.910  0.042  0.024
  0.042  0.890 -0.023
  0.024 -0.023  0.916
atom    6   Tr[ns(na)] =   5.43244
    eigenvalues: 
  0.842  0.930  0.945
    eigenvectors:
  0.339  0.000  0.661
  0.000  1.000  0.000
  0.661  0.000  0.339
    occupations:
  0.910  0.000 -0.049
  0.000  0.930  0.000
 -0.049  0.000  0.877
atom    7   Tr[ns(na)] =   5.43244
    eigenvalues: 
  0.842  0.930  0.945
    eigenvectors:
  0.339  0.000  0.661
  0.495  0.251  0.253
  0.166  0.749  0.085
    occupations:
  0.910 -0.042  0.024
 -0.042  0.890  0.023
  0.024  0.023  0.916
atom    8   Tr[ns(na)] =   5.43244
    eigenvalues: 
  0.842  0.930  0.945
    eigenvectors:
  0.339  0.000  0.661
  0.000  1.000  0.000
  0.661  0.000  0.339
    occupations:
  0.910  0.000 -0.049
  0.000  0.930  0.000
 -0.049  0.000  0.877
atom    9   Tr[ns(na)] =   5.43244
    eigenvalues: 
  0.842  0.930  0.945
    eigenvectors:
  0.339  0.000  0.661
  0.497  0.249  0.254
  0.164  0.751  0.084
    occupations:
  0.910  0.042  0.024
  0.042  0.890 -0.023
  0.024 -0.023  0.916
atom   10   Tr[ns(na)] =   5.43244
    eigenvalues: 
  0.842  0.930  0.945
    eigenvectors:
  0.339  0.000  0.661
  0.495  0.251  0.253
  0.166  0.749  0.085
    occupations:
  0.910 -0.042  0.024
 -0.042  0.890  0.023
  0.024  0.023  0.916
N of occupied +U levels =  56.2804712
 --- exit write_ns ---
 --- in v_hubbard ---
Hubbard energy    0.2235
 -------

     total cpu time spent up to now is      133.5 secs

     total energy              =    -538.09690042 Ry
     Harris-Foulkes estimate   =    -538.09688095 Ry
     estimated scf accuracy    <       0.00000041 Ry

     iteration #  9     ecut=    30.00 Ry     beta=0.20
     Davidson diagonalization with overlap
     ethr =  5.44E-10,  avg # of iterations =  2.6
 --- enter write_ns ---
 LDA+U parameters:
U( 1)     =  2.00000000
alpha( 1) =  0.10000000
U( 2)     =  2.00000000
alpha( 2) =  0.00000000
U( 3)     =  0.00000000
alpha( 3) =  0.00000000
U( 4)     =  0.00000000
alpha( 4) =  0.00000000
atom    1   Tr[ns(na)] =   8.04079
    eigenvalues: 
  0.543  0.543  0.978  0.978  0.978
    eigenvectors:
  0.000  0.000  0.000  0.000  1.000
  0.334  0.323  0.004  0.339  0.000
  0.323  0.334  0.339  0.004  0.000
  0.285  0.058  0.516  0.141  0.000
  0.058  0.285  0.141  0.516  0.000
    occupations:
  0.978  0.000  0.000  0.000  0.000
  0.000  0.692  0.000 -0.074  0.192
  0.000  0.000  0.692  0.192  0.074
  0.000 -0.074  0.192  0.829  0.000
  0.000  0.192  0.074  0.000  0.829
atom    2   Tr[ns(na)] =   8.05169
    eigenvalues: 
  0.544  0.544  0.979  0.979  0.980
    eigenvectors:
  0.000  0.000  0.000  0.000  1.000
  0.638  0.019  0.219  0.124  0.000
  0.019  0.638  0.124  0.219  0.000
  0.013  0.330  0.472  0.185  0.000
  0.330  0.013  0.185  0.472  0.000
    occupations:
  0.980  0.000  0.000  0.000  0.000
  0.000  0.693  0.000  0.074  0.193
  0.000  0.000  0.693  0.193 -0.074
  0.000  0.074  0.193  0.830  0.000
  0.000  0.193 -0.074  0.000  0.830
atom    3   Tr[ns(na)] =   3.79673
    eigenvalues: 
  0.356  0.356  0.382  0.402  0.402
    eigenvectors:
  0.000  0.000  1.000  0.000  0.000
  0.782  0.139  0.000  0.012  0.067
  0.139  0.782  0.000  0.067  0.012
  0.012  0.066  0.000  0.780  0.141
  0.066  0.012  0.000  0.141  0.780
    occupations:
  0.382  0.000  0.000  0.000  0.000
  0.000  0.359  0.000  0.000  0.012
  0.000  0.000  0.359  0.012  0.000
  0.000  0.000  0.012  0.399  0.000
  0.000  0.012  0.000  0.000  0.399
atom    4   Tr[ns(na)] =   3.79673
    eigenvalues: 
  0.356  0.356  0.382  0.402  0.402
    eigenvectors:
  0.000  0.000  1.000  0.000  0.000
  0.783  0.138  0.000  0.012  0.067
  0.138  0.783  0.000  0.067  0.012
  0.012  0.066  0.000  0.781  0.141
  0.066  0.012  0.000  0.141  0.781
    occupations:
  0.382  0.000  0.000  0.000  0.000
  0.000  0.359  0.000  0.000  0.012
  0.000  0.000  0.359  0.012  0.000
  0.000  0.000  0.012  0.399  0.000
  0.000  0.012  0.000  0.000  0.399
atom    5   Tr[ns(na)] =   5.43243
    eigenvalues: 
  0.842  0.930  0.945
    eigenvectors:
  0.339  0.000  0.661
  0.497  0.249  0.254
  0.164  0.751  0.084
    occupations:
  0.910  0.042  0.024
  0.042  0.890 -0.023
  0.024 -0.023  0.916
atom    6   Tr[ns(na)] =   5.43243
    eigenvalues: 
  0.842  0.930  0.945
    eigenvectors:
  0.339  0.000  0.661
  0.000  1.000  0.000
  0.661  0.000  0.339
    occupations:
  0.910  0.000 -0.049
  0.000  0.930  0.000
 -0.049  0.000  0.877
atom    7   Tr[ns(na)] =   5.43243
    eigenvalues: 
  0.842  0.930  0.945
    eigenvectors:
  0.339  0.000  0.661
  0.495  0.251  0.253
  0.166  0.749  0.085
    occupations:
  0.910 -0.042  0.024
 -0.042  0.890  0.023
  0.024  0.023  0.916
atom    8   Tr[ns(na)] =   5.43243
    eigenvalues: 
  0.842  0.930  0.945
    eigenvectors:
  0.339  0.000  0.661
  0.000  1.000  0.000
  0.661  0.000  0.339
    occupations:
  0.910  0.000 -0.049
  0.000  0.930  0.000
 -0.049  0.000  0.877
atom    9   Tr[ns(na)] =   5.43243
    eigenvalues: 
  0.842  0.930  0.945
    eigenvectors:
  0.339  0.000  0.661
  0.497  0.249  0.254
  0.164  0.751  0.084
    occupations:
  0.910  0.042  0.024
  0.042  0.890 -0.023
  0.024 -0.023  0.916
atom   10   Tr[ns(na)] =   5.43243
    eigenvalues: 
  0.842  0.930  0.945
    eigenvectors:
  0.339  0.000  0.661
  0.495  0.251  0.253
  0.166  0.749  0.085
    occupations:
  0.910 -0.042  0.024
 -0.042  0.890  0.023
  0.024  0.023  0.916
N of occupied +U levels =  56.2804926
 --- exit write_ns ---
 --- in v_hubbard ---
Hubbard energy    0.2235
 -------

     total cpu time spent up to now is      151.3 secs

     total energy              =    -538.09691289 Ry
     Harris-Foulkes estimate   =    -538.09690048 Ry
     estimated scf accuracy    <       0.00000005 Ry

     iteration # 10     ecut=    30.00 Ry     beta=0.20
     Davidson diagonalization with overlap
     ethr =  6.53E-11,  avg # of iterations =  1.9
 --- enter write_ns ---
 LDA+U parameters:
U( 1)     =  2.00000000
alpha( 1) =  0.10000000
U( 2)     =  2.00000000
alpha( 2) =  0.00000000
U( 3)     =  0.00000000
alpha( 3) =  0.00000000
U( 4)     =  0.00000000
alpha( 4) =  0.00000000
atom    1   Tr[ns(na)] =   8.04092
    eigenvalues: 
  0.543  0.543  0.978  0.978  0.978
    eigenvectors:
  0.000  0.000  0.000  0.000  1.000
  0.335  0.322  0.004  0.339  0.000
  0.322  0.335  0.339  0.004  0.000
  0.284  0.059  0.516  0.141  0.000
  0.059  0.284  0.141  0.516  0.000
    occupations:
  0.978  0.000  0.000  0.000  0.000
  0.000  0.692  0.000 -0.074  0.192
  0.000  0.000  0.692  0.192  0.074
  0.000 -0.074  0.192  0.829  0.000
  0.000  0.192  0.074  0.000  0.829
atom    2   Tr[ns(na)] =   8.05174
    eigenvalues: 
  0.544  0.544  0.979  0.979  0.980
    eigenvectors:
  0.000  0.000  0.000  0.000  1.000
  0.639  0.019  0.219  0.124  0.000
  0.019  0.639  0.124  0.219  0.000
  0.013  0.330  0.472  0.185  0.000
  0.330  0.013  0.185  0.472  0.000
    occupations:
  0.980  0.000  0.000  0.000  0.000
  0.000  0.693  0.000  0.074  0.193
  0.000  0.000  0.693  0.193 -0.074
  0.000  0.074  0.193  0.830  0.000
  0.000  0.193 -0.074  0.000  0.830
atom    3   Tr[ns(na)] =   3.79672
    eigenvalues: 
  0.356  0.356  0.382  0.402  0.402
    eigenvectors:
  0.000  0.000  1.000  0.000  0.000
  0.782  0.139  0.000  0.012  0.067
  0.139  0.782  0.000  0.067  0.012
  0.012  0.066  0.000  0.780  0.141
  0.066  0.012  0.000  0.141  0.780
    occupations:
  0.382  0.000  0.000  0.000  0.000
  0.000  0.359  0.000  0.000  0.012
  0.000  0.000  0.359  0.012  0.000
  0.000  0.000  0.012  0.399  0.000
  0.000  0.012  0.000  0.000  0.399
atom    4   Tr[ns(na)] =   3.79672
    eigenvalues: 
  0.356  0.356  0.382  0.402  0.402
    eigenvectors:
  0.000  0.000  1.000  0.000  0.000
  0.782  0.139  0.000  0.012  0.067
  0.139  0.782  0.000  0.067  0.012
  0.012  0.066  0.000  0.780  0.141
  0.066  0.012  0.000  0.141  0.780
    occupations:
  0.382  0.000  0.000  0.000  0.000
  0.000  0.359  0.000  0.000  0.012
  0.000  0.000  0.359  0.012  0.000
  0.000  0.000  0.012  0.399  0.000
  0.000  0.012  0.000  0.000  0.399
atom    5   Tr[ns(na)] =   5.43240
    eigenvalues: 
  0.842  0.930  0.945
    eigenvectors:
  0.339  0.000  0.661
  0.497  0.249  0.254
  0.164  0.751  0.084
    occupations:
  0.910  0.042  0.024
  0.042  0.890 -0.023
  0.024 -0.023  0.916
atom    6   Tr[ns(na)] =   5.43240
    eigenvalues: 
  0.842  0.930  0.945
    eigenvectors:
  0.339  0.000  0.661
  0.000  1.000  0.000
  0.661  0.000  0.339
    occupations:
  0.910  0.000 -0.049
  0.000  0.930  0.000
 -0.049  0.000  0.877
atom    7   Tr[ns(na)] =   5.43240
    eigenvalues: 
  0.842  0.930  0.945
    eigenvectors:
  0.339  0.000  0.661
  0.495  0.251  0.253
  0.166  0.749  0.085
    occupations:
  0.910 -0.042  0.024
 -0.042  0.890  0.023
  0.024  0.023  0.916
atom    8   Tr[ns(na)] =   5.43240
    eigenvalues: 
  0.842  0.930  0.945
    eigenvectors:
  0.339  0.000  0.661
  0.000  1.000  0.000
  0.661  0.000  0.339
    occupations:
  0.910  0.000 -0.049
  0.000  0.930  0.000
 -0.049  0.000  0.877
atom    9   Tr[ns(na)] =   5.43240
    eigenvalues: 
  0.842  0.930  0.945
    eigenvectors:
  0.339  0.000  0.661
  0.497  0.249  0.254
  0.164  0.751  0.084
    occupations:
  0.910  0.042  0.024
  0.042  0.890 -0.023
  0.024 -0.023  0.916
atom   10   Tr[ns(na)] =   5.43240
    eigenvalues: 
  0.842  0.930  0.945
    eigenvectors:
  0.339  0.000  0.661
  0.495  0.251  0.253
  0.166  0.749  0.085
    occupations:
  0.910 -0.042  0.024
 -0.042  0.890  0.023
  0.024  0.023  0.916
N of occupied +U levels =  56.2804958
 --- exit write_ns ---
 --- in v_hubbard ---
Hubbard energy    0.2235
 -------

     total cpu time spent up to now is      169.8 secs

     total energy              =    -538.09692102 Ry
     Harris-Foulkes estimate   =    -538.09691290 Ry
     estimated scf accuracy    <       0.00000002 Ry

     iteration # 11     ecut=    30.00 Ry     beta=0.20
     Davidson diagonalization with overlap
     ethr =  2.62E-11,  avg # of iterations =  2.1
 --- enter write_ns ---
 LDA+U parameters:
U( 1)     =  2.00000000
alpha( 1) =  0.10000000
U( 2)     =  2.00000000
alpha( 2) =  0.00000000
U( 3)     =  0.00000000
alpha( 3) =  0.00000000
U( 4)     =  0.00000000
alpha( 4) =  0.00000000
atom    1   Tr[ns(na)] =   8.04088
    eigenvalues: 
  0.543  0.543  0.978  0.978  0.978
    eigenvectors:
  0.000  0.000  0.000  0.000  1.000
  0.334  0.323  0.004  0.339  0.000
  0.323  0.334  0.339  0.004  0.000
  0.285  0.058  0.516  0.141  0.000
  0.058  0.285  0.141  0.516  0.000
    occupations:
  0.978  0.000  0.000  0.000  0.000
  0.000  0.692  0.000 -0.074  0.192
  0.000  0.000  0.692  0.192  0.074
  0.000 -0.074  0.192  0.829  0.000
  0.000  0.192  0.074  0.000  0.829
atom    2   Tr[ns(na)] =   8.05168
    eigenvalues: 
  0.544  0.544  0.979  0.979  0.980
    eigenvectors:
  0.000  0.000  0.000  0.000  1.000
  0.638  0.019  0.219  0.124  0.000
  0.019  0.638  0.124  0.219  0.000
  0.013  0.330  0.472  0.185  0.000
  0.330  0.013  0.185  0.472  0.000
    occupations:
  0.980  0.000  0.000  0.000  0.000
  0.000  0.693  0.000  0.074  0.193
  0.000  0.000  0.693  0.193 -0.074
  0.000  0.074  0.193  0.830  0.000
  0.000  0.193 -0.074  0.000  0.830
atom    3   Tr[ns(na)] =   3.79665
    eigenvalues: 
  0.356  0.356  0.382  0.402  0.402
    eigenvectors:
  0.000  0.000  1.000  0.000  0.000
  0.782  0.139  0.000  0.012  0.067
  0.139  0.782  0.000  0.067  0.012
  0.012  0.066  0.000  0.781  0.141
  0.066  0.012  0.000  0.141  0.781
    occupations:
  0.382  0.000  0.000  0.000  0.000
  0.000  0.359  0.000  0.000  0.012
  0.000  0.000  0.359  0.012  0.000
  0.000  0.000  0.012  0.399  0.000
  0.000  0.012  0.000  0.000  0.399
atom    4   Tr[ns(na)] =   3.79665
    eigenvalues: 
  0.356  0.356  0.382  0.402  0.402
    eigenvectors:
  0.000  0.000  1.000  0.000  0.000
  0.782  0.139  0.000  0.012  0.067
  0.139  0.782  0.000  0.067  0.012
  0.012  0.066  0.000  0.781  0.141
  0.066  0.012  0.000  0.141  0.781
    occupations:
  0.382  0.000  0.000  0.000  0.000
  0.000  0.359  0.000  0.000  0.012
  0.000  0.000  0.359  0.012  0.000
  0.000  0.000  0.012  0.399  0.000
  0.000  0.012  0.000  0.000  0.399
atom    5   Tr[ns(na)] =   5.43243
    eigenvalues: 
  0.842  0.930  0.945
    eigenvectors:
  0.339  0.000  0.661
  0.497  0.249  0.254
  0.164  0.751  0.084
    occupations:
  0.910  0.042  0.024
  0.042  0.890 -0.023
  0.024 -0.023  0.916
atom    6   Tr[ns(na)] =   5.43243
    eigenvalues: 
  0.842  0.930  0.945
    eigenvectors:
  0.339  0.000  0.661
  0.000  1.000  0.000
  0.661  0.000  0.339
    occupations:
  0.910  0.000 -0.049
  0.000  0.930  0.000
 -0.049  0.000  0.877
atom    7   Tr[ns(na)] =   5.43243
    eigenvalues: 
  0.842  0.930  0.945
    eigenvectors:
  0.339  0.000  0.661
  0.495  0.251  0.253
  0.166  0.749  0.085
    occupations:
  0.910 -0.042  0.024
 -0.042  0.890  0.023
  0.024  0.023  0.916
atom    8   Tr[ns(na)] =   5.43243
    eigenvalues: 
  0.842  0.930  0.945
    eigenvectors:
  0.339  0.000  0.661
  0.000  1.000  0.000
  0.661  0.000  0.339
    occupations:
  0.910  0.000 -0.049
  0.000  0.930  0.000
 -0.049  0.000  0.877
atom    9   Tr[ns(na)] =   5.43243
    eigenvalues: 
  0.842  0.930  0.945
    eigenvectors:
  0.339  0.000  0.661
  0.497  0.249  0.254
  0.164  0.751  0.084
    occupations:
  0.910  0.042  0.024
  0.042  0.890 -0.023
  0.024 -0.023  0.916
atom   10   Tr[ns(na)] =   5.43243
    eigenvalues: 
  0.842  0.930  0.945
    eigenvectors:
  0.339  0.000  0.661
  0.495  0.251  0.253
  0.166  0.749  0.085
    occupations:
  0.910 -0.042  0.024
 -0.042  0.890  0.023
  0.024  0.023  0.916
N of occupied +U levels =  56.2804388
 --- exit write_ns ---
 --- in v_hubbard ---
Hubbard energy    0.2235
 -------

     total cpu time spent up to now is      190.2 secs

     total energy              =    -538.09692614 Ry
     Harris-Foulkes estimate   =    -538.09692103 Ry
     estimated scf accuracy    <       0.00000001 Ry

     iteration # 12     ecut=    30.00 Ry     beta=0.20
     Davidson diagonalization with overlap
     ethr =  1.49E-11,  avg # of iterations =  1.0
 --- enter write_ns ---
 LDA+U parameters:
U( 1)     =  2.00000000
alpha( 1) =  0.10000000
U( 2)     =  2.00000000
alpha( 2) =  0.00000000
U( 3)     =  0.00000000
alpha( 3) =  0.00000000
U( 4)     =  0.00000000
alpha( 4) =  0.00000000
atom    1   Tr[ns(na)] =   8.04089
    eigenvalues: 
  0.543  0.543  0.978  0.978  0.978
    eigenvectors:
  0.000  0.000  0.000  0.000  1.000
  0.334  0.323  0.004  0.339  0.000
  0.323  0.334  0.339  0.004  0.000
  0.285  0.058  0.516  0.141  0.000
  0.058  0.285  0.141  0.516  0.000
    occupations:
  0.978  0.000  0.000  0.000  0.000
  0.000  0.692  0.000 -0.074  0.192
  0.000  0.000  0.692  0.192  0.074
  0.000 -0.074  0.192  0.829  0.000
  0.000  0.192  0.074  0.000  0.829
atom    2   Tr[ns(na)] =   8.05173
    eigenvalues: 
  0.544  0.544  0.979  0.979  0.980
    eigenvectors:
  0.000  0.000  0.000  0.000  1.000
  0.638  0.019  0.219  0.124  0.000
  0.019  0.638  0.124  0.219  0.000
  0.013  0.330  0.472  0.185  0.000
  0.330  0.013  0.185  0.472  0.000
    occupations:
  0.980  0.000  0.000  0.000  0.000
  0.000  0.693  0.000  0.074  0.193
  0.000  0.000  0.693  0.193 -0.074
  0.000  0.074  0.193  0.830  0.000
  0.000  0.193 -0.074  0.000  0.830
atom    3   Tr[ns(na)] =   3.79665
    eigenvalues: 
  0.356  0.356  0.382  0.402  0.402
    eigenvectors:
  0.000  0.000  1.000  0.000  0.000
  0.783  0.138  0.000  0.012  0.067
  0.138  0.783  0.000  0.067  0.012
  0.012  0.066  0.000  0.781  0.141
  0.066  0.012  0.000  0.141  0.781
    occupations:
  0.382  0.000  0.000  0.000  0.000
  0.000  0.359  0.000  0.000  0.012
  0.000  0.000  0.359  0.012  0.000
  0.000  0.000  0.012  0.399  0.000
  0.000  0.012  0.000  0.000  0.399
atom    4   Tr[ns(na)] =   3.79665
    eigenvalues: 
  0.356  0.356  0.382  0.402  0.402
    eigenvectors:
  0.000  0.000  1.000  0.000  0.000
  0.782  0.139  0.000  0.012  0.067
  0.139  0.782  0.000  0.067  0.012
  0.012  0.066  0.000  0.781  0.141
  0.066  0.012  0.000  0.141  0.781
    occupations:
  0.382  0.000  0.000  0.000  0.000
  0.000  0.359  0.000  0.000  0.012
  0.000  0.000  0.359  0.012  0.000
  0.000  0.000  0.012  0.399  0.000
  0.000  0.012  0.000  0.000  0.399
atom    5   Tr[ns(na)] =   5.43242
    eigenvalues: 
  0.842  0.930  0.945
    eigenvectors:
  0.339  0.000  0.661
  0.497  0.249  0.254
  0.164  0.751  0.084
    occupations:
  0.910  0.042  0.024
  0.042  0.890 -0.023
  0.024 -0.023  0.916
atom    6   Tr[ns(na)] =   5.43242
    eigenvalues: 
  0.842  0.930  0.945
    eigenvectors:
  0.339  0.000  0.661
  0.000  1.000  0.000
  0.661  0.000  0.339
    occupations:
  0.910  0.000 -0.049
  0.000  0.930  0.000
 -0.049  0.000  0.877
atom    7   Tr[ns(na)] =   5.43242
    eigenvalues: 
  0.842  0.930  0.945
    eigenvectors:
  0.339  0.000  0.661
  0.495  0.251  0.253
  0.166  0.749  0.085
    occupations:
  0.910 -0.042  0.024
 -0.042  0.890  0.023
  0.024  0.023  0.916
atom    8   Tr[ns(na)] =   5.43242
    eigenvalues: 
  0.842  0.930  0.945
    eigenvectors:
  0.339  0.000  0.661
  0.000  1.000  0.000
  0.661  0.000  0.339
    occupations:
  0.910  0.000 -0.049
  0.000  0.930  0.000
 -0.049  0.000  0.877
atom    9   Tr[ns(na)] =   5.43242
    eigenvalues: 
  0.842  0.930  0.945
    eigenvectors:
  0.339  0.000  0.661
  0.497  0.249  0.254
  0.164  0.751  0.084
    occupations:
  0.910  0.042  0.024
  0.042  0.890 -0.023
  0.024 -0.023  0.916
atom   10   Tr[ns(na)] =   5.43242
    eigenvalues: 
  0.842  0.930  0.945
    eigenvectors:
  0.339  0.000  0.661
  0.495  0.251  0.253
  0.166  0.749  0.085
    occupations:
  0.910 -0.042  0.024
 -0.042  0.890  0.023
  0.024  0.023  0.916
N of occupied +U levels =  56.2804497
 --- exit write_ns ---
 --- in v_hubbard ---
Hubbard energy    0.2235
 -------

     total cpu time spent up to now is      206.7 secs

     End of self-consistent calculation

          k = 0.0000 0.0000 0.0000 (  2175 PWs)   bands (ev):

   -19.7952 -19.6219  -6.5459  -5.8269  -5.8269  -5.8211  -5.8211  -5.4807
    -3.7874  -3.2581  -3.2150  -3.2150  -3.0225  -3.0225   5.1868   6.8838
     6.8838   7.4458   7.4458   7.4913   7.5170   7.5170   7.7131   9.2966
     9.5213   9.6218   9.6218   9.7071   9.7071  10.1165  10.1165  10.3630
    10.4619  10.4619  10.6767  11.3024  11.3024  11.7660  12.0636  12.0636
    14.7585  14.7585  15.4296  15.4296  16.1991  16.7870

     occupation numbers 
     0.0313   0.0313   0.0313   0.0313   0.0313   0.0313   0.0313   0.0313
     0.0313   0.0313   0.0313   0.0313   0.0313   0.0313   0.0313   0.0313
     0.0313   0.0313   0.0313   0.0313   0.0313   0.0313   0.0313   0.0313
     0.0312   0.0312   0.0312   0.0312   0.0312   0.0312   0.0312   0.0312
     0.0312   0.0312   0.0312   0.0306   0.0306   0.0205   0.0083   0.0083
     0.0000   0.0000   0.0000   0.0000   0.0000   0.0000

          k =-0.2471-0.1427 0.1027 (  2181 PWs)   bands (ev):

   -19.7683 -19.6509  -6.7244  -6.2876  -5.9369  -5.8427  -5.6061  -5.4734
    -3.5935  -3.3899  -2.9293  -2.9014  -2.8473  -2.7578   5.5463   6.8617
     6.9813   6.9987   7.0391   7.4186   7.4474   7.5335   7.6305   8.4435
     8.4927   9.0823   9.6416   9.7558   9.7804  10.0049  10.3501  10.3606
    10.5399  10.5424  10.6704  11.4534  11.5204  11.5591  12.3237  12.3923
    14.3044  14.3135  15.8175  16.0717  16.9738  17.2679

     occupation numbers 
     0.1875   0.1875   0.1875   0.1875   0.1875   0.1875   0.1875   0.1875
     0.1875   0.1875   0.1875   0.1875   0.1875   0.1875   0.1875   0.1875
     0.1875   0.1875   0.1875   0.1875   0.1875   0.1875   0.1875   0.1875
     0.1875   0.1875   0.1875   0.1875   0.1875   0.1875   0.1875   0.1875
     0.1875   0.1875   0.1875   0.1747   0.1679   0.1629   0.0119   0.0073
     0.0000   0.0000   0.0000   0.0000   0.0000   0.0000

          k = 0.4942 0.2853-0.2053 (  2202 PWs)   bands (ev):

   -19.7112 -19.7104  -6.7245  -6.7110  -5.9588  -5.9475  -5.5208  -5.5080
    -3.3790  -3.3779  -2.7869  -2.7864  -2.5050  -2.5030   6.0386   6.0389
     7.1582   7.1606   7.2300   7.2333   7.5082   7.5159   7.7171   7.7207
     7.9315   7.9373   9.4772   9.4875   9.8663   9.8747  10.2736  10.2853
    10.9259  10.9448  11.0512  11.0699  11.2748  11.2917  13.2896  13.3224
    13.3743  13.4071  16.8346  16.8396  17.1320  17.1364

     occupation numbers 
     0.0938   0.0938   0.0938   0.0938   0.0938   0.0938   0.0938   0.0938
     0.0938   0.0938   0.0938   0.0938   0.0938   0.0938   0.0938   0.0938
     0.0938   0.0938   0.0938   0.0938   0.0938   0.0938   0.0938   0.0938
     0.0938   0.0938   0.0938   0.0938   0.0937   0.0937   0.0937   0.0937
     0.0937   0.0937   0.0936   0.0935   0.0921   0.0918   0.0000   0.0000
     0.0000   0.0000   0.0000   0.0000   0.0000   0.0000

          k =-0.2471 0.1427 0.2053 (  2195 PWs)   bands (ev):

   -19.7625 -19.6570  -6.8488  -6.2292  -6.0626  -5.8249  -5.6510  -5.4515
    -3.4115  -3.2596  -3.0984  -2.8895  -2.8151  -2.5567   5.5776   6.7800
     6.7901   6.8821   7.2170   7.4521   7.4849   7.5320   7.5735   8.5422
     8.6053   8.7911   9.2891   9.6456   9.9343  10.0387  10.0447  10.1509
    10.2764  10.9884  11.1245  11.1445  11.4752  11.5514  11.9684  12.7338
    13.6318  14.7749  15.9942  16.1959  17.0371  17.5387

     occupation numbers 
     0.1875   0.1875   0.1875   0.1875   0.1875   0.1875   0.1875   0.1875
     0.1875   0.1875   0.1875   0.1875   0.1875   0.1875   0.1875   0.1875
     0.1875   0.1875   0.1875   0.1875   0.1875   0.1875   0.1875   0.1875
     0.1875   0.1875   0.1875   0.1875   0.1875   0.1875   0.1875   0.1875
     0.1875   0.1873   0.1867   0.1865   0.1727   0.1640   0.0719   0.0003
     0.0000   0.0000   0.0000   0.0000   0.0000   0.0000

          k = 0.4942 0.5706-0.1027 (  2198 PWs)   bands (ev):

   -19.7266 -19.6948  -6.9506  -6.6427  -6.1236  -5.8856  -5.5060  -5.3752
    -3.3019  -3.2499  -2.8730  -2.7045  -2.5245  -2.3818   5.8835   6.2319
     6.5968   6.9728   7.1751   7.3211   7.4381   7.6238   7.6705   7.8536
     8.1597   8.7704   9.0338   9.2938   9.6052   9.8022   9.9140  10.3456
    10.5850  11.0528  11.1592  11.2348  11.3683  11.4444  12.3159  12.7395
    13.4237  14.3536  16.9059  17.1157  17.3104  18.0165

     occupation numbers 
     0.1875   0.1875   0.1875   0.1875   0.1875   0.1875   0.1875   0.1875
     0.1875   0.1875   0.1875   0.1875   0.1875   0.1875   0.1875   0.1875
     0.1875   0.1875   0.1875   0.1875   0.1875   0.1875   0.1875   0.1875
     0.1875   0.1875   0.1875   0.1875   0.1875   0.1875   0.1875   0.1875
     0.1875   0.1871   0.1864   0.1852   0.1805   0.1754   0.0125   0.0003
     0.0000   0.0000   0.0000   0.0000   0.0000   0.0000

          k = 0.2471 0.4280 0.0000 (  2203 PWs)   bands (ev):

   -19.7372 -19.6839  -6.8434  -6.6343  -6.0472  -5.9725  -5.4317  -5.3603
    -3.5158  -3.2901  -2.7973  -2.7059  -2.5660  -2.5559   5.8734   6.2671
     6.8403   7.0789   7.1666   7.2508   7.4122   7.4957   7.5651   7.9304
     8.1654   8.9212   9.1398   9.3969   9.7600   9.7767  10.0563  10.3518
    10.8941  10.9232  11.0000  11.1852  11.2132  11.5395  12.2386  13.3183
    13.3921  14.1492  16.4367  16.9943  17.4217  17.9269

     occupation numbers 
     0.1875   0.1875   0.1875   0.1875   0.1875   0.1875   0.1875   0.1875
     0.1875   0.1875   0.1875   0.1875   0.1875   0.1875   0.1875   0.1875
     0.1875   0.1875   0.1875   0.1875   0.1875   0.1875   0.1875   0.1875
     0.1875   0.1875   0.1875   0.1875   0.1875   0.1875   0.1875   0.1875
     0.1874   0.1874   0.1873   0.1860   0.1856   0.1655   0.0204   0.0000
     0.0000   0.0000   0.0000   0.0000   0.0000   0.0000

          k = 0.4942-0.2853-0.4107 (  2202 PWs)   bands (ev):

   -19.7293 -19.6919  -7.1603  -6.4505  -6.2359  -5.9582  -5.5282  -5.2797
    -3.1904  -3.1176  -3.0411  -2.6467  -2.4776  -2.2189   5.7925   6.1198
     6.2476   6.8737   7.1492   7.2582   7.5703   7.6681   8.1631   8.2489
     8.2586   8.3100   8.6030   9.4161   9.6762   9.8717  10.0334  10.0686
    10.4304  10.9493  11.1134  11.2721  11.4037  11.5731  11.8985  12.4282
    13.3259  14.7882  17.0438  17.2664  17.5208  17.6116

     occupation numbers 
     0.0938   0.0938   0.0938   0.0938   0.0938   0.0938   0.0938   0.0938
     0.0938   0.0938   0.0938   0.0938   0.0938   0.0938   0.0938   0.0938
     0.0938   0.0938   0.0938   0.0938   0.0938   0.0938   0.0938   0.0938
     0.0938   0.0938   0.0938   0.0938   0.0937   0.0937   0.0937   0.0937
     0.0937   0.0937   0.0934   0.0921   0.0892   0.0805   0.0448   0.0028
     0.0000   0.0000   0.0000   0.0000   0.0000   0.0000

          k = 0.0000 0.0000 0.3080 (  2187 PWs)   bands (ev):

   -19.7680 -19.6513  -6.6128  -5.9788  -5.9241  -5.9241  -5.8334  -5.8334
    -3.2011  -3.1129  -3.1129  -2.9647  -2.8927  -2.8927   5.6059   6.9793
     6.9793   7.1260   7.1520   7.3603   7.3603   7.5715   7.5715   8.6567
     8.6567   9.1588   9.4399   9.5965   9.5965   9.7686  10.1249  10.1249
    10.6670  10.6670  10.8182  11.4886  11.4886  11.5623  12.2985  12.2985
    14.2657  14.2657  15.9124  15.9124  16.8802  17.4815

     occupation numbers 
     0.0625   0.0625   0.0625   0.0625   0.0625   0.0625   0.0625   0.0625
     0.0625   0.0625   0.0625   0.0625   0.0625   0.0625   0.0625   0.0625
     0.0625   0.0625   0.0625   0.0625   0.0625   0.0625   0.0625   0.0625
     0.0625   0.0625   0.0625   0.0625   0.0625   0.0625   0.0625   0.0625
     0.0625   0.0625   0.0625   0.0571   0.0571   0.0542   0.0047   0.0047
     0.0000   0.0000   0.0000   0.0000   0.0000   0.0000

          k = 0.7412 0.4280 0.0000 (  2204 PWs)   bands (ev):

   -19.7368 -19.6845  -6.7290  -6.5981  -6.1391  -5.8262  -5.6733  -5.5405
    -3.1719  -3.0872  -3.0410  -2.6728  -2.6531  -2.5808   5.9141   6.4800
     6.8165   7.1063   7.1812   7.2832   7.3852   7.4848   7.6953   7.8812
     8.2171   8.7985   9.1608   9.4703   9.5733   9.6808   9.8413  10.2205
    10.8883  11.0035  11.0330  11.2529  11.2739  11.4103  12.2408  13.2410
    13.3082  14.1748  16.6895  16.7251  17.5921  17.7955

     occupation numbers 
     0.1875   0.1875   0.1875   0.1875   0.1875   0.1875   0.1875   0.1875
     0.1875   0.1875   0.1875   0.1875   0.1875   0.1875   0.1875   0.1875
     0.1875   0.1875   0.1875   0.1875   0.1875   0.1875   0.1875   0.1875
     0.1875   0.1875   0.1875   0.1875   0.1875   0.1875   0.1875   0.1875
     0.1874   0.1873   0.1872   0.1848   0.1842   0.1780   0.0201   0.0000
     0.0000   0.0000   0.0000   0.0000   0.0000   0.0000

          k = 0.4942 0.2853 0.1027 (  2211 PWs)   bands (ev):

   -19.7270 -19.6945  -6.9667  -6.5391  -6.3176  -5.6911  -5.6192  -5.3478
    -3.3154  -3.1612  -3.0280  -2.5996  -2.5585  -2.3744   5.9168   6.2016
     6.5546   6.9655   7.2083   7.2124   7.4634   7.6266   7.7541   7.8329
     8.1980   8.8484   9.0337   9.3927   9.4647   9.6601   9.9984  10.3404
    10.6110  11.1133  11.2468  11.2575  11.3052  11.3299  12.2703  12.7546
    13.4699  14.3351  16.8866  16.9361  17.5817  17.9288

     occupation numbers 
     0.1875   0.1875   0.1875   0.1875   0.1875   0.1875   0.1875   0.1875
     0.1875   0.1875   0.1875   0.1875   0.1875   0.1875   0.1875   0.1875
     0.1875   0.1875   0.1875   0.1875   0.1875   0.1875   0.1875   0.1875
     0.1875   0.1875   0.1875   0.1875   0.1875   0.1875   0.1875   0.1875
     0.1875   0.1868   0.1849   0.1847   0.1832   0.1823   0.0168   0.0002
     0.0000   0.0000   0.0000   0.0000   0.0000   0.0000

          k = 0.7412-0.4280-0.3080 (  2210 PWs)   bands (ev):

   -19.7267 -19.6949  -6.9028  -6.4474  -6.2956  -5.7924  -5.7532  -5.4756
    -3.0662  -3.0488  -2.9601  -2.7261  -2.6188  -2.4244   5.9839   6.3469
     6.6171   6.9442   7.1940   7.2576   7.4966   7.6508   7.7923   7.8581
     8.1739   8.8520   8.9004   9.4539   9.5054   9.5081   9.6519  10.1921
    10.6943  11.1243  11.2219  11.2463  11.3642  11.3953  12.2295  12.7061
    13.4186  14.3049  17.0612  17.0698  17.5501  17.9041

     occupation numbers 
     0.1875   0.1875   0.1875   0.1875   0.1875   0.1875   0.1875   0.1875
     0.1875   0.1875   0.1875   0.1875   0.1875   0.1875   0.1875   0.1875
     0.1875   0.1875   0.1875   0.1875   0.1875   0.1875   0.1875   0.1875
     0.1875   0.1875   0.1875   0.1875   0.1875   0.1875   0.1875   0.1875
     0.1875   0.1867   0.1854   0.1849   0.1807   0.1789   0.0215   0.0004
     0.0000   0.0000   0.0000   0.0000   0.0000   0.0000

          k = 0.4942-0.5706-0.2053 (  2206 PWs)   bands (ev):

   -19.7109 -19.7109  -6.8839  -6.8673  -6.0315  -6.0304  -5.4204  -5.4159
    -3.1489  -3.1481  -2.8105  -2.8093  -2.3810  -2.3780   6.0660   6.0703
     6.7477   6.7485   7.0838   7.0864   7.3820   7.3827   7.9057   7.9155
     8.7751   8.7790   8.8778   8.8835   9.5236   9.5244  10.0766  10.0775
    10.8999  10.9026  11.1163  11.1240  11.4213  11.4256  12.2851  12.2904
    13.9987  14.0066  17.4284  17.4290  17.8694  17.8718

     occupation numbers 
     0.1875   0.1875   0.1875   0.1875   0.1875   0.1875   0.1875   0.1875
     0.1875   0.1875   0.1875   0.1875   0.1875   0.1875   0.1875   0.1875
     0.1875   0.1875   0.1875   0.1875   0.1875   0.1875   0.1875   0.1875
     0.1875   0.1875   0.1875   0.1875   0.1875   0.1875   0.1875   0.1875
     0.1874   0.1874   0.1868   0.1867   0.1772   0.1769   0.0153   0.0148
     0.0000   0.0000   0.0000   0.0000   0.0000   0.0000

          k = 0.0000 0.0000-0.6160 (  2186 PWs)   bands (ev):

   -19.7114 -19.7105  -6.5127  -6.4959  -5.9382  -5.9382  -5.9261  -5.9261
    -2.8877  -2.8877  -2.8870  -2.8870  -2.7035  -2.7033   6.2689   6.2710
     7.1773   7.1773   7.1800   7.1800   7.6031   7.6131   7.8606   7.8606
     7.8655   7.8655   9.6166   9.6166   9.6273   9.6273   9.6869   9.6994
    11.1099  11.1260  11.1809  11.1809  11.1988  11.1988  13.2302  13.2302
    13.2628  13.2628  17.1179  17.1179  17.1204  17.1204

     occupation numbers 
     0.0313   0.0313   0.0313   0.0313   0.0313   0.0313   0.0313   0.0313
     0.0313   0.0313   0.0313   0.0313   0.0313   0.0313   0.0313   0.0313
     0.0313   0.0313   0.0313   0.0313   0.0313   0.0313   0.0313   0.0313
     0.0313   0.0313   0.0312   0.0312   0.0312   0.0312   0.0312   0.0312
     0.0311   0.0311   0.0310   0.0310   0.0310   0.0310   0.0000   0.0000
     0.0000   0.0000   0.0000   0.0000   0.0000   0.0000

          k = 0.4942-0.5706 0.1027 (  2198 PWs)   bands (ev):

   -19.7266 -19.6948  -6.9506  -6.6405  -6.1268  -5.8877  -5.5058  -5.3720
    -3.3023  -3.2499  -2.8738  -2.7039  -2.5251  -2.3811   5.8838   6.2300
     6.5972   6.9724   7.1750   7.3209   7.4405   7.6233   7.6667   7.8584
     8.1613   8.7724   9.0302   9.2933   9.6034   9.8021   9.9139  10.3480
    10.5848  11.0466  11.1665  11.2335  11.3731  11.4398  12.3155  12.7395
    13.4238  14.3532  16.9079  17.1128  17.3110  18.0163

     occupation numbers 
     0.1875   0.1875   0.1875   0.1875   0.1875   0.1875   0.1875   0.1875
     0.1875   0.1875   0.1875   0.1875   0.1875   0.1875   0.1875   0.1875
     0.1875   0.1875   0.1875   0.1875   0.1875   0.1875   0.1875   0.1875
     0.1875   0.1875   0.1875   0.1875   0.1875   0.1875   0.1875   0.1875
     0.1875   0.1871   0.1863   0.1852   0.1802   0.1758   0.0125   0.0003
     0.0000   0.0000   0.0000   0.0000   0.0000   0.0000

     the Fermi energy is    11.8828 ev

!    total energy              =    -538.09693522 Ry
     Harris-Foulkes estimate   =    -538.09692614 Ry
     estimated scf accuracy    <          3.7E-09 Ry

     The total energy is the sum of the following terms:

     one-electron contribution =     -32.90328467 Ry
     hartree contribution      =      83.64181624 Ry
     xc contribution           =    -199.59417323 Ry
     ewald contribution        =    -389.44315552 Ry
     Hubbard energy            =       0.22351966 Ry
     smearing contrib. (-TS)   =      -0.02165771 Ry

     convergence has been achieved in  12 iterations

     init_run     :      7.55s CPU      7.67s WALL (       1 calls)
     electrons    :    196.48s CPU    198.61s WALL (       1 calls)

     Called by init_run:
     wfcinit      :      0.00s CPU      0.00s WALL (       1 calls)
     potinit      :      0.30s CPU      0.32s WALL (       1 calls)

     Called by electrons:
     c_bands      :    125.57s CPU    126.03s WALL (      12 calls)
     sum_band     :     41.04s CPU     41.32s WALL (      12 calls)
     v_of_rho     :      3.53s CPU      3.55s WALL (      13 calls)
     v_h          :      0.20s CPU      0.21s WALL (      13 calls)
     v_xc         :      3.32s CPU      3.34s WALL (      13 calls)
     newd         :     27.54s CPU     27.57s WALL (      13 calls)
     mix_rho      :      0.39s CPU      0.39s WALL (      12 calls)

     Called by c_bands:
     init_us_2    :      1.42s CPU      1.41s WALL (     336 calls)
     cegterg      :    121.81s CPU    122.04s WALL (     168 calls)

     Called by sum_band:
     sum_band:bec :      0.13s CPU      0.13s WALL (     168 calls)
     addusdens    :     17.58s CPU     17.59s WALL (      12 calls)

     Called by *egterg:
     h_psi        :     90.92s CPU     91.11s WALL (     634 calls)
     s_psi        :      5.10s CPU      5.11s WALL (     634 calls)
     g_psi        :      0.38s CPU      0.39s WALL (     466 calls)
     cdiaghg      :      9.75s CPU      9.77s WALL (     620 calls)
     cegterg:over :      5.66s CPU      5.67s WALL (     466 calls)
     cegterg:upda :      3.86s CPU      3.85s WALL (     466 calls)
     cegterg:last :      2.45s CPU      2.46s WALL (     184 calls)

     Called by h_psi:
     h_psi:vloc   :     74.56s CPU     74.70s WALL (     634 calls)
     h_psi:vnl    :     10.28s CPU     10.32s WALL (     634 calls)
     add_vuspsi   :      5.09s CPU      5.10s WALL (     634 calls)
     vhpsi        :      5.84s CPU      5.85s WALL (     634 calls)

     General routines
     calbec       :     10.91s CPU     10.95s WALL (    1604 calls)
     fft          :      2.47s CPU      2.50s WALL (     203 calls)
     ffts         :      0.07s CPU      0.07s WALL (      25 calls)
     fftw         :     69.07s CPU     69.31s WALL (   46338 calls)
     interpolate  :      0.43s CPU      0.44s WALL (      25 calls)
     davcio       :      0.01s CPU      0.45s WALL (     350 calls)

     Parallel routines
     fft_scatter  :     19.53s CPU     19.76s WALL (   46566 calls)
     Hubbard U routines
     new_ns       :      1.16s CPU      1.37s WALL (      12 calls)
     vhpsi        :      5.84s CPU      5.85s WALL (     634 calls)

     PWSCF        :  3m24.47s CPU     3m26.77s WALL


   This run was terminated on:  15: 3:18  11Nov2012            

=------------------------------------------------------------------------------=
