   JOB DONE.
=------------------------------------------------------------------------------=

     Program PWSCF v.5.0.1 starts on 11Nov2012 at 14:56:16 

     This program is part of the open-source Quantum ESPRESSO suite
     for quantum simulation of materials; please cite
         "P. Giannozzi et al., J. Phys.:Condens. Matter 21 395502 (2009);
          URL http://www.quantum-espresso.org", 
     in publications or presentations arising from this work. More details at
     http://www.quantum-espresso.org/quote.php

     Parallel version (MPI), running on     2 processors
     R & G space division:  proc/pool =    2

     Current dimensions of program PWSCF are:
     Max number of different atomic species (ntypx) = 10
     Max number of k-points (npk) =  40000
     Max angular momentum in pseudopotentials (lmaxx) =  3
     Reading input from CoLaO_U200_a5.in
               file Co.pbe-nd-rrkjus.UPF: wavefunction(s)  4S 3D renormalized
               file Co.pbe-nd-rrkjus.UPF: wavefunction(s)  4S 3D renormalized
               file O.pbe-rrkjus.UPF: wavefunction(s)  2S renormalized

     Subspace diagonalization in iterative solution of the eigenvalue problem:
     a serial algorithm will be used


     Parallelization info
     --------------------
     sticks:   dense  smooth     PW     G-vecs:    dense   smooth      PW
     Min        1112     444    131                34808     8786    1448
     Max        1113     445    132                34809     8787    1449
     Sum        2225     889    263                69617    17573    2897


     Title: 
     GGA + U, U = 2.000, alpha = 0.050                                          


     bravais-lattice index     =            5
     lattice parameter (alat)  =      10.3292  a.u.
     unit-cell volume          =     793.0599 (a.u.)^3
     number of atoms/cell      =           10
     number of atomic types    =            4
     number of electrons       =        76.00
     number of Kohn-Sham states=           46
     kinetic-energy cutoff     =      30.0000  Ry
     charge density cutoff     =     300.0000  Ry
     convergence threshold     =      1.0E-08
     mixing beta               =       0.2000
     number of iterations used =            8  plain     mixing
     Exchange-correlation      =  SLA  PW   PBE  PBE ( 1 4 3 4 0)
     EXX-fraction              =        0.00

     celldm(1)=  10.329242  celldm(2)=   0.000000  celldm(3)=   0.000000
     celldm(4)=   0.488100  celldm(5)=   0.000000  celldm(6)=   0.000000

     crystal axes: (cart. coord. in units of alat)
               a(1) = (   0.505915  -0.292090   0.811624 )  
               a(2) = (   0.000000   0.584180   0.811624 )  
               a(3) = (  -0.505915  -0.292090   0.811624 )  

     reciprocal axes: (cart. coord. in units 2 pi/alat)
               b(1) = (  0.988308 -0.570600  0.410699 )  
               b(2) = (  0.000000  1.141200  0.410699 )  
               b(3) = ( -0.988308 -0.570600  0.410699 )  


     PseudoPot. # 1 for Co read from file:
     /home/mcurnan/dft-course/Project1/example_LaCoO3/Co.pbe-nd-rrkjus.UPF
     MD5 check sum: 3e47a84addf5e975e0edeaeee2a73f59
     Pseudo is Ultrasoft + core correction, Zval =  9.0
     Generated by new atomic code, or converted to UPF format
     Using radial grid of  961 points,  6 beta functions with: 
                l(1) =   0
                l(2) =   0
                l(3) =   1
                l(4) =   1
                l(5) =   2
                l(6) =   2
     Q(r) pseudized with 0 coefficients 


     PseudoPot. # 2 for Co read from file:
     /home/mcurnan/dft-course/Project1/example_LaCoO3/Co.pbe-nd-rrkjus.UPF
     MD5 check sum: 3e47a84addf5e975e0edeaeee2a73f59
     Pseudo is Ultrasoft + core correction, Zval =  9.0
     Generated by new atomic code, or converted to UPF format
     Using radial grid of  961 points,  6 beta functions with: 
                l(1) =   0
                l(2) =   0
                l(3) =   1
                l(4) =   1
                l(5) =   2
                l(6) =   2
     Q(r) pseudized with 0 coefficients 


     PseudoPot. # 3 for La read from file:
     /home/mcurnan/dft-course/Project1/example_LaCoO3/La.pbe-nsp-van.UPF
     MD5 check sum: b2f11743f52dde65f77d1302becd7929
     Pseudo is Ultrasoft + core correction, Zval = 11.0
     Generated by new atomic code, or converted to UPF format
     Using radial grid of  907 points,  6 beta functions with: 
                l(1) =   0
                l(2) =   0
                l(3) =   1
                l(4) =   1
                l(5) =   2
                l(6) =   2
     Q(r) pseudized with  6 coefficients,  rinner =    1.200   1.200   1.200
                                                       1.200   1.200

     PseudoPot. # 4 for O  read from file:
     /home/mcurnan/dft-course/Project1/example_LaCoO3/O.pbe-rrkjus.UPF
     MD5 check sum: 390ba29e75625707450f3bd3f0eb6be9
     Pseudo is Ultrasoft, Zval =  6.0
     Generated by new atomic code, or converted to UPF format
     Using radial grid of 1269 points,  4 beta functions with: 
                l(1) =   0
                l(2) =   0
                l(3) =   1
                l(4) =   1
     Q(r) pseudized with 0 coefficients 


     atomic species   valence    mass     pseudopotential
        Co1            9.00     1.00000     Co( 1.00)
        Co2            9.00     1.00000     Co( 1.00)
        La1           11.00     1.00000     La( 1.00)
        O1             6.00     1.00000     O ( 1.00)
 -----
     simplified LDA+U calculation, Hubbard_lmax = 2
     atomic species  L   Hubbard U  Hubbard alpha
        Co1          2    2.000000    0.050000
        Co2          2    2.000000    0.000000
        La1          2    0.000000    0.000000
        O1           1    0.000000    0.000000
 -----

      6 Sym. Ops., with inversion, found


                                    s                        frac. trans.

      isym =  1     identity                                     

 cryst.   s( 1) = (     1          0          0      )
                  (     0          1          0      )
                  (     0          0          1      )

 cart.    s( 1) = (  1.0000000  0.0000000  0.0000000 )
                  (  0.0000000  1.0000000  0.0000000 )
                  (  0.0000000  0.0000000  1.0000000 )


      isym =  2     120 deg rotation - cryst. axis [0,0,1]       

 cryst.   s( 2) = (     0          1          0      )
                  (     0          0          1      )
                  (     1          0          0      )

 cart.    s( 2) = ( -0.5000000 -0.8660254  0.0000000 )
                  (  0.8660254 -0.5000000  0.0000000 )
                  (  0.0000000  0.0000000  1.0000000 )


      isym =  3     120 deg rotation - cryst. axis [0,0,-1]      

 cryst.   s( 3) = (     0          0          1      )
                  (     1          0          0      )
                  (     0          1          0      )

 cart.    s( 3) = ( -0.5000000  0.8660254  0.0000000 )
                  ( -0.8660254 -0.5000000  0.0000000 )
                  (  0.0000000  0.0000000  1.0000000 )


      isym =  4     inversion                                    

 cryst.   s( 4) = (    -1          0          0      )
                  (     0         -1          0      )
                  (     0          0         -1      )

 cart.    s( 4) = ( -1.0000000  0.0000000  0.0000000 )
                  (  0.0000000 -1.0000000  0.0000000 )
                  (  0.0000000  0.0000000 -1.0000000 )


      isym =  5     inv. 180 deg rotation - cart. axis [0,1,0]   

 cryst.   s( 5) = (     0         -1          0      )
                  (     0          0         -1      )
                  (    -1          0          0      )

 cart.    s( 5) = (  0.5000000  0.8660254  0.0000000 )
                  ( -0.8660254  0.5000000  0.0000000 )
                  (  0.0000000  0.0000000 -1.0000000 )


      isym =  6     inv. 180 deg rotation - cart. axis [1,0,0]   

 cryst.   s( 6) = (     0          0         -1      )
                  (    -1          0          0      )
                  (     0         -1          0      )

 cart.    s( 6) = (  0.5000000 -0.8660254  0.0000000 )
                  (  0.8660254  0.5000000  0.0000000 )
                  (  0.0000000  0.0000000 -1.0000000 )


     point group S_6 (-3)   
     there are  6 classes
     the character table:

       E     C3    C3^2  i     S6^5  S6   
A_g    1.00  1.00  1.00  1.00  1.00  1.00
E_g    1.00 -0.50 -0.50  1.00 -0.50 -0.50
E_g*   1.00 -0.50 -0.50  1.00 -0.50 -0.50
A_u    1.00  1.00  1.00 -1.00 -1.00 -1.00
E_u    1.00 -0.50 -0.50 -1.00  0.50  0.50
E_u*   1.00 -0.50 -0.50 -1.00  0.50  0.50
     imaginary part
A_g    0.00  0.00  0.00  0.00  0.00  0.00
E_g    0.00  0.87 -0.87  0.00  0.87 -0.87
E_g*   0.00 -0.87  0.87  0.00 -0.87  0.87
A_u    0.00  0.00  0.00  0.00  0.00  0.00
E_u    0.00  0.87 -0.87  0.00 -0.87  0.87
E_u*   0.00 -0.87  0.87  0.00  0.87 -0.87

     the symmetry operations in each class:
     E        1
     C3       2
     C3^2     3
     i        4
     S6^5     5
     S6       6

   Cartesian axes

     site n.     atom                  positions (alat units)
         1           Co1 tau(   1) = (   0.0000000   0.0000000   0.0000000  )
         2           Co2 tau(   2) = (   0.0000000   0.0000000   1.2174358  )
         3           La1 tau(   3) = (   0.0000000   0.0000000   0.6087179  )
         4           La1 tau(   4) = (   0.0000000   0.0000000   1.8261537  )
         5           O1  tau(   5) = (  -0.2839701  -0.0933228   1.0141240  )
         6           O1  tau(   6) = (   0.0611651   0.2925867   1.0141240  )
         7           O1  tau(   7) = (   0.2228050  -0.1992639   1.0141240  )
         8           O1  tau(   8) = (  -0.0611651  -0.2925867   1.4207476  )
         9           O1  tau(   9) = (   0.2839701   0.0933228   1.4207476  )
        10           O1  tau(  10) = (  -0.2228050   0.1992639   1.4207476  )

   Crystallographic axes

     site n.     atom                  positions (cryst. coord.)
         1           Co1 tau(   1) = (  0.0000000  0.0000000  0.0000000  )
         2           Co2 tau(   2) = (  0.5000000  0.5000000  0.5000000  )
         3           La1 tau(   3) = (  0.2500000  0.2500000  0.2500000  )
         4           La1 tau(   4) = (  0.7500000  0.7500000  0.7500000  )
         5           O1  tau(   5) = (  0.1891000  0.3100000  0.7504000  )
         6           O1  tau(   6) = (  0.3100000  0.7504000  0.1891000  )
         7           O1  tau(   7) = (  0.7504000  0.1891000  0.3100000  )
         8           O1  tau(   8) = (  0.6900000  0.2496000  0.8109000  )
         9           O1  tau(   9) = (  0.8109000  0.6900000  0.2496000  )
        10           O1  tau(  10) = (  0.2496000  0.8109000  0.6900000  )

     number of k points=    14  gaussian smearing, width (Ry)=  0.0300
                       cart. coord. in units 2pi/alat
        k(    1) = (   0.0000000   0.0000000   0.0000000), wk =   0.0312500
        k(    2) = (  -0.2470771  -0.1426500   0.1026748), wk =   0.1875000
        k(    3) = (   0.4941541   0.2853000  -0.2053496), wk =   0.0937500
        k(    4) = (  -0.2470771   0.1426500   0.2053496), wk =   0.1875000
        k(    5) = (   0.4941541   0.5706001  -0.1026748), wk =   0.1875000
        k(    6) = (   0.2470771   0.4279500   0.0000000), wk =   0.1875000
        k(    7) = (   0.4941541  -0.2853000  -0.4106993), wk =   0.0937500
        k(    8) = (   0.0000000   0.0000000   0.3080244), wk =   0.0625000
        k(    9) = (   0.7412312   0.4279500   0.0000000), wk =   0.1875000
        k(   10) = (   0.4941541   0.2853000   0.1026748), wk =   0.1875000
        k(   11) = (   0.7412312  -0.4279500  -0.3080244), wk =   0.1875000
        k(   12) = (   0.4941541  -0.5706001  -0.2053496), wk =   0.1875000
        k(   13) = (   0.0000000   0.0000000  -0.6160489), wk =   0.0312500
        k(   14) = (   0.4941541  -0.5706001   0.1026748), wk =   0.1875000

                       cryst. coord.
        k(    1) = (   0.0000000   0.0000000   0.0000000), wk =   0.0312500
        k(    2) = (   0.0000000   0.0000000   0.2500000), wk =   0.1875000
        k(    3) = (   0.0000000   0.0000000  -0.5000000), wk =   0.0937500
        k(    4) = (   0.0000000   0.2500000   0.2500000), wk =   0.1875000
        k(    5) = (   0.0000000   0.2500000  -0.5000000), wk =   0.1875000
        k(    6) = (   0.0000000   0.2500000  -0.2500000), wk =   0.1875000
        k(    7) = (   0.0000000  -0.5000000  -0.5000000), wk =   0.0937500
        k(    8) = (   0.2500000   0.2500000   0.2500000), wk =   0.0625000
        k(    9) = (   0.2500000   0.2500000  -0.5000000), wk =   0.1875000
        k(   10) = (   0.2500000   0.2500000  -0.2500000), wk =   0.1875000
        k(   11) = (   0.2500000  -0.5000000  -0.5000000), wk =   0.1875000
        k(   12) = (   0.2500000  -0.5000000  -0.2500000), wk =   0.1875000
        k(   13) = (  -0.5000000  -0.5000000  -0.5000000), wk =   0.0312500
        k(   14) = (   0.5000000  -0.2500000   0.0000000), wk =   0.1875000

     Dense  grid:    69617 G-vectors     FFT dimensions: (  60,  60,  60)

     Smooth grid:    17573 G-vectors     FFT dimensions: (  40,  40,  40)

     Largest allocated arrays     est. size (Mb)     dimensions
        Kohn-Sham Wavefunctions         0.78 Mb     (   1117,   46)
        Atomic wavefunctions            1.06 Mb     (   1117,   62)
        NL pseudopotentials             2.05 Mb     (   1117,  120)
        Each V/rho on FFT grid          1.65 Mb     ( 108000)
        Each G-vector array             0.27 Mb     (  34808)
        G-vector shells                 0.04 Mb     (   4682)
     Largest temporary arrays     est. size (Mb)     dimensions
        Auxiliary wavefunctions         3.14 Mb     (   1117,  184)
        Each subspace H/S matrix        0.52 Mb     ( 184, 184)
        Each <psi_i|beta_j> matrix      0.08 Mb     (    120,   46)
        Arrays for rho mixing          13.18 Mb     ( 108000,   8)

     Check: negative/imaginary core charge=   -0.000028    0.000000

     The initial density is read from file :
     /home/mcurnan/dft-course/Project1/example_LaCoO3/200/Co/alpha/CoLaO_U200.save/charge-density.dat

 --- in v_hubbard ---
Hubbard energy    0.2209
 -------
     Number of +U iterations with fixed ns =  0
     Starting occupations:
 --- enter write_ns ---
 LDA+U parameters:
U( 1)     =  2.00000000
alpha( 1) =  0.05000000
U( 2)     =  2.00000000
alpha( 2) =  0.00000000
U( 3)     =  0.00000000
alpha( 3) =  0.00000000
U( 4)     =  0.00000000
alpha( 4) =  0.00000000
atom    1   Tr[ns(na)] =   8.02206
    eigenvalues: 
  0.596  0.596  0.938  0.941  0.941
    eigenvectors:
  0.000  0.000  1.000  0.000  0.000
  0.333  0.322  0.000  0.004  0.341
  0.322  0.333  0.000  0.341  0.004
  0.289  0.056  0.000  0.515  0.140
  0.056  0.289  0.000  0.140  0.515
    occupations:
  0.938  0.000  0.000  0.000  0.000
  0.000  0.715  0.000 -0.060  0.152
  0.000  0.000  0.715  0.152  0.060
  0.000 -0.060  0.152  0.822  0.000
  0.000  0.152  0.060  0.000  0.822
atom    2   Tr[ns(na)] =   8.02145
    eigenvalues: 
  0.595  0.595  0.938  0.941  0.941
    eigenvectors:
  0.000  0.000  1.000  0.000  0.000
  0.640  0.015  0.000  0.223  0.122
  0.015  0.640  0.000  0.122  0.223
  0.017  0.329  0.000  0.470  0.185
  0.329  0.017  0.000  0.185  0.470
    occupations:
  0.938  0.000  0.000  0.000  0.000
  0.000  0.715  0.000  0.060  0.153
  0.000  0.000  0.715  0.153 -0.060
  0.000  0.060  0.153  0.822  0.000
  0.000  0.153 -0.060  0.000  0.822
atom    3   Tr[ns(na)] =   3.80284
    eigenvalues: 
  0.355  0.355  0.384  0.403  0.403
    eigenvectors:
  0.000  0.000  1.000  0.000  0.000
  0.781  0.139  0.000  0.012  0.068
  0.139  0.781  0.000  0.068  0.012
  0.013  0.067  0.000  0.780  0.141
  0.067  0.013  0.000  0.141  0.780
    occupations:
  0.384  0.000  0.000  0.000  0.000
  0.000  0.359  0.000  0.000  0.013
  0.000  0.000  0.359  0.013  0.000
  0.000  0.000  0.013  0.399  0.000
  0.000  0.013  0.000  0.000  0.399
atom    4   Tr[ns(na)] =   3.80284
    eigenvalues: 
  0.355  0.355  0.384  0.403  0.403
    eigenvectors:
  0.000  0.000  1.000  0.000  0.000
  0.782  0.139  0.000  0.012  0.068
  0.139  0.782  0.000  0.068  0.012
  0.012  0.067  0.000  0.780  0.141
  0.067  0.012  0.000  0.141  0.780
    occupations:
  0.384  0.000  0.000  0.000  0.000
  0.000  0.359  0.000  0.000  0.013
  0.000  0.000  0.359  0.013  0.000
  0.000  0.000  0.013  0.399  0.000
  0.000  0.013  0.000  0.000  0.399
atom    5   Tr[ns(na)] =   5.43357
    eigenvalues: 
  0.846  0.929  0.941
    eigenvectors:
  0.340  0.000  0.660
  0.494  0.250  0.256
  0.166  0.750  0.085
    occupations:
  0.909  0.039  0.022
  0.039  0.891 -0.022
  0.022 -0.022  0.917
atom    6   Tr[ns(na)] =   5.43357
    eigenvalues: 
  0.846  0.929  0.941
    eigenvectors:
  0.340  0.000  0.660
  0.000  1.000  0.000
  0.660  0.000  0.340
    occupations:
  0.909  0.000 -0.045
  0.000  0.929  0.000
 -0.045  0.000  0.879
atom    7   Tr[ns(na)] =   5.43357
    eigenvalues: 
  0.846  0.929  0.941
    eigenvectors:
  0.340  0.000  0.660
  0.496  0.250  0.255
  0.164  0.750  0.086
    occupations:
  0.909 -0.039  0.022
 -0.039  0.891  0.022
  0.022  0.022  0.917
atom    8   Tr[ns(na)] =   5.43357
    eigenvalues: 
  0.846  0.929  0.941
    eigenvectors:
  0.340  0.000  0.660
  0.000  1.000  0.000
  0.660  0.000  0.340
    occupations:
  0.909  0.000 -0.045
  0.000  0.929  0.000
 -0.045  0.000  0.879
atom    9   Tr[ns(na)] =   5.43357
    eigenvalues: 
  0.846  0.929  0.941
    eigenvectors:
  0.340  0.000  0.660
  0.494  0.250  0.256
  0.166  0.750  0.085
    occupations:
  0.909  0.039  0.022
  0.039  0.891 -0.022
  0.022 -0.022  0.917
atom   10   Tr[ns(na)] =   5.43357
    eigenvalues: 
  0.846  0.929  0.941
    eigenvectors:
  0.340  0.000  0.660
  0.496  0.250  0.255
  0.164  0.750  0.086
    occupations:
  0.909 -0.039  0.022
 -0.039  0.891  0.022
  0.022  0.022  0.917
N of occupied +U levels =  56.2506062
 --- exit write_ns ---
 LDA+U Projector read from file 
     Starting wfc from file

     total cpu time spent up to now is        8.6 secs

     per-process dynamical memory:    46.9 Mb

     Self-consistent Calculation

     iteration #  1     ecut=    30.00 Ry     beta=0.20
     Davidson diagonalization with overlap
     c_bands:  1 eigenvalues not converged
     ethr =  1.00E-10,  avg # of iterations = 14.4
 --- enter write_ns ---
 LDA+U parameters:
U( 1)     =  2.00000000
alpha( 1) =  0.05000000
U( 2)     =  2.00000000
alpha( 2) =  0.00000000
U( 3)     =  0.00000000
alpha( 3) =  0.00000000
U( 4)     =  0.00000000
alpha( 4) =  0.00000000
atom    1   Tr[ns(na)] =   8.09293
    eigenvalues: 
  0.563  0.563  0.973  0.973  0.975
    eigenvectors:
  0.000  0.000  0.000  0.000  1.000
  0.329  0.326  0.005  0.341  0.000
  0.326  0.329  0.341  0.005  0.000
  0.287  0.059  0.513  0.142  0.000
  0.059  0.287  0.142  0.513  0.000
    occupations:
  0.975  0.000  0.000  0.000  0.000
  0.000  0.705  0.000 -0.070  0.183
  0.000  0.000  0.705  0.183  0.070
  0.000 -0.070  0.183  0.831  0.000
  0.000  0.183  0.070  0.000  0.831
atom    2   Tr[ns(na)] =   8.12121
    eigenvalues: 
  0.565  0.565  0.976  0.976  0.977
    eigenvectors:
  0.000  0.000  0.000  0.000  1.000
  0.636  0.018  0.221  0.125  0.000
  0.018  0.636  0.125  0.221  0.000
  0.013  0.332  0.469  0.185  0.000
  0.332  0.013  0.185  0.469  0.000
    occupations:
  0.977  0.000  0.000  0.000  0.000
  0.000  0.707  0.000  0.070  0.183
  0.000  0.000  0.707  0.183 -0.070
  0.000  0.070  0.183  0.834  0.000
  0.000  0.183 -0.070  0.000  0.834
atom    3   Tr[ns(na)] =   3.79779
    eigenvalues: 
  0.356  0.356  0.383  0.402  0.402
    eigenvectors:
  0.000  0.000  1.000  0.000  0.000
  0.779  0.140  0.000  0.012  0.069
  0.140  0.779  0.000  0.069  0.012
  0.013  0.068  0.000  0.778  0.141
  0.068  0.013  0.000  0.141  0.778
    occupations:
  0.383  0.000  0.000  0.000  0.000
  0.000  0.360  0.000  0.000  0.013
  0.000  0.000  0.360  0.013  0.000
  0.000  0.000  0.013  0.399  0.000
  0.000  0.013  0.000  0.000  0.399
atom    4   Tr[ns(na)] =   3.79779
    eigenvalues: 
  0.356  0.356  0.383  0.402  0.402
    eigenvectors:
  0.000  0.000  1.000  0.000  0.000
  0.779  0.140  0.000  0.012  0.069
  0.140  0.779  0.000  0.069  0.012
  0.013  0.068  0.000  0.778  0.141
  0.068  0.013  0.000  0.141  0.778
    occupations:
  0.383  0.000  0.000  0.000  0.000
  0.000  0.360  0.000  0.000  0.013
  0.000  0.000  0.360  0.013  0.000
  0.000  0.000  0.013  0.399  0.000
  0.000  0.013  0.000  0.000  0.399
atom    5   Tr[ns(na)] =   5.41412
    eigenvalues: 
  0.837  0.927  0.943
    eigenvectors:
  0.340  0.000  0.660
  0.496  0.247  0.256
  0.163  0.753  0.084
    occupations:
  0.907  0.044  0.025
  0.044  0.886 -0.023
  0.025 -0.023  0.914
atom    6   Tr[ns(na)] =   5.41412
    eigenvalues: 
  0.837  0.927  0.943
    eigenvectors:
  0.340  0.000  0.660
  0.000  1.000  0.000
  0.660  0.000  0.340
    occupations:
  0.907  0.000 -0.050
  0.000  0.927  0.000
 -0.050  0.000  0.873
atom    7   Tr[ns(na)] =   5.41412
    eigenvalues: 
  0.837  0.927  0.943
    eigenvectors:
  0.340  0.000  0.660
  0.493  0.253  0.255
  0.167  0.747  0.086
    occupations:
  0.907 -0.044  0.025
 -0.044  0.887  0.023
  0.025  0.023  0.913
atom    8   Tr[ns(na)] =   5.41412
    eigenvalues: 
  0.837  0.927  0.943
    eigenvectors:
  0.340  0.000  0.660
  0.000  1.000  0.000
  0.660  0.000  0.340
    occupations:
  0.907  0.000 -0.050
  0.000  0.927  0.000
 -0.050  0.000  0.873
atom    9   Tr[ns(na)] =   5.41412
    eigenvalues: 
  0.837  0.927  0.943
    eigenvectors:
  0.340  0.000  0.660
  0.496  0.247  0.256
  0.163  0.753  0.084
    occupations:
  0.907  0.044  0.025
  0.044  0.886 -0.023
  0.025 -0.023  0.914
atom   10   Tr[ns(na)] =   5.41412
    eigenvalues: 
  0.837  0.927  0.943
    eigenvectors:
  0.340  0.000  0.660
  0.493  0.253  0.255
  0.167  0.747  0.086
    occupations:
  0.907 -0.044  0.025
 -0.044  0.887  0.023
  0.025  0.023  0.913
N of occupied +U levels =  56.2944219
 --- exit write_ns ---
 --- in v_hubbard ---
Hubbard energy    0.2161
 -------

     total cpu time spent up to now is       47.1 secs

     total energy              =    -538.12388414 Ry
     Harris-Foulkes estimate   =    -538.12567927 Ry
     estimated scf accuracy    <       0.01163247 Ry

     iteration #  2     ecut=    30.00 Ry     beta=0.20
     Davidson diagonalization with overlap
     ethr =  1.53E-05,  avg # of iterations =  1.5
 --- enter write_ns ---
 LDA+U parameters:
U( 1)     =  2.00000000
alpha( 1) =  0.05000000
U( 2)     =  2.00000000
alpha( 2) =  0.00000000
U( 3)     =  0.00000000
alpha( 3) =  0.00000000
U( 4)     =  0.00000000
alpha( 4) =  0.00000000
atom    1   Tr[ns(na)] =   8.05956
    eigenvalues: 
  0.549  0.549  0.977  0.977  0.978
    eigenvectors:
  0.000  0.000  0.000  0.000  1.000
  0.333  0.323  0.004  0.341  0.000
  0.323  0.333  0.341  0.004  0.000
  0.287  0.057  0.515  0.141  0.000
  0.057  0.287  0.141  0.515  0.000
    occupations:
  0.978  0.000  0.000  0.000  0.000
  0.000  0.696  0.000 -0.074  0.189
  0.000  0.000  0.696  0.189  0.074
  0.000 -0.074  0.189  0.829  0.000
  0.000  0.189  0.074  0.000  0.829
atom    2   Tr[ns(na)] =   8.00741
    eigenvalues: 
  0.541  0.541  0.974  0.974  0.975
    eigenvectors:
  0.000  0.000  0.000  0.000  1.000
  0.637  0.018  0.219  0.125  0.000
  0.018  0.637  0.125  0.219  0.000
  0.013  0.332  0.470  0.185  0.000
  0.332  0.013  0.185  0.470  0.000
    occupations:
  0.975  0.000  0.000  0.000  0.000
  0.000  0.690  0.000  0.073  0.192
  0.000  0.000  0.690  0.192 -0.073
  0.000  0.073  0.192  0.825  0.000
  0.000  0.192 -0.073  0.000  0.825
atom    3   Tr[ns(na)] =   3.79576
    eigenvalues: 
  0.355  0.355  0.382  0.402  0.402
    eigenvectors:
  0.000  0.000  1.000  0.000  0.000
  0.781  0.139  0.000  0.012  0.068
  0.139  0.781  0.000  0.068  0.012
  0.013  0.067  0.000  0.780  0.141
  0.067  0.013  0.000  0.141  0.780
    occupations:
  0.382  0.000  0.000  0.000  0.000
  0.000  0.359  0.000  0.000  0.013
  0.000  0.000  0.359  0.013  0.000
  0.000  0.000  0.013  0.399  0.000
  0.000  0.013  0.000  0.000  0.399
atom    4   Tr[ns(na)] =   3.79576
    eigenvalues: 
  0.355  0.355  0.382  0.402  0.402
    eigenvectors:
  0.000  0.000  1.000  0.000  0.000
  0.781  0.139  0.000  0.012  0.068
  0.139  0.781  0.000  0.068  0.012
  0.013  0.067  0.000  0.780  0.141
  0.067  0.013  0.000  0.141  0.780
    occupations:
  0.382  0.000  0.000  0.000  0.000
  0.000  0.359  0.000  0.000  0.013
  0.000  0.000  0.359  0.013  0.000
  0.000  0.000  0.013  0.399  0.000
  0.000  0.013  0.000  0.000  0.399
atom    5   Tr[ns(na)] =   5.43733
    eigenvalues: 
  0.844  0.930  0.945
    eigenvectors:
  0.338  0.000  0.662
  0.493  0.254  0.253
  0.169  0.746  0.085
    occupations:
  0.911  0.041  0.024
  0.041  0.891 -0.023
  0.024 -0.023  0.917
atom    6   Tr[ns(na)] =   5.43733
    eigenvalues: 
  0.844  0.930  0.945
    eigenvectors:
  0.338  0.000  0.662
  0.000  1.000  0.000
  0.662  0.000  0.338
    occupations:
  0.911  0.000 -0.048
  0.000  0.930  0.000
 -0.048  0.000  0.878
atom    7   Tr[ns(na)] =   5.43733
    eigenvalues: 
  0.844  0.930  0.945
    eigenvectors:
  0.338  0.000  0.662
  0.500  0.246  0.254
  0.162  0.754  0.084
    occupations:
  0.911 -0.042  0.024
 -0.042  0.891  0.022
  0.024  0.022  0.917
atom    8   Tr[ns(na)] =   5.43733
    eigenvalues: 
  0.844  0.930  0.945
    eigenvectors:
  0.338  0.000  0.662
  0.000  1.000  0.000
  0.662  0.000  0.338
    occupations:
  0.911  0.000 -0.048
  0.000  0.930  0.000
 -0.048  0.000  0.878
atom    9   Tr[ns(na)] =   5.43733
    eigenvalues: 
  0.844  0.930  0.945
    eigenvectors:
  0.338  0.000  0.662
  0.493  0.254  0.253
  0.169  0.746  0.085
    occupations:
  0.911  0.041  0.024
  0.041  0.891 -0.023
  0.024 -0.023  0.917
atom   10   Tr[ns(na)] =   5.43733
    eigenvalues: 
  0.844  0.930  0.945
    eigenvectors:
  0.338  0.000  0.662
  0.500  0.246  0.254
  0.162  0.754  0.084
    occupations:
  0.911 -0.042  0.024
 -0.042  0.891  0.022
  0.024  0.022  0.917
N of occupied +U levels =  56.2824836
 --- exit write_ns ---
 --- in v_hubbard ---
Hubbard energy    0.2140
 -------

     total cpu time spent up to now is       62.6 secs

     total energy              =    -538.12517015 Ry
     Harris-Foulkes estimate   =    -538.12557521 Ry
     estimated scf accuracy    <       0.00886439 Ry

     iteration #  3     ecut=    30.00 Ry     beta=0.20
     Davidson diagonalization with overlap
     ethr =  1.17E-05,  avg # of iterations =  1.0
 --- enter write_ns ---
 LDA+U parameters:
U( 1)     =  2.00000000
alpha( 1) =  0.05000000
U( 2)     =  2.00000000
alpha( 2) =  0.00000000
U( 3)     =  0.00000000
alpha( 3) =  0.00000000
U( 4)     =  0.00000000
alpha( 4) =  0.00000000
atom    1   Tr[ns(na)] =   8.01913
    eigenvalues: 
  0.545  0.545  0.973  0.973  0.974
    eigenvectors:
  0.000  0.000  0.000  0.000  1.000
  0.331  0.324  0.005  0.339  0.000
  0.324  0.331  0.339  0.005  0.000
  0.286  0.059  0.514  0.142  0.000
  0.059  0.286  0.142  0.514  0.000
    occupations:
  0.974  0.000  0.000  0.000  0.000
  0.000  0.692  0.000 -0.072  0.190
  0.000  0.000  0.692  0.190  0.072
  0.000 -0.072  0.190  0.826  0.000
  0.000  0.190  0.072  0.000  0.826
atom    2   Tr[ns(na)] =   8.07982
    eigenvalues: 
  0.552  0.552  0.978  0.978  0.979
    eigenvectors:
  0.000  0.000  0.000  0.000  1.000
  0.639  0.017  0.221  0.123  0.000
  0.017  0.639  0.123  0.221  0.000
  0.015  0.330  0.471  0.185  0.000
  0.330  0.015  0.185  0.471  0.000
    occupations:
  0.979  0.000  0.000  0.000  0.000
  0.000  0.699  0.000  0.073  0.189
  0.000  0.000  0.699  0.189 -0.073
  0.000  0.073  0.189  0.832  0.000
  0.000  0.189 -0.073  0.000  0.832
atom    3   Tr[ns(na)] =   3.79567
    eigenvalues: 
  0.356  0.356  0.382  0.402  0.402
    eigenvectors:
  0.000  0.000  1.000  0.000  0.000
  0.782  0.139  0.000  0.012  0.068
  0.139  0.782  0.000  0.068  0.012
  0.012  0.067  0.000  0.780  0.141
  0.067  0.012  0.000  0.141  0.780
    occupations:
  0.382  0.000  0.000  0.000  0.000
  0.000  0.359  0.000  0.000  0.013
  0.000  0.000  0.359  0.013  0.000
  0.000  0.000  0.013  0.398  0.000
  0.000  0.013  0.000  0.000  0.398
atom    4   Tr[ns(na)] =   3.79567
    eigenvalues: 
  0.356  0.356  0.382  0.402  0.402
    eigenvectors:
  0.000  0.000  1.000  0.000  0.000
  0.782  0.139  0.000  0.012  0.068
  0.139  0.782  0.000  0.068  0.012
  0.012  0.067  0.000  0.780  0.141
  0.067  0.012  0.000  0.141  0.780
    occupations:
  0.382  0.000  0.000  0.000  0.000
  0.000  0.359  0.000  0.000  0.013
  0.000  0.000  0.359  0.013  0.000
  0.000  0.000  0.013  0.398  0.000
  0.000  0.013  0.000  0.000  0.398
atom    5   Tr[ns(na)] =   5.43245
    eigenvalues: 
  0.842  0.929  0.945
    eigenvectors:
  0.339  0.000  0.661
  0.500  0.245  0.255
  0.162  0.755  0.083
    occupations:
  0.910  0.042  0.024
  0.042  0.890 -0.023
  0.024 -0.023  0.917
atom    6   Tr[ns(na)] =   5.43245
    eigenvalues: 
  0.842  0.929  0.945
    eigenvectors:
  0.339  0.000  0.661
  0.000  1.000  0.000
  0.661  0.000  0.339
    occupations:
  0.910  0.000 -0.048
  0.000  0.929  0.000
 -0.048  0.000  0.877
atom    7   Tr[ns(na)] =   5.43245
    eigenvalues: 
  0.842  0.929  0.945
    eigenvectors:
  0.339  0.000  0.661
  0.492  0.255  0.253
  0.169  0.745  0.086
    occupations:
  0.910 -0.042  0.025
 -0.042  0.890  0.023
  0.025  0.023  0.916
atom    8   Tr[ns(na)] =   5.43245
    eigenvalues: 
  0.842  0.929  0.945
    eigenvectors:
  0.339  0.000  0.661
  0.000  1.000  0.000
  0.661  0.000  0.339
    occupations:
  0.910  0.000 -0.048
  0.000  0.929  0.000
 -0.048  0.000  0.877
atom    9   Tr[ns(na)] =   5.43245
    eigenvalues: 
  0.842  0.929  0.945
    eigenvectors:
  0.339  0.000  0.661
  0.500  0.245  0.255
  0.162  0.755  0.083
    occupations:
  0.910  0.042  0.024
  0.042  0.890 -0.023
  0.024 -0.023  0.917
atom   10   Tr[ns(na)] =   5.43245
    eigenvalues: 
  0.842  0.929  0.945
    eigenvectors:
  0.339  0.000  0.661
  0.492  0.255  0.253
  0.169  0.745  0.086
    occupations:
  0.910 -0.042  0.025
 -0.042  0.890  0.023
  0.025  0.023  0.916
N of occupied +U levels =  56.2849604
 --- exit write_ns ---
 --- in v_hubbard ---
Hubbard energy    0.2121
 -------

     total cpu time spent up to now is       77.3 secs

     total energy              =    -538.12550460 Ry
     Harris-Foulkes estimate   =    -538.12566116 Ry
     estimated scf accuracy    <       0.00584147 Ry

     iteration #  4     ecut=    30.00 Ry     beta=0.20
     Davidson diagonalization with overlap
     ethr =  7.69E-06,  avg # of iterations =  1.0
 --- enter write_ns ---
 LDA+U parameters:
U( 1)     =  2.00000000
alpha( 1) =  0.05000000
U( 2)     =  2.00000000
alpha( 2) =  0.00000000
U( 3)     =  0.00000000
alpha( 3) =  0.00000000
U( 4)     =  0.00000000
alpha( 4) =  0.00000000
atom    1   Tr[ns(na)] =   8.06728
    eigenvalues: 
  0.551  0.551  0.977  0.977  0.978
    eigenvectors:
  0.000  0.000  0.000  0.000  1.000
  0.332  0.324  0.004  0.340  0.000
  0.324  0.332  0.340  0.004  0.000
  0.286  0.058  0.515  0.141  0.000
  0.058  0.286  0.141  0.515  0.000
    occupations:
  0.978  0.000  0.000  0.000  0.000
  0.000  0.698  0.000 -0.073  0.188
  0.000  0.000  0.698  0.188  0.073
  0.000 -0.073  0.188  0.830  0.000
  0.000  0.188  0.073  0.000  0.830
atom    2   Tr[ns(na)] =   8.03964
    eigenvalues: 
  0.547  0.547  0.975  0.975  0.976
    eigenvectors:
  0.000  0.000  0.000  0.000  1.000
  0.637  0.019  0.219  0.125  0.000
  0.019  0.637  0.125  0.219  0.000
  0.012  0.332  0.471  0.185  0.000
  0.332  0.012  0.185  0.471  0.000
    occupations:
  0.976  0.000  0.000  0.000  0.000
  0.000  0.694  0.000  0.072  0.190
  0.000  0.000  0.694  0.190 -0.072
  0.000  0.072  0.190  0.828  0.000
  0.000  0.190 -0.072  0.000  0.828
atom    3   Tr[ns(na)] =   3.79576
    eigenvalues: 
  0.356  0.356  0.382  0.402  0.402
    eigenvectors:
  0.000  0.000  1.000  0.000  0.000
  0.781  0.139  0.000  0.012  0.068
  0.139  0.781  0.000  0.068  0.012
  0.013  0.067  0.000  0.780  0.141
  0.067  0.013  0.000  0.141  0.780
    occupations:
  0.382  0.000  0.000  0.000  0.000
  0.000  0.359  0.000  0.000  0.013
  0.000  0.000  0.359  0.013  0.000
  0.000  0.000  0.013  0.398  0.000
  0.000  0.013  0.000  0.000  0.398
atom    4   Tr[ns(na)] =   3.79576
    eigenvalues: 
  0.356  0.356  0.382  0.402  0.402
    eigenvectors:
  0.000  0.000  1.000  0.000  0.000
  0.781  0.139  0.000  0.012  0.068
  0.139  0.781  0.000  0.068  0.012
  0.013  0.067  0.000  0.780  0.141
  0.067  0.013  0.000  0.141  0.780
    occupations:
  0.382  0.000  0.000  0.000  0.000
  0.000  0.359  0.000  0.000  0.013
  0.000  0.000  0.359  0.013  0.000
  0.000  0.000  0.013  0.398  0.000
  0.000  0.013  0.000  0.000  0.398
atom    5   Tr[ns(na)] =   5.43114
    eigenvalues: 
  0.842  0.929  0.945
    eigenvectors:
  0.339  0.000  0.661
  0.494  0.252  0.254
  0.167  0.748  0.085
    occupations:
  0.910  0.042  0.024
  0.042  0.890 -0.023
  0.024 -0.023  0.916
atom    6   Tr[ns(na)] =   5.43114
    eigenvalues: 
  0.842  0.929  0.945
    eigenvectors:
  0.339  0.000  0.661
  0.000  1.000  0.000
  0.661  0.000  0.339
    occupations:
  0.910  0.000 -0.049
  0.000  0.929  0.000
 -0.049  0.000  0.877
atom    7   Tr[ns(na)] =   5.43114
    eigenvalues: 
  0.842  0.929  0.945
    eigenvectors:
  0.339  0.000  0.661
  0.498  0.248  0.254
  0.164  0.752  0.085
    occupations:
  0.910 -0.042  0.024
 -0.042  0.890  0.023
  0.024  0.023  0.916
atom    8   Tr[ns(na)] =   5.43114
    eigenvalues: 
  0.842  0.929  0.945
    eigenvectors:
  0.339  0.000  0.661
  0.000  1.000  0.000
  0.661  0.000  0.339
    occupations:
  0.910  0.000 -0.049
  0.000  0.929  0.000
 -0.049  0.000  0.877
atom    9   Tr[ns(na)] =   5.43114
    eigenvalues: 
  0.842  0.929  0.945
    eigenvectors:
  0.339  0.000  0.661
  0.494  0.252  0.254
  0.167  0.748  0.085
    occupations:
  0.910  0.042  0.024
  0.042  0.890 -0.023
  0.024 -0.023  0.916
atom   10   Tr[ns(na)] =   5.43114
    eigenvalues: 
  0.842  0.929  0.945
    eigenvectors:
  0.339  0.000  0.661
  0.498  0.248  0.254
  0.164  0.752  0.085
    occupations:
  0.910 -0.042  0.024
 -0.042  0.890  0.023
  0.024  0.023  0.916
N of occupied +U levels =  56.2852932
 --- exit write_ns ---
 --- in v_hubbard ---
Hubbard energy    0.1944
 -------

     total cpu time spent up to now is       92.2 secs

     total energy              =    -538.12618477 Ry
     Harris-Foulkes estimate   =    -538.12575079 Ry
     estimated scf accuracy    <       0.00377233 Ry

     iteration #  5     ecut=    30.00 Ry     beta=0.20
     Davidson diagonalization with overlap
     ethr =  4.96E-06,  avg # of iterations =  1.0
 --- enter write_ns ---
 LDA+U parameters:
U( 1)     =  2.00000000
alpha( 1) =  0.05000000
U( 2)     =  2.00000000
alpha( 2) =  0.00000000
U( 3)     =  0.00000000
alpha( 3) =  0.00000000
U( 4)     =  0.00000000
alpha( 4) =  0.00000000
atom    1   Tr[ns(na)] =   8.05236
    eigenvalues: 
  0.546  0.546  0.978  0.978  0.978
    eigenvectors:
  0.000  0.000  0.000  0.000  1.000
  0.335  0.322  0.004  0.338  0.000
  0.322  0.335  0.338  0.004  0.000
  0.284  0.058  0.517  0.141  0.000
  0.058  0.284  0.141  0.517  0.000
    occupations:
  0.978  0.000  0.000  0.000  0.000
  0.000  0.694  0.000 -0.074  0.191
  0.000  0.000  0.694  0.191  0.074
  0.000 -0.074  0.191  0.830  0.000
  0.000  0.191  0.074  0.000  0.830
atom    2   Tr[ns(na)] =   8.05473
    eigenvalues: 
  0.545  0.545  0.979  0.979  0.979
    eigenvectors:
  0.000  0.000  0.000  0.000  1.000
  0.638  0.020  0.218  0.124  0.000
  0.020  0.638  0.124  0.218  0.000
  0.013  0.329  0.473  0.185  0.000
  0.329  0.013  0.185  0.473  0.000
    occupations:
  0.979  0.000  0.000  0.000  0.000
  0.000  0.694  0.000  0.074  0.192
  0.000  0.000  0.694  0.192 -0.074
  0.000  0.074  0.192  0.830  0.000
  0.000  0.192 -0.074  0.000  0.830
atom    3   Tr[ns(na)] =   3.79696
    eigenvalues: 
  0.356  0.356  0.382  0.402  0.402
    eigenvectors:
  0.000  0.000  1.000  0.000  0.000
  0.783  0.139  0.000  0.011  0.067
  0.139  0.783  0.000  0.067  0.011
  0.012  0.066  0.000  0.781  0.141
  0.066  0.012  0.000  0.141  0.781
    occupations:
  0.382  0.000  0.000  0.000  0.000
  0.000  0.359  0.000  0.000  0.012
  0.000  0.000  0.359  0.012  0.000
  0.000  0.000  0.012  0.399  0.000
  0.000  0.012  0.000  0.000  0.399
atom    4   Tr[ns(na)] =   3.79696
    eigenvalues: 
  0.356  0.356  0.382  0.402  0.402
    eigenvectors:
  0.000  0.000  1.000  0.000  0.000
  0.783  0.138  0.000  0.011  0.067
  0.138  0.783  0.000  0.067  0.011
  0.012  0.066  0.000  0.781  0.141
  0.066  0.012  0.000  0.141  0.781
    occupations:
  0.382  0.000  0.000  0.000  0.000
  0.000  0.359  0.000  0.000  0.012
  0.000  0.000  0.359  0.012  0.000
  0.000  0.000  0.012  0.399  0.000
  0.000  0.012  0.000  0.000  0.399
atom    5   Tr[ns(na)] =   5.43045
    eigenvalues: 
  0.841  0.929  0.945
    eigenvectors:
  0.338  0.000  0.662
  0.496  0.249  0.254
  0.165  0.751  0.084
    occupations:
  0.910  0.042  0.024
  0.042  0.890 -0.023
  0.024 -0.023  0.916
atom    6   Tr[ns(na)] =   5.43045
    eigenvalues: 
  0.841  0.929  0.945
    eigenvectors:
  0.338  0.000  0.662
  0.000  1.000  0.000
  0.662  0.000  0.338
    occupations:
  0.910  0.000 -0.049
  0.000  0.929  0.000
 -0.049  0.000  0.876
atom    7   Tr[ns(na)] =   5.43045
    eigenvalues: 
  0.841  0.929  0.945
    eigenvectors:
  0.338  0.000  0.662
  0.496  0.251  0.253
  0.166  0.749  0.085
    occupations:
  0.910 -0.042  0.024
 -0.042  0.890  0.023
  0.024  0.023  0.916
atom    8   Tr[ns(na)] =   5.43045
    eigenvalues: 
  0.841  0.929  0.945
    eigenvectors:
  0.338  0.000  0.662
  0.000  1.000  0.000
  0.662  0.000  0.338
    occupations:
  0.910  0.000 -0.049
  0.000  0.929  0.000
 -0.049  0.000  0.876
atom    9   Tr[ns(na)] =   5.43045
    eigenvalues: 
  0.841  0.929  0.945
    eigenvectors:
  0.338  0.000  0.662
  0.496  0.249  0.254
  0.165  0.751  0.084
    occupations:
  0.910  0.042  0.024
  0.042  0.890 -0.023
  0.024 -0.023  0.916
atom   10   Tr[ns(na)] =   5.43045
    eigenvalues: 
  0.841  0.929  0.945
    eigenvectors:
  0.338  0.000  0.662
  0.496  0.251  0.253
  0.166  0.749  0.085
    occupations:
  0.910 -0.042  0.024
 -0.042  0.890  0.023
  0.024  0.023  0.916
N of occupied +U levels =  56.2836940
 --- exit write_ns ---
 --- in v_hubbard ---
Hubbard energy    0.1938
 -------

     total cpu time spent up to now is      105.8 secs

     total energy              =    -538.12636436 Ry
     Harris-Foulkes estimate   =    -538.12632914 Ry
     estimated scf accuracy    <       0.00005652 Ry

     iteration #  6     ecut=    30.00 Ry     beta=0.20
     Davidson diagonalization with overlap
     ethr =  7.44E-08,  avg # of iterations =  2.2
 --- enter write_ns ---
 LDA+U parameters:
U( 1)     =  2.00000000
alpha( 1) =  0.05000000
U( 2)     =  2.00000000
alpha( 2) =  0.00000000
U( 3)     =  0.00000000
alpha( 3) =  0.00000000
U( 4)     =  0.00000000
alpha( 4) =  0.00000000
atom    1   Tr[ns(na)] =   8.04531
    eigenvalues: 
  0.545  0.545  0.978  0.978  0.978
    eigenvectors:
  0.000  0.000  0.000  0.000  1.000
  0.335  0.322  0.004  0.338  0.000
  0.322  0.335  0.338  0.004  0.000
  0.284  0.059  0.516  0.141  0.000
  0.059  0.284  0.141  0.516  0.000
    occupations:
  0.978  0.000  0.000  0.000  0.000
  0.000  0.693  0.000 -0.074  0.192
  0.000  0.000  0.693  0.192  0.074
  0.000 -0.074  0.192  0.829  0.000
  0.000  0.192  0.074  0.000  0.829
atom    2   Tr[ns(na)] =   8.05144
    eigenvalues: 
  0.544  0.544  0.979  0.979  0.980
    eigenvectors:
  0.000  0.000  0.000  0.000  1.000
  0.639  0.019  0.219  0.124  0.000
  0.019  0.639  0.124  0.219  0.000
  0.013  0.329  0.473  0.185  0.000
  0.329  0.013  0.185  0.473  0.000
    occupations:
  0.980  0.000  0.000  0.000  0.000
  0.000  0.693  0.000  0.074  0.192
  0.000  0.000  0.693  0.192 -0.074
  0.000  0.074  0.192  0.830  0.000
  0.000  0.192 -0.074  0.000  0.830
atom    3   Tr[ns(na)] =   3.79674
    eigenvalues: 
  0.356  0.356  0.382  0.402  0.402
    eigenvectors:
  0.000  0.000  1.000  0.000  0.000
  0.783  0.139  0.000  0.011  0.067
  0.139  0.783  0.000  0.067  0.011
  0.012  0.066  0.000  0.781  0.141
  0.066  0.012  0.000  0.141  0.781
    occupations:
  0.382  0.000  0.000  0.000  0.000
  0.000  0.359  0.000  0.000  0.012
  0.000  0.000  0.359  0.012  0.000
  0.000  0.000  0.012  0.399  0.000
  0.000  0.012  0.000  0.000  0.399
atom    4   Tr[ns(na)] =   3.79674
    eigenvalues: 
  0.356  0.356  0.382  0.402  0.402
    eigenvectors:
  0.000  0.000  1.000  0.000  0.000
  0.783  0.138  0.000  0.011  0.067
  0.138  0.783  0.000  0.067  0.011
  0.012  0.066  0.000  0.781  0.141
  0.066  0.012  0.000  0.141  0.781
    occupations:
  0.382  0.000  0.000  0.000  0.000
  0.000  0.359  0.000  0.000  0.012
  0.000  0.000  0.359  0.012  0.000
  0.000  0.000  0.012  0.399  0.000
  0.000  0.012  0.000  0.000  0.399
atom    5   Tr[ns(na)] =   5.43205
    eigenvalues: 
  0.842  0.930  0.945
    eigenvectors:
  0.338  0.000  0.662
  0.497  0.249  0.254
  0.165  0.751  0.084
    occupations:
  0.910  0.042  0.024
  0.042  0.890 -0.023
  0.024 -0.023  0.916
atom    6   Tr[ns(na)] =   5.43205
    eigenvalues: 
  0.842  0.930  0.945
    eigenvectors:
  0.338  0.000  0.662
  0.000  1.000  0.000
  0.662  0.000  0.338
    occupations:
  0.910  0.000 -0.049
  0.000  0.930  0.000
 -0.049  0.000  0.877
atom    7   Tr[ns(na)] =   5.43205
    eigenvalues: 
  0.842  0.930  0.945
    eigenvectors:
  0.338  0.000  0.662
  0.496  0.251  0.253
  0.166  0.749  0.085
    occupations:
  0.910 -0.042  0.024
 -0.042  0.890  0.023
  0.024  0.023  0.916
atom    8   Tr[ns(na)] =   5.43205
    eigenvalues: 
  0.842  0.930  0.945
    eigenvectors:
  0.338  0.000  0.662
  0.000  1.000  0.000
  0.662  0.000  0.338
    occupations:
  0.910  0.000 -0.049
  0.000  0.930  0.000
 -0.049  0.000  0.877
atom    9   Tr[ns(na)] =   5.43205
    eigenvalues: 
  0.842  0.930  0.945
    eigenvectors:
  0.338  0.000  0.662
  0.497  0.249  0.254
  0.165  0.751  0.084
    occupations:
  0.910  0.042  0.024
  0.042  0.890 -0.023
  0.024 -0.023  0.916
atom   10   Tr[ns(na)] =   5.43205
    eigenvalues: 
  0.842  0.930  0.945
    eigenvectors:
  0.338  0.000  0.662
  0.496  0.251  0.253
  0.166  0.749  0.085
    occupations:
  0.910 -0.042  0.024
 -0.042  0.890  0.023
  0.024  0.023  0.916
N of occupied +U levels =  56.2825268
 --- exit write_ns ---
 --- in v_hubbard ---
Hubbard energy    0.1938
 -------

     total cpu time spent up to now is      119.9 secs

     total energy              =    -538.12641204 Ry
     Harris-Foulkes estimate   =    -538.12637576 Ry
     estimated scf accuracy    <       0.00001376 Ry

     iteration #  7     ecut=    30.00 Ry     beta=0.20
     Davidson diagonalization with overlap
     ethr =  1.81E-08,  avg # of iterations =  2.0
 --- enter write_ns ---
 LDA+U parameters:
U( 1)     =  2.00000000
alpha( 1) =  0.05000000
U( 2)     =  2.00000000
alpha( 2) =  0.00000000
U( 3)     =  0.00000000
alpha( 3) =  0.00000000
U( 4)     =  0.00000000
alpha( 4) =  0.00000000
atom    1   Tr[ns(na)] =   8.04776
    eigenvalues: 
  0.545  0.545  0.978  0.978  0.979
    eigenvectors:
  0.000  0.000  0.000  0.000  1.000
  0.334  0.323  0.004  0.339  0.000
  0.323  0.334  0.339  0.004  0.000
  0.285  0.058  0.516  0.141  0.000
  0.058  0.285  0.141  0.516  0.000
    occupations:
  0.979  0.000  0.000  0.000  0.000
  0.000  0.693  0.000 -0.074  0.192
  0.000  0.000  0.693  0.192  0.074
  0.000 -0.074  0.192  0.829  0.000
  0.000  0.192  0.074  0.000  0.829
atom    2   Tr[ns(na)] =   8.05124
    eigenvalues: 
  0.544  0.544  0.979  0.979  0.980
    eigenvectors:
  0.000  0.000  0.000  0.000  1.000
  0.638  0.019  0.219  0.124  0.000
  0.019  0.638  0.124  0.219  0.000
  0.013  0.330  0.472  0.185  0.000
  0.330  0.013  0.185  0.472  0.000
    occupations:
  0.980  0.000  0.000  0.000  0.000
  0.000  0.693  0.000  0.074  0.193
  0.000  0.000  0.693  0.193 -0.074
  0.000  0.074  0.193  0.830  0.000
  0.000  0.193 -0.074  0.000  0.830
atom    3   Tr[ns(na)] =   3.79623
    eigenvalues: 
  0.356  0.356  0.382  0.402  0.402
    eigenvectors:
  0.000  0.000  1.000  0.000  0.000
  0.782  0.139  0.000  0.012  0.067
  0.139  0.782  0.000  0.067  0.012
  0.012  0.066  0.000  0.781  0.141
  0.066  0.012  0.000  0.141  0.781
    occupations:
  0.382  0.000  0.000  0.000  0.000
  0.000  0.359  0.000  0.000  0.012
  0.000  0.000  0.359  0.012  0.000
  0.000  0.000  0.012  0.398  0.000
  0.000  0.012  0.000  0.000  0.398
atom    4   Tr[ns(na)] =   3.79623
    eigenvalues: 
  0.356  0.356  0.382  0.402  0.402
    eigenvectors:
  0.000  0.000  1.000  0.000  0.000
  0.782  0.139  0.000  0.012  0.067
  0.139  0.782  0.000  0.067  0.012
  0.012  0.066  0.000  0.780  0.141
  0.066  0.012  0.000  0.141  0.780
    occupations:
  0.382  0.000  0.000  0.000  0.000
  0.000  0.359  0.000  0.000  0.012
  0.000  0.000  0.359  0.012  0.000
  0.000  0.000  0.012  0.398  0.000
  0.000  0.012  0.000  0.000  0.398
atom    5   Tr[ns(na)] =   5.43182
    eigenvalues: 
  0.842  0.929  0.945
    eigenvectors:
  0.339  0.000  0.661
  0.496  0.249  0.254
  0.165  0.751  0.084
    occupations:
  0.910  0.042  0.024
  0.042  0.890 -0.023
  0.024 -0.023  0.916
atom    6   Tr[ns(na)] =   5.43182
    eigenvalues: 
  0.842  0.929  0.945
    eigenvectors:
  0.339  0.000  0.661
  0.000  1.000  0.000
  0.661  0.000  0.339
    occupations:
  0.910  0.000 -0.049
  0.000  0.929  0.000
 -0.049  0.000  0.877
atom    7   Tr[ns(na)] =   5.43182
    eigenvalues: 
  0.842  0.929  0.945
    eigenvectors:
  0.339  0.000  0.661
  0.496  0.251  0.253
  0.166  0.749  0.085
    occupations:
  0.910 -0.042  0.024
 -0.042  0.890  0.023
  0.024  0.023  0.916
atom    8   Tr[ns(na)] =   5.43182
    eigenvalues: 
  0.842  0.929  0.945
    eigenvectors:
  0.339  0.000  0.661
  0.000  1.000  0.000
  0.661  0.000  0.339
    occupations:
  0.910  0.000 -0.049
  0.000  0.929  0.000
 -0.049  0.000  0.877
atom    9   Tr[ns(na)] =   5.43182
    eigenvalues: 
  0.842  0.929  0.945
    eigenvectors:
  0.339  0.000  0.661
  0.496  0.249  0.254
  0.165  0.751  0.084
    occupations:
  0.910  0.042  0.024
  0.042  0.890 -0.023
  0.024 -0.023  0.916
atom   10   Tr[ns(na)] =   5.43182
    eigenvalues: 
  0.842  0.929  0.945
    eigenvectors:
  0.339  0.000  0.661
  0.496  0.251  0.253
  0.166  0.749  0.085
    occupations:
  0.910 -0.042  0.024
 -0.042  0.890  0.023
  0.024  0.023  0.916
N of occupied +U levels =  56.2823623
 --- exit write_ns ---
 --- in v_hubbard ---
Hubbard energy    0.1939
 -------

     total cpu time spent up to now is      133.5 secs

     total energy              =    -538.12644391 Ry
     Harris-Foulkes estimate   =    -538.12641395 Ry
     estimated scf accuracy    <       0.00000156 Ry

     iteration #  8     ecut=    30.00 Ry     beta=0.20
     Davidson diagonalization with overlap
     ethr =  2.05E-09,  avg # of iterations =  2.4
 --- enter write_ns ---
 LDA+U parameters:
U( 1)     =  2.00000000
alpha( 1) =  0.05000000
U( 2)     =  2.00000000
alpha( 2) =  0.00000000
U( 3)     =  0.00000000
alpha( 3) =  0.00000000
U( 4)     =  0.00000000
alpha( 4) =  0.00000000
atom    1   Tr[ns(na)] =   8.04739
    eigenvalues: 
  0.545  0.545  0.978  0.978  0.979
    eigenvectors:
  0.000  0.000  0.000  0.000  1.000
  0.334  0.323  0.004  0.339  0.000
  0.323  0.334  0.339  0.004  0.000
  0.285  0.058  0.516  0.141  0.000
  0.058  0.285  0.141  0.516  0.000
    occupations:
  0.979  0.000  0.000  0.000  0.000
  0.000  0.693  0.000 -0.074  0.192
  0.000  0.000  0.693  0.192  0.074
  0.000 -0.074  0.192  0.829  0.000
  0.000  0.192  0.074  0.000  0.829
atom    2   Tr[ns(na)] =   8.05179
    eigenvalues: 
  0.544  0.544  0.979  0.979  0.980
    eigenvectors:
  0.000  0.000  0.000  0.000  1.000
  0.638  0.019  0.219  0.124  0.000
  0.019  0.638  0.124  0.219  0.000
  0.013  0.330  0.472  0.185  0.000
  0.330  0.013  0.185  0.472  0.000
    occupations:
  0.980  0.000  0.000  0.000  0.000
  0.000  0.693  0.000  0.074  0.192
  0.000  0.000  0.693  0.192 -0.074
  0.000  0.074  0.192  0.830  0.000
  0.000  0.192 -0.074  0.000  0.830
atom    3   Tr[ns(na)] =   3.79627
    eigenvalues: 
  0.356  0.356  0.382  0.402  0.402
    eigenvectors:
  0.000  0.000  1.000  0.000  0.000
  0.782  0.139  0.000  0.012  0.067
  0.139  0.782  0.000  0.067  0.012
  0.012  0.066  0.000  0.781  0.141
  0.066  0.012  0.000  0.141  0.781
    occupations:
  0.382  0.000  0.000  0.000  0.000
  0.000  0.359  0.000  0.000  0.012
  0.000  0.000  0.359  0.012  0.000
  0.000  0.000  0.012  0.398  0.000
  0.000  0.012  0.000  0.000  0.398
atom    4   Tr[ns(na)] =   3.79627
    eigenvalues: 
  0.356  0.356  0.382  0.402  0.402
    eigenvectors:
  0.000  0.000  1.000  0.000  0.000
  0.782  0.139  0.000  0.012  0.067
  0.139  0.782  0.000  0.067  0.012
  0.012  0.066  0.000  0.781  0.141
  0.066  0.012  0.000  0.141  0.781
    occupations:
  0.382  0.000  0.000  0.000  0.000
  0.000  0.359  0.000  0.000  0.012
  0.000  0.000  0.359  0.012  0.000
  0.000  0.000  0.012  0.398  0.000
  0.000  0.012  0.000  0.000  0.398
atom    5   Tr[ns(na)] =   5.43178
    eigenvalues: 
  0.842  0.929  0.945
    eigenvectors:
  0.339  0.000  0.661
  0.496  0.249  0.254
  0.165  0.751  0.084
    occupations:
  0.910  0.042  0.024
  0.042  0.890 -0.023
  0.024 -0.023  0.916
atom    6   Tr[ns(na)] =   5.43178
    eigenvalues: 
  0.842  0.929  0.945
    eigenvectors:
  0.339  0.000  0.661
  0.000  1.000  0.000
  0.661  0.000  0.339
    occupations:
  0.910  0.000 -0.049
  0.000  0.929  0.000
 -0.049  0.000  0.877
atom    7   Tr[ns(na)] =   5.43178
    eigenvalues: 
  0.842  0.929  0.945
    eigenvectors:
  0.339  0.000  0.661
  0.496  0.251  0.253
  0.166  0.749  0.085
    occupations:
  0.910 -0.042  0.024
 -0.042  0.890  0.023
  0.024  0.023  0.916
atom    8   Tr[ns(na)] =   5.43178
    eigenvalues: 
  0.842  0.929  0.945
    eigenvectors:
  0.339  0.000  0.661
  0.000  1.000  0.000
  0.661  0.000  0.339
    occupations:
  0.910  0.000 -0.049
  0.000  0.929  0.000
 -0.049  0.000  0.877
atom    9   Tr[ns(na)] =   5.43178
    eigenvalues: 
  0.842  0.929  0.945
    eigenvectors:
  0.339  0.000  0.661
  0.496  0.249  0.254
  0.165  0.751  0.084
    occupations:
  0.910  0.042  0.024
  0.042  0.890 -0.023
  0.024 -0.023  0.916
atom   10   Tr[ns(na)] =   5.43178
    eigenvalues: 
  0.842  0.929  0.945
    eigenvectors:
  0.339  0.000  0.661
  0.496  0.251  0.253
  0.166  0.749  0.085
    occupations:
  0.910 -0.042  0.024
 -0.042  0.890  0.023
  0.024  0.023  0.916
N of occupied +U levels =  56.2823840
 --- exit write_ns ---
 --- in v_hubbard ---
Hubbard energy    0.1939
 -------

     total cpu time spent up to now is      146.9 secs

     total energy              =    -538.12646254 Ry
     Harris-Foulkes estimate   =    -538.12644404 Ry
     estimated scf accuracy    <       0.00000041 Ry

     iteration #  9     ecut=    30.00 Ry     beta=0.20
     Davidson diagonalization with overlap
     ethr =  5.37E-10,  avg # of iterations =  2.0
 --- enter write_ns ---
 LDA+U parameters:
U( 1)     =  2.00000000
alpha( 1) =  0.05000000
U( 2)     =  2.00000000
alpha( 2) =  0.00000000
U( 3)     =  0.00000000
alpha( 3) =  0.00000000
U( 4)     =  0.00000000
alpha( 4) =  0.00000000
atom    1   Tr[ns(na)] =   8.04709
    eigenvalues: 
  0.545  0.545  0.978  0.978  0.979
    eigenvectors:
  0.000  0.000  0.000  0.000  1.000
  0.334  0.323  0.004  0.339  0.000
  0.323  0.334  0.339  0.004  0.000
  0.285  0.058  0.516  0.141  0.000
  0.058  0.285  0.141  0.516  0.000
    occupations:
  0.979  0.000  0.000  0.000  0.000
  0.000  0.693  0.000 -0.074  0.192
  0.000  0.000  0.693  0.192  0.074
  0.000 -0.074  0.192  0.829  0.000
  0.000  0.192  0.074  0.000  0.829
atom    2   Tr[ns(na)] =   8.05180
    eigenvalues: 
  0.544  0.544  0.979  0.979  0.980
    eigenvectors:
  0.000  0.000  0.000  0.000  1.000
  0.638  0.019  0.219  0.124  0.000
  0.019  0.638  0.124  0.219  0.000
  0.013  0.330  0.472  0.185  0.000
  0.330  0.013  0.185  0.472  0.000
    occupations:
  0.980  0.000  0.000  0.000  0.000
  0.000  0.693  0.000  0.074  0.192
  0.000  0.000  0.693  0.192 -0.074
  0.000  0.074  0.192  0.830  0.000
  0.000  0.192 -0.074  0.000  0.830
atom    3   Tr[ns(na)] =   3.79643
    eigenvalues: 
  0.356  0.356  0.382  0.402  0.402
    eigenvectors:
  0.000  0.000  1.000  0.000  0.000
  0.782  0.139  0.000  0.012  0.067
  0.139  0.782  0.000  0.067  0.012
  0.012  0.066  0.000  0.781  0.141
  0.066  0.012  0.000  0.141  0.781
    occupations:
  0.382  0.000  0.000  0.000  0.000
  0.000  0.359  0.000  0.000  0.012
  0.000  0.000  0.359  0.012  0.000
  0.000  0.000  0.012  0.398  0.000
  0.000  0.012  0.000  0.000  0.398
atom    4   Tr[ns(na)] =   3.79643
    eigenvalues: 
  0.356  0.356  0.382  0.402  0.402
    eigenvectors:
  0.000  0.000  1.000  0.000  0.000
  0.782  0.139  0.000  0.012  0.067
  0.139  0.782  0.000  0.067  0.012
  0.012  0.066  0.000  0.780  0.141
  0.066  0.012  0.000  0.141  0.780
    occupations:
  0.382  0.000  0.000  0.000  0.000
  0.000  0.359  0.000  0.000  0.012
  0.000  0.000  0.359  0.012  0.000
  0.000  0.000  0.012  0.398  0.000
  0.000  0.012  0.000  0.000  0.398
atom    5   Tr[ns(na)] =   5.43178
    eigenvalues: 
  0.842  0.929  0.945
    eigenvectors:
  0.339  0.000  0.661
  0.496  0.249  0.254
  0.165  0.751  0.084
    occupations:
  0.910  0.042  0.024
  0.042  0.890 -0.023
  0.024 -0.023  0.916
atom    6   Tr[ns(na)] =   5.43178
    eigenvalues: 
  0.842  0.929  0.945
    eigenvectors:
  0.339  0.000  0.661
  0.000  1.000  0.000
  0.661  0.000  0.339
    occupations:
  0.910  0.000 -0.049
  0.000  0.929  0.000
 -0.049  0.000  0.877
atom    7   Tr[ns(na)] =   5.43178
    eigenvalues: 
  0.842  0.929  0.945
    eigenvectors:
  0.339  0.000  0.661
  0.496  0.251  0.253
  0.166  0.749  0.085
    occupations:
  0.910 -0.042  0.024
 -0.042  0.890  0.023
  0.024  0.023  0.916
atom    8   Tr[ns(na)] =   5.43178
    eigenvalues: 
  0.842  0.929  0.945
    eigenvectors:
  0.339  0.000  0.661
  0.000  1.000  0.000
  0.661  0.000  0.339
    occupations:
  0.910  0.000 -0.049
  0.000  0.929  0.000
 -0.049  0.000  0.877
atom    9   Tr[ns(na)] =   5.43178
    eigenvalues: 
  0.842  0.929  0.945
    eigenvectors:
  0.339  0.000  0.661
  0.496  0.249  0.254
  0.165  0.751  0.084
    occupations:
  0.910  0.042  0.024
  0.042  0.890 -0.023
  0.024 -0.023  0.916
atom   10   Tr[ns(na)] =   5.43178
    eigenvalues: 
  0.842  0.929  0.945
    eigenvectors:
  0.339  0.000  0.661
  0.496  0.251  0.253
  0.166  0.749  0.085
    occupations:
  0.910 -0.042  0.024
 -0.042  0.890  0.023
  0.024  0.023  0.916
N of occupied +U levels =  56.2824349
 --- exit write_ns ---
 --- in v_hubbard ---
Hubbard energy    0.1939
 -------

     total cpu time spent up to now is      161.2 secs

     total energy              =    -538.12647479 Ry
     Harris-Foulkes estimate   =    -538.12646260 Ry
     estimated scf accuracy    <       0.00000004 Ry

     iteration # 10     ecut=    30.00 Ry     beta=0.20
     Davidson diagonalization with overlap
     ethr =  5.32E-11,  avg # of iterations =  2.0
 --- enter write_ns ---
 LDA+U parameters:
U( 1)     =  2.00000000
alpha( 1) =  0.05000000
U( 2)     =  2.00000000
alpha( 2) =  0.00000000
U( 3)     =  0.00000000
alpha( 3) =  0.00000000
U( 4)     =  0.00000000
alpha( 4) =  0.00000000
atom    1   Tr[ns(na)] =   8.04724
    eigenvalues: 
  0.545  0.545  0.978  0.978  0.979
    eigenvectors:
  0.000  0.000  0.000  0.000  1.000
  0.334  0.323  0.004  0.339  0.000
  0.323  0.334  0.339  0.004  0.000
  0.285  0.058  0.516  0.141  0.000
  0.058  0.285  0.141  0.516  0.000
    occupations:
  0.979  0.000  0.000  0.000  0.000
  0.000  0.693  0.000 -0.074  0.192
  0.000  0.000  0.693  0.192  0.074
  0.000 -0.074  0.192  0.829  0.000
  0.000  0.192  0.074  0.000  0.829
atom    2   Tr[ns(na)] =   8.05185
    eigenvalues: 
  0.544  0.544  0.979  0.979  0.980
    eigenvectors:
  0.000  0.000  0.000  0.000  1.000
  0.638  0.019  0.219  0.124  0.000
  0.019  0.638  0.124  0.219  0.000
  0.013  0.330  0.472  0.185  0.000
  0.330  0.013  0.185  0.472  0.000
    occupations:
  0.980  0.000  0.000  0.000  0.000
  0.000  0.693  0.000  0.074  0.192
  0.000  0.000  0.693  0.192 -0.074
  0.000  0.074  0.192  0.830  0.000
  0.000  0.192 -0.074  0.000  0.830
atom    3   Tr[ns(na)] =   3.79640
    eigenvalues: 
  0.356  0.356  0.382  0.402  0.402
    eigenvectors:
  0.000  0.000  1.000  0.000  0.000
  0.782  0.139  0.000  0.012  0.067
  0.139  0.782  0.000  0.067  0.012
  0.012  0.066  0.000  0.780  0.141
  0.066  0.012  0.000  0.141  0.780
    occupations:
  0.382  0.000  0.000  0.000  0.000
  0.000  0.359  0.000  0.000  0.012
  0.000  0.000  0.359  0.012  0.000
  0.000  0.000  0.012  0.398  0.000
  0.000  0.012  0.000  0.000  0.398
atom    4   Tr[ns(na)] =   3.79640
    eigenvalues: 
  0.356  0.356  0.382  0.402  0.402
    eigenvectors:
  0.000  0.000  1.000  0.000  0.000
  0.782  0.139  0.000  0.012  0.067
  0.139  0.782  0.000  0.067  0.012
  0.012  0.066  0.000  0.780  0.141
  0.066  0.012  0.000  0.141  0.780
    occupations:
  0.382  0.000  0.000  0.000  0.000
  0.000  0.359  0.000  0.000  0.012
  0.000  0.000  0.359  0.012  0.000
  0.000  0.000  0.012  0.398  0.000
  0.000  0.012  0.000  0.000  0.398
atom    5   Tr[ns(na)] =   5.43176
    eigenvalues: 
  0.842  0.929  0.945
    eigenvectors:
  0.339  0.000  0.661
  0.496  0.249  0.254
  0.165  0.751  0.084
    occupations:
  0.910  0.042  0.024
  0.042  0.890 -0.023
  0.024 -0.023  0.916
atom    6   Tr[ns(na)] =   5.43176
    eigenvalues: 
  0.842  0.929  0.945
    eigenvectors:
  0.339  0.000  0.661
  0.000  1.000  0.000
  0.661  0.000  0.339
    occupations:
  0.910  0.000 -0.049
  0.000  0.929  0.000
 -0.049  0.000  0.877
atom    7   Tr[ns(na)] =   5.43176
    eigenvalues: 
  0.842  0.929  0.945
    eigenvectors:
  0.339  0.000  0.661
  0.496  0.251  0.253
  0.166  0.749  0.085
    occupations:
  0.910 -0.042  0.024
 -0.042  0.890  0.023
  0.024  0.023  0.916
atom    8   Tr[ns(na)] =   5.43176
    eigenvalues: 
  0.842  0.929  0.945
    eigenvectors:
  0.339  0.000  0.661
  0.000  1.000  0.000
  0.661  0.000  0.339
    occupations:
  0.910  0.000 -0.049
  0.000  0.929  0.000
 -0.049  0.000  0.877
atom    9   Tr[ns(na)] =   5.43176
    eigenvalues: 
  0.842  0.929  0.945
    eigenvectors:
  0.339  0.000  0.661
  0.496  0.249  0.254
  0.165  0.751  0.084
    occupations:
  0.910  0.042  0.024
  0.042  0.890 -0.023
  0.024 -0.023  0.916
atom   10   Tr[ns(na)] =   5.43176
    eigenvalues: 
  0.842  0.929  0.945
    eigenvectors:
  0.339  0.000  0.661
  0.496  0.251  0.253
  0.166  0.749  0.085
    occupations:
  0.910 -0.042  0.024
 -0.042  0.890  0.023
  0.024  0.023  0.916
N of occupied +U levels =  56.2824294
 --- exit write_ns ---
 --- in v_hubbard ---
Hubbard energy    0.1940
 -------

     total cpu time spent up to now is      174.9 secs

     total energy              =    -538.12648260 Ry
     Harris-Foulkes estimate   =    -538.12647479 Ry
     estimated scf accuracy    <       0.00000004 Ry

     iteration # 11     ecut=    30.00 Ry     beta=0.20
     Davidson diagonalization with overlap
     ethr =  5.22E-11,  avg # of iterations =  2.0
 --- enter write_ns ---
 LDA+U parameters:
U( 1)     =  2.00000000
alpha( 1) =  0.05000000
U( 2)     =  2.00000000
alpha( 2) =  0.00000000
U( 3)     =  0.00000000
alpha( 3) =  0.00000000
U( 4)     =  0.00000000
alpha( 4) =  0.00000000
atom    1   Tr[ns(na)] =   8.04710
    eigenvalues: 
  0.545  0.545  0.978  0.978  0.979
    eigenvectors:
  0.000  0.000  0.000  0.000  1.000
  0.335  0.323  0.004  0.339  0.000
  0.323  0.335  0.339  0.004  0.000
  0.284  0.058  0.516  0.141  0.000
  0.058  0.284  0.141  0.516  0.000
    occupations:
  0.979  0.000  0.000  0.000  0.000
  0.000  0.693  0.000 -0.074  0.192
  0.000  0.000  0.693  0.192  0.074
  0.000 -0.074  0.192  0.829  0.000
  0.000  0.192  0.074  0.000  0.829
atom    2   Tr[ns(na)] =   8.05179
    eigenvalues: 
  0.544  0.544  0.979  0.979  0.980
    eigenvectors:
  0.000  0.000  0.000  0.000  1.000
  0.638  0.019  0.219  0.124  0.000
  0.019  0.638  0.124  0.219  0.000
  0.013  0.330  0.472  0.185  0.000
  0.330  0.013  0.185  0.472  0.000
    occupations:
  0.980  0.000  0.000  0.000  0.000
  0.000  0.693  0.000  0.074  0.192
  0.000  0.000  0.693  0.192 -0.074
  0.000  0.074  0.192  0.830  0.000
  0.000  0.192 -0.074  0.000  0.830
atom    3   Tr[ns(na)] =   3.79633
    eigenvalues: 
  0.356  0.356  0.382  0.402  0.402
    eigenvectors:
  0.000  0.000  1.000  0.000  0.000
  0.782  0.139  0.000  0.012  0.067
  0.139  0.782  0.000  0.067  0.012
  0.012  0.066  0.000  0.781  0.141
  0.066  0.012  0.000  0.141  0.781
    occupations:
  0.382  0.000  0.000  0.000  0.000
  0.000  0.359  0.000  0.000  0.012
  0.000  0.000  0.359  0.012  0.000
  0.000  0.000  0.012  0.398  0.000
  0.000  0.012  0.000  0.000  0.398
atom    4   Tr[ns(na)] =   3.79633
    eigenvalues: 
  0.356  0.356  0.382  0.402  0.402
    eigenvectors:
  0.000  0.000  1.000  0.000  0.000
  0.783  0.139  0.000  0.012  0.067
  0.139  0.783  0.000  0.067  0.012
  0.012  0.066  0.000  0.781  0.141
  0.066  0.012  0.000  0.141  0.781
    occupations:
  0.382  0.000  0.000  0.000  0.000
  0.000  0.359  0.000  0.000  0.012
  0.000  0.000  0.359  0.012  0.000
  0.000  0.000  0.012  0.398  0.000
  0.000  0.012  0.000  0.000  0.398
atom    5   Tr[ns(na)] =   5.43180
    eigenvalues: 
  0.842  0.929  0.945
    eigenvectors:
  0.339  0.000  0.661
  0.496  0.249  0.254
  0.165  0.751  0.084
    occupations:
  0.910  0.042  0.024
  0.042  0.890 -0.023
  0.024 -0.023  0.916
atom    6   Tr[ns(na)] =   5.43180
    eigenvalues: 
  0.842  0.929  0.945
    eigenvectors:
  0.339  0.000  0.661
  0.000  1.000  0.000
  0.661  0.000  0.339
    occupations:
  0.910  0.000 -0.049
  0.000  0.929  0.000
 -0.049  0.000  0.877
atom    7   Tr[ns(na)] =   5.43180
    eigenvalues: 
  0.842  0.929  0.945
    eigenvectors:
  0.339  0.000  0.661
  0.496  0.251  0.253
  0.166  0.749  0.085
    occupations:
  0.910 -0.042  0.024
 -0.042  0.890  0.023
  0.024  0.023  0.916
atom    8   Tr[ns(na)] =   5.43180
    eigenvalues: 
  0.842  0.929  0.945
    eigenvectors:
  0.339  0.000  0.661
  0.000  1.000  0.000
  0.661  0.000  0.339
    occupations:
  0.910  0.000 -0.049
  0.000  0.929  0.000
 -0.049  0.000  0.877
atom    9   Tr[ns(na)] =   5.43180
    eigenvalues: 
  0.842  0.929  0.945
    eigenvectors:
  0.339  0.000  0.661
  0.496  0.249  0.254
  0.165  0.751  0.084
    occupations:
  0.910  0.042  0.024
  0.042  0.890 -0.023
  0.024 -0.023  0.916
atom   10   Tr[ns(na)] =   5.43180
    eigenvalues: 
  0.842  0.929  0.945
    eigenvectors:
  0.339  0.000  0.661
  0.496  0.251  0.253
  0.166  0.749  0.085
    occupations:
  0.910 -0.042  0.024
 -0.042  0.890  0.023
  0.024  0.023  0.916
N of occupied +U levels =  56.2823633
 --- exit write_ns ---
 --- in v_hubbard ---
Hubbard energy    0.1940
 -------

     total cpu time spent up to now is      192.0 secs

     total energy              =    -538.12648760 Ry
     Harris-Foulkes estimate   =    -538.12648260 Ry
     estimated scf accuracy    <       0.00000001 Ry

     iteration # 12     ecut=    30.00 Ry     beta=0.20
     Davidson diagonalization with overlap
     ethr =  1.62E-11,  avg # of iterations =  1.0
 --- enter write_ns ---
 LDA+U parameters:
U( 1)     =  2.00000000
alpha( 1) =  0.05000000
U( 2)     =  2.00000000
alpha( 2) =  0.00000000
U( 3)     =  0.00000000
alpha( 3) =  0.00000000
U( 4)     =  0.00000000
alpha( 4) =  0.00000000
atom    1   Tr[ns(na)] =   8.04711
    eigenvalues: 
  0.545  0.545  0.978  0.978  0.979
    eigenvectors:
  0.000  0.000  0.000  0.000  1.000
  0.335  0.322  0.004  0.339  0.000
  0.322  0.335  0.339  0.004  0.000
  0.284  0.058  0.516  0.141  0.000
  0.058  0.284  0.141  0.516  0.000
    occupations:
  0.979  0.000  0.000  0.000  0.000
  0.000  0.693  0.000 -0.074  0.192
  0.000  0.000  0.693  0.192  0.074
  0.000 -0.074  0.192  0.829  0.000
  0.000  0.192  0.074  0.000  0.829
atom    2   Tr[ns(na)] =   8.05184
    eigenvalues: 
  0.544  0.544  0.979  0.979  0.980
    eigenvectors:
  0.000  0.000  0.000  0.000  1.000
  0.638  0.019  0.219  0.124  0.000
  0.019  0.638  0.124  0.219  0.000
  0.013  0.330  0.472  0.185  0.000
  0.330  0.013  0.185  0.472  0.000
    occupations:
  0.980  0.000  0.000  0.000  0.000
  0.000  0.693  0.000  0.074  0.192
  0.000  0.000  0.693  0.192 -0.074
  0.000  0.074  0.192  0.830  0.000
  0.000  0.192 -0.074  0.000  0.830
atom    3   Tr[ns(na)] =   3.79634
    eigenvalues: 
  0.356  0.356  0.382  0.402  0.402
    eigenvectors:
  0.000  0.000  1.000  0.000  0.000
  0.782  0.139  0.000  0.012  0.067
  0.139  0.782  0.000  0.067  0.012
  0.012  0.066  0.000  0.781  0.141
  0.066  0.012  0.000  0.141  0.781
    occupations:
  0.382  0.000  0.000  0.000  0.000
  0.000  0.359  0.000  0.000  0.012
  0.000  0.000  0.359  0.012  0.000
  0.000  0.000  0.012  0.398  0.000
  0.000  0.012  0.000  0.000  0.398
atom    4   Tr[ns(na)] =   3.79634
    eigenvalues: 
  0.356  0.356  0.382  0.402  0.402
    eigenvectors:
  0.000  0.000  1.000  0.000  0.000
  0.782  0.139  0.000  0.012  0.067
  0.139  0.782  0.000  0.067  0.012
  0.012  0.066  0.000  0.781  0.141
  0.066  0.012  0.000  0.141  0.781
    occupations:
  0.382  0.000  0.000  0.000  0.000
  0.000  0.359  0.000  0.000  0.012
  0.000  0.000  0.359  0.012  0.000
  0.000  0.000  0.012  0.398  0.000
  0.000  0.012  0.000  0.000  0.398
atom    5   Tr[ns(na)] =   5.43179
    eigenvalues: 
  0.842  0.929  0.945
    eigenvectors:
  0.339  0.000  0.661
  0.496  0.249  0.254
  0.165  0.751  0.084
    occupations:
  0.910  0.042  0.024
  0.042  0.890 -0.023
  0.024 -0.023  0.916
atom    6   Tr[ns(na)] =   5.43179
    eigenvalues: 
  0.842  0.929  0.945
    eigenvectors:
  0.339  0.000  0.661
  0.000  1.000  0.000
  0.661  0.000  0.339
    occupations:
  0.910  0.000 -0.049
  0.000  0.929  0.000
 -0.049  0.000  0.877
atom    7   Tr[ns(na)] =   5.43179
    eigenvalues: 
  0.842  0.929  0.945
    eigenvectors:
  0.339  0.000  0.661
  0.496  0.251  0.253
  0.166  0.749  0.085
    occupations:
  0.910 -0.042  0.024
 -0.042  0.890  0.023
  0.024  0.023  0.916
atom    8   Tr[ns(na)] =   5.43179
    eigenvalues: 
  0.842  0.929  0.945
    eigenvectors:
  0.339  0.000  0.661
  0.000  1.000  0.000
  0.661  0.000  0.339
    occupations:
  0.910  0.000 -0.049
  0.000  0.929  0.000
 -0.049  0.000  0.877
atom    9   Tr[ns(na)] =   5.43179
    eigenvalues: 
  0.842  0.929  0.945
    eigenvectors:
  0.339  0.000  0.661
  0.496  0.249  0.254
  0.165  0.751  0.084
    occupations:
  0.910  0.042  0.024
  0.042  0.890 -0.023
  0.024 -0.023  0.916
atom   10   Tr[ns(na)] =   5.43179
    eigenvalues: 
  0.842  0.929  0.945
    eigenvectors:
  0.339  0.000  0.661
  0.496  0.251  0.253
  0.166  0.749  0.085
    occupations:
  0.910 -0.042  0.024
 -0.042  0.890  0.023
  0.024  0.023  0.916
N of occupied +U levels =  56.2823762
 --- exit write_ns ---
 --- in v_hubbard ---
Hubbard energy    0.1940
 -------

     total cpu time spent up to now is      210.8 secs

     End of self-consistent calculation

          k = 0.0000 0.0000 0.0000 (  2175 PWs)   bands (ev):

   -19.7971 -19.6239  -6.5474  -5.8332  -5.8332  -5.8231  -5.8231  -5.4826
    -3.7903  -3.2599  -3.2188  -3.2188  -3.0244  -3.0244   5.1876   6.8736
     6.8736   7.4363   7.4363   7.4820   7.5162   7.5162   7.7123   9.2944
     9.5137   9.6197   9.6197   9.6996   9.6996  10.1119  10.1119  10.3590
    10.4598  10.4598  10.6746  11.2973  11.2973  11.7642  12.0608  12.0608
    14.7585  14.7585  15.4276  15.4276  16.1979  16.7856

     occupation numbers 
     0.0313   0.0313   0.0313   0.0313   0.0313   0.0313   0.0313   0.0313
     0.0313   0.0313   0.0313   0.0313   0.0313   0.0313   0.0313   0.0313
     0.0313   0.0313   0.0313   0.0313   0.0313   0.0313   0.0313   0.0313
     0.0312   0.0312   0.0312   0.0312   0.0312   0.0312   0.0312   0.0312
     0.0312   0.0312   0.0312   0.0306   0.0306   0.0205   0.0083   0.0083
     0.0000   0.0000   0.0000   0.0000   0.0000   0.0000

          k =-0.2471-0.1427 0.1027 (  2181 PWs)   bands (ev):

   -19.7704 -19.6531  -6.7261  -6.2898  -5.9413  -5.8472  -5.6099  -5.4774
    -3.5962  -3.3923  -2.9321  -2.9038  -2.8498  -2.7599   5.5466   6.8606
     6.9722   6.9895   7.0308   7.4113   7.4423   7.5269   7.6265   8.4376
     8.4867   9.0763   9.6386   9.7526   9.7768  10.0021  10.3473  10.3575
    10.5353  10.5375  10.6657  11.4507  11.5179  11.5568  12.3204  12.3891
    14.3039  14.3129  15.8157  16.0698  16.9725  17.2665

     occupation numbers 
     0.1875   0.1875   0.1875   0.1875   0.1875   0.1875   0.1875   0.1875
     0.1875   0.1875   0.1875   0.1875   0.1875   0.1875   0.1875   0.1875
     0.1875   0.1875   0.1875   0.1875   0.1875   0.1875   0.1875   0.1875
     0.1875   0.1875   0.1875   0.1875   0.1875   0.1875   0.1875   0.1875
     0.1875   0.1875   0.1875   0.1746   0.1678   0.1628   0.0119   0.0073
     0.0000   0.0000   0.0000   0.0000   0.0000   0.0000

          k = 0.4942 0.2853-0.2053 (  2202 PWs)   bands (ev):

   -19.7132 -19.7128  -6.7259  -6.7130  -5.9607  -5.9541  -5.5227  -5.5148
    -3.3818  -3.3798  -2.7896  -2.7889  -2.5069  -2.5050   6.0359   6.0380
     7.1500   7.1569   7.2226   7.2288   7.4975   7.5140   7.7048   7.7186
     7.9186   7.9351   9.4751   9.4826   9.8642   9.8719  10.2715  10.2822
    10.9236  10.9392  11.0489  11.0648  11.2724  11.2877  13.2876  13.3209
    13.3722  13.4056  16.8329  16.8378  17.1308  17.1347

     occupation numbers 
     0.0938   0.0938   0.0938   0.0938   0.0938   0.0938   0.0938   0.0938
     0.0938   0.0938   0.0938   0.0938   0.0938   0.0938   0.0938   0.0938
     0.0938   0.0938   0.0938   0.0938   0.0938   0.0938   0.0938   0.0938
     0.0938   0.0938   0.0938   0.0938   0.0937   0.0937   0.0937   0.0937
     0.0937   0.0937   0.0936   0.0935   0.0921   0.0919   0.0000   0.0000
     0.0000   0.0000   0.0000   0.0000   0.0000   0.0000

          k =-0.2471 0.1427 0.2053 (  2195 PWs)   bands (ev):

   -19.7645 -19.6593  -6.8512  -6.2322  -6.0652  -5.8286  -5.6543  -5.4572
    -3.4140  -3.2617  -3.1010  -2.8919  -2.8175  -2.5591   5.5771   6.7706
     6.7860   6.8718   7.2120   7.4492   7.4836   7.5234   7.5655   8.5362
     8.5981   8.7880   9.2861   9.6394   9.9316  10.0359  10.0394  10.1480
    10.2739  10.9848  11.1213  11.1395  11.4726  11.5491  11.9650  12.7311
    13.6303  14.7750  15.9923  16.1940  17.0358  17.5375

     occupation numbers 
     0.1875   0.1875   0.1875   0.1875   0.1875   0.1875   0.1875   0.1875
     0.1875   0.1875   0.1875   0.1875   0.1875   0.1875   0.1875   0.1875
     0.1875   0.1875   0.1875   0.1875   0.1875   0.1875   0.1875   0.1875
     0.1875   0.1875   0.1875   0.1875   0.1875   0.1875   0.1875   0.1875
     0.1875   0.1873   0.1867   0.1865   0.1727   0.1639   0.0720   0.0003
     0.0000   0.0000   0.0000   0.0000   0.0000   0.0000

          k = 0.4942 0.5706-0.1027 (  2198 PWs)   bands (ev):

   -19.7287 -19.6972  -6.9534  -6.6448  -6.1268  -5.8893  -5.5100  -5.3804
    -3.3041  -3.2521  -2.8755  -2.7068  -2.5266  -2.3839   5.8817   6.2267
     6.5897   6.9637   7.1692   7.3186   7.4301   7.6206   7.6657   7.8437
     8.1552   8.7647   9.0303   9.2906   9.6020   9.7993   9.9111  10.3432
    10.5803  11.0485  11.1563  11.2315  11.3658  11.4413  12.3124  12.7366
    13.4221  14.3531  16.9042  17.1139  17.3087  18.0147

     occupation numbers 
     0.1875   0.1875   0.1875   0.1875   0.1875   0.1875   0.1875   0.1875
     0.1875   0.1875   0.1875   0.1875   0.1875   0.1875   0.1875   0.1875
     0.1875   0.1875   0.1875   0.1875   0.1875   0.1875   0.1875   0.1875
     0.1875   0.1875   0.1875   0.1875   0.1875   0.1875   0.1875   0.1875
     0.1875   0.1871   0.1864   0.1852   0.1805   0.1754   0.0125   0.0003
     0.0000   0.0000   0.0000   0.0000   0.0000   0.0000

          k = 0.2471 0.4280 0.0000 (  2203 PWs)   bands (ev):

   -19.7394 -19.6862  -6.8454  -6.6371  -6.0494  -5.9766  -5.4361  -5.3657
    -3.5183  -3.2922  -2.7996  -2.7080  -2.5681  -2.5584   5.8720   6.2641
     6.8327   7.0712   7.1606   7.2445   7.4094   7.4884   7.5573   7.9234
     8.1581   8.9182   9.1335   9.3941   9.7572   9.7741  10.0539  10.3491
    10.8898  10.9191  10.9964  11.1818  11.2097  11.5370  12.2350  13.3162
    13.3905  14.1485  16.4350  16.9923  17.4201  17.9253

     occupation numbers 
     0.1875   0.1875   0.1875   0.1875   0.1875   0.1875   0.1875   0.1875
     0.1875   0.1875   0.1875   0.1875   0.1875   0.1875   0.1875   0.1875
     0.1875   0.1875   0.1875   0.1875   0.1875   0.1875   0.1875   0.1875
     0.1875   0.1875   0.1875   0.1875   0.1875   0.1875   0.1875   0.1875
     0.1874   0.1874   0.1873   0.1860   0.1856   0.1655   0.0205   0.0000
     0.0000   0.0000   0.0000   0.0000   0.0000   0.0000

          k = 0.4942-0.2853-0.4107 (  2202 PWs)   bands (ev):

   -19.7314 -19.6944  -7.1638  -6.4524  -6.2378  -5.9633  -5.5302  -5.2864
    -3.1926  -3.1195  -3.0435  -2.6487  -2.4796  -2.2211   5.7897   6.1100
     6.2412   6.8635   7.1483   7.2573   7.5620   7.6598   8.1613   8.2406
     8.2504   8.3094   8.6010   9.4140   9.6743   9.8624  10.0314  10.0667
    10.4278  10.9439  11.1095  11.2689  11.4010  11.5705  11.8947  12.4246
    13.3239  14.7883  17.0420  17.2644  17.5193  17.6102

     occupation numbers 
     0.0938   0.0938   0.0938   0.0938   0.0938   0.0938   0.0938   0.0938
     0.0938   0.0938   0.0938   0.0938   0.0938   0.0938   0.0938   0.0938
     0.0938   0.0938   0.0938   0.0938   0.0938   0.0938   0.0938   0.0938
     0.0938   0.0938   0.0938   0.0938   0.0937   0.0937   0.0937   0.0937
     0.0937   0.0937   0.0934   0.0921   0.0892   0.0804   0.0449   0.0028
     0.0000   0.0000   0.0000   0.0000   0.0000   0.0000

          k = 0.0000 0.0000 0.3080 (  2187 PWs)   bands (ev):

   -19.7701 -19.6535  -6.6144  -5.9808  -5.9279  -5.9279  -5.8380  -5.8380
    -3.2035  -3.1159  -3.1159  -2.9667  -2.8951  -2.8951   5.6065   6.9700
     6.9700   7.1252   7.1426   7.3554   7.3554   7.5650   7.5650   8.6505
     8.6505   9.1524   9.4377   9.5931   9.5931   9.7658  10.1221  10.1221
    10.6621  10.6621  10.8146  11.4859  11.4859  11.5602  12.2951  12.2951
    14.2652  14.2652  15.9106  15.9106  16.8791  17.4801

     occupation numbers 
     0.0625   0.0625   0.0625   0.0625   0.0625   0.0625   0.0625   0.0625
     0.0625   0.0625   0.0625   0.0625   0.0625   0.0625   0.0625   0.0625
     0.0625   0.0625   0.0625   0.0625   0.0625   0.0625   0.0625   0.0625
     0.0625   0.0625   0.0625   0.0625   0.0625   0.0625   0.0625   0.0625
     0.0625   0.0625   0.0625   0.0571   0.0571   0.0541   0.0047   0.0047
     0.0000   0.0000   0.0000   0.0000   0.0000   0.0000

          k = 0.7412 0.4280 0.0000 (  2204 PWs)   bands (ev):

   -19.7389 -19.6868  -6.7310  -6.6009  -6.1422  -5.8292  -5.6785  -5.5449
    -3.1746  -3.0896  -3.0431  -2.6749  -2.6553  -2.5832   5.9124   6.4776
     6.8079   7.0991   7.1752   7.2770   7.3815   7.4791   7.6869   7.8738
     8.2098   8.7952   9.1550   9.4678   9.5706   9.6784   9.8386  10.2179
    10.8842  10.9999  11.0293  11.2497  11.2704  11.4077  12.2371  13.2389
    13.3065  14.1741  16.6878  16.7233  17.5908  17.7936

     occupation numbers 
     0.1875   0.1875   0.1875   0.1875   0.1875   0.1875   0.1875   0.1875
     0.1875   0.1875   0.1875   0.1875   0.1875   0.1875   0.1875   0.1875
     0.1875   0.1875   0.1875   0.1875   0.1875   0.1875   0.1875   0.1875
     0.1875   0.1875   0.1875   0.1875   0.1875   0.1875   0.1875   0.1875
     0.1874   0.1873   0.1872   0.1848   0.1842   0.1779   0.0202   0.0000
     0.0000   0.0000   0.0000   0.0000   0.0000   0.0000

          k = 0.4942 0.2853 0.1027 (  2211 PWs)   bands (ev):

   -19.7291 -19.6969  -6.9695  -6.5414  -6.3203  -5.6956  -5.6219  -5.3538
    -3.3177  -3.1633  -3.0305  -2.6016  -2.5606  -2.3766   5.9146   6.1978
     6.5461   6.9567   7.2054   7.2075   7.4581   7.6200   7.7456   7.8270
     8.1926   8.8432   9.0300   9.3895   9.4613   9.6577   9.9956  10.3374
    10.6066  11.1096  11.2443  11.2538  11.3021  11.3268  12.2666  12.7516
    13.4682  14.3347  16.8848  16.9344  17.5800  17.9270

     occupation numbers 
     0.1875   0.1875   0.1875   0.1875   0.1875   0.1875   0.1875   0.1875
     0.1875   0.1875   0.1875   0.1875   0.1875   0.1875   0.1875   0.1875
     0.1875   0.1875   0.1875   0.1875   0.1875   0.1875   0.1875   0.1875
     0.1875   0.1875   0.1875   0.1875   0.1875   0.1875   0.1875   0.1875
     0.1875   0.1868   0.1849   0.1847   0.1832   0.1823   0.0169   0.0002
     0.0000   0.0000   0.0000   0.0000   0.0000   0.0000

          k = 0.7412-0.4280-0.3080 (  2210 PWs)   bands (ev):

   -19.7288 -19.6973  -6.9058  -6.4499  -6.2983  -5.7947  -5.7577  -5.4812
    -3.0686  -3.0512  -2.9622  -2.7282  -2.6211  -2.4266   5.9818   6.3426
     6.6083   6.9352   7.1899   7.2551   7.4913   7.6435   7.7839   7.8526
     8.1681   8.8469   8.8971   9.4503   9.5027   9.5051   9.6491  10.1895
    10.6900  11.1209  11.2187  11.2429  11.3612  11.3926  12.2257  12.7030
    13.4169  14.3045  17.0594  17.0680  17.5485  17.9025

     occupation numbers 
     0.1875   0.1875   0.1875   0.1875   0.1875   0.1875   0.1875   0.1875
     0.1875   0.1875   0.1875   0.1875   0.1875   0.1875   0.1875   0.1875
     0.1875   0.1875   0.1875   0.1875   0.1875   0.1875   0.1875   0.1875
     0.1875   0.1875   0.1875   0.1875   0.1875   0.1875   0.1875   0.1875
     0.1875   0.1867   0.1854   0.1849   0.1807   0.1789   0.0216   0.0004
     0.0000   0.0000   0.0000   0.0000   0.0000   0.0000

          k = 0.4942-0.5706-0.2053 (  2206 PWs)   bands (ev):

   -19.7132 -19.7132  -6.8857  -6.8716  -6.0338  -6.0325  -5.4248  -5.4222
    -3.1509  -3.1504  -2.8126  -2.8116  -2.3831  -2.3802   6.0628   6.0661
     6.7394   6.7404   7.0787   7.0799   7.3776   7.3789   7.8916   7.9131
     8.7723   8.7760   8.8738   8.8791   9.5205   9.5221  10.0740  10.0746
    10.8962  10.8983  11.1133  11.1194  11.4187  11.4225  12.2819  12.2862
    13.9975  14.0061  17.4266  17.4271  17.8676  17.8700

     occupation numbers 
     0.1875   0.1875   0.1875   0.1875   0.1875   0.1875   0.1875   0.1875
     0.1875   0.1875   0.1875   0.1875   0.1875   0.1875   0.1875   0.1875
     0.1875   0.1875   0.1875   0.1875   0.1875   0.1875   0.1875   0.1875
     0.1875   0.1875   0.1875   0.1875   0.1875   0.1875   0.1875   0.1875
     0.1874   0.1874   0.1868   0.1867   0.1772   0.1769   0.0153   0.0149
     0.0000   0.0000   0.0000   0.0000   0.0000   0.0000

          k = 0.0000 0.0000-0.6160 (  2186 PWs)   bands (ev):

   -19.7134 -19.7130  -6.5141  -6.4979  -5.9402  -5.9402  -5.9326  -5.9326
    -2.8903  -2.8903  -2.8897  -2.8897  -2.7055  -2.7053   6.2667   6.2702
     7.1688   7.1688   7.1760   7.1760   7.5929   7.6111   7.8474   7.8474
     7.8633   7.8633   9.6145   9.6145   9.6236   9.6236   9.6848   9.6965
    11.1076  11.1217  11.1786  11.1786  11.1942  11.1942  13.2281  13.2281
    13.2610  13.2610  17.1164  17.1164  17.1187  17.1187

     occupation numbers 
     0.0313   0.0313   0.0313   0.0313   0.0313   0.0313   0.0313   0.0313
     0.0313   0.0313   0.0313   0.0313   0.0313   0.0313   0.0313   0.0313
     0.0313   0.0313   0.0313   0.0313   0.0313   0.0313   0.0313   0.0313
     0.0313   0.0313   0.0312   0.0312   0.0312   0.0312   0.0312   0.0312
     0.0311   0.0311   0.0310   0.0310   0.0310   0.0310   0.0000   0.0000
     0.0000   0.0000   0.0000   0.0000   0.0000   0.0000

          k = 0.4942-0.5706 0.1027 (  2198 PWs)   bands (ev):

   -19.7287 -19.6972  -6.9536  -6.6432  -6.1290  -5.8898  -5.5104  -5.3784
    -3.3047  -3.2521  -2.8759  -2.7060  -2.5272  -2.3834   5.8809   6.2276
     6.5878   6.9640   7.1713   7.3178   7.4364   7.6139   7.6561   7.8548
     8.1558   8.7682   9.0265   9.2898   9.5999   9.7996   9.9109  10.3452
    10.5800  11.0435  11.1625  11.2303  11.3701  11.4371  12.3121  12.7365
    13.4220  14.3528  16.9061  17.1110  17.3093  18.0147

     occupation numbers 
     0.1875   0.1875   0.1875   0.1875   0.1875   0.1875   0.1875   0.1875
     0.1875   0.1875   0.1875   0.1875   0.1875   0.1875   0.1875   0.1875
     0.1875   0.1875   0.1875   0.1875   0.1875   0.1875   0.1875   0.1875
     0.1875   0.1875   0.1875   0.1875   0.1875   0.1875   0.1875   0.1875
     0.1875   0.1871   0.1863   0.1852   0.1802   0.1758   0.0126   0.0003
     0.0000   0.0000   0.0000   0.0000   0.0000   0.0000

     the Fermi energy is    11.8797 ev

!    total energy              =    -538.12649650 Ry
     Harris-Foulkes estimate   =    -538.12648760 Ry
     estimated scf accuracy    <          2.9E-09 Ry

     The total energy is the sum of the following terms:

     one-electron contribution =     -32.91009532 Ry
     hartree contribution      =      83.64990548 Ry
     xc contribution           =    -199.59542907 Ry
     ewald contribution        =    -389.44315552 Ry
     Hubbard energy            =       0.19396462 Ry
     smearing contrib. (-TS)   =      -0.02168669 Ry

     convergence has been achieved in  12 iterations

     init_run     :      7.92s CPU      8.01s WALL (       1 calls)
     electrons    :    200.48s CPU    202.26s WALL (       1 calls)

     Called by init_run:
     wfcinit      :      0.00s CPU      0.00s WALL (       1 calls)
     potinit      :      0.31s CPU      0.34s WALL (       1 calls)

     Called by electrons:
     c_bands      :    129.18s CPU    129.78s WALL (      12 calls)
     sum_band     :     40.00s CPU     40.26s WALL (      12 calls)
     v_of_rho     :      3.55s CPU      3.58s WALL (      13 calls)
     v_h          :      0.20s CPU      0.21s WALL (      13 calls)
     v_xc         :      3.35s CPU      3.37s WALL (      13 calls)
     newd         :     29.25s CPU     29.30s WALL (      13 calls)
     mix_rho      :      0.38s CPU      0.39s WALL (      12 calls)

     Called by c_bands:
     init_us_2    :      1.33s CPU      1.33s WALL (     336 calls)
     cegterg      :    125.52s CPU    125.88s WALL (     168 calls)

     Called by sum_band:
     sum_band:bec :      0.13s CPU      0.13s WALL (     168 calls)
     addusdens    :     16.96s CPU     16.97s WALL (      12 calls)

     Called by *egterg:
     h_psi        :     94.70s CPU     95.01s WALL (     622 calls)
     s_psi        :      5.01s CPU      5.03s WALL (     622 calls)
     g_psi        :      0.40s CPU      0.39s WALL (     454 calls)
     cdiaghg      :      9.68s CPU      9.67s WALL (     608 calls)
     cegterg:over :      5.76s CPU      5.77s WALL (     454 calls)
     cegterg:upda :      3.82s CPU      3.84s WALL (     454 calls)
     cegterg:last :      2.42s CPU      2.44s WALL (     184 calls)

     Called by h_psi:
     h_psi:vloc   :     78.34s CPU     78.58s WALL (     622 calls)
     h_psi:vnl    :     10.15s CPU     10.18s WALL (     622 calls)
     add_vuspsi   :      5.01s CPU      5.01s WALL (     622 calls)
     vhpsi        :      6.01s CPU      6.02s WALL (     622 calls)

     General routines
     calbec       :     10.99s CPU     11.04s WALL (    1580 calls)
     fft          :      2.64s CPU      2.64s WALL (     203 calls)
     ffts         :      0.08s CPU      0.08s WALL (      25 calls)
     fftw         :     74.28s CPU     74.42s WALL (   46272 calls)
     interpolate  :      0.44s CPU      0.44s WALL (      25 calls)
     davcio       :      0.00s CPU      0.40s WALL (     350 calls)

     Parallel routines
     fft_scatter  :     21.77s CPU     21.86s WALL (   46500 calls)
     Hubbard U routines
     new_ns       :      1.16s CPU      1.35s WALL (      12 calls)
     vhpsi        :      6.01s CPU      6.02s WALL (     622 calls)

     PWSCF        :  3m28.86s CPU     3m30.86s WALL


   This run was terminated on:  14:59:47  11Nov2012            

=------------------------------------------------------------------------------=
