   JOB DONE.
=------------------------------------------------------------------------------=

     Program PWSCF v.5.0.1 starts on 11Nov2012 at 14:42:17 

     This program is part of the open-source Quantum ESPRESSO suite
     for quantum simulation of materials; please cite
         "P. Giannozzi et al., J. Phys.:Condens. Matter 21 395502 (2009);
          URL http://www.quantum-espresso.org", 
     in publications or presentations arising from this work. More details at
     http://www.quantum-espresso.org/quote.php

     Parallel version (MPI), running on     2 processors
     R & G space division:  proc/pool =    2

     Current dimensions of program PWSCF are:
     Max number of different atomic species (ntypx) = 10
     Max number of k-points (npk) =  40000
     Max angular momentum in pseudopotentials (lmaxx) =  3
     Reading input from CoLaO_U200_a-15.in
               file Co.pbe-nd-rrkjus.UPF: wavefunction(s)  4S 3D renormalized
               file Co.pbe-nd-rrkjus.UPF: wavefunction(s)  4S 3D renormalized
               file O.pbe-rrkjus.UPF: wavefunction(s)  2S renormalized

     Subspace diagonalization in iterative solution of the eigenvalue problem:
     a serial algorithm will be used


     Parallelization info
     --------------------
     sticks:   dense  smooth     PW     G-vecs:    dense   smooth      PW
     Min        1112     444    131                34808     8786    1448
     Max        1113     445    132                34809     8787    1449
     Sum        2225     889    263                69617    17573    2897


     Title: 
     GGA + U, U = 2.000, alpha = -0.150                                         


     bravais-lattice index     =            5
     lattice parameter (alat)  =      10.3292  a.u.
     unit-cell volume          =     793.0599 (a.u.)^3
     number of atoms/cell      =           10
     number of atomic types    =            4
     number of electrons       =        76.00
     number of Kohn-Sham states=           46
     kinetic-energy cutoff     =      30.0000  Ry
     charge density cutoff     =     300.0000  Ry
     convergence threshold     =      1.0E-08
     mixing beta               =       0.2000
     number of iterations used =            8  plain     mixing
     Exchange-correlation      =  SLA  PW   PBE  PBE ( 1 4 3 4 0)
     EXX-fraction              =        0.00

     celldm(1)=  10.329242  celldm(2)=   0.000000  celldm(3)=   0.000000
     celldm(4)=   0.488100  celldm(5)=   0.000000  celldm(6)=   0.000000

     crystal axes: (cart. coord. in units of alat)
               a(1) = (   0.505915  -0.292090   0.811624 )  
               a(2) = (   0.000000   0.584180   0.811624 )  
               a(3) = (  -0.505915  -0.292090   0.811624 )  

     reciprocal axes: (cart. coord. in units 2 pi/alat)
               b(1) = (  0.988308 -0.570600  0.410699 )  
               b(2) = (  0.000000  1.141200  0.410699 )  
               b(3) = ( -0.988308 -0.570600  0.410699 )  


     PseudoPot. # 1 for Co read from file:
     /home/mcurnan/dft-course/Project1/example_LaCoO3/Co.pbe-nd-rrkjus.UPF
     MD5 check sum: 3e47a84addf5e975e0edeaeee2a73f59
     Pseudo is Ultrasoft + core correction, Zval =  9.0
     Generated by new atomic code, or converted to UPF format
     Using radial grid of  961 points,  6 beta functions with: 
                l(1) =   0
                l(2) =   0
                l(3) =   1
                l(4) =   1
                l(5) =   2
                l(6) =   2
     Q(r) pseudized with 0 coefficients 


     PseudoPot. # 2 for Co read from file:
     /home/mcurnan/dft-course/Project1/example_LaCoO3/Co.pbe-nd-rrkjus.UPF
     MD5 check sum: 3e47a84addf5e975e0edeaeee2a73f59
     Pseudo is Ultrasoft + core correction, Zval =  9.0
     Generated by new atomic code, or converted to UPF format
     Using radial grid of  961 points,  6 beta functions with: 
                l(1) =   0
                l(2) =   0
                l(3) =   1
                l(4) =   1
                l(5) =   2
                l(6) =   2
     Q(r) pseudized with 0 coefficients 


     PseudoPot. # 3 for La read from file:
     /home/mcurnan/dft-course/Project1/example_LaCoO3/La.pbe-nsp-van.UPF
     MD5 check sum: b2f11743f52dde65f77d1302becd7929
     Pseudo is Ultrasoft + core correction, Zval = 11.0
     Generated by new atomic code, or converted to UPF format
     Using radial grid of  907 points,  6 beta functions with: 
                l(1) =   0
                l(2) =   0
                l(3) =   1
                l(4) =   1
                l(5) =   2
                l(6) =   2
     Q(r) pseudized with  6 coefficients,  rinner =    1.200   1.200   1.200
                                                       1.200   1.200

     PseudoPot. # 4 for O  read from file:
     /home/mcurnan/dft-course/Project1/example_LaCoO3/O.pbe-rrkjus.UPF
     MD5 check sum: 390ba29e75625707450f3bd3f0eb6be9
     Pseudo is Ultrasoft, Zval =  6.0
     Generated by new atomic code, or converted to UPF format
     Using radial grid of 1269 points,  4 beta functions with: 
                l(1) =   0
                l(2) =   0
                l(3) =   1
                l(4) =   1
     Q(r) pseudized with 0 coefficients 


     atomic species   valence    mass     pseudopotential
        Co1            9.00     1.00000     Co( 1.00)
        Co2            9.00     1.00000     Co( 1.00)
        La1           11.00     1.00000     La( 1.00)
        O1             6.00     1.00000     O ( 1.00)
 -----
     simplified LDA+U calculation, Hubbard_lmax = 2
     atomic species  L   Hubbard U  Hubbard alpha
        Co1          2    2.000000   -0.150000
        Co2          2    2.000000    0.000000
        La1          2    0.000000    0.000000
        O1           1    0.000000    0.000000
 -----

      6 Sym. Ops., with inversion, found


                                    s                        frac. trans.

      isym =  1     identity                                     

 cryst.   s( 1) = (     1          0          0      )
                  (     0          1          0      )
                  (     0          0          1      )

 cart.    s( 1) = (  1.0000000  0.0000000  0.0000000 )
                  (  0.0000000  1.0000000  0.0000000 )
                  (  0.0000000  0.0000000  1.0000000 )


      isym =  2     120 deg rotation - cryst. axis [0,0,1]       

 cryst.   s( 2) = (     0          1          0      )
                  (     0          0          1      )
                  (     1          0          0      )

 cart.    s( 2) = ( -0.5000000 -0.8660254  0.0000000 )
                  (  0.8660254 -0.5000000  0.0000000 )
                  (  0.0000000  0.0000000  1.0000000 )


      isym =  3     120 deg rotation - cryst. axis [0,0,-1]      

 cryst.   s( 3) = (     0          0          1      )
                  (     1          0          0      )
                  (     0          1          0      )

 cart.    s( 3) = ( -0.5000000  0.8660254  0.0000000 )
                  ( -0.8660254 -0.5000000  0.0000000 )
                  (  0.0000000  0.0000000  1.0000000 )


      isym =  4     inversion                                    

 cryst.   s( 4) = (    -1          0          0      )
                  (     0         -1          0      )
                  (     0          0         -1      )

 cart.    s( 4) = ( -1.0000000  0.0000000  0.0000000 )
                  (  0.0000000 -1.0000000  0.0000000 )
                  (  0.0000000  0.0000000 -1.0000000 )


      isym =  5     inv. 180 deg rotation - cart. axis [0,1,0]   

 cryst.   s( 5) = (     0         -1          0      )
                  (     0          0         -1      )
                  (    -1          0          0      )

 cart.    s( 5) = (  0.5000000  0.8660254  0.0000000 )
                  ( -0.8660254  0.5000000  0.0000000 )
                  (  0.0000000  0.0000000 -1.0000000 )


      isym =  6     inv. 180 deg rotation - cart. axis [1,0,0]   

 cryst.   s( 6) = (     0          0         -1      )
                  (    -1          0          0      )
                  (     0         -1          0      )

 cart.    s( 6) = (  0.5000000 -0.8660254  0.0000000 )
                  (  0.8660254  0.5000000  0.0000000 )
                  (  0.0000000  0.0000000 -1.0000000 )


     point group S_6 (-3)   
     there are  6 classes
     the character table:

       E     C3    C3^2  i     S6^5  S6   
A_g    1.00  1.00  1.00  1.00  1.00  1.00
E_g    1.00 -0.50 -0.50  1.00 -0.50 -0.50
E_g*   1.00 -0.50 -0.50  1.00 -0.50 -0.50
A_u    1.00  1.00  1.00 -1.00 -1.00 -1.00
E_u    1.00 -0.50 -0.50 -1.00  0.50  0.50
E_u*   1.00 -0.50 -0.50 -1.00  0.50  0.50
     imaginary part
A_g    0.00  0.00  0.00  0.00  0.00  0.00
E_g    0.00  0.87 -0.87  0.00  0.87 -0.87
E_g*   0.00 -0.87  0.87  0.00 -0.87  0.87
A_u    0.00  0.00  0.00  0.00  0.00  0.00
E_u    0.00  0.87 -0.87  0.00 -0.87  0.87
E_u*   0.00 -0.87  0.87  0.00  0.87 -0.87

     the symmetry operations in each class:
     E        1
     C3       2
     C3^2     3
     i        4
     S6^5     5
     S6       6

   Cartesian axes

     site n.     atom                  positions (alat units)
         1           Co1 tau(   1) = (   0.0000000   0.0000000   0.0000000  )
         2           Co2 tau(   2) = (   0.0000000   0.0000000   1.2174358  )
         3           La1 tau(   3) = (   0.0000000   0.0000000   0.6087179  )
         4           La1 tau(   4) = (   0.0000000   0.0000000   1.8261537  )
         5           O1  tau(   5) = (  -0.2839701  -0.0933228   1.0141240  )
         6           O1  tau(   6) = (   0.0611651   0.2925867   1.0141240  )
         7           O1  tau(   7) = (   0.2228050  -0.1992639   1.0141240  )
         8           O1  tau(   8) = (  -0.0611651  -0.2925867   1.4207476  )
         9           O1  tau(   9) = (   0.2839701   0.0933228   1.4207476  )
        10           O1  tau(  10) = (  -0.2228050   0.1992639   1.4207476  )

   Crystallographic axes

     site n.     atom                  positions (cryst. coord.)
         1           Co1 tau(   1) = (  0.0000000  0.0000000  0.0000000  )
         2           Co2 tau(   2) = (  0.5000000  0.5000000  0.5000000  )
         3           La1 tau(   3) = (  0.2500000  0.2500000  0.2500000  )
         4           La1 tau(   4) = (  0.7500000  0.7500000  0.7500000  )
         5           O1  tau(   5) = (  0.1891000  0.3100000  0.7504000  )
         6           O1  tau(   6) = (  0.3100000  0.7504000  0.1891000  )
         7           O1  tau(   7) = (  0.7504000  0.1891000  0.3100000  )
         8           O1  tau(   8) = (  0.6900000  0.2496000  0.8109000  )
         9           O1  tau(   9) = (  0.8109000  0.6900000  0.2496000  )
        10           O1  tau(  10) = (  0.2496000  0.8109000  0.6900000  )

     number of k points=    14  gaussian smearing, width (Ry)=  0.0300
                       cart. coord. in units 2pi/alat
        k(    1) = (   0.0000000   0.0000000   0.0000000), wk =   0.0312500
        k(    2) = (  -0.2470771  -0.1426500   0.1026748), wk =   0.1875000
        k(    3) = (   0.4941541   0.2853000  -0.2053496), wk =   0.0937500
        k(    4) = (  -0.2470771   0.1426500   0.2053496), wk =   0.1875000
        k(    5) = (   0.4941541   0.5706001  -0.1026748), wk =   0.1875000
        k(    6) = (   0.2470771   0.4279500   0.0000000), wk =   0.1875000
        k(    7) = (   0.4941541  -0.2853000  -0.4106993), wk =   0.0937500
        k(    8) = (   0.0000000   0.0000000   0.3080244), wk =   0.0625000
        k(    9) = (   0.7412312   0.4279500   0.0000000), wk =   0.1875000
        k(   10) = (   0.4941541   0.2853000   0.1026748), wk =   0.1875000
        k(   11) = (   0.7412312  -0.4279500  -0.3080244), wk =   0.1875000
        k(   12) = (   0.4941541  -0.5706001  -0.2053496), wk =   0.1875000
        k(   13) = (   0.0000000   0.0000000  -0.6160489), wk =   0.0312500
        k(   14) = (   0.4941541  -0.5706001   0.1026748), wk =   0.1875000

                       cryst. coord.
        k(    1) = (   0.0000000   0.0000000   0.0000000), wk =   0.0312500
        k(    2) = (   0.0000000   0.0000000   0.2500000), wk =   0.1875000
        k(    3) = (   0.0000000   0.0000000  -0.5000000), wk =   0.0937500
        k(    4) = (   0.0000000   0.2500000   0.2500000), wk =   0.1875000
        k(    5) = (   0.0000000   0.2500000  -0.5000000), wk =   0.1875000
        k(    6) = (   0.0000000   0.2500000  -0.2500000), wk =   0.1875000
        k(    7) = (   0.0000000  -0.5000000  -0.5000000), wk =   0.0937500
        k(    8) = (   0.2500000   0.2500000   0.2500000), wk =   0.0625000
        k(    9) = (   0.2500000   0.2500000  -0.5000000), wk =   0.1875000
        k(   10) = (   0.2500000   0.2500000  -0.2500000), wk =   0.1875000
        k(   11) = (   0.2500000  -0.5000000  -0.5000000), wk =   0.1875000
        k(   12) = (   0.2500000  -0.5000000  -0.2500000), wk =   0.1875000
        k(   13) = (  -0.5000000  -0.5000000  -0.5000000), wk =   0.0312500
        k(   14) = (   0.5000000  -0.2500000   0.0000000), wk =   0.1875000

     Dense  grid:    69617 G-vectors     FFT dimensions: (  60,  60,  60)

     Smooth grid:    17573 G-vectors     FFT dimensions: (  40,  40,  40)

     Largest allocated arrays     est. size (Mb)     dimensions
        Kohn-Sham Wavefunctions         0.78 Mb     (   1117,   46)
        Atomic wavefunctions            1.06 Mb     (   1117,   62)
        NL pseudopotentials             2.05 Mb     (   1117,  120)
        Each V/rho on FFT grid          1.65 Mb     ( 108000)
        Each G-vector array             0.27 Mb     (  34808)
        G-vector shells                 0.04 Mb     (   4682)
     Largest temporary arrays     est. size (Mb)     dimensions
        Auxiliary wavefunctions         3.14 Mb     (   1117,  184)
        Each subspace H/S matrix        0.52 Mb     ( 184, 184)
        Each <psi_i|beta_j> matrix      0.08 Mb     (    120,   46)
        Arrays for rho mixing          13.18 Mb     ( 108000,   8)

     Check: negative/imaginary core charge=   -0.000028    0.000000

     The initial density is read from file :
     /home/mcurnan/dft-course/Project1/example_LaCoO3/200/Co/alpha/CoLaO_U200.save/charge-density.dat

 --- in v_hubbard ---
Hubbard energy    0.1029
 -------
     Number of +U iterations with fixed ns =  0
     Starting occupations:
 --- enter write_ns ---
 LDA+U parameters:
U( 1)     =  2.00000000
alpha( 1) = -0.15000000
U( 2)     =  2.00000000
alpha( 2) =  0.00000000
U( 3)     =  0.00000000
alpha( 3) =  0.00000000
U( 4)     =  0.00000000
alpha( 4) =  0.00000000
atom    1   Tr[ns(na)] =   8.02206
    eigenvalues: 
  0.596  0.596  0.938  0.941  0.941
    eigenvectors:
  0.000  0.000  1.000  0.000  0.000
  0.333  0.322  0.000  0.004  0.341
  0.322  0.333  0.000  0.341  0.004
  0.289  0.056  0.000  0.515  0.140
  0.056  0.289  0.000  0.140  0.515
    occupations:
  0.938  0.000  0.000  0.000  0.000
  0.000  0.715  0.000 -0.060  0.152
  0.000  0.000  0.715  0.152  0.060
  0.000 -0.060  0.152  0.822  0.000
  0.000  0.152  0.060  0.000  0.822
atom    2   Tr[ns(na)] =   8.02145
    eigenvalues: 
  0.595  0.595  0.938  0.941  0.941
    eigenvectors:
  0.000  0.000  1.000  0.000  0.000
  0.640  0.015  0.000  0.223  0.122
  0.015  0.640  0.000  0.122  0.223
  0.017  0.329  0.000  0.470  0.185
  0.329  0.017  0.000  0.185  0.470
    occupations:
  0.938  0.000  0.000  0.000  0.000
  0.000  0.715  0.000  0.060  0.153
  0.000  0.000  0.715  0.153 -0.060
  0.000  0.060  0.153  0.822  0.000
  0.000  0.153 -0.060  0.000  0.822
atom    3   Tr[ns(na)] =   3.80284
    eigenvalues: 
  0.355  0.355  0.384  0.403  0.403
    eigenvectors:
  0.000  0.000  1.000  0.000  0.000
  0.781  0.139  0.000  0.012  0.068
  0.139  0.781  0.000  0.068  0.012
  0.013  0.067  0.000  0.780  0.141
  0.067  0.013  0.000  0.141  0.780
    occupations:
  0.384  0.000  0.000  0.000  0.000
  0.000  0.359  0.000  0.000  0.013
  0.000  0.000  0.359  0.013  0.000
  0.000  0.000  0.013  0.399  0.000
  0.000  0.013  0.000  0.000  0.399
atom    4   Tr[ns(na)] =   3.80284
    eigenvalues: 
  0.355  0.355  0.384  0.403  0.403
    eigenvectors:
  0.000  0.000  1.000  0.000  0.000
  0.782  0.139  0.000  0.012  0.068
  0.139  0.782  0.000  0.068  0.012
  0.012  0.067  0.000  0.780  0.141
  0.067  0.012  0.000  0.141  0.780
    occupations:
  0.384  0.000  0.000  0.000  0.000
  0.000  0.359  0.000  0.000  0.013
  0.000  0.000  0.359  0.013  0.000
  0.000  0.000  0.013  0.399  0.000
  0.000  0.013  0.000  0.000  0.399
atom    5   Tr[ns(na)] =   5.43357
    eigenvalues: 
  0.846  0.929  0.941
    eigenvectors:
  0.340  0.000  0.660
  0.494  0.250  0.256
  0.166  0.750  0.085
    occupations:
  0.909  0.039  0.022
  0.039  0.891 -0.022
  0.022 -0.022  0.917
atom    6   Tr[ns(na)] =   5.43357
    eigenvalues: 
  0.846  0.929  0.941
    eigenvectors:
  0.340  0.000  0.660
  0.000  1.000  0.000
  0.660  0.000  0.340
    occupations:
  0.909  0.000 -0.045
  0.000  0.929  0.000
 -0.045  0.000  0.879
atom    7   Tr[ns(na)] =   5.43357
    eigenvalues: 
  0.846  0.929  0.941
    eigenvectors:
  0.340  0.000  0.660
  0.496  0.250  0.255
  0.164  0.750  0.086
    occupations:
  0.909 -0.039  0.022
 -0.039  0.891  0.022
  0.022  0.022  0.917
atom    8   Tr[ns(na)] =   5.43357
    eigenvalues: 
  0.846  0.929  0.941
    eigenvectors:
  0.340  0.000  0.660
  0.000  1.000  0.000
  0.660  0.000  0.340
    occupations:
  0.909  0.000 -0.045
  0.000  0.929  0.000
 -0.045  0.000  0.879
atom    9   Tr[ns(na)] =   5.43357
    eigenvalues: 
  0.846  0.929  0.941
    eigenvectors:
  0.340  0.000  0.660
  0.494  0.250  0.256
  0.166  0.750  0.085
    occupations:
  0.909  0.039  0.022
  0.039  0.891 -0.022
  0.022 -0.022  0.917
atom   10   Tr[ns(na)] =   5.43357
    eigenvalues: 
  0.846  0.929  0.941
    eigenvectors:
  0.340  0.000  0.660
  0.496  0.250  0.255
  0.164  0.750  0.086
    occupations:
  0.909 -0.039  0.022
 -0.039  0.891  0.022
  0.022  0.022  0.917
N of occupied +U levels =  56.2506062
 --- exit write_ns ---
 LDA+U Projector read from file 
     Starting wfc from file

     total cpu time spent up to now is       11.6 secs

     per-process dynamical memory:    46.9 Mb

     Self-consistent Calculation

     iteration #  1     ecut=    30.00 Ry     beta=0.20
     Davidson diagonalization with overlap
     c_bands:  1 eigenvalues not converged
     c_bands:  1 eigenvalues not converged
     c_bands:  1 eigenvalues not converged
     c_bands:  1 eigenvalues not converged
     c_bands:  1 eigenvalues not converged
     ethr =  1.00E-10,  avg # of iterations = 15.0
 --- enter write_ns ---
 LDA+U parameters:
U( 1)     =  2.00000000
alpha( 1) = -0.15000000
U( 2)     =  2.00000000
alpha( 2) =  0.00000000
U( 3)     =  0.00000000
alpha( 3) =  0.00000000
U( 4)     =  0.00000000
alpha( 4) =  0.00000000
atom    1   Tr[ns(na)] =   8.19506
    eigenvalues: 
  0.581  0.581  0.978  0.978  0.980
    eigenvectors:
  0.000  0.000  0.000  0.000  1.000
  0.330  0.324  0.004  0.342  0.000
  0.324  0.330  0.342  0.004  0.000
  0.288  0.057  0.513  0.141  0.000
  0.057  0.288  0.141  0.513  0.000
    occupations:
  0.980  0.000  0.000  0.000  0.000
  0.000  0.718  0.000 -0.068  0.176
  0.000  0.000  0.718  0.176  0.068
  0.000 -0.068  0.176  0.841  0.000
  0.000  0.176  0.068  0.000  0.841
atom    2   Tr[ns(na)] =   8.08880
    eigenvalues: 
  0.564  0.564  0.972  0.972  0.972
    eigenvectors:
  0.000  0.000  0.000  0.000  1.000
  0.633  0.022  0.218  0.128  0.000
  0.022  0.633  0.128  0.218  0.000
  0.010  0.336  0.468  0.186  0.000
  0.336  0.010  0.186  0.468  0.000
    occupations:
  0.972  0.000  0.000  0.000  0.000
  0.000  0.705  0.000  0.067  0.182
  0.000  0.000  0.705  0.182 -0.067
  0.000  0.067  0.182  0.831  0.000
  0.000  0.182 -0.067  0.000  0.831
atom    3   Tr[ns(na)] =   3.79627
    eigenvalues: 
  0.356  0.356  0.382  0.402  0.402
    eigenvectors:
  0.000  0.000  1.000  0.000  0.000
  0.778  0.140  0.000  0.012  0.070
  0.140  0.778  0.000  0.070  0.012
  0.013  0.068  0.000  0.778  0.141
  0.068  0.013  0.000  0.141  0.778
    occupations:
  0.382  0.000  0.000  0.000  0.000
  0.000  0.360  0.000  0.000  0.013
  0.000  0.000  0.360  0.013  0.000
  0.000  0.000  0.013  0.398  0.000
  0.000  0.013  0.000  0.000  0.398
atom    4   Tr[ns(na)] =   3.79627
    eigenvalues: 
  0.356  0.356  0.382  0.402  0.402
    eigenvectors:
  0.000  0.000  1.000  0.000  0.000
  0.779  0.140  0.000  0.012  0.070
  0.140  0.779  0.000  0.070  0.012
  0.013  0.068  0.000  0.778  0.141
  0.068  0.013  0.000  0.141  0.778
    occupations:
  0.382  0.000  0.000  0.000  0.000
  0.000  0.360  0.000  0.000  0.013
  0.000  0.000  0.360  0.013  0.000
  0.000  0.000  0.013  0.398  0.000
  0.000  0.013  0.000  0.000  0.398
atom    5   Tr[ns(na)] =   5.40443
    eigenvalues: 
  0.834  0.926  0.943
    eigenvectors:
  0.341  0.000  0.659
  0.487  0.258  0.255
  0.172  0.742  0.086
    occupations:
  0.906  0.044  0.026
  0.044  0.885 -0.024
  0.026 -0.024  0.911
atom    6   Tr[ns(na)] =   5.40443
    eigenvalues: 
  0.834  0.926  0.943
    eigenvectors:
  0.341  0.000  0.659
  0.000  1.000  0.000
  0.659  0.000  0.341
    occupations:
  0.906  0.001 -0.051
  0.001  0.926  0.001
 -0.051  0.001  0.871
atom    7   Tr[ns(na)] =   5.40443
    eigenvalues: 
  0.834  0.926  0.943
    eigenvectors:
  0.341  0.000  0.659
  0.501  0.243  0.256
  0.158  0.757  0.085
    occupations:
  0.906 -0.045  0.025
 -0.045  0.884  0.023
  0.025  0.023  0.913
atom    8   Tr[ns(na)] =   5.40443
    eigenvalues: 
  0.834  0.926  0.943
    eigenvectors:
  0.341  0.000  0.659
  0.000  1.000  0.000
  0.659  0.000  0.341
    occupations:
  0.906  0.001 -0.051
  0.001  0.926  0.001
 -0.051  0.001  0.871
atom    9   Tr[ns(na)] =   5.40443
    eigenvalues: 
  0.834  0.926  0.943
    eigenvectors:
  0.341  0.000  0.659
  0.487  0.258  0.255
  0.172  0.742  0.086
    occupations:
  0.906  0.044  0.026
  0.044  0.885 -0.024
  0.026 -0.024  0.911
atom   10   Tr[ns(na)] =   5.40443
    eigenvalues: 
  0.834  0.926  0.943
    eigenvectors:
  0.341  0.000  0.659
  0.501  0.243  0.256
  0.158  0.757  0.085
    occupations:
  0.906 -0.045  0.025
 -0.045  0.884  0.023
  0.025  0.023  0.913
N of occupied +U levels =  56.3029842
 --- exit write_ns ---
 --- in v_hubbard ---
Hubbard energy    0.0975
 -------

     total cpu time spent up to now is       53.1 secs

     total energy              =    -538.23969685 Ry
     Harris-Foulkes estimate   =    -538.24539805 Ry
     estimated scf accuracy    <       0.02204355 Ry

     iteration #  2     ecut=    30.00 Ry     beta=0.20
     Davidson diagonalization with overlap
     ethr =  2.90E-05,  avg # of iterations =  2.0
 --- enter write_ns ---
 LDA+U parameters:
U( 1)     =  2.00000000
alpha( 1) = -0.15000000
U( 2)     =  2.00000000
alpha( 2) =  0.00000000
U( 3)     =  0.00000000
alpha( 3) =  0.00000000
U( 4)     =  0.00000000
alpha( 4) =  0.00000000
atom    1   Tr[ns(na)] =   7.94111
    eigenvalues: 
  0.536  0.536  0.966  0.966  0.967
    eigenvectors:
  0.000  0.000  0.000  0.000  1.000
  0.329  0.327  0.006  0.339  0.000
  0.327  0.329  0.339  0.006  0.000
  0.284  0.060  0.512  0.143  0.000
  0.060  0.284  0.143  0.512  0.000
    occupations:
  0.967  0.000  0.000  0.000  0.000
  0.000  0.684  0.000 -0.071  0.192
  0.000  0.000  0.684  0.192  0.071
  0.000 -0.071  0.192  0.818  0.000
  0.000  0.192  0.071  0.000  0.818
atom    2   Tr[ns(na)] =   8.13117
    eigenvalues: 
  0.559  0.559  0.982  0.982  0.984
    eigenvectors:
  0.000  0.000  0.000  0.000  1.000
  0.641  0.015  0.224  0.120  0.000
  0.015  0.641  0.120  0.224  0.000
  0.018  0.327  0.471  0.185  0.000
  0.327  0.018  0.185  0.471  0.000
    occupations:
  0.984  0.000  0.000  0.000  0.000
  0.000  0.705  0.000  0.074  0.187
  0.000  0.000  0.705  0.187 -0.074
  0.000  0.074  0.187  0.836  0.000
  0.000  0.187 -0.074  0.000  0.836
atom    3   Tr[ns(na)] =   3.79370
    eigenvalues: 
  0.355  0.355  0.382  0.402  0.402
    eigenvectors:
  0.000  0.000  1.000  0.000  0.000
  0.782  0.139  0.000  0.012  0.067
  0.139  0.782  0.000  0.067  0.012
  0.012  0.068  0.000  0.780  0.141
  0.068  0.012  0.000  0.141  0.780
    occupations:
  0.382  0.000  0.000  0.000  0.000
  0.000  0.359  0.000  0.000  0.013
  0.000  0.000  0.359  0.013  0.000
  0.000  0.000  0.013  0.398  0.000
  0.000  0.013  0.000  0.000  0.398
atom    4   Tr[ns(na)] =   3.79370
    eigenvalues: 
  0.355  0.355  0.382  0.402  0.402
    eigenvectors:
  0.000  0.000  1.000  0.000  0.000
  0.781  0.139  0.000  0.012  0.067
  0.139  0.781  0.000  0.067  0.012
  0.012  0.068  0.000  0.779  0.141
  0.068  0.012  0.000  0.141  0.779
    occupations:
  0.382  0.000  0.000  0.000  0.000
  0.000  0.359  0.000  0.000  0.013
  0.000  0.000  0.359  0.013  0.000
  0.000  0.000  0.013  0.398  0.000
  0.000  0.013  0.000  0.000  0.398
atom    5   Tr[ns(na)] =   5.43774
    eigenvalues: 
  0.844  0.930  0.945
    eigenvectors:
  0.338  0.000  0.662
  0.507  0.236  0.257
  0.155  0.764  0.081
    occupations:
  0.911  0.042  0.023
  0.042  0.890 -0.022
  0.023 -0.022  0.918
atom    6   Tr[ns(na)] =   5.43774
    eigenvalues: 
  0.844  0.930  0.945
    eigenvectors:
  0.338  0.000  0.662
  0.000  1.000  0.000
  0.662  0.000  0.338
    occupations:
  0.911 -0.001 -0.048
 -0.001  0.930 -0.001
 -0.048 -0.001  0.878
atom    7   Tr[ns(na)] =   5.43774
    eigenvalues: 
  0.844  0.930  0.945
    eigenvectors:
  0.338  0.000  0.662
  0.485  0.265  0.250
  0.177  0.735  0.088
    occupations:
  0.911 -0.041  0.025
 -0.041  0.892  0.023
  0.025  0.023  0.916
atom    8   Tr[ns(na)] =   5.43774
    eigenvalues: 
  0.844  0.930  0.945
    eigenvectors:
  0.338  0.000  0.662
  0.000  1.000  0.000
  0.662  0.000  0.338
    occupations:
  0.911 -0.001 -0.048
 -0.001  0.930 -0.001
 -0.048 -0.001  0.878
atom    9   Tr[ns(na)] =   5.43774
    eigenvalues: 
  0.844  0.930  0.945
    eigenvectors:
  0.338  0.000  0.662
  0.507  0.236  0.257
  0.155  0.764  0.081
    occupations:
  0.911  0.042  0.023
  0.042  0.890 -0.022
  0.023 -0.022  0.918
atom   10   Tr[ns(na)] =   5.43774
    eigenvalues: 
  0.844  0.930  0.945
    eigenvectors:
  0.338  0.000  0.662
  0.485  0.265  0.250
  0.177  0.735  0.088
    occupations:
  0.911 -0.041  0.025
 -0.041  0.892  0.023
  0.025  0.023  0.916
N of occupied +U levels =  56.2861068
 --- exit write_ns ---
 --- in v_hubbard ---
Hubbard energy    0.0962
 -------

     total cpu time spent up to now is       68.3 secs

     total energy              =    -538.24139570 Ry
     Harris-Foulkes estimate   =    -538.24564818 Ry
     estimated scf accuracy    <       0.03390042 Ry

     iteration #  3     ecut=    30.00 Ry     beta=0.20
     Davidson diagonalization with overlap
     ethr =  2.90E-05,  avg # of iterations =  1.0
 --- enter write_ns ---
 LDA+U parameters:
U( 1)     =  2.00000000
alpha( 1) = -0.15000000
U( 2)     =  2.00000000
alpha( 2) =  0.00000000
U( 3)     =  0.00000000
alpha( 3) =  0.00000000
U( 4)     =  0.00000000
alpha( 4) =  0.00000000
atom    1   Tr[ns(na)] =   8.10866
    eigenvalues: 
  0.558  0.558  0.979  0.979  0.980
    eigenvectors:
  0.000  0.000  0.000  0.000  1.000
  0.333  0.323  0.004  0.341  0.000
  0.323  0.333  0.341  0.004  0.000
  0.288  0.057  0.515  0.140  0.000
  0.057  0.288  0.140  0.515  0.000
    occupations:
  0.980  0.000  0.000  0.000  0.000
  0.000  0.703  0.000 -0.073  0.186
  0.000  0.000  0.703  0.186  0.073
  0.000 -0.073  0.186  0.834  0.000
  0.000  0.186  0.073  0.000  0.834
atom    2   Tr[ns(na)] =   7.99712
    eigenvalues: 
  0.541  0.541  0.972  0.972  0.973
    eigenvectors:
  0.000  0.000  0.000  0.000  1.000
  0.636  0.020  0.218  0.127  0.000
  0.020  0.636  0.127  0.218  0.000
  0.011  0.333  0.470  0.186  0.000
  0.333  0.011  0.186  0.470  0.000
    occupations:
  0.973  0.000  0.000  0.000  0.000
  0.000  0.689  0.000  0.072  0.192
  0.000  0.000  0.689  0.192 -0.072
  0.000  0.072  0.192  0.824  0.000
  0.000  0.192 -0.072  0.000  0.824
atom    3   Tr[ns(na)] =   3.79349
    eigenvalues: 
  0.355  0.355  0.382  0.402  0.402
    eigenvectors:
  0.000  0.000  1.000  0.000  0.000
  0.781  0.139  0.000  0.011  0.068
  0.139  0.781  0.000  0.068  0.011
  0.013  0.067  0.000  0.780  0.141
  0.067  0.013  0.000  0.141  0.780
    occupations:
  0.382  0.000  0.000  0.000  0.000
  0.000  0.359  0.000  0.000  0.013
  0.000  0.000  0.359  0.013  0.000
  0.000  0.000  0.013  0.398  0.000
  0.000  0.013  0.000  0.000  0.398
atom    4   Tr[ns(na)] =   3.79349
    eigenvalues: 
  0.355  0.355  0.382  0.402  0.402
    eigenvectors:
  0.000  0.000  1.000  0.000  0.000
  0.781  0.139  0.000  0.011  0.068
  0.139  0.781  0.000  0.068  0.011
  0.013  0.067  0.000  0.780  0.141
  0.067  0.013  0.000  0.141  0.780
    occupations:
  0.382  0.000  0.000  0.000  0.000
  0.000  0.359  0.000  0.000  0.013
  0.000  0.000  0.359  0.013  0.000
  0.000  0.000  0.013  0.398  0.000
  0.000  0.013  0.000  0.000  0.398
atom    5   Tr[ns(na)] =   5.43296
    eigenvalues: 
  0.842  0.930  0.945
    eigenvectors:
  0.338  0.000  0.662
  0.489  0.258  0.253
  0.173  0.742  0.085
    occupations:
  0.910  0.042  0.025
  0.042  0.891 -0.023
  0.025 -0.023  0.916
atom    6   Tr[ns(na)] =   5.43296
    eigenvalues: 
  0.842  0.930  0.945
    eigenvectors:
  0.338  0.000  0.662
  0.000  1.000  0.000
  0.661  0.000  0.338
    occupations:
  0.910  0.001 -0.049
  0.001  0.930  0.001
 -0.049  0.001  0.877
atom    7   Tr[ns(na)] =   5.43296
    eigenvalues: 
  0.842  0.930  0.945
    eigenvectors:
  0.338  0.000  0.662
  0.503  0.242  0.255
  0.158  0.758  0.084
    occupations:
  0.910 -0.042  0.024
 -0.042  0.889  0.022
  0.024  0.022  0.917
atom    8   Tr[ns(na)] =   5.43296
    eigenvalues: 
  0.842  0.930  0.945
    eigenvectors:
  0.338  0.000  0.662
  0.000  1.000  0.000
  0.661  0.000  0.338
    occupations:
  0.910  0.001 -0.049
  0.001  0.930  0.001
 -0.049  0.001  0.877
atom    9   Tr[ns(na)] =   5.43296
    eigenvalues: 
  0.842  0.930  0.945
    eigenvectors:
  0.338  0.000  0.662
  0.489  0.258  0.253
  0.173  0.742  0.085
    occupations:
  0.910  0.042  0.025
  0.042  0.891 -0.023
  0.025 -0.023  0.916
atom   10   Tr[ns(na)] =   5.43296
    eigenvalues: 
  0.842  0.930  0.945
    eigenvectors:
  0.338  0.000  0.662
  0.503  0.242  0.255
  0.158  0.758  0.084
    occupations:
  0.910 -0.042  0.024
 -0.042  0.889  0.022
  0.024  0.022  0.917
N of occupied +U levels =  56.2904758
 --- exit write_ns ---
 --- in v_hubbard ---
Hubbard energy    0.0943
 -------

     total cpu time spent up to now is       80.7 secs

     total energy              =    -538.24382294 Ry
     Harris-Foulkes estimate   =    -538.24433449 Ry
     estimated scf accuracy    <       0.00979133 Ry

     iteration #  4     ecut=    30.00 Ry     beta=0.20
     Davidson diagonalization with overlap
     ethr =  1.29E-05,  avg # of iterations =  1.0
 --- enter write_ns ---
 LDA+U parameters:
U( 1)     =  2.00000000
alpha( 1) = -0.15000000
U( 2)     =  2.00000000
alpha( 2) =  0.00000000
U( 3)     =  0.00000000
alpha( 3) =  0.00000000
U( 4)     =  0.00000000
alpha( 4) =  0.00000000
atom    1   Tr[ns(na)] =   8.07300
    eigenvalues: 
  0.554  0.554  0.976  0.976  0.977
    eigenvectors:
  0.000  0.000  0.000  0.000  1.000
  0.332  0.324  0.004  0.340  0.000
  0.324  0.332  0.340  0.004  0.000
  0.286  0.058  0.515  0.141  0.000
  0.058  0.286  0.141  0.515  0.000
    occupations:
  0.977  0.000  0.000  0.000  0.000
  0.000  0.699  0.000 -0.072  0.187
  0.000  0.000  0.699  0.187  0.072
  0.000 -0.072  0.187  0.831  0.000
  0.000  0.187  0.072  0.000  0.831
atom    2   Tr[ns(na)] =   8.05695
    eigenvalues: 
  0.550  0.550  0.976  0.976  0.977
    eigenvectors:
  0.000  0.000  0.000  0.000  1.000
  0.637  0.019  0.219  0.125  0.000
  0.019  0.637  0.125  0.219  0.000
  0.013  0.332  0.471  0.185  0.000
  0.332  0.013  0.185  0.471  0.000
    occupations:
  0.977  0.000  0.000  0.000  0.000
  0.000  0.696  0.000  0.072  0.189
  0.000  0.000  0.696  0.189 -0.072
  0.000  0.072  0.189  0.829  0.000
  0.000  0.189 -0.072  0.000  0.829
atom    3   Tr[ns(na)] =   3.79375
    eigenvalues: 
  0.355  0.355  0.382  0.402  0.402
    eigenvectors:
  0.000  0.000  1.000  0.000  0.000
  0.782  0.139  0.000  0.012  0.068
  0.139  0.782  0.000  0.068  0.012
  0.012  0.067  0.000  0.780  0.141
  0.067  0.012  0.000  0.141  0.780
    occupations:
  0.382  0.000  0.000  0.000  0.000
  0.000  0.359  0.000  0.000  0.013
  0.000  0.000  0.359  0.013  0.000
  0.000  0.000  0.013  0.398  0.000
  0.000  0.013  0.000  0.000  0.398
atom    4   Tr[ns(na)] =   3.79375
    eigenvalues: 
  0.355  0.355  0.382  0.402  0.402
    eigenvectors:
  0.000  0.000  1.000  0.000  0.000
  0.782  0.139  0.000  0.012  0.068
  0.139  0.782  0.000  0.068  0.012
  0.012  0.067  0.000  0.780  0.141
  0.067  0.012  0.000  0.141  0.780
    occupations:
  0.382  0.000  0.000  0.000  0.000
  0.000  0.359  0.000  0.000  0.013
  0.000  0.000  0.359  0.013  0.000
  0.000  0.000  0.013  0.398  0.000
  0.000  0.013  0.000  0.000  0.398
atom    5   Tr[ns(na)] =   5.42918
    eigenvalues: 
  0.841  0.929  0.945
    eigenvectors:
  0.339  0.000  0.661
  0.494  0.251  0.255
  0.167  0.749  0.084
    occupations:
  0.909  0.042  0.025
  0.042  0.889 -0.023
  0.025 -0.023  0.916
atom    6   Tr[ns(na)] =   5.42918
    eigenvalues: 
  0.841  0.929  0.945
    eigenvectors:
  0.339  0.000  0.661
  0.000  1.000  0.000
  0.661  0.000  0.339
    occupations:
  0.909  0.000 -0.049
  0.000  0.929  0.000
 -0.049  0.000  0.876
atom    7   Tr[ns(na)] =   5.42918
    eigenvalues: 
  0.841  0.929  0.945
    eigenvectors:
  0.339  0.000  0.661
  0.497  0.249  0.253
  0.164  0.751  0.085
    occupations:
  0.909 -0.042  0.024
 -0.042  0.889  0.023
  0.024  0.023  0.916
atom    8   Tr[ns(na)] =   5.42918
    eigenvalues: 
  0.841  0.929  0.945
    eigenvectors:
  0.339  0.000  0.661
  0.000  1.000  0.000
  0.661  0.000  0.339
    occupations:
  0.909  0.000 -0.049
  0.000  0.929  0.000
 -0.049  0.000  0.876
atom    9   Tr[ns(na)] =   5.42918
    eigenvalues: 
  0.841  0.929  0.945
    eigenvectors:
  0.339  0.000  0.661
  0.494  0.251  0.255
  0.167  0.749  0.084
    occupations:
  0.909  0.042  0.025
  0.042  0.889 -0.023
  0.025 -0.023  0.916
atom   10   Tr[ns(na)] =   5.42918
    eigenvalues: 
  0.841  0.929  0.945
    eigenvectors:
  0.339  0.000  0.661
  0.497  0.249  0.253
  0.164  0.751  0.085
    occupations:
  0.909 -0.042  0.024
 -0.042  0.889  0.023
  0.024  0.023  0.916
N of occupied +U levels =  56.2925536
 --- exit write_ns ---
 --- in v_hubbard ---
Hubbard energy    0.0734
 -------

     total cpu time spent up to now is       94.9 secs

     total energy              =    -538.24459830 Ry
     Harris-Foulkes estimate   =    -538.24416862 Ry
     estimated scf accuracy    <       0.00335222 Ry

     iteration #  5     ecut=    30.00 Ry     beta=0.20
     Davidson diagonalization with overlap
     ethr =  4.41E-06,  avg # of iterations =  1.0
 --- enter write_ns ---
 LDA+U parameters:
U( 1)     =  2.00000000
alpha( 1) = -0.15000000
U( 2)     =  2.00000000
alpha( 2) =  0.00000000
U( 3)     =  0.00000000
alpha( 3) =  0.00000000
U( 4)     =  0.00000000
alpha( 4) =  0.00000000
atom    1   Tr[ns(na)] =   8.07720
    eigenvalues: 
  0.552  0.552  0.978  0.978  0.979
    eigenvectors:
  0.000  0.000  0.000  0.000  1.000
  0.336  0.322  0.004  0.338  0.000
  0.322  0.336  0.338  0.004  0.000
  0.283  0.059  0.517  0.141  0.000
  0.059  0.283  0.141  0.517  0.000
    occupations:
  0.979  0.000  0.000  0.000  0.000
  0.000  0.698  0.000 -0.073  0.188
  0.000  0.000  0.698  0.188  0.073
  0.000 -0.073  0.188  0.832  0.000
  0.000  0.188  0.073  0.000  0.832
atom    2   Tr[ns(na)] =   8.06178
    eigenvalues: 
  0.547  0.547  0.979  0.979  0.979
    eigenvectors:
  0.000  0.000  0.000  0.000  1.000
  0.638  0.020  0.218  0.124  0.000
  0.020  0.638  0.124  0.218  0.000
  0.012  0.330  0.473  0.185  0.000
  0.330  0.012  0.185  0.473  0.000
    occupations:
  0.979  0.000  0.000  0.000  0.000
  0.000  0.695  0.000  0.073  0.191
  0.000  0.000  0.695  0.191 -0.073
  0.000  0.073  0.191  0.831  0.000
  0.000  0.191 -0.073  0.000  0.831
atom    3   Tr[ns(na)] =   3.79660
    eigenvalues: 
  0.356  0.356  0.382  0.402  0.402
    eigenvectors:
  0.000  0.000  1.000  0.000  0.000
  0.784  0.138  0.000  0.011  0.067
  0.138  0.784  0.000  0.067  0.011
  0.012  0.066  0.000  0.781  0.141
  0.066  0.012  0.000  0.141  0.781
    occupations:
  0.382  0.000  0.000  0.000  0.000
  0.000  0.359  0.000  0.000  0.012
  0.000  0.000  0.359  0.012  0.000
  0.000  0.000  0.012  0.399  0.000
  0.000  0.012  0.000  0.000  0.399
atom    4   Tr[ns(na)] =   3.79660
    eigenvalues: 
  0.356  0.356  0.382  0.402  0.402
    eigenvectors:
  0.000  0.000  1.000  0.000  0.000
  0.784  0.138  0.000  0.011  0.067
  0.138  0.784  0.000  0.067  0.011
  0.012  0.066  0.000  0.781  0.140
  0.066  0.012  0.000  0.140  0.781
    occupations:
  0.382  0.000  0.000  0.000  0.000
  0.000  0.359  0.000  0.000  0.012
  0.000  0.000  0.359  0.012  0.000
  0.000  0.000  0.012  0.399  0.000
  0.000  0.012  0.000  0.000  0.399
atom    5   Tr[ns(na)] =   5.42666
    eigenvalues: 
  0.840  0.929  0.944
    eigenvectors:
  0.339  0.000  0.661
  0.495  0.251  0.255
  0.167  0.749  0.084
    occupations:
  0.909  0.043  0.025
  0.043  0.889 -0.023
  0.025 -0.023  0.915
atom    6   Tr[ns(na)] =   5.42666
    eigenvalues: 
  0.840  0.929  0.944
    eigenvectors:
  0.339  0.000  0.661
  0.000  1.000  0.000
  0.661  0.000  0.339
    occupations:
  0.909  0.000 -0.049
  0.000  0.929  0.000
 -0.049  0.000  0.875
atom    7   Tr[ns(na)] =   5.42666
    eigenvalues: 
  0.840  0.929  0.944
    eigenvectors:
  0.339  0.000  0.661
  0.498  0.249  0.253
  0.164  0.751  0.085
    occupations:
  0.909 -0.043  0.025
 -0.043  0.889  0.023
  0.025  0.023  0.916
atom    8   Tr[ns(na)] =   5.42666
    eigenvalues: 
  0.840  0.929  0.944
    eigenvectors:
  0.339  0.000  0.661
  0.000  1.000  0.000
  0.661  0.000  0.339
    occupations:
  0.909  0.000 -0.049
  0.000  0.929  0.000
 -0.049  0.000  0.875
atom    9   Tr[ns(na)] =   5.42666
    eigenvalues: 
  0.840  0.929  0.944
    eigenvectors:
  0.339  0.000  0.661
  0.495  0.251  0.255
  0.167  0.749  0.084
    occupations:
  0.909  0.043  0.025
  0.043  0.889 -0.023
  0.025 -0.023  0.915
atom   10   Tr[ns(na)] =   5.42666
    eigenvalues: 
  0.840  0.929  0.944
    eigenvectors:
  0.339  0.000  0.661
  0.498  0.249  0.253
  0.164  0.751  0.085
    occupations:
  0.909 -0.043  0.025
 -0.043  0.889  0.023
  0.025  0.023  0.916
N of occupied +U levels =  56.2921795
 --- exit write_ns ---
 --- in v_hubbard ---
Hubbard energy    0.0750
 -------

     total cpu time spent up to now is      109.3 secs

     total energy              =    -538.24483909 Ry
     Harris-Foulkes estimate   =    -538.24477402 Ry
     estimated scf accuracy    <       0.00022113 Ry

     iteration #  6     ecut=    30.00 Ry     beta=0.20
     Davidson diagonalization with overlap
     ethr =  2.91E-07,  avg # of iterations =  2.0
 --- enter write_ns ---
 LDA+U parameters:
U( 1)     =  2.00000000
alpha( 1) = -0.15000000
U( 2)     =  2.00000000
alpha( 2) =  0.00000000
U( 3)     =  0.00000000
alpha( 3) =  0.00000000
U( 4)     =  0.00000000
alpha( 4) =  0.00000000
atom    1   Tr[ns(na)] =   8.07292
    eigenvalues: 
  0.551  0.551  0.978  0.978  0.979
    eigenvectors:
  0.000  0.000  0.000  0.000  1.000
  0.335  0.322  0.004  0.338  0.000
  0.322  0.335  0.338  0.004  0.000
  0.284  0.058  0.516  0.141  0.000
  0.058  0.284  0.141  0.516  0.000
    occupations:
  0.979  0.000  0.000  0.000  0.000
  0.000  0.697  0.000 -0.073  0.189
  0.000  0.000  0.697  0.189  0.073
  0.000 -0.073  0.189  0.832  0.000
  0.000  0.189  0.073  0.000  0.832
atom    2   Tr[ns(na)] =   8.05331
    eigenvalues: 
  0.546  0.546  0.978  0.978  0.979
    eigenvectors:
  0.000  0.000  0.000  0.000  1.000
  0.638  0.020  0.218  0.124  0.000
  0.020  0.638  0.124  0.218  0.000
  0.012  0.330  0.472  0.185  0.000
  0.330  0.012  0.185  0.472  0.000
    occupations:
  0.979  0.000  0.000  0.000  0.000
  0.000  0.694  0.000  0.073  0.192
  0.000  0.000  0.694  0.192 -0.073
  0.000  0.073  0.192  0.830  0.000
  0.000  0.192 -0.073  0.000  0.830
atom    3   Tr[ns(na)] =   3.79620
    eigenvalues: 
  0.356  0.356  0.382  0.402  0.402
    eigenvectors:
  0.000  0.000  1.000  0.000  0.000
  0.783  0.139  0.000  0.011  0.067
  0.139  0.783  0.000  0.067  0.011
  0.012  0.066  0.000  0.781  0.141
  0.066  0.012  0.000  0.141  0.781
    occupations:
  0.382  0.000  0.000  0.000  0.000
  0.000  0.359  0.000  0.000  0.012
  0.000  0.000  0.359  0.012  0.000
  0.000  0.000  0.012  0.398  0.000
  0.000  0.012  0.000  0.000  0.398
atom    4   Tr[ns(na)] =   3.79620
    eigenvalues: 
  0.356  0.356  0.382  0.402  0.402
    eigenvectors:
  0.000  0.000  1.000  0.000  0.000
  0.783  0.139  0.000  0.011  0.067
  0.139  0.783  0.000  0.067  0.011
  0.012  0.066  0.000  0.781  0.141
  0.066  0.012  0.000  0.141  0.781
    occupations:
  0.382  0.000  0.000  0.000  0.000
  0.000  0.359  0.000  0.000  0.012
  0.000  0.000  0.359  0.012  0.000
  0.000  0.000  0.012  0.398  0.000
  0.000  0.012  0.000  0.000  0.398
atom    5   Tr[ns(na)] =   5.42870
    eigenvalues: 
  0.841  0.929  0.944
    eigenvectors:
  0.339  0.000  0.661
  0.494  0.251  0.254
  0.167  0.749  0.084
    occupations:
  0.909  0.042  0.025
  0.042  0.889 -0.023
  0.025 -0.023  0.916
atom    6   Tr[ns(na)] =   5.42870
    eigenvalues: 
  0.841  0.929  0.944
    eigenvectors:
  0.339  0.000  0.661
  0.000  1.000  0.000
  0.661  0.000  0.339
    occupations:
  0.909  0.000 -0.049
  0.000  0.929  0.000
 -0.049  0.000  0.876
atom    7   Tr[ns(na)] =   5.42870
    eigenvalues: 
  0.841  0.929  0.944
    eigenvectors:
  0.339  0.000  0.661
  0.498  0.249  0.253
  0.164  0.751  0.085
    occupations:
  0.909 -0.043  0.024
 -0.043  0.889  0.023
  0.024  0.023  0.916
atom    8   Tr[ns(na)] =   5.42870
    eigenvalues: 
  0.841  0.929  0.944
    eigenvectors:
  0.339  0.000  0.661
  0.000  1.000  0.000
  0.661  0.000  0.339
    occupations:
  0.909  0.000 -0.049
  0.000  0.929  0.000
 -0.049  0.000  0.876
atom    9   Tr[ns(na)] =   5.42870
    eigenvalues: 
  0.841  0.929  0.944
    eigenvectors:
  0.339  0.000  0.661
  0.494  0.251  0.254
  0.167  0.749  0.084
    occupations:
  0.909  0.042  0.025
  0.042  0.889 -0.023
  0.025 -0.023  0.916
atom   10   Tr[ns(na)] =   5.42870
    eigenvalues: 
  0.841  0.929  0.944
    eigenvectors:
  0.339  0.000  0.661
  0.498  0.249  0.253
  0.164  0.751  0.085
    occupations:
  0.909 -0.043  0.024
 -0.043  0.889  0.023
  0.024  0.023  0.916
N of occupied +U levels =  56.2908405
 --- exit write_ns ---
 --- in v_hubbard ---
Hubbard energy    0.0748
 -------

     total cpu time spent up to now is      124.5 secs

     total energy              =    -538.24487986 Ry
     Harris-Foulkes estimate   =    -538.24486124 Ry
     estimated scf accuracy    <       0.00002057 Ry

     iteration #  7     ecut=    30.00 Ry     beta=0.20
     Davidson diagonalization with overlap
     ethr =  2.71E-08,  avg # of iterations =  2.1
 --- enter write_ns ---
 LDA+U parameters:
U( 1)     =  2.00000000
alpha( 1) = -0.15000000
U( 2)     =  2.00000000
alpha( 2) =  0.00000000
U( 3)     =  0.00000000
alpha( 3) =  0.00000000
U( 4)     =  0.00000000
alpha( 4) =  0.00000000
atom    1   Tr[ns(na)] =   8.06880
    eigenvalues: 
  0.550  0.550  0.978  0.978  0.979
    eigenvectors:
  0.000  0.000  0.000  0.000  1.000
  0.334  0.323  0.004  0.339  0.000
  0.323  0.334  0.339  0.004  0.000
  0.285  0.058  0.516  0.141  0.000
  0.058  0.285  0.141  0.516  0.000
    occupations:
  0.979  0.000  0.000  0.000  0.000
  0.000  0.697  0.000 -0.073  0.190
  0.000  0.000  0.697  0.190  0.073
  0.000 -0.073  0.190  0.831  0.000
  0.000  0.190  0.073  0.000  0.831
atom    2   Tr[ns(na)] =   8.05079
    eigenvalues: 
  0.545  0.545  0.978  0.978  0.979
    eigenvectors:
  0.000  0.000  0.000  0.000  1.000
  0.638  0.019  0.218  0.125  0.000
  0.019  0.638  0.125  0.218  0.000
  0.013  0.331  0.472  0.185  0.000
  0.331  0.013  0.185  0.472  0.000
    occupations:
  0.979  0.000  0.000  0.000  0.000
  0.000  0.693  0.000  0.073  0.192
  0.000  0.000  0.693  0.192 -0.073
  0.000  0.073  0.192  0.830  0.000
  0.000  0.192 -0.073  0.000  0.830
atom    3   Tr[ns(na)] =   3.79433
    eigenvalues: 
  0.356  0.356  0.382  0.402  0.402
    eigenvectors:
  0.000  0.000  1.000  0.000  0.000
  0.783  0.139  0.000  0.012  0.067
  0.139  0.783  0.000  0.067  0.012
  0.012  0.066  0.000  0.781  0.141
  0.066  0.012  0.000  0.141  0.781
    occupations:
  0.382  0.000  0.000  0.000  0.000
  0.000  0.359  0.000  0.000  0.012
  0.000  0.000  0.359  0.012  0.000
  0.000  0.000  0.012  0.398  0.000
  0.000  0.012  0.000  0.000  0.398
atom    4   Tr[ns(na)] =   3.79433
    eigenvalues: 
  0.356  0.356  0.382  0.402  0.402
    eigenvectors:
  0.000  0.000  1.000  0.000  0.000
  0.783  0.139  0.000  0.011  0.067
  0.139  0.783  0.000  0.067  0.011
  0.012  0.066  0.000  0.781  0.141
  0.066  0.012  0.000  0.141  0.781
    occupations:
  0.382  0.000  0.000  0.000  0.000
  0.000  0.359  0.000  0.000  0.012
  0.000  0.000  0.359  0.012  0.000
  0.000  0.000  0.012  0.398  0.000
  0.000  0.012  0.000  0.000  0.398
atom    5   Tr[ns(na)] =   5.43015
    eigenvalues: 
  0.841  0.929  0.945
    eigenvectors:
  0.339  0.000  0.661
  0.494  0.251  0.255
  0.167  0.749  0.084
    occupations:
  0.910  0.042  0.025
  0.042  0.890 -0.023
  0.025 -0.023  0.916
atom    6   Tr[ns(na)] =   5.43015
    eigenvalues: 
  0.841  0.929  0.945
    eigenvectors:
  0.339  0.000  0.661
  0.000  1.000  0.000
  0.661  0.000  0.339
    occupations:
  0.910  0.000 -0.049
  0.000  0.929  0.000
 -0.049  0.000  0.876
atom    7   Tr[ns(na)] =   5.43015
    eigenvalues: 
  0.841  0.929  0.945
    eigenvectors:
  0.339  0.000  0.661
  0.498  0.249  0.253
  0.164  0.751  0.085
    occupations:
  0.910 -0.042  0.024
 -0.042  0.889  0.023
  0.024  0.023  0.916
atom    8   Tr[ns(na)] =   5.43015
    eigenvalues: 
  0.841  0.929  0.945
    eigenvectors:
  0.339  0.000  0.661
  0.000  1.000  0.000
  0.661  0.000  0.339
    occupations:
  0.910  0.000 -0.049
  0.000  0.929  0.000
 -0.049  0.000  0.876
atom    9   Tr[ns(na)] =   5.43015
    eigenvalues: 
  0.841  0.929  0.945
    eigenvectors:
  0.339  0.000  0.661
  0.494  0.251  0.255
  0.167  0.749  0.084
    occupations:
  0.910  0.042  0.025
  0.042  0.890 -0.023
  0.025 -0.023  0.916
atom   10   Tr[ns(na)] =   5.43015
    eigenvalues: 
  0.841  0.929  0.945
    eigenvectors:
  0.339  0.000  0.661
  0.498  0.249  0.253
  0.164  0.751  0.085
    occupations:
  0.910 -0.042  0.024
 -0.042  0.889  0.023
  0.024  0.023  0.916
N of occupied +U levels =  56.2891486
 --- exit write_ns ---
 --- in v_hubbard ---
Hubbard energy    0.0751
 -------

     total cpu time spent up to now is      141.5 secs

     total energy              =    -538.24491817 Ry
     Harris-Foulkes estimate   =    -538.24488713 Ry
     estimated scf accuracy    <       0.00001669 Ry

     iteration #  8     ecut=    30.00 Ry     beta=0.20
     Davidson diagonalization with overlap
     ethr =  2.20E-08,  avg # of iterations =  1.0
 --- enter write_ns ---
 LDA+U parameters:
U( 1)     =  2.00000000
alpha( 1) = -0.15000000
U( 2)     =  2.00000000
alpha( 2) =  0.00000000
U( 3)     =  0.00000000
alpha( 3) =  0.00000000
U( 4)     =  0.00000000
alpha( 4) =  0.00000000
atom    1   Tr[ns(na)] =   8.07087
    eigenvalues: 
  0.550  0.550  0.978  0.978  0.979
    eigenvectors:
  0.000  0.000  0.000  0.000  1.000
  0.334  0.323  0.004  0.339  0.000
  0.323  0.334  0.339  0.004  0.000
  0.285  0.058  0.515  0.141  0.000
  0.058  0.285  0.141  0.515  0.000
    occupations:
  0.979  0.000  0.000  0.000  0.000
  0.000  0.697  0.000 -0.073  0.189
  0.000  0.000  0.697  0.189  0.073
  0.000 -0.073  0.189  0.831  0.000
  0.000  0.189  0.073  0.000  0.831
atom    2   Tr[ns(na)] =   8.05184
    eigenvalues: 
  0.545  0.545  0.978  0.978  0.979
    eigenvectors:
  0.000  0.000  0.000  0.000  1.000
  0.638  0.019  0.218  0.125  0.000
  0.019  0.638  0.125  0.218  0.000
  0.012  0.331  0.472  0.185  0.000
  0.331  0.012  0.185  0.472  0.000
    occupations:
  0.979  0.000  0.000  0.000  0.000
  0.000  0.694  0.000  0.073  0.192
  0.000  0.000  0.694  0.192 -0.073
  0.000  0.073  0.192  0.830  0.000
  0.000  0.192 -0.073  0.000  0.830
atom    3   Tr[ns(na)] =   3.79464
    eigenvalues: 
  0.356  0.356  0.382  0.402  0.402
    eigenvectors:
  0.000  0.000  1.000  0.000  0.000
  0.783  0.138  0.000  0.011  0.067
  0.138  0.783  0.000  0.067  0.011
  0.012  0.066  0.000  0.781  0.141
  0.066  0.012  0.000  0.141  0.781
    occupations:
  0.382  0.000  0.000  0.000  0.000
  0.000  0.359  0.000  0.000  0.012
  0.000  0.000  0.359  0.012  0.000
  0.000  0.000  0.012  0.398  0.000
  0.000  0.012  0.000  0.000  0.398
atom    4   Tr[ns(na)] =   3.79464
    eigenvalues: 
  0.356  0.356  0.382  0.402  0.402
    eigenvectors:
  0.000  0.000  1.000  0.000  0.000
  0.783  0.139  0.000  0.011  0.067
  0.139  0.783  0.000  0.067  0.011
  0.012  0.066  0.000  0.781  0.141
  0.066  0.012  0.000  0.141  0.781
    occupations:
  0.382  0.000  0.000  0.000  0.000
  0.000  0.359  0.000  0.000  0.012
  0.000  0.000  0.359  0.012  0.000
  0.000  0.000  0.012  0.398  0.000
  0.000  0.012  0.000  0.000  0.398
atom    5   Tr[ns(na)] =   5.42960
    eigenvalues: 
  0.841  0.929  0.945
    eigenvectors:
  0.339  0.000  0.661
  0.494  0.251  0.255
  0.167  0.749  0.084
    occupations:
  0.910  0.042  0.025
  0.042  0.890 -0.023
  0.025 -0.023  0.916
atom    6   Tr[ns(na)] =   5.42960
    eigenvalues: 
  0.841  0.929  0.945
    eigenvectors:
  0.339  0.000  0.661
  0.000  1.000  0.000
  0.661  0.000  0.339
    occupations:
  0.910  0.000 -0.049
  0.000  0.929  0.000
 -0.049  0.000  0.876
atom    7   Tr[ns(na)] =   5.42960
    eigenvalues: 
  0.841  0.929  0.945
    eigenvectors:
  0.339  0.000  0.661
  0.498  0.249  0.253
  0.164  0.751  0.085
    occupations:
  0.910 -0.043  0.024
 -0.043  0.889  0.023
  0.024  0.023  0.916
atom    8   Tr[ns(na)] =   5.42960
    eigenvalues: 
  0.841  0.929  0.945
    eigenvectors:
  0.339  0.000  0.661
  0.000  1.000  0.000
  0.661  0.000  0.339
    occupations:
  0.910  0.000 -0.049
  0.000  0.929  0.000
 -0.049  0.000  0.876
atom    9   Tr[ns(na)] =   5.42960
    eigenvalues: 
  0.841  0.929  0.945
    eigenvectors:
  0.339  0.000  0.661
  0.494  0.251  0.255
  0.167  0.749  0.084
    occupations:
  0.910  0.042  0.025
  0.042  0.890 -0.023
  0.025 -0.023  0.916
atom   10   Tr[ns(na)] =   5.42960
    eigenvalues: 
  0.841  0.929  0.945
    eigenvectors:
  0.339  0.000  0.661
  0.498  0.249  0.253
  0.164  0.751  0.085
    occupations:
  0.910 -0.043  0.024
 -0.043  0.889  0.023
  0.024  0.023  0.916
N of occupied +U levels =  56.2895951
 --- exit write_ns ---
 --- in v_hubbard ---
Hubbard energy    0.0752
 -------

     total cpu time spent up to now is      156.2 secs

     total energy              =    -538.24493576 Ry
     Harris-Foulkes estimate   =    -538.24491899 Ry
     estimated scf accuracy    <       0.00000263 Ry

     iteration #  9     ecut=    30.00 Ry     beta=0.20
     Davidson diagonalization with overlap
     ethr =  3.46E-09,  avg # of iterations =  2.0
 --- enter write_ns ---
 LDA+U parameters:
U( 1)     =  2.00000000
alpha( 1) = -0.15000000
U( 2)     =  2.00000000
alpha( 2) =  0.00000000
U( 3)     =  0.00000000
alpha( 3) =  0.00000000
U( 4)     =  0.00000000
alpha( 4) =  0.00000000
atom    1   Tr[ns(na)] =   8.07169
    eigenvalues: 
  0.551  0.551  0.978  0.978  0.979
    eigenvectors:
  0.000  0.000  0.000  0.000  1.000
  0.335  0.322  0.004  0.339  0.000
  0.322  0.335  0.339  0.004  0.000
  0.285  0.058  0.516  0.141  0.000
  0.058  0.285  0.141  0.516  0.000
    occupations:
  0.979  0.000  0.000  0.000  0.000
  0.000  0.697  0.000 -0.073  0.189
  0.000  0.000  0.697  0.189  0.073
  0.000 -0.073  0.189  0.831  0.000
  0.000  0.189  0.073  0.000  0.831
atom    2   Tr[ns(na)] =   8.05218
    eigenvalues: 
  0.545  0.545  0.978  0.978  0.979
    eigenvectors:
  0.000  0.000  0.000  0.000  1.000
  0.638  0.019  0.218  0.125  0.000
  0.019  0.638  0.125  0.218  0.000
  0.012  0.331  0.472  0.185  0.000
  0.331  0.012  0.185  0.472  0.000
    occupations:
  0.979  0.000  0.000  0.000  0.000
  0.000  0.694  0.000  0.073  0.192
  0.000  0.000  0.694  0.192 -0.073
  0.000  0.073  0.192  0.830  0.000
  0.000  0.192 -0.073  0.000  0.830
atom    3   Tr[ns(na)] =   3.79521
    eigenvalues: 
  0.356  0.356  0.382  0.402  0.402
    eigenvectors:
  0.000  0.000  1.000  0.000  0.000
  0.783  0.139  0.000  0.011  0.067
  0.139  0.783  0.000  0.067  0.011
  0.012  0.066  0.000  0.781  0.141
  0.066  0.012  0.000  0.141  0.781
    occupations:
  0.382  0.000  0.000  0.000  0.000
  0.000  0.359  0.000  0.000  0.012
  0.000  0.000  0.359  0.012  0.000
  0.000  0.000  0.012  0.398  0.000
  0.000  0.012  0.000  0.000  0.398
atom    4   Tr[ns(na)] =   3.79521
    eigenvalues: 
  0.356  0.356  0.382  0.402  0.402
    eigenvectors:
  0.000  0.000  1.000  0.000  0.000
  0.783  0.138  0.000  0.011  0.067
  0.138  0.783  0.000  0.067  0.011
  0.012  0.066  0.000  0.781  0.141
  0.066  0.012  0.000  0.141  0.781
    occupations:
  0.382  0.000  0.000  0.000  0.000
  0.000  0.359  0.000  0.000  0.012
  0.000  0.000  0.359  0.012  0.000
  0.000  0.000  0.012  0.398  0.000
  0.000  0.012  0.000  0.000  0.398
atom    5   Tr[ns(na)] =   5.42928
    eigenvalues: 
  0.841  0.929  0.945
    eigenvectors:
  0.339  0.000  0.661
  0.494  0.251  0.255
  0.167  0.749  0.084
    occupations:
  0.909  0.042  0.025
  0.042  0.889 -0.023
  0.025 -0.023  0.916
atom    6   Tr[ns(na)] =   5.42928
    eigenvalues: 
  0.841  0.929  0.945
    eigenvectors:
  0.339  0.000  0.661
  0.000  1.000  0.000
  0.661  0.000  0.339
    occupations:
  0.909  0.000 -0.049
  0.000  0.929  0.000
 -0.049  0.000  0.876
atom    7   Tr[ns(na)] =   5.42928
    eigenvalues: 
  0.841  0.929  0.945
    eigenvectors:
  0.339  0.000  0.661
  0.498  0.249  0.253
  0.164  0.751  0.085
    occupations:
  0.909 -0.043  0.024
 -0.043  0.889  0.023
  0.024  0.023  0.916
atom    8   Tr[ns(na)] =   5.42928
    eigenvalues: 
  0.841  0.929  0.945
    eigenvectors:
  0.339  0.000  0.661
  0.000  1.000  0.000
  0.661  0.000  0.339
    occupations:
  0.909  0.000 -0.049
  0.000  0.929  0.000
 -0.049  0.000  0.876
atom    9   Tr[ns(na)] =   5.42928
    eigenvalues: 
  0.841  0.929  0.945
    eigenvectors:
  0.339  0.000  0.661
  0.494  0.251  0.255
  0.167  0.749  0.084
    occupations:
  0.909  0.042  0.025
  0.042  0.889 -0.023
  0.025 -0.023  0.916
atom   10   Tr[ns(na)] =   5.42928
    eigenvalues: 
  0.841  0.929  0.945
    eigenvectors:
  0.339  0.000  0.661
  0.498  0.249  0.253
  0.164  0.751  0.085
    occupations:
  0.909 -0.043  0.024
 -0.043  0.889  0.023
  0.024  0.023  0.916
N of occupied +U levels =  56.2899925
 --- exit write_ns ---
 --- in v_hubbard ---
Hubbard energy    0.0752
 -------

     total cpu time spent up to now is      171.4 secs

     total energy              =    -538.24494777 Ry
     Harris-Foulkes estimate   =    -538.24493611 Ry
     estimated scf accuracy    <       0.00000013 Ry

     iteration # 10     ecut=    30.00 Ry     beta=0.20
     Davidson diagonalization with overlap
     ethr =  1.66E-10,  avg # of iterations =  2.0
 --- enter write_ns ---
 LDA+U parameters:
U( 1)     =  2.00000000
alpha( 1) = -0.15000000
U( 2)     =  2.00000000
alpha( 2) =  0.00000000
U( 3)     =  0.00000000
alpha( 3) =  0.00000000
U( 4)     =  0.00000000
alpha( 4) =  0.00000000
atom    1   Tr[ns(na)] =   8.07173
    eigenvalues: 
  0.551  0.551  0.978  0.978  0.979
    eigenvectors:
  0.000  0.000  0.000  0.000  1.000
  0.334  0.323  0.004  0.339  0.000
  0.323  0.334  0.339  0.004  0.000
  0.285  0.058  0.516  0.141  0.000
  0.058  0.285  0.141  0.516  0.000
    occupations:
  0.979  0.000  0.000  0.000  0.000
  0.000  0.697  0.000 -0.073  0.189
  0.000  0.000  0.697  0.189  0.073
  0.000 -0.073  0.189  0.831  0.000
  0.000  0.189  0.073  0.000  0.831
atom    2   Tr[ns(na)] =   8.05235
    eigenvalues: 
  0.545  0.545  0.978  0.978  0.979
    eigenvectors:
  0.000  0.000  0.000  0.000  1.000
  0.638  0.019  0.218  0.125  0.000
  0.019  0.638  0.125  0.218  0.000
  0.012  0.330  0.472  0.185  0.000
  0.330  0.012  0.185  0.472  0.000
    occupations:
  0.979  0.000  0.000  0.000  0.000
  0.000  0.694  0.000  0.073  0.192
  0.000  0.000  0.694  0.192 -0.073
  0.000  0.073  0.192  0.830  0.000
  0.000  0.192 -0.073  0.000  0.830
atom    3   Tr[ns(na)] =   3.79516
    eigenvalues: 
  0.356  0.356  0.382  0.402  0.402
    eigenvectors:
  0.000  0.000  1.000  0.000  0.000
  0.783  0.139  0.000  0.011  0.067
  0.139  0.783  0.000  0.067  0.011
  0.012  0.066  0.000  0.781  0.141
  0.066  0.012  0.000  0.141  0.781
    occupations:
  0.382  0.000  0.000  0.000  0.000
  0.000  0.359  0.000  0.000  0.012
  0.000  0.000  0.359  0.012  0.000
  0.000  0.000  0.012  0.398  0.000
  0.000  0.012  0.000  0.000  0.398
atom    4   Tr[ns(na)] =   3.79516
    eigenvalues: 
  0.356  0.356  0.382  0.402  0.402
    eigenvectors:
  0.000  0.000  1.000  0.000  0.000
  0.782  0.139  0.000  0.011  0.067
  0.139  0.782  0.000  0.067  0.011
  0.012  0.066  0.000  0.781  0.141
  0.066  0.012  0.000  0.141  0.781
    occupations:
  0.382  0.000  0.000  0.000  0.000
  0.000  0.359  0.000  0.000  0.012
  0.000  0.000  0.359  0.012  0.000
  0.000  0.000  0.012  0.398  0.000
  0.000  0.012  0.000  0.000  0.398
atom    5   Tr[ns(na)] =   5.42926
    eigenvalues: 
  0.841  0.929  0.945
    eigenvectors:
  0.339  0.000  0.661
  0.494  0.251  0.255
  0.167  0.749  0.084
    occupations:
  0.909  0.042  0.025
  0.042  0.889 -0.023
  0.025 -0.023  0.916
atom    6   Tr[ns(na)] =   5.42926
    eigenvalues: 
  0.841  0.929  0.945
    eigenvectors:
  0.339  0.000  0.661
  0.000  1.000  0.000
  0.661  0.000  0.339
    occupations:
  0.909  0.000 -0.049
  0.000  0.929  0.000
 -0.049  0.000  0.876
atom    7   Tr[ns(na)] =   5.42926
    eigenvalues: 
  0.841  0.929  0.945
    eigenvectors:
  0.339  0.000  0.661
  0.498  0.249  0.253
  0.164  0.751  0.085
    occupations:
  0.909 -0.043  0.024
 -0.043  0.889  0.023
  0.024  0.023  0.916
atom    8   Tr[ns(na)] =   5.42926
    eigenvalues: 
  0.841  0.929  0.945
    eigenvectors:
  0.339  0.000  0.661
  0.000  1.000  0.000
  0.661  0.000  0.339
    occupations:
  0.909  0.000 -0.049
  0.000  0.929  0.000
 -0.049  0.000  0.876
atom    9   Tr[ns(na)] =   5.42926
    eigenvalues: 
  0.841  0.929  0.945
    eigenvectors:
  0.339  0.000  0.661
  0.494  0.251  0.255
  0.167  0.749  0.084
    occupations:
  0.909  0.042  0.025
  0.042  0.889 -0.023
  0.025 -0.023  0.916
atom   10   Tr[ns(na)] =   5.42926
    eigenvalues: 
  0.841  0.929  0.945
    eigenvectors:
  0.339  0.000  0.661
  0.498  0.249  0.253
  0.164  0.751  0.085
    occupations:
  0.909 -0.043  0.024
 -0.043  0.889  0.023
  0.024  0.023  0.916
N of occupied +U levels =  56.2899705
 --- exit write_ns ---
 --- in v_hubbard ---
Hubbard energy    0.0753
 -------

     total cpu time spent up to now is      185.8 secs

     total energy              =    -538.24495556 Ry
     Harris-Foulkes estimate   =    -538.24494779 Ry
     estimated scf accuracy    <       0.00000008 Ry

     iteration # 11     ecut=    30.00 Ry     beta=0.20
     Davidson diagonalization with overlap
     ethr =  1.05E-10,  avg # of iterations =  2.0
 --- enter write_ns ---
 LDA+U parameters:
U( 1)     =  2.00000000
alpha( 1) = -0.15000000
U( 2)     =  2.00000000
alpha( 2) =  0.00000000
U( 3)     =  0.00000000
alpha( 3) =  0.00000000
U( 4)     =  0.00000000
alpha( 4) =  0.00000000
atom    1   Tr[ns(na)] =   8.07166
    eigenvalues: 
  0.551  0.551  0.978  0.978  0.979
    eigenvectors:
  0.000  0.000  0.000  0.000  1.000
  0.334  0.323  0.004  0.339  0.000
  0.323  0.334  0.339  0.004  0.000
  0.285  0.058  0.516  0.141  0.000
  0.058  0.285  0.141  0.516  0.000
    occupations:
  0.979  0.000  0.000  0.000  0.000
  0.000  0.697  0.000 -0.073  0.189
  0.000  0.000  0.697  0.189  0.073
  0.000 -0.073  0.189  0.831  0.000
  0.000  0.189  0.073  0.000  0.831
atom    2   Tr[ns(na)] =   8.05218
    eigenvalues: 
  0.545  0.545  0.978  0.978  0.979
    eigenvectors:
  0.000  0.000  0.000  0.000  1.000
  0.637  0.020  0.218  0.124  0.000
  0.020  0.637  0.124  0.218  0.000
  0.012  0.331  0.472  0.185  0.000
  0.331  0.012  0.185  0.472  0.000
    occupations:
  0.979  0.000  0.000  0.000  0.000
  0.000  0.694  0.000  0.073  0.192
  0.000  0.000  0.694  0.192 -0.073
  0.000  0.073  0.192  0.830  0.000
  0.000  0.192 -0.073  0.000  0.830
atom    3   Tr[ns(na)] =   3.79503
    eigenvalues: 
  0.356  0.356  0.382  0.402  0.402
    eigenvectors:
  0.000  0.000  1.000  0.000  0.000
  0.782  0.139  0.000  0.011  0.067
  0.139  0.782  0.000  0.067  0.011
  0.012  0.066  0.000  0.781  0.141
  0.066  0.012  0.000  0.141  0.781
    occupations:
  0.382  0.000  0.000  0.000  0.000
  0.000  0.359  0.000  0.000  0.012
  0.000  0.000  0.359  0.012  0.000
  0.000  0.000  0.012  0.398  0.000
  0.000  0.012  0.000  0.000  0.398
atom    4   Tr[ns(na)] =   3.79503
    eigenvalues: 
  0.356  0.356  0.382  0.402  0.402
    eigenvectors:
  0.000  0.000  1.000  0.000  0.000
  0.782  0.139  0.000  0.012  0.067
  0.139  0.782  0.000  0.067  0.012
  0.012  0.066  0.000  0.781  0.141
  0.066  0.012  0.000  0.141  0.781
    occupations:
  0.382  0.000  0.000  0.000  0.000
  0.000  0.359  0.000  0.000  0.012
  0.000  0.000  0.359  0.012  0.000
  0.000  0.000  0.012  0.398  0.000
  0.000  0.012  0.000  0.000  0.398
atom    5   Tr[ns(na)] =   5.42933
    eigenvalues: 
  0.841  0.929  0.945
    eigenvectors:
  0.339  0.000  0.661
  0.494  0.251  0.255
  0.167  0.749  0.084
    occupations:
  0.909  0.042  0.025
  0.042  0.889 -0.023
  0.025 -0.023  0.916
atom    6   Tr[ns(na)] =   5.42933
    eigenvalues: 
  0.841  0.929  0.945
    eigenvectors:
  0.339  0.000  0.661
  0.000  1.000  0.000
  0.661  0.000  0.339
    occupations:
  0.909  0.000 -0.049
  0.000  0.929  0.000
 -0.049  0.000  0.876
atom    7   Tr[ns(na)] =   5.42933
    eigenvalues: 
  0.841  0.929  0.945
    eigenvectors:
  0.339  0.000  0.661
  0.498  0.249  0.253
  0.164  0.751  0.085
    occupations:
  0.909 -0.043  0.024
 -0.043  0.889  0.023
  0.024  0.023  0.916
atom    8   Tr[ns(na)] =   5.42933
    eigenvalues: 
  0.841  0.929  0.945
    eigenvectors:
  0.339  0.000  0.661
  0.000  1.000  0.000
  0.661  0.000  0.339
    occupations:
  0.909  0.000 -0.049
  0.000  0.929  0.000
 -0.049  0.000  0.876
atom    9   Tr[ns(na)] =   5.42933
    eigenvalues: 
  0.841  0.929  0.945
    eigenvectors:
  0.339  0.000  0.661
  0.494  0.251  0.255
  0.167  0.749  0.084
    occupations:
  0.909  0.042  0.025
  0.042  0.889 -0.023
  0.025 -0.023  0.916
atom   10   Tr[ns(na)] =   5.42933
    eigenvalues: 
  0.841  0.929  0.945
    eigenvectors:
  0.339  0.000  0.661
  0.498  0.249  0.253
  0.164  0.751  0.085
    occupations:
  0.909 -0.043  0.024
 -0.043  0.889  0.023
  0.024  0.023  0.916
N of occupied +U levels =  56.2898678
 --- exit write_ns ---
 --- in v_hubbard ---
Hubbard energy    0.0753
 -------

     total cpu time spent up to now is      200.3 secs

     total energy              =    -538.24496026 Ry
     Harris-Foulkes estimate   =    -538.24495558 Ry
     estimated scf accuracy    <       0.00000004 Ry

     iteration # 12     ecut=    30.00 Ry     beta=0.20
     Davidson diagonalization with overlap
     ethr =  5.41E-11,  avg # of iterations =  1.0
 --- enter write_ns ---
 LDA+U parameters:
U( 1)     =  2.00000000
alpha( 1) = -0.15000000
U( 2)     =  2.00000000
alpha( 2) =  0.00000000
U( 3)     =  0.00000000
alpha( 3) =  0.00000000
U( 4)     =  0.00000000
alpha( 4) =  0.00000000
atom    1   Tr[ns(na)] =   8.07174
    eigenvalues: 
  0.551  0.551  0.978  0.978  0.979
    eigenvectors:
  0.000  0.000  0.000  0.000  1.000
  0.335  0.322  0.004  0.339  0.000
  0.322  0.335  0.339  0.004  0.000
  0.285  0.058  0.516  0.141  0.000
  0.058  0.285  0.141  0.516  0.000
    occupations:
  0.979  0.000  0.000  0.000  0.000
  0.000  0.697  0.000 -0.073  0.189
  0.000  0.000  0.697  0.189  0.073
  0.000 -0.073  0.189  0.831  0.000
  0.000  0.189  0.073  0.000  0.831
atom    2   Tr[ns(na)] =   8.05227
    eigenvalues: 
  0.545  0.545  0.978  0.978  0.979
    eigenvectors:
  0.000  0.000  0.000  0.000  1.000
  0.638  0.019  0.218  0.125  0.000
  0.019  0.638  0.125  0.218  0.000
  0.012  0.330  0.472  0.185  0.000
  0.330  0.012  0.185  0.472  0.000
    occupations:
  0.979  0.000  0.000  0.000  0.000
  0.000  0.694  0.000  0.073  0.192
  0.000  0.000  0.694  0.192 -0.073
  0.000  0.073  0.192  0.830  0.000
  0.000  0.192 -0.073  0.000  0.830
atom    3   Tr[ns(na)] =   3.79507
    eigenvalues: 
  0.356  0.356  0.382  0.402  0.402
    eigenvectors:
  0.000  0.000  1.000  0.000  0.000
  0.783  0.139  0.000  0.011  0.067
  0.139  0.783  0.000  0.067  0.011
  0.012  0.066  0.000  0.781  0.141
  0.066  0.012  0.000  0.141  0.781
    occupations:
  0.382  0.000  0.000  0.000  0.000
  0.000  0.359  0.000  0.000  0.012
  0.000  0.000  0.359  0.012  0.000
  0.000  0.000  0.012  0.398  0.000
  0.000  0.012  0.000  0.000  0.398
atom    4   Tr[ns(na)] =   3.79507
    eigenvalues: 
  0.356  0.356  0.382  0.402  0.402
    eigenvectors:
  0.000  0.000  1.000  0.000  0.000
  0.783  0.138  0.000  0.011  0.067
  0.138  0.783  0.000  0.067  0.011
  0.012  0.066  0.000  0.781  0.141
  0.066  0.012  0.000  0.141  0.781
    occupations:
  0.382  0.000  0.000  0.000  0.000
  0.000  0.359  0.000  0.000  0.012
  0.000  0.000  0.359  0.012  0.000
  0.000  0.000  0.012  0.398  0.000
  0.000  0.012  0.000  0.000  0.398
atom    5   Tr[ns(na)] =   5.42929
    eigenvalues: 
  0.841  0.929  0.945
    eigenvectors:
  0.339  0.000  0.661
  0.494  0.251  0.255
  0.167  0.749  0.084
    occupations:
  0.909  0.042  0.025
  0.042  0.889 -0.023
  0.025 -0.023  0.916
atom    6   Tr[ns(na)] =   5.42929
    eigenvalues: 
  0.841  0.929  0.945
    eigenvectors:
  0.339  0.000  0.661
  0.000  1.000  0.000
  0.661  0.000  0.339
    occupations:
  0.909  0.000 -0.049
  0.000  0.929  0.000
 -0.049  0.000  0.876
atom    7   Tr[ns(na)] =   5.42929
    eigenvalues: 
  0.841  0.929  0.945
    eigenvectors:
  0.339  0.000  0.661
  0.498  0.249  0.253
  0.164  0.751  0.085
    occupations:
  0.909 -0.043  0.024
 -0.043  0.889  0.023
  0.024  0.023  0.916
atom    8   Tr[ns(na)] =   5.42929
    eigenvalues: 
  0.841  0.929  0.945
    eigenvectors:
  0.339  0.000  0.661
  0.000  1.000  0.000
  0.661  0.000  0.339
    occupations:
  0.909  0.000 -0.049
  0.000  0.929  0.000
 -0.049  0.000  0.876
atom    9   Tr[ns(na)] =   5.42929
    eigenvalues: 
  0.841  0.929  0.945
    eigenvectors:
  0.339  0.000  0.661
  0.494  0.251  0.255
  0.167  0.749  0.084
    occupations:
  0.909  0.042  0.025
  0.042  0.889 -0.023
  0.025 -0.023  0.916
atom   10   Tr[ns(na)] =   5.42929
    eigenvalues: 
  0.841  0.929  0.945
    eigenvectors:
  0.339  0.000  0.661
  0.498  0.249  0.253
  0.164  0.751  0.085
    occupations:
  0.909 -0.043  0.024
 -0.043  0.889  0.023
  0.024  0.023  0.916
N of occupied +U levels =  56.2899044
 --- exit write_ns ---
 --- in v_hubbard ---
Hubbard energy    0.0753
 -------

     total cpu time spent up to now is      213.0 secs

     End of self-consistent calculation

          k = 0.0000 0.0000 0.0000 (  2175 PWs)   bands (ev):

   -19.8051 -19.6319  -6.5537  -5.8584  -5.8584  -5.8309  -5.8309  -5.4905
    -3.8024  -3.2673  -3.2339  -3.2339  -3.0320  -3.0320   5.1904   6.8324
     6.8324   7.3976   7.3976   7.4444   7.5132   7.5132   7.7092   9.2858
     9.4831   9.6111   9.6111   9.6693   9.6693  10.0937  10.0937  10.3431
    10.4515  10.4515  10.6665  11.2772  11.2772  11.7572  12.0499  12.0499
    14.7588  14.7588  15.4200  15.4200  16.1931  16.7800

     occupation numbers 
     0.0313   0.0313   0.0313   0.0313   0.0313   0.0313   0.0313   0.0313
     0.0313   0.0313   0.0313   0.0313   0.0313   0.0313   0.0313   0.0313
     0.0313   0.0313   0.0313   0.0313   0.0313   0.0313   0.0313   0.0313
     0.0312   0.0312   0.0312   0.0312   0.0312   0.0312   0.0312   0.0312
     0.0312   0.0312   0.0312   0.0306   0.0306   0.0203   0.0082   0.0082
     0.0000   0.0000   0.0000   0.0000   0.0000   0.0000

          k =-0.2471-0.1427 0.1027 (  2181 PWs)   bands (ev):

   -19.7785 -19.6618  -6.7327  -6.2986  -5.9598  -5.8647  -5.6254  -5.4930
    -3.6068  -3.4018  -2.9433  -2.9134  -2.8598  -2.7682   5.5479   6.8553
     6.9357   6.9518   6.9975   7.3812   7.4201   7.5023   7.6111   8.4142
     8.4629   9.0522   9.6266   9.7402   9.7623   9.9909  10.3358  10.3454
    10.5166  10.5189  10.6475  11.4401  11.5078  11.5476  12.3073  12.3762
    14.3019  14.3107  15.8087  16.0623  16.9673  17.2609

     occupation numbers 
     0.1875   0.1875   0.1875   0.1875   0.1875   0.1875   0.1875   0.1875
     0.1875   0.1875   0.1875   0.1875   0.1875   0.1875   0.1875   0.1875
     0.1875   0.1875   0.1875   0.1875   0.1875   0.1875   0.1875   0.1875
     0.1875   0.1875   0.1875   0.1875   0.1875   0.1875   0.1875   0.1875
     0.1875   0.1875   0.1875   0.1745   0.1675   0.1624   0.0120   0.0073
     0.0000   0.0000   0.0000   0.0000   0.0000   0.0000

          k = 0.4942 0.2853-0.2053 (  2202 PWs)   bands (ev):

   -19.7225 -19.7212  -6.7318  -6.7211  -5.9809  -5.9684  -5.5422  -5.5304
    -3.3931  -3.3876  -2.8020  -2.7969  -2.5147  -2.5129   6.0244   6.0345
     7.1071   7.1515   7.1794   7.2241   7.4543   7.5062   7.6553   7.7100
     7.8666   7.9264   9.4631   9.4671   9.8557   9.8609  10.2630  10.2697
    10.9149  10.9168  11.0401  11.0445  11.2633  11.2714  13.2794  13.3150
    13.3639  13.3996  16.8262  16.8308  17.1258  17.1279

     occupation numbers 
     0.0938   0.0938   0.0938   0.0938   0.0938   0.0938   0.0938   0.0938
     0.0938   0.0938   0.0938   0.0938   0.0938   0.0938   0.0938   0.0938
     0.0938   0.0938   0.0938   0.0938   0.0938   0.0938   0.0938   0.0938
     0.0938   0.0938   0.0938   0.0938   0.0937   0.0937   0.0937   0.0937
     0.0937   0.0937   0.0936   0.0935   0.0920   0.0919   0.0000   0.0000
     0.0000   0.0000   0.0000   0.0000   0.0000   0.0000

          k =-0.2471 0.1427 0.2053 (  2195 PWs)   bands (ev):

   -19.7725 -19.6684  -6.8609  -6.2442  -6.0757  -5.8435  -5.6674  -5.4800
    -3.4239  -3.2703  -3.1116  -2.9014  -2.8271  -2.5686   5.5748   6.7325
     6.7690   6.8306   7.1918   7.4382   7.4770   7.4893   7.5340   8.5121
     8.5700   8.7758   9.2741   9.6146   9.9208  10.0185  10.0249  10.1365
    10.2640  10.9703  11.1085  11.1198  11.4622  11.5402  11.9516  12.7203
    13.6244  14.7753  15.9849  16.1866  17.0305  17.5326

     occupation numbers 
     0.1875   0.1875   0.1875   0.1875   0.1875   0.1875   0.1875   0.1875
     0.1875   0.1875   0.1875   0.1875   0.1875   0.1875   0.1875   0.1875
     0.1875   0.1875   0.1875   0.1875   0.1875   0.1875   0.1875   0.1875
     0.1875   0.1875   0.1875   0.1875   0.1875   0.1875   0.1875   0.1875
     0.1875   0.1873   0.1867   0.1866   0.1725   0.1634   0.0722   0.0003
     0.0000   0.0000   0.0000   0.0000   0.0000   0.0000

          k = 0.4942 0.5706-0.1027 (  2198 PWs)   bands (ev):

   -19.7372 -19.7067  -6.9644  -6.6530  -6.1399  -5.9041  -5.5262  -5.4011
    -3.3128  -3.2610  -2.8851  -2.7160  -2.5348  -2.3925   5.8741   6.2054
     6.5610   6.9268   7.1459   7.3087   7.3964   7.6082   7.6441   7.8064
     8.1376   8.7418   9.0164   9.2777   9.5891   9.7876   9.8996  10.3335
    10.5616  11.0313  11.1446  11.2183  11.3559  11.4291  12.2983  12.7252
    13.4155  14.3514  16.8972  17.1066  17.3019  18.0076

     occupation numbers 
     0.1875   0.1875   0.1875   0.1875   0.1875   0.1875   0.1875   0.1875
     0.1875   0.1875   0.1875   0.1875   0.1875   0.1875   0.1875   0.1875
     0.1875   0.1875   0.1875   0.1875   0.1875   0.1875   0.1875   0.1875
     0.1875   0.1875   0.1875   0.1875   0.1875   0.1875   0.1875   0.1875
     0.1875   0.1871   0.1864   0.1852   0.1803   0.1754   0.0127   0.0003
     0.0000   0.0000   0.0000   0.0000   0.0000   0.0000

          k = 0.2471 0.4280 0.0000 (  2203 PWs)   bands (ev):

   -19.7479 -19.6953  -6.8536  -6.6484  -6.0582  -5.9933  -5.4538  -5.3872
    -3.5284  -3.3006  -2.8086  -2.7165  -2.5767  -2.5680   5.8659   6.2517
     6.8016   7.0402   7.1332   7.2231   7.3984   7.4581   7.5256   7.8962
     8.1297   8.9063   9.1088   9.3830   9.7462   9.7639  10.0443  10.3383
    10.8730  10.9027  10.9824  11.1685  11.1962  11.5272  12.2206  13.3082
    13.3845  14.1458  16.4282  16.9847  17.4139  17.9186

     occupation numbers 
     0.1875   0.1875   0.1875   0.1875   0.1875   0.1875   0.1875   0.1875
     0.1875   0.1875   0.1875   0.1875   0.1875   0.1875   0.1875   0.1875
     0.1875   0.1875   0.1875   0.1875   0.1875   0.1875   0.1875   0.1875
     0.1875   0.1875   0.1875   0.1875   0.1875   0.1875   0.1875   0.1875
     0.1874   0.1874   0.1873   0.1861   0.1856   0.1651   0.0207   0.0000
     0.0000   0.0000   0.0000   0.0000   0.0000   0.0000

          k = 0.4942-0.2853-0.4107 (  2202 PWs)   bands (ev):

   -19.7393 -19.7047  -7.1781  -6.4599  -6.2453  -5.9836  -5.5380  -5.3132
    -3.2016  -3.1271  -3.0530  -2.6567  -2.4876  -2.2300   5.7778   6.0707
     6.2166   6.8222   7.1446   7.2537   7.5275   7.6251   8.1539   8.2081
     8.2184   8.3070   8.5934   9.4059   9.6668   9.8252  10.0234  10.0593
    10.4172  10.9224  11.0942  11.2561  11.3900  11.5599  11.8794  12.4102
    13.3161  14.7887  17.0349  17.2564  17.5132  17.6045

     occupation numbers 
     0.0938   0.0938   0.0938   0.0938   0.0938   0.0938   0.0938   0.0938
     0.0938   0.0938   0.0938   0.0938   0.0938   0.0938   0.0938   0.0938
     0.0938   0.0938   0.0938   0.0938   0.0938   0.0938   0.0938   0.0938
     0.0938   0.0938   0.0938   0.0938   0.0937   0.0937   0.0937   0.0937
     0.0937   0.0937   0.0934   0.0921   0.0892   0.0803   0.0453   0.0028
     0.0000   0.0000   0.0000   0.0000   0.0000   0.0000

          k = 0.0000 0.0000 0.3080 (  2187 PWs)   bands (ev):

   -19.7782 -19.6623  -6.6207  -5.9887  -5.9442  -5.9442  -5.8552  -5.8552
    -3.2127  -3.1279  -3.1279  -2.9748  -2.9048  -2.9048   5.6088   6.9324
     6.9324   7.1028   7.1232   7.3347   7.3347   7.5396   7.5396   8.6258
     8.6258   9.1268   9.4290   9.5797   9.5797   9.7546  10.1113  10.1113
    10.6430  10.6430  10.8004  11.4751  11.4751  11.5517  12.2816  12.2816
    14.2631  14.2631  15.9034  15.9034  16.8745  17.4742

     occupation numbers 
     0.0625   0.0625   0.0625   0.0625   0.0625   0.0625   0.0625   0.0625
     0.0625   0.0625   0.0625   0.0625   0.0625   0.0625   0.0625   0.0625
     0.0625   0.0625   0.0625   0.0625   0.0625   0.0625   0.0625   0.0625
     0.0625   0.0625   0.0625   0.0625   0.0625   0.0625   0.0625   0.0625
     0.0625   0.0625   0.0625   0.0571   0.0571   0.0539   0.0047   0.0047
     0.0000   0.0000   0.0000   0.0000   0.0000   0.0000

          k = 0.7412 0.4280 0.0000 (  2204 PWs)   bands (ev):

   -19.7474 -19.6960  -6.7392  -6.6123  -6.1546  -5.8413  -5.6996  -5.5622
    -3.1854  -3.0992  -3.0517  -2.6832  -2.6642  -2.5929   5.9049   6.4678
     6.7725   7.0703   7.1479   7.2553   7.3648   7.4569   7.6513   7.8462
     8.1816   8.7820   9.1322   9.4576   9.5600   9.6688   9.8282  10.2077
    10.8677  10.9854  11.0143  11.2368  11.2567  11.3976  12.2224  13.2308
    13.2998  14.1715  16.6812  16.7160  17.5855  17.7863

     occupation numbers 
     0.1875   0.1875   0.1875   0.1875   0.1875   0.1875   0.1875   0.1875
     0.1875   0.1875   0.1875   0.1875   0.1875   0.1875   0.1875   0.1875
     0.1875   0.1875   0.1875   0.1875   0.1875   0.1875   0.1875   0.1875
     0.1875   0.1875   0.1875   0.1875   0.1875   0.1875   0.1875   0.1875
     0.1875   0.1873   0.1872   0.1848   0.1843   0.1778   0.0205   0.0000
     0.0000   0.0000   0.0000   0.0000   0.0000   0.0000

          k = 0.4942 0.2853 0.1027 (  2211 PWs)   bands (ev):

   -19.7376 -19.7063  -6.9808  -6.5507  -6.3312  -5.7138  -5.6328  -5.3774
    -3.3269  -3.1717  -3.0404  -2.6096  -2.5690  -2.3857   5.9051   6.1826
     6.5119   6.9206   7.1825   7.1995   7.4351   7.5949   7.7076   7.8068
     8.1718   8.8224   9.0152   9.3768   9.4479   9.6479   9.9848  10.3252
    10.5894  11.0952  11.2344  11.2389  11.2900  11.3147  12.2523  12.7399
    13.4619  14.3329  16.8777  16.9278  17.5735  17.9199

     occupation numbers 
     0.1875   0.1875   0.1875   0.1875   0.1875   0.1875   0.1875   0.1875
     0.1875   0.1875   0.1875   0.1875   0.1875   0.1875   0.1875   0.1875
     0.1875   0.1875   0.1875   0.1875   0.1875   0.1875   0.1875   0.1875
     0.1875   0.1875   0.1875   0.1875   0.1875   0.1875   0.1875   0.1875
     0.1875   0.1868   0.1848   0.1847   0.1832   0.1823   0.0171   0.0002
     0.0000   0.0000   0.0000   0.0000   0.0000   0.0000

          k = 0.7412-0.4280-0.3080 (  2210 PWs)   bands (ev):

   -19.7373 -19.7068  -6.9178  -6.4597  -6.3092  -5.8045  -5.7754  -5.5038
    -3.0782  -3.0608  -2.9707  -2.7368  -2.6302  -2.4355   5.9724   6.3251
     6.5726   6.8982   7.1736   7.2454   7.4678   7.6155   7.7459   7.8346
     8.1461   8.8266   8.8838   9.4359   9.4909   9.4941   9.6381  10.1788
    10.6730  11.1072  11.2062  11.2296  11.3494  11.3819  12.2108  12.6910
    13.4101  14.3027  17.0522  17.0611  17.5421  17.8961

     occupation numbers 
     0.1875   0.1875   0.1875   0.1875   0.1875   0.1875   0.1875   0.1875
     0.1875   0.1875   0.1875   0.1875   0.1875   0.1875   0.1875   0.1875
     0.1875   0.1875   0.1875   0.1875   0.1875   0.1875   0.1875   0.1875
     0.1875   0.1875   0.1875   0.1875   0.1875   0.1875   0.1875   0.1875
     0.1875   0.1867   0.1854   0.1850   0.1807   0.1788   0.0220   0.0004
     0.0000   0.0000   0.0000   0.0000   0.0000   0.0000

          k = 0.4942-0.5706-0.2053 (  2206 PWs)   bands (ev):

   -19.7224 -19.7223  -6.8926  -6.8890  -6.0427  -6.0407  -5.4473  -5.4424
    -3.1594  -3.1588  -2.8211  -2.8207  -2.3912  -2.3890   6.0325   6.0666
     6.7028   6.7097   7.0468   7.0646   7.3583   7.3662   7.8349   7.9038
     8.7592   8.7655   8.8575   8.8629   9.5083   9.5132  10.0628  10.0641
    10.8811  10.8815  11.1004  11.1022  11.4084  11.4106  12.2691  12.2695
    13.9927  14.0042  17.4192  17.4195  17.8607  17.8629

     occupation numbers 
     0.1875   0.1875   0.1875   0.1875   0.1875   0.1875   0.1875   0.1875
     0.1875   0.1875   0.1875   0.1875   0.1875   0.1875   0.1875   0.1875
     0.1875   0.1875   0.1875   0.1875   0.1875   0.1875   0.1875   0.1875
     0.1875   0.1875   0.1875   0.1875   0.1875   0.1875   0.1875   0.1875
     0.1874   0.1874   0.1868   0.1867   0.1770   0.1769   0.0154   0.0153
     0.0000   0.0000   0.0000   0.0000   0.0000   0.0000

          k = 0.0000 0.0000-0.6160 (  2186 PWs)   bands (ev):

   -19.7228 -19.7214  -6.5197  -6.5060  -5.9587  -5.9587  -5.9478  -5.9478
    -2.9032  -2.9032  -2.8976  -2.8976  -2.7132  -2.7130   6.2571   6.2669
     7.1234   7.1234   7.1709   7.1709   7.5521   7.6029   7.7943   7.7943
     7.8546   7.8546   9.6064   9.6064   9.6088   9.6088   9.6766   9.6850
    11.0985  11.1046  11.1697  11.1697  11.1761  11.1761  13.2201  13.2201
    13.2538  13.2538  17.1105  17.1105  17.1118  17.1118

     occupation numbers 
     0.0313   0.0313   0.0313   0.0313   0.0313   0.0313   0.0313   0.0313
     0.0313   0.0313   0.0313   0.0313   0.0313   0.0313   0.0313   0.0313
     0.0313   0.0313   0.0313   0.0313   0.0313   0.0313   0.0313   0.0313
     0.0313   0.0313   0.0312   0.0312   0.0312   0.0312   0.0312   0.0312
     0.0311   0.0311   0.0310   0.0310   0.0310   0.0310   0.0000   0.0000
     0.0000   0.0000   0.0000   0.0000   0.0000   0.0000

          k = 0.4942-0.5706 0.1027 (  2198 PWs)   bands (ev):

   -19.7372 -19.7067  -6.9656  -6.6541  -6.1377  -5.8983  -5.5290  -5.4043
    -3.3143  -3.2608  -2.8843  -2.7143  -2.5355  -2.3926   5.8685   6.2181
     6.5496   6.9295   7.1561   7.3058   7.4198   7.5761   7.6129   7.8413
     8.1342   8.7513   9.0118   9.2762   9.5861   9.7896   9.8989  10.3344
    10.5611  11.0311  11.1469  11.2177  11.3582  11.4266  12.2983  12.7246
    13.4151  14.3514  16.8989  17.1038  17.3024  18.0085

     occupation numbers 
     0.1875   0.1875   0.1875   0.1875   0.1875   0.1875   0.1875   0.1875
     0.1875   0.1875   0.1875   0.1875   0.1875   0.1875   0.1875   0.1875
     0.1875   0.1875   0.1875   0.1875   0.1875   0.1875   0.1875   0.1875
     0.1875   0.1875   0.1875   0.1875   0.1875   0.1875   0.1875   0.1875
     0.1875   0.1871   0.1863   0.1852   0.1802   0.1756   0.0127   0.0003
     0.0000   0.0000   0.0000   0.0000   0.0000   0.0000

     the Fermi energy is    11.8674 ev

!    total energy              =    -538.24496870 Ry
     Harris-Foulkes estimate   =    -538.24496026 Ry
     estimated scf accuracy    <          3.8E-09 Ry

     The total energy is the sum of the following terms:

     one-electron contribution =     -32.93690767 Ry
     hartree contribution      =      83.68199640 Ry
     xc contribution           =    -199.60038123 Ry
     ewald contribution        =    -389.44315552 Ry
     Hubbard energy            =       0.07528198 Ry
     smearing contrib. (-TS)   =      -0.02180266 Ry

     convergence has been achieved in  12 iterations

     init_run     :      7.46s CPU      8.44s WALL (       1 calls)
     electrons    :    197.16s CPU    201.42s WALL (       1 calls)

     Called by init_run:
     wfcinit      :      0.00s CPU      0.00s WALL (       1 calls)
     potinit      :      0.28s CPU      1.11s WALL (       1 calls)

     Called by electrons:
     c_bands      :    128.02s CPU    129.13s WALL (      12 calls)
     sum_band     :     40.69s CPU     40.93s WALL (      12 calls)
     v_of_rho     :      3.46s CPU      3.48s WALL (      13 calls)
     v_h          :      0.22s CPU      0.22s WALL (      13 calls)
     v_xc         :      3.24s CPU      3.26s WALL (      13 calls)
     newd         :     26.13s CPU     26.19s WALL (      13 calls)
     mix_rho      :      0.39s CPU      0.39s WALL (      12 calls)

     Called by c_bands:
     init_us_2    :      1.37s CPU      1.37s WALL (     336 calls)
     cegterg      :    124.31s CPU    124.65s WALL (     168 calls)

     Called by sum_band:
     sum_band:bec :      0.13s CPU      0.13s WALL (     168 calls)
     addusdens    :     17.66s CPU     17.67s WALL (      12 calls)

     Called by *egterg:
     h_psi        :     93.67s CPU     93.94s WALL (     618 calls)
     s_psi        :      5.25s CPU      5.28s WALL (     618 calls)
     g_psi        :      0.40s CPU      0.40s WALL (     450 calls)
     cdiaghg      :      8.65s CPU      8.66s WALL (     604 calls)
     cegterg:over :      5.99s CPU      6.00s WALL (     450 calls)
     cegterg:upda :      4.10s CPU      4.10s WALL (     450 calls)
     cegterg:last :      2.74s CPU      2.75s WALL (     187 calls)

     Called by h_psi:
     h_psi:vloc   :     76.98s CPU     77.23s WALL (     618 calls)
     h_psi:vnl    :     10.60s CPU     10.62s WALL (     618 calls)
     add_vuspsi   :      5.28s CPU      5.29s WALL (     618 calls)
     vhpsi        :      5.85s CPU      5.85s WALL (     618 calls)

     General routines
     calbec       :     11.14s CPU     11.16s WALL (    1572 calls)
     fft          :      2.40s CPU      2.48s WALL (     203 calls)
     ffts         :      0.07s CPU      0.15s WALL (      25 calls)
     fftw         :     71.35s CPU     71.66s WALL (   47074 calls)
     interpolate  :      0.42s CPU      0.56s WALL (      25 calls)
     davcio       :      0.00s CPU      0.49s WALL (     350 calls)

     Parallel routines
     fft_scatter  :     19.95s CPU     20.17s WALL (   47302 calls)
     Hubbard U routines
     new_ns       :      1.18s CPU      1.35s WALL (      12 calls)
     vhpsi        :      5.85s CPU      5.85s WALL (     618 calls)

     PWSCF        :  3m25.20s CPU     3m33.05s WALL


   This run was terminated on:  14:45:50  11Nov2012            

=------------------------------------------------------------------------------=
