   JOB DONE.
=------------------------------------------------------------------------------=

     Program PWSCF v.5.0.1 starts on 11Nov2012 at 14:49: 0 

     This program is part of the open-source Quantum ESPRESSO suite
     for quantum simulation of materials; please cite
         "P. Giannozzi et al., J. Phys.:Condens. Matter 21 395502 (2009);
          URL http://www.quantum-espresso.org", 
     in publications or presentations arising from this work. More details at
     http://www.quantum-espresso.org/quote.php

     Parallel version (MPI), running on     2 processors
     R & G space division:  proc/pool =    2

     Current dimensions of program PWSCF are:
     Max number of different atomic species (ntypx) = 10
     Max number of k-points (npk) =  40000
     Max angular momentum in pseudopotentials (lmaxx) =  3
     Reading input from CoLaO_U200_a-5.in
               file Co.pbe-nd-rrkjus.UPF: wavefunction(s)  4S 3D renormalized
               file Co.pbe-nd-rrkjus.UPF: wavefunction(s)  4S 3D renormalized
               file O.pbe-rrkjus.UPF: wavefunction(s)  2S renormalized

     Subspace diagonalization in iterative solution of the eigenvalue problem:
     a serial algorithm will be used


     Parallelization info
     --------------------
     sticks:   dense  smooth     PW     G-vecs:    dense   smooth      PW
     Min        1112     444    131                34808     8786    1448
     Max        1113     445    132                34809     8787    1449
     Sum        2225     889    263                69617    17573    2897


     Title: 
     GGA + U, U = 2.000, alpha = -0.050                                         


     bravais-lattice index     =            5
     lattice parameter (alat)  =      10.3292  a.u.
     unit-cell volume          =     793.0599 (a.u.)^3
     number of atoms/cell      =           10
     number of atomic types    =            4
     number of electrons       =        76.00
     number of Kohn-Sham states=           46
     kinetic-energy cutoff     =      30.0000  Ry
     charge density cutoff     =     300.0000  Ry
     convergence threshold     =      1.0E-08
     mixing beta               =       0.2000
     number of iterations used =            8  plain     mixing
     Exchange-correlation      =  SLA  PW   PBE  PBE ( 1 4 3 4 0)
     EXX-fraction              =        0.00

     celldm(1)=  10.329242  celldm(2)=   0.000000  celldm(3)=   0.000000
     celldm(4)=   0.488100  celldm(5)=   0.000000  celldm(6)=   0.000000

     crystal axes: (cart. coord. in units of alat)
               a(1) = (   0.505915  -0.292090   0.811624 )  
               a(2) = (   0.000000   0.584180   0.811624 )  
               a(3) = (  -0.505915  -0.292090   0.811624 )  

     reciprocal axes: (cart. coord. in units 2 pi/alat)
               b(1) = (  0.988308 -0.570600  0.410699 )  
               b(2) = (  0.000000  1.141200  0.410699 )  
               b(3) = ( -0.988308 -0.570600  0.410699 )  


     PseudoPot. # 1 for Co read from file:
     /home/mcurnan/dft-course/Project1/example_LaCoO3/Co.pbe-nd-rrkjus.UPF
     MD5 check sum: 3e47a84addf5e975e0edeaeee2a73f59
     Pseudo is Ultrasoft + core correction, Zval =  9.0
     Generated by new atomic code, or converted to UPF format
     Using radial grid of  961 points,  6 beta functions with: 
                l(1) =   0
                l(2) =   0
                l(3) =   1
                l(4) =   1
                l(5) =   2
                l(6) =   2
     Q(r) pseudized with 0 coefficients 


     PseudoPot. # 2 for Co read from file:
     /home/mcurnan/dft-course/Project1/example_LaCoO3/Co.pbe-nd-rrkjus.UPF
     MD5 check sum: 3e47a84addf5e975e0edeaeee2a73f59
     Pseudo is Ultrasoft + core correction, Zval =  9.0
     Generated by new atomic code, or converted to UPF format
     Using radial grid of  961 points,  6 beta functions with: 
                l(1) =   0
                l(2) =   0
                l(3) =   1
                l(4) =   1
                l(5) =   2
                l(6) =   2
     Q(r) pseudized with 0 coefficients 


     PseudoPot. # 3 for La read from file:
     /home/mcurnan/dft-course/Project1/example_LaCoO3/La.pbe-nsp-van.UPF
     MD5 check sum: b2f11743f52dde65f77d1302becd7929
     Pseudo is Ultrasoft + core correction, Zval = 11.0
     Generated by new atomic code, or converted to UPF format
     Using radial grid of  907 points,  6 beta functions with: 
                l(1) =   0
                l(2) =   0
                l(3) =   1
                l(4) =   1
                l(5) =   2
                l(6) =   2
     Q(r) pseudized with  6 coefficients,  rinner =    1.200   1.200   1.200
                                                       1.200   1.200

     PseudoPot. # 4 for O  read from file:
     /home/mcurnan/dft-course/Project1/example_LaCoO3/O.pbe-rrkjus.UPF
     MD5 check sum: 390ba29e75625707450f3bd3f0eb6be9
     Pseudo is Ultrasoft, Zval =  6.0
     Generated by new atomic code, or converted to UPF format
     Using radial grid of 1269 points,  4 beta functions with: 
                l(1) =   0
                l(2) =   0
                l(3) =   1
                l(4) =   1
     Q(r) pseudized with 0 coefficients 


     atomic species   valence    mass     pseudopotential
        Co1            9.00     1.00000     Co( 1.00)
        Co2            9.00     1.00000     Co( 1.00)
        La1           11.00     1.00000     La( 1.00)
        O1             6.00     1.00000     O ( 1.00)
 -----
     simplified LDA+U calculation, Hubbard_lmax = 2
     atomic species  L   Hubbard U  Hubbard alpha
        Co1          2    2.000000   -0.050000
        Co2          2    2.000000    0.000000
        La1          2    0.000000    0.000000
        O1           1    0.000000    0.000000
 -----

      6 Sym. Ops., with inversion, found


                                    s                        frac. trans.

      isym =  1     identity                                     

 cryst.   s( 1) = (     1          0          0      )
                  (     0          1          0      )
                  (     0          0          1      )

 cart.    s( 1) = (  1.0000000  0.0000000  0.0000000 )
                  (  0.0000000  1.0000000  0.0000000 )
                  (  0.0000000  0.0000000  1.0000000 )


      isym =  2     120 deg rotation - cryst. axis [0,0,1]       

 cryst.   s( 2) = (     0          1          0      )
                  (     0          0          1      )
                  (     1          0          0      )

 cart.    s( 2) = ( -0.5000000 -0.8660254  0.0000000 )
                  (  0.8660254 -0.5000000  0.0000000 )
                  (  0.0000000  0.0000000  1.0000000 )


      isym =  3     120 deg rotation - cryst. axis [0,0,-1]      

 cryst.   s( 3) = (     0          0          1      )
                  (     1          0          0      )
                  (     0          1          0      )

 cart.    s( 3) = ( -0.5000000  0.8660254  0.0000000 )
                  ( -0.8660254 -0.5000000  0.0000000 )
                  (  0.0000000  0.0000000  1.0000000 )


      isym =  4     inversion                                    

 cryst.   s( 4) = (    -1          0          0      )
                  (     0         -1          0      )
                  (     0          0         -1      )

 cart.    s( 4) = ( -1.0000000  0.0000000  0.0000000 )
                  (  0.0000000 -1.0000000  0.0000000 )
                  (  0.0000000  0.0000000 -1.0000000 )


      isym =  5     inv. 180 deg rotation - cart. axis [0,1,0]   

 cryst.   s( 5) = (     0         -1          0      )
                  (     0          0         -1      )
                  (    -1          0          0      )

 cart.    s( 5) = (  0.5000000  0.8660254  0.0000000 )
                  ( -0.8660254  0.5000000  0.0000000 )
                  (  0.0000000  0.0000000 -1.0000000 )


      isym =  6     inv. 180 deg rotation - cart. axis [1,0,0]   

 cryst.   s( 6) = (     0          0         -1      )
                  (    -1          0          0      )
                  (     0         -1          0      )

 cart.    s( 6) = (  0.5000000 -0.8660254  0.0000000 )
                  (  0.8660254  0.5000000  0.0000000 )
                  (  0.0000000  0.0000000 -1.0000000 )


     point group S_6 (-3)   
     there are  6 classes
     the character table:

       E     C3    C3^2  i     S6^5  S6   
A_g    1.00  1.00  1.00  1.00  1.00  1.00
E_g    1.00 -0.50 -0.50  1.00 -0.50 -0.50
E_g*   1.00 -0.50 -0.50  1.00 -0.50 -0.50
A_u    1.00  1.00  1.00 -1.00 -1.00 -1.00
E_u    1.00 -0.50 -0.50 -1.00  0.50  0.50
E_u*   1.00 -0.50 -0.50 -1.00  0.50  0.50
     imaginary part
A_g    0.00  0.00  0.00  0.00  0.00  0.00
E_g    0.00  0.87 -0.87  0.00  0.87 -0.87
E_g*   0.00 -0.87  0.87  0.00 -0.87  0.87
A_u    0.00  0.00  0.00  0.00  0.00  0.00
E_u    0.00  0.87 -0.87  0.00 -0.87  0.87
E_u*   0.00 -0.87  0.87  0.00  0.87 -0.87

     the symmetry operations in each class:
     E        1
     C3       2
     C3^2     3
     i        4
     S6^5     5
     S6       6

   Cartesian axes

     site n.     atom                  positions (alat units)
         1           Co1 tau(   1) = (   0.0000000   0.0000000   0.0000000  )
         2           Co2 tau(   2) = (   0.0000000   0.0000000   1.2174358  )
         3           La1 tau(   3) = (   0.0000000   0.0000000   0.6087179  )
         4           La1 tau(   4) = (   0.0000000   0.0000000   1.8261537  )
         5           O1  tau(   5) = (  -0.2839701  -0.0933228   1.0141240  )
         6           O1  tau(   6) = (   0.0611651   0.2925867   1.0141240  )
         7           O1  tau(   7) = (   0.2228050  -0.1992639   1.0141240  )
         8           O1  tau(   8) = (  -0.0611651  -0.2925867   1.4207476  )
         9           O1  tau(   9) = (   0.2839701   0.0933228   1.4207476  )
        10           O1  tau(  10) = (  -0.2228050   0.1992639   1.4207476  )

   Crystallographic axes

     site n.     atom                  positions (cryst. coord.)
         1           Co1 tau(   1) = (  0.0000000  0.0000000  0.0000000  )
         2           Co2 tau(   2) = (  0.5000000  0.5000000  0.5000000  )
         3           La1 tau(   3) = (  0.2500000  0.2500000  0.2500000  )
         4           La1 tau(   4) = (  0.7500000  0.7500000  0.7500000  )
         5           O1  tau(   5) = (  0.1891000  0.3100000  0.7504000  )
         6           O1  tau(   6) = (  0.3100000  0.7504000  0.1891000  )
         7           O1  tau(   7) = (  0.7504000  0.1891000  0.3100000  )
         8           O1  tau(   8) = (  0.6900000  0.2496000  0.8109000  )
         9           O1  tau(   9) = (  0.8109000  0.6900000  0.2496000  )
        10           O1  tau(  10) = (  0.2496000  0.8109000  0.6900000  )

     number of k points=    14  gaussian smearing, width (Ry)=  0.0300
                       cart. coord. in units 2pi/alat
        k(    1) = (   0.0000000   0.0000000   0.0000000), wk =   0.0312500
        k(    2) = (  -0.2470771  -0.1426500   0.1026748), wk =   0.1875000
        k(    3) = (   0.4941541   0.2853000  -0.2053496), wk =   0.0937500
        k(    4) = (  -0.2470771   0.1426500   0.2053496), wk =   0.1875000
        k(    5) = (   0.4941541   0.5706001  -0.1026748), wk =   0.1875000
        k(    6) = (   0.2470771   0.4279500   0.0000000), wk =   0.1875000
        k(    7) = (   0.4941541  -0.2853000  -0.4106993), wk =   0.0937500
        k(    8) = (   0.0000000   0.0000000   0.3080244), wk =   0.0625000
        k(    9) = (   0.7412312   0.4279500   0.0000000), wk =   0.1875000
        k(   10) = (   0.4941541   0.2853000   0.1026748), wk =   0.1875000
        k(   11) = (   0.7412312  -0.4279500  -0.3080244), wk =   0.1875000
        k(   12) = (   0.4941541  -0.5706001  -0.2053496), wk =   0.1875000
        k(   13) = (   0.0000000   0.0000000  -0.6160489), wk =   0.0312500
        k(   14) = (   0.4941541  -0.5706001   0.1026748), wk =   0.1875000

                       cryst. coord.
        k(    1) = (   0.0000000   0.0000000   0.0000000), wk =   0.0312500
        k(    2) = (   0.0000000   0.0000000   0.2500000), wk =   0.1875000
        k(    3) = (   0.0000000   0.0000000  -0.5000000), wk =   0.0937500
        k(    4) = (   0.0000000   0.2500000   0.2500000), wk =   0.1875000
        k(    5) = (   0.0000000   0.2500000  -0.5000000), wk =   0.1875000
        k(    6) = (   0.0000000   0.2500000  -0.2500000), wk =   0.1875000
        k(    7) = (   0.0000000  -0.5000000  -0.5000000), wk =   0.0937500
        k(    8) = (   0.2500000   0.2500000   0.2500000), wk =   0.0625000
        k(    9) = (   0.2500000   0.2500000  -0.5000000), wk =   0.1875000
        k(   10) = (   0.2500000   0.2500000  -0.2500000), wk =   0.1875000
        k(   11) = (   0.2500000  -0.5000000  -0.5000000), wk =   0.1875000
        k(   12) = (   0.2500000  -0.5000000  -0.2500000), wk =   0.1875000
        k(   13) = (  -0.5000000  -0.5000000  -0.5000000), wk =   0.0312500
        k(   14) = (   0.5000000  -0.2500000   0.0000000), wk =   0.1875000

     Dense  grid:    69617 G-vectors     FFT dimensions: (  60,  60,  60)

     Smooth grid:    17573 G-vectors     FFT dimensions: (  40,  40,  40)

     Largest allocated arrays     est. size (Mb)     dimensions
        Kohn-Sham Wavefunctions         0.78 Mb     (   1117,   46)
        Atomic wavefunctions            1.06 Mb     (   1117,   62)
        NL pseudopotentials             2.05 Mb     (   1117,  120)
        Each V/rho on FFT grid          1.65 Mb     ( 108000)
        Each G-vector array             0.27 Mb     (  34808)
        G-vector shells                 0.04 Mb     (   4682)
     Largest temporary arrays     est. size (Mb)     dimensions
        Auxiliary wavefunctions         3.14 Mb     (   1117,  184)
        Each subspace H/S matrix        0.52 Mb     ( 184, 184)
        Each <psi_i|beta_j> matrix      0.08 Mb     (    120,   46)
        Arrays for rho mixing          13.18 Mb     ( 108000,   8)

     Check: negative/imaginary core charge=   -0.000028    0.000000

     The initial density is read from file :
     /home/mcurnan/dft-course/Project1/example_LaCoO3/200/Co/alpha/CoLaO_U200.save/charge-density.dat

 --- in v_hubbard ---
Hubbard energy    0.1619
 -------
     Number of +U iterations with fixed ns =  0
     Starting occupations:
 --- enter write_ns ---
 LDA+U parameters:
U( 1)     =  2.00000000
alpha( 1) = -0.05000000
U( 2)     =  2.00000000
alpha( 2) =  0.00000000
U( 3)     =  0.00000000
alpha( 3) =  0.00000000
U( 4)     =  0.00000000
alpha( 4) =  0.00000000
atom    1   Tr[ns(na)] =   8.02206
    eigenvalues: 
  0.596  0.596  0.938  0.941  0.941
    eigenvectors:
  0.000  0.000  1.000  0.000  0.000
  0.333  0.322  0.000  0.004  0.341
  0.322  0.333  0.000  0.341  0.004
  0.289  0.056  0.000  0.515  0.140
  0.056  0.289  0.000  0.140  0.515
    occupations:
  0.938  0.000  0.000  0.000  0.000
  0.000  0.715  0.000 -0.060  0.152
  0.000  0.000  0.715  0.152  0.060
  0.000 -0.060  0.152  0.822  0.000
  0.000  0.152  0.060  0.000  0.822
atom    2   Tr[ns(na)] =   8.02145
    eigenvalues: 
  0.595  0.595  0.938  0.941  0.941
    eigenvectors:
  0.000  0.000  1.000  0.000  0.000
  0.640  0.015  0.000  0.223  0.122
  0.015  0.640  0.000  0.122  0.223
  0.017  0.329  0.000  0.470  0.185
  0.329  0.017  0.000  0.185  0.470
    occupations:
  0.938  0.000  0.000  0.000  0.000
  0.000  0.715  0.000  0.060  0.153
  0.000  0.000  0.715  0.153 -0.060
  0.000  0.060  0.153  0.822  0.000
  0.000  0.153 -0.060  0.000  0.822
atom    3   Tr[ns(na)] =   3.80284
    eigenvalues: 
  0.355  0.355  0.384  0.403  0.403
    eigenvectors:
  0.000  0.000  1.000  0.000  0.000
  0.781  0.139  0.000  0.012  0.068
  0.139  0.781  0.000  0.068  0.012
  0.013  0.067  0.000  0.780  0.141
  0.067  0.013  0.000  0.141  0.780
    occupations:
  0.384  0.000  0.000  0.000  0.000
  0.000  0.359  0.000  0.000  0.013
  0.000  0.000  0.359  0.013  0.000
  0.000  0.000  0.013  0.399  0.000
  0.000  0.013  0.000  0.000  0.399
atom    4   Tr[ns(na)] =   3.80284
    eigenvalues: 
  0.355  0.355  0.384  0.403  0.403
    eigenvectors:
  0.000  0.000  1.000  0.000  0.000
  0.782  0.139  0.000  0.012  0.068
  0.139  0.782  0.000  0.068  0.012
  0.012  0.067  0.000  0.780  0.141
  0.067  0.012  0.000  0.141  0.780
    occupations:
  0.384  0.000  0.000  0.000  0.000
  0.000  0.359  0.000  0.000  0.013
  0.000  0.000  0.359  0.013  0.000
  0.000  0.000  0.013  0.399  0.000
  0.000  0.013  0.000  0.000  0.399
atom    5   Tr[ns(na)] =   5.43357
    eigenvalues: 
  0.846  0.929  0.941
    eigenvectors:
  0.340  0.000  0.660
  0.494  0.250  0.256
  0.166  0.750  0.085
    occupations:
  0.909  0.039  0.022
  0.039  0.891 -0.022
  0.022 -0.022  0.917
atom    6   Tr[ns(na)] =   5.43357
    eigenvalues: 
  0.846  0.929  0.941
    eigenvectors:
  0.340  0.000  0.660
  0.000  1.000  0.000
  0.660  0.000  0.340
    occupations:
  0.909  0.000 -0.045
  0.000  0.929  0.000
 -0.045  0.000  0.879
atom    7   Tr[ns(na)] =   5.43357
    eigenvalues: 
  0.846  0.929  0.941
    eigenvectors:
  0.340  0.000  0.660
  0.496  0.250  0.255
  0.164  0.750  0.086
    occupations:
  0.909 -0.039  0.022
 -0.039  0.891  0.022
  0.022  0.022  0.917
atom    8   Tr[ns(na)] =   5.43357
    eigenvalues: 
  0.846  0.929  0.941
    eigenvectors:
  0.340  0.000  0.660
  0.000  1.000  0.000
  0.660  0.000  0.340
    occupations:
  0.909  0.000 -0.045
  0.000  0.929  0.000
 -0.045  0.000  0.879
atom    9   Tr[ns(na)] =   5.43357
    eigenvalues: 
  0.846  0.929  0.941
    eigenvectors:
  0.340  0.000  0.660
  0.494  0.250  0.256
  0.166  0.750  0.085
    occupations:
  0.909  0.039  0.022
  0.039  0.891 -0.022
  0.022 -0.022  0.917
atom   10   Tr[ns(na)] =   5.43357
    eigenvalues: 
  0.846  0.929  0.941
    eigenvectors:
  0.340  0.000  0.660
  0.496  0.250  0.255
  0.164  0.750  0.086
    occupations:
  0.909 -0.039  0.022
 -0.039  0.891  0.022
  0.022  0.022  0.917
N of occupied +U levels =  56.2506062
 --- exit write_ns ---
 LDA+U Projector read from file 
     Starting wfc from file

     total cpu time spent up to now is        8.0 secs

     per-process dynamical memory:    46.9 Mb

     Self-consistent Calculation

     iteration #  1     ecut=    30.00 Ry     beta=0.20
     Davidson diagonalization with overlap
     c_bands:  1 eigenvalues not converged
     ethr =  1.00E-10,  avg # of iterations = 14.4
 --- enter write_ns ---
 LDA+U parameters:
U( 1)     =  2.00000000
alpha( 1) = -0.05000000
U( 2)     =  2.00000000
alpha( 2) =  0.00000000
U( 3)     =  0.00000000
alpha( 3) =  0.00000000
U( 4)     =  0.00000000
alpha( 4) =  0.00000000
atom    1   Tr[ns(na)] =   8.14443
    eigenvalues: 
  0.572  0.572  0.976  0.976  0.977
    eigenvectors:
  0.000  0.000  0.000  0.000  1.000
  0.329  0.325  0.005  0.341  0.000
  0.325  0.329  0.341  0.005  0.000
  0.288  0.058  0.513  0.141  0.000
  0.058  0.288  0.141  0.513  0.000
    occupations:
  0.977  0.000  0.000  0.000  0.000
  0.000  0.711  0.000 -0.069  0.179
  0.000  0.000  0.711  0.179  0.069
  0.000 -0.069  0.179  0.836  0.000
  0.000  0.179  0.069  0.000  0.836
atom    2   Tr[ns(na)] =   8.10481
    eigenvalues: 
  0.565  0.565  0.974  0.974  0.975
    eigenvectors:
  0.000  0.000  0.000  0.000  1.000
  0.635  0.019  0.219  0.127  0.000
  0.019  0.635  0.127  0.219  0.000
  0.012  0.334  0.469  0.186  0.000
  0.334  0.012  0.186  0.469  0.000
    occupations:
  0.975  0.000  0.000  0.000  0.000
  0.000  0.706  0.000  0.068  0.182
  0.000  0.000  0.706  0.182 -0.068
  0.000  0.068  0.182  0.832  0.000
  0.000  0.182 -0.068  0.000  0.832
atom    3   Tr[ns(na)] =   3.79702
    eigenvalues: 
  0.356  0.356  0.383  0.402  0.402
    eigenvectors:
  0.000  0.000  1.000  0.000  0.000
  0.779  0.140  0.000  0.012  0.069
  0.140  0.779  0.000  0.069  0.012
  0.013  0.068  0.000  0.778  0.141
  0.068  0.013  0.000  0.141  0.778
    occupations:
  0.383  0.000  0.000  0.000  0.000
  0.000  0.360  0.000  0.000  0.013
  0.000  0.000  0.360  0.013  0.000
  0.000  0.000  0.013  0.398  0.000
  0.000  0.013  0.000  0.000  0.398
atom    4   Tr[ns(na)] =   3.79702
    eigenvalues: 
  0.356  0.356  0.383  0.402  0.402
    eigenvectors:
  0.000  0.000  1.000  0.000  0.000
  0.779  0.140  0.000  0.012  0.069
  0.140  0.779  0.000  0.069  0.012
  0.013  0.068  0.000  0.778  0.141
  0.068  0.013  0.000  0.141  0.778
    occupations:
  0.383  0.000  0.000  0.000  0.000
  0.000  0.360  0.000  0.000  0.013
  0.000  0.000  0.360  0.013  0.000
  0.000  0.000  0.013  0.398  0.000
  0.000  0.013  0.000  0.000  0.398
atom    5   Tr[ns(na)] =   5.40928
    eigenvalues: 
  0.835  0.926  0.943
    eigenvectors:
  0.341  0.000  0.659
  0.492  0.253  0.256
  0.167  0.747  0.085
    occupations:
  0.906  0.044  0.026
  0.044  0.886 -0.024
  0.026 -0.024  0.913
atom    6   Tr[ns(na)] =   5.40928
    eigenvalues: 
  0.835  0.926  0.943
    eigenvectors:
  0.341  0.000  0.659
  0.000  1.000  0.000
  0.659  0.000  0.341
    occupations:
  0.906  0.000 -0.051
  0.000  0.926  0.000
 -0.051  0.000  0.872
atom    7   Tr[ns(na)] =   5.40928
    eigenvalues: 
  0.835  0.926  0.943
    eigenvectors:
  0.341  0.000  0.659
  0.497  0.248  0.255
  0.162  0.752  0.085
    occupations:
  0.906 -0.044  0.025
 -0.044  0.885  0.023
  0.025  0.023  0.913
atom    8   Tr[ns(na)] =   5.40928
    eigenvalues: 
  0.835  0.926  0.943
    eigenvectors:
  0.341  0.000  0.659
  0.000  1.000  0.000
  0.659  0.000  0.341
    occupations:
  0.906  0.000 -0.051
  0.000  0.926  0.000
 -0.051  0.000  0.872
atom    9   Tr[ns(na)] =   5.40928
    eigenvalues: 
  0.835  0.926  0.943
    eigenvectors:
  0.341  0.000  0.659
  0.492  0.253  0.256
  0.167  0.747  0.085
    occupations:
  0.906  0.044  0.026
  0.044  0.886 -0.024
  0.026 -0.024  0.913
atom   10   Tr[ns(na)] =   5.40928
    eigenvalues: 
  0.835  0.926  0.943
    eigenvectors:
  0.341  0.000  0.659
  0.497  0.248  0.255
  0.162  0.752  0.085
    occupations:
  0.906 -0.044  0.025
 -0.044  0.885  0.023
  0.025  0.023  0.913
N of occupied +U levels =  56.2989555
 --- exit write_ns ---
 --- in v_hubbard ---
Hubbard energy    0.1569
 -------

     total cpu time spent up to now is       48.4 secs

     total energy              =    -538.18233813 Ry
     Harris-Foulkes estimate   =    -538.18535100 Ry
     estimated scf accuracy    <       0.01467046 Ry

     iteration #  2     ecut=    30.00 Ry     beta=0.20
     Davidson diagonalization with overlap
     ethr =  1.93E-05,  avg # of iterations =  2.0
 --- enter write_ns ---
 LDA+U parameters:
U( 1)     =  2.00000000
alpha( 1) = -0.05000000
U( 2)     =  2.00000000
alpha( 2) =  0.00000000
U( 3)     =  0.00000000
alpha( 3) =  0.00000000
U( 4)     =  0.00000000
alpha( 4) =  0.00000000
atom    1   Tr[ns(na)] =   7.99971
    eigenvalues: 
  0.542  0.542  0.972  0.972  0.973
    eigenvectors:
  0.000  0.000  0.000  0.000  1.000
  0.330  0.325  0.005  0.340  0.000
  0.325  0.330  0.340  0.005  0.000
  0.286  0.059  0.514  0.142  0.000
  0.059  0.286  0.142  0.514  0.000
    occupations:
  0.973  0.000  0.000  0.000  0.000
  0.000  0.690  0.000 -0.073  0.191
  0.000  0.000  0.690  0.191  0.073
  0.000 -0.073  0.191  0.824  0.000
  0.000  0.191  0.073  0.000  0.824
atom    2   Tr[ns(na)] =   8.07004
    eigenvalues: 
  0.549  0.549  0.978  0.978  0.980
    eigenvectors:
  0.000  0.000  0.000  0.000  1.000
  0.639  0.016  0.222  0.123  0.000
  0.016  0.639  0.123  0.222  0.000
  0.015  0.329  0.470  0.185  0.000
  0.329  0.015  0.185  0.470  0.000
    occupations:
  0.980  0.000  0.000  0.000  0.000
  0.000  0.697  0.000  0.074  0.190
  0.000  0.000  0.697  0.190 -0.074
  0.000  0.074  0.190  0.831  0.000
  0.000  0.190 -0.074  0.000  0.831
atom    3   Tr[ns(na)] =   3.79478
    eigenvalues: 
  0.355  0.355  0.382  0.402  0.402
    eigenvectors:
  0.000  0.000  1.000  0.000  0.000
  0.781  0.139  0.000  0.012  0.068
  0.139  0.781  0.000  0.068  0.012
  0.012  0.067  0.000  0.780  0.141
  0.067  0.012  0.000  0.141  0.780
    occupations:
  0.382  0.000  0.000  0.000  0.000
  0.000  0.359  0.000  0.000  0.013
  0.000  0.000  0.359  0.013  0.000
  0.000  0.000  0.013  0.398  0.000
  0.000  0.013  0.000  0.000  0.398
atom    4   Tr[ns(na)] =   3.79478
    eigenvalues: 
  0.355  0.355  0.382  0.402  0.402
    eigenvectors:
  0.000  0.000  1.000  0.000  0.000
  0.782  0.139  0.000  0.012  0.068
  0.139  0.782  0.000  0.068  0.012
  0.012  0.067  0.000  0.780  0.141
  0.067  0.012  0.000  0.141  0.780
    occupations:
  0.382  0.000  0.000  0.000  0.000
  0.000  0.359  0.000  0.000  0.013
  0.000  0.000  0.359  0.013  0.000
  0.000  0.000  0.013  0.398  0.000
  0.000  0.013  0.000  0.000  0.398
atom    5   Tr[ns(na)] =   5.43764
    eigenvalues: 
  0.844  0.930  0.945
    eigenvectors:
  0.338  0.000  0.662
  0.501  0.244  0.255
  0.161  0.756  0.083
    occupations:
  0.911  0.042  0.024
  0.042  0.891 -0.022
  0.024 -0.022  0.917
atom    6   Tr[ns(na)] =   5.43764
    eigenvalues: 
  0.844  0.930  0.945
    eigenvectors:
  0.338  0.000  0.662
  0.000  1.000  0.000
  0.662  0.000  0.338
    occupations:
  0.911  0.000 -0.048
  0.000  0.930  0.000
 -0.048  0.000  0.878
atom    7   Tr[ns(na)] =   5.43764
    eigenvalues: 
  0.844  0.930  0.945
    eigenvectors:
  0.338  0.000  0.662
  0.492  0.256  0.252
  0.170  0.744  0.086
    occupations:
  0.911 -0.041  0.024
 -0.041  0.891  0.023
  0.024  0.023  0.917
atom    8   Tr[ns(na)] =   5.43764
    eigenvalues: 
  0.844  0.930  0.945
    eigenvectors:
  0.338  0.000  0.662
  0.000  1.000  0.000
  0.662  0.000  0.338
    occupations:
  0.911  0.000 -0.048
  0.000  0.930  0.000
 -0.048  0.000  0.878
atom    9   Tr[ns(na)] =   5.43764
    eigenvalues: 
  0.844  0.930  0.945
    eigenvectors:
  0.338  0.000  0.662
  0.501  0.244  0.255
  0.161  0.756  0.083
    occupations:
  0.911  0.042  0.024
  0.042  0.891 -0.022
  0.024 -0.022  0.917
atom   10   Tr[ns(na)] =   5.43764
    eigenvalues: 
  0.844  0.930  0.945
    eigenvectors:
  0.338  0.000  0.662
  0.492  0.256  0.252
  0.170  0.744  0.086
    occupations:
  0.911 -0.041  0.024
 -0.041  0.891  0.023
  0.024  0.023  0.917
N of occupied +U levels =  56.2851391
 --- exit write_ns ---
 --- in v_hubbard ---
Hubbard energy    0.1549
 -------

     total cpu time spent up to now is       63.4 secs

     total energy              =    -538.18411456 Ry
     Harris-Foulkes estimate   =    -538.18498064 Ry
     estimated scf accuracy    <       0.01119054 Ry

     iteration #  3     ecut=    30.00 Ry     beta=0.20
     Davidson diagonalization with overlap
     ethr =  1.47E-05,  avg # of iterations =  1.0
 --- enter write_ns ---
 LDA+U parameters:
U( 1)     =  2.00000000
alpha( 1) = -0.05000000
U( 2)     =  2.00000000
alpha( 2) =  0.00000000
U( 3)     =  0.00000000
alpha( 3) =  0.00000000
U( 4)     =  0.00000000
alpha( 4) =  0.00000000
atom    1   Tr[ns(na)] =   8.09310
    eigenvalues: 
  0.556  0.556  0.978  0.978  0.979
    eigenvectors:
  0.000  0.000  0.000  0.000  1.000
  0.333  0.323  0.004  0.340  0.000
  0.323  0.333  0.340  0.004  0.000
  0.287  0.057  0.515  0.141  0.000
  0.057  0.287  0.141  0.515  0.000
    occupations:
  0.979  0.000  0.000  0.000  0.000
  0.000  0.701  0.000 -0.073  0.187
  0.000  0.000  0.701  0.187  0.073
  0.000 -0.073  0.187  0.833  0.000
  0.000  0.187  0.073  0.000  0.833
atom    2   Tr[ns(na)] =   8.01482
    eigenvalues: 
  0.543  0.543  0.973  0.973  0.974
    eigenvectors:
  0.000  0.000  0.000  0.000  1.000
  0.636  0.020  0.218  0.126  0.000
  0.020  0.636  0.126  0.218  0.000
  0.012  0.333  0.470  0.185  0.000
  0.333  0.012  0.185  0.470  0.000
    occupations:
  0.974  0.000  0.000  0.000  0.000
  0.000  0.691  0.000  0.072  0.191
  0.000  0.000  0.691  0.191 -0.072
  0.000  0.072  0.191  0.825  0.000
  0.000  0.191 -0.072  0.000  0.825
atom    3   Tr[ns(na)] =   3.79469
    eigenvalues: 
  0.355  0.355  0.382  0.402  0.402
    eigenvectors:
  0.000  0.000  1.000  0.000  0.000
  0.781  0.139  0.000  0.012  0.068
  0.139  0.781  0.000  0.068  0.012
  0.013  0.067  0.000  0.780  0.141
  0.067  0.013  0.000  0.141  0.780
    occupations:
  0.382  0.000  0.000  0.000  0.000
  0.000  0.359  0.000  0.000  0.013
  0.000  0.000  0.359  0.013  0.000
  0.000  0.000  0.013  0.398  0.000
  0.000  0.013  0.000  0.000  0.398
atom    4   Tr[ns(na)] =   3.79469
    eigenvalues: 
  0.355  0.355  0.382  0.402  0.402
    eigenvectors:
  0.000  0.000  1.000  0.000  0.000
  0.781  0.140  0.000  0.012  0.068
  0.140  0.781  0.000  0.068  0.012
  0.013  0.067  0.000  0.780  0.141
  0.067  0.013  0.000  0.141  0.780
    occupations:
  0.382  0.000  0.000  0.000  0.000
  0.000  0.359  0.000  0.000  0.013
  0.000  0.000  0.359  0.013  0.000
  0.000  0.000  0.013  0.398  0.000
  0.000  0.013  0.000  0.000  0.398
atom    5   Tr[ns(na)] =   5.43182
    eigenvalues: 
  0.842  0.929  0.945
    eigenvectors:
  0.339  0.000  0.661
  0.491  0.256  0.253
  0.170  0.744  0.085
    occupations:
  0.910  0.042  0.025
  0.042  0.890 -0.023
  0.025 -0.023  0.916
atom    6   Tr[ns(na)] =   5.43182
    eigenvalues: 
  0.842  0.929  0.945
    eigenvectors:
  0.339  0.000  0.661
  0.000  1.000  0.000
  0.661  0.000  0.339
    occupations:
  0.910  0.000 -0.049
  0.000  0.929  0.000
 -0.049  0.000  0.877
atom    7   Tr[ns(na)] =   5.43182
    eigenvalues: 
  0.842  0.929  0.945
    eigenvectors:
  0.339  0.000  0.661
  0.501  0.244  0.254
  0.160  0.755  0.084
    occupations:
  0.910 -0.042  0.024
 -0.042  0.889  0.023
  0.024  0.023  0.917
atom    8   Tr[ns(na)] =   5.43182
    eigenvalues: 
  0.842  0.929  0.945
    eigenvectors:
  0.339  0.000  0.661
  0.000  1.000  0.000
  0.661  0.000  0.339
    occupations:
  0.910  0.000 -0.049
  0.000  0.929  0.000
 -0.049  0.000  0.877
atom    9   Tr[ns(na)] =   5.43182
    eigenvalues: 
  0.842  0.929  0.945
    eigenvectors:
  0.339  0.000  0.661
  0.491  0.256  0.253
  0.170  0.744  0.085
    occupations:
  0.910  0.042  0.025
  0.042  0.890 -0.023
  0.025 -0.023  0.916
atom   10   Tr[ns(na)] =   5.43182
    eigenvalues: 
  0.842  0.929  0.945
    eigenvectors:
  0.339  0.000  0.661
  0.501  0.244  0.254
  0.160  0.755  0.084
    occupations:
  0.910 -0.042  0.024
 -0.042  0.889  0.023
  0.024  0.023  0.917
N of occupied +U levels =  56.2881848
 --- exit write_ns ---
 --- in v_hubbard ---
Hubbard energy    0.1533
 -------

     total cpu time spent up to now is       77.2 secs

     total energy              =    -538.18463405 Ry
     Harris-Foulkes estimate   =    -538.18493974 Ry
     estimated scf accuracy    <       0.00704836 Ry

     iteration #  4     ecut=    30.00 Ry     beta=0.20
     Davidson diagonalization with overlap
     ethr =  9.27E-06,  avg # of iterations =  1.0
 --- enter write_ns ---
 LDA+U parameters:
U( 1)     =  2.00000000
alpha( 1) = -0.05000000
U( 2)     =  2.00000000
alpha( 2) =  0.00000000
U( 3)     =  0.00000000
alpha( 3) =  0.00000000
U( 4)     =  0.00000000
alpha( 4) =  0.00000000
atom    1   Tr[ns(na)] =   8.05222
    eigenvalues: 
  0.550  0.550  0.975  0.975  0.976
    eigenvectors:
  0.000  0.000  0.000  0.000  1.000
  0.332  0.324  0.005  0.340  0.000
  0.324  0.332  0.340  0.005  0.000
  0.286  0.058  0.514  0.142  0.000
  0.058  0.286  0.142  0.514  0.000
    occupations:
  0.976  0.000  0.000  0.000  0.000
  0.000  0.697  0.000 -0.072  0.188
  0.000  0.000  0.697  0.188  0.072
  0.000 -0.072  0.188  0.829  0.000
  0.000  0.188  0.072  0.000  0.829
atom    2   Tr[ns(na)] =   8.06647
    eigenvalues: 
  0.551  0.551  0.977  0.977  0.978
    eigenvectors:
  0.000  0.000  0.000  0.000  1.000
  0.638  0.018  0.220  0.124  0.000
  0.018  0.638  0.124  0.220  0.000
  0.013  0.331  0.471  0.185  0.000
  0.331  0.013  0.185  0.471  0.000
    occupations:
  0.978  0.000  0.000  0.000  0.000
  0.000  0.697  0.000  0.073  0.189
  0.000  0.000  0.697  0.189 -0.073
  0.000  0.073  0.189  0.830  0.000
  0.000  0.189 -0.073  0.000  0.830
atom    3   Tr[ns(na)] =   3.79480
    eigenvalues: 
  0.356  0.356  0.382  0.402  0.402
    eigenvectors:
  0.000  0.000  1.000  0.000  0.000
  0.782  0.139  0.000  0.012  0.068
  0.139  0.782  0.000  0.068  0.012
  0.012  0.067  0.000  0.780  0.141
  0.067  0.012  0.000  0.141  0.780
    occupations:
  0.382  0.000  0.000  0.000  0.000
  0.000  0.359  0.000  0.000  0.013
  0.000  0.000  0.359  0.013  0.000
  0.000  0.000  0.013  0.398  0.000
  0.000  0.013  0.000  0.000  0.398
atom    4   Tr[ns(na)] =   3.79480
    eigenvalues: 
  0.356  0.356  0.382  0.402  0.402
    eigenvectors:
  0.000  0.000  1.000  0.000  0.000
  0.782  0.139  0.000  0.012  0.068
  0.139  0.782  0.000  0.068  0.012
  0.012  0.067  0.000  0.780  0.141
  0.067  0.012  0.000  0.141  0.780
    occupations:
  0.382  0.000  0.000  0.000  0.000
  0.000  0.359  0.000  0.000  0.013
  0.000  0.000  0.359  0.013  0.000
  0.000  0.000  0.013  0.398  0.000
  0.000  0.013  0.000  0.000  0.398
atom    5   Tr[ns(na)] =   5.43010
    eigenvalues: 
  0.841  0.929  0.945
    eigenvectors:
  0.339  0.000  0.661
  0.497  0.249  0.255
  0.165  0.751  0.084
    occupations:
  0.910  0.042  0.024
  0.042  0.889 -0.023
  0.024 -0.023  0.916
atom    6   Tr[ns(na)] =   5.43010
    eigenvalues: 
  0.841  0.929  0.945
    eigenvectors:
  0.339  0.000  0.661
  0.000  1.000  0.000
  0.661  0.000  0.339
    occupations:
  0.910  0.000 -0.049
  0.000  0.929  0.000
 -0.049  0.000  0.876
atom    7   Tr[ns(na)] =   5.43010
    eigenvalues: 
  0.841  0.929  0.945
    eigenvectors:
  0.339  0.000  0.661
  0.495  0.251  0.253
  0.166  0.749  0.086
    occupations:
  0.910 -0.042  0.024
 -0.042  0.890  0.023
  0.024  0.023  0.916
atom    8   Tr[ns(na)] =   5.43010
    eigenvalues: 
  0.841  0.929  0.945
    eigenvectors:
  0.339  0.000  0.661
  0.000  1.000  0.000
  0.661  0.000  0.339
    occupations:
  0.910  0.000 -0.049
  0.000  0.929  0.000
 -0.049  0.000  0.876
atom    9   Tr[ns(na)] =   5.43010
    eigenvalues: 
  0.841  0.929  0.945
    eigenvectors:
  0.339  0.000  0.661
  0.497  0.249  0.255
  0.165  0.751  0.084
    occupations:
  0.910  0.042  0.024
  0.042  0.889 -0.023
  0.024 -0.023  0.916
atom   10   Tr[ns(na)] =   5.43010
    eigenvalues: 
  0.841  0.929  0.945
    eigenvectors:
  0.339  0.000  0.661
  0.495  0.251  0.253
  0.166  0.749  0.086
    occupations:
  0.910 -0.042  0.024
 -0.042  0.890  0.023
  0.024  0.023  0.916
N of occupied +U levels =  56.2888986
 --- exit write_ns ---
 --- in v_hubbard ---
Hubbard energy    0.1348
 -------

     total cpu time spent up to now is       92.0 secs

     total energy              =    -538.18538654 Ry
     Harris-Foulkes estimate   =    -538.18491133 Ry
     estimated scf accuracy    <       0.00349944 Ry

     iteration #  5     ecut=    30.00 Ry     beta=0.20
     Davidson diagonalization with overlap
     ethr =  4.60E-06,  avg # of iterations =  1.0
 --- enter write_ns ---
 LDA+U parameters:
U( 1)     =  2.00000000
alpha( 1) = -0.05000000
U( 2)     =  2.00000000
alpha( 2) =  0.00000000
U( 3)     =  0.00000000
alpha( 3) =  0.00000000
U( 4)     =  0.00000000
alpha( 4) =  0.00000000
atom    1   Tr[ns(na)] =   8.06217
    eigenvalues: 
  0.549  0.549  0.978  0.978  0.978
    eigenvectors:
  0.000  0.000  0.000  0.000  1.000
  0.336  0.322  0.004  0.338  0.000
  0.322  0.336  0.338  0.004  0.000
  0.284  0.059  0.517  0.141  0.000
  0.059  0.284  0.141  0.517  0.000
    occupations:
  0.978  0.000  0.000  0.000  0.000
  0.000  0.696  0.000 -0.073  0.190
  0.000  0.000  0.696  0.190  0.073
  0.000 -0.073  0.190  0.831  0.000
  0.000  0.190  0.073  0.000  0.831
atom    2   Tr[ns(na)] =   8.05914
    eigenvalues: 
  0.547  0.547  0.979  0.979  0.979
    eigenvectors:
  0.000  0.000  0.000  0.000  1.000
  0.638  0.020  0.218  0.124  0.000
  0.020  0.638  0.124  0.218  0.000
  0.012  0.330  0.473  0.185  0.000
  0.330  0.012  0.185  0.473  0.000
    occupations:
  0.979  0.000  0.000  0.000  0.000
  0.000  0.694  0.000  0.073  0.191
  0.000  0.000  0.694  0.191 -0.073
  0.000  0.073  0.191  0.831  0.000
  0.000  0.191 -0.073  0.000  0.831
atom    3   Tr[ns(na)] =   3.79664
    eigenvalues: 
  0.356  0.356  0.382  0.402  0.402
    eigenvectors:
  0.000  0.000  1.000  0.000  0.000
  0.783  0.138  0.000  0.011  0.067
  0.138  0.783  0.000  0.067  0.011
  0.012  0.066  0.000  0.781  0.141
  0.066  0.012  0.000  0.141  0.781
    occupations:
  0.382  0.000  0.000  0.000  0.000
  0.000  0.359  0.000  0.000  0.012
  0.000  0.000  0.359  0.012  0.000
  0.000  0.000  0.012  0.399  0.000
  0.000  0.012  0.000  0.000  0.399
atom    4   Tr[ns(na)] =   3.79664
    eigenvalues: 
  0.356  0.356  0.382  0.402  0.402
    eigenvectors:
  0.000  0.000  1.000  0.000  0.000
  0.783  0.138  0.000  0.011  0.067
  0.138  0.783  0.000  0.067  0.011
  0.012  0.066  0.000  0.781  0.140
  0.066  0.012  0.000  0.140  0.781
    occupations:
  0.382  0.000  0.000  0.000  0.000
  0.000  0.359  0.000  0.000  0.012
  0.000  0.000  0.359  0.012  0.000
  0.000  0.000  0.012  0.399  0.000
  0.000  0.012  0.000  0.000  0.399
atom    5   Tr[ns(na)] =   5.42887
    eigenvalues: 
  0.841  0.929  0.944
    eigenvectors:
  0.339  0.000  0.661
  0.496  0.250  0.255
  0.166  0.750  0.084
    occupations:
  0.909  0.042  0.025
  0.042  0.889 -0.023
  0.025 -0.023  0.916
atom    6   Tr[ns(na)] =   5.42887
    eigenvalues: 
  0.841  0.929  0.944
    eigenvectors:
  0.339  0.000  0.661
  0.000  1.000  0.000
  0.661  0.000  0.339
    occupations:
  0.909  0.000 -0.049
  0.000  0.929  0.000
 -0.049  0.000  0.876
atom    7   Tr[ns(na)] =   5.42887
    eigenvalues: 
  0.841  0.929  0.944
    eigenvectors:
  0.339  0.000  0.661
  0.497  0.250  0.253
  0.165  0.750  0.085
    occupations:
  0.909 -0.042  0.024
 -0.042  0.889  0.023
  0.024  0.023  0.916
atom    8   Tr[ns(na)] =   5.42887
    eigenvalues: 
  0.841  0.929  0.944
    eigenvectors:
  0.339  0.000  0.661
  0.000  1.000  0.000
  0.661  0.000  0.339
    occupations:
  0.909  0.000 -0.049
  0.000  0.929  0.000
 -0.049  0.000  0.876
atom    9   Tr[ns(na)] =   5.42887
    eigenvalues: 
  0.841  0.929  0.944
    eigenvectors:
  0.339  0.000  0.661
  0.496  0.250  0.255
  0.166  0.750  0.084
    occupations:
  0.909  0.042  0.025
  0.042  0.889 -0.023
  0.025 -0.023  0.916
atom   10   Tr[ns(na)] =   5.42887
    eigenvalues: 
  0.841  0.929  0.944
    eigenvectors:
  0.339  0.000  0.661
  0.497  0.250  0.253
  0.165  0.750  0.085
    occupations:
  0.909 -0.042  0.024
 -0.042  0.889  0.023
  0.024  0.023  0.916
N of occupied +U levels =  56.2878369
 --- exit write_ns ---
 --- in v_hubbard ---
Hubbard energy    0.1346
 -------

     total cpu time spent up to now is      108.2 secs

     total energy              =    -538.18556259 Ry
     Harris-Foulkes estimate   =    -538.18552322 Ry
     estimated scf accuracy    <       0.00008667 Ry

     iteration #  6     ecut=    30.00 Ry     beta=0.20
     Davidson diagonalization with overlap
     ethr =  1.14E-07,  avg # of iterations =  2.2
 --- enter write_ns ---
 LDA+U parameters:
U( 1)     =  2.00000000
alpha( 1) = -0.05000000
U( 2)     =  2.00000000
alpha( 2) =  0.00000000
U( 3)     =  0.00000000
alpha( 3) =  0.00000000
U( 4)     =  0.00000000
alpha( 4) =  0.00000000
atom    1   Tr[ns(na)] =   8.05979
    eigenvalues: 
  0.548  0.548  0.978  0.978  0.979
    eigenvectors:
  0.000  0.000  0.000  0.000  1.000
  0.336  0.322  0.004  0.338  0.000
  0.322  0.336  0.338  0.004  0.000
  0.284  0.059  0.516  0.141  0.000
  0.059  0.284  0.141  0.516  0.000
    occupations:
  0.979  0.000  0.000  0.000  0.000
  0.000  0.695  0.000 -0.074  0.190
  0.000  0.000  0.695  0.190  0.074
  0.000 -0.074  0.190  0.831  0.000
  0.000  0.190  0.074  0.000  0.831
atom    2   Tr[ns(na)] =   8.05168
    eigenvalues: 
  0.545  0.545  0.978  0.978  0.979
    eigenvectors:
  0.000  0.000  0.000  0.000  1.000
  0.639  0.019  0.218  0.124  0.000
  0.019  0.639  0.124  0.218  0.000
  0.013  0.330  0.473  0.185  0.000
  0.330  0.013  0.185  0.473  0.000
    occupations:
  0.979  0.000  0.000  0.000  0.000
  0.000  0.693  0.000  0.074  0.192
  0.000  0.000  0.693  0.192 -0.074
  0.000  0.074  0.192  0.830  0.000
  0.000  0.192 -0.074  0.000  0.830
atom    3   Tr[ns(na)] =   3.79642
    eigenvalues: 
  0.356  0.356  0.382  0.402  0.402
    eigenvectors:
  0.000  0.000  1.000  0.000  0.000
  0.783  0.139  0.000  0.011  0.067
  0.139  0.783  0.000  0.067  0.011
  0.012  0.066  0.000  0.781  0.140
  0.066  0.012  0.000  0.140  0.781
    occupations:
  0.382  0.000  0.000  0.000  0.000
  0.000  0.359  0.000  0.000  0.012
  0.000  0.000  0.359  0.012  0.000
  0.000  0.000  0.012  0.399  0.000
  0.000  0.012  0.000  0.000  0.399
atom    4   Tr[ns(na)] =   3.79642
    eigenvalues: 
  0.356  0.356  0.382  0.402  0.402
    eigenvectors:
  0.000  0.000  1.000  0.000  0.000
  0.783  0.138  0.000  0.011  0.067
  0.138  0.783  0.000  0.067  0.011
  0.012  0.066  0.000  0.781  0.141
  0.066  0.012  0.000  0.141  0.781
    occupations:
  0.382  0.000  0.000  0.000  0.000
  0.000  0.359  0.000  0.000  0.012
  0.000  0.000  0.359  0.012  0.000
  0.000  0.000  0.012  0.399  0.000
  0.000  0.012  0.000  0.000  0.399
atom    5   Tr[ns(na)] =   5.43040
    eigenvalues: 
  0.841  0.929  0.945
    eigenvectors:
  0.338  0.000  0.662
  0.495  0.250  0.254
  0.166  0.750  0.084
    occupations:
  0.910  0.042  0.024
  0.042  0.890 -0.023
  0.024 -0.023  0.916
atom    6   Tr[ns(na)] =   5.43040
    eigenvalues: 
  0.841  0.929  0.945
    eigenvectors:
  0.338  0.000  0.662
  0.000  1.000  0.000
  0.662  0.000  0.338
    occupations:
  0.910  0.000 -0.049
  0.000  0.929  0.000
 -0.049  0.000  0.876
atom    7   Tr[ns(na)] =   5.43040
    eigenvalues: 
  0.841  0.929  0.945
    eigenvectors:
  0.338  0.000  0.662
  0.497  0.250  0.253
  0.165  0.750  0.085
    occupations:
  0.910 -0.042  0.024
 -0.042  0.889  0.023
  0.024  0.023  0.916
atom    8   Tr[ns(na)] =   5.43040
    eigenvalues: 
  0.841  0.929  0.945
    eigenvectors:
  0.338  0.000  0.662
  0.000  1.000  0.000
  0.662  0.000  0.338
    occupations:
  0.910  0.000 -0.049
  0.000  0.929  0.000
 -0.049  0.000  0.876
atom    9   Tr[ns(na)] =   5.43040
    eigenvalues: 
  0.841  0.929  0.945
    eigenvectors:
  0.338  0.000  0.662
  0.495  0.250  0.254
  0.166  0.750  0.084
    occupations:
  0.910  0.042  0.024
  0.042  0.890 -0.023
  0.024 -0.023  0.916
atom   10   Tr[ns(na)] =   5.43040
    eigenvalues: 
  0.841  0.929  0.945
    eigenvectors:
  0.338  0.000  0.662
  0.497  0.250  0.253
  0.165  0.750  0.085
    occupations:
  0.910 -0.042  0.024
 -0.042  0.889  0.023
  0.024  0.023  0.916
N of occupied +U levels =  56.2867049
 --- exit write_ns ---
 --- in v_hubbard ---
Hubbard energy    0.1344
 -------

     total cpu time spent up to now is      125.7 secs

     total energy              =    -538.18560344 Ry
     Harris-Foulkes estimate   =    -538.18557532 Ry
     estimated scf accuracy    <       0.00001302 Ry

     iteration #  7     ecut=    30.00 Ry     beta=0.20
     Davidson diagonalization with overlap
     ethr =  1.71E-08,  avg # of iterations =  2.0
 --- enter write_ns ---
 LDA+U parameters:
U( 1)     =  2.00000000
alpha( 1) = -0.05000000
U( 2)     =  2.00000000
alpha( 2) =  0.00000000
U( 3)     =  0.00000000
alpha( 3) =  0.00000000
U( 4)     =  0.00000000
alpha( 4) =  0.00000000
atom    1   Tr[ns(na)] =   8.05814
    eigenvalues: 
  0.547  0.547  0.978  0.978  0.979
    eigenvectors:
  0.000  0.000  0.000  0.000  1.000
  0.334  0.323  0.004  0.339  0.000
  0.323  0.334  0.339  0.004  0.000
  0.285  0.058  0.516  0.141  0.000
  0.058  0.285  0.141  0.516  0.000
    occupations:
  0.979  0.000  0.000  0.000  0.000
  0.000  0.695  0.000 -0.074  0.191
  0.000  0.000  0.695  0.191  0.074
  0.000 -0.074  0.191  0.830  0.000
  0.000  0.191  0.074  0.000  0.830
atom    2   Tr[ns(na)] =   8.05216
    eigenvalues: 
  0.545  0.545  0.979  0.979  0.980
    eigenvectors:
  0.000  0.000  0.000  0.000  1.000
  0.638  0.019  0.219  0.124  0.000
  0.019  0.638  0.124  0.219  0.000
  0.013  0.330  0.472  0.185  0.000
  0.330  0.013  0.185  0.472  0.000
    occupations:
  0.980  0.000  0.000  0.000  0.000
  0.000  0.694  0.000  0.074  0.192
  0.000  0.000  0.694  0.192 -0.074
  0.000  0.074  0.192  0.830  0.000
  0.000  0.192 -0.074  0.000  0.830
atom    3   Tr[ns(na)] =   3.79535
    eigenvalues: 
  0.356  0.356  0.382  0.402  0.402
    eigenvectors:
  0.000  0.000  1.000  0.000  0.000
  0.783  0.139  0.000  0.012  0.067
  0.139  0.783  0.000  0.067  0.012
  0.012  0.066  0.000  0.781  0.141
  0.066  0.012  0.000  0.141  0.781
    occupations:
  0.382  0.000  0.000  0.000  0.000
  0.000  0.359  0.000  0.000  0.012
  0.000  0.000  0.359  0.012  0.000
  0.000  0.000  0.012  0.398  0.000
  0.000  0.012  0.000  0.000  0.398
atom    4   Tr[ns(na)] =   3.79535
    eigenvalues: 
  0.356  0.356  0.382  0.402  0.402
    eigenvectors:
  0.000  0.000  1.000  0.000  0.000
  0.783  0.139  0.000  0.012  0.067
  0.139  0.783  0.000  0.067  0.012
  0.012  0.066  0.000  0.781  0.141
  0.066  0.012  0.000  0.141  0.781
    occupations:
  0.382  0.000  0.000  0.000  0.000
  0.000  0.359  0.000  0.000  0.012
  0.000  0.000  0.359  0.012  0.000
  0.000  0.000  0.012  0.398  0.000
  0.000  0.012  0.000  0.000  0.398
atom    5   Tr[ns(na)] =   5.43081
    eigenvalues: 
  0.841  0.929  0.945
    eigenvectors:
  0.339  0.000  0.661
  0.495  0.250  0.255
  0.166  0.750  0.084
    occupations:
  0.910  0.042  0.024
  0.042  0.890 -0.023
  0.024 -0.023  0.916
atom    6   Tr[ns(na)] =   5.43081
    eigenvalues: 
  0.841  0.929  0.945
    eigenvectors:
  0.339  0.000  0.661
  0.000  1.000  0.000
  0.661  0.000  0.339
    occupations:
  0.910  0.000 -0.049
  0.000  0.929  0.000
 -0.049  0.000  0.876
atom    7   Tr[ns(na)] =   5.43081
    eigenvalues: 
  0.841  0.929  0.945
    eigenvectors:
  0.339  0.000  0.661
  0.497  0.250  0.253
  0.165  0.750  0.085
    occupations:
  0.910 -0.042  0.024
 -0.042  0.890  0.023
  0.024  0.023  0.916
atom    8   Tr[ns(na)] =   5.43081
    eigenvalues: 
  0.841  0.929  0.945
    eigenvectors:
  0.339  0.000  0.661
  0.000  1.000  0.000
  0.661  0.000  0.339
    occupations:
  0.910  0.000 -0.049
  0.000  0.929  0.000
 -0.049  0.000  0.876
atom    9   Tr[ns(na)] =   5.43081
    eigenvalues: 
  0.841  0.929  0.945
    eigenvectors:
  0.339  0.000  0.661
  0.495  0.250  0.255
  0.166  0.750  0.084
    occupations:
  0.910  0.042  0.024
  0.042  0.890 -0.023
  0.024 -0.023  0.916
atom   10   Tr[ns(na)] =   5.43081
    eigenvalues: 
  0.841  0.929  0.945
    eigenvectors:
  0.339  0.000  0.661
  0.497  0.250  0.253
  0.165  0.750  0.085
    occupations:
  0.910 -0.042  0.024
 -0.042  0.890  0.023
  0.024  0.023  0.916
N of occupied +U levels =  56.2858941
 --- exit write_ns ---
 --- in v_hubbard ---
Hubbard energy    0.1345
 -------

     total cpu time spent up to now is      144.0 secs

     total energy              =    -538.18563602 Ry
     Harris-Foulkes estimate   =    -538.18560581 Ry
     estimated scf accuracy    <       0.00000341 Ry

     iteration #  8     ecut=    30.00 Ry     beta=0.20
     Davidson diagonalization with overlap
     ethr =  4.49E-09,  avg # of iterations =  1.0
 --- enter write_ns ---
 LDA+U parameters:
U( 1)     =  2.00000000
alpha( 1) = -0.05000000
U( 2)     =  2.00000000
alpha( 2) =  0.00000000
U( 3)     =  0.00000000
alpha( 3) =  0.00000000
U( 4)     =  0.00000000
alpha( 4) =  0.00000000
atom    1   Tr[ns(na)] =   8.05908
    eigenvalues: 
  0.548  0.548  0.978  0.978  0.979
    eigenvectors:
  0.000  0.000  0.000  0.000  1.000
  0.334  0.323  0.004  0.339  0.000
  0.323  0.334  0.339  0.004  0.000
  0.285  0.058  0.516  0.141  0.000
  0.058  0.285  0.141  0.516  0.000
    occupations:
  0.979  0.000  0.000  0.000  0.000
  0.000  0.695  0.000 -0.074  0.190
  0.000  0.000  0.695  0.190  0.074
  0.000 -0.074  0.190  0.830  0.000
  0.000  0.190  0.074  0.000  0.830
atom    2   Tr[ns(na)] =   8.05202
    eigenvalues: 
  0.545  0.545  0.979  0.979  0.979
    eigenvectors:
  0.000  0.000  0.000  0.000  1.000
  0.638  0.019  0.219  0.124  0.000
  0.019  0.638  0.124  0.219  0.000
  0.013  0.330  0.472  0.185  0.000
  0.330  0.013  0.185  0.472  0.000
    occupations:
  0.979  0.000  0.000  0.000  0.000
  0.000  0.694  0.000  0.074  0.192
  0.000  0.000  0.694  0.192 -0.074
  0.000  0.074  0.192  0.830  0.000
  0.000  0.192 -0.074  0.000  0.830
atom    3   Tr[ns(na)] =   3.79548
    eigenvalues: 
  0.356  0.356  0.382  0.402  0.402
    eigenvectors:
  0.000  0.000  1.000  0.000  0.000
  0.783  0.139  0.000  0.012  0.067
  0.139  0.783  0.000  0.067  0.012
  0.012  0.066  0.000  0.781  0.141
  0.066  0.012  0.000  0.141  0.781
    occupations:
  0.382  0.000  0.000  0.000  0.000
  0.000  0.359  0.000  0.000  0.012
  0.000  0.000  0.359  0.012  0.000
  0.000  0.000  0.012  0.398  0.000
  0.000  0.012  0.000  0.000  0.398
atom    4   Tr[ns(na)] =   3.79548
    eigenvalues: 
  0.356  0.356  0.382  0.402  0.402
    eigenvectors:
  0.000  0.000  1.000  0.000  0.000
  0.783  0.139  0.000  0.012  0.067
  0.139  0.783  0.000  0.067  0.012
  0.012  0.066  0.000  0.781  0.141
  0.066  0.012  0.000  0.141  0.781
    occupations:
  0.382  0.000  0.000  0.000  0.000
  0.000  0.359  0.000  0.000  0.012
  0.000  0.000  0.359  0.012  0.000
  0.000  0.000  0.012  0.398  0.000
  0.000  0.012  0.000  0.000  0.398
atom    5   Tr[ns(na)] =   5.43066
    eigenvalues: 
  0.841  0.929  0.945
    eigenvectors:
  0.339  0.000  0.661
  0.495  0.250  0.255
  0.166  0.750  0.084
    occupations:
  0.910  0.042  0.024
  0.042  0.890 -0.023
  0.024 -0.023  0.916
atom    6   Tr[ns(na)] =   5.43066
    eigenvalues: 
  0.841  0.929  0.945
    eigenvectors:
  0.339  0.000  0.661
  0.000  1.000  0.000
  0.661  0.000  0.339
    occupations:
  0.910  0.000 -0.049
  0.000  0.929  0.000
 -0.049  0.000  0.876
atom    7   Tr[ns(na)] =   5.43066
    eigenvalues: 
  0.841  0.929  0.945
    eigenvectors:
  0.339  0.000  0.661
  0.497  0.250  0.253
  0.165  0.750  0.085
    occupations:
  0.910 -0.042  0.024
 -0.042  0.890  0.023
  0.024  0.023  0.916
atom    8   Tr[ns(na)] =   5.43066
    eigenvalues: 
  0.841  0.929  0.945
    eigenvectors:
  0.339  0.000  0.661
  0.000  1.000  0.000
  0.661  0.000  0.339
    occupations:
  0.910  0.000 -0.049
  0.000  0.929  0.000
 -0.049  0.000  0.876
atom    9   Tr[ns(na)] =   5.43066
    eigenvalues: 
  0.841  0.929  0.945
    eigenvectors:
  0.339  0.000  0.661
  0.495  0.250  0.255
  0.166  0.750  0.084
    occupations:
  0.910  0.042  0.024
  0.042  0.890 -0.023
  0.024 -0.023  0.916
atom   10   Tr[ns(na)] =   5.43066
    eigenvalues: 
  0.841  0.929  0.945
    eigenvectors:
  0.339  0.000  0.661
  0.497  0.250  0.253
  0.165  0.750  0.085
    occupations:
  0.910 -0.042  0.024
 -0.042  0.890  0.023
  0.024  0.023  0.916
N of occupied +U levels =  56.2860452
 --- exit write_ns ---
 --- in v_hubbard ---
Hubbard energy    0.1347
 -------

     total cpu time spent up to now is      159.5 secs

     total energy              =    -538.18565430 Ry
     Harris-Foulkes estimate   =    -538.18563616 Ry
     estimated scf accuracy    <       0.00000083 Ry

     iteration #  9     ecut=    30.00 Ry     beta=0.20
     Davidson diagonalization with overlap
     ethr =  1.09E-09,  avg # of iterations =  2.0
 --- enter write_ns ---
 LDA+U parameters:
U( 1)     =  2.00000000
alpha( 1) = -0.05000000
U( 2)     =  2.00000000
alpha( 2) =  0.00000000
U( 3)     =  0.00000000
alpha( 3) =  0.00000000
U( 4)     =  0.00000000
alpha( 4) =  0.00000000
atom    1   Tr[ns(na)] =   8.05944
    eigenvalues: 
  0.548  0.548  0.978  0.978  0.979
    eigenvectors:
  0.000  0.000  0.000  0.000  1.000
  0.334  0.323  0.004  0.339  0.000
  0.323  0.334  0.339  0.004  0.000
  0.285  0.058  0.516  0.141  0.000
  0.058  0.285  0.141  0.516  0.000
    occupations:
  0.979  0.000  0.000  0.000  0.000
  0.000  0.695  0.000 -0.074  0.190
  0.000  0.000  0.695  0.190  0.074
  0.000 -0.074  0.190  0.830  0.000
  0.000  0.190  0.074  0.000  0.830
atom    2   Tr[ns(na)] =   8.05218
    eigenvalues: 
  0.545  0.545  0.979  0.979  0.979
    eigenvectors:
  0.000  0.000  0.000  0.000  1.000
  0.638  0.019  0.219  0.124  0.000
  0.019  0.638  0.124  0.219  0.000
  0.013  0.330  0.472  0.185  0.000
  0.330  0.013  0.185  0.472  0.000
    occupations:
  0.979  0.000  0.000  0.000  0.000
  0.000  0.694  0.000  0.074  0.192
  0.000  0.000  0.694  0.192 -0.074
  0.000  0.074  0.192  0.830  0.000
  0.000  0.192 -0.074  0.000  0.830
atom    3   Tr[ns(na)] =   3.79582
    eigenvalues: 
  0.356  0.356  0.382  0.402  0.402
    eigenvectors:
  0.000  0.000  1.000  0.000  0.000
  0.782  0.139  0.000  0.012  0.067
  0.139  0.782  0.000  0.067  0.012
  0.012  0.066  0.000  0.781  0.141
  0.066  0.012  0.000  0.141  0.781
    occupations:
  0.382  0.000  0.000  0.000  0.000
  0.000  0.359  0.000  0.000  0.012
  0.000  0.000  0.359  0.012  0.000
  0.000  0.000  0.012  0.398  0.000
  0.000  0.012  0.000  0.000  0.398
atom    4   Tr[ns(na)] =   3.79582
    eigenvalues: 
  0.356  0.356  0.382  0.402  0.402
    eigenvectors:
  0.000  0.000  1.000  0.000  0.000
  0.783  0.139  0.000  0.012  0.067
  0.139  0.783  0.000  0.067  0.012
  0.012  0.066  0.000  0.781  0.141
  0.066  0.012  0.000  0.141  0.781
    occupations:
  0.382  0.000  0.000  0.000  0.000
  0.000  0.359  0.000  0.000  0.012
  0.000  0.000  0.359  0.012  0.000
  0.000  0.000  0.012  0.398  0.000
  0.000  0.012  0.000  0.000  0.398
atom    5   Tr[ns(na)] =   5.43050
    eigenvalues: 
  0.841  0.929  0.945
    eigenvectors:
  0.339  0.000  0.661
  0.495  0.250  0.254
  0.166  0.750  0.084
    occupations:
  0.910  0.042  0.024
  0.042  0.890 -0.023
  0.024 -0.023  0.916
atom    6   Tr[ns(na)] =   5.43050
    eigenvalues: 
  0.841  0.929  0.945
    eigenvectors:
  0.339  0.000  0.661
  0.000  1.000  0.000
  0.661  0.000  0.339
    occupations:
  0.910  0.000 -0.049
  0.000  0.929  0.000
 -0.049  0.000  0.876
atom    7   Tr[ns(na)] =   5.43050
    eigenvalues: 
  0.841  0.929  0.945
    eigenvectors:
  0.339  0.000  0.661
  0.497  0.250  0.253
  0.165  0.750  0.085
    occupations:
  0.910 -0.042  0.024
 -0.042  0.889  0.023
  0.024  0.023  0.916
atom    8   Tr[ns(na)] =   5.43050
    eigenvalues: 
  0.841  0.929  0.945
    eigenvectors:
  0.339  0.000  0.661
  0.000  1.000  0.000
  0.661  0.000  0.339
    occupations:
  0.910  0.000 -0.049
  0.000  0.929  0.000
 -0.049  0.000  0.876
atom    9   Tr[ns(na)] =   5.43050
    eigenvalues: 
  0.841  0.929  0.945
    eigenvectors:
  0.339  0.000  0.661
  0.495  0.250  0.254
  0.166  0.750  0.084
    occupations:
  0.910  0.042  0.024
  0.042  0.890 -0.023
  0.024 -0.023  0.916
atom   10   Tr[ns(na)] =   5.43050
    eigenvalues: 
  0.841  0.929  0.945
    eigenvectors:
  0.339  0.000  0.661
  0.497  0.250  0.253
  0.165  0.750  0.085
    occupations:
  0.910 -0.042  0.024
 -0.042  0.889  0.023
  0.024  0.023  0.916
N of occupied +U levels =  56.2862654
 --- exit write_ns ---
 --- in v_hubbard ---
Hubbard energy    0.1347
 -------

     total cpu time spent up to now is      176.9 secs

     total energy              =    -538.18566618 Ry
     Harris-Foulkes estimate   =    -538.18565442 Ry
     estimated scf accuracy    <       0.00000008 Ry

     iteration # 10     ecut=    30.00 Ry     beta=0.20
     Davidson diagonalization with overlap
     ethr =  1.04E-10,  avg # of iterations =  2.0
 --- enter write_ns ---
 LDA+U parameters:
U( 1)     =  2.00000000
alpha( 1) = -0.05000000
U( 2)     =  2.00000000
alpha( 2) =  0.00000000
U( 3)     =  0.00000000
alpha( 3) =  0.00000000
U( 4)     =  0.00000000
alpha( 4) =  0.00000000
atom    1   Tr[ns(na)] =   8.05946
    eigenvalues: 
  0.548  0.548  0.978  0.978  0.979
    eigenvectors:
  0.000  0.000  0.000  0.000  1.000
  0.335  0.322  0.004  0.339  0.000
  0.322  0.335  0.339  0.004  0.000
  0.285  0.058  0.516  0.141  0.000
  0.058  0.285  0.141  0.516  0.000
    occupations:
  0.979  0.000  0.000  0.000  0.000
  0.000  0.695  0.000 -0.074  0.190
  0.000  0.000  0.695  0.190  0.074
  0.000 -0.074  0.190  0.830  0.000
  0.000  0.190  0.074  0.000  0.830
atom    2   Tr[ns(na)] =   8.05235
    eigenvalues: 
  0.545  0.545  0.979  0.979  0.979
    eigenvectors:
  0.000  0.000  0.000  0.000  1.000
  0.638  0.019  0.219  0.124  0.000
  0.019  0.638  0.124  0.219  0.000
  0.013  0.330  0.472  0.185  0.000
  0.330  0.013  0.185  0.472  0.000
    occupations:
  0.979  0.000  0.000  0.000  0.000
  0.000  0.694  0.000  0.074  0.192
  0.000  0.000  0.694  0.192 -0.074
  0.000  0.074  0.192  0.830  0.000
  0.000  0.192 -0.074  0.000  0.830
atom    3   Tr[ns(na)] =   3.79576
    eigenvalues: 
  0.356  0.356  0.382  0.402  0.402
    eigenvectors:
  0.000  0.000  1.000  0.000  0.000
  0.782  0.139  0.000  0.012  0.067
  0.139  0.782  0.000  0.067  0.012
  0.012  0.066  0.000  0.781  0.141
  0.066  0.012  0.000  0.141  0.781
    occupations:
  0.382  0.000  0.000  0.000  0.000
  0.000  0.359  0.000  0.000  0.012
  0.000  0.000  0.359  0.012  0.000
  0.000  0.000  0.012  0.398  0.000
  0.000  0.012  0.000  0.000  0.398
atom    4   Tr[ns(na)] =   3.79576
    eigenvalues: 
  0.356  0.356  0.382  0.402  0.402
    eigenvectors:
  0.000  0.000  1.000  0.000  0.000
  0.782  0.139  0.000  0.012  0.067
  0.139  0.782  0.000  0.067  0.012
  0.012  0.066  0.000  0.781  0.141
  0.066  0.012  0.000  0.141  0.781
    occupations:
  0.382  0.000  0.000  0.000  0.000
  0.000  0.359  0.000  0.000  0.012
  0.000  0.000  0.359  0.012  0.000
  0.000  0.000  0.012  0.398  0.000
  0.000  0.012  0.000  0.000  0.398
atom    5   Tr[ns(na)] =   5.43048
    eigenvalues: 
  0.841  0.929  0.945
    eigenvectors:
  0.339  0.000  0.661
  0.495  0.250  0.255
  0.166  0.750  0.084
    occupations:
  0.910  0.042  0.024
  0.042  0.890 -0.023
  0.024 -0.023  0.916
atom    6   Tr[ns(na)] =   5.43048
    eigenvalues: 
  0.841  0.929  0.945
    eigenvectors:
  0.339  0.000  0.661
  0.000  1.000  0.000
  0.661  0.000  0.339
    occupations:
  0.910  0.000 -0.049
  0.000  0.929  0.000
 -0.049  0.000  0.876
atom    7   Tr[ns(na)] =   5.43048
    eigenvalues: 
  0.841  0.929  0.945
    eigenvectors:
  0.339  0.000  0.661
  0.497  0.250  0.253
  0.165  0.750  0.085
    occupations:
  0.910 -0.042  0.024
 -0.042  0.889  0.023
  0.024  0.023  0.916
atom    8   Tr[ns(na)] =   5.43048
    eigenvalues: 
  0.841  0.929  0.945
    eigenvectors:
  0.339  0.000  0.661
  0.000  1.000  0.000
  0.661  0.000  0.339
    occupations:
  0.910  0.000 -0.049
  0.000  0.929  0.000
 -0.049  0.000  0.876
atom    9   Tr[ns(na)] =   5.43048
    eigenvalues: 
  0.841  0.929  0.945
    eigenvectors:
  0.339  0.000  0.661
  0.495  0.250  0.255
  0.166  0.750  0.084
    occupations:
  0.910  0.042  0.024
  0.042  0.890 -0.023
  0.024 -0.023  0.916
atom   10   Tr[ns(na)] =   5.43048
    eigenvalues: 
  0.841  0.929  0.945
    eigenvectors:
  0.339  0.000  0.661
  0.497  0.250  0.253
  0.165  0.750  0.085
    occupations:
  0.910 -0.042  0.024
 -0.042  0.889  0.023
  0.024  0.023  0.916
N of occupied +U levels =  56.2862322
 --- exit write_ns ---
 --- in v_hubbard ---
Hubbard energy    0.1347
 -------

     total cpu time spent up to now is      195.0 secs

     total energy              =    -538.18567381 Ry
     Harris-Foulkes estimate   =    -538.18566619 Ry
     estimated scf accuracy    <       0.00000012 Ry

     iteration # 11     ecut=    30.00 Ry     beta=0.20
     Davidson diagonalization with overlap
     ethr =  1.04E-10,  avg # of iterations =  2.0
 --- enter write_ns ---
 LDA+U parameters:
U( 1)     =  2.00000000
alpha( 1) = -0.05000000
U( 2)     =  2.00000000
alpha( 2) =  0.00000000
U( 3)     =  0.00000000
alpha( 3) =  0.00000000
U( 4)     =  0.00000000
alpha( 4) =  0.00000000
atom    1   Tr[ns(na)] =   8.05941
    eigenvalues: 
  0.548  0.548  0.978  0.978  0.979
    eigenvectors:
  0.000  0.000  0.000  0.000  1.000
  0.334  0.323  0.004  0.339  0.000
  0.323  0.334  0.339  0.004  0.000
  0.285  0.058  0.516  0.141  0.000
  0.058  0.285  0.141  0.516  0.000
    occupations:
  0.979  0.000  0.000  0.000  0.000
  0.000  0.695  0.000 -0.074  0.190
  0.000  0.000  0.695  0.190  0.074
  0.000 -0.074  0.190  0.830  0.000
  0.000  0.190  0.074  0.000  0.830
atom    2   Tr[ns(na)] =   8.05202
    eigenvalues: 
  0.545  0.545  0.979  0.979  0.979
    eigenvectors:
  0.000  0.000  0.000  0.000  1.000
  0.638  0.019  0.219  0.124  0.000
  0.019  0.638  0.124  0.219  0.000
  0.013  0.330  0.472  0.185  0.000
  0.330  0.013  0.185  0.472  0.000
    occupations:
  0.979  0.000  0.000  0.000  0.000
  0.000  0.693  0.000  0.074  0.192
  0.000  0.000  0.693  0.192 -0.074
  0.000  0.074  0.192  0.830  0.000
  0.000  0.192 -0.074  0.000  0.830
atom    3   Tr[ns(na)] =   3.79570
    eigenvalues: 
  0.356  0.356  0.382  0.402  0.402
    eigenvectors:
  0.000  0.000  1.000  0.000  0.000
  0.783  0.139  0.000  0.012  0.067
  0.139  0.783  0.000  0.067  0.012
  0.012  0.066  0.000  0.781  0.141
  0.066  0.012  0.000  0.141  0.781
    occupations:
  0.382  0.000  0.000  0.000  0.000
  0.000  0.359  0.000  0.000  0.012
  0.000  0.000  0.359  0.012  0.000
  0.000  0.000  0.012  0.398  0.000
  0.000  0.012  0.000  0.000  0.398
atom    4   Tr[ns(na)] =   3.79570
    eigenvalues: 
  0.356  0.356  0.382  0.402  0.402
    eigenvectors:
  0.000  0.000  1.000  0.000  0.000
  0.783  0.139  0.000  0.012  0.067
  0.139  0.783  0.000  0.067  0.012
  0.012  0.066  0.000  0.781  0.141
  0.066  0.012  0.000  0.141  0.781
    occupations:
  0.382  0.000  0.000  0.000  0.000
  0.000  0.359  0.000  0.000  0.012
  0.000  0.000  0.359  0.012  0.000
  0.000  0.000  0.012  0.398  0.000
  0.000  0.012  0.000  0.000  0.398
atom    5   Tr[ns(na)] =   5.43055
    eigenvalues: 
  0.841  0.929  0.945
    eigenvectors:
  0.339  0.000  0.661
  0.495  0.250  0.254
  0.166  0.750  0.084
    occupations:
  0.910  0.042  0.024
  0.042  0.890 -0.023
  0.024 -0.023  0.916
atom    6   Tr[ns(na)] =   5.43055
    eigenvalues: 
  0.841  0.929  0.945
    eigenvectors:
  0.339  0.000  0.661
  0.000  1.000  0.000
  0.661  0.000  0.339
    occupations:
  0.910  0.000 -0.049
  0.000  0.929  0.000
 -0.049  0.000  0.876
atom    7   Tr[ns(na)] =   5.43055
    eigenvalues: 
  0.841  0.929  0.945
    eigenvectors:
  0.339  0.000  0.661
  0.497  0.250  0.253
  0.165  0.750  0.085
    occupations:
  0.910 -0.042  0.024
 -0.042  0.889  0.023
  0.024  0.023  0.916
atom    8   Tr[ns(na)] =   5.43055
    eigenvalues: 
  0.841  0.929  0.945
    eigenvectors:
  0.339  0.000  0.661
  0.000  1.000  0.000
  0.661  0.000  0.339
    occupations:
  0.910  0.000 -0.049
  0.000  0.929  0.000
 -0.049  0.000  0.876
atom    9   Tr[ns(na)] =   5.43055
    eigenvalues: 
  0.841  0.929  0.945
    eigenvectors:
  0.339  0.000  0.661
  0.495  0.250  0.254
  0.166  0.750  0.084
    occupations:
  0.910  0.042  0.024
  0.042  0.890 -0.023
  0.024 -0.023  0.916
atom   10   Tr[ns(na)] =   5.43055
    eigenvalues: 
  0.841  0.929  0.945
    eigenvectors:
  0.339  0.000  0.661
  0.497  0.250  0.253
  0.165  0.750  0.085
    occupations:
  0.910 -0.042  0.024
 -0.042  0.889  0.023
  0.024  0.023  0.916
N of occupied +U levels =  56.2861623
 --- exit write_ns ---
 --- in v_hubbard ---
Hubbard energy    0.1347
 -------

     total cpu time spent up to now is      214.5 secs

     total energy              =    -538.18567869 Ry
     Harris-Foulkes estimate   =    -538.18567383 Ry
     estimated scf accuracy    <       0.00000001 Ry

     iteration # 12     ecut=    30.00 Ry     beta=0.20
     Davidson diagonalization with overlap
     ethr =  1.71E-11,  avg # of iterations =  1.9
 --- enter write_ns ---
 LDA+U parameters:
U( 1)     =  2.00000000
alpha( 1) = -0.05000000
U( 2)     =  2.00000000
alpha( 2) =  0.00000000
U( 3)     =  0.00000000
alpha( 3) =  0.00000000
U( 4)     =  0.00000000
alpha( 4) =  0.00000000
atom    1   Tr[ns(na)] =   8.05947
    eigenvalues: 
  0.548  0.548  0.978  0.978  0.979
    eigenvectors:
  0.000  0.000  0.000  0.000  1.000
  0.334  0.323  0.004  0.339  0.000
  0.323  0.334  0.339  0.004  0.000
  0.285  0.058  0.516  0.141  0.000
  0.058  0.285  0.141  0.516  0.000
    occupations:
  0.979  0.000  0.000  0.000  0.000
  0.000  0.695  0.000 -0.074  0.190
  0.000  0.000  0.695  0.190  0.074
  0.000 -0.074  0.190  0.830  0.000
  0.000  0.190  0.074  0.000  0.830
atom    2   Tr[ns(na)] =   8.05206
    eigenvalues: 
  0.545  0.545  0.979  0.979  0.979
    eigenvectors:
  0.000  0.000  0.000  0.000  1.000
  0.638  0.019  0.219  0.124  0.000
  0.019  0.638  0.124  0.219  0.000
  0.013  0.330  0.472  0.185  0.000
  0.330  0.013  0.185  0.472  0.000
    occupations:
  0.979  0.000  0.000  0.000  0.000
  0.000  0.694  0.000  0.074  0.192
  0.000  0.000  0.694  0.192 -0.074
  0.000  0.074  0.192  0.830  0.000
  0.000  0.192 -0.074  0.000  0.830
atom    3   Tr[ns(na)] =   3.79571
    eigenvalues: 
  0.356  0.356  0.382  0.402  0.402
    eigenvectors:
  0.000  0.000  1.000  0.000  0.000
  0.783  0.139  0.000  0.012  0.067
  0.139  0.783  0.000  0.067  0.012
  0.012  0.066  0.000  0.781  0.141
  0.066  0.012  0.000  0.141  0.781
    occupations:
  0.382  0.000  0.000  0.000  0.000
  0.000  0.359  0.000  0.000  0.012
  0.000  0.000  0.359  0.012  0.000
  0.000  0.000  0.012  0.398  0.000
  0.000  0.012  0.000  0.000  0.398
atom    4   Tr[ns(na)] =   3.79571
    eigenvalues: 
  0.356  0.356  0.382  0.402  0.402
    eigenvectors:
  0.000  0.000  1.000  0.000  0.000
  0.782  0.139  0.000  0.012  0.067
  0.139  0.782  0.000  0.067  0.012
  0.012  0.066  0.000  0.781  0.141
  0.066  0.012  0.000  0.141  0.781
    occupations:
  0.382  0.000  0.000  0.000  0.000
  0.000  0.359  0.000  0.000  0.012
  0.000  0.000  0.359  0.012  0.000
  0.000  0.000  0.012  0.398  0.000
  0.000  0.012  0.000  0.000  0.398
atom    5   Tr[ns(na)] =   5.43054
    eigenvalues: 
  0.841  0.929  0.945
    eigenvectors:
  0.339  0.000  0.661
  0.495  0.250  0.254
  0.166  0.750  0.084
    occupations:
  0.910  0.042  0.024
  0.042  0.890 -0.023
  0.024 -0.023  0.916
atom    6   Tr[ns(na)] =   5.43054
    eigenvalues: 
  0.841  0.929  0.945
    eigenvectors:
  0.339  0.000  0.661
  0.000  1.000  0.000
  0.661  0.000  0.339
    occupations:
  0.910  0.000 -0.049
  0.000  0.929  0.000
 -0.049  0.000  0.876
atom    7   Tr[ns(na)] =   5.43054
    eigenvalues: 
  0.841  0.929  0.945
    eigenvectors:
  0.339  0.000  0.661
  0.497  0.250  0.253
  0.165  0.750  0.085
    occupations:
  0.910 -0.042  0.024
 -0.042  0.889  0.023
  0.024  0.023  0.916
atom    8   Tr[ns(na)] =   5.43054
    eigenvalues: 
  0.841  0.929  0.945
    eigenvectors:
  0.339  0.000  0.661
  0.000  1.000  0.000
  0.661  0.000  0.339
    occupations:
  0.910  0.000 -0.049
  0.000  0.929  0.000
 -0.049  0.000  0.876
atom    9   Tr[ns(na)] =   5.43054
    eigenvalues: 
  0.841  0.929  0.945
    eigenvectors:
  0.339  0.000  0.661
  0.495  0.250  0.254
  0.166  0.750  0.084
    occupations:
  0.910  0.042  0.024
  0.042  0.890 -0.023
  0.024 -0.023  0.916
atom   10   Tr[ns(na)] =   5.43054
    eigenvalues: 
  0.841  0.929  0.945
    eigenvectors:
  0.339  0.000  0.661
  0.497  0.250  0.253
  0.165  0.750  0.085
    occupations:
  0.910 -0.042  0.024
 -0.042  0.889  0.023
  0.024  0.023  0.916
N of occupied +U levels =  56.2861826
 --- exit write_ns ---
 --- in v_hubbard ---
Hubbard energy    0.1347
 -------

     total cpu time spent up to now is      233.9 secs

     End of self-consistent calculation

          k = 0.0000 0.0000 0.0000 (  2175 PWs)   bands (ev):

   -19.8011 -19.6279  -6.5506  -5.8457  -5.8457  -5.8269  -5.8269  -5.4866
    -3.7964  -3.2636  -3.2263  -3.2263  -3.0282  -3.0282   5.1890   6.8530
     6.8530   7.4171   7.4171   7.4634   7.5147   7.5147   7.7108   9.2901
     9.4984   9.6154   9.6154   9.6845   9.6845  10.1027  10.1027  10.3510
    10.4556  10.4556  10.6706  11.2873  11.2873  11.7607  12.0553  12.0553
    14.7587  14.7587  15.4238  15.4238  16.1955  16.7828

     occupation numbers 
     0.0313   0.0313   0.0313   0.0313   0.0313   0.0313   0.0313   0.0313
     0.0313   0.0313   0.0313   0.0313   0.0313   0.0313   0.0313   0.0313
     0.0313   0.0313   0.0313   0.0313   0.0313   0.0313   0.0313   0.0313
     0.0312   0.0312   0.0312   0.0312   0.0312   0.0312   0.0312   0.0312
     0.0312   0.0312   0.0312   0.0306   0.0306   0.0204   0.0083   0.0083
     0.0000   0.0000   0.0000   0.0000   0.0000   0.0000

          k =-0.2471-0.1427 0.1027 (  2181 PWs)   bands (ev):

   -19.7744 -19.6575  -6.7293  -6.2942  -5.9504  -5.8560  -5.6176  -5.4853
    -3.6015  -3.3970  -2.9377  -2.9086  -2.8548  -2.7641   5.5473   6.8581
     6.9541   6.9708   7.0142   7.3965   7.4317   7.5142   7.6186   8.4259
     8.4748   9.0642   9.6327   9.7464   9.7695   9.9965  10.3416  10.3514
    10.5261  10.5280  10.6566  11.4454  11.5128  11.5522  12.3139  12.3826
    14.3029  14.3118  15.8122  16.0661  16.9699  17.2637

     occupation numbers 
     0.1875   0.1875   0.1875   0.1875   0.1875   0.1875   0.1875   0.1875
     0.1875   0.1875   0.1875   0.1875   0.1875   0.1875   0.1875   0.1875
     0.1875   0.1875   0.1875   0.1875   0.1875   0.1875   0.1875   0.1875
     0.1875   0.1875   0.1875   0.1875   0.1875   0.1875   0.1875   0.1875
     0.1875   0.1875   0.1875   0.1746   0.1677   0.1626   0.0119   0.0073
     0.0000   0.0000   0.0000   0.0000   0.0000   0.0000

          k = 0.4942 0.2853-0.2053 (  2202 PWs)   bands (ev):

   -19.7177 -19.7172  -6.7289  -6.7170  -5.9675  -5.9646  -5.5284  -5.5266
    -3.3874  -3.3837  -2.7958  -2.7929  -2.5108  -2.5090   6.0303   6.0363
     7.1286   7.1542   7.2010   7.2264   7.4760   7.5101   7.6801   7.7143
     7.8926   7.9307   9.4711   9.4728   9.8600   9.8664  10.2673  10.2759
    10.9193  10.9280  11.0445  11.0546  11.2679  11.2795  13.2835  13.3180
    13.3681  13.4026  16.8295  16.8343  17.1283  17.1313

     occupation numbers 
     0.0938   0.0938   0.0938   0.0938   0.0938   0.0938   0.0938   0.0938
     0.0938   0.0938   0.0938   0.0938   0.0938   0.0938   0.0938   0.0938
     0.0938   0.0938   0.0938   0.0938   0.0938   0.0938   0.0938   0.0938
     0.0938   0.0938   0.0938   0.0938   0.0937   0.0937   0.0937   0.0937
     0.0937   0.0937   0.0936   0.0935   0.0921   0.0919   0.0000   0.0000
     0.0000   0.0000   0.0000   0.0000   0.0000   0.0000

          k =-0.2471 0.1427 0.2053 (  2195 PWs)   bands (ev):

   -19.7685 -19.6639  -6.8560  -6.2381  -6.0704  -5.8360  -5.6609  -5.4686
    -3.4189  -3.2660  -3.1063  -2.8966  -2.8223  -2.5639   5.5760   6.7517
     6.7777   6.8513   7.2020   7.4437   7.4807   7.5063   7.5497   8.5241
     8.5840   8.7818   9.2801   9.6271   9.9262  10.0287  10.0306  10.1422
    10.2690  10.9775  11.1149  11.1296  11.4674  11.5447  11.9583  12.7257
    13.6274  14.7752  15.9886  16.1903  17.0331  17.5350

     occupation numbers 
     0.1875   0.1875   0.1875   0.1875   0.1875   0.1875   0.1875   0.1875
     0.1875   0.1875   0.1875   0.1875   0.1875   0.1875   0.1875   0.1875
     0.1875   0.1875   0.1875   0.1875   0.1875   0.1875   0.1875   0.1875
     0.1875   0.1875   0.1875   0.1875   0.1875   0.1875   0.1875   0.1875
     0.1875   0.1873   0.1867   0.1866   0.1726   0.1636   0.0721   0.0003
     0.0000   0.0000   0.0000   0.0000   0.0000   0.0000

          k = 0.4942 0.5706-0.1027 (  2198 PWs)   bands (ev):

   -19.7330 -19.7020  -6.9588  -6.6489  -6.1333  -5.8966  -5.5181  -5.3907
    -3.3085  -3.2566  -2.8803  -2.7114  -2.5307  -2.3882   5.8780   6.2162
     6.5754   6.9454   7.1575   7.3137   7.4136   7.6143   7.6554   7.8246
     8.1463   8.7532   9.0233   9.2841   9.5956   9.7934   9.9054  10.3383
    10.5710  11.0399  11.1504  11.2249  11.3608  11.4352  12.3053  12.7309
    13.4188  14.3523  16.9007  17.1102  17.3053  18.0112

     occupation numbers 
     0.1875   0.1875   0.1875   0.1875   0.1875   0.1875   0.1875   0.1875
     0.1875   0.1875   0.1875   0.1875   0.1875   0.1875   0.1875   0.1875
     0.1875   0.1875   0.1875   0.1875   0.1875   0.1875   0.1875   0.1875
     0.1875   0.1875   0.1875   0.1875   0.1875   0.1875   0.1875   0.1875
     0.1875   0.1871   0.1864   0.1852   0.1804   0.1754   0.0126   0.0003
     0.0000   0.0000   0.0000   0.0000   0.0000   0.0000

          k = 0.2471 0.4280 0.0000 (  2203 PWs)   bands (ev):

   -19.7437 -19.6907  -6.8495  -6.6428  -6.0538  -5.9849  -5.4449  -5.3765
    -3.5234  -3.2964  -2.8041  -2.7122  -2.5724  -2.5632   5.8690   6.2580
     6.8173   7.0558   7.1476   7.2331   7.4039   7.4735   7.5416   7.9096
     8.1437   8.9123   9.1212   9.3885   9.7518   9.7690  10.0491  10.3437
    10.8814  10.9109  10.9894  11.1751  11.2029  11.5321  12.2278  13.3122
    13.3875  14.1472  16.4316  16.9885  17.4170  17.9219

     occupation numbers 
     0.1875   0.1875   0.1875   0.1875   0.1875   0.1875   0.1875   0.1875
     0.1875   0.1875   0.1875   0.1875   0.1875   0.1875   0.1875   0.1875
     0.1875   0.1875   0.1875   0.1875   0.1875   0.1875   0.1875   0.1875
     0.1875   0.1875   0.1875   0.1875   0.1875   0.1875   0.1875   0.1875
     0.1874   0.1874   0.1873   0.1860   0.1856   0.1653   0.0206   0.0000
     0.0000   0.0000   0.0000   0.0000   0.0000   0.0000

          k = 0.4942-0.2853-0.4107 (  2202 PWs)   bands (ev):

   -19.7354 -19.6996  -7.1709  -6.4562  -6.2416  -5.9735  -5.5340  -5.2997
    -3.1971  -3.1233  -3.0483  -2.6527  -2.4836  -2.2256   5.7840   6.0905
     6.2288   6.8429   7.1464   7.2555   7.5450   7.6427   8.1576   8.2242
     8.2342   8.3082   8.5972   9.4100   9.6705   9.8438  10.0274  10.0630
    10.4225  10.9331  11.1019  11.2625  11.3955  11.5652  11.8870  12.4174
    13.3200  14.7885  17.0384  17.2604  17.5162  17.6073

     occupation numbers 
     0.0938   0.0938   0.0938   0.0938   0.0938   0.0938   0.0938   0.0938
     0.0938   0.0938   0.0938   0.0938   0.0938   0.0938   0.0938   0.0938
     0.0938   0.0938   0.0938   0.0938   0.0938   0.0938   0.0938   0.0938
     0.0938   0.0938   0.0938   0.0938   0.0937   0.0937   0.0937   0.0937
     0.0937   0.0937   0.0934   0.0921   0.0892   0.0804   0.0451   0.0028
     0.0000   0.0000   0.0000   0.0000   0.0000   0.0000

          k = 0.0000 0.0000 0.3080 (  2187 PWs)   bands (ev):

   -19.7741 -19.6579  -6.6175  -5.9847  -5.9358  -5.9358  -5.8468  -5.8468
    -3.2081  -3.1219  -3.1219  -2.9707  -2.9000  -2.9000   5.6077   6.9514
     6.9514   7.1207   7.1264   7.3453   7.3453   7.5522   7.5522   8.6381
     8.6381   9.1396   9.4333   9.5864   9.5864   9.7602  10.1167  10.1167
    10.6525  10.6525  10.8075  11.4805  11.4805  11.5559  12.2883  12.2883
    14.2641  14.2641  15.9070  15.9070  16.8768  17.4771

     occupation numbers 
     0.0625   0.0625   0.0625   0.0625   0.0625   0.0625   0.0625   0.0625
     0.0625   0.0625   0.0625   0.0625   0.0625   0.0625   0.0625   0.0625
     0.0625   0.0625   0.0625   0.0625   0.0625   0.0625   0.0625   0.0625
     0.0625   0.0625   0.0625   0.0625   0.0625   0.0625   0.0625   0.0625
     0.0625   0.0625   0.0625   0.0571   0.0571   0.0540   0.0047   0.0047
     0.0000   0.0000   0.0000   0.0000   0.0000   0.0000

          k = 0.7412 0.4280 0.0000 (  2204 PWs)   bands (ev):

   -19.7432 -19.6914  -6.7351  -6.6066  -6.1484  -5.8352  -5.6891  -5.5536
    -3.1800  -3.0945  -3.0474  -2.6791  -2.6598  -2.5881   5.9088   6.4728
     6.7904   7.0848   7.1622   7.2656   7.3735   7.4678   7.6696   7.8596
     8.1956   8.7886   9.1436   9.4627   9.5653   9.6736   9.8334  10.2128
    10.8759  10.9926  11.0218  11.2432  11.2635  11.4026  12.2298  13.2349
    13.3032  14.1728  16.6845  16.7196  17.5881  17.7900

     occupation numbers 
     0.1875   0.1875   0.1875   0.1875   0.1875   0.1875   0.1875   0.1875
     0.1875   0.1875   0.1875   0.1875   0.1875   0.1875   0.1875   0.1875
     0.1875   0.1875   0.1875   0.1875   0.1875   0.1875   0.1875   0.1875
     0.1875   0.1875   0.1875   0.1875   0.1875   0.1875   0.1875   0.1875
     0.1874   0.1873   0.1872   0.1848   0.1843   0.1779   0.0204   0.0000
     0.0000   0.0000   0.0000   0.0000   0.0000   0.0000

          k = 0.4942 0.2853 0.1027 (  2211 PWs)   bands (ev):

   -19.7334 -19.7016  -6.9751  -6.5461  -6.3257  -5.7047  -5.6273  -5.3656
    -3.3223  -3.1675  -3.0354  -2.6056  -2.5648  -2.3812   5.9100   6.1902
     6.5291   6.9388   7.1942   7.2033   7.4470   7.6072   7.7273   7.8163
     8.1821   8.8328   9.0226   9.3831   9.4546   9.6528   9.9902  10.3313
    10.5980  11.1024  11.2394  11.2463  11.2960  11.3207  12.2595  12.7458
    13.4651  14.3338  16.8813  16.9311  17.5768  17.9234

     occupation numbers 
     0.1875   0.1875   0.1875   0.1875   0.1875   0.1875   0.1875   0.1875
     0.1875   0.1875   0.1875   0.1875   0.1875   0.1875   0.1875   0.1875
     0.1875   0.1875   0.1875   0.1875   0.1875   0.1875   0.1875   0.1875
     0.1875   0.1875   0.1875   0.1875   0.1875   0.1875   0.1875   0.1875
     0.1875   0.1868   0.1849   0.1847   0.1832   0.1823   0.0170   0.0002
     0.0000   0.0000   0.0000   0.0000   0.0000   0.0000

          k = 0.7412-0.4280-0.3080 (  2210 PWs)   bands (ev):

   -19.7331 -19.7021  -6.9117  -6.4548  -6.3037  -5.7995  -5.7666  -5.4925
    -3.0734  -3.0560  -2.9665  -2.7325  -2.6256  -2.4311   5.9773   6.3338
     6.5906   6.9168   7.1818   7.2502   7.4801   7.6292   7.7656   7.8429
     8.1570   8.8368   8.8904   9.4431   9.4970   9.4994   9.6436  10.1841
    10.6815  11.1140  11.2125  11.2362  11.3553  11.3872  12.2183  12.6970
    13.4135  14.3036  17.0558  17.0646  17.5453  17.8993

     occupation numbers 
     0.1875   0.1875   0.1875   0.1875   0.1875   0.1875   0.1875   0.1875
     0.1875   0.1875   0.1875   0.1875   0.1875   0.1875   0.1875   0.1875
     0.1875   0.1875   0.1875   0.1875   0.1875   0.1875   0.1875   0.1875
     0.1875   0.1875   0.1875   0.1875   0.1875   0.1875   0.1875   0.1875
     0.1875   0.1867   0.1854   0.1849   0.1807   0.1789   0.0218   0.0004
     0.0000   0.0000   0.0000   0.0000   0.0000   0.0000

          k = 0.4942-0.5706-0.2053 (  2206 PWs)   bands (ev):

   -19.7178 -19.7178  -6.8891  -6.8802  -6.0382  -6.0366  -5.4347  -5.4336
    -3.1550  -3.1548  -2.8168  -2.8162  -2.3871  -2.3846   6.0478   6.0664
     6.7213   6.7252   7.0629   7.0722   7.3678   7.3725   7.8634   7.9084
     8.7660   8.7706   8.8659   8.8707   9.5144   9.5176  10.0686  10.0692
    10.8888  10.8898  11.1071  11.1105  11.4135  11.4165  12.2755  12.2778
    13.9951  14.0051  17.4229  17.4233  17.8641  17.8665

     occupation numbers 
     0.1875   0.1875   0.1875   0.1875   0.1875   0.1875   0.1875   0.1875
     0.1875   0.1875   0.1875   0.1875   0.1875   0.1875   0.1875   0.1875
     0.1875   0.1875   0.1875   0.1875   0.1875   0.1875   0.1875   0.1875
     0.1875   0.1875   0.1875   0.1875   0.1875   0.1875   0.1875   0.1875
     0.1874   0.1874   0.1868   0.1867   0.1771   0.1769   0.0153   0.0151
     0.0000   0.0000   0.0000   0.0000   0.0000   0.0000

          k = 0.0000 0.0000-0.6160 (  2186 PWs)   bands (ev):

   -19.7179 -19.7174  -6.5169  -6.5020  -5.9456  -5.9456  -5.9440  -5.9440
    -2.8967  -2.8967  -2.8937  -2.8937  -2.7094  -2.7092   6.2621   6.2685
     7.1461   7.1461   7.1734   7.1734   7.5725   7.6070   7.8210   7.8210
     7.8590   7.8590   9.6105   9.6105   9.6162   9.6162   9.6807   9.6907
    11.1031  11.1131  11.1741  11.1741  11.1851  11.1851  13.2241  13.2241
    13.2574  13.2574  17.1135  17.1135  17.1152  17.1152

     occupation numbers 
     0.0313   0.0313   0.0313   0.0313   0.0313   0.0313   0.0313   0.0313
     0.0313   0.0313   0.0313   0.0313   0.0313   0.0313   0.0313   0.0313
     0.0313   0.0313   0.0313   0.0313   0.0313   0.0313   0.0313   0.0313
     0.0313   0.0313   0.0312   0.0312   0.0312   0.0312   0.0312   0.0312
     0.0311   0.0311   0.0310   0.0310   0.0310   0.0310   0.0000   0.0000
     0.0000   0.0000   0.0000   0.0000   0.0000   0.0000

          k = 0.4942-0.5706 0.1027 (  2198 PWs)   bands (ev):

   -19.7330 -19.7020  -6.9595  -6.6486  -6.1333  -5.8940  -5.5197  -5.3913
    -3.3095  -3.2565  -2.8801  -2.7102  -2.5313  -2.3880   5.8749   6.2228
     6.5688   6.9470   7.1638   7.3117   7.4281   7.5951   7.6347   7.8479
     8.1449   8.7597   9.0191   9.2830   9.5930   9.7946   9.9049  10.3398
    10.5705  11.0373  11.1547  11.2240  11.3641  11.4319  12.3052  12.7306
    13.4186  14.3521  16.9025  17.1074  17.3058  18.0116

     occupation numbers 
     0.1875   0.1875   0.1875   0.1875   0.1875   0.1875   0.1875   0.1875
     0.1875   0.1875   0.1875   0.1875   0.1875   0.1875   0.1875   0.1875
     0.1875   0.1875   0.1875   0.1875   0.1875   0.1875   0.1875   0.1875
     0.1875   0.1875   0.1875   0.1875   0.1875   0.1875   0.1875   0.1875
     0.1875   0.1871   0.1863   0.1852   0.1802   0.1757   0.0126   0.0003
     0.0000   0.0000   0.0000   0.0000   0.0000   0.0000

     the Fermi energy is    11.8736 ev

!    total energy              =    -538.18568733 Ry
     Harris-Foulkes estimate   =    -538.18567869 Ry
     estimated scf accuracy    <          2.1E-09 Ry

     The total energy is the sum of the following terms:

     one-electron contribution =     -32.92348361 Ry
     hartree contribution      =      83.66587182 Ry
     xc contribution           =    -199.59789065 Ry
     ewald contribution        =    -389.44315552 Ry
     Hubbard energy            =       0.13471518 Ry
     smearing contrib. (-TS)   =      -0.02174454 Ry

     convergence has been achieved in  12 iterations

     init_run     :      7.42s CPU      7.51s WALL (       1 calls)
     electrons    :    223.67s CPU    225.90s WALL (       1 calls)

     Called by init_run:
     wfcinit      :      0.00s CPU      0.00s WALL (       1 calls)
     potinit      :      0.29s CPU      0.33s WALL (       1 calls)

     Called by electrons:
     c_bands      :    141.73s CPU    142.44s WALL (      12 calls)
     sum_band     :     46.44s CPU     46.75s WALL (      12 calls)
     v_of_rho     :      3.75s CPU      3.76s WALL (      13 calls)
     v_h          :      0.26s CPU      0.26s WALL (      13 calls)
     v_xc         :      3.50s CPU      3.50s WALL (      13 calls)
     newd         :     32.65s CPU     32.66s WALL (      13 calls)
     mix_rho      :      0.45s CPU      0.45s WALL (      12 calls)

     Called by c_bands:
     init_us_2    :      1.54s CPU      1.53s WALL (     336 calls)
     cegterg      :    137.73s CPU    137.94s WALL (     168 calls)

     Called by sum_band:
     sum_band:bec :      0.12s CPU      0.13s WALL (     168 calls)
     addusdens    :     19.20s CPU     19.20s WALL (      12 calls)

     Called by *egterg:
     h_psi        :    104.91s CPU    105.09s WALL (     624 calls)
     s_psi        :      5.54s CPU      5.55s WALL (     624 calls)
     g_psi        :      0.39s CPU      0.40s WALL (     456 calls)
     cdiaghg      :      9.37s CPU      9.36s WALL (     610 calls)
     cegterg:over :      6.34s CPU      6.34s WALL (     456 calls)
     cegterg:upda :      4.28s CPU      4.29s WALL (     456 calls)
     cegterg:last :      2.83s CPU      2.83s WALL (     187 calls)

     Called by h_psi:
     h_psi:vloc   :     86.22s CPU     86.37s WALL (     624 calls)
     h_psi:vnl    :     11.48s CPU     11.49s WALL (     624 calls)
     add_vuspsi   :      5.63s CPU      5.63s WALL (     624 calls)
     vhpsi        :      6.91s CPU      6.92s WALL (     624 calls)

     General routines
     calbec       :     12.19s CPU     12.21s WALL (    1584 calls)
     fft          :      2.77s CPU      2.82s WALL (     203 calls)
     ffts         :      0.07s CPU      0.13s WALL (      25 calls)
     fftw         :     77.30s CPU     77.40s WALL (   46528 calls)
     interpolate  :      0.52s CPU      0.61s WALL (      25 calls)
     davcio       :      0.01s CPU      0.58s WALL (     350 calls)

     Parallel routines
     fft_scatter  :     25.19s CPU     25.41s WALL (   46756 calls)
     Hubbard U routines
     new_ns       :      1.33s CPU      1.59s WALL (      12 calls)
     vhpsi        :      6.91s CPU      6.92s WALL (     624 calls)

     PWSCF        :  3m51.51s CPU     3m53.93s WALL


   This run was terminated on:  14:52:54  11Nov2012            

=------------------------------------------------------------------------------=
