 
Job started on n18 at Sun Nov 11 07:43:26 EST 2012

     Program PWSCF v.5.0.1 starts on 11Nov2012 at  7:43:28 

     This program is part of the open-source Quantum ESPRESSO suite
     for quantum simulation of materials; please cite
         "P. Giannozzi et al., J. Phys.:Condens. Matter 21 395502 (2009);
          URL http://www.quantum-espresso.org", 
     in publications or presentations arising from this work. More details at
     http://www.quantum-espresso.org/quote.php

     Parallel version (MPI), running on     2 processors
     R & G space division:  proc/pool =    2

     Current dimensions of program PWSCF are:
     Max number of different atomic species (ntypx) = 10
     Max number of k-points (npk) =  40000
     Max angular momentum in pseudopotentials (lmaxx) =  3
     Reading input from CoLaO_U0_init.in
               file Co.pbe-nd-rrkjus.UPF: wavefunction(s)  4S 3D renormalized
               file O.pbe-rrkjus.UPF: wavefunction(s)  2S renormalized

     Subspace diagonalization in iterative solution of the eigenvalue problem:
     a serial algorithm will be used


     Parallelization info
     --------------------
     sticks:   dense  smooth     PW     G-vecs:    dense   smooth      PW
     Min        1112     444    131                34808     8786    1448
     Max        1113     445    132                34809     8787    1449
     Sum        2225     889    263                69617    17573    2897


     Title: 
     GGA + U, U = 1D-40, init                                                   


     bravais-lattice index     =            5
     lattice parameter (alat)  =      10.3292  a.u.
     unit-cell volume          =     793.0599 (a.u.)^3
     number of atoms/cell      =           10
     number of atomic types    =            4
     number of electrons       =        76.00
     number of Kohn-Sham states=           46
     kinetic-energy cutoff     =      30.0000  Ry
     charge density cutoff     =     300.0000  Ry
     convergence threshold     =      1.0E-08
     mixing beta               =       0.2000
     number of iterations used =            8  plain     mixing
     Exchange-correlation      =  SLA  PW   PBE  PBE ( 1 4 3 4 0)
     EXX-fraction              =        0.00

     celldm(1)=  10.329242  celldm(2)=   0.000000  celldm(3)=   0.000000
     celldm(4)=   0.488100  celldm(5)=   0.000000  celldm(6)=   0.000000

     crystal axes: (cart. coord. in units of alat)
               a(1) = (   0.505915  -0.292090   0.811624 )  
               a(2) = (   0.000000   0.584180   0.811624 )  
               a(3) = (  -0.505915  -0.292090   0.811624 )  

     reciprocal axes: (cart. coord. in units 2 pi/alat)
               b(1) = (  0.988308 -0.570600  0.410699 )  
               b(2) = (  0.000000  1.141200  0.410699 )  
               b(3) = ( -0.988308 -0.570600  0.410699 )  


     PseudoPot. # 1 for Co read from file:
     /home/mcurnan/dft-course/Project1/example_LaCoO3/Co.pbe-nd-rrkjus.UPF
     MD5 check sum: 3e47a84addf5e975e0edeaeee2a73f59
     Pseudo is Ultrasoft + core correction, Zval =  9.0
     Generated by new atomic code, or converted to UPF format
     Using radial grid of  961 points,  6 beta functions with: 
                l(1) =   0
                l(2) =   0
                l(3) =   1
                l(4) =   1
                l(5) =   2
                l(6) =   2
     Q(r) pseudized with 0 coefficients 


     PseudoPot. # 2 for La read from file:
     /home/mcurnan/dft-course/Project1/example_LaCoO3/La.pbe-nsp-van.UPF
     MD5 check sum: b2f11743f52dde65f77d1302becd7929
     Pseudo is Ultrasoft + core correction, Zval = 11.0
     Generated by new atomic code, or converted to UPF format
     Using radial grid of  907 points,  6 beta functions with: 
                l(1) =   0
                l(2) =   0
                l(3) =   1
                l(4) =   1
                l(5) =   2
                l(6) =   2
     Q(r) pseudized with  6 coefficients,  rinner =    1.200   1.200   1.200
                                                       1.200   1.200

     PseudoPot. # 3 for La read from file:
     /home/mcurnan/dft-course/Project1/example_LaCoO3/La.pbe-nsp-van.UPF
     MD5 check sum: b2f11743f52dde65f77d1302becd7929
     Pseudo is Ultrasoft + core correction, Zval = 11.0
     Generated by new atomic code, or converted to UPF format
     Using radial grid of  907 points,  6 beta functions with: 
                l(1) =   0
                l(2) =   0
                l(3) =   1
                l(4) =   1
                l(5) =   2
                l(6) =   2
     Q(r) pseudized with  6 coefficients,  rinner =    1.200   1.200   1.200
                                                       1.200   1.200

     PseudoPot. # 4 for O  read from file:
     /home/mcurnan/dft-course/Project1/example_LaCoO3/O.pbe-rrkjus.UPF
     MD5 check sum: 390ba29e75625707450f3bd3f0eb6be9
     Pseudo is Ultrasoft, Zval =  6.0
     Generated by new atomic code, or converted to UPF format
     Using radial grid of 1269 points,  4 beta functions with: 
                l(1) =   0
                l(2) =   0
                l(3) =   1
                l(4) =   1
     Q(r) pseudized with 0 coefficients 


     atomic species   valence    mass     pseudopotential
        Co1            9.00     1.00000     Co( 1.00)
        La1           11.00     1.00000     La( 1.00)
        La2           11.00     1.00000     La( 1.00)
        O1             6.00     1.00000     O ( 1.00)
 -----
     simplified LDA+U calculation, Hubbard_lmax = 2
     atomic species  L   Hubbard U  Hubbard alpha
        Co1          2    0.000000    0.000000
        La1          2    0.000000    0.000000
        La2          2    0.000000    0.000000
        O1           1    0.000000    0.000000
 -----

      3 Sym. Ops. (no inversion) found


                                    s                        frac. trans.

      isym =  1     identity                                     

 cryst.   s( 1) = (     1          0          0      )
                  (     0          1          0      )
                  (     0          0          1      )

 cart.    s( 1) = (  1.0000000  0.0000000  0.0000000 )
                  (  0.0000000  1.0000000  0.0000000 )
                  (  0.0000000  0.0000000  1.0000000 )


      isym =  2     120 deg rotation - cryst. axis [0,0,1]       

 cryst.   s( 2) = (     0          1          0      )
                  (     0          0          1      )
                  (     1          0          0      )

 cart.    s( 2) = ( -0.5000000 -0.8660254  0.0000000 )
                  (  0.8660254 -0.5000000  0.0000000 )
                  (  0.0000000  0.0000000  1.0000000 )


      isym =  3     120 deg rotation - cryst. axis [0,0,-1]      

 cryst.   s( 3) = (     0          0          1      )
                  (     1          0          0      )
                  (     0          1          0      )

 cart.    s( 3) = ( -0.5000000  0.8660254  0.0000000 )
                  ( -0.8660254 -0.5000000  0.0000000 )
                  (  0.0000000  0.0000000  1.0000000 )


     point group C_3 (3)    
     there are  3 classes
     the character table:

       E     C3    C3^2 
A      1.00  1.00  1.00
E      1.00 -0.50 -0.50
E*     1.00 -0.50 -0.50
     imaginary part
A      0.00  0.00  0.00
E      0.00  0.87 -0.87
E*     0.00 -0.87  0.87

     the symmetry operations in each class:
     E        1
     C3       2
     C3^2     3

   Cartesian axes

     site n.     atom                  positions (alat units)
         1           Co1 tau(   1) = (   0.0000000   0.0000000   1.8261537  )
         2           Co1 tau(   2) = (   0.0000000   0.0000000   0.6087179  )
         3           La1 tau(   3) = (   0.0000000   0.0000000   0.0000000  )
         4           La2 tau(   4) = (   0.0000000   0.0000000   1.2174358  )
         5           O1  tau(   5) = (   0.2831100  -0.0928263   1.6236536  )
         6           O1  tau(   6) = (  -0.2219449  -0.1987674   1.6236536  )
         7           O1  tau(   7) = (  -0.0611651   0.2915936   1.6236536  )
         8           O1  tau(   8) = (   0.2228050   0.3849164   1.2170300  )
         9           O1  tau(   9) = (   0.2219449  -0.3854130   1.2170300  )
        10           O1  tau(  10) = (  -0.4447499   0.0004966   1.2170300  )

   Crystallographic axes

     site n.     atom                  positions (cryst. coord.)
         1           Co1 tau(   1) = (  0.7500000  0.7500000  0.7500000  )
         2           Co1 tau(   2) = (  0.2500000  0.2500000  0.2500000  )
         3           La1 tau(   3) = (  0.0000000  0.0000000  0.0000000  )
         4           La2 tau(   4) = (  0.5000000  0.5000000  0.5000000  )
         5           O1  tau(   5) = (  0.9996000  0.5609000  0.4400000  )
         6           O1  tau(   6) = (  0.5609000  0.4400000  0.9996000  )
         7           O1  tau(   7) = (  0.4400000  0.9996000  0.5609000  )
         8           O1  tau(   8) = (  0.5004000  0.9391000  0.0600000  )
         9           O1  tau(   9) = (  0.9391000  0.0600000  0.5004000  )
        10           O1  tau(  10) = (  0.0600000  0.5004000  0.9391000  )

     number of k points=    14  gaussian smearing, width (Ry)=  0.0300
                       cart. coord. in units 2pi/alat
        k(    1) = (   0.0000000   0.0000000   0.0000000), wk =   0.0312500
        k(    2) = (  -0.2470771  -0.1426500   0.1026748), wk =   0.1875000
        k(    3) = (   0.4941541   0.2853000  -0.2053496), wk =   0.0937500
        k(    4) = (  -0.2470771   0.1426500   0.2053496), wk =   0.1875000
        k(    5) = (   0.4941541   0.5706001  -0.1026748), wk =   0.1875000
        k(    6) = (   0.2470771   0.4279500   0.0000000), wk =   0.1875000
        k(    7) = (   0.4941541  -0.2853000  -0.4106993), wk =   0.0937500
        k(    8) = (   0.0000000   0.0000000   0.3080244), wk =   0.0625000
        k(    9) = (   0.7412312   0.4279500   0.0000000), wk =   0.1875000
        k(   10) = (   0.4941541   0.2853000   0.1026748), wk =   0.1875000
        k(   11) = (   0.7412312  -0.4279500  -0.3080244), wk =   0.1875000
        k(   12) = (   0.4941541  -0.5706001  -0.2053496), wk =   0.1875000
        k(   13) = (   0.0000000   0.0000000  -0.6160489), wk =   0.0312500
        k(   14) = (   0.4941541  -0.5706001   0.1026748), wk =   0.1875000

                       cryst. coord.
        k(    1) = (   0.0000000   0.0000000   0.0000000), wk =   0.0312500
        k(    2) = (   0.0000000   0.0000000   0.2500000), wk =   0.1875000
        k(    3) = (   0.0000000   0.0000000  -0.5000000), wk =   0.0937500
        k(    4) = (   0.0000000   0.2500000   0.2500000), wk =   0.1875000
        k(    5) = (   0.0000000   0.2500000  -0.5000000), wk =   0.1875000
        k(    6) = (   0.0000000   0.2500000  -0.2500000), wk =   0.1875000
        k(    7) = (   0.0000000  -0.5000000  -0.5000000), wk =   0.0937500
        k(    8) = (   0.2500000   0.2500000   0.2500000), wk =   0.0625000
        k(    9) = (   0.2500000   0.2500000  -0.5000000), wk =   0.1875000
        k(   10) = (   0.2500000   0.2500000  -0.2500000), wk =   0.1875000
        k(   11) = (   0.2500000  -0.5000000  -0.5000000), wk =   0.1875000
        k(   12) = (   0.2500000  -0.5000000  -0.2500000), wk =   0.1875000
        k(   13) = (  -0.5000000  -0.5000000  -0.5000000), wk =   0.0312500
        k(   14) = (   0.5000000  -0.2500000   0.0000000), wk =   0.1875000

     Dense  grid:    69617 G-vectors     FFT dimensions: (  60,  60,  60)

     Smooth grid:    17573 G-vectors     FFT dimensions: (  40,  40,  40)

     Largest allocated arrays     est. size (Mb)     dimensions
        Kohn-Sham Wavefunctions         0.78 Mb     (   1117,   46)
        Atomic wavefunctions            1.06 Mb     (   1117,   62)
        NL pseudopotentials             2.05 Mb     (   1117,  120)
        Each V/rho on FFT grid          1.65 Mb     ( 108000)
        Each G-vector array             0.27 Mb     (  34808)
        G-vector shells                 0.04 Mb     (   4682)
     Largest temporary arrays     est. size (Mb)     dimensions
        Auxiliary wavefunctions         3.14 Mb     (   1117,  184)
        Each subspace H/S matrix        0.52 Mb     ( 184, 184)
        Each <psi_i|beta_j> matrix      0.08 Mb     (    120,   46)
        Arrays for rho mixing          13.18 Mb     ( 108000,   8)

     Check: negative/imaginary core charge=   -0.000028    0.000000

     Initial potential from superposition of free atoms

     starting charge   75.93482, renormalised to   76.00000
 --- in v_hubbard ---
Hubbard energy    0.0000
 -------
     Number of +U iterations with fixed ns =  0
     Starting occupations:
 --- enter write_ns ---
 LDA+U parameters:
U( 1)     =  0.00000000
alpha( 1) =  0.00000000
U( 2)     =  0.00000000
alpha( 2) =  0.00000000
U( 3)     =  0.00000000
alpha( 3) =  0.00000000
U( 4)     =  0.00000000
alpha( 4) =  0.00000000
atom    1   Tr[ns(na)] =   7.00000
    eigenvalues: 
  0.700  0.700  0.700  0.700  0.700
    eigenvectors:
  1.000  0.000  0.000  0.000  0.000
  0.000  1.000  0.000  0.000  0.000
  0.000  0.000  1.000  0.000  0.000
  0.000  0.000  0.000  1.000  0.000
  0.000  0.000  0.000  0.000  1.000
    occupations:
  0.700  0.000  0.000  0.000  0.000
  0.000  0.700  0.000  0.000  0.000
  0.000  0.000  0.700  0.000  0.000
  0.000  0.000  0.000  0.700  0.000
  0.000  0.000  0.000  0.000  0.700
atom    2   Tr[ns(na)] =   7.00000
    eigenvalues: 
  0.700  0.700  0.700  0.700  0.700
    eigenvectors:
  1.000  0.000  0.000  0.000  0.000
  0.000  1.000  0.000  0.000  0.000
  0.000  0.000  1.000  0.000  0.000
  0.000  0.000  0.000  1.000  0.000
  0.000  0.000  0.000  0.000  1.000
    occupations:
  0.700  0.000  0.000  0.000  0.000
  0.000  0.700  0.000  0.000  0.000
  0.000  0.000  0.700  0.000  0.000
  0.000  0.000  0.000  0.700  0.000
  0.000  0.000  0.000  0.000  0.700
atom    3   Tr[ns(na)] =   1.00000
    eigenvalues: 
  0.100  0.100  0.100  0.100  0.100
    eigenvectors:
  1.000  0.000  0.000  0.000  0.000
  0.000  1.000  0.000  0.000  0.000
  0.000  0.000  1.000  0.000  0.000
  0.000  0.000  0.000  1.000  0.000
  0.000  0.000  0.000  0.000  1.000
    occupations:
  0.100  0.000  0.000  0.000  0.000
  0.000  0.100  0.000  0.000  0.000
  0.000  0.000  0.100  0.000  0.000
  0.000  0.000  0.000  0.100  0.000
  0.000  0.000  0.000  0.000  0.100
atom    4   Tr[ns(na)] =   1.00000
    eigenvalues: 
  0.100  0.100  0.100  0.100  0.100
    eigenvectors:
  1.000  0.000  0.000  0.000  0.000
  0.000  1.000  0.000  0.000  0.000
  0.000  0.000  1.000  0.000  0.000
  0.000  0.000  0.000  1.000  0.000
  0.000  0.000  0.000  0.000  1.000
    occupations:
  0.100  0.000  0.000  0.000  0.000
  0.000  0.100  0.000  0.000  0.000
  0.000  0.000  0.100  0.000  0.000
  0.000  0.000  0.000  0.100  0.000
  0.000  0.000  0.000  0.000  0.100
atom    5   Tr[ns(na)] =   4.00000
    eigenvalues: 
  0.667  0.667  0.667
    eigenvectors:
  1.000  0.000  0.000
  0.000  1.000  0.000
  0.000  0.000  1.000
    occupations:
  0.667  0.000  0.000
  0.000  0.667  0.000
  0.000  0.000  0.667
atom    6   Tr[ns(na)] =   4.00000
    eigenvalues: 
  0.667  0.667  0.667
    eigenvectors:
  1.000  0.000  0.000
  0.000  1.000  0.000
  0.000  0.000  1.000
    occupations:
  0.667  0.000  0.000
  0.000  0.667  0.000
  0.000  0.000  0.667
atom    7   Tr[ns(na)] =   4.00000
    eigenvalues: 
  0.667  0.667  0.667
    eigenvectors:
  1.000  0.000  0.000
  0.000  1.000  0.000
  0.000  0.000  1.000
    occupations:
  0.667  0.000  0.000
  0.000  0.667  0.000
  0.000  0.000  0.667
atom    8   Tr[ns(na)] =   4.00000
    eigenvalues: 
  0.667  0.667  0.667
    eigenvectors:
  1.000  0.000  0.000
  0.000  1.000  0.000
  0.000  0.000  1.000
    occupations:
  0.667  0.000  0.000
  0.000  0.667  0.000
  0.000  0.000  0.667
atom    9   Tr[ns(na)] =   4.00000
    eigenvalues: 
  0.667  0.667  0.667
    eigenvectors:
  1.000  0.000  0.000
  0.000  1.000  0.000
  0.000  0.000  1.000
    occupations:
  0.667  0.000  0.000
  0.000  0.667  0.000
  0.000  0.000  0.667
atom   10   Tr[ns(na)] =   4.00000
    eigenvalues: 
  0.667  0.667  0.667
    eigenvectors:
  1.000  0.000  0.000
  0.000  1.000  0.000
  0.000  0.000  1.000
    occupations:
  0.667  0.000  0.000
  0.000  0.667  0.000
  0.000  0.000  0.667
N of occupied +U levels =  40.0000000
 --- exit write_ns ---
 Atomic wfc used for LDA+U Projector are NOT orthogonalized
     Starting wfc are   62 randomized atomic wfcs

     total cpu time spent up to now is       13.3 secs

     per-process dynamical memory:    37.1 Mb

     Self-consistent Calculation

     iteration #  1     ecut=    30.00 Ry     beta=0.20
     Davidson diagonalization with overlap
     ethr =  1.00E-02,  avg # of iterations =  2.0
 --- enter write_ns ---
 LDA+U parameters:
U( 1)     =  0.00000000
alpha( 1) =  0.00000000
U( 2)     =  0.00000000
alpha( 2) =  0.00000000
U( 3)     =  0.00000000
alpha( 3) =  0.00000000
U( 4)     =  0.00000000
alpha( 4) =  0.00000000
atom    1   Tr[ns(na)] =   6.58596
    eigenvalues: 
  0.281  0.281  0.908  0.911  0.911
    eigenvectors:
  0.000  0.000  1.000  0.000  0.000
  0.356  0.293  0.000  0.002  0.349
  0.293  0.356  0.000  0.349  0.002
  0.318  0.034  0.000  0.530  0.119
  0.034  0.318  0.000  0.119  0.530
    occupations:
  0.908  0.000  0.000  0.000  0.000
  0.000  0.503  0.000 -0.149  0.261
  0.000  0.000  0.503  0.261  0.149
  0.000 -0.149  0.261  0.690  0.000
  0.000  0.261  0.149  0.000  0.690
atom    2   Tr[ns(na)] =   6.57662
    eigenvalues: 
  0.279  0.279  0.908  0.911  0.911
    eigenvectors:
  0.000  0.000  1.000  0.000  0.000
  0.649  0.000  0.000  0.268  0.083
  0.000  0.649  0.000  0.083  0.268
  0.084  0.268  0.000  0.474  0.175
  0.268  0.084  0.000  0.175  0.474
    occupations:
  0.908  0.000  0.000  0.000  0.000
  0.000  0.501  0.000  0.149  0.262
  0.000  0.000  0.501  0.262 -0.149
  0.000  0.149  0.262  0.689  0.000
  0.000  0.262 -0.149  0.000  0.689
atom    3   Tr[ns(na)] =   3.61168
    eigenvalues: 
  0.345  0.345  0.365  0.376  0.376
    eigenvectors:
  0.000  0.000  1.000  0.000  0.000
  0.918  0.080  0.000  0.000  0.002
  0.080  0.918  0.000  0.002  0.000
  0.000  0.001  0.000  0.892  0.106
  0.001  0.000  0.000  0.106  0.892
    occupations:
  0.365  0.000  0.000  0.000  0.000
  0.000  0.345  0.000  0.000  0.001
  0.000  0.000  0.345  0.001  0.000
  0.000  0.000  0.001  0.376  0.000
  0.000  0.001  0.000  0.000  0.376
atom    4   Tr[ns(na)] =   3.61154
    eigenvalues: 
  0.345  0.345  0.364  0.376  0.376
    eigenvectors:
  0.000  0.000  1.000  0.000  0.000
  0.918  0.080  0.000  0.000  0.002
  0.080  0.918  0.000  0.002  0.000
  0.000  0.001  0.000  0.893  0.106
  0.001  0.000  0.000  0.106  0.893
    occupations:
  0.364  0.000  0.000  0.000  0.000
  0.000  0.345  0.000  0.000  0.001
  0.000  0.000  0.345  0.001  0.000
  0.000  0.000  0.001  0.376  0.000
  0.000  0.001  0.000  0.000  0.376
atom    5   Tr[ns(na)] =   5.82376
    eigenvalues: 
  0.954  0.977  0.981
    eigenvectors:
  0.318  0.000  0.682
  0.513  0.249  0.238
  0.168  0.751  0.081
    occupations:
  0.972 -0.011  0.006
 -0.011  0.966  0.007
  0.006  0.007  0.974
atom    6   Tr[ns(na)] =   5.82376
    eigenvalues: 
  0.954  0.977  0.981
    eigenvectors:
  0.318  0.000  0.682
  0.509  0.251  0.240
  0.173  0.749  0.078
    occupations:
  0.972  0.011  0.006
  0.011  0.966 -0.007
  0.006 -0.007  0.974
atom    7   Tr[ns(na)] =   5.82376
    eigenvalues: 
  0.954  0.977  0.981
    eigenvectors:
  0.318  0.000  0.682
  0.000  1.000  0.000
  0.682  0.000  0.318
    occupations:
  0.972  0.000 -0.013
  0.000  0.977  0.000
 -0.013  0.000  0.962
atom    8   Tr[ns(na)] =   5.82379
    eigenvalues: 
  0.954  0.977  0.981
    eigenvectors:
  0.318  0.000  0.682
  0.513  0.247  0.240
  0.168  0.753  0.078
    occupations:
  0.972 -0.011  0.006
 -0.011  0.966  0.007
  0.006  0.007  0.974
atom    9   Tr[ns(na)] =   5.82379
    eigenvalues: 
  0.954  0.977  0.981
    eigenvectors:
  0.318  0.000  0.682
  0.509  0.253  0.237
  0.173  0.747  0.081
    occupations:
  0.972  0.011  0.006
  0.011  0.966 -0.007
  0.006 -0.007  0.974
atom   10   Tr[ns(na)] =   5.82379
    eigenvalues: 
  0.954  0.977  0.981
    eigenvectors:
  0.318  0.000  0.682
  0.000  1.000  0.000
  0.682  0.000  0.318
    occupations:
  0.972  0.000 -0.013
  0.000  0.977  0.000
 -0.013  0.000  0.962
N of occupied +U levels =  55.3284690
 --- exit write_ns ---
 --- in v_hubbard ---
Hubbard energy    0.0000
 -------

     total cpu time spent up to now is       31.5 secs

     total energy              =    -537.25484774 Ry
     Harris-Foulkes estimate   =    -539.67252749 Ry
     estimated scf accuracy    <       7.40102991 Ry

     iteration #  2     ecut=    30.00 Ry     beta=0.20
     Davidson diagonalization with overlap
     ethr =  9.74E-03,  avg # of iterations =  2.3
 --- enter write_ns ---
 LDA+U parameters:
U( 1)     =  0.00000000
alpha( 1) =  0.00000000
U( 2)     =  0.00000000
alpha( 2) =  0.00000000
U( 3)     =  0.00000000
alpha( 3) =  0.00000000
U( 4)     =  0.00000000
alpha( 4) =  0.00000000
atom    1   Tr[ns(na)] =   8.18702
    eigenvalues: 
  0.621  0.621  0.950  0.950  0.950
    eigenvectors:
  0.000  0.000  1.000  0.000  0.000
  0.317  0.334  0.000  0.010  0.338
  0.334  0.317  0.000  0.338  0.010
  0.283  0.065  0.000  0.505  0.147
  0.065  0.283  0.000  0.147  0.505
    occupations:
  0.950  0.000  0.000  0.000  0.000
  0.000  0.736  0.000 -0.050  0.149
  0.000  0.000  0.736  0.149  0.050
  0.000 -0.050  0.149  0.836  0.000
  0.000  0.149  0.050  0.000  0.836
atom    2   Tr[ns(na)] =   8.25090
    eigenvalues: 
  0.627  0.627  0.957  0.957  0.957
    eigenvectors:
  0.000  0.000  1.000  0.000  0.000
  0.619  0.033  0.000  0.212  0.136
  0.033  0.619  0.000  0.136  0.212
  0.004  0.344  0.000  0.465  0.187
  0.344  0.004  0.000  0.187  0.465
    occupations:
  0.957  0.000  0.000  0.000  0.000
  0.000  0.742  0.000  0.051  0.149
  0.000  0.000  0.742  0.149 -0.051
  0.000  0.051  0.149  0.842  0.000
  0.000  0.149 -0.051  0.000  0.842
atom    3   Tr[ns(na)] =   3.54706
    eigenvalues: 
  0.330  0.330  0.360  0.377  0.377
    eigenvectors:
  0.000  0.000  1.000  0.000  0.000
  0.736  0.155  0.000  0.017  0.092
  0.155  0.736  0.000  0.092  0.017
  0.020  0.089  0.000  0.747  0.144
  0.089  0.020  0.000  0.144  0.747
    occupations:
  0.360  0.000  0.000  0.000  0.000
  0.000  0.335  0.000  0.000  0.015
  0.000  0.000  0.335  0.015  0.000
  0.000  0.000  0.015  0.372  0.000
  0.000  0.015  0.000  0.000  0.372
atom    4   Tr[ns(na)] =   3.54677
    eigenvalues: 
  0.330  0.330  0.360  0.377  0.377
    eigenvectors:
  0.000  0.000  1.000  0.000  0.000
  0.736  0.155  0.000  0.017  0.092
  0.155  0.736  0.000  0.092  0.017
  0.019  0.089  0.000  0.747  0.144
  0.089  0.019  0.000  0.144  0.747
    occupations:
  0.360  0.000  0.000  0.000  0.000
  0.000  0.335  0.000  0.000  0.014
  0.000  0.000  0.335  0.014  0.000
  0.000  0.000  0.014  0.372  0.000
  0.000  0.014  0.000  0.000  0.372
atom    5   Tr[ns(na)] =   5.42963
    eigenvalues: 
  0.831  0.933  0.951
    eigenvectors:
  0.346  0.000  0.654
  0.489  0.253  0.258
  0.165  0.747  0.088
    occupations:
  0.910 -0.050  0.029
 -0.050  0.888  0.026
  0.029  0.026  0.917
atom    6   Tr[ns(na)] =   5.42963
    eigenvalues: 
  0.831  0.933  0.951
    eigenvectors:
  0.346  0.000  0.654
  0.493  0.247  0.260
  0.162  0.753  0.085
    occupations:
  0.910  0.050  0.029
  0.050  0.887 -0.026
  0.029 -0.026  0.918
atom    7   Tr[ns(na)] =   5.42963
    eigenvalues: 
  0.831  0.933  0.951
    eigenvectors:
  0.346  0.000  0.654
  0.000  1.000  0.000
  0.654  0.000  0.346
    occupations:
  0.910  0.000 -0.057
  0.000  0.933  0.000
 -0.057  0.000  0.873
atom    8   Tr[ns(na)] =   5.42952
    eigenvalues: 
  0.831  0.933  0.951
    eigenvectors:
  0.346  0.000  0.654
  0.489  0.252  0.259
  0.165  0.748  0.087
    occupations:
  0.910 -0.050  0.029
 -0.050  0.888  0.026
  0.029  0.026  0.917
atom    9   Tr[ns(na)] =   5.42952
    eigenvalues: 
  0.831  0.933  0.951
    eigenvectors:
  0.346  0.000  0.654
  0.492  0.248  0.260
  0.162  0.752  0.086
    occupations:
  0.910  0.050  0.029
  0.050  0.887 -0.026
  0.029 -0.026  0.918
atom   10   Tr[ns(na)] =   5.42952
    eigenvalues: 
  0.831  0.933  0.951
    eigenvectors:
  0.346  0.000  0.654
  0.000  1.000  0.000
  0.654  0.000  0.346
    occupations:
  0.910  0.000 -0.057
  0.000  0.933  0.000
 -0.057  0.000  0.873
N of occupied +U levels =  56.1092236
 --- exit write_ns ---
 --- in v_hubbard ---
Hubbard energy    0.0000
 -------

     total cpu time spent up to now is       49.4 secs

     total energy              =    -538.29783722 Ry
     Harris-Foulkes estimate   =    -538.37556660 Ry
     estimated scf accuracy    <       0.35355217 Ry

     iteration #  3     ecut=    30.00 Ry     beta=0.20
     Davidson diagonalization with overlap
     ethr =  4.65E-04,  avg # of iterations =  2.0
 --- enter write_ns ---
 LDA+U parameters:
U( 1)     =  0.00000000
alpha( 1) =  0.00000000
U( 2)     =  0.00000000
alpha( 2) =  0.00000000
U( 3)     =  0.00000000
alpha( 3) =  0.00000000
U( 4)     =  0.00000000
alpha( 4) =  0.00000000
atom    1   Tr[ns(na)] =   8.12758
    eigenvalues: 
  0.588  0.588  0.962  0.962  0.963
    eigenvectors:
  0.000  0.000  0.000  0.000  1.000
  0.334  0.320  0.003  0.343  0.000
  0.320  0.334  0.343  0.003  0.000
  0.292  0.055  0.515  0.138  0.000
  0.055  0.292  0.138  0.515  0.000
    occupations:
  0.963  0.000  0.000  0.000  0.000
  0.000  0.718  0.000 -0.067  0.165
  0.000  0.000  0.718  0.165  0.067
  0.000 -0.067  0.165  0.833  0.000
  0.000  0.165  0.067  0.000  0.833
atom    2   Tr[ns(na)] =   7.83920
    eigenvalues: 
  0.561  0.561  0.931  0.933  0.933
    eigenvectors:
  0.000  0.000  1.000  0.000  0.000
  0.629  0.025  0.000  0.214  0.132
  0.025  0.629  0.000  0.132  0.214
  0.007  0.339  0.000  0.468  0.186
  0.339  0.007  0.000  0.186  0.468
    occupations:
  0.931  0.000  0.000  0.000  0.000
  0.000  0.690  0.000  0.059  0.167
  0.000  0.000  0.690  0.167 -0.059
  0.000  0.059  0.167  0.804  0.000
  0.000  0.167 -0.059  0.000  0.804
atom    3   Tr[ns(na)] =   3.68282
    eigenvalues: 
  0.343  0.343  0.372  0.391  0.391
    eigenvectors:
  0.000  0.000  1.000  0.000  0.000
  0.763  0.146  0.000  0.013  0.078
  0.146  0.763  0.000  0.078  0.013
  0.016  0.075  0.000  0.767  0.142
  0.075  0.016  0.000  0.142  0.767
    occupations:
  0.372  0.000  0.000  0.000  0.000
  0.000  0.348  0.000  0.000  0.014
  0.000  0.000  0.348  0.014  0.000
  0.000  0.000  0.014  0.387  0.000
  0.000  0.014  0.000  0.000  0.387
atom    4   Tr[ns(na)] =   3.68292
    eigenvalues: 
  0.343  0.343  0.372  0.391  0.391
    eigenvectors:
  0.000  0.000  1.000  0.000  0.000
  0.762  0.146  0.000  0.013  0.078
  0.146  0.762  0.000  0.078  0.013
  0.016  0.076  0.000  0.767  0.142
  0.076  0.016  0.000  0.142  0.767
    occupations:
  0.372  0.000  0.000  0.000  0.000
  0.000  0.348  0.000  0.000  0.014
  0.000  0.000  0.348  0.014  0.000
  0.000  0.000  0.014  0.387  0.000
  0.000  0.014  0.000  0.000  0.387
atom    5   Tr[ns(na)] =   5.47248
    eigenvalues: 
  0.850  0.937  0.950
    eigenvectors:
  0.338  0.000  0.662
  0.505  0.240  0.255
  0.157  0.760  0.083
    occupations:
  0.916 -0.041  0.023
 -0.041  0.896  0.023
  0.023  0.023  0.924
atom    6   Tr[ns(na)] =   5.47248
    eigenvalues: 
  0.850  0.937  0.950
    eigenvectors:
  0.338  0.000  0.662
  0.488  0.260  0.253
  0.174  0.740  0.086
    occupations:
  0.916  0.041  0.024
  0.041  0.898 -0.023
  0.024 -0.023  0.923
atom    7   Tr[ns(na)] =   5.47248
    eigenvalues: 
  0.850  0.937  0.950
    eigenvectors:
  0.338  0.000  0.662
  0.000  1.000  0.000
  0.662  0.000  0.338
    occupations:
  0.916  0.001 -0.047
  0.001  0.937  0.001
 -0.047  0.001  0.884
atom    8   Tr[ns(na)] =   5.47250
    eigenvalues: 
  0.850  0.937  0.950
    eigenvectors:
  0.338  0.000  0.662
  0.505  0.240  0.255
  0.157  0.760  0.083
    occupations:
  0.916 -0.041  0.023
 -0.041  0.896  0.023
  0.023  0.023  0.924
atom    9   Tr[ns(na)] =   5.47250
    eigenvalues: 
  0.850  0.937  0.950
    eigenvectors:
  0.338  0.000  0.662
  0.488  0.260  0.252
  0.174  0.740  0.086
    occupations:
  0.916  0.041  0.024
  0.041  0.898 -0.023
  0.024 -0.023  0.923
atom   10   Tr[ns(na)] =   5.47250
    eigenvalues: 
  0.850  0.937  0.950
    eigenvectors:
  0.338  0.000  0.662
  0.000  1.000  0.000
  0.661  0.000  0.338
    occupations:
  0.916  0.001 -0.047
  0.001  0.937  0.001
 -0.047  0.001  0.884
N of occupied +U levels =  56.1674274
 --- exit write_ns ---
 --- in v_hubbard ---
Hubbard energy    0.0000
 -------

     total cpu time spent up to now is       65.3 secs

     total energy              =    -538.31741773 Ry
     Harris-Foulkes estimate   =    -538.35220441 Ry
     estimated scf accuracy    <       0.16618982 Ry

     iteration #  4     ecut=    30.00 Ry     beta=0.20
     Davidson diagonalization with overlap
     ethr =  2.19E-04,  avg # of iterations =  1.9
 --- enter write_ns ---
 LDA+U parameters:
U( 1)     =  0.00000000
alpha( 1) =  0.00000000
U( 2)     =  0.00000000
alpha( 2) =  0.00000000
U( 3)     =  0.00000000
alpha( 3) =  0.00000000
U( 4)     =  0.00000000
alpha( 4) =  0.00000000
atom    1   Tr[ns(na)] =   7.22535
    eigenvalues: 
  0.557  0.557  0.829  0.835  0.835
    eigenvectors:
  0.000  0.000  1.000  0.000  0.000
  0.313  0.342  0.000  0.024  0.321
  0.342  0.313  0.000  0.321  0.024
  0.261  0.084  0.000  0.497  0.158
  0.084  0.261  0.000  0.158  0.497
    occupations:
  0.829  0.000  0.000  0.000  0.000
  0.000  0.653  0.000 -0.033  0.128
  0.000  0.000  0.653  0.128  0.033
  0.000 -0.033  0.128  0.739  0.000
  0.000  0.128  0.033  0.000  0.739
atom    2   Tr[ns(na)] =   8.74496
    eigenvalues: 
  0.704  0.704  0.987  0.987  0.989
    eigenvectors:
  0.000  0.000  0.000  0.000  1.000
  0.648  0.005  0.249  0.097  0.000
  0.005  0.648  0.097  0.249  0.000
  0.045  0.301  0.474  0.179  0.000
  0.301  0.045  0.179  0.474  0.000
    occupations:
  0.989  0.000  0.000  0.000  0.000
  0.000  0.802  0.000  0.060  0.121
  0.000  0.000  0.802  0.121 -0.060
  0.000  0.060  0.121  0.889  0.000
  0.000  0.121 -0.060  0.000  0.889
atom    3   Tr[ns(na)] =   3.75261
    eigenvalues: 
  0.351  0.351  0.379  0.398  0.398
    eigenvectors:
  0.000  0.000  1.000  0.000  0.000
  0.778  0.139  0.000  0.015  0.068
  0.139  0.778  0.000  0.068  0.015
  0.011  0.072  0.000  0.777  0.141
  0.072  0.011  0.000  0.141  0.777
    occupations:
  0.379  0.000  0.000  0.000  0.000
  0.000  0.355  0.000  0.000  0.013
  0.000  0.000  0.355  0.013  0.000
  0.000  0.000  0.013  0.394  0.000
  0.000  0.013  0.000  0.000  0.394
atom    4   Tr[ns(na)] =   3.75262
    eigenvalues: 
  0.351  0.351  0.379  0.398  0.398
    eigenvectors:
  0.000  0.000  1.000  0.000  0.000
  0.777  0.140  0.000  0.015  0.069
  0.140  0.777  0.000  0.069  0.015
  0.011  0.073  0.000  0.776  0.141
  0.073  0.011  0.000  0.141  0.776
    occupations:
  0.379  0.000  0.000  0.000  0.000
  0.000  0.355  0.000  0.000  0.013
  0.000  0.000  0.355  0.013  0.000
  0.000  0.000  0.013  0.394  0.000
  0.000  0.013  0.000  0.000  0.394
atom    5   Tr[ns(na)] =   5.44677
    eigenvalues: 
  0.849  0.932  0.942
    eigenvectors:
  0.341  0.000  0.659
  0.466  0.294  0.240
  0.193  0.706  0.101
    occupations:
  0.911 -0.037  0.024
 -0.037  0.896  0.023
  0.024  0.023  0.917
atom    6   Tr[ns(na)] =   5.44677
    eigenvalues: 
  0.849  0.932  0.942
    eigenvectors:
  0.341  0.000  0.659
  0.521  0.209  0.270
  0.138  0.791  0.071
    occupations:
  0.911  0.039  0.020
  0.039  0.892 -0.021
  0.020 -0.021  0.921
atom    7   Tr[ns(na)] =   5.44677
    eigenvalues: 
  0.849  0.932  0.942
    eigenvectors:
  0.341  0.000  0.659
  0.002  0.998  0.001
  0.657  0.002  0.340
    occupations:
  0.911 -0.002 -0.044
 -0.002  0.932 -0.002
 -0.044 -0.002  0.881
atom    8   Tr[ns(na)] =   5.44682
    eigenvalues: 
  0.849  0.932  0.942
    eigenvectors:
  0.341  0.000  0.659
  0.466  0.293  0.241
  0.193  0.707  0.100
    occupations:
  0.911 -0.037  0.024
 -0.037  0.896  0.023
  0.024  0.023  0.917
atom    9   Tr[ns(na)] =   5.44682
    eigenvalues: 
  0.849  0.932  0.942
    eigenvectors:
  0.341  0.000  0.659
  0.521  0.209  0.270
  0.138  0.791  0.071
    occupations:
  0.911  0.039  0.020
  0.039  0.892 -0.021
  0.020 -0.021  0.921
atom   10   Tr[ns(na)] =   5.44682
    eigenvalues: 
  0.849  0.932  0.942
    eigenvectors:
  0.341  0.000  0.659
  0.002  0.998  0.001
  0.657  0.002  0.340
    occupations:
  0.911 -0.002 -0.044
 -0.002  0.932 -0.002
 -0.044 -0.002  0.881
N of occupied +U levels =  56.1563131
 --- exit write_ns ---
 --- in v_hubbard ---
Hubbard energy    0.0000
 -------

     total cpu time spent up to now is       80.4 secs

     total energy              =    -538.28954504 Ry
     Harris-Foulkes estimate   =    -538.37700085 Ry
     estimated scf accuracy    <       1.25489526 Ry

     iteration #  5     ecut=    30.00 Ry     beta=0.20
     Davidson diagonalization with overlap
     ethr =  2.19E-04,  avg # of iterations =  1.0
 --- enter write_ns ---
 LDA+U parameters:
U( 1)     =  0.00000000
alpha( 1) =  0.00000000
U( 2)     =  0.00000000
alpha( 2) =  0.00000000
U( 3)     =  0.00000000
alpha( 3) =  0.00000000
U( 4)     =  0.00000000
alpha( 4) =  0.00000000
atom    1   Tr[ns(na)] =   8.13767
    eigenvalues: 
  0.607  0.607  0.950  0.952  0.952
    eigenvectors:
  0.000  0.000  1.000  0.000  0.000
  0.334  0.321  0.000  0.004  0.341
  0.321  0.334  0.000  0.341  0.004
  0.288  0.057  0.000  0.515  0.140
  0.057  0.288  0.000  0.140  0.515
    occupations:
  0.950  0.000  0.000  0.000  0.000
  0.000  0.726  0.000 -0.060  0.152
  0.000  0.000  0.726  0.152  0.060
  0.000 -0.060  0.152  0.833  0.000
  0.000  0.152  0.060  0.000  0.833
atom    2   Tr[ns(na)] =   8.05125
    eigenvalues: 
  0.599  0.599  0.941  0.944  0.944
    eigenvectors:
  0.000  0.000  1.000  0.000  0.000
  0.635  0.020  0.000  0.219  0.126
  0.020  0.635  0.000  0.126  0.219
  0.012  0.333  0.000  0.470  0.185
  0.333  0.012  0.000  0.185  0.470
    occupations:
  0.941  0.000  0.000  0.000  0.000
  0.000  0.718  0.000  0.058  0.153
  0.000  0.000  0.718  0.153 -0.058
  0.000  0.058  0.153  0.825  0.000
  0.000  0.153 -0.058  0.000  0.825
atom    3   Tr[ns(na)] =   3.81939
    eigenvalues: 
  0.359  0.359  0.384  0.404  0.404
    eigenvectors:
  0.000  0.000  1.000  0.000  0.000
  0.790  0.136  0.000  0.010  0.063
  0.136  0.790  0.000  0.063  0.010
  0.011  0.062  0.000  0.788  0.139
  0.062  0.011  0.000  0.139  0.788
    occupations:
  0.384  0.000  0.000  0.000  0.000
  0.000  0.362  0.000  0.000  0.012
  0.000  0.000  0.362  0.012  0.000
  0.000  0.000  0.012  0.401  0.000
  0.000  0.012  0.000  0.000  0.401
atom    4   Tr[ns(na)] =   3.81937
    eigenvalues: 
  0.359  0.359  0.384  0.404  0.404
    eigenvectors:
  0.000  0.000  1.000  0.000  0.000
  0.789  0.137  0.000  0.010  0.064
  0.137  0.789  0.000  0.064  0.010
  0.012  0.062  0.000  0.787  0.139
  0.062  0.012  0.000  0.139  0.787
    occupations:
  0.384  0.000  0.000  0.000  0.000
  0.000  0.362  0.000  0.000  0.012
  0.000  0.000  0.362  0.012  0.000
  0.000  0.000  0.012  0.400  0.000
  0.000  0.012  0.000  0.000  0.400
atom    5   Tr[ns(na)] =   5.40735
    eigenvalues: 
  0.838  0.927  0.939
    eigenvectors:
  0.342  0.000  0.658
  0.496  0.247  0.257
  0.162  0.753  0.086
    occupations:
  0.905 -0.042  0.024
 -0.042  0.886  0.023
  0.024  0.023  0.913
atom    6   Tr[ns(na)] =   5.40735
    eigenvalues: 
  0.838  0.927  0.939
    eigenvectors:
  0.342  0.000  0.658
  0.490  0.253  0.257
  0.167  0.747  0.086
    occupations:
  0.905  0.042  0.024
  0.042  0.886 -0.024
  0.024 -0.024  0.913
atom    7   Tr[ns(na)] =   5.40735
    eigenvalues: 
  0.838  0.927  0.939
    eigenvectors:
  0.342  0.000  0.658
  0.000  1.000  0.000
  0.658  0.000  0.342
    occupations:
  0.905  0.000 -0.048
  0.000  0.927  0.000
 -0.048  0.000  0.873
atom    8   Tr[ns(na)] =   5.40738
    eigenvalues: 
  0.838  0.927  0.939
    eigenvectors:
  0.342  0.000  0.658
  0.496  0.247  0.257
  0.162  0.753  0.085
    occupations:
  0.905 -0.042  0.024
 -0.042  0.886  0.023
  0.024  0.023  0.913
atom    9   Tr[ns(na)] =   5.40738
    eigenvalues: 
  0.838  0.927  0.939
    eigenvectors:
  0.342  0.000  0.658
  0.490  0.253  0.257
  0.167  0.747  0.086
    occupations:
  0.905  0.042  0.024
  0.042  0.886 -0.024
  0.024 -0.024  0.913
atom   10   Tr[ns(na)] =   5.40738
    eigenvalues: 
  0.838  0.927  0.939
    eigenvectors:
  0.342  0.000  0.658
  0.000  1.000  0.000
  0.658  0.000  0.342
    occupations:
  0.905  0.000 -0.048
  0.000  0.927  0.000
 -0.048  0.000  0.873
N of occupied +U levels =  56.2718710
 --- exit write_ns ---
 --- in v_hubbard ---
Hubbard energy    0.0000
 -------

     total cpu time spent up to now is       95.3 secs

     total energy              =    -538.31875219 Ry
     Harris-Foulkes estimate   =    -538.33683821 Ry
     estimated scf accuracy    <       0.04344515 Ry

     iteration #  6     ecut=    30.00 Ry     beta=0.20
     Davidson diagonalization with overlap
     ethr =  5.72E-05,  avg # of iterations =  3.2
 --- enter write_ns ---
 LDA+U parameters:
U( 1)     =  0.00000000
alpha( 1) =  0.00000000
U( 2)     =  0.00000000
alpha( 2) =  0.00000000
U( 3)     =  0.00000000
alpha( 3) =  0.00000000
U( 4)     =  0.00000000
alpha( 4) =  0.00000000
atom    1   Tr[ns(na)] =   7.76524
    eigenvalues: 
  0.541  0.541  0.932  0.935  0.935
    eigenvectors:
  0.000  0.000  1.000  0.000  0.000
  0.341  0.315  0.000  0.002  0.343
  0.315  0.341  0.000  0.343  0.002
  0.292  0.053  0.000  0.519  0.136
  0.053  0.292  0.000  0.136  0.519
    occupations:
  0.932  0.000  0.000  0.000  0.000
  0.000  0.676  0.000 -0.074  0.172
  0.000  0.000  0.676  0.172  0.074
  0.000 -0.074  0.172  0.799  0.000
  0.000  0.172  0.074  0.000  0.799
atom    2   Tr[ns(na)] =   7.76785
    eigenvalues: 
  0.540  0.540  0.933  0.936  0.936
    eigenvectors:
  0.000  0.000  1.000  0.000  0.000
  0.646  0.010  0.000  0.230  0.114
  0.010  0.646  0.000  0.114  0.230
  0.026  0.318  0.000  0.473  0.183
  0.318  0.026  0.000  0.183  0.473
    occupations:
  0.933  0.000  0.000  0.000  0.000
  0.000  0.676  0.000  0.073  0.173
  0.000  0.000  0.676  0.173 -0.073
  0.000  0.073  0.173  0.799  0.000
  0.000  0.173 -0.073  0.000  0.799
atom    3   Tr[ns(na)] =   3.75980
    eigenvalues: 
  0.350  0.350  0.380  0.400  0.400
    eigenvectors:
  0.000  0.000  1.000  0.000  0.000
  0.781  0.140  0.000  0.012  0.068
  0.140  0.781  0.000  0.068  0.012
  0.012  0.067  0.000  0.781  0.140
  0.067  0.012  0.000  0.140  0.781
    occupations:
  0.380  0.000  0.000  0.000  0.000
  0.000  0.354  0.000  0.000  0.013
  0.000  0.000  0.354  0.013  0.000
  0.000  0.000  0.013  0.396  0.000
  0.000  0.013  0.000  0.000  0.396
atom    4   Tr[ns(na)] =   3.75980
    eigenvalues: 
  0.350  0.350  0.380  0.400  0.400
    eigenvectors:
  0.000  0.000  1.000  0.000  0.000
  0.781  0.140  0.000  0.012  0.068
  0.140  0.781  0.000  0.068  0.012
  0.012  0.067  0.000  0.781  0.140
  0.067  0.012  0.000  0.140  0.781
    occupations:
  0.380  0.000  0.000  0.000  0.000
  0.000  0.354  0.000  0.000  0.013
  0.000  0.000  0.354  0.013  0.000
  0.000  0.000  0.013  0.396  0.000
  0.000  0.013  0.000  0.000  0.396
atom    5   Tr[ns(na)] =   5.51882
    eigenvalues: 
  0.870  0.940  0.949
    eigenvectors:
  0.332  0.000  0.668
  0.502  0.250  0.249
  0.166  0.750  0.084
    occupations:
  0.923 -0.032  0.018
 -0.032  0.907  0.019
  0.018  0.019  0.929
atom    6   Tr[ns(na)] =   5.51882
    eigenvalues: 
  0.870  0.940  0.949
    eigenvectors:
  0.332  0.000  0.668
  0.500  0.250  0.250
  0.168  0.750  0.083
    occupations:
  0.923  0.032  0.018
  0.032  0.907 -0.019
  0.018 -0.019  0.929
atom    7   Tr[ns(na)] =   5.51882
    eigenvalues: 
  0.870  0.940  0.949
    eigenvectors:
  0.332  0.000  0.668
  0.000  1.000  0.000
  0.668  0.000  0.332
    occupations:
  0.923  0.000 -0.037
  0.000  0.940  0.000
 -0.037  0.000  0.896
atom    8   Tr[ns(na)] =   5.51874
    eigenvalues: 
  0.870  0.940  0.949
    eigenvectors:
  0.332  0.000  0.668
  0.502  0.250  0.249
  0.166  0.750  0.084
    occupations:
  0.923 -0.032  0.018
 -0.032  0.907  0.019
  0.018  0.019  0.929
atom    9   Tr[ns(na)] =   5.51874
    eigenvalues: 
  0.870  0.940  0.949
    eigenvectors:
  0.332  0.000  0.668
  0.500  0.250  0.250
  0.168  0.750  0.083
    occupations:
  0.923  0.032  0.018
  0.032  0.907 -0.019
  0.018 -0.019  0.929
atom   10   Tr[ns(na)] =   5.51874
    eigenvalues: 
  0.870  0.940  0.949
    eigenvectors:
  0.332  0.000  0.668
  0.000  1.000  0.000
  0.668  0.000  0.332
    occupations:
  0.923  0.000 -0.037
  0.000  0.940  0.000
 -0.037  0.000  0.896
N of occupied +U levels =  56.1653772
 --- exit write_ns ---
 --- in v_hubbard ---
Hubbard energy    0.0000
 -------

     total cpu time spent up to now is      114.3 secs

     total energy              =    -538.31507882 Ry
     Harris-Foulkes estimate   =    -538.35827766 Ry
     estimated scf accuracy    <       0.18053876 Ry

     iteration #  7     ecut=    30.00 Ry     beta=0.20
     Davidson diagonalization with overlap
     ethr =  5.72E-05,  avg # of iterations =  2.4
 --- enter write_ns ---
 LDA+U parameters:
U( 1)     =  0.00000000
alpha( 1) =  0.00000000
U( 2)     =  0.00000000
alpha( 2) =  0.00000000
U( 3)     =  0.00000000
alpha( 3) =  0.00000000
U( 4)     =  0.00000000
alpha( 4) =  0.00000000
atom    1   Tr[ns(na)] =   7.99224
    eigenvalues: 
  0.590  0.590  0.936  0.940  0.940
    eigenvectors:
  0.000  0.000  1.000  0.000  0.000
  0.335  0.320  0.000  0.003  0.341
  0.320  0.335  0.000  0.341  0.003
  0.288  0.056  0.000  0.516  0.139
  0.056  0.288  0.000  0.139  0.516
    occupations:
  0.936  0.000  0.000  0.000  0.000
  0.000  0.711  0.000 -0.062  0.154
  0.000  0.000  0.711  0.154  0.062
  0.000 -0.062  0.154  0.819  0.000
  0.000  0.154  0.062  0.000  0.819
atom    2   Tr[ns(na)] =   7.99286
    eigenvalues: 
  0.590  0.590  0.937  0.940  0.940
    eigenvectors:
  0.000  0.000  1.000  0.000  0.000
  0.640  0.015  0.000  0.224  0.121
  0.015  0.640  0.000  0.121  0.224
  0.017  0.328  0.000  0.471  0.184
  0.328  0.017  0.000  0.184  0.471
    occupations:
  0.937  0.000  0.000  0.000  0.000
  0.000  0.711  0.000  0.061  0.155
  0.000  0.000  0.711  0.155 -0.061
  0.000  0.061  0.155  0.819  0.000
  0.000  0.155 -0.061  0.000  0.819
atom    3   Tr[ns(na)] =   3.80108
    eigenvalues: 
  0.355  0.355  0.384  0.403  0.403
    eigenvectors:
  0.000  0.000  1.000  0.000  0.000
  0.785  0.138  0.000  0.011  0.065
  0.138  0.785  0.000  0.065  0.011
  0.012  0.065  0.000  0.784  0.140
  0.065  0.012  0.000  0.140  0.784
    occupations:
  0.384  0.000  0.000  0.000  0.000
  0.000  0.359  0.000  0.000  0.013
  0.000  0.000  0.359  0.013  0.000
  0.000  0.000  0.013  0.399  0.000
  0.000  0.013  0.000  0.000  0.399
atom    4   Tr[ns(na)] =   3.80103
    eigenvalues: 
  0.355  0.355  0.384  0.403  0.403
    eigenvectors:
  0.000  0.000  1.000  0.000  0.000
  0.785  0.138  0.000  0.011  0.066
  0.138  0.785  0.000  0.066  0.011
  0.012  0.065  0.000  0.784  0.140
  0.065  0.012  0.000  0.140  0.784
    occupations:
  0.384  0.000  0.000  0.000  0.000
  0.000  0.359  0.000  0.000  0.013
  0.000  0.000  0.359  0.013  0.000
  0.000  0.000  0.013  0.399  0.000
  0.000  0.013  0.000  0.000  0.399
atom    5   Tr[ns(na)] =   5.44308
    eigenvalues: 
  0.849  0.931  0.942
    eigenvectors:
  0.339  0.000  0.661
  0.496  0.250  0.254
  0.164  0.750  0.085
    occupations:
  0.910 -0.038  0.022
 -0.038  0.893  0.022
  0.022  0.022  0.918
atom    6   Tr[ns(na)] =   5.44308
    eigenvalues: 
  0.849  0.931  0.942
    eigenvectors:
  0.339  0.000  0.661
  0.495  0.250  0.255
  0.166  0.750  0.084
    occupations:
  0.910  0.038  0.022
  0.038  0.893 -0.022
  0.022 -0.022  0.918
atom    7   Tr[ns(na)] =   5.44308
    eigenvalues: 
  0.849  0.931  0.942
    eigenvectors:
  0.339  0.000  0.661
  0.000  1.000  0.000
  0.661  0.000  0.339
    occupations:
  0.910  0.000 -0.044
  0.000  0.931  0.000
 -0.044  0.000  0.880
atom    8   Tr[ns(na)] =   5.44306
    eigenvalues: 
  0.849  0.931  0.942
    eigenvectors:
  0.339  0.000  0.661
  0.496  0.250  0.254
  0.164  0.750  0.085
    occupations:
  0.910 -0.038  0.022
 -0.038  0.893  0.022
  0.022  0.022  0.918
atom    9   Tr[ns(na)] =   5.44306
    eigenvalues: 
  0.849  0.931  0.942
    eigenvectors:
  0.339  0.000  0.661
  0.495  0.250  0.255
  0.166  0.750  0.084
    occupations:
  0.910  0.038  0.022
  0.038  0.893 -0.022
  0.022 -0.022  0.918
atom   10   Tr[ns(na)] =   5.44306
    eigenvalues: 
  0.849  0.931  0.942
    eigenvectors:
  0.339  0.000  0.661
  0.000  1.000  0.000
  0.661  0.000  0.339
    occupations:
  0.910  0.000 -0.044
  0.000  0.931  0.000
 -0.044  0.000  0.880
N of occupied +U levels =  56.2456453
 --- exit write_ns ---
 --- in v_hubbard ---
Hubbard energy    0.0000
 -------

     total cpu time spent up to now is      130.4 secs

     total energy              =    -538.33248515 Ry
     Harris-Foulkes estimate   =    -538.33215357 Ry
     estimated scf accuracy    <       0.00252832 Ry

     iteration #  8     ecut=    30.00 Ry     beta=0.20
     Davidson diagonalization with overlap
     ethr =  3.33E-06,  avg # of iterations =  5.8
 --- enter write_ns ---
 LDA+U parameters:
U( 1)     =  0.00000000
alpha( 1) =  0.00000000
U( 2)     =  0.00000000
alpha( 2) =  0.00000000
U( 3)     =  0.00000000
alpha( 3) =  0.00000000
U( 4)     =  0.00000000
alpha( 4) =  0.00000000
atom    1   Tr[ns(na)] =   7.99795
    eigenvalues: 
  0.591  0.591  0.937  0.940  0.940
    eigenvectors:
  0.000  0.000  1.000  0.000  0.000
  0.334  0.321  0.000  0.004  0.342
  0.321  0.334  0.000  0.342  0.004
  0.289  0.056  0.000  0.515  0.140
  0.056  0.289  0.000  0.140  0.515
    occupations:
  0.937  0.000  0.000  0.000  0.000
  0.000  0.711  0.000 -0.062  0.154
  0.000  0.000  0.711  0.154  0.062
  0.000 -0.062  0.154  0.820  0.000
  0.000  0.154  0.062  0.000  0.820
atom    2   Tr[ns(na)] =   7.99738
    eigenvalues: 
  0.590  0.590  0.938  0.941  0.941
    eigenvectors:
  0.000  0.000  1.000  0.000  0.000
  0.639  0.016  0.000  0.223  0.122
  0.016  0.639  0.000  0.122  0.223
  0.016  0.329  0.000  0.471  0.184
  0.329  0.016  0.000  0.184  0.471
    occupations:
  0.938  0.000  0.000  0.000  0.000
  0.000  0.711  0.000  0.061  0.155
  0.000  0.000  0.711  0.155 -0.061
  0.000  0.061  0.155  0.820  0.000
  0.000  0.155 -0.061  0.000  0.820
atom    3   Tr[ns(na)] =   3.79978
    eigenvalues: 
  0.355  0.355  0.384  0.403  0.403
    eigenvectors:
  0.000  0.000  1.000  0.000  0.000
  0.782  0.139  0.000  0.011  0.067
  0.139  0.782  0.000  0.067  0.011
  0.012  0.066  0.000  0.781  0.140
  0.066  0.012  0.000  0.140  0.781
    occupations:
  0.384  0.000  0.000  0.000  0.000
  0.000  0.359  0.000  0.000  0.013
  0.000  0.000  0.359  0.013  0.000
  0.000  0.000  0.013  0.399  0.000
  0.000  0.013  0.000  0.000  0.399
atom    4   Tr[ns(na)] =   3.79980
    eigenvalues: 
  0.355  0.355  0.384  0.403  0.403
    eigenvectors:
  0.000  0.000  1.000  0.000  0.000
  0.782  0.139  0.000  0.011  0.067
  0.139  0.782  0.000  0.067  0.011
  0.012  0.066  0.000  0.781  0.140
  0.066  0.012  0.000  0.140  0.781
    occupations:
  0.384  0.000  0.000  0.000  0.000
  0.000  0.359  0.000  0.000  0.013
  0.000  0.000  0.359  0.013  0.000
  0.000  0.000  0.013  0.399  0.000
  0.000  0.013  0.000  0.000  0.399
atom    5   Tr[ns(na)] =   5.44173
    eigenvalues: 
  0.849  0.931  0.942
    eigenvectors:
  0.339  0.000  0.661
  0.496  0.250  0.254
  0.164  0.750  0.085
    occupations:
  0.910 -0.038  0.022
 -0.038  0.893  0.022
  0.022  0.022  0.918
atom    6   Tr[ns(na)] =   5.44173
    eigenvalues: 
  0.849  0.931  0.942
    eigenvectors:
  0.339  0.000  0.661
  0.495  0.250  0.255
  0.166  0.750  0.084
    occupations:
  0.910  0.038  0.022
  0.038  0.893 -0.022
  0.022 -0.022  0.918
atom    7   Tr[ns(na)] =   5.44173
    eigenvalues: 
  0.849  0.931  0.942
    eigenvectors:
  0.339  0.000  0.661
  0.000  1.000  0.000
  0.661  0.000  0.339
    occupations:
  0.910  0.000 -0.044
  0.000  0.931  0.000
 -0.044  0.000  0.880
atom    8   Tr[ns(na)] =   5.44173
    eigenvalues: 
  0.849  0.931  0.942
    eigenvectors:
  0.339  0.000  0.661
  0.496  0.250  0.254
  0.164  0.750  0.085
    occupations:
  0.910 -0.038  0.022
 -0.038  0.893  0.022
  0.022  0.022  0.918
atom    9   Tr[ns(na)] =   5.44173
    eigenvalues: 
  0.849  0.931  0.942
    eigenvectors:
  0.339  0.000  0.661
  0.495  0.250  0.255
  0.166  0.750  0.084
    occupations:
  0.910  0.038  0.022
  0.038  0.893 -0.022
  0.022 -0.022  0.918
atom   10   Tr[ns(na)] =   5.44173
    eigenvalues: 
  0.849  0.931  0.942
    eigenvectors:
  0.339  0.000  0.661
  0.000  1.000  0.000
  0.661  0.000  0.339
    occupations:
  0.910  0.000 -0.044
  0.000  0.931  0.000
 -0.044  0.000  0.880
N of occupied +U levels =  56.2452781
 --- exit write_ns ---
 --- in v_hubbard ---
Hubbard energy    0.0000
 -------

     total cpu time spent up to now is      146.7 secs

     total energy              =    -538.33245565 Ry
     Harris-Foulkes estimate   =    -538.33265350 Ry
     estimated scf accuracy    <       0.00176447 Ry

     iteration #  9     ecut=    30.00 Ry     beta=0.20
     Davidson diagonalization with overlap
     ethr =  2.32E-06,  avg # of iterations =  1.6
 --- enter write_ns ---
 LDA+U parameters:
U( 1)     =  0.00000000
alpha( 1) =  0.00000000
U( 2)     =  0.00000000
alpha( 2) =  0.00000000
U( 3)     =  0.00000000
alpha( 3) =  0.00000000
U( 4)     =  0.00000000
alpha( 4) =  0.00000000
atom    1   Tr[ns(na)] =   8.02053
    eigenvalues: 
  0.596  0.596  0.938  0.941  0.941
    eigenvectors:
  0.000  0.000  1.000  0.000  0.000
  0.333  0.321  0.000  0.004  0.342
  0.321  0.333  0.000  0.342  0.004
  0.288  0.057  0.000  0.515  0.140
  0.057  0.288  0.000  0.140  0.515
    occupations:
  0.938  0.000  0.000  0.000  0.000
  0.000  0.715  0.000 -0.060  0.153
  0.000  0.000  0.715  0.153  0.060
  0.000 -0.060  0.153  0.821  0.000
  0.000  0.153  0.060  0.000  0.821
atom    2   Tr[ns(na)] =   8.02006
    eigenvalues: 
  0.595  0.595  0.938  0.941  0.941
    eigenvectors:
  0.000  0.000  1.000  0.000  0.000
  0.638  0.017  0.000  0.223  0.123
  0.017  0.638  0.000  0.123  0.223
  0.015  0.330  0.000  0.470  0.184
  0.330  0.015  0.000  0.184  0.470
    occupations:
  0.938  0.000  0.000  0.000  0.000
  0.000  0.714  0.000  0.060  0.153
  0.000  0.000  0.714  0.153 -0.060
  0.000  0.060  0.153  0.822  0.000
  0.000  0.153 -0.060  0.000  0.822
atom    3   Tr[ns(na)] =   3.79842
    eigenvalues: 
  0.355  0.355  0.384  0.403  0.403
    eigenvectors:
  0.000  0.000  1.000  0.000  0.000
  0.781  0.140  0.000  0.012  0.068
  0.140  0.781  0.000  0.068  0.012
  0.013  0.067  0.000  0.780  0.140
  0.067  0.013  0.000  0.140  0.780
    occupations:
  0.384  0.000  0.000  0.000  0.000
  0.000  0.359  0.000  0.000  0.013
  0.000  0.000  0.359  0.013  0.000
  0.000  0.000  0.013  0.399  0.000
  0.000  0.013  0.000  0.000  0.399
atom    4   Tr[ns(na)] =   3.79844
    eigenvalues: 
  0.355  0.355  0.384  0.403  0.403
    eigenvectors:
  0.000  0.000  1.000  0.000  0.000
  0.781  0.139  0.000  0.012  0.068
  0.139  0.781  0.000  0.068  0.012
  0.013  0.067  0.000  0.780  0.140
  0.067  0.013  0.000  0.140  0.780
    occupations:
  0.384  0.000  0.000  0.000  0.000
  0.000  0.359  0.000  0.000  0.013
  0.000  0.000  0.359  0.013  0.000
  0.000  0.000  0.013  0.399  0.000
  0.000  0.013  0.000  0.000  0.399
atom    5   Tr[ns(na)] =   5.43513
    eigenvalues: 
  0.847  0.930  0.941
    eigenvectors:
  0.340  0.000  0.660
  0.496  0.250  0.255
  0.164  0.750  0.085
    occupations:
  0.909 -0.039  0.022
 -0.039  0.891  0.022
  0.022  0.022  0.917
atom    6   Tr[ns(na)] =   5.43513
    eigenvalues: 
  0.847  0.930  0.941
    eigenvectors:
  0.340  0.000  0.660
  0.494  0.250  0.256
  0.166  0.750  0.085
    occupations:
  0.909  0.039  0.022
  0.039  0.892 -0.022
  0.022 -0.022  0.917
atom    7   Tr[ns(na)] =   5.43513
    eigenvalues: 
  0.847  0.930  0.941
    eigenvectors:
  0.340  0.000  0.660
  0.000  1.000  0.000
  0.660  0.000  0.340
    occupations:
  0.909  0.000 -0.045
  0.000  0.930  0.000
 -0.045  0.000  0.879
atom    8   Tr[ns(na)] =   5.43513
    eigenvalues: 
  0.847  0.930  0.941
    eigenvectors:
  0.340  0.000  0.660
  0.496  0.250  0.255
  0.164  0.750  0.085
    occupations:
  0.909 -0.039  0.022
 -0.039  0.891  0.022
  0.022  0.022  0.917
atom    9   Tr[ns(na)] =   5.43513
    eigenvalues: 
  0.847  0.930  0.941
    eigenvectors:
  0.340  0.000  0.660
  0.494  0.250  0.256
  0.166  0.750  0.085
    occupations:
  0.909  0.039  0.022
  0.039  0.892 -0.022
  0.022 -0.022  0.917
atom   10   Tr[ns(na)] =   5.43513
    eigenvalues: 
  0.847  0.930  0.941
    eigenvectors:
  0.340  0.000  0.660
  0.000  1.000  0.000
  0.660  0.000  0.340
    occupations:
  0.909  0.000 -0.045
  0.000  0.930  0.000
 -0.045  0.000  0.879
N of occupied +U levels =  56.2482335
 --- exit write_ns ---
 --- in v_hubbard ---
Hubbard energy    0.0000
 -------

     total cpu time spent up to now is      162.4 secs

     total energy              =    -538.33275884 Ry
     Harris-Foulkes estimate   =    -538.33263034 Ry
     estimated scf accuracy    <       0.00007465 Ry

     iteration # 10     ecut=    30.00 Ry     beta=0.20
     Davidson diagonalization with overlap
     ethr =  9.82E-08,  avg # of iterations =  3.1
 --- enter write_ns ---
 LDA+U parameters:
U( 1)     =  0.00000000
alpha( 1) =  0.00000000
U( 2)     =  0.00000000
alpha( 2) =  0.00000000
U( 3)     =  0.00000000
alpha( 3) =  0.00000000
U( 4)     =  0.00000000
alpha( 4) =  0.00000000
atom    1   Tr[ns(na)] =   8.02054
    eigenvalues: 
  0.595  0.595  0.938  0.941  0.941
    eigenvectors:
  0.000  0.000  1.000  0.000  0.000
  0.333  0.321  0.000  0.004  0.342
  0.321  0.333  0.000  0.342  0.004
  0.288  0.057  0.000  0.515  0.140
  0.057  0.288  0.000  0.140  0.515
    occupations:
  0.938  0.000  0.000  0.000  0.000
  0.000  0.715  0.000 -0.060  0.153
  0.000  0.000  0.715  0.153  0.060
  0.000 -0.060  0.153  0.822  0.000
  0.000  0.153  0.060  0.000  0.822
atom    2   Tr[ns(na)] =   8.01991
    eigenvalues: 
  0.595  0.595  0.938  0.941  0.941
    eigenvectors:
  0.000  0.000  1.000  0.000  0.000
  0.638  0.016  0.000  0.223  0.122
  0.016  0.638  0.000  0.122  0.223
  0.016  0.330  0.000  0.470  0.184
  0.330  0.016  0.000  0.184  0.470
    occupations:
  0.938  0.000  0.000  0.000  0.000
  0.000  0.714  0.000  0.060  0.153
  0.000  0.000  0.714  0.153 -0.060
  0.000  0.060  0.153  0.822  0.000
  0.000  0.153 -0.060  0.000  0.822
atom    3   Tr[ns(na)] =   3.80293
    eigenvalues: 
  0.355  0.355  0.384  0.403  0.403
    eigenvectors:
  0.000  0.000  1.000  0.000  0.000
  0.781  0.139  0.000  0.012  0.068
  0.139  0.781  0.000  0.068  0.012
  0.013  0.067  0.000  0.780  0.140
  0.067  0.013  0.000  0.140  0.780
    occupations:
  0.384  0.000  0.000  0.000  0.000
  0.000  0.359  0.000  0.000  0.013
  0.000  0.000  0.359  0.013  0.000
  0.000  0.000  0.013  0.399  0.000
  0.000  0.013  0.000  0.000  0.399
atom    4   Tr[ns(na)] =   3.80293
    eigenvalues: 
  0.355  0.355  0.384  0.403  0.403
    eigenvectors:
  0.000  0.000  1.000  0.000  0.000
  0.781  0.140  0.000  0.012  0.068
  0.140  0.781  0.000  0.068  0.012
  0.013  0.067  0.000  0.780  0.140
  0.067  0.013  0.000  0.140  0.780
    occupations:
  0.384  0.000  0.000  0.000  0.000
  0.000  0.359  0.000  0.000  0.013
  0.000  0.000  0.359  0.013  0.000
  0.000  0.000  0.013  0.399  0.000
  0.000  0.013  0.000  0.000  0.399
atom    5   Tr[ns(na)] =   5.43402
    eigenvalues: 
  0.846  0.929  0.941
    eigenvectors:
  0.340  0.000  0.660
  0.496  0.250  0.255
  0.164  0.750  0.085
    occupations:
  0.909 -0.039  0.022
 -0.039  0.891  0.022
  0.022  0.022  0.917
atom    6   Tr[ns(na)] =   5.43402
    eigenvalues: 
  0.846  0.929  0.941
    eigenvectors:
  0.340  0.000  0.660
  0.494  0.250  0.256
  0.166  0.750  0.085
    occupations:
  0.909  0.039  0.022
  0.039  0.891 -0.022
  0.022 -0.022  0.917
atom    7   Tr[ns(na)] =   5.43402
    eigenvalues: 
  0.846  0.929  0.941
    eigenvectors:
  0.340  0.000  0.660
  0.000  1.000  0.000
  0.660  0.000  0.340
    occupations:
  0.909  0.000 -0.045
  0.000  0.929  0.000
 -0.045  0.000  0.879
atom    8   Tr[ns(na)] =   5.43401
    eigenvalues: 
  0.846  0.929  0.941
    eigenvectors:
  0.340  0.000  0.660
  0.496  0.250  0.255
  0.164  0.750  0.085
    occupations:
  0.909 -0.039  0.022
 -0.039  0.891  0.022
  0.022  0.022  0.917
atom    9   Tr[ns(na)] =   5.43401
    eigenvalues: 
  0.846  0.929  0.941
    eigenvectors:
  0.340  0.000  0.660
  0.494  0.250  0.256
  0.166  0.750  0.085
    occupations:
  0.909  0.039  0.022
  0.039  0.891 -0.022
  0.022 -0.022  0.917
atom   10   Tr[ns(na)] =   5.43401
    eigenvalues: 
  0.846  0.929  0.941
    eigenvectors:
  0.340  0.000  0.660
  0.000  1.000  0.000
  0.660  0.000  0.340
    occupations:
  0.909  0.000 -0.045
  0.000  0.929  0.000
 -0.045  0.000  0.879
N of occupied +U levels =  56.2503992
 --- exit write_ns ---
 --- in v_hubbard ---
Hubbard energy    0.0000
 -------

     total cpu time spent up to now is      181.6 secs

     total energy              =    -538.33287680 Ry
     Harris-Foulkes estimate   =    -538.33278181 Ry
     estimated scf accuracy    <       0.00000911 Ry

     iteration # 11     ecut=    30.00 Ry     beta=0.20
     Davidson diagonalization with overlap
     ethr =  1.20E-08,  avg # of iterations =  2.1
 --- enter write_ns ---
 LDA+U parameters:
U( 1)     =  0.00000000
alpha( 1) =  0.00000000
U( 2)     =  0.00000000
alpha( 2) =  0.00000000
U( 3)     =  0.00000000
alpha( 3) =  0.00000000
U( 4)     =  0.00000000
alpha( 4) =  0.00000000
atom    1   Tr[ns(na)] =   8.02225
    eigenvalues: 
  0.596  0.596  0.938  0.941  0.941
    eigenvectors:
  0.000  0.000  1.000  0.000  0.000
  0.333  0.321  0.000  0.004  0.341
  0.321  0.333  0.000  0.341  0.004
  0.288  0.057  0.000  0.515  0.140
  0.057  0.288  0.000  0.140  0.515
    occupations:
  0.938  0.000  0.000  0.000  0.000
  0.000  0.715  0.000 -0.060  0.152
  0.000  0.000  0.715  0.152  0.060
  0.000 -0.060  0.152  0.822  0.000
  0.000  0.152  0.060  0.000  0.822
atom    2   Tr[ns(na)] =   8.02185
    eigenvalues: 
  0.595  0.595  0.938  0.941  0.941
    eigenvectors:
  0.000  0.000  1.000  0.000  0.000
  0.639  0.016  0.000  0.223  0.123
  0.016  0.639  0.000  0.123  0.223
  0.016  0.329  0.000  0.471  0.184
  0.329  0.016  0.000  0.184  0.471
    occupations:
  0.938  0.000  0.000  0.000  0.000
  0.000  0.715  0.000  0.060  0.153
  0.000  0.000  0.715  0.153 -0.060
  0.000  0.060  0.153  0.822  0.000
  0.000  0.153 -0.060  0.000  0.822
atom    3   Tr[ns(na)] =   3.80255
    eigenvalues: 
  0.355  0.355  0.384  0.403  0.403
    eigenvectors:
  0.000  0.000  1.000  0.000  0.000
  0.781  0.139  0.000  0.012  0.068
  0.139  0.781  0.000  0.068  0.012
  0.013  0.067  0.000  0.780  0.140
  0.067  0.013  0.000  0.140  0.780
    occupations:
  0.384  0.000  0.000  0.000  0.000
  0.000  0.359  0.000  0.000  0.013
  0.000  0.000  0.359  0.013  0.000
  0.000  0.000  0.013  0.399  0.000
  0.000  0.013  0.000  0.000  0.399
atom    4   Tr[ns(na)] =   3.80255
    eigenvalues: 
  0.355  0.355  0.384  0.403  0.403
    eigenvectors:
  0.000  0.000  1.000  0.000  0.000
  0.781  0.140  0.000  0.012  0.068
  0.140  0.781  0.000  0.068  0.012
  0.013  0.067  0.000  0.780  0.140
  0.067  0.013  0.000  0.140  0.780
    occupations:
  0.384  0.000  0.000  0.000  0.000
  0.000  0.359  0.000  0.000  0.013
  0.000  0.000  0.359  0.013  0.000
  0.000  0.000  0.013  0.399  0.000
  0.000  0.013  0.000  0.000  0.399
atom    5   Tr[ns(na)] =   5.43355
    eigenvalues: 
  0.846  0.929  0.941
    eigenvectors:
  0.340  0.000  0.660
  0.496  0.250  0.255
  0.164  0.750  0.086
    occupations:
  0.909 -0.039  0.022
 -0.039  0.891  0.022
  0.022  0.022  0.917
atom    6   Tr[ns(na)] =   5.43355
    eigenvalues: 
  0.846  0.929  0.941
    eigenvectors:
  0.340  0.000  0.660
  0.494  0.250  0.256
  0.166  0.750  0.085
    occupations:
  0.909  0.039  0.022
  0.039  0.891 -0.022
  0.022 -0.022  0.917
atom    7   Tr[ns(na)] =   5.43355
    eigenvalues: 
  0.846  0.929  0.941
    eigenvectors:
  0.340  0.000  0.660
  0.000  1.000  0.000
  0.660  0.000  0.340
    occupations:
  0.909  0.000 -0.045
  0.000  0.929  0.000
 -0.045  0.000  0.879
atom    8   Tr[ns(na)] =   5.43355
    eigenvalues: 
  0.846  0.929  0.941
    eigenvectors:
  0.340  0.000  0.660
  0.496  0.250  0.255
  0.164  0.750  0.086
    occupations:
  0.909 -0.039  0.022
 -0.039  0.891  0.022
  0.022  0.022  0.917
atom    9   Tr[ns(na)] =   5.43355
    eigenvalues: 
  0.846  0.929  0.941
    eigenvectors:
  0.340  0.000  0.660
  0.494  0.250  0.256
  0.166  0.750  0.085
    occupations:
  0.909  0.039  0.022
  0.039  0.891 -0.022
  0.022 -0.022  0.917
atom   10   Tr[ns(na)] =   5.43355
    eigenvalues: 
  0.846  0.929  0.941
    eigenvectors:
  0.340  0.000  0.660
  0.000  1.000  0.000
  0.660  0.000  0.340
    occupations:
  0.909  0.000 -0.045
  0.000  0.929  0.000
 -0.045  0.000  0.879
N of occupied +U levels =  56.2504956
 --- exit write_ns ---
 --- in v_hubbard ---
Hubbard energy    0.0000
 -------

     total cpu time spent up to now is      197.9 secs

     total energy              =    -538.33294016 Ry
     Harris-Foulkes estimate   =    -538.33287812 Ry
     estimated scf accuracy    <       0.00000137 Ry

     iteration # 12     ecut=    30.00 Ry     beta=0.20
     Davidson diagonalization with overlap
     ethr =  1.80E-09,  avg # of iterations =  2.1
 --- enter write_ns ---
 LDA+U parameters:
U( 1)     =  0.00000000
alpha( 1) =  0.00000000
U( 2)     =  0.00000000
alpha( 2) =  0.00000000
U( 3)     =  0.00000000
alpha( 3) =  0.00000000
U( 4)     =  0.00000000
alpha( 4) =  0.00000000
atom    1   Tr[ns(na)] =   8.02151
    eigenvalues: 
  0.596  0.596  0.938  0.941  0.941
    eigenvectors:
  0.000  0.000  1.000  0.000  0.000
  0.334  0.321  0.000  0.004  0.341
  0.321  0.334  0.000  0.341  0.004
  0.288  0.057  0.000  0.515  0.140
  0.057  0.288  0.000  0.140  0.515
    occupations:
  0.938  0.000  0.000  0.000  0.000
  0.000  0.715  0.000 -0.060  0.153
  0.000  0.000  0.715  0.153  0.060
  0.000 -0.060  0.153  0.822  0.000
  0.000  0.153  0.060  0.000  0.822
atom    2   Tr[ns(na)] =   8.02076
    eigenvalues: 
  0.595  0.595  0.938  0.941  0.941
    eigenvectors:
  0.000  0.000  1.000  0.000  0.000
  0.638  0.017  0.000  0.223  0.122
  0.017  0.638  0.000  0.122  0.223
  0.015  0.330  0.000  0.470  0.184
  0.330  0.015  0.000  0.184  0.470
    occupations:
  0.938  0.000  0.000  0.000  0.000
  0.000  0.714  0.000  0.060  0.153
  0.000  0.000  0.714  0.153 -0.060
  0.000  0.060  0.153  0.822  0.000
  0.000  0.153 -0.060  0.000  0.822
atom    3   Tr[ns(na)] =   3.80280
    eigenvalues: 
  0.355  0.355  0.384  0.403  0.403
    eigenvectors:
  0.000  0.000  1.000  0.000  0.000
  0.781  0.139  0.000  0.012  0.068
  0.139  0.781  0.000  0.068  0.012
  0.013  0.067  0.000  0.780  0.140
  0.067  0.013  0.000  0.140  0.780
    occupations:
  0.384  0.000  0.000  0.000  0.000
  0.000  0.359  0.000  0.000  0.013
  0.000  0.000  0.359  0.013  0.000
  0.000  0.000  0.013  0.399  0.000
  0.000  0.013  0.000  0.000  0.399
atom    4   Tr[ns(na)] =   3.80280
    eigenvalues: 
  0.355  0.355  0.384  0.403  0.403
    eigenvectors:
  0.000  0.000  1.000  0.000  0.000
  0.781  0.139  0.000  0.012  0.068
  0.139  0.781  0.000  0.068  0.012
  0.013  0.067  0.000  0.780  0.140
  0.067  0.013  0.000  0.140  0.780
    occupations:
  0.384  0.000  0.000  0.000  0.000
  0.000  0.359  0.000  0.000  0.013
  0.000  0.000  0.359  0.013  0.000
  0.000  0.000  0.013  0.399  0.000
  0.000  0.013  0.000  0.000  0.399
atom    5   Tr[ns(na)] =   5.43377
    eigenvalues: 
  0.846  0.929  0.941
    eigenvectors:
  0.340  0.000  0.660
  0.496  0.250  0.255
  0.164  0.750  0.086
    occupations:
  0.909 -0.039  0.022
 -0.039  0.891  0.022
  0.022  0.022  0.917
atom    6   Tr[ns(na)] =   5.43377
    eigenvalues: 
  0.846  0.929  0.941
    eigenvectors:
  0.340  0.000  0.660
  0.494  0.250  0.256
  0.166  0.750  0.085
    occupations:
  0.909  0.039  0.022
  0.039  0.891 -0.022
  0.022 -0.022  0.917
atom    7   Tr[ns(na)] =   5.43377
    eigenvalues: 
  0.846  0.929  0.941
    eigenvectors:
  0.340  0.000  0.660
  0.000  1.000  0.000
  0.660  0.000  0.340
    occupations:
  0.909  0.000 -0.045
  0.000  0.929  0.000
 -0.045  0.000  0.879
atom    8   Tr[ns(na)] =   5.43377
    eigenvalues: 
  0.846  0.929  0.941
    eigenvectors:
  0.340  0.000  0.660
  0.496  0.250  0.255
  0.164  0.750  0.086
    occupations:
  0.909 -0.039  0.022
 -0.039  0.891  0.022
  0.022  0.022  0.917
atom    9   Tr[ns(na)] =   5.43377
    eigenvalues: 
  0.846  0.929  0.941
    eigenvectors:
  0.340  0.000  0.660
  0.494  0.250  0.256
  0.166  0.750  0.085
    occupations:
  0.909  0.039  0.022
  0.039  0.891 -0.022
  0.022 -0.022  0.917
atom   10   Tr[ns(na)] =   5.43377
    eigenvalues: 
  0.846  0.929  0.941
    eigenvectors:
  0.340  0.000  0.660
  0.000  1.000  0.000
  0.660  0.000  0.340
    occupations:
  0.909  0.000 -0.045
  0.000  0.929  0.000
 -0.045  0.000  0.879
N of occupied +U levels =  56.2504993
 --- exit write_ns ---
 --- in v_hubbard ---
Hubbard energy    0.0000
 -------

     total cpu time spent up to now is      216.7 secs

     total energy              =    -538.33298091 Ry
     Harris-Foulkes estimate   =    -538.33294056 Ry
     estimated scf accuracy    <       0.00000100 Ry

     iteration # 13     ecut=    30.00 Ry     beta=0.20
     Davidson diagonalization with overlap
     ethr =  1.32E-09,  avg # of iterations =  2.0
 --- enter write_ns ---
 LDA+U parameters:
U( 1)     =  0.00000000
alpha( 1) =  0.00000000
U( 2)     =  0.00000000
alpha( 2) =  0.00000000
U( 3)     =  0.00000000
alpha( 3) =  0.00000000
U( 4)     =  0.00000000
alpha( 4) =  0.00000000
atom    1   Tr[ns(na)] =   8.02229
    eigenvalues: 
  0.596  0.596  0.938  0.941  0.941
    eigenvectors:
  0.000  0.000  1.000  0.000  0.000
  0.333  0.322  0.000  0.004  0.341
  0.322  0.333  0.000  0.341  0.004
  0.288  0.057  0.000  0.515  0.140
  0.057  0.288  0.000  0.140  0.515
    occupations:
  0.938  0.000  0.000  0.000  0.000
  0.000  0.715  0.000 -0.060  0.152
  0.000  0.000  0.715  0.152  0.060
  0.000 -0.060  0.152  0.822  0.000
  0.000  0.152  0.060  0.000  0.822
atom    2   Tr[ns(na)] =   8.02173
    eigenvalues: 
  0.595  0.595  0.938  0.941  0.941
    eigenvectors:
  0.000  0.000  1.000  0.000  0.000
  0.638  0.016  0.000  0.223  0.123
  0.016  0.638  0.000  0.123  0.223
  0.016  0.330  0.000  0.470  0.184
  0.330  0.016  0.000  0.184  0.470
    occupations:
  0.938  0.000  0.000  0.000  0.000
  0.000  0.715  0.000  0.060  0.153
  0.000  0.000  0.715  0.153 -0.060
  0.000  0.060  0.153  0.822  0.000
  0.000  0.153 -0.060  0.000  0.822
atom    3   Tr[ns(na)] =   3.80290
    eigenvalues: 
  0.355  0.355  0.384  0.403  0.403
    eigenvectors:
  0.000  0.000  1.000  0.000  0.000
  0.781  0.140  0.000  0.012  0.068
  0.140  0.781  0.000  0.068  0.012
  0.013  0.067  0.000  0.780  0.140
  0.067  0.013  0.000  0.140  0.780
    occupations:
  0.384  0.000  0.000  0.000  0.000
  0.000  0.359  0.000  0.000  0.013
  0.000  0.000  0.359  0.013  0.000
  0.000  0.000  0.013  0.399  0.000
  0.000  0.013  0.000  0.000  0.399
atom    4   Tr[ns(na)] =   3.80290
    eigenvalues: 
  0.355  0.355  0.384  0.403  0.403
    eigenvectors:
  0.000  0.000  1.000  0.000  0.000
  0.781  0.140  0.000  0.012  0.068
  0.140  0.781  0.000  0.068  0.012
  0.013  0.067  0.000  0.780  0.140
  0.067  0.013  0.000  0.140  0.780
    occupations:
  0.384  0.000  0.000  0.000  0.000
  0.000  0.359  0.000  0.000  0.013
  0.000  0.000  0.359  0.013  0.000
  0.000  0.000  0.013  0.399  0.000
  0.000  0.013  0.000  0.000  0.399
atom    5   Tr[ns(na)] =   5.43348
    eigenvalues: 
  0.846  0.929  0.941
    eigenvectors:
  0.340  0.000  0.660
  0.496  0.250  0.255
  0.164  0.750  0.086
    occupations:
  0.909 -0.039  0.022
 -0.039  0.891  0.022
  0.022  0.022  0.917
atom    6   Tr[ns(na)] =   5.43348
    eigenvalues: 
  0.846  0.929  0.941
    eigenvectors:
  0.340  0.000  0.660
  0.494  0.250  0.256
  0.166  0.750  0.085
    occupations:
  0.909  0.039  0.022
  0.039  0.891 -0.022
  0.022 -0.022  0.917
atom    7   Tr[ns(na)] =   5.43348
    eigenvalues: 
  0.846  0.929  0.941
    eigenvectors:
  0.340  0.000  0.660
  0.000  1.000  0.000
  0.660  0.000  0.340
    occupations:
  0.909  0.000 -0.045
  0.000  0.929  0.000
 -0.045  0.000  0.879
atom    8   Tr[ns(na)] =   5.43348
    eigenvalues: 
  0.846  0.929  0.941
    eigenvectors:
  0.340  0.000  0.660
  0.496  0.250  0.255
  0.164  0.750  0.086
    occupations:
  0.909 -0.039  0.022
 -0.039  0.891  0.022
  0.022  0.022  0.917
atom    9   Tr[ns(na)] =   5.43348
    eigenvalues: 
  0.846  0.929  0.941
    eigenvectors:
  0.340  0.000  0.660
  0.494  0.250  0.256
  0.166  0.750  0.085
    occupations:
  0.909  0.039  0.022
  0.039  0.891 -0.022
  0.022 -0.022  0.917
atom   10   Tr[ns(na)] =   5.43348
    eigenvalues: 
  0.846  0.929  0.941
    eigenvectors:
  0.340  0.000  0.660
  0.000  1.000  0.000
  0.660  0.000  0.340
    occupations:
  0.909  0.000 -0.045
  0.000  0.929  0.000
 -0.045  0.000  0.879
N of occupied +U levels =  56.2507039
 --- exit write_ns ---
 --- in v_hubbard ---
Hubbard energy    0.0000
 -------

     total cpu time spent up to now is      232.0 secs

     total energy              =    -538.33300703 Ry
     Harris-Foulkes estimate   =    -538.33298114 Ry
     estimated scf accuracy    <       0.00000019 Ry

     iteration # 14     ecut=    30.00 Ry     beta=0.20
     Davidson diagonalization with overlap
     ethr =  2.56E-10,  avg # of iterations =  1.1
 --- enter write_ns ---
 LDA+U parameters:
U( 1)     =  0.00000000
alpha( 1) =  0.00000000
U( 2)     =  0.00000000
alpha( 2) =  0.00000000
U( 3)     =  0.00000000
alpha( 3) =  0.00000000
U( 4)     =  0.00000000
alpha( 4) =  0.00000000
atom    1   Tr[ns(na)] =   8.02219
    eigenvalues: 
  0.596  0.596  0.938  0.941  0.941
    eigenvectors:
  0.000  0.000  1.000  0.000  0.000
  0.334  0.321  0.000  0.004  0.342
  0.321  0.334  0.000  0.342  0.004
  0.288  0.057  0.000  0.515  0.140
  0.057  0.288  0.000  0.140  0.515
    occupations:
  0.938  0.000  0.000  0.000  0.000
  0.000  0.715  0.000 -0.060  0.152
  0.000  0.000  0.715  0.152  0.060
  0.000 -0.060  0.152  0.822  0.000
  0.000  0.152  0.060  0.000  0.822
atom    2   Tr[ns(na)] =   8.02147
    eigenvalues: 
  0.595  0.595  0.938  0.941  0.941
    eigenvectors:
  0.000  0.000  1.000  0.000  0.000
  0.638  0.017  0.000  0.223  0.122
  0.017  0.638  0.000  0.122  0.223
  0.015  0.330  0.000  0.470  0.185
  0.330  0.015  0.000  0.185  0.470
    occupations:
  0.938  0.000  0.000  0.000  0.000
  0.000  0.715  0.000  0.060  0.153
  0.000  0.000  0.715  0.153 -0.060
  0.000  0.060  0.153  0.822  0.000
  0.000  0.153 -0.060  0.000  0.822
atom    3   Tr[ns(na)] =   3.80291
    eigenvalues: 
  0.355  0.355  0.384  0.403  0.403
    eigenvectors:
  0.000  0.000  1.000  0.000  0.000
  0.781  0.139  0.000  0.012  0.068
  0.139  0.781  0.000  0.068  0.012
  0.013  0.067  0.000  0.780  0.140
  0.067  0.013  0.000  0.140  0.780
    occupations:
  0.384  0.000  0.000  0.000  0.000
  0.000  0.359  0.000  0.000  0.013
  0.000  0.000  0.359  0.013  0.000
  0.000  0.000  0.013  0.399  0.000
  0.000  0.013  0.000  0.000  0.399
atom    4   Tr[ns(na)] =   3.80291
    eigenvalues: 
  0.355  0.355  0.384  0.403  0.403
    eigenvectors:
  0.000  0.000  1.000  0.000  0.000
  0.781  0.140  0.000  0.012  0.068
  0.140  0.781  0.000  0.068  0.012
  0.013  0.067  0.000  0.780  0.140
  0.067  0.013  0.000  0.140  0.780
    occupations:
  0.384  0.000  0.000  0.000  0.000
  0.000  0.359  0.000  0.000  0.013
  0.000  0.000  0.359  0.013  0.000
  0.000  0.000  0.013  0.399  0.000
  0.000  0.013  0.000  0.000  0.399
atom    5   Tr[ns(na)] =   5.43353
    eigenvalues: 
  0.846  0.929  0.941
    eigenvectors:
  0.340  0.000  0.660
  0.496  0.250  0.255
  0.164  0.750  0.086
    occupations:
  0.909 -0.039  0.022
 -0.039  0.891  0.022
  0.022  0.022  0.917
atom    6   Tr[ns(na)] =   5.43353
    eigenvalues: 
  0.846  0.929  0.941
    eigenvectors:
  0.340  0.000  0.660
  0.494  0.250  0.256
  0.166  0.750  0.085
    occupations:
  0.909  0.039  0.022
  0.039  0.891 -0.022
  0.022 -0.022  0.917
atom    7   Tr[ns(na)] =   5.43353
    eigenvalues: 
  0.846  0.929  0.941
    eigenvectors:
  0.340  0.000  0.660
  0.000  1.000  0.000
  0.660  0.000  0.340
    occupations:
  0.909  0.000 -0.045
  0.000  0.929  0.000
 -0.045  0.000  0.879
atom    8   Tr[ns(na)] =   5.43353
    eigenvalues: 
  0.846  0.929  0.941
    eigenvectors:
  0.340  0.000  0.660
  0.496  0.250  0.255
  0.164  0.750  0.086
    occupations:
  0.909 -0.039  0.022
 -0.039  0.891  0.022
  0.022  0.022  0.917
atom    9   Tr[ns(na)] =   5.43353
    eigenvalues: 
  0.846  0.929  0.941
    eigenvectors:
  0.340  0.000  0.660
  0.494  0.250  0.256
  0.166  0.750  0.085
    occupations:
  0.909  0.039  0.022
  0.039  0.891 -0.022
  0.022 -0.022  0.917
atom   10   Tr[ns(na)] =   5.43353
    eigenvalues: 
  0.846  0.929  0.941
    eigenvectors:
  0.340  0.000  0.660
  0.000  1.000  0.000
  0.660  0.000  0.340
    occupations:
  0.909  0.000 -0.045
  0.000  0.929  0.000
 -0.045  0.000  0.879
N of occupied +U levels =  56.2506635
 --- exit write_ns ---
 --- in v_hubbard ---
Hubbard energy    0.0000
 -------

     total cpu time spent up to now is      247.4 secs

     total energy              =    -538.33302369 Ry
     Harris-Foulkes estimate   =    -538.33300705 Ry
     estimated scf accuracy    <       0.00000003 Ry

     iteration # 15     ecut=    30.00 Ry     beta=0.20
     Davidson diagonalization with overlap
     ethr =  4.34E-11,  avg # of iterations =  2.5
 --- enter write_ns ---
 LDA+U parameters:
U( 1)     =  0.00000000
alpha( 1) =  0.00000000
U( 2)     =  0.00000000
alpha( 2) =  0.00000000
U( 3)     =  0.00000000
alpha( 3) =  0.00000000
U( 4)     =  0.00000000
alpha( 4) =  0.00000000
atom    1   Tr[ns(na)] =   8.02192
    eigenvalues: 
  0.596  0.596  0.938  0.941  0.941
    eigenvectors:
  0.000  0.000  1.000  0.000  0.000
  0.333  0.321  0.000  0.004  0.342
  0.321  0.333  0.000  0.342  0.004
  0.288  0.057  0.000  0.515  0.140
  0.057  0.288  0.000  0.140  0.515
    occupations:
  0.938  0.000  0.000  0.000  0.000
  0.000  0.715  0.000 -0.060  0.152
  0.000  0.000  0.715  0.152  0.060
  0.000 -0.060  0.152  0.822  0.000
  0.000  0.152  0.060  0.000  0.822
atom    2   Tr[ns(na)] =   8.02131
    eigenvalues: 
  0.595  0.595  0.938  0.941  0.941
    eigenvectors:
  0.000  0.000  1.000  0.000  0.000
  0.638  0.016  0.000  0.223  0.122
  0.016  0.638  0.000  0.122  0.223
  0.016  0.330  0.000  0.470  0.184
  0.330  0.016  0.000  0.184  0.470
    occupations:
  0.938  0.000  0.000  0.000  0.000
  0.000  0.715  0.000  0.060  0.153
  0.000  0.000  0.715  0.153 -0.060
  0.000  0.060  0.153  0.822  0.000
  0.000  0.153 -0.060  0.000  0.822
atom    3   Tr[ns(na)] =   3.80283
    eigenvalues: 
  0.355  0.355  0.384  0.403  0.403
    eigenvectors:
  0.000  0.000  1.000  0.000  0.000
  0.781  0.139  0.000  0.012  0.068
  0.139  0.781  0.000  0.068  0.012
  0.013  0.067  0.000  0.780  0.140
  0.067  0.013  0.000  0.140  0.780
    occupations:
  0.384  0.000  0.000  0.000  0.000
  0.000  0.359  0.000  0.000  0.013
  0.000  0.000  0.359  0.013  0.000
  0.000  0.000  0.013  0.399  0.000
  0.000  0.013  0.000  0.000  0.399
atom    4   Tr[ns(na)] =   3.80283
    eigenvalues: 
  0.355  0.355  0.384  0.403  0.403
    eigenvectors:
  0.000  0.000  1.000  0.000  0.000
  0.781  0.139  0.000  0.012  0.068
  0.139  0.781  0.000  0.068  0.012
  0.013  0.067  0.000  0.780  0.140
  0.067  0.013  0.000  0.140  0.780
    occupations:
  0.384  0.000  0.000  0.000  0.000
  0.000  0.359  0.000  0.000  0.013
  0.000  0.000  0.359  0.013  0.000
  0.000  0.000  0.013  0.399  0.000
  0.000  0.013  0.000  0.000  0.399
atom    5   Tr[ns(na)] =   5.43361
    eigenvalues: 
  0.846  0.929  0.941
    eigenvectors:
  0.340  0.000  0.660
  0.496  0.250  0.255
  0.164  0.750  0.086
    occupations:
  0.909 -0.039  0.022
 -0.039  0.891  0.022
  0.022  0.022  0.917
atom    6   Tr[ns(na)] =   5.43361
    eigenvalues: 
  0.846  0.929  0.941
    eigenvectors:
  0.340  0.000  0.660
  0.494  0.250  0.256
  0.166  0.750  0.085
    occupations:
  0.909  0.039  0.022
  0.039  0.891 -0.022
  0.022 -0.022  0.917
atom    7   Tr[ns(na)] =   5.43361
    eigenvalues: 
  0.846  0.929  0.941
    eigenvectors:
  0.340  0.000  0.660
  0.000  1.000  0.000
  0.660  0.000  0.340
    occupations:
  0.909  0.000 -0.045
  0.000  0.929  0.000
 -0.045  0.000  0.879
atom    8   Tr[ns(na)] =   5.43361
    eigenvalues: 
  0.846  0.929  0.941
    eigenvectors:
  0.340  0.000  0.660
  0.496  0.250  0.255
  0.164  0.750  0.086
    occupations:
  0.909 -0.039  0.022
 -0.039  0.891  0.022
  0.022  0.022  0.917
atom    9   Tr[ns(na)] =   5.43361
    eigenvalues: 
  0.846  0.929  0.941
    eigenvectors:
  0.340  0.000  0.660
  0.494  0.250  0.256
  0.166  0.750  0.085
    occupations:
  0.909  0.039  0.022
  0.039  0.891 -0.022
  0.022 -0.022  0.917
atom   10   Tr[ns(na)] =   5.43361
    eigenvalues: 
  0.846  0.929  0.941
    eigenvectors:
  0.340  0.000  0.660
  0.000  1.000  0.000
  0.660  0.000  0.340
    occupations:
  0.909  0.000 -0.045
  0.000  0.929  0.000
 -0.045  0.000  0.879
N of occupied +U levels =  56.2505801
 --- exit write_ns ---
 --- in v_hubbard ---
Hubbard energy    0.0000
 -------

     total cpu time spent up to now is      265.1 secs

     total energy              =    -538.33303422 Ry
     Harris-Foulkes estimate   =    -538.33302371 Ry
     estimated scf accuracy    <       0.00000006 Ry

     iteration # 16     ecut=    30.00 Ry     beta=0.20
     Davidson diagonalization with overlap
     ethr =  4.34E-11,  avg # of iterations =  1.1
 --- enter write_ns ---
 LDA+U parameters:
U( 1)     =  0.00000000
alpha( 1) =  0.00000000
U( 2)     =  0.00000000
alpha( 2) =  0.00000000
U( 3)     =  0.00000000
alpha( 3) =  0.00000000
U( 4)     =  0.00000000
alpha( 4) =  0.00000000
atom    1   Tr[ns(na)] =   8.02205
    eigenvalues: 
  0.596  0.596  0.938  0.941  0.941
    eigenvectors:
  0.000  0.000  1.000  0.000  0.000
  0.334  0.321  0.000  0.004  0.341
  0.321  0.334  0.000  0.341  0.004
  0.288  0.057  0.000  0.515  0.140
  0.057  0.288  0.000  0.140  0.515
    occupations:
  0.938  0.000  0.000  0.000  0.000
  0.000  0.715  0.000 -0.060  0.152
  0.000  0.000  0.715  0.152  0.060
  0.000 -0.060  0.152  0.822  0.000
  0.000  0.152  0.060  0.000  0.822
atom    2   Tr[ns(na)] =   8.02143
    eigenvalues: 
  0.595  0.595  0.938  0.941  0.941
    eigenvectors:
  0.000  0.000  1.000  0.000  0.000
  0.638  0.017  0.000  0.223  0.123
  0.017  0.638  0.000  0.123  0.223
  0.016  0.330  0.000  0.470  0.184
  0.330  0.016  0.000  0.184  0.470
    occupations:
  0.938  0.000  0.000  0.000  0.000
  0.000  0.715  0.000  0.060  0.153
  0.000  0.000  0.715  0.153 -0.060
  0.000  0.060  0.153  0.822  0.000
  0.000  0.153 -0.060  0.000  0.822
atom    3   Tr[ns(na)] =   3.80283
    eigenvalues: 
  0.355  0.355  0.384  0.403  0.403
    eigenvectors:
  0.000  0.000  1.000  0.000  0.000
  0.781  0.140  0.000  0.012  0.068
  0.140  0.781  0.000  0.068  0.012
  0.013  0.067  0.000  0.780  0.140
  0.067  0.013  0.000  0.140  0.780
    occupations:
  0.384  0.000  0.000  0.000  0.000
[...]
    eigenvectors:
  0.000  0.000  1.000  0.000  0.000
  0.638  0.017  0.000  0.223  0.123
  0.017  0.638  0.000  0.123  0.223
  0.015  0.330  0.000  0.470  0.185
  0.330  0.015  0.000  0.185  0.470
    occupations:
  0.938  0.000  0.000  0.000  0.000
  0.000  0.715  0.000  0.060  0.153
  0.000  0.000  0.715  0.153 -0.060
  0.000  0.060  0.153  0.822  0.000
  0.000  0.153 -0.060  0.000  0.822
atom    3   Tr[ns(na)] =   3.76090
    eigenvalues: 
  0.351  0.351  0.380  0.399  0.399
    eigenvectors:
  0.000  0.000  1.000  0.000  0.000
  0.778  0.140  0.000  0.012  0.069
  0.140  0.778  0.000  0.069  0.012
  0.013  0.068  0.000  0.778  0.141
  0.068  0.013  0.000  0.141  0.778
    occupations:
  0.380  0.000  0.000  0.000  0.000
  0.000  0.355  0.000  0.000  0.013
  0.000  0.000  0.355  0.013  0.000
  0.000  0.000  0.013  0.395  0.000
  0.000  0.013  0.000  0.000  0.395
atom    4   Tr[ns(na)] =   3.80338
    eigenvalues: 
  0.356  0.356  0.384  0.403  0.403
    eigenvectors:
  0.000  0.000  1.000  0.000  0.000
  0.782  0.139  0.000  0.012  0.068
  0.139  0.782  0.000  0.068  0.012
  0.012  0.067  0.000  0.781  0.140
  0.067  0.012  0.000  0.140  0.781
    occupations:
  0.384  0.000  0.000  0.000  0.000
  0.000  0.359  0.000  0.000  0.013
  0.000  0.000  0.359  0.013  0.000
  0.000  0.000  0.013  0.399  0.000
  0.000  0.013  0.000  0.000  0.399
atom    5   Tr[ns(na)] =   5.43527
    eigenvalues: 
  0.846  0.930  0.941
    eigenvectors:
  0.340  0.000  0.660
  0.496  0.250  0.255
  0.164  0.750  0.086
    occupations:
  0.909 -0.039  0.022
 -0.039  0.891  0.022
  0.022  0.022  0.917
atom    6   Tr[ns(na)] =   5.43527
    eigenvalues: 
  0.846  0.930  0.941
    eigenvectors:
  0.340  0.000  0.660
  0.494  0.250  0.256
  0.166  0.750  0.085
    occupations:
  0.909  0.039  0.023
  0.039  0.892 -0.022
  0.023 -0.022  0.917
atom    7   Tr[ns(na)] =   5.43527
    eigenvalues: 
  0.846  0.930  0.941
    eigenvectors:
  0.340  0.000  0.660
  0.000  1.000  0.000
  0.660  0.000  0.340
    occupations:
  0.909  0.000 -0.045
  0.000  0.930  0.000
 -0.045  0.000  0.879
atom    8   Tr[ns(na)] =   5.43523
    eigenvalues: 
  0.846  0.929  0.942
    eigenvectors:
  0.340  0.000  0.660
  0.496  0.250  0.255
  0.164  0.750  0.085
    occupations:
  0.909 -0.039  0.023
 -0.039  0.891  0.022
  0.023  0.022  0.917
atom    9   Tr[ns(na)] =   5.43523
    eigenvalues: 
  0.846  0.929  0.942
    eigenvectors:
  0.340  0.000  0.660
  0.494  0.250  0.255
  0.166  0.750  0.085
    occupations:
  0.909  0.039  0.023
  0.039  0.892 -0.022
  0.023 -0.022  0.917
atom   10   Tr[ns(na)] =   5.43523
    eigenvalues: 
  0.846  0.929  0.942
    eigenvectors:
  0.340  0.000  0.660
  0.000  1.000  0.000
  0.660  0.000  0.340
    occupations:
  0.909  0.000 -0.045
  0.000  0.929  0.000
 -0.045  0.000  0.879
N of occupied +U levels =  56.2213078
 --- exit write_ns ---
 --- in v_hubbard ---
Hubbard energy    0.0415
 -------

     total cpu time spent up to now is      151.3 secs

     End of self-consistent calculation

          k = 0.0000 0.0000 0.0000 (  2175 PWs)   bands (ev):

   -19.8219 -19.6339  -6.5119  -5.7692  -5.7692  -5.7544  -5.7544  -5.4057
    -3.7657  -3.2737  -3.1912  -3.1912  -3.0226  -3.0226   5.2184   6.9658
     6.9658   7.5513   7.5513   7.7423   7.8510   7.8510   7.9084   9.3271
     9.6479   9.6479   9.9067   9.9652   9.9652  10.5018  10.5018  10.6929
    10.6929  10.7125  10.8396  11.5389  11.5389  12.2084  12.3271  12.3271
    14.8048  14.8048  15.4943  15.4943  16.2634  16.8514

     occupation numbers 
     0.0313   0.0313   0.0313   0.0313   0.0313   0.0313   0.0313   0.0313
     0.0313   0.0313   0.0313   0.0313   0.0313   0.0313   0.0313   0.0313
     0.0313   0.0313   0.0313   0.0313   0.0313   0.0313   0.0313   0.0313
     0.0313   0.0313   0.0312   0.0312   0.0312   0.0312   0.0312   0.0312
     0.0312   0.0312   0.0312   0.0309   0.0309   0.0150   0.0101   0.0101
     0.0000   0.0000   0.0000   0.0000   0.0000   0.0000

          k =-0.2471-0.1427 0.1027 (  2181 PWs)   bands (ev):

   -19.7967 -19.6540  -6.6911  -6.2268  -5.8808  -5.7871  -5.5463  -5.4097
    -3.5824  -3.3864  -2.9302  -2.8995  -2.8382  -2.7518   5.5908   6.9211
     7.0684   7.0741   7.3760   7.5425   7.6076   7.8553   7.8969   8.6577
     8.7550   9.3778   9.6959   9.8369   9.8872  10.0677  10.4129  10.4240
    11.0663  11.0975  11.1793  11.9112  11.9627  12.0242  12.3860  12.4450
    14.3484  14.3578  15.8767  16.1295  17.0280  17.3216

     occupation numbers 
     0.1875   0.1875   0.1875   0.1875   0.1875   0.1875   0.1875   0.1875
     0.1875   0.1875   0.1875   0.1875   0.1875   0.1875   0.1875   0.1875
     0.1875   0.1875   0.1875   0.1875   0.1875   0.1875   0.1875   0.1875
     0.1875   0.1875   0.1875   0.1875   0.1875   0.1875   0.1875   0.1875
     0.1875   0.1875   0.1875   0.1570   0.1480   0.1356   0.0476   0.0362
     0.0000   0.0000   0.0000   0.0000   0.0000   0.0000

          k = 0.4942 0.2853-0.2053 (  2202 PWs)   bands (ev):

   -19.7594 -19.6859  -6.6950  -6.6508  -5.9080  -5.8971  -5.4621  -5.4553
    -3.3941  -3.3598  -2.7908  -2.7728  -2.5345  -2.4819   6.1279   6.1522
     7.2624   7.2777   7.3221   7.3410   7.6886   7.7162   8.0166   8.0508
     8.2294   8.2594   9.5744   9.5768   9.9097   9.9168  10.3181  10.3278
    11.5033  11.5067  11.5832  11.5878  11.7488  11.7530  13.3264  13.3551
    13.4142  13.4432  16.8566  16.9177  17.1536  17.2131

     occupation numbers 
     0.0938   0.0938   0.0938   0.0938   0.0938   0.0938   0.0938   0.0938
     0.0938   0.0938   0.0938   0.0938   0.0938   0.0938   0.0938   0.0938
     0.0938   0.0938   0.0938   0.0938   0.0938   0.0938   0.0938   0.0938
     0.0938   0.0938   0.0938   0.0938   0.0937   0.0937   0.0937   0.0937
     0.0930   0.0929   0.0922   0.0921   0.0880   0.0879   0.0000   0.0000
     0.0000   0.0000   0.0000   0.0000   0.0000   0.0000

          k =-0.2471 0.1427 0.2053 (  2195 PWs)   bands (ev):

   -19.7913 -19.6533  -6.8187  -6.1827  -6.0122  -5.7494  -5.5946  -5.3932
    -3.4090  -3.2657  -3.0967  -2.8812  -2.7992  -2.5581   5.6261   6.8842
     6.9633   7.1575   7.2842   7.5139   7.5285   7.9039   7.9075   8.7322
     8.9413   8.9515   9.3274   9.8337  10.0241  10.1331  10.2382  10.3344
    10.7148  11.4230  11.4485  11.5387  11.9614  12.0284  12.2028  12.7667
    13.6716  14.8191  16.0533  16.2511  17.0967  17.5772

     occupation numbers 
     0.1875   0.1875   0.1875   0.1875   0.1875   0.1875   0.1875   0.1875
     0.1875   0.1875   0.1875   0.1875   0.1875   0.1875   0.1875   0.1875
     0.1875   0.1875   0.1875   0.1875   0.1875   0.1875   0.1875   0.1875
     0.1875   0.1875   0.1875   0.1875   0.1875   0.1875   0.1875   0.1875
     0.1875   0.1868   0.1866   0.1853   0.1483   0.1346   0.0917   0.0045
     0.0000   0.0000   0.0000   0.0000   0.0000   0.0000

          k = 0.4942 0.5706-0.1027 (  2198 PWs)   bands (ev):

   -19.7629 -19.6723  -6.9148  -6.5956  -6.0863  -5.8375  -5.4435  -5.3201
    -3.3084  -3.2522  -2.8766  -2.7038  -2.5212  -2.3802   5.9670   6.3252
     6.9340   7.0698   7.2689   7.3922   7.6032   7.8466   7.9932   8.1292
     8.4003   8.9484   9.2067   9.3919   9.7007   9.8553  10.0091  10.3983
    11.1313  11.5729  11.6606  11.7328  11.8652  11.8864  12.3680  12.7731
    13.4572  14.3949  16.9543  17.1637  17.3634  18.0512

     occupation numbers 
     0.1875   0.1875   0.1875   0.1875   0.1875   0.1875   0.1875   0.1875
     0.1875   0.1875   0.1875   0.1875   0.1875   0.1875   0.1875   0.1875
     0.1875   0.1875   0.1875   0.1875   0.1875   0.1875   0.1875   0.1875
     0.1875   0.1875   0.1875   0.1875   0.1875   0.1875   0.1875   0.1875
     0.1875   0.1846   0.1815   0.1772   0.1638   0.1608   0.0514   0.0042
     0.0000   0.0000   0.0000   0.0000   0.0000   0.0000

          k = 0.2471 0.4280 0.0000 (  2203 PWs)   bands (ev):

   -19.7691 -19.6723  -6.8062  -6.5806  -6.0028  -5.9255  -5.3729  -5.3028
    -3.5087  -3.2983  -2.7968  -2.7139  -2.5590  -2.5502   5.9381   6.3761
     7.1269   7.1703   7.2754   7.3555   7.5042   7.7739   7.8674   8.2273
     8.4717   8.9770   9.4598   9.5076   9.8166   9.8319  10.1029  10.4000
    11.4311  11.4428  11.4725  11.6906  11.7025  11.9837  12.3149  13.3557
    13.4264  14.1905  16.4904  17.0408  17.4688  17.9707

     occupation numbers 
     0.1875   0.1875   0.1875   0.1875   0.1875   0.1875   0.1875   0.1875
     0.1875   0.1875   0.1875   0.1875   0.1875   0.1875   0.1875   0.1875
     0.1875   0.1875   0.1875   0.1875   0.1875   0.1875   0.1875   0.1875
     0.1875   0.1875   0.1875   0.1875   0.1875   0.1875   0.1875   0.1875
     0.1867   0.1866   0.1863   0.1799   0.1793   0.1440   0.0635   0.0000
     0.0000   0.0000   0.0000   0.0000   0.0000   0.0000

          k = 0.4942-0.2853-0.4107 (  2202 PWs)   bands (ev):

   -19.7644 -19.6602  -7.1344  -6.4267  -6.2115  -5.8684  -5.4722  -5.2286
    -3.1997  -3.1336  -3.0411  -2.6468  -2.4740  -2.2192   5.8665   6.3595
     6.5120   6.9578   7.1984   7.3064   7.9367   7.9596   8.2180   8.3508
     8.6177   8.6336   8.6666   9.4488   9.7062  10.0702  10.1100  10.4764
    10.6794  11.3262  11.5973  11.7852  11.8929  12.0017  12.0996  12.4893
    13.3559  14.8307  17.0959  17.3127  17.5720  17.6520

     occupation numbers 
     0.0938   0.0938   0.0938   0.0938   0.0938   0.0938   0.0938   0.0938
     0.0938   0.0938   0.0938   0.0938   0.0938   0.0938   0.0938   0.0938
     0.0938   0.0938   0.0938   0.0938   0.0938   0.0938   0.0938   0.0938
     0.0938   0.0938   0.0938   0.0938   0.0938   0.0937   0.0937   0.0937
     0.0937   0.0936   0.0920   0.0865   0.0799   0.0702   0.0590   0.0144
     0.0000   0.0000   0.0000   0.0000   0.0000   0.0000

          k = 0.0000 0.0000 0.3080 (  2187 PWs)   bands (ev):

   -19.7965 -19.6538  -6.5793  -5.9112  -5.8729  -5.8617  -5.7783  -5.7768
    -3.1994  -3.1162  -3.0735  -2.9701  -2.9104  -2.8727   5.6432   7.0617
     7.0654   7.1768   7.4746   7.4781   7.5507   7.8796   7.8911   8.9017
     8.9039   9.4665   9.4717   9.7020   9.7048   9.9116  10.1719  10.1764
    11.1813  11.1833  11.2461  11.9243  11.9254  12.0356  12.3679  12.3690
    14.3088  14.3126  15.9649  15.9772  16.9375  17.5305

     occupation numbers 
     0.0625   0.0625   0.0625   0.0625   0.0625   0.0625   0.0625   0.0625
     0.0625   0.0625   0.0625   0.0625   0.0625   0.0625   0.0625   0.0625
     0.0625   0.0625   0.0625   0.0625   0.0625   0.0625   0.0625   0.0625
     0.0625   0.0625   0.0625   0.0625   0.0625   0.0625   0.0625   0.0625
     0.0625   0.0625   0.0625   0.0516   0.0516   0.0443   0.0172   0.0171
     0.0000   0.0000   0.0000   0.0000   0.0000   0.0000

          k = 0.7412 0.4280 0.0000 (  2204 PWs)   bands (ev):

   -19.7688 -19.6721  -6.6901  -6.5450  -6.0952  -5.7771  -5.6190  -5.4831
    -3.1657  -3.0970  -3.0389  -2.6791  -2.6436  -2.5757   5.9773   6.5546
     7.1366   7.2415   7.2749   7.3768   7.4958   7.7159   8.0482   8.1831
     8.4985   8.8819   9.5073   9.5292   9.6538   9.7212   9.8964  10.2529
    11.4281  11.4441  11.5414  11.7229  11.7483  11.9139  12.3259  13.2802
    13.3425  14.2137  16.7390  16.7772  17.6373  17.8353

     occupation numbers 
     0.1875   0.1875   0.1875   0.1875   0.1875   0.1875   0.1875   0.1875
     0.1875   0.1875   0.1875   0.1875   0.1875   0.1875   0.1875   0.1875
     0.1875   0.1875   0.1875   0.1875   0.1875   0.1875   0.1875   0.1875
     0.1875   0.1875   0.1875   0.1875   0.1875   0.1875   0.1875   0.1875
     0.1868   0.1866   0.1853   0.1779   0.1761   0.1565   0.0609   0.0000
     0.0000   0.0000   0.0000   0.0000   0.0000   0.0000

          k = 0.4942 0.2853 0.1027 (  2211 PWs)   bands (ev):

   -19.7630 -19.6722  -6.9316  -6.4890  -6.2805  -5.6355  -5.5667  -5.2929
    -3.3192  -3.1691  -3.0249  -2.6040  -2.5526  -2.3732   5.9964   6.2948
     6.8909   7.0588   7.2731   7.3289   7.6214   7.9196   8.0242   8.0920
     8.4340   9.0770   9.2057   9.4445   9.5819   9.7116  10.0613  10.4213
    11.1455  11.6076  11.7350  11.7409  11.8028  11.8198  12.3197  12.7910
    13.5025  14.3764  16.9274  16.9917  17.6311  17.9752

     occupation numbers 
     0.1875   0.1875   0.1875   0.1875   0.1875   0.1875   0.1875   0.1875
     0.1875   0.1875   0.1875   0.1875   0.1875   0.1875   0.1875   0.1875
     0.1875   0.1875   0.1875   0.1875   0.1875   0.1875   0.1875   0.1875
     0.1875   0.1875   0.1875   0.1875   0.1875   0.1875   0.1875   0.1875
     0.1875   0.1836   0.1771   0.1767   0.1712   0.1693   0.0624   0.0036
     0.0000   0.0000   0.0000   0.0000   0.0000   0.0000

          k = 0.7412-0.4280-0.3080 (  2210 PWs)   bands (ev):

   -19.7627 -19.6720  -6.8666  -6.3957  -6.2592  -5.7445  -5.6939  -5.4226
    -3.0733  -3.0480  -2.9697  -2.7225  -2.6120  -2.4231   6.0538   6.4338
     6.9805   7.0472   7.3101   7.3226   7.6448   7.9384   8.0712   8.1255
     8.4104   9.0458   9.0637   9.5569   9.5849   9.6208   9.7021  10.2569
    11.2012  11.6292  11.7210  11.7305  11.8444  11.8858  12.2789  12.7387
    13.4508  14.3463  17.1092  17.1171  17.6009  17.9390

     occupation numbers 
     0.1875   0.1875   0.1875   0.1875   0.1875   0.1875   0.1875   0.1875
     0.1875   0.1875   0.1875   0.1875   0.1875   0.1875   0.1875   0.1875
     0.1875   0.1875   0.1875   0.1875   0.1875   0.1875   0.1875   0.1875
     0.1875   0.1875   0.1875   0.1875   0.1875   0.1875   0.1875   0.1875
     0.1874   0.1828   0.1781   0.1774   0.1665   0.1609   0.0723   0.0056
     0.0000   0.0000   0.0000   0.0000   0.0000   0.0000

          k = 0.4942-0.5706-0.2053 (  2206 PWs)   bands (ev):

   -19.7576 -19.6715  -6.8413  -6.8298  -5.9943  -5.9868  -5.3643  -5.3607
    -3.1716  -3.1481  -2.8282  -2.7872  -2.3810  -2.3750   6.1444   6.1551
     7.0557   7.0735   7.1868   7.1984   7.4685   7.4949   8.2428   8.2781
     8.8346   8.8559   9.1106   9.1146   9.5895   9.5928  10.1408  10.1428
    11.4156  11.4168  11.6166  11.6186  11.8869  11.8898  12.3519  12.3544
    14.0361  14.0445  17.4730  17.4757  17.9090  17.9147

     occupation numbers 
     0.1875   0.1875   0.1875   0.1875   0.1875   0.1875   0.1875   0.1875
     0.1875   0.1875   0.1875   0.1875   0.1875   0.1875   0.1875   0.1875
     0.1875   0.1875   0.1875   0.1875   0.1875   0.1875   0.1875   0.1875
     0.1875   0.1875   0.1875   0.1875   0.1875   0.1875   0.1875   0.1875
     0.1868   0.1868   0.1833   0.1832   0.1607   0.1603   0.0550   0.0544
     0.0000   0.0000   0.0000   0.0000   0.0000   0.0000

          k = 0.0000 0.0000-0.6160 (  2186 PWs)   bands (ev):

   -19.7589 -19.6855  -6.4815  -6.4305  -5.9004  -5.9004  -5.8619  -5.8619
    -2.9068  -2.9068  -2.8546  -2.8546  -2.7435  -2.6822   6.3457   6.3707
     7.2682   7.2682   7.2870   7.2870   7.8804   7.9073   8.1390   8.1390
     8.1759   8.1759   9.6883   9.6883   9.6952   9.6952   9.7438   9.7547
    11.6337  11.6357  11.6834  11.6834  11.6882  11.6882  13.2703  13.2703
    13.2986  13.2986  17.1353  17.1353  17.1989  17.1989

     occupation numbers 
     0.0313   0.0313   0.0313   0.0313   0.0313   0.0313   0.0313   0.0313
     0.0313   0.0313   0.0313   0.0313   0.0313   0.0313   0.0313   0.0313
     0.0313   0.0313   0.0313   0.0313   0.0313   0.0313   0.0313   0.0313
     0.0313   0.0313   0.0313   0.0313   0.0313   0.0313   0.0313   0.0313
     0.0304   0.0304   0.0301   0.0301   0.0300   0.0300   0.0000   0.0000
     0.0000   0.0000   0.0000   0.0000   0.0000   0.0000

          k = 0.4942-0.5706 0.1027 (  2198 PWs)   bands (ev):

   -19.7629 -19.6723  -6.9153  -6.5946  -6.0875  -5.8365  -5.4445  -5.3193
    -3.3091  -3.2522  -2.8768  -2.7028  -2.5218  -2.3798   5.9658   6.3270
     6.9308   7.0699   7.2751   7.3890   7.6036   7.8484   7.9734   8.1526
     8.3935   8.9545   9.2019   9.3907   9.6989   9.8566  10.0088  10.3997
    11.1305  11.5740  11.6614  11.7325  11.8658  11.8853  12.3676  12.7728
    13.4572  14.3946  16.9561  17.1609  17.3639  18.0530

     occupation numbers 
     0.1875   0.1875   0.1875   0.1875   0.1875   0.1875   0.1875   0.1875
     0.1875   0.1875   0.1875   0.1875   0.1875   0.1875   0.1875   0.1875
     0.1875   0.1875   0.1875   0.1875   0.1875   0.1875   0.1875   0.1875
     0.1875   0.1875   0.1875   0.1875   0.1875   0.1875   0.1875   0.1875
     0.1875   0.1846   0.1815   0.1773   0.1637   0.1609   0.0515   0.0042
     0.0000   0.0000   0.0000   0.0000   0.0000   0.0000

     the Fermi energy is    12.1949 ev

!    total energy              =    -538.29135849 Ry
     Harris-Foulkes estimate   =    -538.29135849 Ry
     estimated scf accuracy    <          4.1E-09 Ry

     The total energy is the sum of the following terms:

     one-electron contribution =     -32.93856109 Ry
     hartree contribution      =      83.66005546 Ry
     xc contribution           =    -199.56523369 Ry
     ewald contribution        =    -389.44315552 Ry
     Hubbard energy            =       0.04146317 Ry
     smearing contrib. (-TS)   =      -0.04592683 Ry

     convergence has been achieved in   8 iterations

     init_run     :      7.80s CPU      8.13s WALL (       1 calls)
     electrons    :    140.19s CPU    142.42s WALL (       1 calls)

     Called by init_run:
     wfcinit      :      0.00s CPU      0.00s WALL (       1 calls)
     potinit      :      0.29s CPU      0.33s WALL (       1 calls)

     Called by electrons:
     c_bands      :     97.07s CPU     97.76s WALL (       8 calls)
     sum_band     :     25.19s CPU     25.43s WALL (       8 calls)
     v_of_rho     :      2.29s CPU      2.32s WALL (       9 calls)
     v_h          :      0.13s CPU      0.13s WALL (       9 calls)
     v_xc         :      2.16s CPU      2.19s WALL (       9 calls)
     newd         :     17.52s CPU     17.62s WALL (       9 calls)
     mix_rho      :      0.23s CPU      0.23s WALL (       8 calls)

     Called by c_bands:
     init_us_2    :      0.81s CPU      0.81s WALL (     224 calls)
     cegterg      :     94.86s CPU     95.40s WALL (     112 calls)

     Called by sum_band:
     sum_band:bec :      0.08s CPU      0.08s WALL (     112 calls)
     addusdens    :     10.61s CPU     10.72s WALL (       8 calls)

     Called by *egterg:
     h_psi        :     68.18s CPU     68.63s WALL (     532 calls)
     s_psi        :      3.32s CPU      3.33s WALL (     532 calls)
     g_psi        :      0.31s CPU      0.31s WALL (     420 calls)
     cdiaghg      :      9.37s CPU      9.39s WALL (     518 calls)
     cegterg:over :      5.72s CPU      5.75s WALL (     420 calls)
     cegterg:upda :      3.08s CPU      3.08s WALL (     420 calls)
     cegterg:last :      1.73s CPU      1.74s WALL (     126 calls)

     Called by h_psi:
     h_psi:vloc   :     56.11s CPU     56.52s WALL (     532 calls)
     h_psi:vnl    :      7.51s CPU      7.53s WALL (     532 calls)
     add_vuspsi   :      3.37s CPU      3.37s WALL (     532 calls)
     vhpsi        :      4.43s CPU      4.45s WALL (     532 calls)

     General routines
     calbec       :      8.69s CPU      8.73s WALL (    1288 calls)
     fft          :      1.89s CPU      2.12s WALL (     139 calls)
     ffts         :      0.04s CPU      0.16s WALL (      17 calls)
     fftw         :     50.52s CPU     50.95s WALL (   33922 calls)
     interpolate  :      0.26s CPU      0.49s WALL (      17 calls)
     davcio       :      0.00s CPU      0.23s WALL (     238 calls)

     Parallel routines
     fft_scatter  :     15.20s CPU     15.94s WALL (   34078 calls)
     Hubbard U routines
     new_ns       :      0.75s CPU      0.85s WALL (       8 calls)
     vhpsi        :      4.43s CPU      4.45s WALL (     532 calls)

     PWSCF        :  2m28.41s CPU     2m31.34s WALL


   This run was terminated on:   8: 4:42  11Nov2012            

=------------------------------------------------------------------------------=
   JOB DONE.
=------------------------------------------------------------------------------=
 
Job Ended on n18 at Sun Nov 11 08:04:43 EST 2012
 
