   JOB DONE.
=------------------------------------------------------------------------------=

     Program PWSCF v.5.0.1 starts on 13Nov2012 at 12:25:24 

     This program is part of the open-source Quantum ESPRESSO suite
     for quantum simulation of materials; please cite
         "P. Giannozzi et al., J. Phys.:Condens. Matter 21 395502 (2009);
          URL http://www.quantum-espresso.org", 
     in publications or presentations arising from this work. More details at
     http://www.quantum-espresso.org/quote.php

     Parallel version (MPI), running on     2 processors
     R & G space division:  proc/pool =    2

     Current dimensions of program PWSCF are:
     Max number of different atomic species (ntypx) = 10
     Max number of k-points (npk) =  40000
     Max angular momentum in pseudopotentials (lmaxx) =  3
     Reading input from CoLaO_U0_a10.in
               file Co.pbe-nd-rrkjus.UPF: wavefunction(s)  4S 3D renormalized
               file O.pbe-rrkjus.UPF: wavefunction(s)  2S renormalized

     Subspace diagonalization in iterative solution of the eigenvalue problem:
     a serial algorithm will be used


     Parallelization info
     --------------------
     sticks:   dense  smooth     PW     G-vecs:    dense   smooth      PW
     Min        1112     444    131                34808     8786    1448
     Max        1113     445    132                34809     8787    1449
     Sum        2225     889    263                69617    17573    2897


     Title: 
     GGA + U, U = 1D-40, alpha = 0.100                                          


     bravais-lattice index     =            5
     lattice parameter (alat)  =      10.3292  a.u.
     unit-cell volume          =     793.0599 (a.u.)^3
     number of atoms/cell      =           10
     number of atomic types    =            4
     number of electrons       =        76.00
     number of Kohn-Sham states=           46
     kinetic-energy cutoff     =      30.0000  Ry
     charge density cutoff     =     300.0000  Ry
     convergence threshold     =      1.0E-08
     mixing beta               =       0.2000
     number of iterations used =            8  plain     mixing
     Exchange-correlation      =  SLA  PW   PBE  PBE ( 1 4 3 4 0)
     EXX-fraction              =        0.00

     celldm(1)=  10.329242  celldm(2)=   0.000000  celldm(3)=   0.000000
     celldm(4)=   0.488100  celldm(5)=   0.000000  celldm(6)=   0.000000

     crystal axes: (cart. coord. in units of alat)
               a(1) = (   0.505915  -0.292090   0.811624 )  
               a(2) = (   0.000000   0.584180   0.811624 )  
               a(3) = (  -0.505915  -0.292090   0.811624 )  

     reciprocal axes: (cart. coord. in units 2 pi/alat)
               b(1) = (  0.988308 -0.570600  0.410699 )  
               b(2) = (  0.000000  1.141200  0.410699 )  
               b(3) = ( -0.988308 -0.570600  0.410699 )  


     PseudoPot. # 1 for Co read from file:
     /home/mcurnan/dft-course/Project1/example_LaCoO3/Co.pbe-nd-rrkjus.UPF
     MD5 check sum: 3e47a84addf5e975e0edeaeee2a73f59
     Pseudo is Ultrasoft + core correction, Zval =  9.0
     Generated by new atomic code, or converted to UPF format
     Using radial grid of  961 points,  6 beta functions with: 
                l(1) =   0
                l(2) =   0
                l(3) =   1
                l(4) =   1
                l(5) =   2
                l(6) =   2
     Q(r) pseudized with 0 coefficients 


     PseudoPot. # 2 for La read from file:
     /home/mcurnan/dft-course/Project1/example_LaCoO3/La.pbe-nsp-van.UPF
     MD5 check sum: b2f11743f52dde65f77d1302becd7929
     Pseudo is Ultrasoft + core correction, Zval = 11.0
     Generated by new atomic code, or converted to UPF format
     Using radial grid of  907 points,  6 beta functions with: 
                l(1) =   0
                l(2) =   0
                l(3) =   1
                l(4) =   1
                l(5) =   2
                l(6) =   2
     Q(r) pseudized with  6 coefficients,  rinner =    1.200   1.200   1.200
                                                       1.200   1.200

     PseudoPot. # 3 for La read from file:
     /home/mcurnan/dft-course/Project1/example_LaCoO3/La.pbe-nsp-van.UPF
     MD5 check sum: b2f11743f52dde65f77d1302becd7929
     Pseudo is Ultrasoft + core correction, Zval = 11.0
     Generated by new atomic code, or converted to UPF format
     Using radial grid of  907 points,  6 beta functions with: 
                l(1) =   0
                l(2) =   0
                l(3) =   1
                l(4) =   1
                l(5) =   2
                l(6) =   2
     Q(r) pseudized with  6 coefficients,  rinner =    1.200   1.200   1.200
                                                       1.200   1.200

     PseudoPot. # 4 for O  read from file:
     /home/mcurnan/dft-course/Project1/example_LaCoO3/O.pbe-rrkjus.UPF
     MD5 check sum: 390ba29e75625707450f3bd3f0eb6be9
     Pseudo is Ultrasoft, Zval =  6.0
     Generated by new atomic code, or converted to UPF format
     Using radial grid of 1269 points,  4 beta functions with: 
                l(1) =   0
                l(2) =   0
                l(3) =   1
                l(4) =   1
     Q(r) pseudized with 0 coefficients 


     atomic species   valence    mass     pseudopotential
        Co1            9.00     1.00000     Co( 1.00)
        La1           11.00     1.00000     La( 1.00)
        La2           11.00     1.00000     La( 1.00)
        O1             6.00     1.00000     O ( 1.00)

     Starting magnetic structure 
     atomic species   magnetization
        Co1          1.000
        La1          0.000
        La2          0.000
        O1           0.000
 -----
     simplified LDA+U calculation, Hubbard_lmax = 2
     atomic species  L   Hubbard U  Hubbard alpha
        Co1          2    0.000000    0.000000
        La1          2    0.000000    0.100000
        La2          2    0.000000    0.000000
        O1           1    0.000000    0.000000
 -----

      3 Sym. Ops. (no inversion) found


                                    s                        frac. trans.

      isym =  1     identity                                     

 cryst.   s( 1) = (     1          0          0      )
                  (     0          1          0      )
                  (     0          0          1      )

 cart.    s( 1) = (  1.0000000  0.0000000  0.0000000 )
                  (  0.0000000  1.0000000  0.0000000 )
                  (  0.0000000  0.0000000  1.0000000 )


      isym =  2     120 deg rotation - cryst. axis [0,0,1]       

 cryst.   s( 2) = (     0          1          0      )
                  (     0          0          1      )
                  (     1          0          0      )

 cart.    s( 2) = ( -0.5000000 -0.8660254  0.0000000 )
                  (  0.8660254 -0.5000000  0.0000000 )
                  (  0.0000000  0.0000000  1.0000000 )


      isym =  3     120 deg rotation - cryst. axis [0,0,-1]      

 cryst.   s( 3) = (     0          0          1      )
                  (     1          0          0      )
                  (     0          1          0      )

 cart.    s( 3) = ( -0.5000000  0.8660254  0.0000000 )
                  ( -0.8660254 -0.5000000  0.0000000 )
                  (  0.0000000  0.0000000  1.0000000 )


     point group C_3 (3)    
     there are  3 classes
     the character table:

       E     C3    C3^2 
A      1.00  1.00  1.00
E      1.00 -0.50 -0.50
E*     1.00 -0.50 -0.50
     imaginary part
A      0.00  0.00  0.00
E      0.00  0.87 -0.87
E*     0.00 -0.87  0.87

     the symmetry operations in each class:
     E        1
     C3       2
     C3^2     3

   Cartesian axes

     site n.     atom                  positions (alat units)
         1           Co1 tau(   1) = (   0.0000000   0.0000000   1.8261537  )
         2           Co1 tau(   2) = (   0.0000000   0.0000000   0.6087179  )
         3           La1 tau(   3) = (   0.0000000   0.0000000   0.0000000  )
         4           La2 tau(   4) = (   0.0000000   0.0000000   1.2174358  )
         5           O1  tau(   5) = (   0.2831100  -0.0928263   1.6236536  )
         6           O1  tau(   6) = (  -0.2219449  -0.1987674   1.6236536  )
         7           O1  tau(   7) = (  -0.0611651   0.2915936   1.6236536  )
         8           O1  tau(   8) = (   0.2228050   0.3849164   1.2170300  )
         9           O1  tau(   9) = (   0.2219449  -0.3854130   1.2170300  )
        10           O1  tau(  10) = (  -0.4447499   0.0004966   1.2170300  )

   Crystallographic axes

     site n.     atom                  positions (cryst. coord.)
         1           Co1 tau(   1) = (  0.7500000  0.7500000  0.7500000  )
         2           Co1 tau(   2) = (  0.2500000  0.2500000  0.2500000  )
         3           La1 tau(   3) = (  0.0000000  0.0000000  0.0000000  )
         4           La2 tau(   4) = (  0.5000000  0.5000000  0.5000000  )
         5           O1  tau(   5) = (  0.9996000  0.5609000  0.4400000  )
         6           O1  tau(   6) = (  0.5609000  0.4400000  0.9996000  )
         7           O1  tau(   7) = (  0.4400000  0.9996000  0.5609000  )
         8           O1  tau(   8) = (  0.5004000  0.9391000  0.0600000  )
         9           O1  tau(   9) = (  0.9391000  0.0600000  0.5004000  )
        10           O1  tau(  10) = (  0.0600000  0.5004000  0.9391000  )

     number of k points=    28  gaussian smearing, width (Ry)=  0.0300
                       cart. coord. in units 2pi/alat
        k(    1) = (   0.0000000   0.0000000   0.0000000), wk =   0.0156250
        k(    2) = (  -0.2470771  -0.1426500   0.1026748), wk =   0.0937500
        k(    3) = (   0.4941541   0.2853000  -0.2053496), wk =   0.0468750
        k(    4) = (  -0.2470771   0.1426500   0.2053496), wk =   0.0937500
        k(    5) = (   0.4941541   0.5706001  -0.1026748), wk =   0.0937500
        k(    6) = (   0.2470771   0.4279500   0.0000000), wk =   0.0937500
        k(    7) = (   0.4941541  -0.2853000  -0.4106993), wk =   0.0468750
        k(    8) = (   0.0000000   0.0000000   0.3080244), wk =   0.0312500
        k(    9) = (   0.7412312   0.4279500   0.0000000), wk =   0.0937500
        k(   10) = (   0.4941541   0.2853000   0.1026748), wk =   0.0937500
        k(   11) = (   0.7412312  -0.4279500  -0.3080244), wk =   0.0937500
        k(   12) = (   0.4941541  -0.5706001  -0.2053496), wk =   0.0937500
        k(   13) = (   0.0000000   0.0000000  -0.6160489), wk =   0.0156250
        k(   14) = (   0.4941541  -0.5706001   0.1026748), wk =   0.0937500
        k(   15) = (   0.0000000   0.0000000   0.0000000), wk =   0.0156250
        k(   16) = (  -0.2470771  -0.1426500   0.1026748), wk =   0.0937500
        k(   17) = (   0.4941541   0.2853000  -0.2053496), wk =   0.0468750
        k(   18) = (  -0.2470771   0.1426500   0.2053496), wk =   0.0937500
        k(   19) = (   0.4941541   0.5706001  -0.1026748), wk =   0.0937500
        k(   20) = (   0.2470771   0.4279500   0.0000000), wk =   0.0937500
        k(   21) = (   0.4941541  -0.2853000  -0.4106993), wk =   0.0468750
        k(   22) = (   0.0000000   0.0000000   0.3080244), wk =   0.0312500
        k(   23) = (   0.7412312   0.4279500   0.0000000), wk =   0.0937500
        k(   24) = (   0.4941541   0.2853000   0.1026748), wk =   0.0937500
        k(   25) = (   0.7412312  -0.4279500  -0.3080244), wk =   0.0937500
        k(   26) = (   0.4941541  -0.5706001  -0.2053496), wk =   0.0937500
        k(   27) = (   0.0000000   0.0000000  -0.6160489), wk =   0.0156250
        k(   28) = (   0.4941541  -0.5706001   0.1026748), wk =   0.0937500

                       cryst. coord.
        k(    1) = (   0.0000000   0.0000000   0.0000000), wk =   0.0156250
        k(    2) = (   0.0000000   0.0000000   0.2500000), wk =   0.0937500
        k(    3) = (   0.0000000   0.0000000  -0.5000000), wk =   0.0468750
        k(    4) = (   0.0000000   0.2500000   0.2500000), wk =   0.0937500
        k(    5) = (   0.0000000   0.2500000  -0.5000000), wk =   0.0937500
        k(    6) = (   0.0000000   0.2500000  -0.2500000), wk =   0.0937500
        k(    7) = (   0.0000000  -0.5000000  -0.5000000), wk =   0.0468750
        k(    8) = (   0.2500000   0.2500000   0.2500000), wk =   0.0312500
        k(    9) = (   0.2500000   0.2500000  -0.5000000), wk =   0.0937500
        k(   10) = (   0.2500000   0.2500000  -0.2500000), wk =   0.0937500
        k(   11) = (   0.2500000  -0.5000000  -0.5000000), wk =   0.0937500
        k(   12) = (   0.2500000  -0.5000000  -0.2500000), wk =   0.0937500
        k(   13) = (  -0.5000000  -0.5000000  -0.5000000), wk =   0.0156250
        k(   14) = (   0.5000000  -0.2500000   0.0000000), wk =   0.0937500
        k(   15) = (   0.0000000   0.0000000   0.0000000), wk =   0.0156250
        k(   16) = (   0.0000000   0.0000000   0.2500000), wk =   0.0937500
        k(   17) = (   0.0000000   0.0000000  -0.5000000), wk =   0.0468750
        k(   18) = (   0.0000000   0.2500000   0.2500000), wk =   0.0937500
        k(   19) = (   0.0000000   0.2500000  -0.5000000), wk =   0.0937500
        k(   20) = (   0.0000000   0.2500000  -0.2500000), wk =   0.0937500
        k(   21) = (   0.0000000  -0.5000000  -0.5000000), wk =   0.0468750
        k(   22) = (   0.2500000   0.2500000   0.2500000), wk =   0.0312500
        k(   23) = (   0.2500000   0.2500000  -0.5000000), wk =   0.0937500
        k(   24) = (   0.2500000   0.2500000  -0.2500000), wk =   0.0937500
        k(   25) = (   0.2500000  -0.5000000  -0.5000000), wk =   0.0937500
        k(   26) = (   0.2500000  -0.5000000  -0.2500000), wk =   0.0937500
        k(   27) = (  -0.5000000  -0.5000000  -0.5000000), wk =   0.0156250
        k(   28) = (   0.5000000  -0.2500000   0.0000000), wk =   0.0937500

     Dense  grid:    69617 G-vectors     FFT dimensions: (  60,  60,  60)

     Smooth grid:    17573 G-vectors     FFT dimensions: (  40,  40,  40)

     Largest allocated arrays     est. size (Mb)     dimensions
        Kohn-Sham Wavefunctions         0.78 Mb     (   1117,   46)
        Atomic wavefunctions            1.06 Mb     (   1117,   62)
        NL pseudopotentials             2.05 Mb     (   1117,  120)
        Each V/rho on FFT grid          3.30 Mb     ( 108000,   2)
        Each G-vector array             0.27 Mb     (  34808)
        G-vector shells                 0.04 Mb     (   4682)
     Largest temporary arrays     est. size (Mb)     dimensions
        Auxiliary wavefunctions         3.14 Mb     (   1117,  184)
        Each subspace H/S matrix        0.52 Mb     ( 184, 184)
        Each <psi_i|beta_j> matrix      0.08 Mb     (    120,   46)
        Arrays for rho mixing          13.18 Mb     ( 108000,   8)

     Check: negative/imaginary core charge=   -0.000028    0.000000

     The initial density is read from file :
     /home/mcurnan/dft-course/Project1/example_LaCoO3/0/La/alpha/CoLaO_U0.save/charge-density.dat

 --- in v_hubbard ---
Hubbard energy    0.0280
 -------
     Number of +U iterations with fixed ns =  0
     Starting occupations:
 --- enter write_ns ---
 LDA+U parameters:
U( 1)     =  0.00000000
alpha( 1) =  0.00000000
U( 2)     =  0.00000000
alpha( 2) =  0.10000000
U( 3)     =  0.00000000
alpha( 3) =  0.00000000
U( 4)     =  0.00000000
alpha( 4) =  0.00000000
atom    1   Tr[ns(na)] (up, down, total) =   4.56594  3.37373  7.93967
   spin  1
    eigenvalues: 
  0.785  0.785  0.999  0.999  0.999
    eigenvectors:
  0.000  0.000  0.000  0.000  1.000
  0.423  0.223  0.056  0.298  0.000
  0.223  0.423  0.298  0.056  0.000
  0.346  0.008  0.556  0.090  0.000
  0.008  0.346  0.090  0.556  0.000
    occupations:
  0.999  0.000  0.000  0.000  0.000
  0.000  0.861  0.000 -0.073  0.072
  0.000  0.000  0.861  0.072  0.073
  0.000 -0.073  0.072  0.923  0.000
  0.000  0.072  0.073  0.000  0.923
   spin  2
    eigenvalues: 
  0.474  0.474  0.773  0.826  0.826
    eigenvectors:
  0.000  0.000  1.000  0.000  0.000
  0.277  0.362  0.000  0.034  0.327
  0.362  0.277  0.000  0.327  0.034
  0.278  0.083  0.000  0.476  0.163
  0.083  0.278  0.000  0.163  0.476
    occupations:
  0.773  0.000  0.000  0.000  0.000
  0.000  0.601  0.000 -0.037  0.165
  0.000  0.000  0.601  0.165  0.037
  0.000 -0.037  0.165  0.699  0.000
  0.000  0.165  0.037  0.000  0.699
atomic mag. moment =     1.192216
atom    2   Tr[ns(na)] (up, down, total) =   4.67286  3.22479  7.89766
   spin  1
    eigenvalues: 
  0.838  0.838  0.999  0.999  0.999
    eigenvectors:
  0.000  0.000  0.000  0.000  1.000
  0.643  0.003  0.325  0.029  0.000
  0.003  0.643  0.029  0.325  0.000
  0.152  0.202  0.500  0.146  0.000
  0.202  0.152  0.146  0.500  0.000
    occupations:
  0.999  0.000  0.000  0.000  0.000
  0.000  0.895  0.000  0.054  0.054
  0.000  0.000  0.895  0.054 -0.054
  0.000  0.054  0.054  0.942  0.000
  0.000  0.054 -0.054  0.000  0.942
   spin  2
    eigenvalues: 
  0.459  0.459  0.730  0.788  0.788
    eigenvectors:
  0.000  0.000  1.000  0.000  0.000
  0.508  0.128  0.000  0.189  0.175
  0.128  0.508  0.000  0.175  0.189
  0.020  0.345  0.000  0.447  0.188
  0.345  0.020  0.000  0.188  0.447
    occupations:
  0.730  0.000  0.000  0.000  0.000
  0.000  0.579  0.000  0.036  0.154
  0.000  0.000  0.579  0.154 -0.036
  0.000  0.036  0.154  0.668  0.000
  0.000  0.154 -0.036  0.000  0.668
atomic mag. moment =     1.448071
atom    3   Tr[ns(na)] (up, down, total) =   1.91458  1.90025  3.81482
   spin  1
    eigenvalues: 
  0.357  0.357  0.387  0.407  0.407
    eigenvectors:
  0.000  0.000  1.000  0.000  0.000
  0.786  0.138  0.000  0.011  0.065
  0.138  0.786  0.000  0.065  0.011
  0.012  0.064  0.000  0.785  0.139
  0.064  0.012  0.000  0.139  0.785
    occupations:
  0.387  0.000  0.000  0.000  0.000
  0.000  0.361  0.000  0.000  0.013
  0.000  0.000  0.361  0.013  0.000
  0.000  0.000  0.013  0.403  0.000
  0.000  0.013  0.000  0.000  0.403
   spin  2
    eigenvalues: 
  0.353  0.353  0.387  0.404  0.404
    eigenvectors:
  0.000  0.000  1.000  0.000  0.000
  0.765  0.145  0.000  0.013  0.077
  0.145  0.765  0.000  0.077  0.013
  0.015  0.074  0.000  0.768  0.142
  0.074  0.015  0.000  0.142  0.768
    occupations:
  0.387  0.000  0.000  0.000  0.000
  0.000  0.358  0.000  0.000  0.015
  0.000  0.000  0.358  0.015  0.000
  0.000  0.000  0.015  0.399  0.000
  0.000  0.015  0.000  0.000  0.399
atomic mag. moment =     0.014329
atom    4   Tr[ns(na)] (up, down, total) =   1.91458  1.90025  3.81482
   spin  1
    eigenvalues: 
  0.357  0.357  0.387  0.407  0.407
    eigenvectors:
  0.000  0.000  1.000  0.000  0.000
  0.786  0.138  0.000  0.011  0.065
  0.138  0.786  0.000  0.065  0.011
  0.012  0.064  0.000  0.785  0.139
  0.064  0.012  0.000  0.139  0.785
    occupations:
  0.387  0.000  0.000  0.000  0.000
  0.000  0.361  0.000  0.000  0.013
  0.000  0.000  0.361  0.013  0.000
  0.000  0.000  0.013  0.403  0.000
  0.000  0.013  0.000  0.000  0.403
   spin  2
    eigenvalues: 
  0.353  0.353  0.387  0.404  0.404
    eigenvectors:
  0.000  0.000  1.000  0.000  0.000
  0.765  0.145  0.000  0.013  0.077
  0.145  0.765  0.000  0.077  0.013
  0.015  0.074  0.000  0.768  0.142
  0.074  0.015  0.000  0.142  0.768
    occupations:
  0.387  0.000  0.000  0.000  0.000
  0.000  0.358  0.000  0.000  0.015
  0.000  0.000  0.358  0.015  0.000
  0.000  0.000  0.015  0.399  0.000
  0.000  0.015  0.000  0.000  0.399
atomic mag. moment =     0.014329
atom    5   Tr[ns(na)] (up, down, total) =   2.74225  2.70308  5.44533
   spin  1
    eigenvalues: 
  0.844  0.947  0.951
    eigenvectors:
  0.337  0.000  0.663
  0.508  0.244  0.248
  0.155  0.756  0.089
    occupations:
  0.915 -0.044  0.025
 -0.044  0.896  0.029
  0.025  0.029  0.932
   spin  2
    eigenvalues: 
  0.864  0.920  0.920
    eigenvectors:
  0.333  0.053  0.613
  0.514  0.100  0.386
  0.153  0.847  0.000
    occupations:
  0.901 -0.023  0.013
 -0.023  0.891  0.016
  0.013  0.016  0.911
atomic mag. moment =     0.039174
atom    6   Tr[ns(na)] (up, down, total) =   2.74225  2.70308  5.44533
   spin  1
    eigenvalues: 
  0.844  0.947  0.951
    eigenvectors:
  0.337  0.000  0.663
  0.487  0.256  0.257
  0.176  0.744  0.080
    occupations:
  0.915  0.044  0.026
  0.044  0.898 -0.030
  0.026 -0.030  0.929
   spin  2
    eigenvalues: 
  0.864  0.920  0.920
    eigenvectors:
  0.333  0.053  0.613
  0.486  0.408  0.106
  0.181  0.539  0.280
    occupations:
  0.901  0.022  0.014
  0.022  0.893 -0.016
  0.014 -0.016  0.910
atomic mag. moment =     0.039174
atom    7   Tr[ns(na)] (up, down, total) =   2.74225  2.70308  5.44533
   spin  1
    eigenvalues: 
  0.844  0.947  0.951
    eigenvectors:
  0.337  0.000  0.663
  0.000  1.000  0.000
  0.663  0.000  0.337
    occupations:
  0.915  0.001 -0.051
  0.001  0.947  0.001
 -0.051  0.001  0.880
   spin  2
    eigenvalues: 
  0.864  0.920  0.920
    eigenvectors:
  0.333  0.053  0.613
  0.000  0.912  0.087
  0.666  0.035  0.299
    occupations:
  0.901  0.001 -0.026
  0.001  0.920  0.001
 -0.026  0.001  0.883
atomic mag. moment =     0.039174
atom    8   Tr[ns(na)] (up, down, total) =   2.74225  2.70308  5.44533
   spin  1
    eigenvalues: 
  0.844  0.947  0.951
    eigenvectors:
  0.337  0.000  0.663
  0.508  0.244  0.248
  0.155  0.756  0.089
    occupations:
  0.915 -0.044  0.025
 -0.044  0.896  0.029
  0.025  0.029  0.932
   spin  2
    eigenvalues: 
  0.864  0.920  0.920
    eigenvectors:
  0.333  0.053  0.613
  0.514  0.100  0.386
  0.153  0.847  0.000
    occupations:
  0.901 -0.023  0.013
 -0.023  0.891  0.016
  0.013  0.016  0.911
atomic mag. moment =     0.039174
atom    9   Tr[ns(na)] (up, down, total) =   2.74225  2.70308  5.44533
   spin  1
    eigenvalues: 
  0.844  0.947  0.951
    eigenvectors:
  0.337  0.000  0.663
  0.487  0.256  0.257
  0.176  0.744  0.080
    occupations:
  0.915  0.044  0.026
  0.044  0.898 -0.030
  0.026 -0.030  0.929
   spin  2
    eigenvalues: 
  0.864  0.920  0.920
    eigenvectors:
  0.333  0.053  0.613
  0.486  0.408  0.106
  0.181  0.539  0.280
    occupations:
  0.901  0.022  0.014
  0.022  0.893 -0.016
  0.014 -0.016  0.910
atomic mag. moment =     0.039174
atom   10   Tr[ns(na)] (up, down, total) =   2.74225  2.70308  5.44533
   spin  1
    eigenvalues: 
  0.844  0.947  0.951
    eigenvectors:
  0.337  0.000  0.663
  0.000  1.000  0.000
  0.663  0.000  0.337
    occupations:
  0.915  0.001 -0.051
  0.001  0.947  0.001
 -0.051  0.001  0.880
   spin  2
    eigenvalues: 
  0.864  0.920  0.920
    eigenvectors:
  0.333  0.053  0.613
  0.000  0.912  0.087
  0.666  0.035  0.299
    occupations:
  0.901  0.001 -0.026
  0.001  0.920  0.001
 -0.026  0.001  0.883
atomic mag. moment =     0.039174
N of occupied +U levels =  56.1389484
 --- exit write_ns ---
 LDA+U Projector read from file 
     Starting wfc from file

     total cpu time spent up to now is        9.5 secs

     per-process dynamical memory:    67.0 Mb

     Self-consistent Calculation

     iteration #  1     ecut=    30.00 Ry     beta=0.20
     Davidson diagonalization with overlap
     c_bands:  1 eigenvalues not converged
     c_bands:  1 eigenvalues not converged
     c_bands:  1 eigenvalues not converged
     c_bands:  1 eigenvalues not converged
     c_bands:  1 eigenvalues not converged
     c_bands:  1 eigenvalues not converged
     c_bands:  1 eigenvalues not converged
     c_bands:  1 eigenvalues not converged
     c_bands:  1 eigenvalues not converged
     c_bands:  1 eigenvalues not converged
     c_bands:  1 eigenvalues not converged
     c_bands:  1 eigenvalues not converged
     c_bands:  1 eigenvalues not converged
     c_bands:  1 eigenvalues not converged
     c_bands:  1 eigenvalues not converged
     c_bands:  1 eigenvalues not converged
     c_bands:  1 eigenvalues not converged
     c_bands:  1 eigenvalues not converged
     c_bands:  1 eigenvalues not converged
     ethr =  1.00E-10,  avg # of iterations = 18.5
 --- enter write_ns ---
 LDA+U parameters:
U( 1)     =  0.00000000
alpha( 1) =  0.00000000
U( 2)     =  0.00000000
alpha( 2) =  0.10000000
U( 3)     =  0.00000000
alpha( 3) =  0.00000000
U( 4)     =  0.00000000
alpha( 4) =  0.00000000
atom    1   Tr[ns(na)] (up, down, total) =   4.56625  3.37528  7.94153
   spin  1
    eigenvalues: 
  0.785  0.785  0.999  0.999  0.999
    eigenvectors:
  0.000  0.000  0.000  0.000  1.000
  0.423  0.223  0.056  0.298  0.000
  0.223  0.423  0.298  0.056  0.000
  0.346  0.008  0.557  0.090  0.000
  0.008  0.346  0.090  0.557  0.000
    occupations:
  0.999  0.000  0.000  0.000  0.000
  0.000  0.861  0.000 -0.073  0.072
  0.000  0.000  0.861  0.072  0.073
  0.000 -0.073  0.072  0.923  0.000
  0.000  0.072  0.073  0.000  0.923
   spin  2
    eigenvalues: 
  0.474  0.474  0.773  0.826  0.826
    eigenvectors:
  0.000  0.000  1.000  0.000  0.000
  0.277  0.362  0.000  0.034  0.327
  0.362  0.277  0.000  0.327  0.034
  0.278  0.083  0.000  0.476  0.163
  0.083  0.278  0.000  0.163  0.476
    occupations:
  0.773  0.000  0.000  0.000  0.000
  0.000  0.602  0.000 -0.037  0.165
  0.000  0.000  0.602  0.165  0.037
  0.000 -0.037  0.165  0.699  0.000
  0.000  0.165  0.037  0.000  0.699
atomic mag. moment =     1.190972
atom    2   Tr[ns(na)] (up, down, total) =   4.67276  3.22458  7.89734
   spin  1
    eigenvalues: 
  0.838  0.838  0.999  0.999  0.999
    eigenvectors:
  0.000  0.000  0.000  0.000  1.000
  0.643  0.003  0.325  0.029  0.000
  0.003  0.643  0.029  0.325  0.000
  0.152  0.202  0.500  0.146  0.000
  0.202  0.152  0.146  0.500  0.000
    occupations:
  0.999  0.000  0.000  0.000  0.000
  0.000  0.895  0.000  0.054  0.054
  0.000  0.000  0.895  0.054 -0.054
  0.000  0.054  0.054  0.942  0.000
  0.000  0.054 -0.054  0.000  0.942
   spin  2
    eigenvalues: 
  0.460  0.460  0.730  0.788  0.788
    eigenvectors:
  0.000  0.000  1.000  0.000  0.000
  0.507  0.128  0.000  0.189  0.176
  0.128  0.507  0.000  0.176  0.189
  0.020  0.344  0.000  0.447  0.188
  0.344  0.020  0.000  0.188  0.447
    occupations:
  0.730  0.000  0.000  0.000  0.000
  0.000  0.579  0.000  0.036  0.154
  0.000  0.000  0.579  0.154 -0.036
  0.000  0.036  0.154  0.668  0.000
  0.000  0.154 -0.036  0.000  0.668
atomic mag. moment =     1.448183
atom    3   Tr[ns(na)] (up, down, total) =   1.89636  1.88195  3.77831
   spin  1
    eigenvalues: 
  0.353  0.353  0.383  0.403  0.403
    eigenvectors:
  0.000  0.000  1.000  0.000  0.000
  0.783  0.139  0.000  0.011  0.067
  0.139  0.783  0.000  0.067  0.011
  0.012  0.065  0.000  0.783  0.139
  0.065  0.012  0.000  0.139  0.783
    occupations:
  0.383  0.000  0.000  0.000  0.000
  0.000  0.357  0.000  0.000  0.013
  0.000  0.000  0.357  0.013  0.000
  0.000  0.000  0.013  0.400  0.000
  0.000  0.013  0.000  0.000  0.400
   spin  2
    eigenvalues: 
  0.349  0.349  0.383  0.400  0.400
    eigenvectors:
  0.000  0.000  1.000  0.000  0.000
  0.762  0.146  0.000  0.013  0.078
  0.146  0.762  0.000  0.078  0.013
  0.016  0.076  0.000  0.766  0.143
  0.076  0.016  0.000  0.143  0.766
    occupations:
  0.383  0.000  0.000  0.000  0.000
  0.000  0.354  0.000  0.000  0.015
  0.000  0.000  0.354  0.015  0.000
  0.000  0.000  0.015  0.396  0.000
  0.000  0.015  0.000  0.000  0.396
atomic mag. moment =     0.014406
atom    4   Tr[ns(na)] (up, down, total) =   1.91376  1.89940  3.81316
   spin  1
    eigenvalues: 
  0.357  0.357  0.387  0.407  0.407
    eigenvectors:
  0.000  0.000  1.000  0.000  0.000
  0.786  0.138  0.000  0.011  0.065
  0.138  0.786  0.000  0.065  0.011
  0.012  0.064  0.000  0.785  0.139
  0.064  0.012  0.000  0.139  0.785
    occupations:
  0.387  0.000  0.000  0.000  0.000
  0.000  0.361  0.000  0.000  0.013
  0.000  0.000  0.361  0.013  0.000
  0.000  0.000  0.013  0.403  0.000
  0.000  0.013  0.000  0.000  0.403
   spin  2
    eigenvalues: 
  0.353  0.353  0.387  0.404  0.404
    eigenvectors:
  0.000  0.000  1.000  0.000  0.000
  0.764  0.145  0.000  0.013  0.077
  0.145  0.764  0.000  0.077  0.013
  0.016  0.075  0.000  0.767  0.142
  0.075  0.016  0.000  0.142  0.767
    occupations:
  0.387  0.000  0.000  0.000  0.000
  0.000  0.357  0.000  0.000  0.015
  0.000  0.000  0.357  0.015  0.000
  0.000  0.000  0.015  0.399  0.000
  0.000  0.015  0.000  0.000  0.399
atomic mag. moment =     0.014353
atom    5   Tr[ns(na)] (up, down, total) =   2.74356  2.70417  5.44773
   spin  1
    eigenvalues: 
  0.844  0.948  0.952
    eigenvectors:
  0.337  0.000  0.663
  0.508  0.244  0.248
  0.156  0.755  0.089
    occupations:
  0.915 -0.045  0.025
 -0.045  0.896  0.029
  0.025  0.029  0.932
   spin  2
    eigenvalues: 
  0.864  0.920  0.920
    eigenvectors:
  0.333  0.659  0.007
  0.514  0.206  0.281
  0.153  0.135  0.712
    occupations:
  0.901 -0.023  0.013
 -0.023  0.891  0.016
  0.013  0.016  0.912
atomic mag. moment =     0.039395
atom    6   Tr[ns(na)] (up, down, total) =   2.74356  2.70417  5.44773
   spin  1
    eigenvalues: 
  0.844  0.948  0.952
    eigenvectors:
  0.337  0.000  0.663
  0.487  0.256  0.257
  0.176  0.744  0.080
    occupations:
  0.915  0.044  0.026
  0.044  0.898 -0.030
  0.026 -0.030  0.930
   spin  2
    eigenvalues: 
  0.864  0.920  0.920
    eigenvectors:
  0.333  0.659  0.007
  0.486  0.297  0.217
  0.181  0.044  0.776
    occupations:
  0.901  0.022  0.014
  0.022  0.893 -0.017
  0.014 -0.017  0.910
atomic mag. moment =     0.039395
atom    7   Tr[ns(na)] (up, down, total) =   2.74356  2.70417  5.44773
   spin  1
    eigenvalues: 
  0.844  0.948  0.952
    eigenvectors:
  0.337  0.000  0.663
  0.000  1.000  0.000
  0.663  0.000  0.337
    occupations:
  0.915  0.001 -0.051
  0.001  0.948  0.001
 -0.051  0.001  0.880
   spin  2
    eigenvalues: 
  0.864  0.920  0.920
    eigenvectors:
  0.333  0.659  0.007
  0.000  0.008  0.991
  0.666  0.332  0.001
    occupations:
  0.901  0.001 -0.026
  0.001  0.920  0.001
 -0.026  0.001  0.883
atomic mag. moment =     0.039395
atom    8   Tr[ns(na)] (up, down, total) =   2.74341  2.70410  5.44752
   spin  1
    eigenvalues: 
  0.844  0.948  0.952
    eigenvectors:
  0.337  0.000  0.663
  0.508  0.243  0.249
  0.156  0.757  0.088
    occupations:
  0.916 -0.045  0.025
 -0.045  0.896  0.028
  0.025  0.028  0.932
   spin  2
    eigenvalues: 
  0.864  0.920  0.920
    eigenvectors:
  0.333  0.000  0.666
  0.514  0.219  0.267
  0.153  0.781  0.066
    occupations:
  0.902 -0.023  0.013
 -0.023  0.891  0.016
  0.013  0.016  0.911
atomic mag. moment =     0.039310
atom    9   Tr[ns(na)] (up, down, total) =   2.74341  2.70410  5.44752
   spin  1
    eigenvalues: 
  0.844  0.948  0.952
    eigenvectors:
  0.337  0.000  0.663
  0.487  0.257  0.256
  0.176  0.743  0.081
    occupations:
  0.916  0.044  0.026
  0.044  0.898 -0.030
  0.026 -0.030  0.930
   spin  2
    eigenvalues: 
  0.864  0.920  0.920
    eigenvectors:
  0.333  0.000  0.666
  0.486  0.282  0.232
  0.181  0.717  0.102
    occupations:
  0.902  0.023  0.014
  0.023  0.893 -0.016
  0.014 -0.016  0.910
atomic mag. moment =     0.039310
atom   10   Tr[ns(na)] (up, down, total) =   2.74341  2.70410  5.44752
   spin  1
    eigenvalues: 
  0.844  0.948  0.952
    eigenvectors:
  0.337  0.000  0.663
  0.000  1.000  0.000
  0.663  0.000  0.337
    occupations:
  0.916  0.001 -0.051
  0.001  0.948  0.001
 -0.051  0.001  0.880
   spin  2
    eigenvalues: 
  0.864  0.920  0.920
    eigenvectors:
  0.333  0.000  0.666
  0.000  0.998  0.001
  0.666  0.001  0.332
    occupations:
  0.902  0.001 -0.027
  0.001  0.920  0.001
 -0.027  0.001  0.883
atomic mag. moment =     0.039310
N of occupied +U levels =  56.1160963
 --- exit write_ns ---
 --- in v_hubbard ---
Hubbard energy    0.0280
 -------

     total cpu time spent up to now is       88.9 secs

     total energy              =    -538.32749237 Ry
     Harris-Foulkes estimate   =    -538.32752118 Ry
     estimated scf accuracy    <       0.00009496 Ry

     total magnetization       =     3.54 Bohr mag/cell
     absolute magnetization    =     3.69 Bohr mag/cell

     iteration #  2     ecut=    30.00 Ry     beta=0.20
     Davidson diagonalization with overlap
     ethr =  1.25E-07,  avg # of iterations =  1.2
 --- enter write_ns ---
 LDA+U parameters:
U( 1)     =  0.00000000
alpha( 1) =  0.00000000
U( 2)     =  0.00000000
alpha( 2) =  0.10000000
U( 3)     =  0.00000000
alpha( 3) =  0.00000000
U( 4)     =  0.00000000
alpha( 4) =  0.00000000
atom    1   Tr[ns(na)] (up, down, total) =   4.56465  3.36819  7.93284
   spin  1
    eigenvalues: 
  0.784  0.784  0.999  0.999  0.999
    eigenvectors:
  0.000  0.000  0.000  0.000  1.000
  0.423  0.223  0.056  0.298  0.000
  0.223  0.423  0.298  0.056  0.000
  0.346  0.008  0.557  0.090  0.000
  0.008  0.346  0.090  0.557  0.000
    occupations:
  0.999  0.000  0.000  0.000  0.000
  0.000  0.860  0.000 -0.073  0.072
  0.000  0.000  0.860  0.072  0.073
  0.000 -0.073  0.072  0.923  0.000
  0.000  0.072  0.073  0.000  0.923
   spin  2
    eigenvalues: 
  0.474  0.474  0.771  0.824  0.824
    eigenvectors:
  0.000  0.000  1.000  0.000  0.000
  0.276  0.363  0.000  0.034  0.327
  0.363  0.276  0.000  0.327  0.034
  0.278  0.083  0.000  0.476  0.163
  0.083  0.278  0.000  0.163  0.476
    occupations:
  0.771  0.000  0.000  0.000  0.000
  0.000  0.601  0.000 -0.036  0.164
  0.000  0.000  0.601  0.164  0.036
  0.000 -0.036  0.164  0.698  0.000
  0.000  0.164  0.036  0.000  0.698
atomic mag. moment =     1.196454
atom    2   Tr[ns(na)] (up, down, total) =   4.67420  3.23298  7.90718
   spin  1
    eigenvalues: 
  0.839  0.839  0.999  0.999  0.999
    eigenvectors:
  0.000  0.000  0.000  0.000  1.000
  0.643  0.003  0.325  0.029  0.000
  0.003  0.643  0.029  0.325  0.000
  0.152  0.202  0.499  0.147  0.000
  0.202  0.152  0.147  0.499  0.000
    occupations:
  0.999  0.000  0.000  0.000  0.000
  0.000  0.895  0.000  0.054  0.054
  0.000  0.000  0.895  0.054 -0.054
  0.000  0.054  0.054  0.942  0.000
  0.000  0.054 -0.054  0.000  0.942
   spin  2
    eigenvalues: 
  0.460  0.460  0.732  0.790  0.790
    eigenvectors:
  0.000  0.000  1.000  0.000  0.000
  0.510  0.125  0.000  0.190  0.175
  0.125  0.510  0.000  0.175  0.190
  0.019  0.346  0.000  0.447  0.188
  0.346  0.019  0.000  0.188  0.447
    occupations:
  0.732  0.000  0.000  0.000  0.000
  0.000  0.580  0.000  0.036  0.155
  0.000  0.000  0.580  0.155 -0.036
  0.000  0.036  0.155  0.670  0.000
  0.000  0.155 -0.036  0.000  0.670
atomic mag. moment =     1.441217
atom    3   Tr[ns(na)] (up, down, total) =   1.89822  1.88382  3.78203
   spin  1
    eigenvalues: 
  0.353  0.353  0.384  0.404  0.404
    eigenvectors:
  0.000  0.000  1.000  0.000  0.000
  0.784  0.139  0.000  0.011  0.066
  0.139  0.784  0.000  0.066  0.011
  0.012  0.065  0.000  0.783  0.139
  0.065  0.012  0.000  0.139  0.783
    occupations:
  0.384  0.000  0.000  0.000  0.000
  0.000  0.357  0.000  0.000  0.013
  0.000  0.000  0.357  0.013  0.000
  0.000  0.000  0.013  0.400  0.000
  0.000  0.013  0.000  0.000  0.400
   spin  2
    eigenvalues: 
  0.349  0.349  0.384  0.401  0.401
    eigenvectors:
  0.000  0.000  1.000  0.000  0.000
  0.763  0.146  0.000  0.013  0.078
  0.146  0.763  0.000  0.078  0.013
  0.016  0.076  0.000  0.766  0.143
  0.076  0.016  0.000  0.143  0.766
    occupations:
  0.384  0.000  0.000  0.000  0.000
  0.000  0.354  0.000  0.000  0.015
  0.000  0.000  0.354  0.015  0.000
  0.000  0.000  0.015  0.396  0.000
  0.000  0.015  0.000  0.000  0.396
atomic mag. moment =     0.014397
atom    4   Tr[ns(na)] (up, down, total) =   1.91449  1.90014  3.81463
   spin  1
    eigenvalues: 
  0.357  0.357  0.387  0.407  0.407
    eigenvectors:
  0.000  0.000  1.000  0.000  0.000
  0.786  0.138  0.000  0.011  0.065
  0.138  0.786  0.000  0.065  0.011
  0.012  0.064  0.000  0.785  0.139
  0.064  0.012  0.000  0.139  0.785
    occupations:
  0.387  0.000  0.000  0.000  0.000
  0.000  0.361  0.000  0.000  0.013
  0.000  0.000  0.361  0.013  0.000
  0.000  0.000  0.013  0.403  0.000
  0.000  0.013  0.000  0.000  0.403
   spin  2
    eigenvalues: 
  0.353  0.353  0.387  0.404  0.404
    eigenvectors:
  0.000  0.000  1.000  0.000  0.000
  0.765  0.145  0.000  0.013  0.077
  0.145  0.765  0.000  0.077  0.013
  0.015  0.074  0.000  0.768  0.142
  0.074  0.015  0.000  0.142  0.768
    occupations:
  0.387  0.000  0.000  0.000  0.000
  0.000  0.358  0.000  0.000  0.015
  0.000  0.000  0.358  0.015  0.000
  0.000  0.000  0.015  0.399  0.000
  0.000  0.015  0.000  0.000  0.399
atomic mag. moment =     0.014352
atom    5   Tr[ns(na)] (up, down, total) =   2.74315  2.70375  5.44690
   spin  1
    eigenvalues: 
  0.844  0.948  0.951
    eigenvectors:
  0.337  0.000  0.663
  0.508  0.244  0.248
  0.155  0.756  0.089
    occupations:
  0.915 -0.045  0.025
 -0.045  0.896  0.029
  0.025  0.029  0.932
   spin  2
    eigenvalues: 
  0.864  0.920  0.920
    eigenvectors:
  0.333  0.661  0.006
  0.513  0.211  0.276
  0.154  0.128  0.718
    occupations:
  0.901 -0.023  0.013
 -0.023  0.891  0.016
  0.013  0.016  0.911
atomic mag. moment =     0.039404
atom    6   Tr[ns(na)] (up, down, total) =   2.74315  2.70375  5.44690
   spin  1
    eigenvalues: 
  0.844  0.948  0.951
    eigenvectors:
  0.337  0.000  0.663
  0.487  0.256  0.258
  0.177  0.744  0.079
    occupations:
  0.915  0.044  0.026
  0.044  0.898 -0.030
  0.026 -0.030  0.930
   spin  2
    eigenvalues: 
  0.864  0.920  0.920
    eigenvectors:
  0.333  0.661  0.006
  0.487  0.291  0.222
  0.180  0.048  0.772
    occupations:
  0.901  0.022  0.014
  0.022  0.893 -0.017
  0.014 -0.017  0.910
atomic mag. moment =     0.039404
atom    7   Tr[ns(na)] (up, down, total) =   2.74315  2.70375  5.44690
   spin  1
    eigenvalues: 
  0.844  0.948  0.951
    eigenvectors:
  0.337  0.000  0.663
  0.000  1.000  0.000
  0.663  0.000  0.337
    occupations:
  0.915  0.001 -0.051
  0.001  0.948  0.001
 -0.051  0.001  0.880
   spin  2
    eigenvalues: 
  0.864  0.920  0.920
    eigenvectors:
  0.333  0.661  0.006
  0.000  0.006  0.993
  0.666  0.333  0.001
    occupations:
  0.901  0.001 -0.026
  0.001  0.920  0.001
 -0.026  0.001  0.883
atomic mag. moment =     0.039404
atom    8   Tr[ns(na)] (up, down, total) =   2.74310  2.70379  5.44688
   spin  1
    eigenvalues: 
  0.844  0.947  0.952
    eigenvectors:
  0.337  0.000  0.663
  0.508  0.243  0.249
  0.155  0.757  0.088
    occupations:
  0.915 -0.045  0.025
 -0.045  0.896  0.028
  0.025  0.028  0.932
   spin  2
    eigenvalues: 
  0.864  0.920  0.920
    eigenvectors:
  0.333  0.000  0.666
  0.513  0.220  0.267
  0.154  0.780  0.066
    occupations:
  0.901 -0.023  0.013
 -0.023  0.891  0.016
  0.013  0.016  0.911
atomic mag. moment =     0.039313
atom    9   Tr[ns(na)] (up, down, total) =   2.74310  2.70379  5.44688
   spin  1
    eigenvalues: 
  0.844  0.947  0.952
    eigenvectors:
  0.337  0.000  0.663
  0.487  0.257  0.257
  0.177  0.743  0.080
    occupations:
  0.915  0.044  0.026
  0.044  0.898 -0.030
  0.026 -0.030  0.930
   spin  2
    eigenvalues: 
  0.864  0.920  0.920
    eigenvectors:
  0.333  0.000  0.666
  0.487  0.281  0.232
  0.180  0.719  0.102
    occupations:
  0.901  0.023  0.014
  0.023  0.893 -0.016
  0.014 -0.016  0.910
atomic mag. moment =     0.039313
atom   10   Tr[ns(na)] (up, down, total) =   2.74310  2.70379  5.44688
   spin  1
    eigenvalues: 
  0.844  0.947  0.952
    eigenvectors:
  0.337  0.000  0.663
  0.000  1.000  0.000
  0.663  0.000  0.337
    occupations:
  0.915  0.001 -0.051
  0.001  0.947  0.001
 -0.051  0.001  0.880
   spin  2
    eigenvalues: 
  0.864  0.920  0.920
    eigenvectors:
  0.333  0.000  0.666
  0.000  0.998  0.001
  0.666  0.001  0.332
    occupations:
  0.901  0.001 -0.027
  0.001  0.920  0.001
 -0.027  0.001  0.883
atomic mag. moment =     0.039313
N of occupied +U levels =  56.1180486
 --- exit write_ns ---
 --- in v_hubbard ---
Hubbard energy    0.0280
 -------

     total cpu time spent up to now is      116.5 secs

     total energy              =    -538.32748201 Ry
     Harris-Foulkes estimate   =    -538.32750058 Ry
     estimated scf accuracy    <       0.00015681 Ry

     total magnetization       =     3.54 Bohr mag/cell
     absolute magnetization    =     3.69 Bohr mag/cell

     iteration #  3     ecut=    30.00 Ry     beta=0.20
     Davidson diagonalization with overlap
     ethr =  1.25E-07,  avg # of iterations =  1.0
 --- enter write_ns ---
 LDA+U parameters:
U( 1)     =  0.00000000
alpha( 1) =  0.00000000
U( 2)     =  0.00000000
alpha( 2) =  0.10000000
U( 3)     =  0.00000000
alpha( 3) =  0.00000000
U( 4)     =  0.00000000
alpha( 4) =  0.00000000
atom    1   Tr[ns(na)] (up, down, total) =   4.56877  3.38744  7.95621
   spin  1
    eigenvalues: 
  0.786  0.786  0.999  0.999  0.999
    eigenvectors:
  0.000  0.000  0.000  0.000  1.000
  0.423  0.223  0.056  0.298  0.000
  0.223  0.423  0.298  0.056  0.000
  0.346  0.008  0.556  0.090  0.000
  0.008  0.346  0.090  0.556  0.000
    occupations:
  0.999  0.000  0.000  0.000  0.000
  0.000  0.861  0.000 -0.072  0.071
  0.000  0.000  0.861  0.071  0.072
  0.000 -0.072  0.071  0.924  0.000
  0.000  0.071  0.072  0.000  0.924
   spin  2
    eigenvalues: 
  0.475  0.475  0.777  0.830  0.830
    eigenvectors:
  0.000  0.000  1.000  0.000  0.000
  0.277  0.362  0.000  0.033  0.328
  0.362  0.277  0.000  0.328  0.033
  0.279  0.082  0.000  0.476  0.163
  0.082  0.279  0.000  0.163  0.476
    occupations:
  0.777  0.000  0.000  0.000  0.000
  0.000  0.603  0.000 -0.037  0.166
  0.000  0.000  0.603  0.166  0.037
  0.000 -0.037  0.166  0.702  0.000
  0.000  0.166  0.037  0.000  0.702
atomic mag. moment =     1.181327
atom    2   Tr[ns(na)] (up, down, total) =   4.67033  3.21334  7.88368
   spin  1
    eigenvalues: 
  0.837  0.837  0.999  0.999  0.999
    eigenvectors:
  0.000  0.000  0.000  0.000  1.000
  0.643  0.003  0.325  0.029  0.000
  0.003  0.643  0.029  0.325  0.000
  0.152  0.202  0.500  0.146  0.000
  0.202  0.152  0.146  0.500  0.000
    occupations:
  0.999  0.000  0.000  0.000  0.000
  0.000  0.894  0.000  0.055  0.055
  0.000  0.000  0.894  0.055 -0.055
  0.000  0.055  0.055  0.942  0.000
  0.000  0.055 -0.055  0.000  0.942
   spin  2
    eigenvalues: 
  0.459  0.459  0.726  0.785  0.785
    eigenvectors:
  0.000  0.000  1.000  0.000  0.000
  0.503  0.132  0.000  0.188  0.176
  0.132  0.503  0.000  0.176  0.188
  0.022  0.343  0.000  0.447  0.188
  0.343  0.022  0.000  0.188  0.447
    occupations:
  0.726  0.000  0.000  0.000  0.000
  0.000  0.578  0.000  0.035  0.153
  0.000  0.000  0.578  0.153 -0.035
  0.000  0.035  0.153  0.666  0.000
  0.000  0.153 -0.035  0.000  0.666
atomic mag. moment =     1.456992
atom    3   Tr[ns(na)] (up, down, total) =   1.89855  1.88417  3.78272
   spin  1
    eigenvalues: 
  0.354  0.354  0.384  0.404  0.404
    eigenvectors:
  0.000  0.000  1.000  0.000  0.000
  0.784  0.139  0.000  0.011  0.066
  0.139  0.784  0.000  0.066  0.011
  0.012  0.065  0.000  0.784  0.139
  0.065  0.012  0.000  0.139  0.784
    occupations:
  0.384  0.000  0.000  0.000  0.000
  0.000  0.357  0.000  0.000  0.013
  0.000  0.000  0.357  0.013  0.000
  0.000  0.000  0.013  0.400  0.000
  0.000  0.013  0.000  0.000  0.400
   spin  2
    eigenvalues: 
  0.349  0.349  0.384  0.401  0.401
    eigenvectors:
  0.000  0.000  1.000  0.000  0.000
  0.763  0.146  0.000  0.013  0.078
  0.146  0.763  0.000  0.078  0.013
  0.016  0.076  0.000  0.766  0.143
  0.076  0.016  0.000  0.143  0.766
    occupations:
  0.384  0.000  0.000  0.000  0.000
  0.000  0.354  0.000  0.000  0.015
  0.000  0.000  0.354  0.015  0.000
  0.000  0.000  0.015  0.396  0.000
  0.000  0.015  0.000  0.000  0.396
atomic mag. moment =     0.014378
atom    4   Tr[ns(na)] (up, down, total) =   1.91465  1.90032  3.81497
   spin  1
    eigenvalues: 
  0.357  0.357  0.387  0.407  0.407
    eigenvectors:
  0.000  0.000  1.000  0.000  0.000
  0.786  0.138  0.000  0.011  0.065
  0.138  0.786  0.000  0.065  0.011
  0.012  0.064  0.000  0.785  0.139
  0.064  0.012  0.000  0.139  0.785
    occupations:
  0.387  0.000  0.000  0.000  0.000
  0.000  0.361  0.000  0.000  0.013
  0.000  0.000  0.361  0.013  0.000
  0.000  0.000  0.013  0.403  0.000
  0.000  0.013  0.000  0.000  0.403
   spin  2
    eigenvalues: 
  0.353  0.353  0.387  0.404  0.404
    eigenvectors:
  0.000  0.000  1.000  0.000  0.000
  0.765  0.145  0.000  0.013  0.077
  0.145  0.765  0.000  0.077  0.013
  0.016  0.074  0.000  0.768  0.142
  0.074  0.016  0.000  0.142  0.768
    occupations:
  0.387  0.000  0.000  0.000  0.000
  0.000  0.358  0.000  0.000  0.015
  0.000  0.000  0.358  0.015  0.000
  0.000  0.000  0.015  0.399  0.000
  0.000  0.015  0.000  0.000  0.399
atomic mag. moment =     0.014332
atom    5   Tr[ns(na)] (up, down, total) =   2.74302  2.70376  5.44678
   spin  1
    eigenvalues: 
  0.844  0.948  0.951
    eigenvectors:
  0.337  0.000  0.663
  0.507  0.245  0.248
  0.156  0.755  0.089
    occupations:
  0.915 -0.045  0.025
 -0.045  0.896  0.029
  0.025  0.029  0.932
   spin  2
    eigenvalues: 
  0.864  0.920  0.920
    eigenvectors:
  0.333  0.656  0.010
  0.515  0.198  0.287
  0.151  0.146  0.703
    occupations:
  0.901 -0.023  0.013
 -0.023  0.891  0.016
  0.013  0.016  0.912
atomic mag. moment =     0.039260
atom    6   Tr[ns(na)] (up, down, total) =   2.74302  2.70376  5.44678
   spin  1
    eigenvalues: 
  0.844  0.948  0.951
    eigenvectors:
  0.337  0.000  0.663
  0.487  0.255  0.257
  0.176  0.744  0.080
    occupations:
  0.915  0.044  0.026
  0.044  0.898 -0.030
  0.026 -0.030  0.930
   spin  2
    eigenvalues: 
  0.864  0.920  0.920
    eigenvectors:
  0.333  0.656  0.010
  0.484  0.306  0.210
  0.182  0.038  0.780
    occupations:
  0.901  0.022  0.014
  0.022  0.893 -0.017
  0.014 -0.017  0.910
atomic mag. moment =     0.039260
atom    7   Tr[ns(na)] (up, down, total) =   2.74302  2.70376  5.44678
   spin  1
    eigenvalues: 
  0.844  0.948  0.951
    eigenvectors:
  0.337  0.000  0.663
  0.000  1.000  0.000
  0.663  0.000  0.337
    occupations:
  0.915  0.001 -0.051
  0.001  0.948  0.001
 -0.051  0.001  0.880
   spin  2
    eigenvalues: 
  0.864  0.920  0.920
    eigenvectors:
  0.333  0.656  0.010
  0.000  0.012  0.988
  0.666  0.332  0.002
    occupations:
  0.901  0.001 -0.026
  0.001  0.920  0.001
 -0.026  0.001  0.883
atomic mag. moment =     0.039260
atom    8   Tr[ns(na)] (up, down, total) =   2.74297  2.70380  5.44676
   spin  1
    eigenvalues: 
  0.844  0.947  0.952
    eigenvectors:
  0.337  0.000  0.663
  0.507  0.244  0.249
  0.156  0.756  0.088
    occupations:
  0.915 -0.045  0.025
 -0.045  0.896  0.029
  0.025  0.029  0.932
   spin  2
    eigenvalues: 
  0.864  0.920  0.920
    eigenvectors:
  0.333  0.001  0.666
  0.515  0.213  0.272
  0.151  0.787  0.062
    occupations:
  0.901 -0.023  0.013
 -0.023  0.891  0.015
  0.013  0.015  0.911
atomic mag. moment =     0.039169
atom    9   Tr[ns(na)] (up, down, total) =   2.74297  2.70380  5.44676
   spin  1
    eigenvalues: 
  0.844  0.947  0.952
    eigenvectors:
  0.337  0.000  0.663
  0.487  0.256  0.256
  0.176  0.744  0.081
    occupations:
  0.915  0.044  0.026
  0.044  0.898 -0.030
  0.026 -0.030  0.930
   spin  2
    eigenvalues: 
  0.864  0.920  0.920
    eigenvectors:
  0.333  0.001  0.666
  0.484  0.289  0.227
  0.182  0.711  0.107
    occupations:
  0.901  0.023  0.014
  0.023  0.893 -0.016
  0.014 -0.016  0.910
atomic mag. moment =     0.039169
atom   10   Tr[ns(na)] (up, down, total) =   2.74297  2.70380  5.44676
   spin  1
    eigenvalues: 
  0.844  0.947  0.952
    eigenvectors:
  0.337  0.000  0.663
  0.000  1.000  0.000
  0.663  0.000  0.337
    occupations:
  0.915  0.001 -0.051
  0.001  0.947  0.001
 -0.051  0.001  0.880
   spin  2
    eigenvalues: 
  0.864  0.920  0.920
    eigenvectors:
  0.333  0.001  0.666
  0.000  0.998  0.002
  0.666  0.002  0.332
    occupations:
  0.901  0.001 -0.027
  0.001  0.920  0.001
 -0.027  0.001  0.883
atomic mag. moment =     0.039169
N of occupied +U levels =  56.1182306
 --- exit write_ns ---
 --- in v_hubbard ---
Hubbard energy    0.0279
 -------

     total cpu time spent up to now is      143.5 secs

     total energy              =    -538.32747646 Ry
     Harris-Foulkes estimate   =    -538.32750551 Ry
     estimated scf accuracy    <       0.00047516 Ry

     total magnetization       =     3.54 Bohr mag/cell
     absolute magnetization    =     3.69 Bohr mag/cell

     iteration #  4     ecut=    30.00 Ry     beta=0.20
     Davidson diagonalization with overlap
     ethr =  1.25E-07,  avg # of iterations =  1.0
 --- enter write_ns ---
 LDA+U parameters:
U( 1)     =  0.00000000
alpha( 1) =  0.00000000
U( 2)     =  0.00000000
alpha( 2) =  0.10000000
U( 3)     =  0.00000000
alpha( 3) =  0.00000000
U( 4)     =  0.00000000
alpha( 4) =  0.00000000
atom    1   Tr[ns(na)] (up, down, total) =   4.56576  3.37427  7.94003
   spin  1
    eigenvalues: 
  0.785  0.785  0.999  0.999  0.999
    eigenvectors:
  0.000  0.000  0.000  0.000  1.000
  0.423  0.223  0.056  0.298  0.000
  0.223  0.423  0.298  0.056  0.000
  0.346  0.008  0.556  0.090  0.000
  0.008  0.346  0.090  0.556  0.000
    occupations:
  0.999  0.000  0.000  0.000  0.000
  0.000  0.861  0.000 -0.073  0.072
  0.000  0.000  0.861  0.072  0.073
  0.000 -0.073  0.072  0.923  0.000
  0.000  0.072  0.073  0.000  0.923
   spin  2
    eigenvalues: 
  0.474  0.474  0.773  0.826  0.826
    eigenvectors:
  0.000  0.000  1.000  0.000  0.000
  0.276  0.363  0.000  0.034  0.327
  0.363  0.276  0.000  0.327  0.034
  0.278  0.083  0.000  0.476  0.163
  0.083  0.278  0.000  0.163  0.476
    occupations:
  0.773  0.000  0.000  0.000  0.000
  0.000  0.601  0.000 -0.037  0.165
  0.000  0.000  0.601  0.165  0.037
  0.000 -0.037  0.165  0.699  0.000
  0.000  0.165  0.037  0.000  0.699
atomic mag. moment =     1.191495
atom    2   Tr[ns(na)] (up, down, total) =   4.67262  3.22576  7.89838
   spin  1
    eigenvalues: 
  0.838  0.838  0.999  0.999  0.999
    eigenvectors:
  0.000  0.000  0.000  0.000  1.000
  0.643  0.003  0.325  0.029  0.000
  0.003  0.643  0.029  0.325  0.000
  0.152  0.202  0.500  0.146  0.000
  0.202  0.152  0.146  0.500  0.000
    occupations:
  0.999  0.000  0.000  0.000  0.000
  0.000  0.895  0.000  0.055  0.054
  0.000  0.000  0.895  0.054 -0.055
  0.000  0.055  0.054  0.942  0.000
  0.000  0.054 -0.055  0.000  0.942
   spin  2
    eigenvalues: 
  0.460  0.460  0.730  0.788  0.788
    eigenvectors:
  0.000  0.000  1.000  0.000  0.000
  0.508  0.127  0.000  0.189  0.176
  0.127  0.508  0.000  0.176  0.189
  0.020  0.345  0.000  0.447  0.188
  0.345  0.020  0.000  0.188  0.447
    occupations:
  0.730  0.000  0.000  0.000  0.000
  0.000  0.579  0.000  0.036  0.154
  0.000  0.000  0.579  0.154 -0.036
  0.000  0.036  0.154  0.668  0.000
  0.000  0.154 -0.036  0.000  0.668
atomic mag. moment =     1.446861
atom    3   Tr[ns(na)] (up, down, total) =   1.90012  1.88576  3.78588
   spin  1
    eigenvalues: 
  0.354  0.354  0.384  0.404  0.404
    eigenvectors:
  0.000  0.000  1.000  0.000  0.000
  0.784  0.139  0.000  0.011  0.066
  0.139  0.784  0.000  0.066  0.011
  0.012  0.065  0.000  0.784  0.139
  0.065  0.012  0.000  0.139  0.784
    occupations:
  0.384  0.000  0.000  0.000  0.000
  0.000  0.358  0.000  0.000  0.013
  0.000  0.000  0.358  0.013  0.000
  0.000  0.000  0.013  0.400  0.000
  0.000  0.013  0.000  0.000  0.400
   spin  2
    eigenvalues: 
  0.350  0.350  0.384  0.401  0.401
    eigenvectors:
  0.000  0.000  1.000  0.000  0.000
  0.763  0.146  0.000  0.013  0.078
  0.146  0.763  0.000  0.078  0.013
  0.016  0.075  0.000  0.766  0.143
  0.075  0.016  0.000  0.143  0.766
    occupations:
  0.384  0.000  0.000  0.000  0.000
  0.000  0.355  0.000  0.000  0.015
  0.000  0.000  0.355  0.015  0.000
  0.000  0.000  0.015  0.396  0.000
  0.000  0.015  0.000  0.000  0.396
atomic mag. moment =     0.014366
atom    4   Tr[ns(na)] (up, down, total) =   1.91503  1.90072  3.81575
   spin  1
    eigenvalues: 
  0.357  0.357  0.387  0.407  0.407
    eigenvectors:
  0.000  0.000  1.000  0.000  0.000
  0.786  0.138  0.000  0.011  0.065
  0.138  0.786  0.000  0.065  0.011
  0.012  0.064  0.000  0.786  0.139
  0.064  0.012  0.000  0.139  0.786
    occupations:
  0.387  0.000  0.000  0.000  0.000
  0.000  0.361  0.000  0.000  0.013
  0.000  0.000  0.361  0.013  0.000
  0.000  0.000  0.013  0.403  0.000
  0.000  0.013  0.000  0.000  0.403
   spin  2
    eigenvalues: 
  0.353  0.353  0.387  0.404  0.404
    eigenvectors:
  0.000  0.000  1.000  0.000  0.000
  0.766  0.145  0.000  0.013  0.077
  0.145  0.766  0.000  0.077  0.013
  0.015  0.074  0.000  0.768  0.142
  0.074  0.015  0.000  0.142  0.768
    occupations:
  0.387  0.000  0.000  0.000  0.000
  0.000  0.358  0.000  0.000  0.014
  0.000  0.000  0.358  0.014  0.000
  0.000  0.000  0.014  0.399  0.000
  0.000  0.014  0.000  0.000  0.399
atomic mag. moment =     0.014316
atom    5   Tr[ns(na)] (up, down, total) =   2.74292  2.70366  5.44658
   spin  1
    eigenvalues: 
  0.844  0.948  0.951
    eigenvectors:
  0.337  0.000  0.663
  0.508  0.244  0.248
  0.156  0.756  0.089
    occupations:
  0.915 -0.045  0.025
 -0.045  0.896  0.029
  0.025  0.029  0.932
   spin  2
    eigenvalues: 
  0.864  0.920  0.920
    eigenvectors:
  0.333  0.659  0.007
  0.513  0.206  0.281
  0.153  0.135  0.712
    occupations:
  0.901 -0.023  0.013
 -0.023  0.891  0.016
  0.013  0.016  0.911
atomic mag. moment =     0.039261
atom    6   Tr[ns(na)] (up, down, total) =   2.74292  2.70366  5.44658
   spin  1
    eigenvalues: 
  0.844  0.948  0.951
    eigenvectors:
  0.337  0.000  0.663
  0.487  0.256  0.257
  0.176  0.744  0.080
    occupations:
  0.915  0.044  0.026
  0.044  0.898 -0.030
  0.026 -0.030  0.930
   spin  2
    eigenvalues: 
  0.864  0.920  0.920
    eigenvectors:
  0.333  0.659  0.007
  0.486  0.297  0.217
  0.181  0.044  0.776
    occupations:
  0.901  0.022  0.014
  0.022  0.893 -0.017
  0.014 -0.017  0.910
atomic mag. moment =     0.039261
atom    7   Tr[ns(na)] (up, down, total) =   2.74292  2.70366  5.44658
   spin  1
    eigenvalues: 
  0.844  0.948  0.951
    eigenvectors:
  0.337  0.000  0.663
  0.000  1.000  0.000
  0.663  0.000  0.337
    occupations:
  0.915  0.001 -0.051
  0.001  0.948  0.001
 -0.051  0.001  0.880
   spin  2
    eigenvalues: 
  0.864  0.920  0.920
    eigenvectors:
  0.333  0.659  0.007
  0.000  0.008  0.991
  0.666  0.332  0.001
    occupations:
  0.901  0.001 -0.026
  0.001  0.920  0.001
 -0.026  0.001  0.883
atomic mag. moment =     0.039261
atom    8   Tr[ns(na)] (up, down, total) =   2.74287  2.70370  5.44657
   spin  1
    eigenvalues: 
  0.844  0.947  0.952
    eigenvectors:
  0.337  0.000  0.663
  0.508  0.243  0.249
  0.155  0.756  0.088
    occupations:
  0.915 -0.045  0.025
 -0.045  0.896  0.028
  0.025  0.028  0.932
   spin  2
    eigenvalues: 
  0.864  0.920  0.920
    eigenvectors:
  0.333  0.001  0.666
  0.514  0.216  0.270
  0.153  0.784  0.063
    occupations:
  0.901 -0.023  0.013
 -0.023  0.891  0.016
  0.013  0.016  0.911
atomic mag. moment =     0.039172
atom    9   Tr[ns(na)] (up, down, total) =   2.74287  2.70370  5.44657
   spin  1
    eigenvalues: 
  0.844  0.947  0.952
    eigenvectors:
  0.337  0.000  0.663
  0.487  0.257  0.257
  0.176  0.743  0.080
    occupations:
  0.915  0.044  0.026
  0.044  0.898 -0.030
  0.026 -0.030  0.929
   spin  2
    eigenvalues: 
  0.864  0.920  0.920
    eigenvectors:
  0.333  0.001  0.666
  0.486  0.285  0.229
  0.181  0.714  0.105
    occupations:
  0.901  0.023  0.014
  0.023  0.893 -0.016
  0.014 -0.016  0.910
atomic mag. moment =     0.039172
atom   10   Tr[ns(na)] (up, down, total) =   2.74287  2.70370  5.44657
   spin  1
    eigenvalues: 
  0.844  0.947  0.952
    eigenvectors:
  0.337  0.000  0.663
  0.000  1.000  0.000
  0.663  0.000  0.337
    occupations:
  0.915  0.001 -0.051
  0.001  0.947  0.001
 -0.051  0.001  0.880
   spin  2
    eigenvalues: 
  0.864  0.920  0.920
    eigenvectors:
  0.333  0.001  0.666
  0.000  0.998  0.002
  0.666  0.002  0.332
    occupations:
  0.901  0.001 -0.026
  0.001  0.920  0.001
 -0.026  0.001  0.883
atomic mag. moment =     0.039172
N of occupied +U levels =  56.1194897
 --- exit write_ns ---
 --- in v_hubbard ---
Hubbard energy    0.0279
 -------

     total cpu time spent up to now is      167.9 secs

     total energy              =    -538.32748909 Ry
     Harris-Foulkes estimate   =    -538.32748963 Ry
     estimated scf accuracy    <       0.00000235 Ry

     total magnetization       =     3.54 Bohr mag/cell
     absolute magnetization    =     3.69 Bohr mag/cell

     iteration #  5     ecut=    30.00 Ry     beta=0.20
     Davidson diagonalization with overlap
     ethr =  3.09E-09,  avg # of iterations =  3.0
 --- enter write_ns ---
 LDA+U parameters:
U( 1)     =  0.00000000
alpha( 1) =  0.00000000
U( 2)     =  0.00000000
alpha( 2) =  0.10000000
U( 3)     =  0.00000000
alpha( 3) =  0.00000000
U( 4)     =  0.00000000
alpha( 4) =  0.00000000
atom    1   Tr[ns(na)] (up, down, total) =   4.56583  3.37460  7.94044
   spin  1
    eigenvalues: 
  0.785  0.785  0.999  0.999  0.999
    eigenvectors:
  0.000  0.000  0.000  0.000  1.000
  0.423  0.223  0.056  0.298  0.000
  0.223  0.423  0.298  0.056  0.000
  0.346  0.008  0.556  0.090  0.000
  0.008  0.346  0.090  0.556  0.000
    occupations:
  0.999  0.000  0.000  0.000  0.000
  0.000  0.861  0.000 -0.073  0.072
  0.000  0.000  0.861  0.072  0.073
  0.000 -0.073  0.072  0.923  0.000
  0.000  0.072  0.073  0.000  0.923
   spin  2
    eigenvalues: 
  0.474  0.474  0.773  0.826  0.826
    eigenvectors:
  0.000  0.000  1.000  0.000  0.000
  0.277  0.362  0.000  0.034  0.327
  0.362  0.277  0.000  0.327  0.034
  0.278  0.083  0.000  0.476  0.163
  0.083  0.278  0.000  0.163  0.476
    occupations:
  0.773  0.000  0.000  0.000  0.000
  0.000  0.601  0.000 -0.037  0.165
  0.000  0.000  0.601  0.165  0.037
  0.000 -0.037  0.165  0.699  0.000
  0.000  0.165  0.037  0.000  0.699
atomic mag. moment =     1.191232
atom    2   Tr[ns(na)] (up, down, total) =   4.67260  3.22598  7.89858
   spin  1
    eigenvalues: 
  0.838  0.838  0.999  0.999  0.999
    eigenvectors:
  0.000  0.000  0.000  0.000  1.000
  0.643  0.003  0.325  0.029  0.000
  0.003  0.643  0.029  0.325  0.000
  0.152  0.202  0.500  0.146  0.000
  0.202  0.152  0.146  0.500  0.000
    occupations:
  0.999  0.000  0.000  0.000  0.000
  0.000  0.895  0.000  0.055  0.054
  0.000  0.000  0.895  0.054 -0.055
  0.000  0.055  0.054  0.942  0.000
  0.000  0.054 -0.055  0.000  0.942
   spin  2
    eigenvalues: 
  0.460  0.460  0.730  0.788  0.788
    eigenvectors:
  0.000  0.000  1.000  0.000  0.000
  0.508  0.128  0.000  0.189  0.175
  0.128  0.508  0.000  0.175  0.189
  0.020  0.345  0.000  0.447  0.188
  0.345  0.020  0.000  0.188  0.447
    occupations:
  0.730  0.000  0.000  0.000  0.000
  0.000  0.579  0.000  0.036  0.154
  0.000  0.000  0.579  0.154 -0.036
  0.000  0.036  0.154  0.668  0.000
  0.000  0.154 -0.036  0.000  0.668
atomic mag. moment =     1.446627
atom    3   Tr[ns(na)] (up, down, total) =   1.90064  1.88625  3.78689
   spin  1
    eigenvalues: 
  0.354  0.354  0.384  0.404  0.404
    eigenvectors:
  0.000  0.000  1.000  0.000  0.000
  0.784  0.139  0.000  0.011  0.066
  0.139  0.784  0.000  0.066  0.011
  0.012  0.065  0.000  0.784  0.139
  0.065  0.012  0.000  0.139  0.784
    occupations:
  0.384  0.000  0.000  0.000  0.000
  0.000  0.358  0.000  0.000  0.013
  0.000  0.000  0.358  0.013  0.000
  0.000  0.000  0.013  0.400  0.000
  0.000  0.013  0.000  0.000  0.400
   spin  2
    eigenvalues: 
  0.350  0.350  0.384  0.401  0.401
    eigenvectors:
  0.000  0.000  1.000  0.000  0.000
  0.763  0.146  0.000  0.013  0.078
  0.146  0.763  0.000  0.078  0.013
  0.016  0.075  0.000  0.766  0.142
  0.075  0.016  0.000  0.142  0.766
    occupations:
  0.384  0.000  0.000  0.000  0.000
  0.000  0.355  0.000  0.000  0.015
  0.000  0.000  0.355  0.015  0.000
  0.000  0.000  0.015  0.396  0.000
  0.000  0.015  0.000  0.000  0.396
atomic mag. moment =     0.014388
atom    4   Tr[ns(na)] (up, down, total) =   1.91501  1.90069  3.81570
   spin  1
    eigenvalues: 
  0.357  0.357  0.387  0.407  0.407
    eigenvectors:
  0.000  0.000  1.000  0.000  0.000
  0.786  0.138  0.000  0.011  0.065
  0.138  0.786  0.000  0.065  0.011
  0.012  0.064  0.000  0.786  0.139
  0.064  0.012  0.000  0.139  0.786
    occupations:
  0.387  0.000  0.000  0.000  0.000
  0.000  0.361  0.000  0.000  0.013
  0.000  0.000  0.361  0.013  0.000
  0.000  0.000  0.013  0.403  0.000
  0.000  0.013  0.000  0.000  0.403
   spin  2
    eigenvalues: 
  0.353  0.353  0.387  0.404  0.404
    eigenvectors:
  0.000  0.000  1.000  0.000  0.000
  0.765  0.145  0.000  0.013  0.077
  0.145  0.765  0.000  0.077  0.013
  0.015  0.074  0.000  0.768  0.142
  0.074  0.015  0.000  0.142  0.768
    occupations:
  0.387  0.000  0.000  0.000  0.000
  0.000  0.358  0.000  0.000  0.015
  0.000  0.000  0.358  0.015  0.000
  0.000  0.000  0.015  0.399  0.000
  0.000  0.015  0.000  0.000  0.399
atomic mag. moment =     0.014328
atom    5   Tr[ns(na)] (up, down, total) =   2.74282  2.70356  5.44638
   spin  1
    eigenvalues: 
  0.844  0.948  0.951
    eigenvectors:
  0.337  0.000  0.663
  0.508  0.244  0.248
  0.156  0.756  0.089
    occupations:
  0.915 -0.045  0.025
 -0.045  0.896  0.029
  0.025  0.029  0.932
   spin  2
    eigenvalues: 
  0.864  0.920  0.920
    eigenvectors:
  0.333  0.658  0.009
  0.514  0.201  0.285
  0.153  0.141  0.706
    occupations:
  0.901 -0.023  0.013
 -0.023  0.891  0.016
  0.013  0.016  0.911
atomic mag. moment =     0.039265
atom    6   Tr[ns(na)] (up, down, total) =   2.74282  2.70356  5.44638
   spin  1
    eigenvalues: 
  0.844  0.948  0.951
    eigenvectors:
  0.337  0.000  0.663
  0.487  0.256  0.257
  0.176  0.744  0.080
    occupations:
  0.915  0.044  0.026
  0.044  0.898 -0.030
  0.026 -0.030  0.930
   spin  2
    eigenvalues: 
  0.864  0.920  0.920
    eigenvectors:
  0.333  0.658  0.009
  0.486  0.302  0.212
  0.181  0.040  0.779
    occupations:
  0.901  0.022  0.014
  0.022  0.893 -0.017
  0.014 -0.017  0.910
atomic mag. moment =     0.039265
atom    7   Tr[ns(na)] (up, down, total) =   2.74282  2.70356  5.44638
   spin  1
    eigenvalues: 
  0.844  0.948  0.951
    eigenvectors:
  0.337  0.000  0.663
  0.000  1.000  0.000
  0.663  0.000  0.337
    occupations:
  0.915  0.001 -0.051
  0.001  0.948  0.001
 -0.051  0.001  0.880
   spin  2
    eigenvalues: 
  0.864  0.920  0.920
    eigenvectors:
  0.333  0.658  0.009
  0.000  0.010  0.990
  0.666  0.332  0.002
    occupations:
  0.901  0.001 -0.026
  0.001  0.920  0.001
 -0.026  0.001  0.883
atomic mag. moment =     0.039265
atom    8   Tr[ns(na)] (up, down, total) =   2.74277  2.70360  5.44637
   spin  1
    eigenvalues: 
  0.844  0.947  0.952
    eigenvectors:
  0.337  0.000  0.663
  0.508  0.243  0.249
  0.155  0.756  0.088
    occupations:
  0.915 -0.045  0.025
 -0.045  0.896  0.029
  0.025  0.029  0.932
   spin  2
    eigenvalues: 
  0.864  0.920  0.920
    eigenvectors:
  0.333  0.001  0.666
  0.514  0.215  0.271
  0.153  0.784  0.063
    occupations:
  0.901 -0.023  0.013
 -0.023  0.891  0.016
  0.013  0.016  0.911
atomic mag. moment =     0.039177
atom    9   Tr[ns(na)] (up, down, total) =   2.74277  2.70360  5.44637
   spin  1
    eigenvalues: 
  0.844  0.947  0.952
    eigenvectors:
  0.337  0.000  0.663
  0.487  0.257  0.257
  0.176  0.743  0.080
    occupations:
  0.915  0.044  0.026
  0.044  0.898 -0.030
  0.026 -0.030  0.929
   spin  2
    eigenvalues: 
  0.864  0.920  0.920
    eigenvectors:
  0.333  0.001  0.666
  0.486  0.286  0.228
  0.181  0.713  0.106
    occupations:
  0.901  0.023  0.014
  0.023  0.893 -0.016
  0.014 -0.016  0.910
atomic mag. moment =     0.039177
atom   10   Tr[ns(na)] (up, down, total) =   2.74277  2.70360  5.44637
   spin  1
    eigenvalues: 
  0.844  0.947  0.952
    eigenvectors:
  0.337  0.000  0.663
  0.000  1.000  0.000
  0.663  0.000  0.337
    occupations:
  0.915  0.001 -0.051
  0.001  0.947  0.001
 -0.051  0.001  0.880
   spin  2
    eigenvalues: 
  0.864  0.920  0.920
    eigenvectors:
  0.333  0.001  0.666
  0.000  0.998  0.002
  0.666  0.002  0.332
    occupations:
  0.901  0.001 -0.026
  0.001  0.920  0.001
 -0.026  0.001  0.883
atomic mag. moment =     0.039177
N of occupied +U levels =  56.1198618
 --- exit write_ns ---
 --- in v_hubbard ---
Hubbard energy    0.0279
 -------

     total cpu time spent up to now is      200.9 secs

     total energy              =    -538.32748936 Ry
     Harris-Foulkes estimate   =    -538.32748976 Ry
     estimated scf accuracy    <       0.00000109 Ry

     total magnetization       =     3.54 Bohr mag/cell
     absolute magnetization    =     3.69 Bohr mag/cell

     iteration #  6     ecut=    30.00 Ry     beta=0.20
     Davidson diagonalization with overlap
     ethr =  1.43E-09,  avg # of iterations =  2.0
 --- enter write_ns ---
 LDA+U parameters:
U( 1)     =  0.00000000
alpha( 1) =  0.00000000
U( 2)     =  0.00000000
alpha( 2) =  0.10000000
U( 3)     =  0.00000000
alpha( 3) =  0.00000000
U( 4)     =  0.00000000
alpha( 4) =  0.00000000
atom    1   Tr[ns(na)] (up, down, total) =   4.56582  3.37465  7.94047
   spin  1
    eigenvalues: 
  0.785  0.785  0.999  0.999  0.999
    eigenvectors:
  0.000  0.000  0.000  0.000  1.000
  0.423  0.223  0.056  0.298  0.000
  0.223  0.423  0.298  0.056  0.000
  0.346  0.008  0.556  0.090  0.000
  0.008  0.346  0.090  0.556  0.000
    occupations:
  0.999  0.000  0.000  0.000  0.000
  0.000  0.861  0.000 -0.073  0.072
  0.000  0.000  0.861  0.072  0.073
  0.000 -0.073  0.072  0.923  0.000
  0.000  0.072  0.073  0.000  0.923
   spin  2
    eigenvalues: 
  0.474  0.474  0.773  0.826  0.826
    eigenvectors:
  0.000  0.000  1.000  0.000  0.000
  0.276  0.363  0.000  0.034  0.327
  0.363  0.276  0.000  0.327  0.034
  0.278  0.083  0.000  0.476  0.163
  0.083  0.278  0.000  0.163  0.476
    occupations:
  0.773  0.000  0.000  0.000  0.000
  0.000  0.601  0.000 -0.037  0.165
  0.000  0.000  0.601  0.165  0.037
  0.000 -0.037  0.165  0.699  0.000
  0.000  0.165  0.037  0.000  0.699
atomic mag. moment =     1.191169
atom    2   Tr[ns(na)] (up, down, total) =   4.67255  3.22599  7.89854
   spin  1
    eigenvalues: 
  0.838  0.838  0.999  0.999  0.999
    eigenvectors:
  0.000  0.000  0.000  0.000  1.000
  0.643  0.003  0.325  0.029  0.000
  0.003  0.643  0.029  0.325  0.000
  0.152  0.202  0.500  0.146  0.000
  0.202  0.152  0.146  0.500  0.000
    occupations:
  0.999  0.000  0.000  0.000  0.000
  0.000  0.895  0.000  0.055  0.054
  0.000  0.000  0.895  0.054 -0.055
  0.000  0.055  0.054  0.942  0.000
  0.000  0.054 -0.055  0.000  0.942
   spin  2
    eigenvalues: 
  0.460  0.460  0.730  0.788  0.788
    eigenvectors:
  0.000  0.000  1.000  0.000  0.000
  0.507  0.129  0.000  0.189  0.175
  0.129  0.507  0.000  0.175  0.189
  0.020  0.344  0.000  0.447  0.188
  0.344  0.020  0.000  0.188  0.447
    occupations:
  0.730  0.000  0.000  0.000  0.000
  0.000  0.579  0.000  0.036  0.154
  0.000  0.000  0.579  0.154 -0.036
  0.000  0.036  0.154  0.668  0.000
  0.000  0.154 -0.036  0.000  0.668
atomic mag. moment =     1.446560
atom    3   Tr[ns(na)] (up, down, total) =   1.90044  1.88605  3.78648
   spin  1
    eigenvalues: 
  0.354  0.354  0.384  0.404  0.404
    eigenvectors:
  0.000  0.000  1.000  0.000  0.000
  0.784  0.139  0.000  0.011  0.066
  0.139  0.784  0.000  0.066  0.011
  0.012  0.065  0.000  0.784  0.139
  0.065  0.012  0.000  0.139  0.784
    occupations:
  0.384  0.000  0.000  0.000  0.000
  0.000  0.358  0.000  0.000  0.013
  0.000  0.000  0.358  0.013  0.000
  0.000  0.000  0.013  0.400  0.000
  0.000  0.013  0.000  0.000  0.400
   spin  2
    eigenvalues: 
  0.350  0.350  0.384  0.401  0.401
    eigenvectors:
  0.000  0.000  1.000  0.000  0.000
  0.763  0.146  0.000  0.013  0.078
  0.146  0.763  0.000  0.078  0.013
  0.016  0.075  0.000  0.766  0.143
  0.075  0.016  0.000  0.143  0.766
    occupations:
  0.384  0.000  0.000  0.000  0.000
  0.000  0.355  0.000  0.000  0.015
  0.000  0.000  0.355  0.015  0.000
  0.000  0.000  0.015  0.396  0.000
  0.000  0.015  0.000  0.000  0.396
atomic mag. moment =     0.014394
atom    4   Tr[ns(na)] (up, down, total) =   1.91463  1.90030  3.81493
   spin  1
    eigenvalues: 
  0.357  0.357  0.387  0.407  0.407
    eigenvectors:
  0.000  0.000  1.000  0.000  0.000
  0.786  0.138  0.000  0.011  0.065
  0.138  0.786  0.000  0.065  0.011
  0.012  0.064  0.000  0.786  0.139
  0.064  0.012  0.000  0.139  0.786
    occupations:
  0.387  0.000  0.000  0.000  0.000
  0.000  0.361  0.000  0.000  0.013
  0.000  0.000  0.361  0.013  0.000
  0.000  0.000  0.013  0.403  0.000
  0.000  0.013  0.000  0.000  0.403
   spin  2
    eigenvalues: 
  0.353  0.353  0.387  0.404  0.404
    eigenvectors:
  0.000  0.000  1.000  0.000  0.000
  0.765  0.145  0.000  0.013  0.077
  0.145  0.765  0.000  0.077  0.013
  0.015  0.074  0.000  0.768  0.142
  0.074  0.015  0.000  0.142  0.768
    occupations:
  0.387  0.000  0.000  0.000  0.000
  0.000  0.358  0.000  0.000  0.015
  0.000  0.000  0.358  0.015  0.000
  0.000  0.000  0.015  0.399  0.000
  0.000  0.015  0.000  0.000  0.399
atomic mag. moment =     0.014331
atom    5   Tr[ns(na)] (up, down, total) =   2.74290  2.70363  5.44653
   spin  1
    eigenvalues: 
  0.844  0.948  0.951
    eigenvectors:
  0.337  0.000  0.663
  0.508  0.244  0.248
  0.156  0.756  0.089
    occupations:
  0.915 -0.045  0.025
 -0.045  0.896  0.029
  0.025  0.029  0.932
   spin  2
    eigenvalues: 
  0.864  0.920  0.920
    eigenvectors:
  0.333  0.658  0.009
  0.514  0.200  0.286
  0.153  0.142  0.705
    occupations:
  0.901 -0.023  0.013
 -0.023  0.891  0.016
  0.013  0.016  0.911
atomic mag. moment =     0.039272
atom    6   Tr[ns(na)] (up, down, total) =   2.74290  2.70363  5.44653
   spin  1
    eigenvalues: 
  0.844  0.948  0.951
    eigenvectors:
  0.337  0.000  0.663
  0.487  0.256  0.257
  0.176  0.744  0.080
    occupations:
  0.915  0.044  0.026
  0.044  0.898 -0.030
  0.026 -0.030  0.930
   spin  2
    eigenvalues: 
  0.864  0.920  0.920
    eigenvectors:
  0.333  0.658  0.009
  0.486  0.303  0.211
  0.181  0.040  0.780
    occupations:
  0.901  0.022  0.014
  0.022  0.893 -0.017
  0.014 -0.017  0.910
atomic mag. moment =     0.039272
atom    7   Tr[ns(na)] (up, down, total) =   2.74290  2.70363  5.44653
   spin  1
    eigenvalues: 
  0.844  0.948  0.951
    eigenvectors:
  0.337  0.000  0.663
  0.000  1.000  0.000
  0.663  0.000  0.337
    occupations:
  0.915  0.001 -0.051
  0.001  0.948  0.001
 -0.051  0.001  0.880
   spin  2
    eigenvalues: 
  0.864  0.920  0.920
    eigenvectors:
  0.333  0.658  0.009
  0.000  0.011  0.989
  0.666  0.332  0.002
    occupations:
  0.901  0.001 -0.026
  0.001  0.920  0.001
 -0.026  0.001  0.883
atomic mag. moment =     0.039272
atom    8   Tr[ns(na)] (up, down, total) =   2.74284  2.70366  5.44650
   spin  1
    eigenvalues: 
  0.844  0.947  0.952
    eigenvectors:
  0.337  0.000  0.663
  0.508  0.243  0.249
  0.156  0.756  0.088
    occupations:
  0.915 -0.045  0.025
 -0.045  0.896  0.029
  0.025  0.029  0.932
   spin  2
    eigenvalues: 
  0.864  0.920  0.920
    eigenvectors:
  0.333  0.001  0.666
  0.514  0.215  0.271
  0.153  0.784  0.063
    occupations:
  0.901 -0.023  0.013
 -0.023  0.891  0.016
  0.013  0.016  0.911
atomic mag. moment =     0.039183
atom    9   Tr[ns(na)] (up, down, total) =   2.74284  2.70366  5.44650
   spin  1
    eigenvalues: 
  0.844  0.947  0.952
    eigenvectors:
  0.337  0.000  0.663
  0.487  0.257  0.257
  0.176  0.743  0.080
    occupations:
  0.915  0.044  0.026
  0.044  0.898 -0.030
  0.026 -0.030  0.929
   spin  2
    eigenvalues: 
  0.864  0.920  0.920
    eigenvectors:
  0.333  0.001  0.666
  0.486  0.286  0.228
  0.181  0.713  0.106
    occupations:
  0.901  0.023  0.014
  0.023  0.893 -0.016
  0.014 -0.016  0.910
atomic mag. moment =     0.039183
atom   10   Tr[ns(na)] (up, down, total) =   2.74284  2.70366  5.44650
   spin  1
    eigenvalues: 
  0.844  0.947  0.952
    eigenvectors:
  0.337  0.000  0.663
  0.000  1.000  0.000
  0.663  0.000  0.337
    occupations:
  0.915  0.001 -0.051
  0.001  0.947  0.001
 -0.051  0.001  0.880
   spin  2
    eigenvalues: 
  0.864  0.920  0.920
    eigenvectors:
  0.333  0.001  0.666
  0.000  0.998  0.002
  0.666  0.002  0.332
    occupations:
  0.901  0.001 -0.026
  0.001  0.920  0.001
 -0.026  0.001  0.883
atomic mag. moment =     0.039183
N of occupied +U levels =  56.1195391
 --- exit write_ns ---
 --- in v_hubbard ---
Hubbard energy    0.0278
 -------

     total cpu time spent up to now is      234.4 secs

     total energy              =    -538.32748945 Ry
     Harris-Foulkes estimate   =    -538.32748958 Ry
     estimated scf accuracy    <       0.00000035 Ry

     total magnetization       =     3.54 Bohr mag/cell
     absolute magnetization    =     3.69 Bohr mag/cell

     iteration #  7     ecut=    30.00 Ry     beta=0.20
     Davidson diagonalization with overlap
     ethr =  4.60E-10,  avg # of iterations =  2.0
 --- enter write_ns ---
 LDA+U parameters:
U( 1)     =  0.00000000
alpha( 1) =  0.00000000
U( 2)     =  0.00000000
alpha( 2) =  0.10000000
U( 3)     =  0.00000000
alpha( 3) =  0.00000000
U( 4)     =  0.00000000
alpha( 4) =  0.00000000
atom    1   Tr[ns(na)] (up, down, total) =   4.56577  3.37463  7.94040
   spin  1
    eigenvalues: 
  0.785  0.785  0.999  0.999  0.999
    eigenvectors:
  0.000  0.000  0.000  0.000  1.000
  0.423  0.223  0.056  0.298  0.000
  0.223  0.423  0.298  0.056  0.000
  0.346  0.008  0.556  0.090  0.000
  0.008  0.346  0.090  0.556  0.000
    occupations:
  0.999  0.000  0.000  0.000  0.000
  0.000  0.861  0.000 -0.073  0.072
  0.000  0.000  0.861  0.072  0.073
  0.000 -0.073  0.072  0.923  0.000
  0.000  0.072  0.073  0.000  0.923
   spin  2
    eigenvalues: 
  0.474  0.474  0.773  0.826  0.826
    eigenvectors:
  0.000  0.000  1.000  0.000  0.000
  0.277  0.362  0.000  0.034  0.327
  0.362  0.277  0.000  0.327  0.034
  0.278  0.083  0.000  0.476  0.163
  0.083  0.278  0.000  0.163  0.476
    occupations:
  0.773  0.000  0.000  0.000  0.000
  0.000  0.601  0.000 -0.037  0.165
  0.000  0.000  0.601  0.165  0.037
  0.000 -0.037  0.165  0.699  0.000
  0.000  0.165  0.037  0.000  0.699
atomic mag. moment =     1.191148
atom    2   Tr[ns(na)] (up, down, total) =   4.67250  3.22605  7.89855
   spin  1
    eigenvalues: 
  0.838  0.838  0.999  0.999  0.999
    eigenvectors:
  0.000  0.000  0.000  0.000  1.000
  0.643  0.003  0.325  0.029  0.000
  0.003  0.643  0.029  0.325  0.000
  0.152  0.202  0.500  0.146  0.000
  0.202  0.152  0.146  0.500  0.000
    occupations:
  0.999  0.000  0.000  0.000  0.000
  0.000  0.895  0.000  0.055  0.054
  0.000  0.000  0.895  0.054 -0.055
  0.000  0.055  0.054  0.942  0.000
  0.000  0.054 -0.055  0.000  0.942
   spin  2
    eigenvalues: 
  0.460  0.460  0.730  0.788  0.788
    eigenvectors:
  0.000  0.000  1.000  0.000  0.000
  0.507  0.128  0.000  0.189  0.176
  0.128  0.507  0.000  0.176  0.189
  0.020  0.345  0.000  0.447  0.188
  0.345  0.020  0.000  0.188  0.447
    occupations:
  0.730  0.000  0.000  0.000  0.000
  0.000  0.579  0.000  0.036  0.154
  0.000  0.000  0.579  0.154 -0.036
  0.000  0.036  0.154  0.668  0.000
  0.000  0.154 -0.036  0.000  0.668
atomic mag. moment =     1.446441
atom    3   Tr[ns(na)] (up, down, total) =   1.90071  1.88631  3.78702
   spin  1
    eigenvalues: 
  0.354  0.354  0.384  0.404  0.404
    eigenvectors:
  0.000  0.000  1.000  0.000  0.000
  0.784  0.139  0.000  0.011  0.066
  0.139  0.784  0.000  0.066  0.011
  0.012  0.065  0.000  0.784  0.139
  0.065  0.012  0.000  0.139  0.784
    occupations:
  0.384  0.000  0.000  0.000  0.000
  0.000  0.358  0.000  0.000  0.013
  0.000  0.000  0.358  0.013  0.000
  0.000  0.000  0.013  0.400  0.000
  0.000  0.013  0.000  0.000  0.400
   spin  2
    eigenvalues: 
  0.350  0.350  0.384  0.401  0.401
    eigenvectors:
  0.000  0.000  1.000  0.000  0.000
  0.763  0.146  0.000  0.013  0.078
  0.146  0.763  0.000  0.078  0.013
  0.016  0.075  0.000  0.766  0.143
  0.075  0.016  0.000  0.143  0.766
    occupations:
  0.384  0.000  0.000  0.000  0.000
  0.000  0.355  0.000  0.000  0.015
  0.000  0.000  0.355  0.015  0.000
  0.000  0.000  0.015  0.396  0.000
  0.000  0.015  0.000  0.000  0.396
atomic mag. moment =     0.014395
atom    4   Tr[ns(na)] (up, down, total) =   1.91473  1.90040  3.81513
   spin  1
    eigenvalues: 
  0.357  0.357  0.387  0.407  0.407
    eigenvectors:
  0.000  0.000  1.000  0.000  0.000
  0.786  0.138  0.000  0.011  0.065
  0.138  0.786  0.000  0.065  0.011
  0.012  0.064  0.000  0.786  0.139
  0.064  0.012  0.000  0.139  0.786
    occupations:
  0.387  0.000  0.000  0.000  0.000
  0.000  0.361  0.000  0.000  0.013
  0.000  0.000  0.361  0.013  0.000
  0.000  0.000  0.013  0.403  0.000
  0.000  0.013  0.000  0.000  0.403
   spin  2
    eigenvalues: 
  0.353  0.353  0.387  0.404  0.404
    eigenvectors:
  0.000  0.000  1.000  0.000  0.000
  0.765  0.145  0.000  0.013  0.077
  0.145  0.765  0.000  0.077  0.013
  0.015  0.074  0.000  0.768  0.142
  0.074  0.015  0.000  0.142  0.768
    occupations:
  0.387  0.000  0.000  0.000  0.000
  0.000  0.358  0.000  0.000  0.015
  0.000  0.000  0.358  0.015  0.000
  0.000  0.000  0.015  0.399  0.000
  0.000  0.015  0.000  0.000  0.399
atomic mag. moment =     0.014329
atom    5   Tr[ns(na)] (up, down, total) =   2.74286  2.70360  5.44645
   spin  1
    eigenvalues: 
  0.844  0.948  0.951
    eigenvectors:
  0.337  0.000  0.663
  0.508  0.244  0.248
  0.156  0.756  0.089
    occupations:
  0.915 -0.045  0.025
 -0.045  0.896  0.029
  0.025  0.029  0.932
   spin  2
    eigenvalues: 
  0.864  0.920  0.920
    eigenvectors:
  0.333  0.658  0.009
  0.513  0.200  0.286
  0.153  0.142  0.705
    occupations:
  0.901 -0.023  0.013
 -0.023  0.891  0.016
  0.013  0.016  0.911
atomic mag. moment =     0.039260
atom    6   Tr[ns(na)] (up, down, total) =   2.74286  2.70360  5.44645
   spin  1
    eigenvalues: 
  0.844  0.948  0.951
    eigenvectors:
  0.337  0.000  0.663
  0.487  0.256  0.257
  0.176  0.744  0.080
    occupations:
  0.915  0.044  0.026
  0.044  0.898 -0.030
  0.026 -0.030  0.930
   spin  2
    eigenvalues: 
  0.864  0.920  0.920
    eigenvectors:
  0.333  0.658  0.009
  0.486  0.303  0.211
  0.181  0.040  0.780
    occupations:
  0.901  0.022  0.014
  0.022  0.893 -0.017
  0.014 -0.017  0.910
atomic mag. moment =     0.039260
atom    7   Tr[ns(na)] (up, down, total) =   2.74286  2.70360  5.44645
   spin  1
    eigenvalues: 
  0.844  0.948  0.951
    eigenvectors:
  0.337  0.000  0.663
  0.000  1.000  0.000
  0.663  0.000  0.337
    occupations:
  0.915  0.001 -0.051
  0.001  0.948  0.001
 -0.051  0.001  0.880
   spin  2
    eigenvalues: 
  0.864  0.920  0.920
    eigenvectors:
  0.333  0.658  0.009
  0.000  0.011  0.989
  0.666  0.332  0.002
    occupations:
  0.901  0.001 -0.026
  0.001  0.920  0.001
 -0.026  0.001  0.883
atomic mag. moment =     0.039260
atom    8   Tr[ns(na)] (up, down, total) =   2.74281  2.70364  5.44644
   spin  1
    eigenvalues: 
  0.844  0.947  0.952
    eigenvectors:
  0.337  0.000  0.663
  0.508  0.243  0.249
  0.156  0.756  0.088
    occupations:
  0.915 -0.045  0.025
 -0.045  0.896  0.029
  0.025  0.029  0.932
   spin  2
    eigenvalues: 
  0.864  0.920  0.920
    eigenvectors:
  0.333  0.001  0.666
  0.514  0.215  0.271
  0.153  0.784  0.063
    occupations:
  0.901 -0.023  0.013
 -0.023  0.891  0.016
  0.013  0.016  0.911
atomic mag. moment =     0.039169
atom    9   Tr[ns(na)] (up, down, total) =   2.74281  2.70364  5.44644
   spin  1
    eigenvalues: 
  0.844  0.947  0.952
    eigenvectors:
  0.337  0.000  0.663
  0.487  0.256  0.257
  0.176  0.743  0.080
    occupations:
  0.915  0.044  0.026
  0.044  0.898 -0.030
  0.026 -0.030  0.929
   spin  2
    eigenvalues: 
  0.864  0.920  0.920
    eigenvectors:
  0.333  0.001  0.666
  0.486  0.286  0.228
  0.181  0.713  0.106
    occupations:
  0.901  0.023  0.014
  0.023  0.893 -0.016
  0.014 -0.016  0.910
[...]
     0.0937   0.0937   0.0937   0.0937   0.0937   0.0937   0.0937   0.0871
     0.0076   0.0000   0.0000   0.0000   0.0000   0.0000

          k = 0.4942-0.5706-0.2053 (  2206 PWs)   bands (ev):

   -19.7105 -19.6530  -6.8440  -6.8340  -5.9926  -5.9875  -5.3754  -5.3726
    -3.1375  -3.1215  -2.7946  -2.7673  -2.3557  -2.3513   5.9476   5.9743
     6.8247   6.8653   6.9168   6.9341   7.3758   7.3955   7.9176   7.9628
     8.7734   8.7887   8.8968   8.9026   9.4971   9.5126   9.9922  10.0096
    10.6592  10.7078  10.8128  10.8787  11.0948  11.1412  11.4479  11.4911
    13.3178  13.3576  17.4605  17.4629  17.9083  17.9119

     occupation numbers 
     0.0938   0.0938   0.0938   0.0938   0.0938   0.0938   0.0938   0.0938
     0.0938   0.0938   0.0938   0.0938   0.0938   0.0938   0.0938   0.0938
     0.0938   0.0938   0.0938   0.0938   0.0938   0.0938   0.0938   0.0938
     0.0938   0.0938   0.0938   0.0938   0.0938   0.0938   0.0937   0.0937
     0.0937   0.0937   0.0937   0.0937   0.0937   0.0937   0.0936   0.0935
     0.0000   0.0000   0.0000   0.0000   0.0000   0.0000

          k = 0.0000 0.0000-0.6160 (  2186 PWs)   bands (ev):

   -19.7120 -19.6630  -6.4794  -6.4444  -5.8991  -5.8991  -5.8734  -5.8734
    -2.8734  -2.8734  -2.8383  -2.8383  -2.7065  -2.6656   6.3021   6.3200
     6.9369   6.9369   7.0016   7.0016   7.6850   7.7141   7.8688   7.8688
     7.9091   7.9091   9.5664   9.5664   9.5988   9.5988   9.6914   9.7133
    10.7135  10.8834  10.8834  10.8859  11.0378  11.0378  12.4546  12.4546
    12.6338  12.6338  17.1314  17.1314  17.1741  17.1741

     occupation numbers 
     0.0156   0.0156   0.0156   0.0156   0.0156   0.0156   0.0156   0.0156
     0.0156   0.0156   0.0156   0.0156   0.0156   0.0156   0.0156   0.0156
     0.0156   0.0156   0.0156   0.0156   0.0156   0.0156   0.0156   0.0156
     0.0156   0.0156   0.0156   0.0156   0.0156   0.0156   0.0156   0.0156
     0.0156   0.0156   0.0156   0.0156   0.0156   0.0156   0.0048   0.0048
     0.0020   0.0020   0.0000   0.0000   0.0000   0.0000

          k = 0.4942-0.5706 0.1027 (  2198 PWs)   bands (ev):

   -19.7179 -19.6504  -6.9180  -6.5983  -6.0865  -5.8405  -5.4557  -5.3309
    -3.2784  -3.2260  -2.8484  -2.6769  -2.4958  -2.3560   5.8473   6.1562
     6.6399   6.7509   7.0970   7.2835   7.4270   7.6318   7.7337   7.8855
     8.1859   8.7482   9.0139   9.2323   9.5225   9.7591   9.8748  10.3056
    10.4178  10.7808  10.9191  10.9738  11.1125  11.1821  11.5426  11.9258
    12.7178  13.7182  16.9504  17.1472  17.3530  18.0528

     occupation numbers 
     0.0938   0.0938   0.0938   0.0938   0.0938   0.0938   0.0938   0.0938
     0.0938   0.0938   0.0938   0.0938   0.0938   0.0938   0.0938   0.0938
     0.0938   0.0938   0.0938   0.0938   0.0938   0.0938   0.0938   0.0938
     0.0938   0.0938   0.0938   0.0938   0.0938   0.0938   0.0938   0.0937
     0.0937   0.0937   0.0937   0.0937   0.0937   0.0937   0.0934   0.0851
     0.0073   0.0000   0.0000   0.0000   0.0000   0.0000

 ------ SPIN DOWN ----------


          k = 0.0000 0.0000 0.0000 (  2175 PWs)   bands (ev):

   -19.7777 -19.5980  -6.4264  -5.6889  -5.6889  -5.6816  -5.6816  -5.3265
    -3.7300  -3.2419  -3.1265  -3.1265  -2.9778  -2.9778   5.2561   7.2729
     7.2729   7.5952   7.5952   7.7866   8.0358   8.0358   8.0779   9.4458
     9.7561   9.7561  10.0758  10.1346  10.1346  10.6036  10.6036  10.7997
    11.2178  11.2178  11.3049  12.1535  12.1535  12.6956  13.0212  13.0212
    15.3727  15.3727  15.5368  15.5368  16.2631  16.8644

     occupation numbers 
     0.0156   0.0156   0.0156   0.0156   0.0156   0.0156   0.0156   0.0156
     0.0156   0.0156   0.0156   0.0156   0.0156   0.0156   0.0156   0.0156
     0.0156   0.0156   0.0156   0.0156   0.0156   0.0156   0.0156   0.0156
     0.0156   0.0156   0.0156   0.0156   0.0156   0.0156   0.0156   0.0156
     0.0156   0.0156   0.0156   0.0110   0.0110   0.0014   0.0001   0.0001
     0.0000   0.0000   0.0000   0.0000   0.0000   0.0000

          k =-0.2471-0.1427 0.1027 (  2181 PWs)   bands (ev):

   -19.7511 -19.6195  -6.6121  -6.1587  -5.8041  -5.7099  -5.4624  -5.3240
    -3.5441  -3.3481  -2.8723  -2.8463  -2.7800  -2.7053   5.6273   6.9685
     7.3413   7.3590   7.4798   7.6908   7.6945   8.0410   8.0600   8.8294
     8.8960   9.5309   9.8116  10.0136  10.0727  10.2002  10.5476  10.5576
    11.5469  11.5917  11.6434  12.3401  12.3808  12.5107  13.1688  13.2156
    14.9370  14.9482  15.9259  16.1664  17.0472  17.3487

     occupation numbers 
     0.0938   0.0938   0.0938   0.0938   0.0938   0.0938   0.0938   0.0938
     0.0938   0.0938   0.0938   0.0938   0.0938   0.0938   0.0938   0.0938
     0.0938   0.0938   0.0938   0.0938   0.0938   0.0938   0.0938   0.0938
     0.0938   0.0938   0.0938   0.0937   0.0937   0.0937   0.0937   0.0937
     0.0934   0.0931   0.0928   0.0427   0.0375   0.0226   0.0001   0.0001
     0.0000   0.0000   0.0000   0.0000   0.0000   0.0000

          k = 0.4942 0.2853-0.2053 (  2202 PWs)   bands (ev):

   -19.7072 -19.6581  -6.6176  -6.5869  -5.8299  -5.8225  -5.3736  -5.3690
    -3.3489  -3.3255  -2.7308  -2.7183  -2.4731  -2.4379   6.1780   6.1940
     7.4277   7.4634   7.4974   7.5411   7.8580   7.8921   8.1600   8.1930
     8.4174   8.4522   9.7275   9.7401  10.0398  10.0447  10.4601  10.4655
    11.9471  12.0071  12.0426  12.1005  12.1936  12.2429  13.9571  14.0272
    14.0595  14.1290  16.9025  16.9433  17.1984  17.2384

     occupation numbers 
     0.0469   0.0469   0.0469   0.0469   0.0469   0.0469   0.0469   0.0469
     0.0469   0.0469   0.0469   0.0469   0.0469   0.0469   0.0469   0.0469
     0.0469   0.0469   0.0469   0.0469   0.0469   0.0469   0.0469   0.0469
     0.0469   0.0469   0.0469   0.0469   0.0469   0.0469   0.0469   0.0469
     0.0419   0.0399   0.0385   0.0358   0.0307   0.0276   0.0000   0.0000
     0.0000   0.0000   0.0000   0.0000   0.0000   0.0000

          k =-0.2471 0.1427 0.2053 (  2195 PWs)   bands (ev):

   -19.7457 -19.6202  -6.7412  -6.1108  -5.9398  -5.6742  -5.5109  -5.3021
    -3.3688  -3.2306  -3.0444  -2.8272  -2.7434  -2.5016   5.6808   6.9988
     7.2692   7.3075   7.4022   7.5768   7.6656   8.0724   8.0946   8.8585
     9.1171   9.1218   9.4782   9.9758  10.1400  10.2707  10.3506  10.4727
    11.2377  11.8640  11.9714  12.0358  12.3983  12.5195  12.9447  13.5064
    14.3129  15.4075  16.0797  16.2862  17.1196  17.6047

     occupation numbers 
     0.0938   0.0938   0.0938   0.0938   0.0938   0.0938   0.0938   0.0938
     0.0938   0.0938   0.0938   0.0938   0.0938   0.0938   0.0938   0.0938
     0.0938   0.0938   0.0938   0.0938   0.0938   0.0938   0.0938   0.0938
     0.0938   0.0938   0.0938   0.0937   0.0937   0.0937   0.0937   0.0937
     0.0937   0.0879   0.0823   0.0775   0.0354   0.0217   0.0013   0.0000
     0.0000   0.0000   0.0000   0.0000   0.0000   0.0000

          k = 0.4942 0.5706-0.1027 (  2198 PWs)   bands (ev):

   -19.7126 -19.6452  -6.8426  -6.5264  -6.0127  -5.7606  -5.3546  -5.2241
    -3.2698  -3.2160  -2.8243  -2.6491  -2.4645  -2.3236   6.0464   6.4250
     7.0633   7.3200   7.4115   7.4897   7.7498   8.0160   8.1500   8.2871
     8.5560   9.0935   9.3518   9.5328   9.8695   9.9857  10.1465  10.5335
    11.6185  12.0053  12.1101  12.1985  12.3337  12.3515  13.1558  13.5141
    14.1334  15.0009  16.9879  17.2085  17.3984  18.0865

     occupation numbers 
     0.0938   0.0938   0.0938   0.0938   0.0938   0.0938   0.0938   0.0938
     0.0938   0.0938   0.0938   0.0938   0.0938   0.0938   0.0938   0.0938
     0.0938   0.0938   0.0938   0.0938   0.0938   0.0938   0.0938   0.0938
     0.0938   0.0938   0.0938   0.0938   0.0938   0.0937   0.0937   0.0937
     0.0930   0.0800   0.0706   0.0607   0.0436   0.0413   0.0002   0.0000
     0.0000   0.0000   0.0000   0.0000   0.0000   0.0000

          k = 0.2471 0.4280 0.0000 (  2203 PWs)   bands (ev):

   -19.7201 -19.6425  -6.7325  -6.5132  -5.9287  -5.8494  -5.2820  -5.2076
    -3.4733  -3.2623  -2.7442  -2.6549  -2.5083  -2.4923   5.9992   6.4469
     7.2753   7.4085   7.4604   7.5328   7.5860   7.9296   8.0385   8.3958
     8.6557   9.1224   9.5795   9.6922   9.9596   9.9636  10.2278  10.5455
    11.8813  11.8942  11.9639  12.1540  12.1744  12.4497  13.1223  13.9892
    14.1081  14.8082  16.5317  17.0779  17.4951  17.9987

     occupation numbers 
     0.0938   0.0938   0.0938   0.0938   0.0938   0.0938   0.0938   0.0938
     0.0938   0.0938   0.0938   0.0938   0.0938   0.0938   0.0938   0.0938
     0.0938   0.0938   0.0938   0.0938   0.0938   0.0938   0.0938   0.0938
     0.0938   0.0938   0.0938   0.0938   0.0937   0.0937   0.0937   0.0937
     0.0872   0.0866   0.0828   0.0659   0.0636   0.0292   0.0002   0.0000
     0.0000   0.0000   0.0000   0.0000   0.0000   0.0000

          k = 0.4942-0.2853-0.4107 (  2202 PWs)   bands (ev):

   -19.7153 -19.6346  -7.0606  -6.3538  -6.1371  -5.7943  -5.3872  -5.1266
    -3.1624  -3.0981  -2.9949  -2.5907  -2.4131  -2.1613   5.9692   6.5305
     6.6412   7.2438   7.2613   7.3490   8.1056   8.1739   8.2888   8.3838
     8.7287   8.8561   8.8757   9.5574   9.7922  10.1706  10.1964  10.6145
    11.2206  11.8999  12.0244  12.2479  12.3896  12.4598  12.8823  13.2748
    14.0592  15.4295  17.1213  17.3664  17.5989  17.6599

     occupation numbers 
     0.0469   0.0469   0.0469   0.0469   0.0469   0.0469   0.0469   0.0469
     0.0469   0.0469   0.0469   0.0469   0.0469   0.0469   0.0469   0.0469
     0.0469   0.0469   0.0469   0.0469   0.0469   0.0469   0.0469   0.0469
     0.0469   0.0469   0.0469   0.0469   0.0469   0.0469   0.0469   0.0469
     0.0469   0.0432   0.0392   0.0273   0.0182   0.0140   0.0011   0.0000
     0.0000   0.0000   0.0000   0.0000   0.0000   0.0000

          k = 0.0000 0.0000 0.3080 (  2187 PWs)   bands (ev):

   -19.7509 -19.6193  -6.4982  -5.8407  -5.7943  -5.7878  -5.7001  -5.7001
    -3.1547  -3.0525  -3.0228  -2.9345  -2.8504  -2.8240   5.6779   7.2207
     7.3407   7.3433   7.5652   7.5669   7.7026   8.0658   8.0736   9.0655
     9.0672   9.5923   9.5958   9.8719   9.8745  10.0782  10.3081  10.3114
    11.6593  11.6606  11.6776  12.3554  12.3561  12.5287  13.1480  13.1489
    14.8965  14.8998  16.0095  16.0186  16.9499  17.5680

     occupation numbers 
     0.0313   0.0313   0.0313   0.0313   0.0313   0.0313   0.0313   0.0313
     0.0313   0.0313   0.0313   0.0313   0.0313   0.0313   0.0313   0.0313
     0.0313   0.0313   0.0313   0.0313   0.0313   0.0313   0.0313   0.0313
     0.0313   0.0313   0.0313   0.0313   0.0313   0.0312   0.0312   0.0312
     0.0309   0.0309   0.0308   0.0136   0.0136   0.0069   0.0001   0.0001
     0.0000   0.0000   0.0000   0.0000   0.0000   0.0000

          k = 0.7412 0.4280 0.0000 (  2204 PWs)   bands (ev):

   -19.7198 -19.6423  -6.6156  -6.4772  -6.0225  -5.6978  -5.5355  -5.3955
    -3.1195  -3.0449  -2.9979  -2.6211  -2.5970  -2.5161   6.0453   6.6308
     7.2838   7.4430   7.4582   7.5537   7.5853   7.8840   8.2222   8.3734
     8.6986   8.9970   9.6515   9.6788   9.7806   9.8470  10.0494  10.3908
    11.8750  11.8992  12.0261  12.1690  12.2180  12.4132  13.1157  13.9148
    14.0321  14.8342  16.7881  16.8061  17.6657  17.8775

     occupation numbers 
     0.0938   0.0938   0.0938   0.0938   0.0938   0.0938   0.0938   0.0938
     0.0938   0.0938   0.0938   0.0938   0.0938   0.0938   0.0938   0.0938
     0.0938   0.0938   0.0938   0.0938   0.0938   0.0938   0.0938   0.0938
     0.0938   0.0938   0.0938   0.0938   0.0938   0.0938   0.0937   0.0937
     0.0875   0.0864   0.0783   0.0642   0.0583   0.0335   0.0002   0.0000
     0.0000   0.0000   0.0000   0.0000   0.0000   0.0000

          k = 0.4942 0.2853 0.1027 (  2211 PWs)   bands (ev):

   -19.7126 -19.6451  -6.8592  -6.4198  -6.2086  -5.5523  -5.4838  -5.1956
    -3.2822  -3.1292  -2.9760  -2.5482  -2.4970  -2.3151   6.0717   6.3988
     7.0306   7.3227   7.3592   7.4689   7.7458   8.0581   8.2230   8.2465
     8.6023   9.2201   9.3561   9.5876   9.7392   9.8430  10.2037  10.5485
    11.6164  12.0538  12.1515  12.2193  12.2792  12.2941  13.1192  13.5239
    14.1775  14.9856  16.9713  17.0178  17.6771  18.0128

     occupation numbers 
     0.0938   0.0938   0.0938   0.0938   0.0938   0.0938   0.0938   0.0938
     0.0938   0.0938   0.0938   0.0938   0.0938   0.0938   0.0938   0.0938
     0.0938   0.0938   0.0938   0.0938   0.0938   0.0938   0.0938   0.0938
     0.0938   0.0938   0.0938   0.0938   0.0938   0.0938   0.0937   0.0937
     0.0930   0.0760   0.0662   0.0582   0.0506   0.0487   0.0002   0.0000
     0.0000   0.0000   0.0000   0.0000   0.0000   0.0000

          k = 0.7412-0.4280-0.3080 (  2210 PWs)   bands (ev):

   -19.7123 -19.6449  -6.7943  -6.3259  -6.1866  -5.6641  -5.6134  -5.3307
    -3.0277  -2.9988  -2.9268  -2.6722  -2.5522  -2.3667   6.1345   6.5533
     7.1130   7.3070   7.4076   7.4241   7.7650   8.1021   8.2478   8.2849
     8.5994   9.1853   9.2034   9.6890   9.7246   9.7820   9.8478  10.3879
    11.6664  12.0585  12.1374  12.2049  12.3138  12.3668  13.0822  13.4832
    14.1298  14.9523  17.1495  17.1593  17.6450  17.9727

     occupation numbers 
     0.0938   0.0938   0.0938   0.0938   0.0938   0.0938   0.0938   0.0938
     0.0938   0.0938   0.0938   0.0938   0.0938   0.0938   0.0938   0.0938
     0.0938   0.0938   0.0938   0.0938   0.0938   0.0938   0.0938   0.0938
     0.0938   0.0938   0.0938   0.0938   0.0938   0.0938   0.0938   0.0937
     0.0925   0.0756   0.0678   0.0600   0.0461   0.0393   0.0003   0.0000
     0.0000   0.0000   0.0000   0.0000   0.0000   0.0000

          k = 0.4942-0.5706-0.2053 (  2206 PWs)   bands (ev):

   -19.7053 -19.6477  -6.7708  -6.7606  -5.9181  -5.9127  -5.2696  -5.2672
    -3.1299  -3.1139  -2.7690  -2.7421  -2.3222  -2.3176   6.2470   6.2747
     7.1906   7.2042   7.3622   7.3732   7.5924   7.6111   8.4403   8.4830
     8.9417   8.9561   9.2472   9.2506   9.7190   9.7261  10.2843  10.2880
    11.8725  11.8818  12.0446  12.0865  12.3605  12.3845  13.1427  13.1618
    14.6647  14.6799  17.5245  17.5257  17.9375  17.9421

     occupation numbers 
     0.0938   0.0938   0.0938   0.0938   0.0938   0.0938   0.0938   0.0938
     0.0938   0.0938   0.0938   0.0938   0.0938   0.0938   0.0938   0.0938
     0.0938   0.0938   0.0938   0.0938   0.0938   0.0938   0.0938   0.0938
     0.0938   0.0938   0.0938   0.0938   0.0938   0.0938   0.0937   0.0937
     0.0876   0.0872   0.0768   0.0730   0.0401   0.0371   0.0002   0.0001
     0.0000   0.0000   0.0000   0.0000   0.0000   0.0000

          k = 0.0000 0.0000-0.6160 (  2186 PWs)   bands (ev):

   -19.7067 -19.6577  -6.4015  -6.3659  -5.8170  -5.8170  -5.7912  -5.7912
    -2.8410  -2.8410  -2.8064  -2.8064  -2.6899  -2.6491   6.3896   6.4062
     7.4450   7.4450   7.4895   7.4895   8.0099   8.0367   8.3266   8.3266
     8.3643   8.3643   9.8321   9.8321   9.8350   9.8350   9.8737   9.8832
    12.0919  12.1225  12.1225  12.1494  12.1746  12.1746  13.8927  13.8927
    13.9976  13.9976  17.1908  17.1908  17.2325  17.2325

     occupation numbers 
     0.0156   0.0156   0.0156   0.0156   0.0156   0.0156   0.0156   0.0156
     0.0156   0.0156   0.0156   0.0156   0.0156   0.0156   0.0156   0.0156
     0.0156   0.0156   0.0156   0.0156   0.0156   0.0156   0.0156   0.0156
     0.0156   0.0156   0.0156   0.0156   0.0156   0.0156   0.0156   0.0156
     0.0121   0.0116   0.0116   0.0111   0.0106   0.0106   0.0000   0.0000
     0.0000   0.0000   0.0000   0.0000   0.0000   0.0000

          k = 0.4942-0.5706 0.1027 (  2198 PWs)   bands (ev):

   -19.7126 -19.6452  -6.8430  -6.5255  -6.0136  -5.7594  -5.3557  -5.2236
    -3.2705  -3.2159  -2.8244  -2.6480  -2.4653  -2.3232   6.0440   6.4285
     7.0593   7.3259   7.4306   7.4760   7.7386   8.0166   8.1246   8.3177
     8.5526   9.1006   9.3471   9.5301   9.8661   9.9890  10.1466  10.5343
    11.6158  12.0333  12.0850  12.1993  12.3375  12.3478  13.1530  13.5138
    14.1333  15.0022  16.9901  17.2060  17.3989  18.0885

     occupation numbers 
     0.0938   0.0938   0.0938   0.0938   0.0938   0.0938   0.0938   0.0938
     0.0938   0.0938   0.0938   0.0938   0.0938   0.0938   0.0938   0.0938
     0.0938   0.0938   0.0938   0.0938   0.0938   0.0938   0.0938   0.0938
     0.0938   0.0938   0.0938   0.0938   0.0938   0.0937   0.0937   0.0937
     0.0930   0.0778   0.0731   0.0606   0.0431   0.0417   0.0002   0.0000
     0.0000   0.0000   0.0000   0.0000   0.0000   0.0000

     the Fermi energy is    12.3080 ev

!    total energy              =    -538.32748954 Ry
     Harris-Foulkes estimate   =    -538.32748954 Ry
     estimated scf accuracy    <          8.6E-09 Ry

     The total energy is the sum of the following terms:

     one-electron contribution =     -32.77663549 Ry
     hartree contribution      =      83.56421426 Ry
     xc contribution           =    -199.65984522 Ry
     ewald contribution        =    -389.44315552 Ry
     Hubbard energy            =       0.02783286 Ry
     smearing contrib. (-TS)   =      -0.03990043 Ry

     total magnetization       =     3.54 Bohr mag/cell
     absolute magnetization    =     3.69 Bohr mag/cell

     convergence has been achieved in   9 iterations

     init_run     :      8.84s CPU      8.99s WALL (       1 calls)
     electrons    :    305.26s CPU    307.15s WALL (       1 calls)

     Called by init_run:
     wfcinit      :      0.00s CPU      0.00s WALL (       1 calls)
     potinit      :      0.87s CPU      0.91s WALL (       1 calls)

     Called by electrons:
     c_bands      :    215.60s CPU    216.32s WALL (       9 calls)
     sum_band     :     56.54s CPU     56.96s WALL (       9 calls)
     v_of_rho     :      7.55s CPU      7.64s WALL (      10 calls)
     v_h          :      0.19s CPU      0.19s WALL (      10 calls)
     v_xc         :      7.36s CPU      7.45s WALL (      10 calls)
     newd         :     27.67s CPU     27.72s WALL (      10 calls)
     mix_rho      :      0.53s CPU      0.54s WALL (       9 calls)

     Called by c_bands:
     init_us_2    :      2.12s CPU      2.11s WALL (     504 calls)
     cegterg      :    209.95s CPU    210.33s WALL (     252 calls)

     Called by sum_band:
     sum_band:bec :      0.19s CPU      0.19s WALL (     252 calls)
     addusdens    :     21.99s CPU     22.05s WALL (       9 calls)

     Called by *egterg:
     h_psi        :    151.22s CPU    151.51s WALL (    1142 calls)
     s_psi        :      9.05s CPU      9.06s WALL (    1142 calls)
     g_psi        :      0.71s CPU      0.69s WALL (     890 calls)
     cdiaghg      :     19.50s CPU     19.53s WALL (    1114 calls)
     cegterg:over :     11.19s CPU     11.20s WALL (     890 calls)
     cegterg:upda :      8.25s CPU      8.27s WALL (     890 calls)
     cegterg:last :      4.34s CPU      4.35s WALL (     280 calls)

     Called by h_psi:
     h_psi:vloc   :    122.66s CPU    122.90s WALL (    1142 calls)
     h_psi:vnl    :     18.45s CPU     18.47s WALL (    1142 calls)
     add_vuspsi   :      9.08s CPU      9.07s WALL (    1142 calls)
     vhpsi        :      9.74s CPU      9.74s WALL (    1142 calls)

     General routines
     calbec       :     18.67s CPU     18.71s WALL (    2788 calls)
     fft          :      3.45s CPU      3.48s WALL (     298 calls)
     ffts         :      0.11s CPU      0.11s WALL (      38 calls)
     fftw         :    112.97s CPU    113.08s WALL (   75028 calls)
     interpolate  :      0.64s CPU      0.64s WALL (      38 calls)
     davcio       :      0.01s CPU      0.68s WALL (     532 calls)

     Parallel routines
     fft_scatter  :     30.97s CPU     31.11s WALL (   75364 calls)
     Hubbard U routines
     new_ns       :      1.75s CPU      2.05s WALL (       9 calls)
     vhpsi        :      9.74s CPU      9.74s WALL (    1142 calls)

     PWSCF        :  5m14.55s CPU     5m16.65s WALL


   This run was terminated on:  12:30:41  13Nov2012            

=------------------------------------------------------------------------------=
