   JOB DONE.
=------------------------------------------------------------------------------=

     Program PWSCF v.5.0.1 starts on 11Nov2012 at 14:46:31 

     This program is part of the open-source Quantum ESPRESSO suite
     for quantum simulation of materials; please cite
         "P. Giannozzi et al., J. Phys.:Condens. Matter 21 395502 (2009);
          URL http://www.quantum-espresso.org", 
     in publications or presentations arising from this work. More details at
     http://www.quantum-espresso.org/quote.php

     Parallel version (MPI), running on     2 processors
     R & G space division:  proc/pool =    2

     Current dimensions of program PWSCF are:
     Max number of different atomic species (ntypx) = 10
     Max number of k-points (npk) =  40000
     Max angular momentum in pseudopotentials (lmaxx) =  3
     Reading input from CoLaO_U400_a-15.in
               file Co.pbe-nd-rrkjus.UPF: wavefunction(s)  4S 3D renormalized
               file Co.pbe-nd-rrkjus.UPF: wavefunction(s)  4S 3D renormalized
               file O.pbe-rrkjus.UPF: wavefunction(s)  2S renormalized

     Subspace diagonalization in iterative solution of the eigenvalue problem:
     a serial algorithm will be used


     Parallelization info
     --------------------
     sticks:   dense  smooth     PW     G-vecs:    dense   smooth      PW
     Min        1112     444    131                34808     8786    1448
     Max        1113     445    132                34809     8787    1449
     Sum        2225     889    263                69617    17573    2897


     Title: 
     GGA + U, U = 4.000, alpha = -0.150                                         


     bravais-lattice index     =            5
     lattice parameter (alat)  =      10.3292  a.u.
     unit-cell volume          =     793.0599 (a.u.)^3
     number of atoms/cell      =           10
     number of atomic types    =            4
     number of electrons       =        76.00
     number of Kohn-Sham states=           46
     kinetic-energy cutoff     =      30.0000  Ry
     charge density cutoff     =     300.0000  Ry
     convergence threshold     =      1.0E-08
     mixing beta               =       0.2000
     number of iterations used =            8  plain     mixing
     Exchange-correlation      =  SLA  PW   PBE  PBE ( 1 4 3 4 0)
     EXX-fraction              =        0.00

     celldm(1)=  10.329242  celldm(2)=   0.000000  celldm(3)=   0.000000
     celldm(4)=   0.488100  celldm(5)=   0.000000  celldm(6)=   0.000000

     crystal axes: (cart. coord. in units of alat)
               a(1) = (   0.505915  -0.292090   0.811624 )  
               a(2) = (   0.000000   0.584180   0.811624 )  
               a(3) = (  -0.505915  -0.292090   0.811624 )  

     reciprocal axes: (cart. coord. in units 2 pi/alat)
               b(1) = (  0.988308 -0.570600  0.410699 )  
               b(2) = (  0.000000  1.141200  0.410699 )  
               b(3) = ( -0.988308 -0.570600  0.410699 )  


     PseudoPot. # 1 for Co read from file:
     /home/mcurnan/dft-course/Project1/example_LaCoO3/Co.pbe-nd-rrkjus.UPF
     MD5 check sum: 3e47a84addf5e975e0edeaeee2a73f59
     Pseudo is Ultrasoft + core correction, Zval =  9.0
     Generated by new atomic code, or converted to UPF format
     Using radial grid of  961 points,  6 beta functions with: 
                l(1) =   0
                l(2) =   0
                l(3) =   1
                l(4) =   1
                l(5) =   2
                l(6) =   2
     Q(r) pseudized with 0 coefficients 


     PseudoPot. # 2 for Co read from file:
     /home/mcurnan/dft-course/Project1/example_LaCoO3/Co.pbe-nd-rrkjus.UPF
     MD5 check sum: 3e47a84addf5e975e0edeaeee2a73f59
     Pseudo is Ultrasoft + core correction, Zval =  9.0
     Generated by new atomic code, or converted to UPF format
     Using radial grid of  961 points,  6 beta functions with: 
                l(1) =   0
                l(2) =   0
                l(3) =   1
                l(4) =   1
                l(5) =   2
                l(6) =   2
     Q(r) pseudized with 0 coefficients 


     PseudoPot. # 3 for La read from file:
     /home/mcurnan/dft-course/Project1/example_LaCoO3/La.pbe-nsp-van.UPF
     MD5 check sum: b2f11743f52dde65f77d1302becd7929
     Pseudo is Ultrasoft + core correction, Zval = 11.0
     Generated by new atomic code, or converted to UPF format
     Using radial grid of  907 points,  6 beta functions with: 
                l(1) =   0
                l(2) =   0
                l(3) =   1
                l(4) =   1
                l(5) =   2
                l(6) =   2
     Q(r) pseudized with  6 coefficients,  rinner =    1.200   1.200   1.200
                                                       1.200   1.200

     PseudoPot. # 4 for O  read from file:
     /home/mcurnan/dft-course/Project1/example_LaCoO3/O.pbe-rrkjus.UPF
     MD5 check sum: 390ba29e75625707450f3bd3f0eb6be9
     Pseudo is Ultrasoft, Zval =  6.0
     Generated by new atomic code, or converted to UPF format
     Using radial grid of 1269 points,  4 beta functions with: 
                l(1) =   0
                l(2) =   0
                l(3) =   1
                l(4) =   1
     Q(r) pseudized with 0 coefficients 


     atomic species   valence    mass     pseudopotential
        Co1            9.00     1.00000     Co( 1.00)
        Co2            9.00     1.00000     Co( 1.00)
        La1           11.00     1.00000     La( 1.00)
        O1             6.00     1.00000     O ( 1.00)
 -----
     simplified LDA+U calculation, Hubbard_lmax = 2
     atomic species  L   Hubbard U  Hubbard alpha
        Co1          2    4.000000   -0.150000
        Co2          2    4.000000    0.000000
        La1          2    0.000000    0.000000
        O1           1    0.000000    0.000000
 -----

      6 Sym. Ops., with inversion, found


                                    s                        frac. trans.

      isym =  1     identity                                     

 cryst.   s( 1) = (     1          0          0      )
                  (     0          1          0      )
                  (     0          0          1      )

 cart.    s( 1) = (  1.0000000  0.0000000  0.0000000 )
                  (  0.0000000  1.0000000  0.0000000 )
                  (  0.0000000  0.0000000  1.0000000 )


      isym =  2     120 deg rotation - cryst. axis [0,0,1]       

 cryst.   s( 2) = (     0          1          0      )
                  (     0          0          1      )
                  (     1          0          0      )

 cart.    s( 2) = ( -0.5000000 -0.8660254  0.0000000 )
                  (  0.8660254 -0.5000000  0.0000000 )
                  (  0.0000000  0.0000000  1.0000000 )


      isym =  3     120 deg rotation - cryst. axis [0,0,-1]      

 cryst.   s( 3) = (     0          0          1      )
                  (     1          0          0      )
                  (     0          1          0      )

 cart.    s( 3) = ( -0.5000000  0.8660254  0.0000000 )
                  ( -0.8660254 -0.5000000  0.0000000 )
                  (  0.0000000  0.0000000  1.0000000 )


      isym =  4     inversion                                    

 cryst.   s( 4) = (    -1          0          0      )
                  (     0         -1          0      )
                  (     0          0         -1      )

 cart.    s( 4) = ( -1.0000000  0.0000000  0.0000000 )
                  (  0.0000000 -1.0000000  0.0000000 )
                  (  0.0000000  0.0000000 -1.0000000 )


      isym =  5     inv. 180 deg rotation - cart. axis [0,1,0]   

 cryst.   s( 5) = (     0         -1          0      )
                  (     0          0         -1      )
                  (    -1          0          0      )

 cart.    s( 5) = (  0.5000000  0.8660254  0.0000000 )
                  ( -0.8660254  0.5000000  0.0000000 )
                  (  0.0000000  0.0000000 -1.0000000 )


      isym =  6     inv. 180 deg rotation - cart. axis [1,0,0]   

 cryst.   s( 6) = (     0          0         -1      )
                  (    -1          0          0      )
                  (     0         -1          0      )

 cart.    s( 6) = (  0.5000000 -0.8660254  0.0000000 )
                  (  0.8660254  0.5000000  0.0000000 )
                  (  0.0000000  0.0000000 -1.0000000 )


     point group S_6 (-3)   
     there are  6 classes
     the character table:

       E     C3    C3^2  i     S6^5  S6   
A_g    1.00  1.00  1.00  1.00  1.00  1.00
E_g    1.00 -0.50 -0.50  1.00 -0.50 -0.50
E_g*   1.00 -0.50 -0.50  1.00 -0.50 -0.50
A_u    1.00  1.00  1.00 -1.00 -1.00 -1.00
E_u    1.00 -0.50 -0.50 -1.00  0.50  0.50
E_u*   1.00 -0.50 -0.50 -1.00  0.50  0.50
     imaginary part
A_g    0.00  0.00  0.00  0.00  0.00  0.00
E_g    0.00  0.87 -0.87  0.00  0.87 -0.87
E_g*   0.00 -0.87  0.87  0.00 -0.87  0.87
A_u    0.00  0.00  0.00  0.00  0.00  0.00
E_u    0.00  0.87 -0.87  0.00 -0.87  0.87
E_u*   0.00 -0.87  0.87  0.00  0.87 -0.87

     the symmetry operations in each class:
     E        1
     C3       2
     C3^2     3
     i        4
     S6^5     5
     S6       6

   Cartesian axes

     site n.     atom                  positions (alat units)
         1           Co1 tau(   1) = (   0.0000000   0.0000000   0.0000000  )
         2           Co2 tau(   2) = (   0.0000000   0.0000000   1.2174358  )
         3           La1 tau(   3) = (   0.0000000   0.0000000   0.6087179  )
         4           La1 tau(   4) = (   0.0000000   0.0000000   1.8261537  )
         5           O1  tau(   5) = (  -0.2839701  -0.0933228   1.0141240  )
         6           O1  tau(   6) = (   0.0611651   0.2925867   1.0141240  )
         7           O1  tau(   7) = (   0.2228050  -0.1992639   1.0141240  )
         8           O1  tau(   8) = (  -0.0611651  -0.2925867   1.4207476  )
         9           O1  tau(   9) = (   0.2839701   0.0933228   1.4207476  )
        10           O1  tau(  10) = (  -0.2228050   0.1992639   1.4207476  )

   Crystallographic axes

     site n.     atom                  positions (cryst. coord.)
         1           Co1 tau(   1) = (  0.0000000  0.0000000  0.0000000  )
         2           Co2 tau(   2) = (  0.5000000  0.5000000  0.5000000  )
         3           La1 tau(   3) = (  0.2500000  0.2500000  0.2500000  )
         4           La1 tau(   4) = (  0.7500000  0.7500000  0.7500000  )
         5           O1  tau(   5) = (  0.1891000  0.3100000  0.7504000  )
         6           O1  tau(   6) = (  0.3100000  0.7504000  0.1891000  )
         7           O1  tau(   7) = (  0.7504000  0.1891000  0.3100000  )
         8           O1  tau(   8) = (  0.6900000  0.2496000  0.8109000  )
         9           O1  tau(   9) = (  0.8109000  0.6900000  0.2496000  )
        10           O1  tau(  10) = (  0.2496000  0.8109000  0.6900000  )

     number of k points=    14  gaussian smearing, width (Ry)=  0.0300
                       cart. coord. in units 2pi/alat
        k(    1) = (   0.0000000   0.0000000   0.0000000), wk =   0.0312500
        k(    2) = (  -0.2470771  -0.1426500   0.1026748), wk =   0.1875000
        k(    3) = (   0.4941541   0.2853000  -0.2053496), wk =   0.0937500
        k(    4) = (  -0.2470771   0.1426500   0.2053496), wk =   0.1875000
        k(    5) = (   0.4941541   0.5706001  -0.1026748), wk =   0.1875000
        k(    6) = (   0.2470771   0.4279500   0.0000000), wk =   0.1875000
        k(    7) = (   0.4941541  -0.2853000  -0.4106993), wk =   0.0937500
        k(    8) = (   0.0000000   0.0000000   0.3080244), wk =   0.0625000
        k(    9) = (   0.7412312   0.4279500   0.0000000), wk =   0.1875000
        k(   10) = (   0.4941541   0.2853000   0.1026748), wk =   0.1875000
        k(   11) = (   0.7412312  -0.4279500  -0.3080244), wk =   0.1875000
        k(   12) = (   0.4941541  -0.5706001  -0.2053496), wk =   0.1875000
        k(   13) = (   0.0000000   0.0000000  -0.6160489), wk =   0.0312500
        k(   14) = (   0.4941541  -0.5706001   0.1026748), wk =   0.1875000

                       cryst. coord.
        k(    1) = (   0.0000000   0.0000000   0.0000000), wk =   0.0312500
        k(    2) = (   0.0000000   0.0000000   0.2500000), wk =   0.1875000
        k(    3) = (   0.0000000   0.0000000  -0.5000000), wk =   0.0937500
        k(    4) = (   0.0000000   0.2500000   0.2500000), wk =   0.1875000
        k(    5) = (   0.0000000   0.2500000  -0.5000000), wk =   0.1875000
        k(    6) = (   0.0000000   0.2500000  -0.2500000), wk =   0.1875000
        k(    7) = (   0.0000000  -0.5000000  -0.5000000), wk =   0.0937500
        k(    8) = (   0.2500000   0.2500000   0.2500000), wk =   0.0625000
        k(    9) = (   0.2500000   0.2500000  -0.5000000), wk =   0.1875000
        k(   10) = (   0.2500000   0.2500000  -0.2500000), wk =   0.1875000
        k(   11) = (   0.2500000  -0.5000000  -0.5000000), wk =   0.1875000
        k(   12) = (   0.2500000  -0.5000000  -0.2500000), wk =   0.1875000
        k(   13) = (  -0.5000000  -0.5000000  -0.5000000), wk =   0.0312500
        k(   14) = (   0.5000000  -0.2500000   0.0000000), wk =   0.1875000

     Dense  grid:    69617 G-vectors     FFT dimensions: (  60,  60,  60)

     Smooth grid:    17573 G-vectors     FFT dimensions: (  40,  40,  40)

     Largest allocated arrays     est. size (Mb)     dimensions
        Kohn-Sham Wavefunctions         0.78 Mb     (   1117,   46)
        Atomic wavefunctions            1.06 Mb     (   1117,   62)
        NL pseudopotentials             2.05 Mb     (   1117,  120)
        Each V/rho on FFT grid          1.65 Mb     ( 108000)
        Each G-vector array             0.27 Mb     (  34808)
        G-vector shells                 0.04 Mb     (   4682)
     Largest temporary arrays     est. size (Mb)     dimensions
        Auxiliary wavefunctions         3.14 Mb     (   1117,  184)
        Each subspace H/S matrix        0.52 Mb     ( 184, 184)
        Each <psi_i|beta_j> matrix      0.08 Mb     (    120,   46)
        Arrays for rho mixing          13.18 Mb     ( 108000,   8)

     Check: negative/imaginary core charge=   -0.000028    0.000000

     The initial density is read from file :
     /home/mcurnan/dft-course/Project1/example_LaCoO3/400/Co/alpha/CoLaO_U400.save/charge-density.dat

 --- in v_hubbard ---
Hubbard energy    0.2943
 -------
     Number of +U iterations with fixed ns =  0
     Starting occupations:
 --- enter write_ns ---
 LDA+U parameters:
U( 1)     =  4.00000000
alpha( 1) = -0.15000000
U( 2)     =  4.00000000
alpha( 2) =  0.00000000
U( 3)     =  0.00000000
alpha( 3) =  0.00000000
U( 4)     =  0.00000000
alpha( 4) =  0.00000000
atom    1   Tr[ns(na)] =   8.02206
    eigenvalues: 
  0.596  0.596  0.938  0.941  0.941
    eigenvectors:
  0.000  0.000  1.000  0.000  0.000
  0.333  0.322  0.000  0.004  0.341
  0.322  0.333  0.000  0.341  0.004
  0.289  0.056  0.000  0.515  0.140
  0.056  0.289  0.000  0.140  0.515
    occupations:
  0.938  0.000  0.000  0.000  0.000
  0.000  0.715  0.000 -0.060  0.152
  0.000  0.000  0.715  0.152  0.060
  0.000 -0.060  0.152  0.822  0.000
  0.000  0.152  0.060  0.000  0.822
atom    2   Tr[ns(na)] =   8.02145
    eigenvalues: 
  0.595  0.595  0.938  0.941  0.941
    eigenvectors:
  0.000  0.000  1.000  0.000  0.000
  0.640  0.015  0.000  0.223  0.122
  0.015  0.640  0.000  0.122  0.223
  0.017  0.329  0.000  0.470  0.185
  0.329  0.017  0.000  0.185  0.470
    occupations:
  0.938  0.000  0.000  0.000  0.000
  0.000  0.715  0.000  0.060  0.153
  0.000  0.000  0.715  0.153 -0.060
  0.000  0.060  0.153  0.822  0.000
  0.000  0.153 -0.060  0.000  0.822
atom    3   Tr[ns(na)] =   3.80284
    eigenvalues: 
  0.355  0.355  0.384  0.403  0.403
    eigenvectors:
  0.000  0.000  1.000  0.000  0.000
  0.781  0.139  0.000  0.012  0.068
  0.139  0.781  0.000  0.068  0.012
  0.013  0.067  0.000  0.780  0.141
  0.067  0.013  0.000  0.141  0.780
    occupations:
  0.384  0.000  0.000  0.000  0.000
  0.000  0.359  0.000  0.000  0.013
  0.000  0.000  0.359  0.013  0.000
  0.000  0.000  0.013  0.399  0.000
  0.000  0.013  0.000  0.000  0.399
atom    4   Tr[ns(na)] =   3.80284
    eigenvalues: 
  0.355  0.355  0.384  0.403  0.403
    eigenvectors:
  0.000  0.000  1.000  0.000  0.000
  0.782  0.139  0.000  0.012  0.068
  0.139  0.782  0.000  0.068  0.012
  0.012  0.067  0.000  0.780  0.141
  0.067  0.012  0.000  0.141  0.780
    occupations:
  0.384  0.000  0.000  0.000  0.000
  0.000  0.359  0.000  0.000  0.013
  0.000  0.000  0.359  0.013  0.000
  0.000  0.000  0.013  0.399  0.000
  0.000  0.013  0.000  0.000  0.399
atom    5   Tr[ns(na)] =   5.43357
    eigenvalues: 
  0.846  0.929  0.941
    eigenvectors:
  0.340  0.000  0.660
  0.494  0.250  0.256
  0.166  0.750  0.085
    occupations:
  0.909  0.039  0.022
  0.039  0.891 -0.022
  0.022 -0.022  0.917
atom    6   Tr[ns(na)] =   5.43357
    eigenvalues: 
  0.846  0.929  0.941
    eigenvectors:
  0.340  0.000  0.660
  0.000  1.000  0.000
  0.660  0.000  0.340
    occupations:
  0.909  0.000 -0.045
  0.000  0.929  0.000
 -0.045  0.000  0.879
atom    7   Tr[ns(na)] =   5.43357
    eigenvalues: 
  0.846  0.929  0.941
    eigenvectors:
  0.340  0.000  0.660
  0.496  0.250  0.255
  0.164  0.750  0.086
    occupations:
  0.909 -0.039  0.022
 -0.039  0.891  0.022
  0.022  0.022  0.917
atom    8   Tr[ns(na)] =   5.43357
    eigenvalues: 
  0.846  0.929  0.941
    eigenvectors:
  0.340  0.000  0.660
  0.000  1.000  0.000
  0.660  0.000  0.340
    occupations:
  0.909  0.000 -0.045
  0.000  0.929  0.000
 -0.045  0.000  0.879
atom    9   Tr[ns(na)] =   5.43357
    eigenvalues: 
  0.846  0.929  0.941
    eigenvectors:
  0.340  0.000  0.660
  0.494  0.250  0.256
  0.166  0.750  0.085
    occupations:
  0.909  0.039  0.022
  0.039  0.891 -0.022
  0.022 -0.022  0.917
atom   10   Tr[ns(na)] =   5.43357
    eigenvalues: 
  0.846  0.929  0.941
    eigenvectors:
  0.340  0.000  0.660
  0.496  0.250  0.255
  0.164  0.750  0.086
    occupations:
  0.909 -0.039  0.022
 -0.039  0.891  0.022
  0.022  0.022  0.917
N of occupied +U levels =  56.2506062
 --- exit write_ns ---
 LDA+U Projector read from file 
     Starting wfc from file

     total cpu time spent up to now is        8.6 secs

     per-process dynamical memory:    46.9 Mb

     Self-consistent Calculation

     iteration #  1     ecut=    30.00 Ry     beta=0.20
     Davidson diagonalization with overlap
     c_bands:  1 eigenvalues not converged
     c_bands:  1 eigenvalues not converged
     c_bands:  1 eigenvalues not converged
     c_bands:  1 eigenvalues not converged
     ethr =  1.00E-10,  avg # of iterations = 16.4
 --- enter write_ns ---
 LDA+U parameters:
U( 1)     =  4.00000000
alpha( 1) = -0.15000000
U( 2)     =  4.00000000
alpha( 2) =  0.00000000
U( 3)     =  0.00000000
alpha( 3) =  0.00000000
U( 4)     =  0.00000000
alpha( 4) =  0.00000000
atom    1   Tr[ns(na)] =   8.25002
    eigenvalues: 
  0.578  0.578  0.989  0.989  0.992
    eigenvectors:
  0.000  0.000  0.000  0.000  1.000
  0.330  0.325  0.004  0.342  0.000
  0.325  0.330  0.342  0.004  0.000
  0.289  0.057  0.514  0.140  0.000
  0.057  0.289  0.140  0.514  0.000
    occupations:
  0.992  0.000  0.000  0.000  0.000
  0.000  0.720  0.000 -0.071  0.182
  0.000  0.000  0.720  0.182  0.071
  0.000 -0.071  0.182  0.847  0.000
  0.000  0.182  0.071  0.000  0.847
atom    2   Tr[ns(na)] =   8.17106
    eigenvalues: 
  0.561  0.561  0.987  0.987  0.989
    eigenvectors:
  0.000  0.000  0.000  0.000  1.000
  0.634  0.020  0.220  0.126  0.000
  0.020  0.634  0.126  0.220  0.000
  0.011  0.334  0.468  0.186  0.000
  0.334  0.011  0.186  0.468  0.000
    occupations:
  0.989  0.000  0.000  0.000  0.000
  0.000  0.709  0.000  0.071  0.189
  0.000  0.000  0.709  0.189 -0.071
  0.000  0.071  0.189  0.840  0.000
  0.000  0.189 -0.071  0.000  0.840
atom    3   Tr[ns(na)] =   3.79263
    eigenvalues: 
  0.356  0.356  0.382  0.401  0.401
    eigenvectors:
  0.000  0.000  1.000  0.000  0.000
  0.776  0.141  0.000  0.012  0.071
  0.141  0.776  0.000  0.071  0.012
  0.013  0.070  0.000  0.775  0.142
  0.070  0.013  0.000  0.142  0.775
    occupations:
  0.382  0.000  0.000  0.000  0.000
  0.000  0.360  0.000  0.000  0.013
  0.000  0.000  0.360  0.013  0.000
  0.000  0.000  0.013  0.398  0.000
  0.000  0.013  0.000  0.000  0.398
atom    4   Tr[ns(na)] =   3.79263
    eigenvalues: 
  0.356  0.356  0.382  0.401  0.401
    eigenvectors:
  0.000  0.000  1.000  0.000  0.000
  0.776  0.141  0.000  0.012  0.071
  0.141  0.776  0.000  0.071  0.012
  0.013  0.070  0.000  0.775  0.142
  0.070  0.013  0.000  0.142  0.775
    occupations:
  0.382  0.000  0.000  0.000  0.000
  0.000  0.360  0.000  0.000  0.013
  0.000  0.000  0.360  0.013  0.000
  0.000  0.000  0.013  0.398  0.000
  0.000  0.013  0.000  0.000  0.398
atom    5   Tr[ns(na)] =   5.38642
    eigenvalues: 
  0.826  0.923  0.944
    eigenvectors:
  0.341  0.000  0.659
  0.487  0.257  0.256
  0.172  0.743  0.086
    occupations:
  0.904  0.048  0.028
  0.048  0.881 -0.025
  0.028 -0.025  0.908
atom    6   Tr[ns(na)] =   5.38642
    eigenvalues: 
  0.826  0.923  0.944
    eigenvectors:
  0.341  0.000  0.659
  0.000  1.000  0.000
  0.659  0.000  0.341
    occupations:
  0.904  0.001 -0.056
  0.001  0.923  0.001
 -0.056  0.001  0.866
atom    7   Tr[ns(na)] =   5.38642
    eigenvalues: 
  0.826  0.923  0.944
    eigenvectors:
  0.341  0.000  0.659
  0.501  0.243  0.256
  0.158  0.757  0.085
    occupations:
  0.904 -0.049  0.027
 -0.049  0.880  0.024
  0.027  0.024  0.910
atom    8   Tr[ns(na)] =   5.38642
    eigenvalues: 
  0.826  0.923  0.944
    eigenvectors:
  0.341  0.000  0.659
  0.000  1.000  0.000
  0.659  0.000  0.341
    occupations:
  0.904  0.001 -0.056
  0.001  0.923  0.001
 -0.056  0.001  0.866
atom    9   Tr[ns(na)] =   5.38642
    eigenvalues: 
  0.826  0.923  0.944
    eigenvectors:
  0.341  0.000  0.659
  0.487  0.257  0.256
  0.172  0.743  0.086
    occupations:
  0.904  0.048  0.028
  0.048  0.881 -0.025
  0.028 -0.025  0.908
atom   10   Tr[ns(na)] =   5.38642
    eigenvalues: 
  0.826  0.923  0.944
    eigenvectors:
  0.341  0.000  0.659
  0.501  0.243  0.256
  0.158  0.757  0.085
    occupations:
  0.904 -0.049  0.027
 -0.049  0.880  0.024
  0.027  0.024  0.910
N of occupied +U levels =  56.3248741
 --- exit write_ns ---
 --- in v_hubbard ---
Hubbard energy    0.2797
 -------

     total cpu time spent up to now is       46.1 secs

     total energy              =    -538.07335570 Ry
     Harris-Foulkes estimate   =    -538.08449607 Ry
     estimated scf accuracy    <       0.04729356 Ry

     iteration #  2     ecut=    30.00 Ry     beta=0.20
     Davidson diagonalization with overlap
     ethr =  6.22E-05,  avg # of iterations =  2.0
 --- enter write_ns ---
 LDA+U parameters:
U( 1)     =  4.00000000
alpha( 1) = -0.15000000
U( 2)     =  4.00000000
alpha( 2) =  0.00000000
U( 3)     =  0.00000000
alpha( 3) =  0.00000000
U( 4)     =  0.00000000
alpha( 4) =  0.00000000
atom    1   Tr[ns(na)] =   8.00331
    eigenvalues: 
  0.519  0.519  0.987  0.987  0.990
    eigenvectors:
  0.000  0.000  0.000  0.000  1.000
  0.331  0.325  0.004  0.341  0.000
  0.325  0.331  0.341  0.004  0.000
  0.288  0.057  0.515  0.141  0.000
  0.057  0.288  0.141  0.515  0.000
    occupations:
  0.990  0.000  0.000  0.000  0.000
  0.000  0.680  0.000 -0.081  0.207
  0.000  0.000  0.680  0.207  0.081
  0.000 -0.081  0.207  0.826  0.000
  0.000  0.207  0.081  0.000  0.826
atom    2   Tr[ns(na)] =   8.05795
    eigenvalues: 
  0.527  0.527  0.991  0.991  0.993
    eigenvectors:
  0.000  0.000  0.000  0.000  1.000
  0.639  0.016  0.223  0.121  0.000
  0.016  0.639  0.121  0.223  0.000
  0.016  0.329  0.471  0.185  0.000
  0.329  0.016  0.185  0.471  0.000
    occupations:
  0.993  0.000  0.000  0.000  0.000
  0.000  0.687  0.000  0.081  0.205
  0.000  0.000  0.687  0.205 -0.081
  0.000  0.081  0.205  0.831  0.000
  0.000  0.205 -0.081  0.000  0.831
atom    3   Tr[ns(na)] =   3.78869
    eigenvalues: 
  0.355  0.355  0.381  0.401  0.401
    eigenvectors:
  0.000  0.000  1.000  0.000  0.000
  0.781  0.139  0.000  0.012  0.068
  0.139  0.781  0.000  0.068  0.012
  0.012  0.067  0.000  0.779  0.141
  0.067  0.012  0.000  0.141  0.779
    occupations:
  0.381  0.000  0.000  0.000  0.000
  0.000  0.359  0.000  0.000  0.013
  0.000  0.000  0.359  0.013  0.000
  0.000  0.000  0.013  0.398  0.000
  0.000  0.013  0.000  0.000  0.398
atom    4   Tr[ns(na)] =   3.78869
    eigenvalues: 
  0.355  0.355  0.381  0.401  0.401
    eigenvectors:
  0.000  0.000  1.000  0.000  0.000
  0.781  0.139  0.000  0.012  0.068
  0.139  0.781  0.000  0.068  0.012
  0.012  0.067  0.000  0.779  0.141
  0.067  0.012  0.000  0.141  0.779
    occupations:
  0.381  0.000  0.000  0.000  0.000
  0.000  0.359  0.000  0.000  0.013
  0.000  0.000  0.359  0.013  0.000
  0.000  0.000  0.013  0.398  0.000
  0.000  0.013  0.000  0.000  0.398
atom    5   Tr[ns(na)] =   5.44379
    eigenvalues: 
  0.843  0.931  0.948
    eigenvectors:
  0.336  0.000  0.664
  0.504  0.242  0.254
  0.160  0.758  0.082
    occupations:
  0.913  0.043  0.024
  0.043  0.891 -0.023
  0.024 -0.023  0.918
atom    6   Tr[ns(na)] =   5.44379
    eigenvalues: 
  0.843  0.931  0.948
    eigenvectors:
  0.336  0.000  0.664
  0.000  1.000  0.000
  0.664  0.000  0.336
    occupations:
  0.913  0.000 -0.050
  0.000  0.931 -0.001
 -0.050 -0.001  0.878
atom    7   Tr[ns(na)] =   5.44379
    eigenvalues: 
  0.843  0.931  0.948
    eigenvectors:
  0.336  0.000  0.664
  0.492  0.258  0.251
  0.172  0.742  0.086
    occupations:
  0.913 -0.043  0.025
 -0.043  0.892  0.023
  0.025  0.023  0.917
atom    8   Tr[ns(na)] =   5.44379
    eigenvalues: 
  0.843  0.931  0.948
    eigenvectors:
  0.336  0.000  0.664
  0.000  1.000  0.000
  0.664  0.000  0.336
    occupations:
  0.913  0.000 -0.050
  0.000  0.931 -0.001
 -0.050 -0.001  0.878
atom    9   Tr[ns(na)] =   5.44379
    eigenvalues: 
  0.843  0.931  0.948
    eigenvectors:
  0.336  0.000  0.664
  0.504  0.242  0.254
  0.160  0.758  0.082
    occupations:
  0.913  0.043  0.024
  0.043  0.891 -0.023
  0.024 -0.023  0.918
atom   10   Tr[ns(na)] =   5.44379
    eigenvalues: 
  0.843  0.931  0.948
    eigenvectors:
  0.336  0.000  0.664
  0.492  0.258  0.251
  0.172  0.742  0.086
    occupations:
  0.913 -0.043  0.025
 -0.043  0.892  0.023
  0.025  0.023  0.917
N of occupied +U levels =  56.3014049
 --- exit write_ns ---
 --- in v_hubbard ---
Hubbard energy    0.2738
 -------

     total cpu time spent up to now is       58.9 secs

     total energy              =    -538.08208895 Ry
     Harris-Foulkes estimate   =    -538.08324703 Ry
     estimated scf accuracy    <       0.02894378 Ry

     iteration #  3     ecut=    30.00 Ry     beta=0.20
     Davidson diagonalization with overlap
     ethr =  3.81E-05,  avg # of iterations =  1.0
 --- enter write_ns ---
 LDA+U parameters:
U( 1)     =  4.00000000
alpha( 1) = -0.15000000
U( 2)     =  4.00000000
alpha( 2) =  0.00000000
U( 3)     =  0.00000000
alpha( 3) =  0.00000000
U( 4)     =  0.00000000
alpha( 4) =  0.00000000
atom    1   Tr[ns(na)] =   8.09254
    eigenvalues: 
  0.537  0.537  0.990  0.990  0.992
    eigenvectors:
  0.000  0.000  0.000  0.000  1.000
  0.332  0.323  0.004  0.341  0.000
  0.323  0.332  0.341  0.004  0.000
  0.288  0.056  0.516  0.140  0.000
  0.056  0.288  0.140  0.516  0.000
    occupations:
  0.992  0.000  0.000  0.000  0.000
  0.000  0.693  0.000 -0.079  0.200
  0.000  0.000  0.693  0.200  0.079
  0.000 -0.079  0.200  0.834  0.000
  0.000  0.200  0.079  0.000  0.834
atom    2   Tr[ns(na)] =   8.04595
    eigenvalues: 
  0.527  0.527  0.989  0.989  0.992
    eigenvectors:
  0.000  0.000  0.000  0.000  1.000
  0.637  0.018  0.221  0.124  0.000
  0.018  0.637  0.124  0.221  0.000
  0.014  0.331  0.471  0.185  0.000
  0.331  0.014  0.185  0.471  0.000
    occupations:
  0.992  0.000  0.000  0.000  0.000
  0.000  0.686  0.000  0.079  0.205
  0.000  0.000  0.686  0.205 -0.079
  0.000  0.079  0.205  0.830  0.000
  0.000  0.205 -0.079  0.000  0.830
atom    3   Tr[ns(na)] =   3.78918
    eigenvalues: 
  0.355  0.355  0.381  0.401  0.401
    eigenvectors:
  0.000  0.000  1.000  0.000  0.000
  0.781  0.139  0.000  0.012  0.068
  0.139  0.781  0.000  0.068  0.012
  0.013  0.067  0.000  0.779  0.141
  0.067  0.013  0.000  0.141  0.779
    occupations:
  0.381  0.000  0.000  0.000  0.000
  0.000  0.359  0.000  0.000  0.012
  0.000  0.000  0.359  0.012  0.000
  0.000  0.000  0.012  0.398  0.000
  0.000  0.012  0.000  0.000  0.398
atom    4   Tr[ns(na)] =   3.78918
    eigenvalues: 
  0.355  0.355  0.381  0.401  0.401
    eigenvectors:
  0.000  0.000  1.000  0.000  0.000
  0.781  0.139  0.000  0.012  0.068
  0.139  0.781  0.000  0.068  0.012
  0.013  0.067  0.000  0.779  0.141
  0.067  0.013  0.000  0.141  0.779
    occupations:
  0.381  0.000  0.000  0.000  0.000
  0.000  0.359  0.000  0.000  0.012
  0.000  0.000  0.359  0.012  0.000
  0.000  0.000  0.012  0.398  0.000
  0.000  0.012  0.000  0.000  0.398
atom    5   Tr[ns(na)] =   5.43171
    eigenvalues: 
  0.839  0.930  0.947
    eigenvectors:
  0.337  0.000  0.663
  0.493  0.254  0.253
  0.170  0.746  0.084
    occupations:
  0.911  0.044  0.026
  0.044  0.889 -0.024
  0.026 -0.024  0.916
atom    6   Tr[ns(na)] =   5.43171
    eigenvalues: 
  0.839  0.930  0.947
    eigenvectors:
  0.337  0.000  0.663
  0.000  1.000  0.000
  0.663  0.000  0.337
    occupations:
  0.911  0.000 -0.051
  0.000  0.930  0.000
 -0.051  0.000  0.875
atom    7   Tr[ns(na)] =   5.43171
    eigenvalues: 
  0.839  0.930  0.947
    eigenvectors:
  0.337  0.000  0.663
  0.501  0.246  0.253
  0.162  0.754  0.084
    occupations:
  0.911 -0.044  0.025
 -0.044  0.889  0.023
  0.025  0.023  0.917
atom    8   Tr[ns(na)] =   5.43171
    eigenvalues: 
  0.839  0.930  0.947
    eigenvectors:
  0.337  0.000  0.663
  0.000  1.000  0.000
  0.663  0.000  0.337
    occupations:
  0.911  0.000 -0.051
  0.000  0.930  0.000
 -0.051  0.000  0.875
atom    9   Tr[ns(na)] =   5.43171
    eigenvalues: 
  0.839  0.930  0.947
    eigenvectors:
  0.337  0.000  0.663
  0.493  0.254  0.253
  0.170  0.746  0.084
    occupations:
  0.911  0.044  0.026
  0.044  0.889 -0.024
  0.026 -0.024  0.916
atom   10   Tr[ns(na)] =   5.43171
    eigenvalues: 
  0.839  0.930  0.947
    eigenvectors:
  0.337  0.000  0.663
  0.501  0.246  0.253
  0.162  0.754  0.084
    occupations:
  0.911 -0.044  0.025
 -0.044  0.889  0.023
  0.025  0.023  0.917
N of occupied +U levels =  56.3071035
 --- exit write_ns ---
 --- in v_hubbard ---
Hubbard energy    0.2650
 -------

     total cpu time spent up to now is       71.6 secs

     total energy              =    -538.08419577 Ry
     Harris-Foulkes estimate   =    -538.08316682 Ry
     estimated scf accuracy    <       0.01185601 Ry

     iteration #  4     ecut=    30.00 Ry     beta=0.20
     Davidson diagonalization with overlap
     ethr =  1.56E-05,  avg # of iterations =  1.0
 --- enter write_ns ---
 LDA+U parameters:
U( 1)     =  4.00000000
alpha( 1) = -0.15000000
U( 2)     =  4.00000000
alpha( 2) =  0.00000000
U( 3)     =  0.00000000
alpha( 3) =  0.00000000
U( 4)     =  0.00000000
alpha( 4) =  0.00000000
atom    1   Tr[ns(na)] =   8.06528
    eigenvalues: 
  0.532  0.532  0.989  0.989  0.992
    eigenvectors:
  0.000  0.000  0.000  0.000  1.000
  0.333  0.323  0.004  0.340  0.000
  0.323  0.333  0.340  0.004  0.000
  0.286  0.057  0.516  0.141  0.000
  0.057  0.286  0.141  0.516  0.000
    occupations:
  0.992  0.000  0.000  0.000  0.000
  0.000  0.689  0.000 -0.079  0.202
  0.000  0.000  0.689  0.202  0.079
  0.000 -0.079  0.202  0.832  0.000
  0.000  0.202  0.079  0.000  0.832
atom    2   Tr[ns(na)] =   8.08637
    eigenvalues: 
  0.534  0.534  0.991  0.991  0.993
    eigenvectors:
  0.000  0.000  0.000  0.000  1.000
  0.639  0.018  0.221  0.122  0.000
  0.018  0.639  0.122  0.221  0.000
  0.015  0.329  0.472  0.185  0.000
  0.329  0.015  0.185  0.472  0.000
    occupations:
  0.993  0.000  0.000  0.000  0.000
  0.000  0.691  0.000  0.079  0.202
  0.000  0.000  0.691  0.202 -0.079
  0.000  0.079  0.202  0.834  0.000
  0.000  0.202 -0.079  0.000  0.834
atom    3   Tr[ns(na)] =   3.79035
    eigenvalues: 
  0.356  0.356  0.381  0.401  0.401
    eigenvectors:
  0.000  0.000  1.000  0.000  0.000
  0.782  0.139  0.000  0.012  0.068
  0.139  0.782  0.000  0.068  0.012
  0.012  0.067  0.000  0.780  0.141
  0.067  0.012  0.000  0.141  0.780
    occupations:
  0.381  0.000  0.000  0.000  0.000
  0.000  0.359  0.000  0.000  0.012
  0.000  0.000  0.359  0.012  0.000
  0.000  0.000  0.012  0.398  0.000
  0.000  0.012  0.000  0.000  0.398
atom    4   Tr[ns(na)] =   3.79035
    eigenvalues: 
  0.356  0.356  0.381  0.401  0.401
    eigenvectors:
  0.000  0.000  1.000  0.000  0.000
  0.782  0.139  0.000  0.012  0.068
  0.139  0.782  0.000  0.068  0.012
  0.012  0.067  0.000  0.780  0.141
  0.067  0.012  0.000  0.141  0.780
    occupations:
  0.381  0.000  0.000  0.000  0.000
  0.000  0.359  0.000  0.000  0.012
  0.000  0.000  0.359  0.012  0.000
  0.000  0.000  0.012  0.398  0.000
  0.000  0.012  0.000  0.000  0.398
atom    5   Tr[ns(na)] =   5.42904
    eigenvalues: 
  0.838  0.929  0.947
    eigenvectors:
  0.338  0.000  0.662
  0.500  0.246  0.254
  0.163  0.754  0.083
    occupations:
  0.910  0.045  0.026
  0.045  0.888 -0.023
  0.026 -0.023  0.916
atom    6   Tr[ns(na)] =   5.42904
    eigenvalues: 
  0.838  0.929  0.947
    eigenvectors:
  0.338  0.000  0.662
  0.000  1.000  0.000
  0.662  0.000  0.338
    occupations:
  0.910  0.000 -0.051
  0.000  0.929  0.000
 -0.051  0.000  0.875
atom    7   Tr[ns(na)] =   5.42904
    eigenvalues: 
  0.838  0.929  0.947
    eigenvectors:
  0.338  0.000  0.662
  0.494  0.254  0.252
  0.168  0.746  0.086
    occupations:
  0.910 -0.044  0.026
 -0.044  0.889  0.024
  0.026  0.024  0.916
atom    8   Tr[ns(na)] =   5.42904
    eigenvalues: 
  0.838  0.929  0.947
    eigenvectors:
  0.338  0.000  0.662
  0.000  1.000  0.000
  0.662  0.000  0.338
    occupations:
  0.910  0.000 -0.051
  0.000  0.929  0.000
 -0.051  0.000  0.875
atom    9   Tr[ns(na)] =   5.42904
    eigenvalues: 
  0.838  0.929  0.947
    eigenvectors:
  0.338  0.000  0.662
  0.500  0.246  0.254
  0.163  0.754  0.083
    occupations:
  0.910  0.045  0.026
  0.045  0.888 -0.023
  0.026 -0.023  0.916
atom   10   Tr[ns(na)] =   5.42904
    eigenvalues: 
  0.838  0.929  0.947
    eigenvectors:
  0.338  0.000  0.662
  0.494  0.254  0.252
  0.168  0.746  0.086
    occupations:
  0.910 -0.044  0.026
 -0.044  0.889  0.024
  0.026  0.024  0.916
N of occupied +U levels =  56.3066000
 --- exit write_ns ---
 --- in v_hubbard ---
Hubbard energy    0.2146
 -------

     total cpu time spent up to now is       84.7 secs

     total energy              =    -538.08661576 Ry
     Harris-Foulkes estimate   =    -538.08446880 Ry
     estimated scf accuracy    <       0.00844235 Ry

     iteration #  5     ecut=    30.00 Ry     beta=0.20
     Davidson diagonalization with overlap
     ethr =  1.11E-05,  avg # of iterations =  1.4
 --- enter write_ns ---
 LDA+U parameters:
U( 1)     =  4.00000000
alpha( 1) = -0.15000000
U( 2)     =  4.00000000
alpha( 2) =  0.00000000
U( 3)     =  0.00000000
alpha( 3) =  0.00000000
U( 4)     =  0.00000000
alpha( 4) =  0.00000000
atom    1   Tr[ns(na)] =   8.08457
    eigenvalues: 
  0.532  0.532  0.992  0.992  0.995
    eigenvectors:
  0.000  0.000  0.000  0.000  1.000
  0.337  0.322  0.003  0.338  0.000
  0.322  0.337  0.338  0.003  0.000
  0.285  0.056  0.519  0.140  0.000
  0.056  0.285  0.140  0.519  0.000
    occupations:
  0.995  0.000  0.000  0.000  0.000
  0.000  0.689  0.000 -0.080  0.203
  0.000  0.000  0.689  0.203  0.080
  0.000 -0.080  0.203  0.835  0.000
  0.000  0.203  0.080  0.000  0.835
atom    2   Tr[ns(na)] =   8.06077
    eigenvalues: 
  0.526  0.526  0.992  0.992  0.995
    eigenvectors:
  0.000  0.000  0.000  0.000  1.000
  0.639  0.020  0.220  0.122  0.000
  0.020  0.639  0.122  0.220  0.000
  0.014  0.328  0.474  0.185  0.000
  0.328  0.014  0.185  0.474  0.000
    occupations:
  0.995  0.000  0.000  0.000  0.000
  0.000  0.685  0.000  0.081  0.206
  0.000  0.000  0.685  0.206 -0.081
  0.000  0.081  0.206  0.833  0.000
  0.000  0.206 -0.081  0.000  0.833
atom    3   Tr[ns(na)] =   3.79560
    eigenvalues: 
  0.356  0.356  0.381  0.402  0.402
    eigenvectors:
  0.000  0.000  1.000  0.000  0.000
  0.784  0.138  0.000  0.011  0.066
  0.138  0.784  0.000  0.066  0.011
  0.012  0.066  0.000  0.782  0.140
  0.066  0.012  0.000  0.140  0.782
    occupations:
  0.381  0.000  0.000  0.000  0.000
  0.000  0.360  0.000  0.000  0.012
  0.000  0.000  0.360  0.012  0.000
  0.000  0.000  0.012  0.398  0.000
  0.000  0.012  0.000  0.000  0.398
atom    4   Tr[ns(na)] =   3.79560
    eigenvalues: 
  0.356  0.356  0.381  0.402  0.402
    eigenvectors:
  0.000  0.000  1.000  0.000  0.000
  0.784  0.138  0.000  0.011  0.066
  0.138  0.784  0.000  0.066  0.011
  0.012  0.066  0.000  0.782  0.141
  0.066  0.012  0.000  0.141  0.782
    occupations:
  0.381  0.000  0.000  0.000  0.000
  0.000  0.360  0.000  0.000  0.012
  0.000  0.000  0.360  0.012  0.000
  0.000  0.000  0.012  0.398  0.000
  0.000  0.012  0.000  0.000  0.398
atom    5   Tr[ns(na)] =   5.42720
    eigenvalues: 
  0.838  0.929  0.947
    eigenvectors:
  0.337  0.000  0.663
  0.495  0.251  0.254
  0.168  0.749  0.084
    occupations:
  0.910  0.045  0.026
  0.045  0.888 -0.024
  0.026 -0.024  0.915
atom    6   Tr[ns(na)] =   5.42720
    eigenvalues: 
  0.838  0.929  0.947
    eigenvectors:
  0.337  0.000  0.663
  0.000  1.000  0.000
  0.663  0.000  0.337
    occupations:
  0.910  0.000 -0.052
  0.000  0.929  0.000
 -0.052  0.000  0.874
atom    7   Tr[ns(na)] =   5.42720
    eigenvalues: 
  0.838  0.929  0.947
    eigenvectors:
  0.337  0.000  0.663
  0.499  0.249  0.252
  0.164  0.751  0.085
    occupations:
  0.910 -0.045  0.026
 -0.045  0.888  0.024
  0.026  0.024  0.916
atom    8   Tr[ns(na)] =   5.42720
    eigenvalues: 
  0.838  0.929  0.947
    eigenvectors:
  0.337  0.000  0.663
  0.000  1.000  0.000
  0.663  0.000  0.337
    occupations:
  0.910  0.000 -0.052
  0.000  0.929  0.000
 -0.052  0.000  0.874
atom    9   Tr[ns(na)] =   5.42720
    eigenvalues: 
  0.838  0.929  0.947
    eigenvectors:
  0.337  0.000  0.663
  0.495  0.251  0.254
  0.168  0.749  0.084
    occupations:
  0.910  0.045  0.026
  0.045  0.888 -0.024
  0.026 -0.024  0.915
atom   10   Tr[ns(na)] =   5.42720
    eigenvalues: 
  0.838  0.929  0.947
    eigenvectors:
  0.337  0.000  0.663
  0.499  0.249  0.252
  0.164  0.751  0.085
    occupations:
  0.910 -0.045  0.026
 -0.045  0.888  0.024
  0.026  0.024  0.916
N of occupied +U levels =  56.2997207
 --- exit write_ns ---
 --- in v_hubbard ---
Hubbard energy    0.2151
 -------

     total cpu time spent up to now is       98.0 secs

     total energy              =    -538.08730892 Ry
     Harris-Foulkes estimate   =    -538.08725335 Ry
     estimated scf accuracy    <       0.00029726 Ry

     iteration #  6     ecut=    30.00 Ry     beta=0.20
     Davidson diagonalization with overlap
     ethr =  3.91E-07,  avg # of iterations =  2.7
 --- enter write_ns ---
 LDA+U parameters:
U( 1)     =  4.00000000
alpha( 1) = -0.15000000
U( 2)     =  4.00000000
alpha( 2) =  0.00000000
U( 3)     =  0.00000000
alpha( 3) =  0.00000000
U( 4)     =  0.00000000
alpha( 4) =  0.00000000
atom    1   Tr[ns(na)] =   8.07385
    eigenvalues: 
  0.529  0.529  0.992  0.992  0.995
    eigenvectors:
  0.000  0.000  0.000  0.000  1.000
  0.338  0.321  0.003  0.338  0.000
  0.321  0.338  0.338  0.003  0.000
  0.285  0.057  0.519  0.140  0.000
  0.057  0.285  0.140  0.519  0.000
    occupations:
  0.995  0.000  0.000  0.000  0.000
  0.000  0.687  0.000 -0.081  0.204
  0.000  0.000  0.687  0.204  0.081
  0.000 -0.081  0.204  0.834  0.000
  0.000  0.204  0.081  0.000  0.834
atom    2   Tr[ns(na)] =   8.05087
    eigenvalues: 
  0.523  0.523  0.992  0.992  0.995
    eigenvectors:
  0.000  0.000  0.000  0.000  1.000
  0.640  0.019  0.220  0.121  0.000
  0.019  0.640  0.121  0.220  0.000
  0.014  0.327  0.474  0.184  0.000
  0.327  0.014  0.184  0.474  0.000
    occupations:
  0.995  0.000  0.000  0.000  0.000
  0.000  0.683  0.000  0.081  0.207
  0.000  0.000  0.683  0.207 -0.081
  0.000  0.081  0.207  0.832  0.000
  0.000  0.207 -0.081  0.000  0.832
atom    3   Tr[ns(na)] =   3.79468
    eigenvalues: 
  0.356  0.356  0.381  0.402  0.402
    eigenvectors:
  0.000  0.000  1.000  0.000  0.000
  0.783  0.138  0.000  0.011  0.067
  0.138  0.783  0.000  0.067  0.011
  0.012  0.066  0.000  0.781  0.141
  0.066  0.012  0.000  0.141  0.781
    occupations:
  0.381  0.000  0.000  0.000  0.000
  0.000  0.360  0.000  0.000  0.012
  0.000  0.000  0.360  0.012  0.000
  0.000  0.000  0.012  0.398  0.000
  0.000  0.012  0.000  0.000  0.398
atom    4   Tr[ns(na)] =   3.79468
    eigenvalues: 
  0.356  0.356  0.381  0.402  0.402
    eigenvectors:
  0.000  0.000  1.000  0.000  0.000
  0.783  0.138  0.000  0.011  0.067
  0.138  0.783  0.000  0.067  0.011
  0.012  0.066  0.000  0.781  0.141
  0.066  0.012  0.000  0.141  0.781
    occupations:
  0.381  0.000  0.000  0.000  0.000
  0.000  0.360  0.000  0.000  0.012
  0.000  0.000  0.360  0.012  0.000
  0.000  0.000  0.012  0.398  0.000
  0.000  0.012  0.000  0.000  0.398
atom    5   Tr[ns(na)] =   5.43049
    eigenvalues: 
  0.839  0.930  0.947
    eigenvectors:
  0.337  0.000  0.663
  0.495  0.251  0.253
  0.167  0.749  0.084
    occupations:
  0.910  0.044  0.026
  0.044  0.889 -0.024
  0.026 -0.024  0.916
atom    6   Tr[ns(na)] =   5.43049
    eigenvalues: 
  0.839  0.930  0.947
    eigenvectors:
  0.337  0.000  0.663
  0.000  1.000  0.000
  0.663  0.000  0.337
    occupations:
  0.910  0.000 -0.051
  0.000  0.930  0.000
 -0.051  0.000  0.875
atom    7   Tr[ns(na)] =   5.43049
    eigenvalues: 
  0.839  0.930  0.947
    eigenvectors:
  0.337  0.000  0.663
  0.499  0.249  0.252
  0.164  0.751  0.085
    occupations:
  0.910 -0.044  0.026
 -0.044  0.889  0.024
  0.026  0.024  0.916
atom    8   Tr[ns(na)] =   5.43049
    eigenvalues: 
  0.839  0.930  0.947
    eigenvectors:
  0.337  0.000  0.663
  0.000  1.000  0.000
  0.663  0.000  0.337
    occupations:
  0.910  0.000 -0.051
  0.000  0.930  0.000
 -0.051  0.000  0.875
atom    9   Tr[ns(na)] =   5.43049
    eigenvalues: 
  0.839  0.930  0.947
    eigenvectors:
  0.337  0.000  0.663
  0.495  0.251  0.253
  0.167  0.749  0.084
    occupations:
  0.910  0.044  0.026
  0.044  0.889 -0.024
  0.026 -0.024  0.916
atom   10   Tr[ns(na)] =   5.43049
    eigenvalues: 
  0.839  0.930  0.947
    eigenvectors:
  0.337  0.000  0.663
  0.499  0.249  0.252
  0.164  0.751  0.085
    occupations:
  0.910 -0.044  0.026
 -0.044  0.889  0.024
  0.026  0.024  0.916
N of occupied +U levels =  56.2969991
 --- exit write_ns ---
 --- in v_hubbard ---
Hubbard energy    0.2147
 -------

     total cpu time spent up to now is      112.9 secs

     total energy              =    -538.08741863 Ry
     Harris-Foulkes estimate   =    -538.08736974 Ry
     estimated scf accuracy    <       0.00005965 Ry

     iteration #  7     ecut=    30.00 Ry     beta=0.20
     Davidson diagonalization with overlap
     ethr =  7.85E-08,  avg # of iterations =  2.1
 --- enter write_ns ---
 LDA+U parameters:
U( 1)     =  4.00000000
alpha( 1) = -0.15000000
U( 2)     =  4.00000000
alpha( 2) =  0.00000000
U( 3)     =  0.00000000
alpha( 3) =  0.00000000
U( 4)     =  0.00000000
alpha( 4) =  0.00000000
atom    1   Tr[ns(na)] =   8.06878
    eigenvalues: 
  0.528  0.528  0.992  0.992  0.995
    eigenvectors:
  0.000  0.000  0.000  0.000  1.000
  0.337  0.321  0.003  0.339  0.000
  0.321  0.337  0.339  0.003  0.000
  0.286  0.056  0.518  0.140  0.000
  0.056  0.286  0.140  0.518  0.000
    occupations:
  0.995  0.000  0.000  0.000  0.000
  0.000  0.687  0.000 -0.081  0.204
  0.000  0.000  0.687  0.204  0.081
  0.000 -0.081  0.204  0.833  0.000
  0.000  0.204  0.081  0.000  0.833
atom    2   Tr[ns(na)] =   8.05038
    eigenvalues: 
  0.523  0.523  0.992  0.992  0.995
    eigenvectors:
  0.000  0.000  0.000  0.000  1.000
  0.639  0.019  0.221  0.121  0.000
  0.019  0.639  0.121  0.221  0.000
  0.014  0.328  0.474  0.185  0.000
  0.328  0.014  0.185  0.474  0.000
    occupations:
  0.995  0.000  0.000  0.000  0.000
  0.000  0.683  0.000  0.082  0.207
  0.000  0.000  0.683  0.207 -0.082
  0.000  0.082  0.207  0.832  0.000
  0.000  0.207 -0.082  0.000  0.832
atom    3   Tr[ns(na)] =   3.79178
    eigenvalues: 
  0.356  0.356  0.381  0.401  0.401
    eigenvectors:
  0.000  0.000  1.000  0.000  0.000
  0.782  0.139  0.000  0.012  0.067
  0.139  0.782  0.000  0.067  0.012
  0.012  0.067  0.000  0.780  0.141
  0.067  0.012  0.000  0.141  0.780
    occupations:
  0.381  0.000  0.000  0.000  0.000
  0.000  0.359  0.000  0.000  0.012
  0.000  0.000  0.359  0.012  0.000
  0.000  0.000  0.012  0.398  0.000
  0.000  0.012  0.000  0.000  0.398
atom    4   Tr[ns(na)] =   3.79178
    eigenvalues: 
  0.356  0.356  0.381  0.401  0.401
    eigenvectors:
  0.000  0.000  1.000  0.000  0.000
  0.782  0.139  0.000  0.012  0.067
  0.139  0.782  0.000  0.067  0.012
  0.012  0.067  0.000  0.781  0.141
  0.067  0.012  0.000  0.141  0.781
    occupations:
  0.381  0.000  0.000  0.000  0.000
  0.000  0.359  0.000  0.000  0.012
  0.000  0.000  0.359  0.012  0.000
  0.000  0.000  0.012  0.398  0.000
  0.000  0.012  0.000  0.000  0.398
atom    5   Tr[ns(na)] =   5.43190
    eigenvalues: 
  0.839  0.930  0.947
    eigenvectors:
  0.337  0.000  0.663
  0.496  0.251  0.254
  0.167  0.749  0.084
    occupations:
  0.911  0.044  0.026
  0.044  0.889 -0.024
  0.026 -0.024  0.916
atom    6   Tr[ns(na)] =   5.43190
    eigenvalues: 
  0.839  0.930  0.947
    eigenvectors:
  0.337  0.000  0.663
  0.000  1.000  0.000
  0.663  0.000  0.337
    occupations:
  0.911  0.000 -0.051
  0.000  0.930  0.000
 -0.051  0.000  0.875
atom    7   Tr[ns(na)] =   5.43190
    eigenvalues: 
  0.839  0.930  0.947
    eigenvectors:
  0.337  0.000  0.663
  0.498  0.249  0.252
  0.164  0.751  0.085
    occupations:
  0.911 -0.044  0.026
 -0.044  0.889  0.023
  0.026  0.023  0.916
atom    8   Tr[ns(na)] =   5.43190
    eigenvalues: 
  0.839  0.930  0.947
    eigenvectors:
  0.337  0.000  0.663
  0.000  1.000  0.000
  0.663  0.000  0.337
    occupations:
  0.911  0.000 -0.051
  0.000  0.930  0.000
 -0.051  0.000  0.875
atom    9   Tr[ns(na)] =   5.43190
    eigenvalues: 
  0.839  0.930  0.947
    eigenvectors:
  0.337  0.000  0.663
  0.496  0.251  0.254
  0.167  0.749  0.084
    occupations:
  0.911  0.044  0.026
  0.044  0.889 -0.024
  0.026 -0.024  0.916
atom   10   Tr[ns(na)] =   5.43190
    eigenvalues: 
  0.839  0.930  0.947
    eigenvectors:
  0.337  0.000  0.663
  0.498  0.249  0.252
  0.164  0.751  0.085
    occupations:
  0.911 -0.044  0.026
 -0.044  0.889  0.023
  0.026  0.023  0.916
N of occupied +U levels =  56.2941474
 --- exit write_ns ---
 --- in v_hubbard ---
Hubbard energy    0.2159
 -------

     total cpu time spent up to now is      128.6 secs

     total energy              =    -538.08749479 Ry
     Harris-Foulkes estimate   =    -538.08742962 Ry
     estimated scf accuracy    <       0.00003231 Ry

     iteration #  8     ecut=    30.00 Ry     beta=0.20
     Davidson diagonalization with overlap
     ethr =  4.25E-08,  avg # of iterations =  1.0
 --- enter write_ns ---
 LDA+U parameters:
U( 1)     =  4.00000000
alpha( 1) = -0.15000000
U( 2)     =  4.00000000
alpha( 2) =  0.00000000
U( 3)     =  0.00000000
alpha( 3) =  0.00000000
U( 4)     =  0.00000000
alpha( 4) =  0.00000000
atom    1   Tr[ns(na)] =   8.07183
    eigenvalues: 
  0.529  0.529  0.992  0.992  0.995
    eigenvectors:
  0.000  0.000  0.000  0.000  1.000
  0.337  0.321  0.003  0.339  0.000
  0.321  0.337  0.339  0.003  0.000
  0.286  0.056  0.518  0.140  0.000
  0.056  0.286  0.140  0.518  0.000
    occupations:
  0.995  0.000  0.000  0.000  0.000
  0.000  0.687  0.000 -0.081  0.204
  0.000  0.000  0.687  0.204  0.081
  0.000 -0.081  0.204  0.833  0.000
  0.000  0.204  0.081  0.000  0.833
atom    2   Tr[ns(na)] =   8.04987
    eigenvalues: 
  0.522  0.522  0.992  0.992  0.995
    eigenvectors:
  0.000  0.000  0.000  0.000  1.000
  0.639  0.019  0.221  0.121  0.000
  0.019  0.639  0.121  0.221  0.000
  0.014  0.328  0.474  0.185  0.000
  0.328  0.014  0.185  0.474  0.000
    occupations:
  0.995  0.000  0.000  0.000  0.000
  0.000  0.683  0.000  0.082  0.207
  0.000  0.000  0.683  0.207 -0.082
  0.000  0.082  0.207  0.832  0.000
  0.000  0.207 -0.082  0.000  0.832
atom    3   Tr[ns(na)] =   3.79216
    eigenvalues: 
  0.356  0.356  0.381  0.402  0.402
    eigenvectors:
  0.000  0.000  1.000  0.000  0.000
  0.782  0.139  0.000  0.012  0.067
  0.139  0.782  0.000  0.067  0.012
  0.012  0.066  0.000  0.780  0.141
  0.066  0.012  0.000  0.141  0.780
    occupations:
  0.381  0.000  0.000  0.000  0.000
  0.000  0.360  0.000  0.000  0.012
  0.000  0.000  0.360  0.012  0.000
  0.000  0.000  0.012  0.398  0.000
  0.000  0.012  0.000  0.000  0.398
atom    4   Tr[ns(na)] =   3.79216
    eigenvalues: 
  0.356  0.356  0.381  0.402  0.402
    eigenvectors:
  0.000  0.000  1.000  0.000  0.000
  0.782  0.139  0.000  0.012  0.067
  0.139  0.782  0.000  0.067  0.012
  0.012  0.067  0.000  0.780  0.141
  0.067  0.012  0.000  0.141  0.780
    occupations:
  0.381  0.000  0.000  0.000  0.000
  0.000  0.360  0.000  0.000  0.012
  0.000  0.000  0.360  0.012  0.000
  0.000  0.000  0.012  0.398  0.000
  0.000  0.012  0.000  0.000  0.398
atom    5   Tr[ns(na)] =   5.43144
    eigenvalues: 
  0.839  0.930  0.947
    eigenvectors:
  0.337  0.000  0.663
  0.495  0.251  0.254
  0.167  0.749  0.084
    occupations:
  0.911  0.044  0.026
  0.044  0.889 -0.024
  0.026 -0.024  0.916
atom    6   Tr[ns(na)] =   5.43144
    eigenvalues: 
  0.839  0.930  0.947
    eigenvectors:
  0.337  0.000  0.663
  0.000  1.000  0.000
  0.663  0.000  0.337
    occupations:
  0.911  0.000 -0.051
  0.000  0.930  0.000
 -0.051  0.000  0.875
atom    7   Tr[ns(na)] =   5.43144
    eigenvalues: 
  0.839  0.930  0.947
    eigenvectors:
  0.337  0.000  0.663
  0.499  0.249  0.252
  0.164  0.751  0.085
    occupations:
  0.911 -0.044  0.026
 -0.044  0.889  0.023
  0.026  0.023  0.916
atom    8   Tr[ns(na)] =   5.43144
    eigenvalues: 
  0.839  0.930  0.947
    eigenvectors:
  0.337  0.000  0.663
  0.000  1.000  0.000
  0.663  0.000  0.337
    occupations:
  0.911  0.000 -0.051
  0.000  0.930  0.000
 -0.051  0.000  0.875
atom    9   Tr[ns(na)] =   5.43144
    eigenvalues: 
  0.839  0.930  0.947
    eigenvectors:
  0.337  0.000  0.663
  0.495  0.251  0.254
  0.167  0.749  0.084
    occupations:
  0.911  0.044  0.026
  0.044  0.889 -0.024
  0.026 -0.024  0.916
atom   10   Tr[ns(na)] =   5.43144
    eigenvalues: 
  0.839  0.930  0.947
    eigenvectors:
  0.337  0.000  0.663
  0.499  0.249  0.252
  0.164  0.751  0.085
    occupations:
  0.911 -0.044  0.026
 -0.044  0.889  0.023
  0.026  0.023  0.916
N of occupied +U levels =  56.2946760
 --- exit write_ns ---
 --- in v_hubbard ---
Hubbard energy    0.2159
 -------

     total cpu time spent up to now is      142.0 secs

     total energy              =    -538.08752829 Ry
     Harris-Foulkes estimate   =    -538.08749628 Ry
     estimated scf accuracy    <       0.00000940 Ry

     iteration #  9     ecut=    30.00 Ry     beta=0.20
     Davidson diagonalization with overlap
     ethr =  1.24E-08,  avg # of iterations =  2.0
 --- enter write_ns ---
 LDA+U parameters:
U( 1)     =  4.00000000
alpha( 1) = -0.15000000
U( 2)     =  4.00000000
alpha( 2) =  0.00000000
U( 3)     =  0.00000000
alpha( 3) =  0.00000000
U( 4)     =  0.00000000
alpha( 4) =  0.00000000
atom    1   Tr[ns(na)] =   8.07319
    eigenvalues: 
  0.529  0.529  0.992  0.992  0.995
    eigenvectors:
  0.000  0.000  0.000  0.000  1.000
  0.337  0.321  0.003  0.339  0.000
  0.321  0.337  0.339  0.003  0.000
  0.286  0.056  0.518  0.140  0.000
  0.056  0.286  0.140  0.518  0.000
    occupations:
  0.995  0.000  0.000  0.000  0.000
  0.000  0.687  0.000 -0.081  0.204
  0.000  0.000  0.687  0.204  0.081
  0.000 -0.081  0.204  0.834  0.000
  0.000  0.204  0.081  0.000  0.834
atom    2   Tr[ns(na)] =   8.05151
    eigenvalues: 
  0.523  0.523  0.992  0.992  0.995
    eigenvectors:
  0.000  0.000  0.000  0.000  1.000
  0.640  0.018  0.221  0.121  0.000
  0.018  0.640  0.121  0.221  0.000
  0.015  0.327  0.474  0.184  0.000
  0.327  0.015  0.184  0.474  0.000
    occupations:
  0.995  0.000  0.000  0.000  0.000
  0.000  0.683  0.000  0.082  0.207
  0.000  0.000  0.683  0.207 -0.082
  0.000  0.082  0.207  0.832  0.000
  0.000  0.207 -0.082  0.000  0.832
atom    3   Tr[ns(na)] =   3.79311
    eigenvalues: 
  0.356  0.356  0.381  0.402  0.402
    eigenvectors:
  0.000  0.000  1.000  0.000  0.000
  0.782  0.139  0.000  0.012  0.067
  0.139  0.782  0.000  0.067  0.012
  0.012  0.066  0.000  0.780  0.141
  0.066  0.012  0.000  0.141  0.780
    occupations:
  0.381  0.000  0.000  0.000  0.000
  0.000  0.360  0.000  0.000  0.012
  0.000  0.000  0.360  0.012  0.000
  0.000  0.000  0.012  0.398  0.000
  0.000  0.012  0.000  0.000  0.398
atom    4   Tr[ns(na)] =   3.79311
    eigenvalues: 
  0.356  0.356  0.381  0.402  0.402
    eigenvectors:
  0.000  0.000  1.000  0.000  0.000
  0.782  0.139  0.000  0.012  0.067
  0.139  0.782  0.000  0.067  0.012
  0.012  0.066  0.000  0.780  0.141
  0.066  0.012  0.000  0.141  0.780
    occupations:
  0.381  0.000  0.000  0.000  0.000
  0.000  0.360  0.000  0.000  0.012
  0.000  0.000  0.360  0.012  0.000
  0.000  0.000  0.012  0.398  0.000
  0.000  0.012  0.000  0.000  0.398
atom    5   Tr[ns(na)] =   5.43072
    eigenvalues: 
  0.839  0.930  0.947
    eigenvectors:
  0.337  0.000  0.663
  0.495  0.251  0.254
  0.167  0.749  0.084
    occupations:
  0.911  0.044  0.026
  0.044  0.889 -0.024
  0.026 -0.024  0.916
atom    6   Tr[ns(na)] =   5.43072
    eigenvalues: 
  0.839  0.930  0.947
    eigenvectors:
  0.337  0.000  0.663
  0.000  1.000  0.000
  0.663  0.000  0.337
    occupations:
  0.911  0.000 -0.051
  0.000  0.930  0.000
 -0.051  0.000  0.875
atom    7   Tr[ns(na)] =   5.43072
    eigenvalues: 
  0.839  0.930  0.947
    eigenvectors:
  0.337  0.000  0.663
  0.499  0.249  0.252
  0.164  0.751  0.085
    occupations:
  0.911 -0.045  0.026
 -0.045  0.889  0.024
  0.026  0.024  0.916
atom    8   Tr[ns(na)] =   5.43072
    eigenvalues: 
  0.839  0.930  0.947
    eigenvectors:
  0.337  0.000  0.663
  0.000  1.000  0.000
  0.663  0.000  0.337
    occupations:
  0.911  0.000 -0.051
  0.000  0.930  0.000
 -0.051  0.000  0.875
atom    9   Tr[ns(na)] =   5.43072
    eigenvalues: 
  0.839  0.930  0.947
    eigenvectors:
  0.337  0.000  0.663
  0.495  0.251  0.254
  0.167  0.749  0.084
    occupations:
  0.911  0.044  0.026
  0.044  0.889 -0.024
  0.026 -0.024  0.916
atom   10   Tr[ns(na)] =   5.43072
    eigenvalues: 
  0.839  0.930  0.947
    eigenvectors:
  0.337  0.000  0.663
  0.499  0.249  0.252
  0.164  0.751  0.085
    occupations:
  0.911 -0.045  0.026
 -0.045  0.889  0.024
  0.026  0.024  0.916
N of occupied +U levels =  56.2952310
 --- exit write_ns ---
 --- in v_hubbard ---
Hubbard energy    0.2161
 -------

     total cpu time spent up to now is      157.7 secs

     total energy              =    -538.08755488 Ry
     Harris-Foulkes estimate   =    -538.08752984 Ry
     estimated scf accuracy    <       0.00000143 Ry

     iteration # 10     ecut=    30.00 Ry     beta=0.20
     Davidson diagonalization with overlap
     ethr =  1.88E-09,  avg # of iterations =  1.1
 --- enter write_ns ---
 LDA+U parameters:
U( 1)     =  4.00000000
alpha( 1) = -0.15000000
U( 2)     =  4.00000000
alpha( 2) =  0.00000000
U( 3)     =  0.00000000
alpha( 3) =  0.00000000
U( 4)     =  0.00000000
alpha( 4) =  0.00000000
atom    1   Tr[ns(na)] =   8.07280
    eigenvalues: 
  0.529  0.529  0.992  0.992  0.995
    eigenvectors:
  0.000  0.000  0.000  0.000  1.000
  0.337  0.321  0.003  0.339  0.000
  0.321  0.337  0.339  0.003  0.000
  0.286  0.056  0.518  0.140  0.000
  0.056  0.286  0.140  0.518  0.000
    occupations:
  0.995  0.000  0.000  0.000  0.000
  0.000  0.687  0.000 -0.082  0.204
  0.000  0.000  0.687  0.204  0.082
  0.000 -0.082  0.204  0.834  0.000
  0.000  0.204  0.082  0.000  0.834
atom    2   Tr[ns(na)] =   8.05172
    eigenvalues: 
  0.523  0.523  0.992  0.992  0.995
    eigenvectors:
  0.000  0.000  0.000  0.000  1.000
  0.640  0.019  0.221  0.121  0.000
  0.019  0.640  0.121  0.221  0.000
  0.014  0.327  0.474  0.185  0.000
  0.327  0.014  0.185  0.474  0.000
    occupations:
  0.995  0.000  0.000  0.000  0.000
  0.000  0.683  0.000  0.082  0.207
  0.000  0.000  0.683  0.207 -0.082
  0.000  0.082  0.207  0.832  0.000
  0.000  0.207 -0.082  0.000  0.832
atom    3   Tr[ns(na)] =   3.79290
    eigenvalues: 
  0.356  0.356  0.381  0.402  0.402
    eigenvectors:
  0.000  0.000  1.000  0.000  0.000
  0.782  0.139  0.000  0.012  0.067
  0.139  0.782  0.000  0.067  0.012
  0.012  0.067  0.000  0.781  0.141
  0.067  0.012  0.000  0.141  0.781
    occupations:
  0.381  0.000  0.000  0.000  0.000
  0.000  0.360  0.000  0.000  0.012
  0.000  0.000  0.360  0.012  0.000
  0.000  0.000  0.012  0.398  0.000
  0.000  0.012  0.000  0.000  0.398
atom    4   Tr[ns(na)] =   3.79290
    eigenvalues: 
  0.356  0.356  0.381  0.402  0.402
    eigenvectors:
  0.000  0.000  1.000  0.000  0.000
  0.782  0.139  0.000  0.012  0.067
  0.139  0.782  0.000  0.067  0.012
  0.012  0.067  0.000  0.780  0.141
  0.067  0.012  0.000  0.141  0.780
    occupations:
  0.381  0.000  0.000  0.000  0.000
  0.000  0.360  0.000  0.000  0.012
  0.000  0.000  0.360  0.012  0.000
  0.000  0.000  0.012  0.398  0.000
  0.000  0.012  0.000  0.000  0.398
atom    5   Tr[ns(na)] =   5.43079
    eigenvalues: 
  0.839  0.930  0.947
    eigenvectors:
  0.337  0.000  0.663
  0.495  0.251  0.254
  0.167  0.749  0.084
    occupations:
  0.911  0.044  0.026
  0.044  0.889 -0.024
  0.026 -0.024  0.916
atom    6   Tr[ns(na)] =   5.43079
    eigenvalues: 
  0.839  0.930  0.947
    eigenvectors:
  0.337  0.000  0.663
  0.000  1.000  0.000
  0.663  0.000  0.337
    occupations:
  0.911  0.000 -0.051
  0.000  0.930  0.000
 -0.051  0.000  0.875
atom    7   Tr[ns(na)] =   5.43079
    eigenvalues: 
  0.839  0.930  0.947
    eigenvectors:
  0.337  0.000  0.663
  0.499  0.249  0.252
  0.164  0.751  0.085
    occupations:
  0.911 -0.045  0.026
 -0.045  0.889  0.024
  0.026  0.024  0.916
atom    8   Tr[ns(na)] =   5.43079
    eigenvalues: 
  0.839  0.930  0.947
    eigenvectors:
  0.337  0.000  0.663
  0.000  1.000  0.000
  0.663  0.000  0.337
    occupations:
  0.911  0.000 -0.051
  0.000  0.930  0.000
 -0.051  0.000  0.875
atom    9   Tr[ns(na)] =   5.43079
    eigenvalues: 
  0.839  0.930  0.947
    eigenvectors:
  0.337  0.000  0.663
  0.495  0.251  0.254
  0.167  0.749  0.084
    occupations:
  0.911  0.044  0.026
  0.044  0.889 -0.024
  0.026 -0.024  0.916
atom   10   Tr[ns(na)] =   5.43079
    eigenvalues: 
  0.839  0.930  0.947
    eigenvectors:
  0.337  0.000  0.663
  0.499  0.249  0.252
  0.164  0.751  0.085
    occupations:
  0.911 -0.045  0.026
 -0.045  0.889  0.024
  0.026  0.024  0.916
N of occupied +U levels =  56.2950461
 --- exit write_ns ---
 --- in v_hubbard ---
Hubbard energy    0.2164
 -------

     total cpu time spent up to now is      171.9 secs

     total energy              =    -538.08757119 Ry
     Harris-Foulkes estimate   =    -538.08755498 Ry
     estimated scf accuracy    <       0.00000096 Ry

     iteration # 11     ecut=    30.00 Ry     beta=0.20
     Davidson diagonalization with overlap
     ethr =  1.26E-09,  avg # of iterations =  1.8
 --- enter write_ns ---
 LDA+U parameters:
U( 1)     =  4.00000000
alpha( 1) = -0.15000000
U( 2)     =  4.00000000
alpha( 2) =  0.00000000
U( 3)     =  0.00000000
alpha( 3) =  0.00000000
U( 4)     =  0.00000000
alpha( 4) =  0.00000000
atom    1   Tr[ns(na)] =   8.07244
    eigenvalues: 
  0.529  0.529  0.992  0.992  0.995
    eigenvectors:
  0.000  0.000  0.000  0.000  1.000
  0.337  0.321  0.003  0.339  0.000
  0.321  0.337  0.339  0.003  0.000
  0.286  0.056  0.519  0.139  0.000
  0.056  0.286  0.139  0.519  0.000
    occupations:
  0.995  0.000  0.000  0.000  0.000
  0.000  0.687  0.000 -0.082  0.204
  0.000  0.000  0.687  0.204  0.082
  0.000 -0.082  0.204  0.834  0.000
  0.000  0.204  0.082  0.000  0.834
atom    2   Tr[ns(na)] =   8.05089
    eigenvalues: 
  0.523  0.523  0.992  0.992  0.995
    eigenvectors:
  0.000  0.000  0.000  0.000  1.000
  0.640  0.018  0.221  0.121  0.000
  0.018  0.640  0.121  0.221  0.000
  0.015  0.327  0.474  0.184  0.000
  0.327  0.015  0.184  0.474  0.000
    occupations:
  0.995  0.000  0.000  0.000  0.000
  0.000  0.683  0.000  0.082  0.207
  0.000  0.000  0.683  0.207 -0.082
  0.000  0.082  0.207  0.832  0.000
  0.000  0.207 -0.082  0.000  0.832
atom    3   Tr[ns(na)] =   3.79282
    eigenvalues: 
  0.356  0.356  0.381  0.402  0.402
    eigenvectors:
  0.000  0.000  1.000  0.000  0.000
  0.782  0.139  0.000  0.012  0.067
  0.139  0.782  0.000  0.067  0.012
  0.012  0.067  0.000  0.780  0.141
  0.067  0.012  0.000  0.141  0.780
    occupations:
  0.381  0.000  0.000  0.000  0.000
  0.000  0.360  0.000  0.000  0.012
  0.000  0.000  0.360  0.012  0.000
  0.000  0.000  0.012  0.398  0.000
  0.000  0.012  0.000  0.000  0.398
atom    4   Tr[ns(na)] =   3.79282
    eigenvalues: 
  0.356  0.356  0.381  0.402  0.402
    eigenvectors:
  0.000  0.000  1.000  0.000  0.000
  0.782  0.139  0.000  0.012  0.067
  0.139  0.782  0.000  0.067  0.012
  0.012  0.067  0.000  0.780  0.141
  0.067  0.012  0.000  0.141  0.780
    occupations:
  0.381  0.000  0.000  0.000  0.000
  0.000  0.360  0.000  0.000  0.012
  0.000  0.000  0.360  0.012  0.000
  0.000  0.000  0.012  0.398  0.000
  0.000  0.012  0.000  0.000  0.398
atom    5   Tr[ns(na)] =   5.43099
    eigenvalues: 
  0.839  0.930  0.947
    eigenvectors:
  0.337  0.000  0.663
  0.495  0.251  0.254
  0.167  0.749  0.084
    occupations:
  0.911  0.044  0.026
  0.044  0.889 -0.024
  0.026 -0.024  0.916
atom    6   Tr[ns(na)] =   5.43099
    eigenvalues: 
  0.839  0.930  0.947
    eigenvectors:
  0.337  0.000  0.663
  0.000  1.000  0.000
  0.663  0.000  0.337
    occupations:
  0.911  0.000 -0.051
  0.000  0.930  0.000
 -0.051  0.000  0.875
atom    7   Tr[ns(na)] =   5.43099
    eigenvalues: 
  0.839  0.930  0.947
    eigenvectors:
  0.337  0.000  0.663
  0.499  0.249  0.252
  0.164  0.751  0.085
    occupations:
  0.911 -0.045  0.026
 -0.045  0.889  0.024
  0.026  0.024  0.916
atom    8   Tr[ns(na)] =   5.43099
    eigenvalues: 
  0.839  0.930  0.947
    eigenvectors:
  0.337  0.000  0.663
  0.000  1.000  0.000
  0.663  0.000  0.337
    occupations:
  0.911  0.000 -0.051
  0.000  0.930  0.000
 -0.051  0.000  0.875
atom    9   Tr[ns(na)] =   5.43099
    eigenvalues: 
  0.839  0.930  0.947
    eigenvectors:
  0.337  0.000  0.663
  0.495  0.251  0.254
  0.167  0.749  0.084
    occupations:
  0.911  0.044  0.026
  0.044  0.889 -0.024
  0.026 -0.024  0.916
atom   10   Tr[ns(na)] =   5.43099
    eigenvalues: 
  0.839  0.930  0.947
    eigenvectors:
  0.337  0.000  0.663
  0.499  0.249  0.252
  0.164  0.751  0.085
    occupations:
  0.911 -0.045  0.026
 -0.045  0.889  0.024
  0.026  0.024  0.916
N of occupied +U levels =  56.2948946
 --- exit write_ns ---
 --- in v_hubbard ---
Hubbard energy    0.2164
 -------

     total cpu time spent up to now is      185.7 secs

     total energy              =    -538.08758187 Ry
     Harris-Foulkes estimate   =    -538.08757134 Ry
     estimated scf accuracy    <       0.00000008 Ry

     iteration # 12     ecut=    30.00 Ry     beta=0.20
     Davidson diagonalization with overlap
     ethr =  1.07E-10,  avg # of iterations =  2.0
 --- enter write_ns ---
 LDA+U parameters:
U( 1)     =  4.00000000
alpha( 1) = -0.15000000
U( 2)     =  4.00000000
alpha( 2) =  0.00000000
U( 3)     =  0.00000000
alpha( 3) =  0.00000000
U( 4)     =  0.00000000
alpha( 4) =  0.00000000
atom    1   Tr[ns(na)] =   8.07263
    eigenvalues: 
  0.529  0.529  0.992  0.992  0.995
    eigenvectors:
  0.000  0.000  0.000  0.000  1.000
  0.337  0.321  0.003  0.339  0.000
  0.321  0.337  0.339  0.003  0.000
  0.286  0.056  0.518  0.140  0.000
  0.056  0.286  0.140  0.518  0.000
    occupations:
  0.995  0.000  0.000  0.000  0.000
  0.000  0.687  0.000 -0.082  0.204
  0.000  0.000  0.687  0.204  0.082
  0.000 -0.082  0.204  0.834  0.000
  0.000  0.204  0.082  0.000  0.834
atom    2   Tr[ns(na)] =   8.05107
    eigenvalues: 
  0.523  0.523  0.992  0.992  0.995
    eigenvectors:
  0.000  0.000  0.000  0.000  1.000
  0.640  0.018  0.221  0.121  0.000
  0.018  0.640  0.121  0.221  0.000
  0.015  0.327  0.474  0.185  0.000
  0.327  0.015  0.185  0.474  0.000
    occupations:
  0.995  0.000  0.000  0.000  0.000
  0.000  0.683  0.000  0.082  0.207
  0.000  0.000  0.683  0.207 -0.082
  0.000  0.082  0.207  0.832  0.000
  0.000  0.207 -0.082  0.000  0.832
atom    3   Tr[ns(na)] =   3.79287
    eigenvalues: 
  0.356  0.356  0.381  0.402  0.402
    eigenvectors:
  0.000  0.000  1.000  0.000  0.000
  0.782  0.139  0.000  0.012  0.067
  0.139  0.782  0.000  0.067  0.012
  0.012  0.066  0.000  0.780  0.141
  0.066  0.012  0.000  0.141  0.780
    occupations:
  0.381  0.000  0.000  0.000  0.000
  0.000  0.360  0.000  0.000  0.012
  0.000  0.000  0.360  0.012  0.000
  0.000  0.000  0.012  0.398  0.000
  0.000  0.012  0.000  0.000  0.398
atom    4   Tr[ns(na)] =   3.79287
    eigenvalues: 
  0.356  0.356  0.381  0.402  0.402
    eigenvectors:
  0.000  0.000  1.000  0.000  0.000
  0.782  0.139  0.000  0.012  0.067
  0.139  0.782  0.000  0.067  0.012
  0.012  0.066  0.000  0.780  0.141
  0.066  0.012  0.000  0.141  0.780
    occupations:
  0.381  0.000  0.000  0.000  0.000
  0.000  0.360  0.000  0.000  0.012
  0.000  0.000  0.360  0.012  0.000
  0.000  0.000  0.012  0.398  0.000
  0.000  0.012  0.000  0.000  0.398
atom    5   Tr[ns(na)] =   5.43092
    eigenvalues: 
  0.839  0.930  0.947
    eigenvectors:
  0.337  0.000  0.663
  0.495  0.251  0.254
  0.167  0.749  0.084
    occupations:
  0.911  0.044  0.026
  0.044  0.889 -0.024
  0.026 -0.024  0.916
atom    6   Tr[ns(na)] =   5.43092
    eigenvalues: 
  0.839  0.930  0.947
    eigenvectors:
  0.337  0.000  0.663
  0.000  1.000  0.000
  0.663  0.000  0.337
    occupations:
  0.911  0.000 -0.051
  0.000  0.930  0.000
 -0.051  0.000  0.875
atom    7   Tr[ns(na)] =   5.43092
    eigenvalues: 
  0.839  0.930  0.947
    eigenvectors:
  0.337  0.000  0.663
  0.499  0.249  0.252
  0.164  0.751  0.085
    occupations:
  0.911 -0.045  0.026
 -0.045  0.889  0.024
  0.026  0.024  0.916
atom    8   Tr[ns(na)] =   5.43092
    eigenvalues: 
  0.839  0.930  0.947
    eigenvectors:
  0.337  0.000  0.663
  0.000  1.000  0.000
  0.663  0.000  0.337
    occupations:
  0.911  0.000 -0.051
  0.000  0.930  0.000
 -0.051  0.000  0.875
atom    9   Tr[ns(na)] =   5.43092
    eigenvalues: 
  0.839  0.930  0.947
    eigenvectors:
  0.337  0.000  0.663
  0.495  0.251  0.254
  0.167  0.749  0.084
    occupations:
  0.911  0.044  0.026
  0.044  0.889 -0.024
  0.026 -0.024  0.916
atom   10   Tr[ns(na)] =   5.43092
    eigenvalues: 
  0.839  0.930  0.947
    eigenvectors:
  0.337  0.000  0.663
  0.499  0.249  0.252
  0.164  0.751  0.085
    occupations:
  0.911 -0.045  0.026
 -0.045  0.889  0.024
  0.026  0.024  0.916
N of occupied +U levels =  56.2949665
 --- exit write_ns ---
 --- in v_hubbard ---
Hubbard energy    0.2163
 -------

     total cpu time spent up to now is      200.0 secs

     total energy              =    -538.08758855 Ry
     Harris-Foulkes estimate   =    -538.08758188 Ry
     estimated scf accuracy    <       0.00000006 Ry

     iteration # 13     ecut=    30.00 Ry     beta=0.20
     Davidson diagonalization with overlap
     ethr =  8.00E-11,  avg # of iterations =  2.0
 --- enter write_ns ---
 LDA+U parameters:
U( 1)     =  4.00000000
alpha( 1) = -0.15000000
U( 2)     =  4.00000000
alpha( 2) =  0.00000000
U( 3)     =  0.00000000
alpha( 3) =  0.00000000
U( 4)     =  0.00000000
alpha( 4) =  0.00000000
atom    1   Tr[ns(na)] =   8.07251
    eigenvalues: 
  0.529  0.529  0.992  0.992  0.995
    eigenvectors:
  0.000  0.000  0.000  0.000  1.000
  0.337  0.321  0.003  0.339  0.000
  0.321  0.337  0.339  0.003  0.000
  0.286  0.056  0.519  0.139  0.000
  0.056  0.286  0.139  0.519  0.000
    occupations:
  0.995  0.000  0.000  0.000  0.000
  0.000  0.687  0.000 -0.082  0.204
  0.000  0.000  0.687  0.204  0.082
  0.000 -0.082  0.204  0.834  0.000
  0.000  0.204  0.082  0.000  0.834
atom    2   Tr[ns(na)] =   8.05100
    eigenvalues: 
  0.523  0.523  0.992  0.992  0.995
    eigenvectors:
  0.000  0.000  0.000  0.000  1.000
  0.640  0.018  0.221  0.121  0.000
  0.018  0.640  0.121  0.221  0.000
  0.015  0.327  0.474  0.184  0.000
  0.327  0.015  0.184  0.474  0.000
    occupations:
  0.995  0.000  0.000  0.000  0.000
  0.000  0.683  0.000  0.082  0.207
  0.000  0.000  0.683  0.207 -0.082
  0.000  0.082  0.207  0.832  0.000
  0.000  0.207 -0.082  0.000  0.832
atom    3   Tr[ns(na)] =   3.79292
    eigenvalues: 
  0.356  0.356  0.381  0.402  0.402
    eigenvectors:
  0.000  0.000  1.000  0.000  0.000
  0.782  0.139  0.000  0.012  0.067
  0.139  0.782  0.000  0.067  0.012
  0.012  0.066  0.000  0.780  0.141
  0.066  0.012  0.000  0.141  0.780
    occupations:
  0.381  0.000  0.000  0.000  0.000
  0.000  0.360  0.000  0.000  0.012
  0.000  0.000  0.360  0.012  0.000
  0.000  0.000  0.012  0.398  0.000
  0.000  0.012  0.000  0.000  0.398
atom    4   Tr[ns(na)] =   3.79292
    eigenvalues: 
  0.356  0.356  0.381  0.402  0.402
    eigenvectors:
  0.000  0.000  1.000  0.000  0.000
  0.782  0.139  0.000  0.012  0.067
  0.139  0.782  0.000  0.067  0.012
  0.012  0.066  0.000  0.780  0.141
  0.066  0.012  0.000  0.141  0.780
    occupations:
  0.381  0.000  0.000  0.000  0.000
  0.000  0.360  0.000  0.000  0.012
  0.000  0.000  0.360  0.012  0.000
  0.000  0.000  0.012  0.398  0.000
  0.000  0.012  0.000  0.000  0.398
atom    5   Tr[ns(na)] =   5.43094
    eigenvalues: 
  0.839  0.930  0.947
    eigenvectors:
  0.337  0.000  0.663
  0.495  0.251  0.254
  0.167  0.749  0.084
    occupations:
  0.911  0.044  0.026
  0.044  0.889 -0.024
  0.026 -0.024  0.916
atom    6   Tr[ns(na)] =   5.43094
    eigenvalues: 
  0.839  0.930  0.947
    eigenvectors:
  0.337  0.000  0.663
  0.000  1.000  0.000
  0.663  0.000  0.337
    occupations:
  0.911  0.000 -0.051
  0.000  0.930  0.000
 -0.051  0.000  0.875
atom    7   Tr[ns(na)] =   5.43094
    eigenvalues: 
  0.839  0.930  0.947
    eigenvectors:
  0.337  0.000  0.663
  0.499  0.249  0.252
  0.164  0.751  0.085
    occupations:
  0.911 -0.045  0.026
 -0.045  0.889  0.024
  0.026  0.024  0.916
atom    8   Tr[ns(na)] =   5.43094
    eigenvalues: 
  0.839  0.930  0.947
    eigenvectors:
  0.337  0.000  0.663
  0.000  1.000  0.000
  0.663  0.000  0.337
    occupations:
  0.911  0.000 -0.051
  0.000  0.930  0.000
 -0.051  0.000  0.875
atom    9   Tr[ns(na)] =   5.43094
    eigenvalues: 
  0.839  0.930  0.947
    eigenvectors:
  0.337  0.000  0.663
  0.495  0.251  0.254
  0.167  0.749  0.084
    occupations:
  0.911  0.044  0.026
  0.044  0.889 -0.024
  0.026 -0.024  0.916
atom   10   Tr[ns(na)] =   5.43094
    eigenvalues: 
  0.839  0.930  0.947
    eigenvectors:
  0.337  0.000  0.663
  0.499  0.249  0.252
  0.164  0.751  0.085
    occupations:
  0.911 -0.045  0.026
 -0.045  0.889  0.024
  0.026  0.024  0.916
N of occupied +U levels =  56.2949984
 --- exit write_ns ---
 --- in v_hubbard ---
Hubbard energy    0.2163
 -------

     total cpu time spent up to now is      214.2 secs

     total energy              =    -538.08759285 Ry
     Harris-Foulkes estimate   =    -538.08758857 Ry
     estimated scf accuracy    <       0.00000001 Ry

     iteration # 14     ecut=    30.00 Ry     beta=0.20
     Davidson diagonalization with overlap
     ethr =  1.47E-11,  avg # of iterations =  2.0
 --- enter write_ns ---
 LDA+U parameters:
U( 1)     =  4.00000000
alpha( 1) = -0.15000000
U( 2)     =  4.00000000
alpha( 2) =  0.00000000
U( 3)     =  0.00000000
alpha( 3) =  0.00000000
U( 4)     =  0.00000000
alpha( 4) =  0.00000000
atom    1   Tr[ns(na)] =   8.07259
    eigenvalues: 
  0.529  0.529  0.992  0.992  0.995
    eigenvectors:
  0.000  0.000  0.000  0.000  1.000
  0.337  0.321  0.003  0.339  0.000
  0.321  0.337  0.339  0.003  0.000
  0.286  0.056  0.518  0.140  0.000
  0.056  0.286  0.140  0.518  0.000
    occupations:
  0.995  0.000  0.000  0.000  0.000
  0.000  0.687  0.000 -0.082  0.204
  0.000  0.000  0.687  0.204  0.082
  0.000 -0.082  0.204  0.834  0.000
  0.000  0.204  0.082  0.000  0.834
atom    2   Tr[ns(na)] =   8.05104
    eigenvalues: 
  0.523  0.523  0.992  0.992  0.995
    eigenvectors:
  0.000  0.000  0.000  0.000  1.000
  0.640  0.018  0.221  0.121  0.000
  0.018  0.640  0.121  0.221  0.000
  0.015  0.327  0.474  0.185  0.000
  0.327  0.015  0.185  0.474  0.000
    occupations:
  0.995  0.000  0.000  0.000  0.000
  0.000  0.683  0.000  0.082  0.207
  0.000  0.000  0.683  0.207 -0.082
  0.000  0.082  0.207  0.832  0.000
  0.000  0.207 -0.082  0.000  0.832
atom    3   Tr[ns(na)] =   3.79290
    eigenvalues: 
  0.356  0.356  0.381  0.402  0.402
    eigenvectors:
  0.000  0.000  1.000  0.000  0.000
  0.783  0.139  0.000  0.012  0.067
  0.139  0.783  0.000  0.067  0.012
  0.012  0.067  0.000  0.780  0.141
  0.067  0.012  0.000  0.141  0.780
    occupations:
  0.381  0.000  0.000  0.000  0.000
  0.000  0.360  0.000  0.000  0.012
  0.000  0.000  0.360  0.012  0.000
  0.000  0.000  0.012  0.398  0.000
  0.000  0.012  0.000  0.000  0.398
atom    4   Tr[ns(na)] =   3.79290
    eigenvalues: 
  0.356  0.356  0.381  0.402  0.402
    eigenvectors:
  0.000  0.000  1.000  0.000  0.000
  0.782  0.139  0.000  0.012  0.067
  0.139  0.782  0.000  0.067  0.012
  0.012  0.067  0.000  0.780  0.141
  0.067  0.012  0.000  0.141  0.780
    occupations:
  0.381  0.000  0.000  0.000  0.000
  0.000  0.360  0.000  0.000  0.012
  0.000  0.000  0.360  0.012  0.000
  0.000  0.000  0.012  0.398  0.000
  0.000  0.012  0.000  0.000  0.398
atom    5   Tr[ns(na)] =   5.43093
    eigenvalues: 
  0.839  0.930  0.947
    eigenvectors:
  0.337  0.000  0.663
  0.495  0.251  0.254
  0.167  0.749  0.084
    occupations:
  0.911  0.044  0.026
  0.044  0.889 -0.024
  0.026 -0.024  0.916
atom    6   Tr[ns(na)] =   5.43093
    eigenvalues: 
  0.839  0.930  0.947
    eigenvectors:
  0.337  0.000  0.663
  0.000  1.000  0.000
  0.663  0.000  0.337
    occupations:
  0.911  0.000 -0.051
  0.000  0.930  0.000
 -0.051  0.000  0.875
atom    7   Tr[ns(na)] =   5.43093
    eigenvalues: 
  0.839  0.930  0.947
    eigenvectors:
  0.337  0.000  0.663
  0.499  0.249  0.252
  0.164  0.751  0.085
    occupations:
  0.911 -0.045  0.026
 -0.045  0.889  0.024
  0.026  0.024  0.916
atom    8   Tr[ns(na)] =   5.43093
    eigenvalues: 
  0.839  0.930  0.947
    eigenvectors:
  0.337  0.000  0.663
  0.000  1.000  0.000
  0.663  0.000  0.337
    occupations:
  0.911  0.000 -0.051
  0.000  0.930  0.000
 -0.051  0.000  0.875
atom    9   Tr[ns(na)] =   5.43093
    eigenvalues: 
  0.839  0.930  0.947
    eigenvectors:
  0.337  0.000  0.663
  0.495  0.251  0.254
  0.167  0.749  0.084
    occupations:
  0.911  0.044  0.026
  0.044  0.889 -0.024
  0.026 -0.024  0.916
atom   10   Tr[ns(na)] =   5.43093
    eigenvalues: 
  0.839  0.930  0.947
    eigenvectors:
  0.337  0.000  0.663
  0.499  0.249  0.252
  0.164  0.751  0.085
    occupations:
  0.911 -0.045  0.026
 -0.045  0.889  0.024
  0.026  0.024  0.916
N of occupied +U levels =  56.2949902
 --- exit write_ns ---
 --- in v_hubbard ---
Hubbard energy    0.2163
 -------

     total cpu time spent up to now is      229.0 secs

     End of self-consistent calculation

          k = 0.0000 0.0000 0.0000 (  2175 PWs)   bands (ev):

   -19.8014 -19.6282  -6.5563  -5.8802  -5.8802  -5.8318  -5.8318  -5.4924
    -3.8522  -3.2647  -3.2647  -3.2632  -3.0296  -3.0296   5.1786   6.7213
     6.7213   6.8632   6.8632   6.8690   7.5076   7.5076   7.7050   8.6486
     8.8540   8.8540   9.2862   9.6145   9.6145   9.9912   9.9912  10.1874
    10.4488  10.4488  10.6656  10.9672  10.9672  11.3336  11.9007  11.9007
    14.7276  14.7276  15.4234  15.4234  16.1963  16.7820

     occupation numbers 
     0.0313   0.0313   0.0313   0.0313   0.0313   0.0313   0.0313   0.0313
     0.0313   0.0313   0.0313   0.0313   0.0313   0.0313   0.0313   0.0313
     0.0313   0.0313   0.0313   0.0313   0.0313   0.0313   0.0313   0.0313
     0.0313   0.0313   0.0312   0.0312   0.0312   0.0312   0.0312   0.0312
     0.0312   0.0312   0.0312   0.0308   0.0308   0.0256   0.0045   0.0045
     0.0000   0.0000   0.0000   0.0000   0.0000   0.0000

          k =-0.2471-0.1427 0.1027 (  2181 PWs)   bands (ev):

   -19.7761 -19.6654  -6.7345  -6.3062  -5.9741  -5.8715  -5.6288  -5.4975
    -3.6390  -3.4160  -2.9510  -2.9155  -2.8722  -2.7718   5.5223   6.4975
     6.7719   6.8197   6.8348   6.9113   6.9600   7.4518   7.5806   7.9754
     8.0589   8.5112   9.5041   9.6280   9.7037   9.9285  10.0465  10.0954
    10.3107  10.3749  10.3984  10.9964  11.1041  11.1100  12.2736  12.3461
    14.2728  14.2831  15.8113  16.0648  16.9690  17.2625

     occupation numbers 
     0.1875   0.1875   0.1875   0.1875   0.1875   0.1875   0.1875   0.1875
     0.1875   0.1875   0.1875   0.1875   0.1875   0.1875   0.1875   0.1875
     0.1875   0.1875   0.1875   0.1875   0.1875   0.1875   0.1875   0.1875
     0.1875   0.1875   0.1875   0.1875   0.1875   0.1875   0.1875   0.1875
     0.1875   0.1875   0.1875   0.1839   0.1792   0.1788   0.0018   0.0009
     0.0000   0.0000   0.0000   0.0000   0.0000   0.0000

          k = 0.4942 0.2853-0.2053 (  2202 PWs)   bands (ev):

   -19.7276 -19.7262  -6.7332  -6.7227  -5.9889  -5.9752  -5.5467  -5.5336
    -3.4072  -3.4014  -2.8095  -2.8040  -2.5132  -2.5115   5.8888   5.9086
     6.8114   6.8594   7.0373   7.0856   7.2248   7.2702   7.3168   7.3712
     7.5133   7.5695   9.3897   9.3898   9.8304   9.8365  10.2330  10.2415
    10.3677  10.3892  10.5637  10.5849  10.8529  10.8747  13.2543  13.2946
    13.3378  13.3781  16.8274  16.8320  17.1255  17.1273

     occupation numbers 
     0.0938   0.0938   0.0938   0.0938   0.0938   0.0938   0.0938   0.0938
     0.0938   0.0938   0.0938   0.0938   0.0938   0.0938   0.0938   0.0938
     0.0938   0.0938   0.0938   0.0938   0.0938   0.0938   0.0938   0.0938
     0.0938   0.0938   0.0937   0.0937   0.0937   0.0937   0.0937   0.0937
     0.0937   0.0937   0.0937   0.0937   0.0933   0.0932   0.0000   0.0000
     0.0000   0.0000   0.0000   0.0000   0.0000   0.0000

          k =-0.2471 0.1427 0.2053 (  2195 PWs)   bands (ev):

   -19.7688 -19.6764  -6.8625  -6.2543  -6.0831  -5.8485  -5.6699  -5.4896
    -3.4448  -3.2765  -3.1215  -2.9116  -2.8403  -2.5673   5.5530   6.2182
     6.5625   6.7397   6.9168   7.1705   7.1898   7.3824   7.4673   8.0175
     8.0869   8.7296   8.8203   9.2830   9.7945   9.8549   9.9874  10.0290
    10.2502  10.6595  10.7688  10.8327  11.0113  11.0801  11.8270  12.6978
    13.5999  14.7456  15.9883  16.1904  17.0323  17.5342

     occupation numbers 
     0.1875   0.1875   0.1875   0.1875   0.1875   0.1875   0.1875   0.1875
     0.1875   0.1875   0.1875   0.1875   0.1875   0.1875   0.1875   0.1875
     0.1875   0.1875   0.1875   0.1875   0.1875   0.1875   0.1875   0.1875
     0.1875   0.1875   0.1875   0.1875   0.1875   0.1875   0.1875   0.1875
     0.1875   0.1874   0.1871   0.1867   0.1835   0.1805   0.0396   0.0000
     0.0000   0.0000   0.0000   0.0000   0.0000   0.0000

          k = 0.4942 0.5706-0.1027 (  2198 PWs)   bands (ev):

   -19.7384 -19.7185  -6.9657  -6.6552  -6.1427  -5.9066  -5.5307  -5.4078
    -3.3266  -3.2683  -2.8885  -2.7189  -2.5361  -2.3929   5.7655   6.0353
     6.2051   6.7746   6.9782   7.0169   7.0999   7.3774   7.4008   7.4256
     7.9265   8.3664   8.8756   9.1845   9.5023   9.7463   9.7957  10.1750
    10.3008  10.5854  10.6777  10.7578  10.9102  11.0582  12.2664  12.7026
    13.3933  14.3241  16.8995  17.1084  17.3021  18.0093

     occupation numbers 
     0.1875   0.1875   0.1875   0.1875   0.1875   0.1875   0.1875   0.1875
     0.1875   0.1875   0.1875   0.1875   0.1875   0.1875   0.1875   0.1875
     0.1875   0.1875   0.1875   0.1875   0.1875   0.1875   0.1875   0.1875
     0.1875   0.1875   0.1875   0.1875   0.1875   0.1875   0.1875   0.1875
     0.1875   0.1875   0.1874   0.1872   0.1858   0.1816   0.0019   0.0000
     0.0000   0.0000   0.0000   0.0000   0.0000   0.0000

          k = 0.2471 0.4280 0.0000 (  2203 PWs)   bands (ev):

   -19.7503 -19.7028  -6.8551  -6.6530  -6.0620  -5.9966  -5.4586  -5.3922
    -3.5545  -3.3058  -2.8107  -2.7159  -2.5821  -2.5725   5.8196   6.0235
     6.5138   6.8205   6.8822   6.9271   7.2098   7.2606   7.3171   7.5527
     7.6880   8.6076   8.8811   9.3265   9.7110   9.7345  10.0058  10.3087
    10.3705  10.4376  10.6628  10.7049  10.7165  11.1430  12.1778  13.2840
    13.3633  14.1184  16.4286  16.9880  17.4154  17.9202

     occupation numbers 
     0.1875   0.1875   0.1875   0.1875   0.1875   0.1875   0.1875   0.1875
     0.1875   0.1875   0.1875   0.1875   0.1875   0.1875   0.1875   0.1875
     0.1875   0.1875   0.1875   0.1875   0.1875   0.1875   0.1875   0.1875
     0.1875   0.1875   0.1875   0.1875   0.1875   0.1875   0.1875   0.1875
     0.1875   0.1875   0.1874   0.1873   0.1873   0.1765   0.0041   0.0000
     0.0000   0.0000   0.0000   0.0000   0.0000   0.0000

          k = 0.4942-0.2853-0.4107 (  2202 PWs)   bands (ev):

   -19.7356 -19.7243  -7.1793  -6.4597  -6.2454  -5.9887  -5.5399  -5.3210
    -3.2139  -3.1231  -3.0631  -2.6549  -2.4865  -2.2294   5.5710   5.7340
     6.0543   6.7186   7.0140   7.1408   7.2504   7.2703   7.6524   7.6665
     8.1568   8.2985   8.5955   8.8807   9.4056   9.6676  10.0222  10.0561
    10.3715  10.4694  10.6500  10.7997  10.9191  11.1866  11.7758  12.3743
    13.2952  14.7602  17.0388  17.2605  17.5144  17.6083

     occupation numbers 
     0.0938   0.0938   0.0938   0.0938   0.0938   0.0938   0.0938   0.0938
     0.0938   0.0938   0.0938   0.0938   0.0938   0.0938   0.0938   0.0938
     0.0938   0.0938   0.0938   0.0938   0.0938   0.0938   0.0938   0.0938
     0.0938   0.0938   0.0938   0.0938   0.0937   0.0937   0.0937   0.0937
     0.0937   0.0937   0.0937   0.0935   0.0929   0.0864   0.0249   0.0003
     0.0000   0.0000   0.0000   0.0000   0.0000   0.0000

          k = 0.0000 0.0000 0.3080 (  2187 PWs)   bands (ev):

   -19.7758 -19.6668  -6.6227  -5.9955  -5.9581  -5.9581  -5.8591  -5.8591
    -3.2279  -3.1497  -3.1497  -2.9778  -2.9061  -2.9061   5.5996   6.5531
     6.7952   6.7952   6.9039   6.9039   7.0732   7.4537   7.4537   8.1870
     8.1870   8.4828   9.4288   9.4853   9.4853   9.6951  10.0924  10.0924
    10.2708  10.2708  10.5541  11.0591  11.0591  11.0892  12.2457  12.2457
    14.2340  14.2340  15.9066  15.9066  16.8756  17.4760

     occupation numbers 
     0.0625   0.0625   0.0625   0.0625   0.0625   0.0625   0.0625   0.0625
     0.0625   0.0625   0.0625   0.0625   0.0625   0.0625   0.0625   0.0625
     0.0625   0.0625   0.0625   0.0625   0.0625   0.0625   0.0625   0.0625
     0.0625   0.0625   0.0625   0.0625   0.0625   0.0625   0.0625   0.0625
     0.0625   0.0625   0.0625   0.0605   0.0605   0.0600   0.0008   0.0008
     0.0000   0.0000   0.0000   0.0000   0.0000   0.0000

          k = 0.7412 0.4280 0.0000 (  2204 PWs)   bands (ev):

   -19.7496 -19.7046  -6.7408  -6.6174  -6.1557  -5.8455  -5.7113  -5.5667
    -3.2030  -3.1065  -3.0529  -2.6851  -2.6699  -2.5946   5.8576   6.2745
     6.3624   6.8647   6.9398   7.0592   7.1345   7.2448   7.3555   7.5007
     7.8158   8.4564   8.8743   9.4232   9.4846   9.6587   9.8150  10.2022
    10.3967  10.5401  10.6800  10.7878  10.8436  10.9039  12.1763  13.2049
    13.2787  14.1464  16.6810  16.7198  17.5864  17.7885

     occupation numbers 
     0.1875   0.1875   0.1875   0.1875   0.1875   0.1875   0.1875   0.1875
     0.1875   0.1875   0.1875   0.1875   0.1875   0.1875   0.1875   0.1875
     0.1875   0.1875   0.1875   0.1875   0.1875   0.1875   0.1875   0.1875
     0.1875   0.1875   0.1875   0.1875   0.1875   0.1875   0.1875   0.1875
     0.1875   0.1875   0.1874   0.1870   0.1866   0.1859   0.0041   0.0000
     0.0000   0.0000   0.0000   0.0000   0.0000   0.0000

          k = 0.4942 0.2853 0.1027 (  2211 PWs)   bands (ev):

   -19.7393 -19.7176  -6.9823  -6.5523  -6.3339  -5.7200  -5.6348  -5.3831
    -3.3412  -3.1745  -3.0503  -2.6093  -2.5719  -2.3855   5.7960   6.0665
     6.1129   6.7237   7.0077   7.0172   7.2051   7.2548   7.3930   7.4511
     7.9676   8.4096   8.8618   9.3398   9.3500   9.6232   9.9421  10.0553
    10.3799  10.6432  10.7823  10.8159  10.8559  10.8868  12.2216  12.7163
    13.4404  14.3057  16.8800  16.9298  17.5735  17.9214

     occupation numbers 
     0.1875   0.1875   0.1875   0.1875   0.1875   0.1875   0.1875   0.1875
     0.1875   0.1875   0.1875   0.1875   0.1875   0.1875   0.1875   0.1875
     0.1875   0.1875   0.1875   0.1875   0.1875   0.1875   0.1875   0.1875
     0.1875   0.1875   0.1875   0.1875   0.1875   0.1875   0.1875   0.1875
     0.1875   0.1874   0.1870   0.1868   0.1865   0.1862   0.0028   0.0000
     0.0000   0.0000   0.0000   0.0000   0.0000   0.0000

          k = 0.7412-0.4280-0.3080 (  2210 PWs)   bands (ev):

   -19.7390 -19.7191  -6.9193  -6.4629  -6.3121  -5.8063  -5.7811  -5.5122
    -3.0842  -3.0686  -2.9742  -2.7398  -2.6331  -2.4356   5.8896   6.1227
     6.2105   6.7108   6.9479   7.0570   7.2549   7.3056   7.4043   7.4877
     7.9417   8.4148   8.7647   9.2816   9.4319   9.4714   9.6285  10.1075
    10.3512  10.6359  10.7320  10.8019  10.9327  10.9396  12.1811  12.6692
    13.3890  14.2757  17.0543  17.0640  17.5419  17.8972

     occupation numbers 
     0.1875   0.1875   0.1875   0.1875   0.1875   0.1875   0.1875   0.1875
     0.1875   0.1875   0.1875   0.1875   0.1875   0.1875   0.1875   0.1875
     0.1875   0.1875   0.1875   0.1875   0.1875   0.1875   0.1875   0.1875
     0.1875   0.1875   0.1875   0.1875   0.1875   0.1875   0.1875   0.1875
     0.1875   0.1874   0.1872   0.1869   0.1855   0.1853   0.0040   0.0000
     0.0000   0.0000   0.0000   0.0000   0.0000   0.0000

          k = 0.4942-0.5706-0.2053 (  2206 PWs)   bands (ev):

   -19.7305 -19.7304  -6.8932  -6.8903  -6.0437  -6.0417  -5.4534  -5.4479
    -3.1638  -3.1632  -2.8263  -2.8259  -2.3905  -2.3883   5.9480   5.9851
     6.2610   6.2680   6.9162   6.9242   7.2216   7.2278   7.3980   7.4449
     8.4738   8.4757   8.7790   8.7813   9.4629   9.4662   9.9954   9.9983
    10.4603  10.4664  10.6385  10.6480  10.9843  10.9931  12.2311  12.2320
    13.9673  13.9798  17.4200  17.4202  17.8638  17.8661

     occupation numbers 
     0.1875   0.1875   0.1875   0.1875   0.1875   0.1875   0.1875   0.1875
     0.1875   0.1875   0.1875   0.1875   0.1875   0.1875   0.1875   0.1875
     0.1875   0.1875   0.1875   0.1875   0.1875   0.1875   0.1875   0.1875
     0.1875   0.1875   0.1875   0.1875   0.1875   0.1875   0.1875   0.1875
     0.1875   0.1875   0.1874   0.1874   0.1843   0.1840   0.0026   0.0026
     0.0000   0.0000   0.0000   0.0000   0.0000   0.0000

          k = 0.0000 0.0000-0.6160 (  2186 PWs)   bands (ev):

   -19.7287 -19.7273  -6.5220  -6.5086  -5.9661  -5.9661  -5.9539  -5.9539
    -2.9119  -2.9119  -2.9060  -2.9060  -2.7107  -2.7105   6.1273   6.1468
     6.9103   6.9103   6.9634   6.9634   7.1792   7.2214   7.4846   7.4846
     7.5409   7.5409   9.5580   9.5580   9.5630   9.5630   9.6348   9.6448
    10.6126  10.6361  10.7254  10.7254  10.7469  10.7469  13.1939  13.1939
    13.2324  13.2324  17.1118  17.1118  17.1130  17.1130

     occupation numbers 
     0.0313   0.0313   0.0313   0.0313   0.0313   0.0313   0.0313   0.0313
     0.0313   0.0313   0.0313   0.0313   0.0313   0.0313   0.0313   0.0313
     0.0313   0.0313   0.0313   0.0313   0.0313   0.0313   0.0313   0.0313
     0.0313   0.0313   0.0312   0.0312   0.0312   0.0312   0.0312   0.0312
     0.0312   0.0312   0.0312   0.0312   0.0312   0.0312   0.0000   0.0000
     0.0000   0.0000   0.0000   0.0000   0.0000   0.0000

          k = 0.4942-0.5706 0.1027 (  2198 PWs)   bands (ev):

   -19.7384 -19.7185  -6.9670  -6.6565  -6.1402  -5.9004  -5.5336  -5.4114
    -3.3281  -3.2681  -2.8876  -2.7172  -2.5368  -2.3931   5.7556   6.0643
     6.1849   6.7807   6.9681   7.0128   7.1287   7.3563   7.3777   7.4416
     7.9327   8.3725   8.8735   9.1828   9.4996   9.7475   9.7961  10.1749
    10.3031  10.5777  10.6825  10.7558  10.9207  11.0522  12.2665  12.7020
    13.3929  14.3241  16.9012  17.1057  17.3026  18.0104

     occupation numbers 
     0.1875   0.1875   0.1875   0.1875   0.1875   0.1875   0.1875   0.1875
     0.1875   0.1875   0.1875   0.1875   0.1875   0.1875   0.1875   0.1875
     0.1875   0.1875   0.1875   0.1875   0.1875   0.1875   0.1875   0.1875
     0.1875   0.1875   0.1875   0.1875   0.1875   0.1875   0.1875   0.1875
     0.1875   0.1875   0.1874   0.1872   0.1857   0.1819   0.0019   0.0000
     0.0000   0.0000   0.0000   0.0000   0.0000   0.0000

     the Fermi energy is    11.5952 ev

!    total energy              =    -538.08760043 Ry
     Harris-Foulkes estimate   =    -538.08759285 Ry
     estimated scf accuracy    <          6.2E-09 Ry

     The total energy is the sum of the following terms:

     one-electron contribution =     -32.92100200 Ry
     hartree contribution      =      83.68801615 Ry
     xc contribution           =    -199.61919752 Ry
     ewald contribution        =    -389.44315552 Ry
     Hubbard energy            =       0.21628803 Ry
     smearing contrib. (-TS)   =      -0.00854957 Ry

     convergence has been achieved in  14 iterations

     init_run     :      7.63s CPU      7.82s WALL (       1 calls)
     electrons    :    216.54s CPU    220.42s WALL (       1 calls)

     Called by init_run:
     wfcinit      :      0.00s CPU      0.00s WALL (       1 calls)
     potinit      :      0.28s CPU      0.31s WALL (       1 calls)

     Called by electrons:
     c_bands      :    138.42s CPU    140.09s WALL (      14 calls)
     sum_band     :     44.34s CPU     44.90s WALL (      14 calls)
     v_of_rho     :      3.99s CPU      4.02s WALL (      15 calls)
     v_h          :      0.22s CPU      0.22s WALL (      15 calls)
     v_xc         :      3.77s CPU      3.80s WALL (      15 calls)
     newd         :     30.74s CPU     30.82s WALL (      15 calls)
     mix_rho      :      0.44s CPU      0.44s WALL (      14 calls)

     Called by c_bands:
     init_us_2    :      1.64s CPU      1.63s WALL (     392 calls)
     cegterg      :    134.17s CPU    135.43s WALL (     196 calls)

     Called by sum_band:
     sum_band:bec :      0.16s CPU      0.15s WALL (     196 calls)
     addusdens    :     18.97s CPU     18.98s WALL (      14 calls)

     Called by *egterg:
     h_psi        :    101.19s CPU    102.30s WALL (     734 calls)
     s_psi        :      5.21s CPU      5.22s WALL (     734 calls)
     g_psi        :      0.45s CPU      0.45s WALL (     538 calls)
     cdiaghg      :      8.61s CPU      8.61s WALL (     720 calls)
     cegterg:over :      6.84s CPU      6.91s WALL (     538 calls)
     cegterg:upda :      3.78s CPU      3.81s WALL (     538 calls)
     cegterg:last :      2.84s CPU      2.85s WALL (     222 calls)

     Called by h_psi:
     h_psi:vloc   :     82.74s CPU     83.75s WALL (     734 calls)
     h_psi:vnl    :     11.70s CPU     11.75s WALL (     734 calls)
     add_vuspsi   :      5.30s CPU      5.32s WALL (     734 calls)
     vhpsi        :      6.50s CPU      6.53s WALL (     734 calls)

     General routines
     calbec       :     13.49s CPU     13.58s WALL (    1860 calls)
     fft          :      2.70s CPU      2.74s WALL (     235 calls)
     ffts         :      0.09s CPU      0.09s WALL (      29 calls)
     fftw         :     83.54s CPU     84.77s WALL (   54052 calls)
     interpolate  :      0.48s CPU      0.48s WALL (      29 calls)
     davcio       :      0.00s CPU      0.70s WALL (     406 calls)

     Parallel routines
     fft_scatter  :     29.21s CPU     30.33s WALL (   54316 calls)
     Hubbard U routines
     new_ns       :      1.39s CPU      1.70s WALL (      14 calls)
     vhpsi        :      6.50s CPU      6.53s WALL (     734 calls)

     PWSCF        :  3m44.64s CPU     3m49.06s WALL


   This run was terminated on:  14:50:20  11Nov2012            

=------------------------------------------------------------------------------=
