   JOB DONE.
=------------------------------------------------------------------------------=

     Program PWSCF v.5.0.1 starts on 11Nov2012 at 15: 2:31 

     This program is part of the open-source Quantum ESPRESSO suite
     for quantum simulation of materials; please cite
         "P. Giannozzi et al., J. Phys.:Condens. Matter 21 395502 (2009);
          URL http://www.quantum-espresso.org", 
     in publications or presentations arising from this work. More details at
     http://www.quantum-espresso.org/quote.php

     Parallel version (MPI), running on     2 processors
     R & G space division:  proc/pool =    2

     Current dimensions of program PWSCF are:
     Max number of different atomic species (ntypx) = 10
     Max number of k-points (npk) =  40000
     Max angular momentum in pseudopotentials (lmaxx) =  3
     Reading input from CoLaO_U400_a5.in
               file Co.pbe-nd-rrkjus.UPF: wavefunction(s)  4S 3D renormalized
               file Co.pbe-nd-rrkjus.UPF: wavefunction(s)  4S 3D renormalized
               file O.pbe-rrkjus.UPF: wavefunction(s)  2S renormalized

     Subspace diagonalization in iterative solution of the eigenvalue problem:
     a serial algorithm will be used


     Parallelization info
     --------------------
     sticks:   dense  smooth     PW     G-vecs:    dense   smooth      PW
     Min        1112     444    131                34808     8786    1448
     Max        1113     445    132                34809     8787    1449
     Sum        2225     889    263                69617    17573    2897


     Title: 
     GGA + U, U = 4.000, alpha = 0.050                                          


     bravais-lattice index     =            5
     lattice parameter (alat)  =      10.3292  a.u.
     unit-cell volume          =     793.0599 (a.u.)^3
     number of atoms/cell      =           10
     number of atomic types    =            4
     number of electrons       =        76.00
     number of Kohn-Sham states=           46
     kinetic-energy cutoff     =      30.0000  Ry
     charge density cutoff     =     300.0000  Ry
     convergence threshold     =      1.0E-08
     mixing beta               =       0.2000
     number of iterations used =            8  plain     mixing
     Exchange-correlation      =  SLA  PW   PBE  PBE ( 1 4 3 4 0)
     EXX-fraction              =        0.00

     celldm(1)=  10.329242  celldm(2)=   0.000000  celldm(3)=   0.000000
     celldm(4)=   0.488100  celldm(5)=   0.000000  celldm(6)=   0.000000

     crystal axes: (cart. coord. in units of alat)
               a(1) = (   0.505915  -0.292090   0.811624 )  
               a(2) = (   0.000000   0.584180   0.811624 )  
               a(3) = (  -0.505915  -0.292090   0.811624 )  

     reciprocal axes: (cart. coord. in units 2 pi/alat)
               b(1) = (  0.988308 -0.570600  0.410699 )  
               b(2) = (  0.000000  1.141200  0.410699 )  
               b(3) = ( -0.988308 -0.570600  0.410699 )  


     PseudoPot. # 1 for Co read from file:
     /home/mcurnan/dft-course/Project1/example_LaCoO3/Co.pbe-nd-rrkjus.UPF
     MD5 check sum: 3e47a84addf5e975e0edeaeee2a73f59
     Pseudo is Ultrasoft + core correction, Zval =  9.0
     Generated by new atomic code, or converted to UPF format
     Using radial grid of  961 points,  6 beta functions with: 
                l(1) =   0
                l(2) =   0
                l(3) =   1
                l(4) =   1
                l(5) =   2
                l(6) =   2
     Q(r) pseudized with 0 coefficients 


     PseudoPot. # 2 for Co read from file:
     /home/mcurnan/dft-course/Project1/example_LaCoO3/Co.pbe-nd-rrkjus.UPF
     MD5 check sum: 3e47a84addf5e975e0edeaeee2a73f59
     Pseudo is Ultrasoft + core correction, Zval =  9.0
     Generated by new atomic code, or converted to UPF format
     Using radial grid of  961 points,  6 beta functions with: 
                l(1) =   0
                l(2) =   0
                l(3) =   1
                l(4) =   1
                l(5) =   2
                l(6) =   2
     Q(r) pseudized with 0 coefficients 


     PseudoPot. # 3 for La read from file:
     /home/mcurnan/dft-course/Project1/example_LaCoO3/La.pbe-nsp-van.UPF
     MD5 check sum: b2f11743f52dde65f77d1302becd7929
     Pseudo is Ultrasoft + core correction, Zval = 11.0
     Generated by new atomic code, or converted to UPF format
     Using radial grid of  907 points,  6 beta functions with: 
                l(1) =   0
                l(2) =   0
                l(3) =   1
                l(4) =   1
                l(5) =   2
                l(6) =   2
     Q(r) pseudized with  6 coefficients,  rinner =    1.200   1.200   1.200
                                                       1.200   1.200

     PseudoPot. # 4 for O  read from file:
     /home/mcurnan/dft-course/Project1/example_LaCoO3/O.pbe-rrkjus.UPF
     MD5 check sum: 390ba29e75625707450f3bd3f0eb6be9
     Pseudo is Ultrasoft, Zval =  6.0
     Generated by new atomic code, or converted to UPF format
     Using radial grid of 1269 points,  4 beta functions with: 
                l(1) =   0
                l(2) =   0
                l(3) =   1
                l(4) =   1
     Q(r) pseudized with 0 coefficients 


     atomic species   valence    mass     pseudopotential
        Co1            9.00     1.00000     Co( 1.00)
        Co2            9.00     1.00000     Co( 1.00)
        La1           11.00     1.00000     La( 1.00)
        O1             6.00     1.00000     O ( 1.00)
 -----
     simplified LDA+U calculation, Hubbard_lmax = 2
     atomic species  L   Hubbard U  Hubbard alpha
        Co1          2    4.000000    0.050000
        Co2          2    4.000000    0.000000
        La1          2    0.000000    0.000000
        O1           1    0.000000    0.000000
 -----

      6 Sym. Ops., with inversion, found


                                    s                        frac. trans.

      isym =  1     identity                                     

 cryst.   s( 1) = (     1          0          0      )
                  (     0          1          0      )
                  (     0          0          1      )

 cart.    s( 1) = (  1.0000000  0.0000000  0.0000000 )
                  (  0.0000000  1.0000000  0.0000000 )
                  (  0.0000000  0.0000000  1.0000000 )


      isym =  2     120 deg rotation - cryst. axis [0,0,1]       

 cryst.   s( 2) = (     0          1          0      )
                  (     0          0          1      )
                  (     1          0          0      )

 cart.    s( 2) = ( -0.5000000 -0.8660254  0.0000000 )
                  (  0.8660254 -0.5000000  0.0000000 )
                  (  0.0000000  0.0000000  1.0000000 )


      isym =  3     120 deg rotation - cryst. axis [0,0,-1]      

 cryst.   s( 3) = (     0          0          1      )
                  (     1          0          0      )
                  (     0          1          0      )

 cart.    s( 3) = ( -0.5000000  0.8660254  0.0000000 )
                  ( -0.8660254 -0.5000000  0.0000000 )
                  (  0.0000000  0.0000000  1.0000000 )


      isym =  4     inversion                                    

 cryst.   s( 4) = (    -1          0          0      )
                  (     0         -1          0      )
                  (     0          0         -1      )

 cart.    s( 4) = ( -1.0000000  0.0000000  0.0000000 )
                  (  0.0000000 -1.0000000  0.0000000 )
                  (  0.0000000  0.0000000 -1.0000000 )


      isym =  5     inv. 180 deg rotation - cart. axis [0,1,0]   

 cryst.   s( 5) = (     0         -1          0      )
                  (     0          0         -1      )
                  (    -1          0          0      )

 cart.    s( 5) = (  0.5000000  0.8660254  0.0000000 )
                  ( -0.8660254  0.5000000  0.0000000 )
                  (  0.0000000  0.0000000 -1.0000000 )


      isym =  6     inv. 180 deg rotation - cart. axis [1,0,0]   

 cryst.   s( 6) = (     0          0         -1      )
                  (    -1          0          0      )
                  (     0         -1          0      )

 cart.    s( 6) = (  0.5000000 -0.8660254  0.0000000 )
                  (  0.8660254  0.5000000  0.0000000 )
                  (  0.0000000  0.0000000 -1.0000000 )


     point group S_6 (-3)   
     there are  6 classes
     the character table:

       E     C3    C3^2  i     S6^5  S6   
A_g    1.00  1.00  1.00  1.00  1.00  1.00
E_g    1.00 -0.50 -0.50  1.00 -0.50 -0.50
E_g*   1.00 -0.50 -0.50  1.00 -0.50 -0.50
A_u    1.00  1.00  1.00 -1.00 -1.00 -1.00
E_u    1.00 -0.50 -0.50 -1.00  0.50  0.50
E_u*   1.00 -0.50 -0.50 -1.00  0.50  0.50
     imaginary part
A_g    0.00  0.00  0.00  0.00  0.00  0.00
E_g    0.00  0.87 -0.87  0.00  0.87 -0.87
E_g*   0.00 -0.87  0.87  0.00 -0.87  0.87
A_u    0.00  0.00  0.00  0.00  0.00  0.00
E_u    0.00  0.87 -0.87  0.00 -0.87  0.87
E_u*   0.00 -0.87  0.87  0.00  0.87 -0.87

     the symmetry operations in each class:
     E        1
     C3       2
     C3^2     3
     i        4
     S6^5     5
     S6       6

   Cartesian axes

     site n.     atom                  positions (alat units)
         1           Co1 tau(   1) = (   0.0000000   0.0000000   0.0000000  )
         2           Co2 tau(   2) = (   0.0000000   0.0000000   1.2174358  )
         3           La1 tau(   3) = (   0.0000000   0.0000000   0.6087179  )
         4           La1 tau(   4) = (   0.0000000   0.0000000   1.8261537  )
         5           O1  tau(   5) = (  -0.2839701  -0.0933228   1.0141240  )
         6           O1  tau(   6) = (   0.0611651   0.2925867   1.0141240  )
         7           O1  tau(   7) = (   0.2228050  -0.1992639   1.0141240  )
         8           O1  tau(   8) = (  -0.0611651  -0.2925867   1.4207476  )
         9           O1  tau(   9) = (   0.2839701   0.0933228   1.4207476  )
        10           O1  tau(  10) = (  -0.2228050   0.1992639   1.4207476  )

   Crystallographic axes

     site n.     atom                  positions (cryst. coord.)
         1           Co1 tau(   1) = (  0.0000000  0.0000000  0.0000000  )
         2           Co2 tau(   2) = (  0.5000000  0.5000000  0.5000000  )
         3           La1 tau(   3) = (  0.2500000  0.2500000  0.2500000  )
         4           La1 tau(   4) = (  0.7500000  0.7500000  0.7500000  )
         5           O1  tau(   5) = (  0.1891000  0.3100000  0.7504000  )
         6           O1  tau(   6) = (  0.3100000  0.7504000  0.1891000  )
         7           O1  tau(   7) = (  0.7504000  0.1891000  0.3100000  )
         8           O1  tau(   8) = (  0.6900000  0.2496000  0.8109000  )
         9           O1  tau(   9) = (  0.8109000  0.6900000  0.2496000  )
        10           O1  tau(  10) = (  0.2496000  0.8109000  0.6900000  )

     number of k points=    14  gaussian smearing, width (Ry)=  0.0300
                       cart. coord. in units 2pi/alat
        k(    1) = (   0.0000000   0.0000000   0.0000000), wk =   0.0312500
        k(    2) = (  -0.2470771  -0.1426500   0.1026748), wk =   0.1875000
        k(    3) = (   0.4941541   0.2853000  -0.2053496), wk =   0.0937500
        k(    4) = (  -0.2470771   0.1426500   0.2053496), wk =   0.1875000
        k(    5) = (   0.4941541   0.5706001  -0.1026748), wk =   0.1875000
        k(    6) = (   0.2470771   0.4279500   0.0000000), wk =   0.1875000
        k(    7) = (   0.4941541  -0.2853000  -0.4106993), wk =   0.0937500
        k(    8) = (   0.0000000   0.0000000   0.3080244), wk =   0.0625000
        k(    9) = (   0.7412312   0.4279500   0.0000000), wk =   0.1875000
        k(   10) = (   0.4941541   0.2853000   0.1026748), wk =   0.1875000
        k(   11) = (   0.7412312  -0.4279500  -0.3080244), wk =   0.1875000
        k(   12) = (   0.4941541  -0.5706001  -0.2053496), wk =   0.1875000
        k(   13) = (   0.0000000   0.0000000  -0.6160489), wk =   0.0312500
        k(   14) = (   0.4941541  -0.5706001   0.1026748), wk =   0.1875000

                       cryst. coord.
        k(    1) = (   0.0000000   0.0000000   0.0000000), wk =   0.0312500
        k(    2) = (   0.0000000   0.0000000   0.2500000), wk =   0.1875000
        k(    3) = (   0.0000000   0.0000000  -0.5000000), wk =   0.0937500
        k(    4) = (   0.0000000   0.2500000   0.2500000), wk =   0.1875000
        k(    5) = (   0.0000000   0.2500000  -0.5000000), wk =   0.1875000
        k(    6) = (   0.0000000   0.2500000  -0.2500000), wk =   0.1875000
        k(    7) = (   0.0000000  -0.5000000  -0.5000000), wk =   0.0937500
        k(    8) = (   0.2500000   0.2500000   0.2500000), wk =   0.0625000
        k(    9) = (   0.2500000   0.2500000  -0.5000000), wk =   0.1875000
        k(   10) = (   0.2500000   0.2500000  -0.2500000), wk =   0.1875000
        k(   11) = (   0.2500000  -0.5000000  -0.5000000), wk =   0.1875000
        k(   12) = (   0.2500000  -0.5000000  -0.2500000), wk =   0.1875000
        k(   13) = (  -0.5000000  -0.5000000  -0.5000000), wk =   0.0312500
        k(   14) = (   0.5000000  -0.2500000   0.0000000), wk =   0.1875000

     Dense  grid:    69617 G-vectors     FFT dimensions: (  60,  60,  60)

     Smooth grid:    17573 G-vectors     FFT dimensions: (  40,  40,  40)

     Largest allocated arrays     est. size (Mb)     dimensions
        Kohn-Sham Wavefunctions         0.78 Mb     (   1117,   46)
        Atomic wavefunctions            1.06 Mb     (   1117,   62)
        NL pseudopotentials             2.05 Mb     (   1117,  120)
        Each V/rho on FFT grid          1.65 Mb     ( 108000)
        Each G-vector array             0.27 Mb     (  34808)
        G-vector shells                 0.04 Mb     (   4682)
     Largest temporary arrays     est. size (Mb)     dimensions
        Auxiliary wavefunctions         3.14 Mb     (   1117,  184)
        Each subspace H/S matrix        0.52 Mb     ( 184, 184)
        Each <psi_i|beta_j> matrix      0.08 Mb     (    120,   46)
        Arrays for rho mixing          13.18 Mb     ( 108000,   8)

     Check: negative/imaginary core charge=   -0.000028    0.000000

     The initial density is read from file :
     /home/mcurnan/dft-course/Project1/example_LaCoO3/400/Co/alpha/CoLaO_U400.save/charge-density.dat

 --- in v_hubbard ---
Hubbard energy    0.4122
 -------
     Number of +U iterations with fixed ns =  0
     Starting occupations:
 --- enter write_ns ---
 LDA+U parameters:
U( 1)     =  4.00000000
alpha( 1) =  0.05000000
U( 2)     =  4.00000000
alpha( 2) =  0.00000000
U( 3)     =  0.00000000
alpha( 3) =  0.00000000
U( 4)     =  0.00000000
alpha( 4) =  0.00000000
atom    1   Tr[ns(na)] =   8.02206
    eigenvalues: 
  0.596  0.596  0.938  0.941  0.941
    eigenvectors:
  0.000  0.000  1.000  0.000  0.000
  0.333  0.322  0.000  0.004  0.341
  0.322  0.333  0.000  0.341  0.004
  0.289  0.056  0.000  0.515  0.140
  0.056  0.289  0.000  0.140  0.515
    occupations:
  0.938  0.000  0.000  0.000  0.000
  0.000  0.715  0.000 -0.060  0.152
  0.000  0.000  0.715  0.152  0.060
  0.000 -0.060  0.152  0.822  0.000
  0.000  0.152  0.060  0.000  0.822
atom    2   Tr[ns(na)] =   8.02145
    eigenvalues: 
  0.595  0.595  0.938  0.941  0.941
    eigenvectors:
  0.000  0.000  1.000  0.000  0.000
  0.640  0.015  0.000  0.223  0.122
  0.015  0.640  0.000  0.122  0.223
  0.017  0.329  0.000  0.470  0.185
  0.329  0.017  0.000  0.185  0.470
    occupations:
  0.938  0.000  0.000  0.000  0.000
  0.000  0.715  0.000  0.060  0.153
  0.000  0.000  0.715  0.153 -0.060
  0.000  0.060  0.153  0.822  0.000
  0.000  0.153 -0.060  0.000  0.822
atom    3   Tr[ns(na)] =   3.80284
    eigenvalues: 
  0.355  0.355  0.384  0.403  0.403
    eigenvectors:
  0.000  0.000  1.000  0.000  0.000
  0.781  0.139  0.000  0.012  0.068
  0.139  0.781  0.000  0.068  0.012
  0.013  0.067  0.000  0.780  0.141
  0.067  0.013  0.000  0.141  0.780
    occupations:
  0.384  0.000  0.000  0.000  0.000
  0.000  0.359  0.000  0.000  0.013
  0.000  0.000  0.359  0.013  0.000
  0.000  0.000  0.013  0.399  0.000
  0.000  0.013  0.000  0.000  0.399
atom    4   Tr[ns(na)] =   3.80284
    eigenvalues: 
  0.355  0.355  0.384  0.403  0.403
    eigenvectors:
  0.000  0.000  1.000  0.000  0.000
  0.782  0.139  0.000  0.012  0.068
  0.139  0.782  0.000  0.068  0.012
  0.012  0.067  0.000  0.780  0.141
  0.067  0.012  0.000  0.141  0.780
    occupations:
  0.384  0.000  0.000  0.000  0.000
  0.000  0.359  0.000  0.000  0.013
  0.000  0.000  0.359  0.013  0.000
  0.000  0.000  0.013  0.399  0.000
  0.000  0.013  0.000  0.000  0.399
atom    5   Tr[ns(na)] =   5.43357
    eigenvalues: 
  0.846  0.929  0.941
    eigenvectors:
  0.340  0.000  0.660
  0.494  0.250  0.256
  0.166  0.750  0.085
    occupations:
  0.909  0.039  0.022
  0.039  0.891 -0.022
  0.022 -0.022  0.917
atom    6   Tr[ns(na)] =   5.43357
    eigenvalues: 
  0.846  0.929  0.941
    eigenvectors:
  0.340  0.000  0.660
  0.000  1.000  0.000
  0.660  0.000  0.340
    occupations:
  0.909  0.000 -0.045
  0.000  0.929  0.000
 -0.045  0.000  0.879
atom    7   Tr[ns(na)] =   5.43357
    eigenvalues: 
  0.846  0.929  0.941
    eigenvectors:
  0.340  0.000  0.660
  0.496  0.250  0.255
  0.164  0.750  0.086
    occupations:
  0.909 -0.039  0.022
 -0.039  0.891  0.022
  0.022  0.022  0.917
atom    8   Tr[ns(na)] =   5.43357
    eigenvalues: 
  0.846  0.929  0.941
    eigenvectors:
  0.340  0.000  0.660
  0.000  1.000  0.000
  0.660  0.000  0.340
    occupations:
  0.909  0.000 -0.045
  0.000  0.929  0.000
 -0.045  0.000  0.879
atom    9   Tr[ns(na)] =   5.43357
    eigenvalues: 
  0.846  0.929  0.941
    eigenvectors:
  0.340  0.000  0.660
  0.494  0.250  0.256
  0.166  0.750  0.085
    occupations:
  0.909  0.039  0.022
  0.039  0.891 -0.022
  0.022 -0.022  0.917
atom   10   Tr[ns(na)] =   5.43357
    eigenvalues: 
  0.846  0.929  0.941
    eigenvectors:
  0.340  0.000  0.660
  0.496  0.250  0.255
  0.164  0.750  0.086
    occupations:
  0.909 -0.039  0.022
 -0.039  0.891  0.022
  0.022  0.022  0.917
N of occupied +U levels =  56.2506062
 --- exit write_ns ---
 LDA+U Projector read from file 
     Starting wfc from file

     total cpu time spent up to now is        8.5 secs

     per-process dynamical memory:    46.9 Mb

     Self-consistent Calculation

     iteration #  1     ecut=    30.00 Ry     beta=0.20
     Davidson diagonalization with overlap
     c_bands:  1 eigenvalues not converged
     c_bands:  1 eigenvalues not converged
     c_bands:  1 eigenvalues not converged
     c_bands:  1 eigenvalues not converged
     c_bands:  1 eigenvalues not converged
     ethr =  1.00E-10,  avg # of iterations = 16.4
 --- enter write_ns ---
 LDA+U parameters:
U( 1)     =  4.00000000
alpha( 1) =  0.05000000
U( 2)     =  4.00000000
alpha( 2) =  0.00000000
U( 3)     =  0.00000000
alpha( 3) =  0.00000000
U( 4)     =  0.00000000
alpha( 4) =  0.00000000
atom    1   Tr[ns(na)] =   8.16691
    eigenvalues: 
  0.559  0.559  0.987  0.987  0.990
    eigenvectors:
  0.000  0.000  0.000  0.000  1.000
  0.329  0.325  0.005  0.341  0.000
  0.325  0.329  0.341  0.005  0.000
  0.288  0.058  0.513  0.141  0.000
  0.058  0.288  0.141  0.513  0.000
    occupations:
  0.990  0.000  0.000  0.000  0.000
  0.000  0.707  0.000 -0.073  0.190
  0.000  0.000  0.707  0.190  0.073
  0.000 -0.073  0.190  0.839  0.000
  0.000  0.190  0.073  0.000  0.839
atom    2   Tr[ns(na)] =   8.18176
    eigenvalues: 
  0.561  0.561  0.988  0.988  0.991
    eigenvectors:
  0.000  0.000  0.000  0.000  1.000
  0.636  0.019  0.221  0.124  0.000
  0.019  0.636  0.124  0.221  0.000
  0.013  0.333  0.469  0.185  0.000
  0.333  0.013  0.185  0.469  0.000
    occupations:
  0.991  0.000  0.000  0.000  0.000
  0.000  0.709  0.000  0.073  0.190
  0.000  0.000  0.709  0.190 -0.073
  0.000  0.073  0.190  0.841  0.000
  0.000  0.190 -0.073  0.000  0.841
atom    3   Tr[ns(na)] =   3.79411
    eigenvalues: 
  0.356  0.356  0.382  0.402  0.402
    eigenvectors:
  0.000  0.000  1.000  0.000  0.000
  0.777  0.140  0.000  0.012  0.070
  0.140  0.777  0.000  0.070  0.012
  0.013  0.069  0.000  0.776  0.142
  0.069  0.013  0.000  0.142  0.776
    occupations:
  0.382  0.000  0.000  0.000  0.000
  0.000  0.360  0.000  0.000  0.013
  0.000  0.000  0.360  0.013  0.000
  0.000  0.000  0.013  0.398  0.000
  0.000  0.013  0.000  0.000  0.398
atom    4   Tr[ns(na)] =   3.79411
    eigenvalues: 
  0.356  0.356  0.382  0.402  0.402
    eigenvectors:
  0.000  0.000  1.000  0.000  0.000
  0.777  0.141  0.000  0.012  0.070
  0.141  0.777  0.000  0.070  0.012
  0.013  0.069  0.000  0.776  0.142
  0.069  0.013  0.000  0.142  0.776
    occupations:
  0.382  0.000  0.000  0.000  0.000
  0.000  0.360  0.000  0.000  0.013
  0.000  0.000  0.360  0.013  0.000
  0.000  0.000  0.013  0.398  0.000
  0.000  0.013  0.000  0.000  0.398
atom    5   Tr[ns(na)] =   5.39672
    eigenvalues: 
  0.829  0.925  0.944
    eigenvectors:
  0.341  0.000  0.659
  0.496  0.247  0.256
  0.163  0.753  0.084
    occupations:
  0.905  0.047  0.027
  0.047  0.882 -0.024
  0.027 -0.024  0.911
atom    6   Tr[ns(na)] =   5.39672
    eigenvalues: 
  0.829  0.925  0.944
    eigenvectors:
  0.341  0.000  0.659
  0.000  1.000  0.000
  0.659  0.000  0.341
    occupations:
  0.905  0.000 -0.055
  0.000  0.925  0.000
 -0.055  0.000  0.868
atom    7   Tr[ns(na)] =   5.39672
    eigenvalues: 
  0.829  0.925  0.944
    eigenvectors:
  0.341  0.000  0.659
  0.493  0.253  0.255
  0.167  0.747  0.086
    occupations:
  0.905 -0.047  0.027
 -0.047  0.883  0.025
  0.027  0.025  0.911
atom    8   Tr[ns(na)] =   5.39672
    eigenvalues: 
  0.829  0.925  0.944
    eigenvectors:
  0.341  0.000  0.659
  0.000  1.000  0.000
  0.659  0.000  0.341
    occupations:
  0.905  0.000 -0.055
  0.000  0.925  0.000
 -0.055  0.000  0.868
atom    9   Tr[ns(na)] =   5.39672
    eigenvalues: 
  0.829  0.925  0.944
    eigenvectors:
  0.341  0.000  0.659
  0.496  0.247  0.256
  0.163  0.753  0.084
    occupations:
  0.905  0.047  0.027
  0.047  0.882 -0.024
  0.027 -0.024  0.911
atom   10   Tr[ns(na)] =   5.39672
    eigenvalues: 
  0.829  0.925  0.944
    eigenvectors:
  0.341  0.000  0.659
  0.493  0.253  0.255
  0.167  0.747  0.086
    occupations:
  0.905 -0.047  0.027
 -0.047  0.883  0.025
  0.027  0.025  0.911
N of occupied +U levels =  56.3171961
 --- exit write_ns ---
 --- in v_hubbard ---
Hubbard energy    0.3986
 -------

     total cpu time spent up to now is       46.1 secs

     total energy              =    -537.95804788 Ry
     Harris-Foulkes estimate   =    -537.96383294 Ry
     estimated scf accuracy    <       0.03357599 Ry

     iteration #  2     ecut=    30.00 Ry     beta=0.20
     Davidson diagonalization with overlap
     ethr =  4.42E-05,  avg # of iterations =  1.4
 --- enter write_ns ---
 LDA+U parameters:
U( 1)     =  4.00000000
alpha( 1) =  0.05000000
U( 2)     =  4.00000000
alpha( 2) =  0.00000000
U( 3)     =  0.00000000
alpha( 3) =  0.00000000
U( 4)     =  0.00000000
alpha( 4) =  0.00000000
atom    1   Tr[ns(na)] =   8.03439
    eigenvalues: 
  0.524  0.524  0.989  0.989  0.992
    eigenvectors:
  0.000  0.000  0.000  0.000  1.000
  0.332  0.323  0.004  0.341  0.000
  0.323  0.332  0.341  0.004  0.000
  0.288  0.056  0.515  0.140  0.000
  0.056  0.288  0.140  0.515  0.000
    occupations:
  0.992  0.000  0.000  0.000  0.000
  0.000  0.684  0.000 -0.081  0.206
  0.000  0.000  0.684  0.206  0.081
  0.000 -0.081  0.206  0.829  0.000
  0.000  0.206  0.081  0.000  0.829
atom    2   Tr[ns(na)] =   8.02230
    eigenvalues: 
  0.520  0.520  0.989  0.989  0.992
    eigenvectors:
  0.000  0.000  0.000  0.000  1.000
  0.638  0.017  0.222  0.122  0.000
  0.017  0.638  0.122  0.222  0.000
  0.015  0.330  0.470  0.185  0.000
  0.330  0.015  0.185  0.470  0.000
    occupations:
  0.992  0.000  0.000  0.000  0.000
  0.000  0.682  0.000  0.081  0.208
  0.000  0.000  0.682  0.208 -0.081
  0.000  0.081  0.208  0.828  0.000
  0.000  0.208 -0.081  0.000  0.828
atom    3   Tr[ns(na)] =   3.79088
    eigenvalues: 
  0.355  0.355  0.381  0.402  0.402
    eigenvectors:
  0.000  0.000  1.000  0.000  0.000
  0.780  0.140  0.000  0.012  0.068
  0.140  0.780  0.000  0.068  0.012
  0.013  0.067  0.000  0.779  0.141
  0.067  0.013  0.000  0.141  0.779
    occupations:
  0.381  0.000  0.000  0.000  0.000
  0.000  0.359  0.000  0.000  0.013
  0.000  0.000  0.359  0.013  0.000
  0.000  0.000  0.013  0.398  0.000
  0.000  0.013  0.000  0.000  0.398
atom    4   Tr[ns(na)] =   3.79088
    eigenvalues: 
  0.355  0.355  0.381  0.402  0.402
    eigenvectors:
  0.000  0.000  1.000  0.000  0.000
  0.780  0.140  0.000  0.012  0.068
  0.140  0.780  0.000  0.068  0.012
  0.013  0.067  0.000  0.779  0.141
  0.067  0.013  0.000  0.141  0.779
    occupations:
  0.381  0.000  0.000  0.000  0.000
  0.000  0.359  0.000  0.000  0.013
  0.000  0.000  0.359  0.013  0.000
  0.000  0.000  0.013  0.398  0.000
  0.000  0.013  0.000  0.000  0.398
atom    5   Tr[ns(na)] =   5.44296
    eigenvalues: 
  0.843  0.931  0.948
    eigenvectors:
  0.337  0.000  0.663
  0.497  0.250  0.253
  0.167  0.750  0.084
    occupations:
  0.912  0.043  0.025
  0.043  0.891 -0.023
  0.025 -0.023  0.918
atom    6   Tr[ns(na)] =   5.44296
    eigenvalues: 
  0.843  0.931  0.948
    eigenvectors:
  0.337  0.000  0.663
  0.000  1.000  0.000
  0.663  0.000  0.337
    occupations:
  0.912  0.000 -0.050
  0.000  0.931  0.000
 -0.050  0.000  0.878
atom    7   Tr[ns(na)] =   5.44296
    eigenvalues: 
  0.843  0.931  0.948
    eigenvectors:
  0.337  0.000  0.663
  0.498  0.250  0.252
  0.165  0.750  0.084
    occupations:
  0.912 -0.043  0.025
 -0.043  0.891  0.023
  0.025  0.023  0.918
atom    8   Tr[ns(na)] =   5.44296
    eigenvalues: 
  0.843  0.931  0.948
    eigenvectors:
  0.337  0.000  0.663
  0.000  1.000  0.000
  0.663  0.000  0.337
    occupations:
  0.912  0.000 -0.050
  0.000  0.931  0.000
 -0.050  0.000  0.878
atom    9   Tr[ns(na)] =   5.44296
    eigenvalues: 
  0.843  0.931  0.948
    eigenvectors:
  0.337  0.000  0.663
  0.497  0.250  0.253
  0.167  0.750  0.084
    occupations:
  0.912  0.043  0.025
  0.043  0.891 -0.023
  0.025 -0.023  0.918
atom   10   Tr[ns(na)] =   5.44296
    eigenvalues: 
  0.843  0.931  0.948
    eigenvectors:
  0.337  0.000  0.663
  0.498  0.250  0.252
  0.165  0.750  0.084
    occupations:
  0.912 -0.043  0.025
 -0.043  0.891  0.023
  0.025  0.023  0.918
N of occupied +U levels =  56.2961837
 --- exit write_ns ---
 --- in v_hubbard ---
Hubbard energy    0.3923
 -------

     total cpu time spent up to now is       58.9 secs

     total energy              =    -537.96406510 Ry
     Harris-Foulkes estimate   =    -537.96381302 Ry
     estimated scf accuracy    <       0.02207571 Ry

     iteration #  3     ecut=    30.00 Ry     beta=0.20
     Davidson diagonalization with overlap
     ethr =  2.90E-05,  avg # of iterations =  1.0
 --- enter write_ns ---
 LDA+U parameters:
U( 1)     =  4.00000000
alpha( 1) =  0.05000000
U( 2)     =  4.00000000
alpha( 2) =  0.00000000
U( 3)     =  0.00000000
alpha( 3) =  0.00000000
U( 4)     =  0.00000000
alpha( 4) =  0.00000000
atom    1   Tr[ns(na)] =   8.05396
    eigenvalues: 
  0.529  0.529  0.989  0.989  0.992
    eigenvectors:
  0.000  0.000  0.000  0.000  1.000
  0.333  0.323  0.004  0.340  0.000
  0.323  0.333  0.340  0.004  0.000
  0.287  0.057  0.515  0.140  0.000
  0.057  0.287  0.140  0.515  0.000
    occupations:
  0.992  0.000  0.000  0.000  0.000
  0.000  0.687  0.000 -0.080  0.204
  0.000  0.000  0.687  0.204  0.080
  0.000 -0.080  0.204  0.830  0.000
  0.000  0.204  0.080  0.000  0.830
atom    2   Tr[ns(na)] =   8.06403
    eigenvalues: 
  0.530  0.530  0.990  0.990  0.993
    eigenvectors:
  0.000  0.000  0.000  0.000  1.000
  0.638  0.018  0.222  0.122  0.000
  0.018  0.638  0.122  0.222  0.000
  0.014  0.330  0.471  0.185  0.000
  0.330  0.014  0.185  0.471  0.000
    occupations:
  0.993  0.000  0.000  0.000  0.000
  0.000  0.688  0.000  0.079  0.204
  0.000  0.000  0.688  0.204 -0.079
  0.000  0.079  0.204  0.832  0.000
  0.000  0.204 -0.079  0.000  0.832
atom    3   Tr[ns(na)] =   3.79123
    eigenvalues: 
  0.356  0.356  0.381  0.402  0.402
    eigenvectors:
  0.000  0.000  1.000  0.000  0.000
  0.781  0.139  0.000  0.012  0.068
  0.139  0.781  0.000  0.068  0.012
  0.013  0.067  0.000  0.779  0.141
  0.067  0.013  0.000  0.141  0.779
    occupations:
  0.381  0.000  0.000  0.000  0.000
  0.000  0.359  0.000  0.000  0.012
  0.000  0.000  0.359  0.012  0.000
  0.000  0.000  0.012  0.398  0.000
  0.000  0.012  0.000  0.000  0.398
atom    4   Tr[ns(na)] =   3.79123
    eigenvalues: 
  0.356  0.356  0.381  0.402  0.402
    eigenvectors:
  0.000  0.000  1.000  0.000  0.000
  0.781  0.139  0.000  0.012  0.068
  0.139  0.781  0.000  0.068  0.012
  0.013  0.067  0.000  0.779  0.141
  0.067  0.013  0.000  0.141  0.779
    occupations:
  0.381  0.000  0.000  0.000  0.000
  0.000  0.359  0.000  0.000  0.012
  0.000  0.000  0.359  0.012  0.000
  0.000  0.000  0.012  0.398  0.000
  0.000  0.012  0.000  0.000  0.398
atom    5   Tr[ns(na)] =   5.43332
    eigenvalues: 
  0.840  0.930  0.947
    eigenvectors:
  0.337  0.000  0.663
  0.499  0.248  0.254
  0.164  0.752  0.084
    occupations:
  0.911  0.044  0.025
  0.044  0.889 -0.023
  0.025 -0.023  0.917
atom    6   Tr[ns(na)] =   5.43332
    eigenvalues: 
  0.840  0.930  0.947
    eigenvectors:
  0.337  0.000  0.663
  0.000  1.000  0.000
  0.663  0.000  0.337
    occupations:
  0.911  0.000 -0.051
  0.000  0.930  0.000
 -0.051  0.000  0.876
atom    7   Tr[ns(na)] =   5.43332
    eigenvalues: 
  0.840  0.930  0.947
    eigenvectors:
  0.337  0.000  0.663
  0.495  0.252  0.252
  0.167  0.748  0.085
    occupations:
  0.911 -0.044  0.026
 -0.044  0.890  0.023
  0.026  0.023  0.916
atom    8   Tr[ns(na)] =   5.43332
    eigenvalues: 
  0.840  0.930  0.947
    eigenvectors:
  0.337  0.000  0.663
  0.000  1.000  0.000
  0.663  0.000  0.337
    occupations:
  0.911  0.000 -0.051
  0.000  0.930  0.000
 -0.051  0.000  0.876
atom    9   Tr[ns(na)] =   5.43332
    eigenvalues: 
  0.840  0.930  0.947
    eigenvectors:
  0.337  0.000  0.663
  0.499  0.248  0.254
  0.164  0.752  0.084
    occupations:
  0.911  0.044  0.025
  0.044  0.889 -0.023
  0.025 -0.023  0.917
atom   10   Tr[ns(na)] =   5.43332
    eigenvalues: 
  0.840  0.930  0.947
    eigenvectors:
  0.337  0.000  0.663
  0.495  0.252  0.252
  0.167  0.748  0.085
    occupations:
  0.911 -0.044  0.026
 -0.044  0.890  0.023
  0.026  0.023  0.916
N of occupied +U levels =  56.3003733
 --- exit write_ns ---
 --- in v_hubbard ---
Hubbard energy    0.3526
 -------

     total cpu time spent up to now is       72.0 secs

     total energy              =    -537.96798977 Ry
     Harris-Foulkes estimate   =    -537.96447167 Ry
     estimated scf accuracy    <       0.01143191 Ry

     iteration #  4     ecut=    30.00 Ry     beta=0.20
     Davidson diagonalization with overlap
     ethr =  1.50E-05,  avg # of iterations =  1.0
 --- enter write_ns ---
 LDA+U parameters:
U( 1)     =  4.00000000
alpha( 1) =  0.05000000
U( 2)     =  4.00000000
alpha( 2) =  0.00000000
U( 3)     =  0.00000000
alpha( 3) =  0.00000000
U( 4)     =  0.00000000
alpha( 4) =  0.00000000
atom    1   Tr[ns(na)] =   8.09551
    eigenvalues: 
  0.534  0.534  0.992  0.992  0.995
    eigenvectors:
  0.000  0.000  0.000  0.000  1.000
  0.337  0.321  0.003  0.339  0.000
  0.321  0.337  0.339  0.003  0.000
  0.286  0.056  0.519  0.139  0.000
  0.056  0.286  0.139  0.519  0.000
    occupations:
  0.995  0.000  0.000  0.000  0.000
  0.000  0.691  0.000 -0.081  0.202
  0.000  0.000  0.691  0.202  0.081
  0.000 -0.081  0.202  0.836  0.000
  0.000  0.202  0.081  0.000  0.836
atom    2   Tr[ns(na)] =   8.02986
    eigenvalues: 
  0.520  0.520  0.991  0.991  0.993
    eigenvectors:
  0.000  0.000  0.000  0.000  1.000
  0.638  0.020  0.219  0.122  0.000
  0.020  0.638  0.122  0.219  0.000
  0.013  0.329  0.473  0.185  0.000
  0.329  0.013  0.185  0.473  0.000
    occupations:
  0.993  0.000  0.000  0.000  0.000
  0.000  0.681  0.000  0.081  0.208
  0.000  0.000  0.681  0.208 -0.081
  0.000  0.081  0.208  0.830  0.000
  0.000  0.208 -0.081  0.000  0.830
atom    3   Tr[ns(na)] =   3.79549
    eigenvalues: 
  0.356  0.356  0.382  0.402  0.402
    eigenvectors:
  0.000  0.000  1.000  0.000  0.000
  0.783  0.139  0.000  0.011  0.067
  0.139  0.783  0.000  0.067  0.011
  0.012  0.066  0.000  0.781  0.141
  0.066  0.012  0.000  0.141  0.781
    occupations:
  0.382  0.000  0.000  0.000  0.000
  0.000  0.360  0.000  0.000  0.012
  0.000  0.000  0.360  0.012  0.000
  0.000  0.000  0.012  0.398  0.000
  0.000  0.012  0.000  0.000  0.398
atom    4   Tr[ns(na)] =   3.79549
    eigenvalues: 
  0.356  0.356  0.382  0.402  0.402
    eigenvectors:
  0.000  0.000  1.000  0.000  0.000
  0.783  0.139  0.000  0.011  0.067
  0.139  0.783  0.000  0.067  0.011
  0.012  0.066  0.000  0.781  0.141
  0.066  0.012  0.000  0.141  0.781
    occupations:
  0.382  0.000  0.000  0.000  0.000
  0.000  0.360  0.000  0.000  0.012
  0.000  0.000  0.360  0.012  0.000
  0.000  0.000  0.012  0.398  0.000
  0.000  0.012  0.000  0.000  0.398
atom    5   Tr[ns(na)] =   5.42973
    eigenvalues: 
  0.838  0.930  0.947
    eigenvectors:
  0.337  0.000  0.663
  0.491  0.257  0.252
  0.172  0.743  0.085
    occupations:
  0.910  0.044  0.026
  0.044  0.889 -0.024
  0.026 -0.024  0.915
atom    6   Tr[ns(na)] =   5.42973
    eigenvalues: 
  0.838  0.930  0.947
    eigenvectors:
  0.337  0.000  0.663
  0.000  1.000  0.000
  0.663  0.000  0.337
    occupations:
  0.910  0.001 -0.051
  0.001  0.930  0.001
 -0.051  0.001  0.875
atom    7   Tr[ns(na)] =   5.42973
    eigenvalues: 
  0.838  0.930  0.947
    eigenvectors:
  0.337  0.000  0.663
  0.503  0.243  0.254
  0.159  0.757  0.084
    occupations:
  0.910 -0.045  0.025
 -0.045  0.888  0.023
  0.025  0.023  0.916
atom    8   Tr[ns(na)] =   5.42973
    eigenvalues: 
  0.838  0.930  0.947
    eigenvectors:
  0.337  0.000  0.663
  0.000  1.000  0.000
  0.663  0.000  0.337
    occupations:
  0.910  0.001 -0.051
  0.001  0.930  0.001
 -0.051  0.001  0.875
atom    9   Tr[ns(na)] =   5.42973
    eigenvalues: 
  0.838  0.930  0.947
    eigenvectors:
  0.337  0.000  0.663
  0.491  0.257  0.252
  0.172  0.743  0.085
    occupations:
  0.910  0.044  0.026
  0.044  0.889 -0.024
  0.026 -0.024  0.915
atom   10   Tr[ns(na)] =   5.42973
    eigenvalues: 
  0.838  0.930  0.947
    eigenvectors:
  0.337  0.000  0.663
  0.503  0.243  0.254
  0.159  0.757  0.084
    occupations:
  0.910 -0.045  0.025
 -0.045  0.888  0.023
  0.025  0.023  0.916
N of occupied +U levels =  56.2947344
 --- exit write_ns ---
 --- in v_hubbard ---
Hubbard energy    0.3340
 -------

     total cpu time spent up to now is       84.8 secs

     total energy              =    -537.96844687 Ry
     Harris-Foulkes estimate   =    -537.96869531 Ry
     estimated scf accuracy    <       0.00416001 Ry

     iteration #  5     ecut=    30.00 Ry     beta=0.20
     Davidson diagonalization with overlap
     ethr =  5.47E-06,  avg # of iterations =  1.0
 --- enter write_ns ---
 LDA+U parameters:
U( 1)     =  4.00000000
alpha( 1) =  0.05000000
U( 2)     =  4.00000000
alpha( 2) =  0.00000000
U( 3)     =  0.00000000
alpha( 3) =  0.00000000
U( 4)     =  0.00000000
alpha( 4) =  0.00000000
atom    1   Tr[ns(na)] =   8.05447
    eigenvalues: 
  0.524  0.524  0.992  0.992  0.995
    eigenvectors:
  0.000  0.000  0.000  0.000  1.000
  0.337  0.321  0.003  0.338  0.000
  0.321  0.337  0.338  0.003  0.000
  0.285  0.057  0.519  0.140  0.000
  0.057  0.285  0.140  0.519  0.000
    occupations:
  0.995  0.000  0.000  0.000  0.000
  0.000  0.684  0.000 -0.082  0.206
  0.000  0.000  0.684  0.206  0.082
  0.000 -0.082  0.206  0.832  0.000
  0.000  0.206  0.082  0.000  0.832
atom    2   Tr[ns(na)] =   8.05777
    eigenvalues: 
  0.524  0.524  0.992  0.992  0.995
    eigenvectors:
  0.000  0.000  0.000  0.000  1.000
  0.640  0.019  0.220  0.121  0.000
  0.019  0.640  0.121  0.220  0.000
  0.014  0.327  0.475  0.184  0.000
  0.327  0.014  0.184  0.475  0.000
    occupations:
  0.995  0.000  0.000  0.000  0.000
  0.000  0.684  0.000  0.082  0.206
  0.000  0.000  0.684  0.206 -0.082
  0.000  0.082  0.206  0.833  0.000
  0.000  0.206 -0.082  0.000  0.833
atom    3   Tr[ns(na)] =   3.79727
    eigenvalues: 
  0.356  0.356  0.382  0.402  0.402
    eigenvectors:
  0.000  0.000  1.000  0.000  0.000
  0.783  0.139  0.000  0.011  0.067
  0.139  0.783  0.000  0.067  0.011
  0.012  0.066  0.000  0.781  0.141
  0.066  0.012  0.000  0.141  0.781
    occupations:
  0.382  0.000  0.000  0.000  0.000
  0.000  0.360  0.000  0.000  0.012
  0.000  0.000  0.360  0.012  0.000
  0.000  0.000  0.012  0.398  0.000
  0.000  0.012  0.000  0.000  0.398
atom    4   Tr[ns(na)] =   3.79727
    eigenvalues: 
  0.356  0.356  0.382  0.402  0.402
    eigenvectors:
  0.000  0.000  1.000  0.000  0.000
  0.783  0.139  0.000  0.011  0.067
  0.139  0.783  0.000  0.067  0.011
  0.012  0.066  0.000  0.781  0.141
  0.066  0.012  0.000  0.141  0.781
    occupations:
  0.382  0.000  0.000  0.000  0.000
  0.000  0.360  0.000  0.000  0.012
  0.000  0.000  0.360  0.012  0.000
  0.000  0.000  0.012  0.398  0.000
  0.000  0.012  0.000  0.000  0.398
atom    5   Tr[ns(na)] =   5.43069
    eigenvalues: 
  0.839  0.930  0.947
    eigenvectors:
  0.337  0.000  0.663
  0.498  0.248  0.253
  0.165  0.752  0.084
    occupations:
  0.910  0.044  0.025
  0.044  0.889 -0.024
  0.025 -0.024  0.916
atom    6   Tr[ns(na)] =   5.43069
    eigenvalues: 
  0.839  0.930  0.947
    eigenvectors:
  0.337  0.000  0.663
  0.000  1.000  0.000
  0.663  0.000  0.337
    occupations:
  0.910  0.000 -0.051
  0.000  0.930  0.000
 -0.051  0.000  0.875
atom    7   Tr[ns(na)] =   5.43069
    eigenvalues: 
  0.839  0.930  0.947
    eigenvectors:
  0.337  0.000  0.663
  0.496  0.252  0.252
  0.167  0.748  0.085
    occupations:
  0.910 -0.044  0.026
 -0.044  0.889  0.024
  0.026  0.024  0.916
atom    8   Tr[ns(na)] =   5.43069
    eigenvalues: 
  0.839  0.930  0.947
    eigenvectors:
  0.337  0.000  0.663
  0.000  1.000  0.000
  0.663  0.000  0.337
    occupations:
  0.910  0.000 -0.051
  0.000  0.930  0.000
 -0.051  0.000  0.875
atom    9   Tr[ns(na)] =   5.43069
    eigenvalues: 
  0.839  0.930  0.947
    eigenvectors:
  0.337  0.000  0.663
  0.498  0.248  0.253
  0.165  0.752  0.084
    occupations:
  0.910  0.044  0.025
  0.044  0.889 -0.024
  0.025 -0.024  0.916
atom   10   Tr[ns(na)] =   5.43069
    eigenvalues: 
  0.839  0.930  0.947
    eigenvectors:
  0.337  0.000  0.663
  0.496  0.252  0.252
  0.167  0.748  0.085
    occupations:
  0.910 -0.044  0.026
 -0.044  0.889  0.024
  0.026  0.024  0.916
N of occupied +U levels =  56.2909095
 --- exit write_ns ---
 --- in v_hubbard ---
Hubbard energy    0.3335
 -------

     total cpu time spent up to now is       98.2 secs

     total energy              =    -537.96886094 Ry
     Harris-Foulkes estimate   =    -537.96878261 Ry
     estimated scf accuracy    <       0.00018130 Ry

     iteration #  6     ecut=    30.00 Ry     beta=0.20
     Davidson diagonalization with overlap
     ethr =  2.39E-07,  avg # of iterations =  2.1
 --- enter write_ns ---
 LDA+U parameters:
U( 1)     =  4.00000000
alpha( 1) =  0.05000000
U( 2)     =  4.00000000
alpha( 2) =  0.00000000
U( 3)     =  0.00000000
alpha( 3) =  0.00000000
U( 4)     =  0.00000000
alpha( 4) =  0.00000000
atom    1   Tr[ns(na)] =   8.04646
    eigenvalues: 
  0.522  0.522  0.992  0.992  0.995
    eigenvectors:
  0.000  0.000  0.000  0.000  1.000
  0.338  0.321  0.003  0.338  0.000
  0.321  0.338  0.338  0.003  0.000
  0.285  0.057  0.519  0.140  0.000
  0.057  0.285  0.140  0.519  0.000
    occupations:
  0.995  0.000  0.000  0.000  0.000
  0.000  0.683  0.000 -0.082  0.207
  0.000  0.000  0.683  0.207  0.082
  0.000 -0.082  0.207  0.832  0.000
  0.000  0.207  0.082  0.000  0.832
atom    2   Tr[ns(na)] =   8.04990
    eigenvalues: 
  0.522  0.522  0.993  0.993  0.995
    eigenvectors:
  0.000  0.000  0.000  0.000  1.000
  0.640  0.019  0.221  0.121  0.000
  0.019  0.640  0.121  0.221  0.000
  0.014  0.327  0.474  0.184  0.000
  0.327  0.014  0.184  0.474  0.000
    occupations:
  0.995  0.000  0.000  0.000  0.000
  0.000  0.683  0.000  0.082  0.207
  0.000  0.000  0.683  0.207 -0.082
  0.000  0.082  0.207  0.832  0.000
  0.000  0.207 -0.082  0.000  0.832
atom    3   Tr[ns(na)] =   3.79590
    eigenvalues: 
  0.356  0.356  0.382  0.402  0.402
    eigenvectors:
  0.000  0.000  1.000  0.000  0.000
  0.783  0.138  0.000  0.011  0.067
  0.138  0.783  0.000  0.067  0.011
  0.012  0.066  0.000  0.781  0.141
  0.066  0.012  0.000  0.141  0.781
    occupations:
  0.382  0.000  0.000  0.000  0.000
  0.000  0.360  0.000  0.000  0.012
  0.000  0.000  0.360  0.012  0.000
  0.000  0.000  0.012  0.398  0.000
  0.000  0.012  0.000  0.000  0.398
atom    4   Tr[ns(na)] =   3.79590
    eigenvalues: 
  0.356  0.356  0.382  0.402  0.402
    eigenvectors:
  0.000  0.000  1.000  0.000  0.000
  0.783  0.138  0.000  0.011  0.067
  0.138  0.783  0.000  0.067  0.011
  0.012  0.066  0.000  0.781  0.140
  0.066  0.012  0.000  0.140  0.781
    occupations:
  0.382  0.000  0.000  0.000  0.000
  0.000  0.360  0.000  0.000  0.012
  0.000  0.000  0.360  0.012  0.000
  0.000  0.000  0.012  0.398  0.000
  0.000  0.012  0.000  0.000  0.398
atom    5   Tr[ns(na)] =   5.43338
    eigenvalues: 
  0.840  0.930  0.947
    eigenvectors:
  0.337  0.000  0.663
  0.498  0.248  0.253
  0.165  0.752  0.084
    occupations:
  0.911  0.044  0.025
  0.044  0.889 -0.023
  0.025 -0.023  0.917
atom    6   Tr[ns(na)] =   5.43338
    eigenvalues: 
  0.840  0.930  0.947
    eigenvectors:
  0.337  0.000  0.663
  0.000  1.000  0.000
  0.663  0.000  0.337
    occupations:
  0.911  0.000 -0.051
  0.000  0.930  0.000
 -0.051  0.000  0.876
atom    7   Tr[ns(na)] =   5.43338
    eigenvalues: 
  0.840  0.930  0.947
    eigenvectors:
  0.337  0.000  0.663
  0.496  0.252  0.252
  0.167  0.748  0.085
    occupations:
  0.911 -0.044  0.026
 -0.044  0.889  0.024
  0.026  0.024  0.916
atom    8   Tr[ns(na)] =   5.43338
    eigenvalues: 
  0.840  0.930  0.947
    eigenvectors:
  0.337  0.000  0.663
  0.000  1.000  0.000
  0.663  0.000  0.337
    occupations:
  0.911  0.000 -0.051
  0.000  0.930  0.000
 -0.051  0.000  0.876
atom    9   Tr[ns(na)] =   5.43338
    eigenvalues: 
  0.840  0.930  0.947
    eigenvectors:
  0.337  0.000  0.663
  0.498  0.248  0.253
  0.165  0.752  0.084
    occupations:
  0.911  0.044  0.025
  0.044  0.889 -0.023
  0.025 -0.023  0.917
atom   10   Tr[ns(na)] =   5.43338
    eigenvalues: 
  0.840  0.930  0.947
    eigenvectors:
  0.337  0.000  0.663
  0.496  0.252  0.252
  0.167  0.748  0.085
    occupations:
  0.911 -0.044  0.026
 -0.044  0.889  0.024
  0.026  0.024  0.916
N of occupied +U levels =  56.2884184
 --- exit write_ns ---
 --- in v_hubbard ---
Hubbard energy    0.3338
 -------

     total cpu time spent up to now is      112.0 secs

     total energy              =    -537.96894752 Ry
     Harris-Foulkes estimate   =    -537.96888700 Ry
     estimated scf accuracy    <       0.00005373 Ry

     iteration #  7     ecut=    30.00 Ry     beta=0.20
     Davidson diagonalization with overlap
     ethr =  7.07E-08,  avg # of iterations =  2.0
 --- enter write_ns ---
 LDA+U parameters:
U( 1)     =  4.00000000
alpha( 1) =  0.05000000
U( 2)     =  4.00000000
alpha( 2) =  0.00000000
U( 3)     =  0.00000000
alpha( 3) =  0.00000000
U( 4)     =  0.00000000
alpha( 4) =  0.00000000
atom    1   Tr[ns(na)] =   8.04313
    eigenvalues: 
  0.521  0.521  0.992  0.992  0.995
    eigenvectors:
  0.000  0.000  0.000  0.000  1.000
  0.337  0.321  0.003  0.338  0.000
  0.321  0.337  0.338  0.003  0.000
  0.286  0.056  0.518  0.140  0.000
  0.056  0.286  0.140  0.518  0.000
    occupations:
  0.995  0.000  0.000  0.000  0.000
  0.000  0.682  0.000 -0.083  0.207
  0.000  0.000  0.682  0.207  0.083
  0.000 -0.083  0.207  0.831  0.000
  0.000  0.207  0.083  0.000  0.831
atom    2   Tr[ns(na)] =   8.04747
    eigenvalues: 
  0.522  0.522  0.993  0.993  0.995
    eigenvectors:
  0.000  0.000  0.000  0.000  1.000
  0.640  0.018  0.221  0.120  0.000
  0.018  0.640  0.120  0.221  0.000
  0.015  0.327  0.474  0.184  0.000
  0.327  0.015  0.184  0.474  0.000
    occupations:
  0.995  0.000  0.000  0.000  0.000
  0.000  0.683  0.000  0.082  0.208
  0.000  0.000  0.683  0.208 -0.082
  0.000  0.082  0.208  0.832  0.000
  0.000  0.208 -0.082  0.000  0.832
atom    3   Tr[ns(na)] =   3.79242
    eigenvalues: 
  0.356  0.356  0.381  0.402  0.402
    eigenvectors:
  0.000  0.000  1.000  0.000  0.000
  0.782  0.139  0.000  0.012  0.068
  0.139  0.782  0.000  0.068  0.012
  0.012  0.067  0.000  0.780  0.141
  0.067  0.012  0.000  0.141  0.780
    occupations:
  0.381  0.000  0.000  0.000  0.000
  0.000  0.359  0.000  0.000  0.012
  0.000  0.000  0.359  0.012  0.000
  0.000  0.000  0.012  0.398  0.000
  0.000  0.012  0.000  0.000  0.398
atom    4   Tr[ns(na)] =   3.79242
    eigenvalues: 
  0.356  0.356  0.381  0.402  0.402
    eigenvectors:
  0.000  0.000  1.000  0.000  0.000
  0.782  0.139  0.000  0.012  0.068
  0.139  0.782  0.000  0.068  0.012
  0.012  0.067  0.000  0.780  0.141
  0.067  0.012  0.000  0.141  0.780
    occupations:
  0.381  0.000  0.000  0.000  0.000
  0.000  0.359  0.000  0.000  0.012
  0.000  0.000  0.359  0.012  0.000
  0.000  0.000  0.012  0.398  0.000
  0.000  0.012  0.000  0.000  0.398
atom    5   Tr[ns(na)] =   5.43497
    eigenvalues: 
  0.840  0.930  0.947
    eigenvectors:
  0.337  0.000  0.663
  0.498  0.248  0.253
  0.165  0.752  0.084
    occupations:
  0.911  0.044  0.025
  0.044  0.890 -0.023
  0.025 -0.023  0.917
atom    6   Tr[ns(na)] =   5.43497
    eigenvalues: 
  0.840  0.930  0.947
    eigenvectors:
  0.337  0.000  0.663
  0.000  1.000  0.000
  0.663  0.000  0.337
    occupations:
  0.911  0.000 -0.051
  0.000  0.930  0.000
 -0.051  0.000  0.876
atom    7   Tr[ns(na)] =   5.43497
    eigenvalues: 
  0.840  0.930  0.947
    eigenvectors:
  0.337  0.000  0.663
  0.496  0.252  0.252
  0.167  0.748  0.085
    occupations:
  0.911 -0.044  0.026
 -0.044  0.890  0.023
  0.026  0.023  0.917
atom    8   Tr[ns(na)] =   5.43497
    eigenvalues: 
  0.840  0.930  0.947
    eigenvectors:
  0.337  0.000  0.663
  0.000  1.000  0.000
  0.663  0.000  0.337
    occupations:
  0.911  0.000 -0.051
  0.000  0.930  0.000
 -0.051  0.000  0.876
atom    9   Tr[ns(na)] =   5.43497
    eigenvalues: 
  0.840  0.930  0.947
    eigenvectors:
  0.337  0.000  0.663
  0.498  0.248  0.253
  0.165  0.752  0.084
    occupations:
  0.911  0.044  0.025
  0.044  0.890 -0.023
  0.025 -0.023  0.917
atom   10   Tr[ns(na)] =   5.43497
    eigenvalues: 
  0.840  0.930  0.947
    eigenvectors:
  0.337  0.000  0.663
  0.496  0.252  0.252
  0.167  0.748  0.085
    occupations:
  0.911 -0.044  0.026
 -0.044  0.890  0.023
  0.026  0.023  0.917
N of occupied +U levels =  56.2852776
 --- exit write_ns ---
 --- in v_hubbard ---
Hubbard energy    0.3343
 -------

     total cpu time spent up to now is      126.7 secs

     total energy              =    -537.96901598 Ry
     Harris-Foulkes estimate   =    -537.96895899 Ry
     estimated scf accuracy    <       0.00004230 Ry

     iteration #  8     ecut=    30.00 Ry     beta=0.20
     Davidson diagonalization with overlap
     ethr =  5.57E-08,  avg # of iterations =  1.1
 --- enter write_ns ---
 LDA+U parameters:
U( 1)     =  4.00000000
alpha( 1) =  0.05000000
U( 2)     =  4.00000000
alpha( 2) =  0.00000000
U( 3)     =  0.00000000
alpha( 3) =  0.00000000
U( 4)     =  0.00000000
alpha( 4) =  0.00000000
atom    1   Tr[ns(na)] =   8.04666
    eigenvalues: 
  0.522  0.522  0.992  0.992  0.995
    eigenvectors:
  0.000  0.000  0.000  0.000  1.000
  0.337  0.321  0.003  0.338  0.000
  0.321  0.337  0.338  0.003  0.000
  0.286  0.056  0.519  0.140  0.000
  0.056  0.286  0.140  0.519  0.000
    occupations:
  0.995  0.000  0.000  0.000  0.000
  0.000  0.683  0.000 -0.083  0.207
  0.000  0.000  0.683  0.207  0.083
  0.000 -0.083  0.207  0.831  0.000
  0.000  0.207  0.083  0.000  0.831
atom    2   Tr[ns(na)] =   8.05019
    eigenvalues: 
  0.522  0.522  0.993  0.993  0.995
    eigenvectors:
  0.000  0.000  0.000  0.000  1.000
  0.640  0.018  0.221  0.120  0.000
  0.018  0.640  0.120  0.221  0.000
  0.015  0.327  0.474  0.184  0.000
  0.327  0.015  0.184  0.474  0.000
    occupations:
  0.995  0.000  0.000  0.000  0.000
  0.000  0.683  0.000  0.082  0.207
  0.000  0.000  0.683  0.207 -0.082
  0.000  0.082  0.207  0.832  0.000
  0.000  0.207 -0.082  0.000  0.832
atom    3   Tr[ns(na)] =   3.79387
    eigenvalues: 
  0.356  0.356  0.381  0.402  0.402
    eigenvectors:
  0.000  0.000  1.000  0.000  0.000
  0.782  0.139  0.000  0.012  0.067
  0.139  0.782  0.000  0.067  0.012
  0.012  0.067  0.000  0.780  0.141
  0.067  0.012  0.000  0.141  0.780
    occupations:
  0.381  0.000  0.000  0.000  0.000
  0.000  0.360  0.000  0.000  0.012
  0.000  0.000  0.360  0.012  0.000
  0.000  0.000  0.012  0.398  0.000
  0.000  0.012  0.000  0.000  0.398
atom    4   Tr[ns(na)] =   3.79387
    eigenvalues: 
  0.356  0.356  0.381  0.402  0.402
    eigenvectors:
  0.000  0.000  1.000  0.000  0.000
  0.782  0.139  0.000  0.012  0.067
  0.139  0.782  0.000  0.067  0.012
  0.012  0.067  0.000  0.780  0.141
  0.067  0.012  0.000  0.141  0.780
    occupations:
  0.381  0.000  0.000  0.000  0.000
  0.000  0.360  0.000  0.000  0.012
  0.000  0.000  0.360  0.012  0.000
  0.000  0.000  0.012  0.398  0.000
  0.000  0.012  0.000  0.000  0.398
atom    5   Tr[ns(na)] =   5.43369
    eigenvalues: 
  0.840  0.930  0.947
    eigenvectors:
  0.337  0.000  0.663
  0.498  0.248  0.254
  0.165  0.752  0.084
    occupations:
  0.911  0.044  0.025
  0.044  0.889 -0.023
  0.025 -0.023  0.917
atom    6   Tr[ns(na)] =   5.43369
    eigenvalues: 
  0.840  0.930  0.947
    eigenvectors:
  0.337  0.000  0.663
  0.000  1.000  0.000
  0.663  0.000  0.337
    occupations:
  0.911  0.000 -0.051
  0.000  0.930  0.000
 -0.051  0.000  0.876
atom    7   Tr[ns(na)] =   5.43369
    eigenvalues: 
  0.840  0.930  0.947
    eigenvectors:
  0.337  0.000  0.663
  0.496  0.252  0.252
  0.167  0.748  0.085
    occupations:
  0.911 -0.044  0.026
 -0.044  0.890  0.024
  0.026  0.024  0.916
atom    8   Tr[ns(na)] =   5.43369
    eigenvalues: 
  0.840  0.930  0.947
    eigenvectors:
  0.337  0.000  0.663
  0.000  1.000  0.000
  0.663  0.000  0.337
    occupations:
  0.911  0.000 -0.051
  0.000  0.930  0.000
 -0.051  0.000  0.876
atom    9   Tr[ns(na)] =   5.43369
    eigenvalues: 
  0.840  0.930  0.947
    eigenvectors:
  0.337  0.000  0.663
  0.498  0.248  0.254
  0.165  0.752  0.084
    occupations:
  0.911  0.044  0.025
  0.044  0.889 -0.023
  0.025 -0.023  0.917
atom   10   Tr[ns(na)] =   5.43369
    eigenvalues: 
  0.840  0.930  0.947
    eigenvectors:
  0.337  0.000  0.663
  0.496  0.252  0.252
  0.167  0.748  0.085
    occupations:
  0.911 -0.044  0.026
 -0.044  0.890  0.024
  0.026  0.024  0.916
N of occupied +U levels =  56.2867224
 --- exit write_ns ---
 --- in v_hubbard ---
Hubbard energy    0.3346
 -------

     total cpu time spent up to now is      139.3 secs

     total energy              =    -537.96905630 Ry
     Harris-Foulkes estimate   =    -537.96902027 Ry
     estimated scf accuracy    <       0.00000280 Ry

     iteration #  9     ecut=    30.00 Ry     beta=0.20
     Davidson diagonalization with overlap
     ethr =  3.69E-09,  avg # of iterations =  2.6
 --- enter write_ns ---
 LDA+U parameters:
U( 1)     =  4.00000000
alpha( 1) =  0.05000000
U( 2)     =  4.00000000
alpha( 2) =  0.00000000
U( 3)     =  0.00000000
alpha( 3) =  0.00000000
U( 4)     =  0.00000000
alpha( 4) =  0.00000000
atom    1   Tr[ns(na)] =   8.04676
    eigenvalues: 
  0.522  0.522  0.992  0.992  0.995
    eigenvectors:
  0.000  0.000  0.000  0.000  1.000
  0.337  0.321  0.003  0.339  0.000
  0.321  0.337  0.339  0.003  0.000
  0.286  0.056  0.518  0.140  0.000
  0.056  0.286  0.140  0.518  0.000
    occupations:
  0.995  0.000  0.000  0.000  0.000
  0.000  0.683  0.000 -0.083  0.207
  0.000  0.000  0.683  0.207  0.083
  0.000 -0.083  0.207  0.831  0.000
  0.000  0.207  0.083  0.000  0.831
atom    2   Tr[ns(na)] =   8.05047
    eigenvalues: 
  0.522  0.522  0.993  0.993  0.995
    eigenvectors:
  0.000  0.000  0.000  0.000  1.000
  0.640  0.018  0.222  0.120  0.000
  0.018  0.640  0.120  0.222  0.000
  0.015  0.326  0.474  0.184  0.000
  0.326  0.015  0.184  0.474  0.000
    occupations:
  0.995  0.000  0.000  0.000  0.000
  0.000  0.683  0.000  0.082  0.207
  0.000  0.000  0.683  0.207 -0.082
  0.000  0.082  0.207  0.832  0.000
  0.000  0.207 -0.082  0.000  0.832
atom    3   Tr[ns(na)] =   3.79458
    eigenvalues: 
  0.356  0.356  0.381  0.402  0.402
    eigenvectors:
  0.000  0.000  1.000  0.000  0.000
  0.782  0.139  0.000  0.012  0.067
  0.139  0.782  0.000  0.067  0.012
  0.012  0.067  0.000  0.780  0.141
  0.067  0.012  0.000  0.141  0.780
    occupations:
  0.381  0.000  0.000  0.000  0.000
  0.000  0.360  0.000  0.000  0.012
  0.000  0.000  0.360  0.012  0.000
  0.000  0.000  0.012  0.398  0.000
  0.000  0.012  0.000  0.000  0.398
atom    4   Tr[ns(na)] =   3.79458
    eigenvalues: 
  0.356  0.356  0.381  0.402  0.402
    eigenvectors:
  0.000  0.000  1.000  0.000  0.000
  0.782  0.139  0.000  0.012  0.067
  0.139  0.782  0.000  0.067  0.012
  0.012  0.067  0.000  0.780  0.141
  0.067  0.012  0.000  0.141  0.780
    occupations:
  0.381  0.000  0.000  0.000  0.000
  0.000  0.360  0.000  0.000  0.012
  0.000  0.000  0.360  0.012  0.000
  0.000  0.000  0.012  0.398  0.000
  0.000  0.012  0.000  0.000  0.398
atom    5   Tr[ns(na)] =   5.43344
    eigenvalues: 
  0.839  0.930  0.947
    eigenvectors:
  0.337  0.000  0.663
  0.498  0.248  0.254
  0.165  0.752  0.084
    occupations:
  0.911  0.044  0.025
  0.044  0.889 -0.023
  0.025 -0.023  0.917
atom    6   Tr[ns(na)] =   5.43344
    eigenvalues: 
  0.839  0.930  0.947
    eigenvectors:
  0.337  0.000  0.663
  0.000  1.000  0.000
  0.663  0.000  0.337
    occupations:
  0.911  0.000 -0.051
  0.000  0.930  0.000
 -0.051  0.000  0.876
atom    7   Tr[ns(na)] =   5.43344
    eigenvalues: 
  0.839  0.930  0.947
    eigenvectors:
  0.337  0.000  0.663
  0.496  0.252  0.252
  0.167  0.748  0.085
    occupations:
  0.911 -0.044  0.026
 -0.044  0.889  0.024
  0.026  0.024  0.916
atom    8   Tr[ns(na)] =   5.43344
    eigenvalues: 
  0.839  0.930  0.947
    eigenvectors:
  0.337  0.000  0.663
  0.000  1.000  0.000
  0.663  0.000  0.337
    occupations:
  0.911  0.000 -0.051
  0.000  0.930  0.000
 -0.051  0.000  0.876
atom    9   Tr[ns(na)] =   5.43344
    eigenvalues: 
  0.839  0.930  0.947
    eigenvectors:
  0.337  0.000  0.663
  0.498  0.248  0.254
  0.165  0.752  0.084
    occupations:
  0.911  0.044  0.025
  0.044  0.889 -0.023
  0.025 -0.023  0.917
atom   10   Tr[ns(na)] =   5.43344
    eigenvalues: 
  0.839  0.930  0.947
    eigenvectors:
  0.337  0.000  0.663
  0.496  0.252  0.252
  0.167  0.748  0.085
    occupations:
  0.911 -0.044  0.026
 -0.044  0.889  0.024
  0.026  0.024  0.916
N of occupied +U levels =  56.2870131
 --- exit write_ns ---
 --- in v_hubbard ---
Hubbard energy    0.3347
 -------

     total cpu time spent up to now is      155.7 secs

     total energy              =    -537.96908221 Ry
     Harris-Foulkes estimate   =    -537.96905690 Ry
     estimated scf accuracy    <       0.00000104 Ry

     iteration # 10     ecut=    30.00 Ry     beta=0.20
     Davidson diagonalization with overlap
     ethr =  1.37E-09,  avg # of iterations =  1.9
 --- enter write_ns ---
 LDA+U parameters:
U( 1)     =  4.00000000
alpha( 1) =  0.05000000
U( 2)     =  4.00000000
alpha( 2) =  0.00000000
U( 3)     =  0.00000000
alpha( 3) =  0.00000000
U( 4)     =  0.00000000
alpha( 4) =  0.00000000
atom    1   Tr[ns(na)] =   8.04707
    eigenvalues: 
  0.522  0.522  0.992  0.992  0.995
    eigenvectors:
  0.000  0.000  0.000  0.000  1.000
  0.337  0.321  0.003  0.339  0.000
  0.321  0.337  0.339  0.003  0.000
  0.286  0.056  0.518  0.140  0.000
  0.056  0.286  0.140  0.518  0.000
    occupations:
  0.995  0.000  0.000  0.000  0.000
  0.000  0.683  0.000 -0.083  0.207
  0.000  0.000  0.683  0.207  0.083
  0.000 -0.083  0.207  0.831  0.000
  0.000  0.207  0.083  0.000  0.831
atom    2   Tr[ns(na)] =   8.05080
    eigenvalues: 
  0.522  0.522  0.993  0.993  0.995
    eigenvectors:
  0.000  0.000  0.000  0.000  1.000
  0.640  0.018  0.222  0.120  0.000
  0.018  0.640  0.120  0.222  0.000
  0.015  0.326  0.474  0.184  0.000
  0.326  0.015  0.184  0.474  0.000
    occupations:
  0.995  0.000  0.000  0.000  0.000
  0.000  0.683  0.000  0.082  0.207
  0.000  0.000  0.683  0.207 -0.082
  0.000  0.082  0.207  0.832  0.000
  0.000  0.207 -0.082  0.000  0.832
atom    3   Tr[ns(na)] =   3.79429
    eigenvalues: 
  0.356  0.356  0.381  0.402  0.402
    eigenvectors:
  0.000  0.000  1.000  0.000  0.000
  0.782  0.139  0.000  0.012  0.067
  0.139  0.782  0.000  0.067  0.012
  0.012  0.067  0.000  0.780  0.141
  0.067  0.012  0.000  0.141  0.780
    occupations:
  0.381  0.000  0.000  0.000  0.000
  0.000  0.360  0.000  0.000  0.012
  0.000  0.000  0.360  0.012  0.000
  0.000  0.000  0.012  0.398  0.000
  0.000  0.012  0.000  0.000  0.398
atom    4   Tr[ns(na)] =   3.79429
    eigenvalues: 
  0.356  0.356  0.381  0.402  0.402
    eigenvectors:
  0.000  0.000  1.000  0.000  0.000
  0.782  0.139  0.000  0.012  0.067
  0.139  0.782  0.000  0.067  0.012
  0.012  0.067  0.000  0.780  0.141
  0.067  0.012  0.000  0.141  0.780
    occupations:
  0.381  0.000  0.000  0.000  0.000
  0.000  0.360  0.000  0.000  0.012
  0.000  0.000  0.360  0.012  0.000
  0.000  0.000  0.012  0.398  0.000
  0.000  0.012  0.000  0.000  0.398
atom    5   Tr[ns(na)] =   5.43340
    eigenvalues: 
  0.839  0.930  0.947
    eigenvectors:
  0.337  0.000  0.663
  0.498  0.248  0.254
  0.165  0.752  0.084
    occupations:
  0.911  0.044  0.025
  0.044  0.889 -0.023
  0.025 -0.023  0.917
atom    6   Tr[ns(na)] =   5.43340
    eigenvalues: 
  0.839  0.930  0.947
    eigenvectors:
  0.337  0.000  0.663
  0.000  1.000  0.000
  0.663  0.000  0.337
    occupations:
  0.911  0.000 -0.051
  0.000  0.930  0.000
 -0.051  0.000  0.876
atom    7   Tr[ns(na)] =   5.43340
    eigenvalues: 
  0.839  0.930  0.947
    eigenvectors:
  0.337  0.000  0.663
  0.496  0.252  0.252
  0.167  0.748  0.085
    occupations:
  0.911 -0.044  0.026
 -0.044  0.889  0.024
  0.026  0.024  0.916
atom    8   Tr[ns(na)] =   5.43340
    eigenvalues: 
  0.839  0.930  0.947
    eigenvectors:
  0.337  0.000  0.663
  0.000  1.000  0.000
  0.663  0.000  0.337
    occupations:
  0.911  0.000 -0.051
  0.000  0.930  0.000
 -0.051  0.000  0.876
atom    9   Tr[ns(na)] =   5.43340
    eigenvalues: 
  0.839  0.930  0.947
    eigenvectors:
  0.337  0.000  0.663
  0.498  0.248  0.254
  0.165  0.752  0.084
    occupations:
  0.911  0.044  0.025
  0.044  0.889 -0.023
  0.025 -0.023  0.917
atom   10   Tr[ns(na)] =   5.43340
    eigenvalues: 
  0.839  0.930  0.947
    eigenvectors:
  0.337  0.000  0.663
  0.496  0.252  0.252
  0.167  0.748  0.085
    occupations:
  0.911 -0.044  0.026
 -0.044  0.889  0.024
  0.026  0.024  0.916
N of occupied +U levels =  56.2868446
 --- exit write_ns ---
 --- in v_hubbard ---
Hubbard energy    0.3348
 -------

     total cpu time spent up to now is      171.2 secs

     total energy              =    -537.96909745 Ry
     Harris-Foulkes estimate   =    -537.96908233 Ry
     estimated scf accuracy    <       0.00000098 Ry

     iteration # 11     ecut=    30.00 Ry     beta=0.20
     Davidson diagonalization with overlap
     ethr =  1.29E-09,  avg # of iterations =  2.0
 --- enter write_ns ---
 LDA+U parameters:
U( 1)     =  4.00000000
alpha( 1) =  0.05000000
U( 2)     =  4.00000000
alpha( 2) =  0.00000000
U( 3)     =  0.00000000
alpha( 3) =  0.00000000
U( 4)     =  0.00000000
alpha( 4) =  0.00000000
atom    1   Tr[ns(na)] =   8.04617
    eigenvalues: 
  0.522  0.522  0.992  0.992  0.995
    eigenvectors:
  0.000  0.000  0.000  0.000  1.000
  0.337  0.321  0.003  0.339  0.000
  0.321  0.337  0.339  0.003  0.000
  0.286  0.056  0.519  0.139  0.000
  0.056  0.286  0.139  0.519  0.000
    occupations:
  0.995  0.000  0.000  0.000  0.000
  0.000  0.683  0.000 -0.083  0.207
  0.000  0.000  0.683  0.207  0.083
  0.000 -0.083  0.207  0.831  0.000
  0.000  0.207  0.083  0.000  0.831
atom    2   Tr[ns(na)] =   8.05004
    eigenvalues: 
  0.522  0.522  0.993  0.993  0.995
    eigenvectors:
  0.000  0.000  0.000  0.000  1.000
  0.640  0.018  0.222  0.120  0.000
  0.018  0.640  0.120  0.222  0.000
  0.015  0.326  0.474  0.184  0.000
  0.326  0.015  0.184  0.474  0.000
    occupations:
  0.995  0.000  0.000  0.000  0.000
  0.000  0.683  0.000  0.083  0.207
  0.000  0.000  0.683  0.207 -0.083
  0.000  0.083  0.207  0.832  0.000
  0.000  0.207 -0.083  0.000  0.832
atom    3   Tr[ns(na)] =   3.79408
    eigenvalues: 
  0.356  0.356  0.381  0.402  0.402
    eigenvectors:
  0.000  0.000  1.000  0.000  0.000
  0.782  0.139  0.000  0.012  0.067
  0.139  0.782  0.000  0.067  0.012
  0.012  0.067  0.000  0.780  0.141
  0.067  0.012  0.000  0.141  0.780
    occupations:
  0.381  0.000  0.000  0.000  0.000
  0.000  0.360  0.000  0.000  0.012
  0.000  0.000  0.360  0.012  0.000
  0.000  0.000  0.012  0.398  0.000
  0.000  0.012  0.000  0.000  0.398
atom    4   Tr[ns(na)] =   3.79408
    eigenvalues: 
  0.356  0.356  0.381  0.402  0.402
    eigenvectors:
  0.000  0.000  1.000  0.000  0.000
  0.782  0.139  0.000  0.012  0.067
  0.139  0.782  0.000  0.067  0.012
  0.012  0.067  0.000  0.780  0.141
  0.067  0.012  0.000  0.141  0.780
    occupations:
  0.381  0.000  0.000  0.000  0.000
  0.000  0.360  0.000  0.000  0.012
  0.000  0.000  0.360  0.012  0.000
  0.000  0.000  0.012  0.398  0.000
  0.000  0.012  0.000  0.000  0.398
atom    5   Tr[ns(na)] =   5.43370
    eigenvalues: 
  0.840  0.930  0.947
    eigenvectors:
  0.337  0.000  0.663
  0.498  0.248  0.253
  0.165  0.752  0.084
    occupations:
  0.911  0.044  0.025
  0.044  0.889 -0.023
  0.025 -0.023  0.917
atom    6   Tr[ns(na)] =   5.43370
    eigenvalues: 
  0.840  0.930  0.947
    eigenvectors:
  0.337  0.000  0.663
  0.000  1.000  0.000
  0.663  0.000  0.337
    occupations:
  0.911  0.000 -0.051
  0.000  0.930  0.000
 -0.051  0.000  0.876
atom    7   Tr[ns(na)] =   5.43370
    eigenvalues: 
  0.840  0.930  0.947
    eigenvectors:
  0.337  0.000  0.663
  0.496  0.252  0.252
  0.167  0.748  0.085
    occupations:
  0.911 -0.044  0.026
 -0.044  0.890  0.024
  0.026  0.024  0.916
atom    8   Tr[ns(na)] =   5.43370
    eigenvalues: 
  0.840  0.930  0.947
    eigenvectors:
  0.337  0.000  0.663
  0.000  1.000  0.000
  0.663  0.000  0.337
    occupations:
  0.911  0.000 -0.051
  0.000  0.930  0.000
 -0.051  0.000  0.876
atom    9   Tr[ns(na)] =   5.43370
    eigenvalues: 
  0.840  0.930  0.947
    eigenvectors:
  0.337  0.000  0.663
  0.498  0.248  0.253
  0.165  0.752  0.084
    occupations:
  0.911  0.044  0.025
  0.044  0.889 -0.023
  0.025 -0.023  0.917
atom   10   Tr[ns(na)] =   5.43370
    eigenvalues: 
  0.840  0.930  0.947
    eigenvectors:
  0.337  0.000  0.663
  0.496  0.252  0.252
  0.167  0.748  0.085
    occupations:
  0.911 -0.044  0.026
 -0.044  0.890  0.024
  0.026  0.024  0.916
N of occupied +U levels =  56.2865339
 --- exit write_ns ---
 --- in v_hubbard ---
Hubbard energy    0.3348
 -------

     total cpu time spent up to now is      188.2 secs

     total energy              =    -537.96910844 Ry
     Harris-Foulkes estimate   =    -537.96909769 Ry
     estimated scf accuracy    <       0.00000023 Ry

     iteration # 12     ecut=    30.00 Ry     beta=0.20
     Davidson diagonalization with overlap
     ethr =  2.97E-10,  avg # of iterations =  2.0
 --- enter write_ns ---
 LDA+U parameters:
U( 1)     =  4.00000000
alpha( 1) =  0.05000000
U( 2)     =  4.00000000
alpha( 2) =  0.00000000
U( 3)     =  0.00000000
alpha( 3) =  0.00000000
U( 4)     =  0.00000000
alpha( 4) =  0.00000000
atom    1   Tr[ns(na)] =   8.04646
    eigenvalues: 
  0.522  0.522  0.992  0.992  0.995
    eigenvectors:
  0.000  0.000  0.000  0.000  1.000
  0.337  0.321  0.003  0.339  0.000
  0.321  0.337  0.339  0.003  0.000
  0.286  0.056  0.519  0.139  0.000
  0.056  0.286  0.139  0.519  0.000
    occupations:
  0.995  0.000  0.000  0.000  0.000
  0.000  0.683  0.000 -0.083  0.207
  0.000  0.000  0.683  0.207  0.083
  0.000 -0.083  0.207  0.831  0.000
  0.000  0.207  0.083  0.000  0.831
atom    2   Tr[ns(na)] =   8.05025
    eigenvalues: 
  0.522  0.522  0.993  0.993  0.995
    eigenvectors:
  0.000  0.000  0.000  0.000  1.000
  0.641  0.018  0.222  0.120  0.000
  0.018  0.641  0.120  0.222  0.000
  0.015  0.326  0.474  0.184  0.000
  0.326  0.015  0.184  0.474  0.000
    occupations:
  0.995  0.000  0.000  0.000  0.000
  0.000  0.683  0.000  0.083  0.207
  0.000  0.000  0.683  0.207 -0.083
  0.000  0.083  0.207  0.832  0.000
  0.000  0.207 -0.083  0.000  0.832
atom    3   Tr[ns(na)] =   3.79421
    eigenvalues: 
  0.356  0.356  0.381  0.402  0.402
    eigenvectors:
  0.000  0.000  1.000  0.000  0.000
  0.782  0.139  0.000  0.012  0.067
  0.139  0.782  0.000  0.067  0.012
  0.012  0.067  0.000  0.780  0.141
  0.067  0.012  0.000  0.141  0.780
    occupations:
  0.381  0.000  0.000  0.000  0.000
  0.000  0.360  0.000  0.000  0.012
  0.000  0.000  0.360  0.012  0.000
  0.000  0.000  0.012  0.398  0.000
  0.000  0.012  0.000  0.000  0.398
atom    4   Tr[ns(na)] =   3.79421
    eigenvalues: 
  0.356  0.356  0.381  0.402  0.402
    eigenvectors:
  0.000  0.000  1.000  0.000  0.000
  0.782  0.139  0.000  0.012  0.067
  0.139  0.782  0.000  0.067  0.012
  0.012  0.067  0.000  0.780  0.141
  0.067  0.012  0.000  0.141  0.780
    occupations:
  0.381  0.000  0.000  0.000  0.000
  0.000  0.360  0.000  0.000  0.012
  0.000  0.000  0.360  0.012  0.000
  0.000  0.000  0.012  0.398  0.000
  0.000  0.012  0.000  0.000  0.398
atom    5   Tr[ns(na)] =   5.43359
    eigenvalues: 
  0.840  0.930  0.947
    eigenvectors:
  0.337  0.000  0.663
  0.498  0.248  0.254
  0.165  0.752  0.084
    occupations:
  0.911  0.044  0.025
  0.044  0.889 -0.023
  0.025 -0.023  0.917
atom    6   Tr[ns(na)] =   5.43359
    eigenvalues: 
  0.840  0.930  0.947
    eigenvectors:
  0.337  0.000  0.663
  0.000  1.000  0.000
  0.663  0.000  0.337
    occupations:
  0.911  0.000 -0.051
  0.000  0.930  0.000
 -0.051  0.000  0.876
atom    7   Tr[ns(na)] =   5.43359
    eigenvalues: 
  0.840  0.930  0.947
    eigenvectors:
  0.337  0.000  0.663
  0.496  0.252  0.252
  0.167  0.748  0.085
    occupations:
  0.911 -0.044  0.026
 -0.044  0.889  0.024
  0.026  0.024  0.916
atom    8   Tr[ns(na)] =   5.43359
    eigenvalues: 
  0.840  0.930  0.947
    eigenvectors:
  0.337  0.000  0.663
  0.000  1.000  0.000
  0.663  0.000  0.337
    occupations:
  0.911  0.000 -0.051
  0.000  0.930  0.000
 -0.051  0.000  0.876
atom    9   Tr[ns(na)] =   5.43359
    eigenvalues: 
  0.840  0.930  0.947
    eigenvectors:
  0.337  0.000  0.663
  0.498  0.248  0.254
  0.165  0.752  0.084
    occupations:
  0.911  0.044  0.025
  0.044  0.889 -0.023
  0.025 -0.023  0.917
atom   10   Tr[ns(na)] =   5.43359
    eigenvalues: 
  0.840  0.930  0.947
    eigenvectors:
  0.337  0.000  0.663
  0.496  0.252  0.252
  0.167  0.748  0.085
    occupations:
  0.911 -0.044  0.026
 -0.044  0.889  0.024
  0.026  0.024  0.916
N of occupied +U levels =  56.2866678
 --- exit write_ns ---
 --- in v_hubbard ---
Hubbard energy    0.3348
 -------

     total cpu time spent up to now is      204.5 secs

     total energy              =    -537.96911524 Ry
     Harris-Foulkes estimate   =    -537.96910847 Ry
     estimated scf accuracy    <       0.00000006 Ry

     iteration # 13     ecut=    30.00 Ry     beta=0.20
     Davidson diagonalization with overlap
     ethr =  7.34E-11,  avg # of iterations =  1.8
 --- enter write_ns ---
 LDA+U parameters:
U( 1)     =  4.00000000
alpha( 1) =  0.05000000
U( 2)     =  4.00000000
alpha( 2) =  0.00000000
U( 3)     =  0.00000000
alpha( 3) =  0.00000000
U( 4)     =  0.00000000
alpha( 4) =  0.00000000
atom    1   Tr[ns(na)] =   8.04641
    eigenvalues: 
  0.522  0.522  0.992  0.992  0.995
    eigenvectors:
  0.000  0.000  0.000  0.000  1.000
  0.337  0.321  0.003  0.339  0.000
  0.321  0.337  0.339  0.003  0.000
  0.286  0.056  0.519  0.139  0.000
  0.056  0.286  0.139  0.519  0.000
    occupations:
  0.995  0.000  0.000  0.000  0.000
  0.000  0.683  0.000 -0.083  0.207
  0.000  0.000  0.683  0.207  0.083
  0.000 -0.083  0.207  0.831  0.000
  0.000  0.207  0.083  0.000  0.831
atom    2   Tr[ns(na)] =   8.05022
    eigenvalues: 
  0.522  0.522  0.993  0.993  0.995
    eigenvectors:
  0.000  0.000  0.000  0.000  1.000
  0.641  0.018  0.222  0.120  0.000
  0.018  0.641  0.120  0.222  0.000
  0.016  0.326  0.474  0.184  0.000
  0.326  0.016  0.184  0.474  0.000
    occupations:
  0.995  0.000  0.000  0.000  0.000
  0.000  0.683  0.000  0.083  0.207
  0.000  0.000  0.683  0.207 -0.083
  0.000  0.083  0.207  0.832  0.000
  0.000  0.207 -0.083  0.000  0.832
atom    3   Tr[ns(na)] =   3.79427
    eigenvalues: 
  0.356  0.356  0.381  0.402  0.402
    eigenvectors:
  0.000  0.000  1.000  0.000  0.000
  0.782  0.139  0.000  0.012  0.067
  0.139  0.782  0.000  0.067  0.012
  0.012  0.067  0.000  0.780  0.141
  0.067  0.012  0.000  0.141  0.780
    occupations:
  0.381  0.000  0.000  0.000  0.000
  0.000  0.360  0.000  0.000  0.012
  0.000  0.000  0.360  0.012  0.000
  0.000  0.000  0.012  0.398  0.000
  0.000  0.012  0.000  0.000  0.398
atom    4   Tr[ns(na)] =   3.79427
    eigenvalues: 
  0.356  0.356  0.381  0.402  0.402
    eigenvectors:
  0.000  0.000  1.000  0.000  0.000
  0.782  0.139  0.000  0.012  0.067
  0.139  0.782  0.000  0.067  0.012
  0.012  0.067  0.000  0.780  0.141
  0.067  0.012  0.000  0.141  0.780
    occupations:
  0.381  0.000  0.000  0.000  0.000
  0.000  0.360  0.000  0.000  0.012
  0.000  0.000  0.360  0.012  0.000
  0.000  0.000  0.012  0.398  0.000
  0.000  0.012  0.000  0.000  0.398
atom    5   Tr[ns(na)] =   5.43359
    eigenvalues: 
  0.840  0.930  0.947
    eigenvectors:
  0.337  0.000  0.663
  0.498  0.248  0.254
  0.165  0.752  0.084
    occupations:
  0.911  0.044  0.025
  0.044  0.889 -0.023
  0.025 -0.023  0.917
atom    6   Tr[ns(na)] =   5.43359
    eigenvalues: 
  0.840  0.930  0.947
    eigenvectors:
  0.337  0.000  0.663
  0.000  1.000  0.000
  0.663  0.000  0.337
    occupations:
  0.911  0.000 -0.051
  0.000  0.930  0.000
 -0.051  0.000  0.876
atom    7   Tr[ns(na)] =   5.43359
    eigenvalues: 
  0.840  0.930  0.947
    eigenvectors:
  0.337  0.000  0.663
  0.496  0.252  0.252
  0.167  0.748  0.085
    occupations:
  0.911 -0.044  0.026
 -0.044  0.889  0.024
  0.026  0.024  0.916
atom    8   Tr[ns(na)] =   5.43359
    eigenvalues: 
  0.840  0.930  0.947
    eigenvectors:
  0.337  0.000  0.663
  0.000  1.000  0.000
  0.663  0.000  0.337
    occupations:
  0.911  0.000 -0.051
  0.000  0.930  0.000
 -0.051  0.000  0.876
atom    9   Tr[ns(na)] =   5.43359
    eigenvalues: 
  0.840  0.930  0.947
    eigenvectors:
  0.337  0.000  0.663
  0.498  0.248  0.254
  0.165  0.752  0.084
    occupations:
  0.911  0.044  0.025
  0.044  0.889 -0.023
  0.025 -0.023  0.917
atom   10   Tr[ns(na)] =   5.43359
    eigenvalues: 
  0.840  0.930  0.947
    eigenvectors:
  0.337  0.000  0.663
  0.496  0.252  0.252
  0.167  0.748  0.085
    occupations:
  0.911 -0.044  0.026
 -0.044  0.889  0.024
  0.026  0.024  0.916
N of occupied +U levels =  56.2867114
 --- exit write_ns ---
 --- in v_hubbard ---
Hubbard energy    0.3348
 -------

     total cpu time spent up to now is      219.4 secs

     End of self-consistent calculation

          k = 0.0000 0.0000 0.0000 (  2175 PWs)   bands (ev):

   -19.7930 -19.6198  -6.5495  -5.8530  -5.8530  -5.8233  -5.8233  -5.4839
    -3.8391  -3.2554  -3.2483  -3.2483  -3.0215  -3.0215   5.1756   6.7639
     6.7639   6.9036   6.9036   6.9071   7.5109   7.5109   7.7084   8.6802
     8.8859   8.8859   9.2956   9.6238   9.6238  10.0033  10.0033  10.1971
    10.4578  10.4578  10.6744  10.9793  10.9793  11.3339  11.9140  11.9140
    14.7270  14.7270  15.4316  15.4316  16.2014  16.7880

     occupation numbers 
     0.0313   0.0313   0.0313   0.0313   0.0313   0.0313   0.0313   0.0313
     0.0313   0.0313   0.0313   0.0313   0.0313   0.0313   0.0313   0.0313
     0.0313   0.0313   0.0313   0.0313   0.0313   0.0313   0.0313   0.0313
     0.0313   0.0313   0.0312   0.0312   0.0312   0.0312   0.0312   0.0312
     0.0312   0.0312   0.0312   0.0308   0.0308   0.0258   0.0044   0.0044
     0.0000   0.0000   0.0000   0.0000   0.0000   0.0000

          k =-0.2471-0.1427 0.1027 (  2181 PWs)   bands (ev):

   -19.7676 -19.6562  -6.7274  -6.2965  -5.9540  -5.8527  -5.6122  -5.4806
    -3.6275  -3.4057  -2.9390  -2.9051  -2.8615  -2.7629   5.5220   6.5342
     6.7863   6.8609   6.8690   6.9475   6.9912   7.4628   7.5923   8.0041
     8.0875   8.5377   9.5176   9.6405   9.7136   9.9403  10.0593  10.1060
    10.3207  10.3859  10.4102  10.9996  11.1078  11.1121  12.2874  12.3596
    14.2746  14.2851  15.8189  16.0728  16.9746  17.2685

     occupation numbers 
     0.1875   0.1875   0.1875   0.1875   0.1875   0.1875   0.1875   0.1875
     0.1875   0.1875   0.1875   0.1875   0.1875   0.1875   0.1875   0.1875
     0.1875   0.1875   0.1875   0.1875   0.1875   0.1875   0.1875   0.1875
     0.1875   0.1875   0.1875   0.1875   0.1875   0.1875   0.1875   0.1875
     0.1875   0.1875   0.1875   0.1841   0.1795   0.1792   0.0017   0.0008
     0.0000   0.0000   0.0000   0.0000   0.0000   0.0000

          k = 0.4942 0.2853-0.2053 (  2202 PWs)   bands (ev):

   -19.7178 -19.7173  -6.7267  -6.7141  -5.9668  -5.9601  -5.5252  -5.5171
    -3.3950  -3.3932  -2.7961  -2.7955  -2.5050  -2.5031   5.9108   5.9126
     6.8598   6.8658   7.0866   7.0911   7.2692   7.2769   7.3681   7.3769
     7.5688   7.5754   9.3978   9.4083   9.8393   9.8478  10.2419  10.2536
    10.3739  10.3972  10.5704  10.5929  10.8601  10.8799  13.2601  13.3032
    13.3438  13.3867  16.8345  16.8395  17.1308  17.1345

     occupation numbers 
     0.0938   0.0938   0.0938   0.0938   0.0938   0.0938   0.0938   0.0938
     0.0938   0.0938   0.0938   0.0938   0.0938   0.0938   0.0938   0.0938
     0.0938   0.0938   0.0938   0.0938   0.0938   0.0938   0.0938   0.0938
     0.0938   0.0938   0.0937   0.0937   0.0937   0.0937   0.0937   0.0937
     0.0937   0.0937   0.0937   0.0937   0.0933   0.0932   0.0000   0.0000
     0.0000   0.0000   0.0000   0.0000   0.0000   0.0000

          k =-0.2471 0.1427 0.2053 (  2195 PWs)   bands (ev):

   -19.7604 -19.6668  -6.8520  -6.2413  -6.0717  -5.8323  -5.6558  -5.4650
    -3.4341  -3.2674  -3.1101  -2.9015  -2.8299  -2.5572   5.5561   6.2583
     6.5880   6.7836   6.9531   7.1971   7.2161   7.3906   7.4725   8.0475
     8.1165   8.7390   8.8514   9.2957   9.8039   9.8653   9.9991  10.0384
    10.2604  10.6684  10.7796  10.8404  11.0147  11.0818  11.8425  12.7089
    13.6060  14.7449  15.9963  16.1983  17.0379  17.5394

     occupation numbers 
     0.1875   0.1875   0.1875   0.1875   0.1875   0.1875   0.1875   0.1875
     0.1875   0.1875   0.1875   0.1875   0.1875   0.1875   0.1875   0.1875
     0.1875   0.1875   0.1875   0.1875   0.1875   0.1875   0.1875   0.1875
     0.1875   0.1875   0.1875   0.1875   0.1875   0.1875   0.1875   0.1875
     0.1875   0.1874   0.1871   0.1867   0.1836   0.1809   0.0383   0.0000
     0.0000   0.0000   0.0000   0.0000   0.0000   0.0000

          k = 0.4942 0.5706-0.1027 (  2198 PWs)   bands (ev):

   -19.7295 -19.7085  -6.9538  -6.6463  -6.1286  -5.8906  -5.5132  -5.3855
    -3.3173  -3.2588  -2.8782  -2.7091  -2.5274  -2.3838   5.7789   6.0730
     6.2217   6.8126   7.0017   7.0448   7.1405   7.3897   7.4201   7.4538
     7.9423   8.3935   8.8865   9.1962   9.5141   9.7590   9.8071  10.1858
    10.3104  10.5923  10.6831  10.7635  10.9159  11.0633  12.2810  12.7143
    13.4001  14.3257  16.9070  17.1162  17.3093  18.0169

     occupation numbers 
     0.1875   0.1875   0.1875   0.1875   0.1875   0.1875   0.1875   0.1875
     0.1875   0.1875   0.1875   0.1875   0.1875   0.1875   0.1875   0.1875
     0.1875   0.1875   0.1875   0.1875   0.1875   0.1875   0.1875   0.1875
     0.1875   0.1875   0.1875   0.1875   0.1875   0.1875   0.1875   0.1875
     0.1875   0.1875   0.1874   0.1872   0.1859   0.1818   0.0018   0.0000
     0.0000   0.0000   0.0000   0.0000   0.0000   0.0000

          k = 0.2471 0.4280 0.0000 (  2203 PWs)   bands (ev):

   -19.7413 -19.6932  -6.8463  -6.6407  -6.0524  -5.9785  -5.4395  -5.3690
    -3.5437  -3.2969  -2.8011  -2.7069  -2.5729  -2.5623   5.8276   6.0488
     6.5387   6.8571   6.9057   6.9604   7.2381   7.2888   7.3328   7.5816
     7.7177   8.6292   8.8933   9.3373   9.7225   9.7447  10.0153  10.3197
    10.3798  10.4465  10.6709  10.7106  10.7219  11.1470  12.1930  13.2910
    13.3707  14.1210  16.4359  16.9962  17.4220  17.9277

     occupation numbers 
     0.1875   0.1875   0.1875   0.1875   0.1875   0.1875   0.1875   0.1875
     0.1875   0.1875   0.1875   0.1875   0.1875   0.1875   0.1875   0.1875
     0.1875   0.1875   0.1875   0.1875   0.1875   0.1875   0.1875   0.1875
     0.1875   0.1875   0.1875   0.1875   0.1875   0.1875   0.1875   0.1875
     0.1875   0.1875   0.1874   0.1873   0.1873   0.1769   0.0039   0.0000
     0.0000   0.0000   0.0000   0.0000   0.0000   0.0000

          k = 0.4942-0.2853-0.4107 (  2202 PWs)   bands (ev):

   -19.7272 -19.7135  -7.1639  -6.4516  -6.2373  -5.9668  -5.5314  -5.2920
    -3.2043  -3.1150  -3.0529  -2.6464  -2.4780  -2.2200   5.6133   5.7477
     6.0815   6.7623   7.0504   7.1449   7.2543   7.3066   7.6863   7.6975
     8.1647   8.3013   8.6038   8.9122   9.4145   9.6757  10.0310  10.0642
    10.3821  10.4824  10.6582  10.8056  10.9237  11.1914  11.7930  12.3892
    13.3033  14.7594  17.0464  17.2690  17.5209  17.6144

     occupation numbers 
     0.0938   0.0938   0.0938   0.0938   0.0938   0.0938   0.0938   0.0938
     0.0938   0.0938   0.0938   0.0938   0.0938   0.0938   0.0938   0.0938
     0.0938   0.0938   0.0938   0.0938   0.0938   0.0938   0.0938   0.0938
     0.0938   0.0938   0.0938   0.0938   0.0937   0.0937   0.0937   0.0937
     0.0937   0.0937   0.0937   0.0935   0.0929   0.0866   0.0240   0.0003
     0.0000   0.0000   0.0000   0.0000   0.0000   0.0000

          k = 0.0000 0.0000 0.3080 (  2187 PWs)   bands (ev):

   -19.7672 -19.6576  -6.6158  -5.9869  -5.9398  -5.9398  -5.8412  -5.8412
    -3.2180  -3.1366  -3.1366  -2.9692  -2.8959  -2.8959   5.5972   6.5922
     6.8347   6.8347   6.9399   6.9399   7.0794   7.4663   7.4663   8.2167
     8.2167   8.5100   9.4382   9.4969   9.4969   9.7038  10.1037  10.1037
    10.2828  10.2828  10.5628  11.0630  11.0630  11.0903  12.2599  12.2599
    14.2360  14.2360  15.9142  15.9142  16.8805  17.4822

     occupation numbers 
     0.0625   0.0625   0.0625   0.0625   0.0625   0.0625   0.0625   0.0625
     0.0625   0.0625   0.0625   0.0625   0.0625   0.0625   0.0625   0.0625
     0.0625   0.0625   0.0625   0.0625   0.0625   0.0625   0.0625   0.0625
     0.0625   0.0625   0.0625   0.0625   0.0625   0.0625   0.0625   0.0625
     0.0625   0.0625   0.0625   0.0606   0.0606   0.0602   0.0007   0.0007
     0.0000   0.0000   0.0000   0.0000   0.0000   0.0000

          k = 0.7412 0.4280 0.0000 (  2204 PWs)   bands (ev):

   -19.7406 -19.6949  -6.7319  -6.6052  -6.1422  -5.8325  -5.6886  -5.5480
    -3.1911  -3.0964  -3.0438  -2.6762  -2.6605  -2.5843   5.8674   6.3130
     6.3777   6.8974   6.9650   7.0951   7.1567   7.2664   7.3811   7.5265
     7.8482   8.4773   8.8861   9.4337   9.4947   9.6688   9.8256  10.2133
    10.4053  10.5483  10.6877  10.7936  10.8506  10.9063  12.1919  13.2117
    13.2869  14.1489  16.6881  16.7275  17.5921  17.7963

     occupation numbers 
     0.1875   0.1875   0.1875   0.1875   0.1875   0.1875   0.1875   0.1875
     0.1875   0.1875   0.1875   0.1875   0.1875   0.1875   0.1875   0.1875
     0.1875   0.1875   0.1875   0.1875   0.1875   0.1875   0.1875   0.1875
     0.1875   0.1875   0.1875   0.1875   0.1875   0.1875   0.1875   0.1875
     0.1875   0.1875   0.1874   0.1870   0.1867   0.1860   0.0039   0.0000
     0.0000   0.0000   0.0000   0.0000   0.0000   0.0000

          k = 0.4942 0.2853 0.1027 (  2211 PWs)   bands (ev):

   -19.7303 -19.7076  -6.9701  -6.5423  -6.3222  -5.7004  -5.6231  -5.3576
    -3.3314  -3.1655  -3.0396  -2.6008  -2.5629  -2.3758   5.8141   6.0884
     6.1404   6.7586   7.0416   7.0437   7.2308   7.2678   7.4308   7.4722
     7.9841   8.4334   8.8738   9.3508   9.3636   9.6332   9.9529  10.0664
    10.3893  10.6499  10.7870  10.8225  10.8618  10.8920  12.2365  12.7283
    13.4470  14.3072  16.8875  16.9368  17.5805  17.9290

     occupation numbers 
     0.1875   0.1875   0.1875   0.1875   0.1875   0.1875   0.1875   0.1875
     0.1875   0.1875   0.1875   0.1875   0.1875   0.1875   0.1875   0.1875
     0.1875   0.1875   0.1875   0.1875   0.1875   0.1875   0.1875   0.1875
     0.1875   0.1875   0.1875   0.1875   0.1875   0.1875   0.1875   0.1875
     0.1875   0.1874   0.1871   0.1869   0.1866   0.1862   0.0027   0.0000
     0.0000   0.0000   0.0000   0.0000   0.0000   0.0000

          k = 0.7412-0.4280-0.3080 (  2210 PWs)   bands (ev):

   -19.7300 -19.7090  -6.9064  -6.4522  -6.3003  -5.7957  -5.7621  -5.4879
    -3.0738  -3.0585  -2.9652  -2.7307  -2.6234  -2.4262   5.9066   6.1566
     6.2306   6.7497   6.9706   7.0829   7.2933   7.3151   7.4364   7.5111
     7.9583   8.4393   8.7752   9.2920   9.4448   9.4822   9.6399  10.1183
    10.3604  10.6417  10.7377  10.8079  10.9382  10.9437  12.1967  12.6815
    13.3961  14.2772  17.0619  17.0714  17.5487  17.9041

     occupation numbers 
     0.1875   0.1875   0.1875   0.1875   0.1875   0.1875   0.1875   0.1875
     0.1875   0.1875   0.1875   0.1875   0.1875   0.1875   0.1875   0.1875
     0.1875   0.1875   0.1875   0.1875   0.1875   0.1875   0.1875   0.1875
     0.1875   0.1875   0.1875   0.1875   0.1875   0.1875   0.1875   0.1875
     0.1875   0.1874   0.1872   0.1870   0.1855   0.1854   0.0038   0.0000
     0.0000   0.0000   0.0000   0.0000   0.0000   0.0000

          k = 0.4942-0.5706-0.2053 (  2206 PWs)   bands (ev):

   -19.7208 -19.7208  -6.8856  -6.8716  -6.0341  -6.0328  -5.4289  -5.4262
    -3.1548  -3.1542  -2.8172  -2.8162  -2.3818  -2.3790   5.9834   5.9858
     6.3007   6.3019   6.9415   6.9432   7.2505   7.2516   7.4484   7.4573
     8.4895   8.4915   8.7878   8.7923   9.4750   9.4754  10.0052  10.0088
    10.4686  10.4747  10.6472  10.6557  10.9905  10.9963  12.2437  12.2503
    13.9717  13.9820  17.4278  17.4283  17.8712  17.8736

     occupation numbers 
     0.1875   0.1875   0.1875   0.1875   0.1875   0.1875   0.1875   0.1875
     0.1875   0.1875   0.1875   0.1875   0.1875   0.1875   0.1875   0.1875
     0.1875   0.1875   0.1875   0.1875   0.1875   0.1875   0.1875   0.1875
     0.1875   0.1875   0.1875   0.1875   0.1875   0.1875   0.1875   0.1875
     0.1875   0.1875   0.1874   0.1874   0.1844   0.1842   0.0025   0.0024
     0.0000   0.0000   0.0000   0.0000   0.0000   0.0000

          k = 0.0000 0.0000-0.6160 (  2186 PWs)   bands (ev):

   -19.7189 -19.7184  -6.5158  -6.5000  -5.9455  -5.9455  -5.9379  -5.9379
    -2.8980  -2.8980  -2.8976  -2.8976  -2.7025  -2.7023   6.1486   6.1508
     6.9635   6.9635   6.9695   6.9695   7.2152   7.2280   7.5404   7.5404
     7.5466   7.5466   9.5664   9.5664   9.5772   9.5772   9.6434   9.6560
    10.6196  10.6399  10.7322  10.7322  10.7533  10.7533  13.1996  13.1996
    13.2422  13.2422  17.1181  17.1181  17.1203  17.1203

     occupation numbers 
     0.0313   0.0313   0.0313   0.0313   0.0313   0.0313   0.0313   0.0313
     0.0313   0.0313   0.0313   0.0313   0.0313   0.0313   0.0313   0.0313
     0.0313   0.0313   0.0313   0.0313   0.0313   0.0313   0.0313   0.0313
     0.0313   0.0313   0.0312   0.0312   0.0312   0.0312   0.0312   0.0312
     0.0312   0.0312   0.0312   0.0312   0.0312   0.0312   0.0000   0.0000
     0.0000   0.0000   0.0000   0.0000   0.0000   0.0000

          k = 0.4942-0.5706 0.1027 (  2198 PWs)   bands (ev):

   -19.7295 -19.7085  -6.9540  -6.6448  -6.1308  -5.8912  -5.5136  -5.3834
    -3.3178  -3.2588  -2.8786  -2.7083  -2.5280  -2.3833   5.7779   6.0740
     6.2199   6.8138   7.0000   7.0454   7.1460   7.3830   7.4174   7.4574
     7.9466   8.3939   8.8851   9.1964   9.5117   9.7580   9.8072  10.1849
    10.3132  10.5864  10.6874  10.7621  10.9242  11.0582  12.2808  12.7141
    13.4001  14.3253  16.9089  17.1133  17.3099  18.0170

     occupation numbers 
     0.1875   0.1875   0.1875   0.1875   0.1875   0.1875   0.1875   0.1875
     0.1875   0.1875   0.1875   0.1875   0.1875   0.1875   0.1875   0.1875
     0.1875   0.1875   0.1875   0.1875   0.1875   0.1875   0.1875   0.1875
     0.1875   0.1875   0.1875   0.1875   0.1875   0.1875   0.1875   0.1875
     0.1875   0.1875   0.1874   0.1872   0.1858   0.1820   0.0018   0.0000
     0.0000   0.0000   0.0000   0.0000   0.0000   0.0000

     the Fermi energy is    11.6042 ev

!    total energy              =    -537.96912730 Ry
     Harris-Foulkes estimate   =    -537.96911526 Ry
     estimated scf accuracy    <          8.4E-09 Ry

     The total energy is the sum of the following terms:

     one-electron contribution =     -32.89101690 Ry
     hartree contribution      =      83.65221733 Ry
     xc contribution           =    -199.61364390 Ry
     ewald contribution        =    -389.44315552 Ry
     Hubbard energy            =       0.33476579 Ry
     smearing contrib. (-TS)   =      -0.00829408 Ry

     convergence has been achieved in  13 iterations

     init_run     :      7.75s CPU      7.89s WALL (       1 calls)
     electrons    :    209.12s CPU    210.95s WALL (       1 calls)

     Called by init_run:
     wfcinit      :      0.00s CPU      0.00s WALL (       1 calls)
     potinit      :      0.32s CPU      0.38s WALL (       1 calls)

     Called by electrons:
     c_bands      :    137.87s CPU    138.51s WALL (      13 calls)
     sum_band     :     43.60s CPU     43.85s WALL (      13 calls)
     v_of_rho     :      3.71s CPU      3.73s WALL (      14 calls)
     v_h          :      0.21s CPU      0.21s WALL (      14 calls)
     v_xc         :      3.51s CPU      3.52s WALL (      14 calls)
     newd         :     25.18s CPU     25.24s WALL (      14 calls)
     mix_rho      :      0.47s CPU      0.47s WALL (      13 calls)

     Called by c_bands:
     init_us_2    :      1.44s CPU      1.44s WALL (     364 calls)
     cegterg      :    134.08s CPU    134.40s WALL (     182 calls)

     Called by sum_band:
     sum_band:bec :      0.14s CPU      0.14s WALL (     182 calls)
     addusdens    :     16.28s CPU     16.28s WALL (      13 calls)

     Called by *egterg:
     h_psi        :    103.82s CPU    104.07s WALL (     689 calls)
     s_psi        :      5.00s CPU      5.01s WALL (     689 calls)
     g_psi        :      0.42s CPU      0.42s WALL (     507 calls)
     cdiaghg      :      8.04s CPU      8.04s WALL (     675 calls)
     cegterg:over :      5.87s CPU      5.88s WALL (     507 calls)
     cegterg:upda :      3.98s CPU      3.99s WALL (     507 calls)
     cegterg:last :      2.82s CPU      2.83s WALL (     207 calls)

     Called by h_psi:
     h_psi:vloc   :     87.45s CPU     87.69s WALL (     689 calls)
     h_psi:vnl    :     10.52s CPU     10.53s WALL (     689 calls)
     add_vuspsi   :      4.97s CPU      4.97s WALL (     689 calls)
     vhpsi        :      5.59s CPU      5.59s WALL (     689 calls)

     General routines
     calbec       :     11.46s CPU     11.50s WALL (    1742 calls)
     fft          :      2.63s CPU      2.71s WALL (     219 calls)
     ffts         :      0.07s CPU      0.10s WALL (      27 calls)
     fftw         :     79.90s CPU     80.09s WALL (   50618 calls)
     interpolate  :      0.42s CPU      0.47s WALL (      27 calls)
     davcio       :      0.01s CPU      0.48s WALL (     378 calls)

     Parallel routines
     fft_scatter  :     19.68s CPU     20.01s WALL (   50864 calls)
     Hubbard U routines
     new_ns       :      1.13s CPU      1.34s WALL (      13 calls)
     vhpsi        :      5.59s CPU      5.59s WALL (     689 calls)

     PWSCF        :  3m37.33s CPU     3m39.44s WALL


   This run was terminated on:  15: 6:11  11Nov2012            

=------------------------------------------------------------------------------=
