 
Job started on n18 at Tue Nov 13 15:00:07 EST 2012

     Program PWSCF v.5.0.1 starts on 13Nov2012 at 15: 0: 9 

     This program is part of the open-source Quantum ESPRESSO suite
     for quantum simulation of materials; please cite
         "P. Giannozzi et al., J. Phys.:Condens. Matter 21 395502 (2009);
          URL http://www.quantum-espresso.org", 
     in publications or presentations arising from this work. More details at
     http://www.quantum-espresso.org/quote.php

     Parallel version (MPI), running on     2 processors
     R & G space division:  proc/pool =    2

     Current dimensions of program PWSCF are:
     Max number of different atomic species (ntypx) = 10
     Max number of k-points (npk) =  40000
     Max angular momentum in pseudopotentials (lmaxx) =  3
     Reading input from NiO_U0_init.in
               file Ni.pbe-nd-rrkjus.UPF: wavefunction(s)  4S renormalized
               file Ni.pbe-nd-rrkjus.UPF: wavefunction(s)  4S renormalized
               file Ni.pbe-nd-rrkjus.UPF: wavefunction(s)  4S renormalized
               file O.pbe-rrkjus.UPF: wavefunction(s)  2S renormalized

     Subspace diagonalization in iterative solution of the eigenvalue problem:
     a serial algorithm will be used


     Parallelization info
     --------------------
     sticks:   dense  smooth     PW     G-vecs:    dense   smooth      PW
     Min        1293     519    150                43273    11032    1738
     Max        1294     520    151                43274    11043    1741
     Sum        2587    1039    301                86547    22075    3479


     Title: 
     GGA + U, U = 1D-40, init                                                   


     bravais-lattice index     =            2
     lattice parameter (alat)  =      15.8000  a.u.
     unit-cell volume          =     986.0780 (a.u.)^3
     number of atoms/cell      =           16
     number of atomic types    =            4
     number of electrons       =       128.00
     number of Kohn-Sham states=           77
     kinetic-energy cutoff     =      30.0000  Ry
     charge density cutoff     =     300.0000  Ry
     convergence threshold     =      1.0E-08
     mixing beta               =       0.3000
     number of iterations used =            8  plain     mixing
     Exchange-correlation      =  SLA  PW   PBE  PBE ( 1 4 3 4 0)
     EXX-fraction              =        0.00

     celldm(1)=  15.800000  celldm(2)=   0.000000  celldm(3)=   0.000000
     celldm(4)=   0.000000  celldm(5)=   0.000000  celldm(6)=   0.000000

     crystal axes: (cart. coord. in units of alat)
               a(1) = (  -0.500000   0.000000   0.500000 )  
               a(2) = (   0.000000   0.500000   0.500000 )  
               a(3) = (  -0.500000   0.500000   0.000000 )  

     reciprocal axes: (cart. coord. in units 2 pi/alat)
               b(1) = ( -1.000000 -1.000000  1.000000 )  
               b(2) = (  1.000000  1.000000  1.000000 )  
               b(3) = ( -1.000000  1.000000 -1.000000 )  


     PseudoPot. # 1 for Ni read from file:
     /home/mcurnan/dft-course/Project1/example_NiO/Ni.pbe-nd-rrkjus.UPF
     MD5 check sum: 8081f0a005c9a5470caab1a58e82ecb2
     Pseudo is Ultrasoft + core correction, Zval = 10.0
     Generated by new atomic code, or converted to UPF format
     Using radial grid of 1203 points,  6 beta functions with: 
                l(1) =   0
                l(2) =   0
                l(3) =   1
                l(4) =   1
                l(5) =   2
                l(6) =   2
     Q(r) pseudized with 0 coefficients 


     PseudoPot. # 2 for Ni read from file:
     /home/mcurnan/dft-course/Project1/example_NiO/Ni.pbe-nd-rrkjus.UPF
     MD5 check sum: 8081f0a005c9a5470caab1a58e82ecb2
     Pseudo is Ultrasoft + core correction, Zval = 10.0
     Generated by new atomic code, or converted to UPF format
     Using radial grid of 1203 points,  6 beta functions with: 
                l(1) =   0
                l(2) =   0
                l(3) =   1
                l(4) =   1
                l(5) =   2
                l(6) =   2
     Q(r) pseudized with 0 coefficients 


     PseudoPot. # 3 for Ni read from file:
     /home/mcurnan/dft-course/Project1/example_NiO/Ni.pbe-nd-rrkjus.UPF
     MD5 check sum: 8081f0a005c9a5470caab1a58e82ecb2
     Pseudo is Ultrasoft + core correction, Zval = 10.0
     Generated by new atomic code, or converted to UPF format
     Using radial grid of 1203 points,  6 beta functions with: 
                l(1) =   0
                l(2) =   0
                l(3) =   1
                l(4) =   1
                l(5) =   2
                l(6) =   2
     Q(r) pseudized with 0 coefficients 


     PseudoPot. # 4 for O  read from file:
     /home/mcurnan/dft-course/Project1/example_NiO/O.pbe-rrkjus.UPF
     MD5 check sum: 390ba29e75625707450f3bd3f0eb6be9
     Pseudo is Ultrasoft, Zval =  6.0
     Generated by new atomic code, or converted to UPF format
     Using radial grid of 1269 points,  4 beta functions with: 
                l(1) =   0
                l(2) =   0
                l(3) =   1
                l(4) =   1
     Q(r) pseudized with 0 coefficients 


     atomic species   valence    mass     pseudopotential
        Ni1           10.00     1.00000     Ni( 1.00)
        Ni2           10.00     1.00000     Ni( 1.00)
        Ni3           10.00     1.00000     Ni( 1.00)
        O1             6.00     1.00000     O ( 1.00)

     Starting magnetic structure 
     atomic species   magnetization
        Ni1          0.500
        Ni2          0.500
        Ni3         -0.500
        O1           0.000
 -----
     simplified LDA+U calculation, Hubbard_lmax = 2
     atomic species  L   Hubbard U  Hubbard alpha
        Ni1          2    0.000000    0.000000
        Ni2          2    0.000000    0.000000
        Ni3          2    0.000000    0.000000
        O1           1    0.000000    0.000000
 -----

     12 Sym. Ops., with inversion, found


                                    s                        frac. trans.

      isym =  1     identity                                     

 cryst.   s( 1) = (     1          0          0      )
                  (     0          1          0      )
                  (     0          0          1      )

 cart.    s( 1) = (  1.0000000  0.0000000  0.0000000 )
                  (  0.0000000  1.0000000  0.0000000 )
                  (  0.0000000  0.0000000  1.0000000 )


      isym =  2     180 deg rotation - cart. axis [1,1,0]        

 cryst.   s( 2) = (     0         -1          0      )
                  (    -1          0          0      )
                  (     0          0         -1      )

 cart.    s( 2) = (  0.0000000  1.0000000  0.0000000 )
                  (  1.0000000  0.0000000  0.0000000 )
                  (  0.0000000  0.0000000 -1.0000000 )


      isym =  3     180 deg rotation - cart. axis [1,0,1]        

 cryst.   s( 3) = (    -1          0          0      )
                  (     0          0         -1      )
                  (     0         -1          0      )

 cart.    s( 3) = (  0.0000000  0.0000000  1.0000000 )
                  (  0.0000000 -1.0000000  0.0000000 )
                  (  1.0000000  0.0000000  0.0000000 )


      isym =  4     180 deg rotation - cart. axis [0,1,-1]       

 cryst.   s( 4) = (     0          0         -1      )
                  (     0         -1          0      )
                  (    -1          0          0      )

 cart.    s( 4) = ( -1.0000000  0.0000000  0.0000000 )
                  (  0.0000000  0.0000000 -1.0000000 )
                  (  0.0000000 -1.0000000  0.0000000 )


      isym =  5     120 deg rotation - cart. axis [-1,1,1]       

 cryst.   s( 5) = (     0          1          0      )
                  (     0          0          1      )
                  (     1          0          0      )

 cart.    s( 5) = (  0.0000000 -1.0000000  0.0000000 )
                  (  0.0000000  0.0000000  1.0000000 )
                  ( -1.0000000  0.0000000  0.0000000 )


      isym =  6     120 deg rotation - cart. axis [1,-1,-1]      

 cryst.   s( 6) = (     0          0          1      )
                  (     1          0          0      )
                  (     0          1          0      )

 cart.    s( 6) = (  0.0000000  0.0000000 -1.0000000 )
                  ( -1.0000000  0.0000000  0.0000000 )
                  (  0.0000000  1.0000000  0.0000000 )


      isym =  7     inversion                                    

 cryst.   s( 7) = (    -1          0          0      )
                  (     0         -1          0      )
                  (     0          0         -1      )

 cart.    s( 7) = ( -1.0000000  0.0000000  0.0000000 )
                  (  0.0000000 -1.0000000  0.0000000 )
                  (  0.0000000  0.0000000 -1.0000000 )


      isym =  8     inv. 180 deg rotation - cart. axis [1,1,0]   

 cryst.   s( 8) = (     0          1          0      )
                  (     1          0          0      )
                  (     0          0          1      )

 cart.    s( 8) = (  0.0000000 -1.0000000  0.0000000 )
                  ( -1.0000000  0.0000000  0.0000000 )
                  (  0.0000000  0.0000000  1.0000000 )


      isym =  9     inv. 180 deg rotation - cart. axis [1,0,1]   

 cryst.   s( 9) = (     1          0          0      )
                  (     0          0          1      )
                  (     0          1          0      )

 cart.    s( 9) = (  0.0000000  0.0000000 -1.0000000 )
                  (  0.0000000  1.0000000  0.0000000 )
                  ( -1.0000000  0.0000000  0.0000000 )


      isym = 10     inv. 180 deg rotation - cart. axis [0,1,-1]  

 cryst.   s(10) = (     0          0          1      )
                  (     0          1          0      )
                  (     1          0          0      )

 cart.    s(10) = (  1.0000000  0.0000000  0.0000000 )
                  (  0.0000000  0.0000000  1.0000000 )
                  (  0.0000000  1.0000000  0.0000000 )


      isym = 11     inv. 120 deg rotation - cart. axis [-1,1,1]  

 cryst.   s(11) = (     0         -1          0      )
                  (     0          0         -1      )
                  (    -1          0          0      )

 cart.    s(11) = (  0.0000000  1.0000000  0.0000000 )
                  (  0.0000000  0.0000000 -1.0000000 )
                  (  1.0000000  0.0000000  0.0000000 )


      isym = 12     inv. 120 deg rotation - cart. axis [1,-1,-1] 

 cryst.   s(12) = (     0          0         -1      )
                  (    -1          0          0      )
                  (     0         -1          0      )

 cart.    s(12) = (  0.0000000  0.0000000  1.0000000 )
                  (  1.0000000  0.0000000  0.0000000 )
                  (  0.0000000 -1.0000000  0.0000000 )


     point group D_3d (-3m) 
     there are  6 classes
     the character table:

       E     2C3   3C2'  i     2S6   3s_d 
A_1g   1.00  1.00  1.00  1.00  1.00  1.00
A_2g   1.00  1.00 -1.00  1.00  1.00 -1.00
E_g    2.00 -1.00  0.00  2.00 -1.00  0.00
A_1u   1.00  1.00  1.00 -1.00 -1.00 -1.00
A_2u   1.00  1.00 -1.00 -1.00 -1.00  1.00
E_u    2.00 -1.00  0.00 -2.00  1.00  0.00

     the symmetry operations in each class:
     E        1
     3C2'     2    4    3
     2C3      5    6
     i        7
     3s_d     8   10    9
     2S6     11   12

   Cartesian axes

     site n.     atom                  positions (alat units)
         1           Ni1 tau(   1) = (   0.0000000   0.0000000   0.0000000  )
         2           Ni2 tau(   2) = (  -0.2500000   0.2500000   0.5000000  )
         3           Ni2 tau(   3) = (  -0.5000000   0.2500000   0.2500000  )
         4           Ni2 tau(   4) = (  -0.2500000   0.5000000   0.2500000  )
         5           Ni3 tau(   5) = (  -0.2500000   0.0000000   0.2500000  )
         6           Ni3 tau(   6) = (   0.0000000   0.2500000   0.2500000  )
         7           Ni3 tau(   7) = (  -0.2500000   0.2500000   0.0000000  )
         8           Ni3 tau(   8) = (  -0.5000000   0.5000000   0.5000000  )
         9           O1  tau(   9) = (   0.0000000   0.2500000   0.0000000  )
        10           O1  tau(  10) = (  -0.2500000   0.2500000   0.2500000  )
        11           O1  tau(  11) = (  -0.2500000   0.5000000   0.0000000  )
        12           O1  tau(  12) = (   0.0000000   0.5000000   0.2500000  )
        13           O1  tau(  13) = (  -0.2500000   0.5000000   0.5000000  )
        14           O1  tau(  14) = (  -0.5000000   0.5000000   0.2500000  )
        15           O1  tau(  15) = (  -0.2500000   0.7500000   0.2500000  )
        16           O1  tau(  16) = (  -0.5000000   0.7500000   0.5000000  )

   Crystallographic axes

     site n.     atom                  positions (cryst. coord.)
         1           Ni1 tau(   1) = (  0.0000000  0.0000000  0.0000000  )
         2           Ni2 tau(   2) = (  0.5000000  0.5000000  0.0000000  )
         3           Ni2 tau(   3) = (  0.5000000  0.0000000  0.5000000  )
         4           Ni2 tau(   4) = (  0.0000000  0.5000000  0.5000000  )
         5           Ni3 tau(   5) = (  0.5000000  0.0000000  0.0000000  )
         6           Ni3 tau(   6) = (  0.0000000  0.5000000  0.0000000  )
         7           Ni3 tau(   7) = (  0.0000000  0.0000000  0.5000000  )
         8           Ni3 tau(   8) = (  0.5000000  0.5000000  0.5000000  )
         9           O1  tau(   9) = ( -0.2500000  0.2500000  0.2500000  )
        10           O1  tau(  10) = (  0.2500000  0.2500000  0.2500000  )
        11           O1  tau(  11) = ( -0.2500000  0.2500000  0.7500000  )
        12           O1  tau(  12) = ( -0.2500000  0.7500000  0.2500000  )
        13           O1  tau(  13) = (  0.2500000  0.7500000  0.2500000  )
        14           O1  tau(  14) = (  0.2500000  0.2500000  0.7500000  )
        15           O1  tau(  15) = ( -0.2500000  0.7500000  0.7500000  )
        16           O1  tau(  16) = (  0.2500000  0.7500000  0.7500000  )

     number of k points=    26  gaussian smearing, width (Ry)=  0.0100
                       cart. coord. in units 2pi/alat
        k(    1) = (   0.0000000   0.0000000   0.0000000), wk =   0.0156250
        k(    2) = (  -0.2500000   0.2500000  -0.2500000), wk =   0.0937500
        k(    3) = (   0.5000000  -0.5000000   0.5000000), wk =   0.0468750
        k(    4) = (   0.0000000   0.5000000   0.0000000), wk =   0.0937500
        k(    5) = (   0.7500000  -0.2500000   0.7500000), wk =   0.1875000
        k(    6) = (   0.5000000   0.0000000   0.5000000), wk =   0.0937500
        k(    7) = (   0.0000000  -1.0000000   0.0000000), wk =   0.0468750
        k(    8) = (  -0.5000000  -1.0000000   0.0000000), wk =   0.0937500
        k(    9) = (  -0.2500000   0.2500000   0.2500000), wk =   0.0312500
        k(   10) = (   0.5000000  -0.5000000  -0.5000000), wk =   0.0156250
        k(   11) = (  -0.7500000   0.7500000  -0.2500000), wk =   0.0937500
        k(   12) = (   0.7500000  -0.7500000  -0.2500000), wk =   0.0937500
        k(   13) = (  -0.5000000   0.5000000   0.0000000), wk =   0.0937500
        k(   14) = (   0.0000000   0.0000000   0.0000000), wk =   0.0156250
        k(   15) = (  -0.2500000   0.2500000  -0.2500000), wk =   0.0937500
        k(   16) = (   0.5000000  -0.5000000   0.5000000), wk =   0.0468750
        k(   17) = (   0.0000000   0.5000000   0.0000000), wk =   0.0937500
        k(   18) = (   0.7500000  -0.2500000   0.7500000), wk =   0.1875000
        k(   19) = (   0.5000000   0.0000000   0.5000000), wk =   0.0937500
        k(   20) = (   0.0000000  -1.0000000   0.0000000), wk =   0.0468750
        k(   21) = (  -0.5000000  -1.0000000   0.0000000), wk =   0.0937500
        k(   22) = (  -0.2500000   0.2500000   0.2500000), wk =   0.0312500
        k(   23) = (   0.5000000  -0.5000000  -0.5000000), wk =   0.0156250
        k(   24) = (  -0.7500000   0.7500000  -0.2500000), wk =   0.0937500
        k(   25) = (   0.7500000  -0.7500000  -0.2500000), wk =   0.0937500
        k(   26) = (  -0.5000000   0.5000000   0.0000000), wk =   0.0937500

                       cryst. coord.
        k(    1) = (   0.0000000   0.0000000   0.0000000), wk =   0.0156250
        k(    2) = (   0.0000000   0.0000000   0.2500000), wk =   0.0937500
        k(    3) = (   0.0000000   0.0000000  -0.5000000), wk =   0.0468750
        k(    4) = (   0.0000000   0.2500000   0.2500000), wk =   0.0937500
        k(    5) = (   0.0000000   0.2500000  -0.5000000), wk =   0.1875000
        k(    6) = (   0.0000000   0.2500000  -0.2500000), wk =   0.0937500
        k(    7) = (   0.0000000  -0.5000000  -0.5000000), wk =   0.0468750
        k(    8) = (   0.2500000  -0.5000000  -0.2500000), wk =   0.0937500
        k(    9) = (   0.2500000   0.2500000   0.2500000), wk =   0.0312500
        k(   10) = (  -0.5000000  -0.5000000  -0.5000000), wk =   0.0156250
        k(   11) = (   0.2500000   0.2500000   0.7500000), wk =   0.0937500
        k(   12) = (  -0.5000000  -0.5000000  -0.7500000), wk =   0.0937500
        k(   13) = (   0.2500000   0.2500000   0.5000000), wk =   0.0937500
        k(   14) = (   0.0000000   0.0000000   0.0000000), wk =   0.0156250
        k(   15) = (   0.0000000   0.0000000   0.2500000), wk =   0.0937500
        k(   16) = (   0.0000000   0.0000000  -0.5000000), wk =   0.0468750
        k(   17) = (   0.0000000   0.2500000   0.2500000), wk =   0.0937500
        k(   18) = (   0.0000000   0.2500000  -0.5000000), wk =   0.1875000
        k(   19) = (   0.0000000   0.2500000  -0.2500000), wk =   0.0937500
        k(   20) = (   0.0000000  -0.5000000  -0.5000000), wk =   0.0468750
        k(   21) = (   0.2500000  -0.5000000  -0.2500000), wk =   0.0937500
        k(   22) = (   0.2500000   0.2500000   0.2500000), wk =   0.0312500
        k(   23) = (  -0.5000000  -0.5000000  -0.5000000), wk =   0.0156250
        k(   24) = (   0.2500000   0.2500000   0.7500000), wk =   0.0937500
        k(   25) = (  -0.5000000  -0.5000000  -0.7500000), wk =   0.0937500
        k(   26) = (   0.2500000   0.2500000   0.5000000), wk =   0.0937500

     Dense  grid:    86547 G-vectors     FFT dimensions: (  64,  64,  64)

     Smooth grid:    22075 G-vectors     FFT dimensions: (  40,  40,  40)

     Largest allocated arrays     est. size (Mb)     dimensions
        Kohn-Sham Wavefunctions         1.64 Mb     (   1395,   77)
        Atomic wavefunctions            1.70 Mb     (   1395,   80)
        NL pseudopotentials             4.43 Mb     (   1395,  208)
        Each V/rho on FFT grid          4.00 Mb     ( 131072,   2)
        Each G-vector array             0.33 Mb     (  43274)
        G-vector shells                 0.00 Mb     (    635)
     Largest temporary arrays     est. size (Mb)     dimensions
        Auxiliary wavefunctions         6.56 Mb     (   1395,  308)
        Each subspace H/S matrix        1.45 Mb     ( 308, 308)
        Each <psi_i|beta_j> matrix      0.24 Mb     (    208,   77)
        Arrays for rho mixing          16.00 Mb     ( 131072,   8)

     Check: negative/imaginary core charge=   -0.000047    0.000000

     Initial potential from superposition of free atoms

     starting charge  127.99632, renormalised to  128.00000
 --- in v_hubbard ---
Hubbard energy    0.0000
 -------
     Number of +U iterations with fixed ns =  0
     Starting occupations:
 --- enter write_ns ---
 LDA+U parameters:
U( 1)     =  0.00000000
alpha( 1) =  0.00000000
U( 2)     =  0.00000000
alpha( 2) =  0.00000000
U( 3)     =  0.00000000
alpha( 3) =  0.00000000
U( 4)     =  0.00000000
alpha( 4) =  0.00000000
atom    1   Tr[ns(na)] (up, down, total) =   5.00000  3.00000  8.00000
   spin  1
    eigenvalues: 
  1.000  1.000  1.000  1.000  1.000
    eigenvectors:
  1.000  0.000  0.000  0.000  0.000
  0.000  1.000  0.000  0.000  0.000
  0.000  0.000  1.000  0.000  0.000
  0.000  0.000  0.000  1.000  0.000
  0.000  0.000  0.000  0.000  1.000
    occupations:
  1.000  0.000  0.000  0.000  0.000
  0.000  1.000  0.000  0.000  0.000
  0.000  0.000  1.000  0.000  0.000
  0.000  0.000  0.000  1.000  0.000
  0.000  0.000  0.000  0.000  1.000
   spin  2
    eigenvalues: 
  0.600  0.600  0.600  0.600  0.600
    eigenvectors:
  1.000  0.000  0.000  0.000  0.000
  0.000  1.000  0.000  0.000  0.000
  0.000  0.000  1.000  0.000  0.000
  0.000  0.000  0.000  1.000  0.000
  0.000  0.000  0.000  0.000  1.000
    occupations:
  0.600  0.000  0.000  0.000  0.000
  0.000  0.600  0.000  0.000  0.000
  0.000  0.000  0.600  0.000  0.000
  0.000  0.000  0.000  0.600  0.000
  0.000  0.000  0.000  0.000  0.600
atomic mag. moment =     2.000000
atom    2   Tr[ns(na)] (up, down, total) =   5.00000  3.00000  8.00000
   spin  1
    eigenvalues: 
  1.000  1.000  1.000  1.000  1.000
    eigenvectors:
  1.000  0.000  0.000  0.000  0.000
  0.000  1.000  0.000  0.000  0.000
  0.000  0.000  1.000  0.000  0.000
  0.000  0.000  0.000  1.000  0.000
  0.000  0.000  0.000  0.000  1.000
    occupations:
  1.000  0.000  0.000  0.000  0.000
  0.000  1.000  0.000  0.000  0.000
  0.000  0.000  1.000  0.000  0.000
  0.000  0.000  0.000  1.000  0.000
  0.000  0.000  0.000  0.000  1.000
   spin  2
    eigenvalues: 
  0.600  0.600  0.600  0.600  0.600
    eigenvectors:
  1.000  0.000  0.000  0.000  0.000
  0.000  1.000  0.000  0.000  0.000
  0.000  0.000  1.000  0.000  0.000
  0.000  0.000  0.000  1.000  0.000
  0.000  0.000  0.000  0.000  1.000
    occupations:
  0.600  0.000  0.000  0.000  0.000
  0.000  0.600  0.000  0.000  0.000
  0.000  0.000  0.600  0.000  0.000
  0.000  0.000  0.000  0.600  0.000
  0.000  0.000  0.000  0.000  0.600
atomic mag. moment =     2.000000
atom    3   Tr[ns(na)] (up, down, total) =   5.00000  3.00000  8.00000
   spin  1
    eigenvalues: 
  1.000  1.000  1.000  1.000  1.000
    eigenvectors:
  1.000  0.000  0.000  0.000  0.000
  0.000  1.000  0.000  0.000  0.000
  0.000  0.000  1.000  0.000  0.000
  0.000  0.000  0.000  1.000  0.000
  0.000  0.000  0.000  0.000  1.000
    occupations:
  1.000  0.000  0.000  0.000  0.000
  0.000  1.000  0.000  0.000  0.000
  0.000  0.000  1.000  0.000  0.000
  0.000  0.000  0.000  1.000  0.000
  0.000  0.000  0.000  0.000  1.000
   spin  2
    eigenvalues: 
  0.600  0.600  0.600  0.600  0.600
    eigenvectors:
  1.000  0.000  0.000  0.000  0.000
  0.000  1.000  0.000  0.000  0.000
  0.000  0.000  1.000  0.000  0.000
  0.000  0.000  0.000  1.000  0.000
  0.000  0.000  0.000  0.000  1.000
    occupations:
  0.600  0.000  0.000  0.000  0.000
  0.000  0.600  0.000  0.000  0.000
  0.000  0.000  0.600  0.000  0.000
  0.000  0.000  0.000  0.600  0.000
  0.000  0.000  0.000  0.000  0.600
atomic mag. moment =     2.000000
atom    4   Tr[ns(na)] (up, down, total) =   5.00000  3.00000  8.00000
   spin  1
    eigenvalues: 
  1.000  1.000  1.000  1.000  1.000
    eigenvectors:
  1.000  0.000  0.000  0.000  0.000
  0.000  1.000  0.000  0.000  0.000
  0.000  0.000  1.000  0.000  0.000
  0.000  0.000  0.000  1.000  0.000
  0.000  0.000  0.000  0.000  1.000
    occupations:
  1.000  0.000  0.000  0.000  0.000
  0.000  1.000  0.000  0.000  0.000
  0.000  0.000  1.000  0.000  0.000
  0.000  0.000  0.000  1.000  0.000
  0.000  0.000  0.000  0.000  1.000
   spin  2
    eigenvalues: 
  0.600  0.600  0.600  0.600  0.600
    eigenvectors:
  1.000  0.000  0.000  0.000  0.000
  0.000  1.000  0.000  0.000  0.000
  0.000  0.000  1.000  0.000  0.000
  0.000  0.000  0.000  1.000  0.000
  0.000  0.000  0.000  0.000  1.000
    occupations:
  0.600  0.000  0.000  0.000  0.000
  0.000  0.600  0.000  0.000  0.000
  0.000  0.000  0.600  0.000  0.000
  0.000  0.000  0.000  0.600  0.000
  0.000  0.000  0.000  0.000  0.600
atomic mag. moment =     2.000000
atom    5   Tr[ns(na)] (up, down, total) =   3.00000  5.00000  8.00000
   spin  1
    eigenvalues: 
  0.600  0.600  0.600  0.600  0.600
    eigenvectors:
  1.000  0.000  0.000  0.000  0.000
  0.000  1.000  0.000  0.000  0.000
  0.000  0.000  1.000  0.000  0.000
  0.000  0.000  0.000  1.000  0.000
  0.000  0.000  0.000  0.000  1.000
    occupations:
  0.600  0.000  0.000  0.000  0.000
  0.000  0.600  0.000  0.000  0.000
  0.000  0.000  0.600  0.000  0.000
  0.000  0.000  0.000  0.600  0.000
  0.000  0.000  0.000  0.000  0.600
   spin  2
    eigenvalues: 
  1.000  1.000  1.000  1.000  1.000
    eigenvectors:
  1.000  0.000  0.000  0.000  0.000
  0.000  1.000  0.000  0.000  0.000
  0.000  0.000  1.000  0.000  0.000
  0.000  0.000  0.000  1.000  0.000
  0.000  0.000  0.000  0.000  1.000
    occupations:
  1.000  0.000  0.000  0.000  0.000
  0.000  1.000  0.000  0.000  0.000
  0.000  0.000  1.000  0.000  0.000
  0.000  0.000  0.000  1.000  0.000
  0.000  0.000  0.000  0.000  1.000
atomic mag. moment =    -2.000000
atom    6   Tr[ns(na)] (up, down, total) =   3.00000  5.00000  8.00000
   spin  1
    eigenvalues: 
  0.600  0.600  0.600  0.600  0.600
    eigenvectors:
  1.000  0.000  0.000  0.000  0.000
  0.000  1.000  0.000  0.000  0.000
  0.000  0.000  1.000  0.000  0.000
  0.000  0.000  0.000  1.000  0.000
  0.000  0.000  0.000  0.000  1.000
    occupations:
  0.600  0.000  0.000  0.000  0.000
  0.000  0.600  0.000  0.000  0.000
  0.000  0.000  0.600  0.000  0.000
  0.000  0.000  0.000  0.600  0.000
  0.000  0.000  0.000  0.000  0.600
   spin  2
    eigenvalues: 
  1.000  1.000  1.000  1.000  1.000
    eigenvectors:
  1.000  0.000  0.000  0.000  0.000
  0.000  1.000  0.000  0.000  0.000
  0.000  0.000  1.000  0.000  0.000
  0.000  0.000  0.000  1.000  0.000
  0.000  0.000  0.000  0.000  1.000
    occupations:
  1.000  0.000  0.000  0.000  0.000
  0.000  1.000  0.000  0.000  0.000
  0.000  0.000  1.000  0.000  0.000
  0.000  0.000  0.000  1.000  0.000
  0.000  0.000  0.000  0.000  1.000
atomic mag. moment =    -2.000000
atom    7   Tr[ns(na)] (up, down, total) =   3.00000  5.00000  8.00000
   spin  1
    eigenvalues: 
  0.600  0.600  0.600  0.600  0.600
    eigenvectors:
  1.000  0.000  0.000  0.000  0.000
  0.000  1.000  0.000  0.000  0.000
  0.000  0.000  1.000  0.000  0.000
  0.000  0.000  0.000  1.000  0.000
  0.000  0.000  0.000  0.000  1.000
    occupations:
  0.600  0.000  0.000  0.000  0.000
  0.000  0.600  0.000  0.000  0.000
  0.000  0.000  0.600  0.000  0.000
  0.000  0.000  0.000  0.600  0.000
  0.000  0.000  0.000  0.000  0.600
   spin  2
    eigenvalues: 
  1.000  1.000  1.000  1.000  1.000
    eigenvectors:
  1.000  0.000  0.000  0.000  0.000
  0.000  1.000  0.000  0.000  0.000
  0.000  0.000  1.000  0.000  0.000
  0.000  0.000  0.000  1.000  0.000
  0.000  0.000  0.000  0.000  1.000
    occupations:
  1.000  0.000  0.000  0.000  0.000
  0.000  1.000  0.000  0.000  0.000
  0.000  0.000  1.000  0.000  0.000
  0.000  0.000  0.000  1.000  0.000
  0.000  0.000  0.000  0.000  1.000
atomic mag. moment =    -2.000000
atom    8   Tr[ns(na)] (up, down, total) =   3.00000  5.00000  8.00000
   spin  1
    eigenvalues: 
  0.600  0.600  0.600  0.600  0.600
    eigenvectors:
  1.000  0.000  0.000  0.000  0.000
  0.000  1.000  0.000  0.000  0.000
  0.000  0.000  1.000  0.000  0.000
  0.000  0.000  0.000  1.000  0.000
  0.000  0.000  0.000  0.000  1.000
    occupations:
  0.600  0.000  0.000  0.000  0.000
  0.000  0.600  0.000  0.000  0.000
  0.000  0.000  0.600  0.000  0.000
  0.000  0.000  0.000  0.600  0.000
  0.000  0.000  0.000  0.000  0.600
   spin  2
    eigenvalues: 
  1.000  1.000  1.000  1.000  1.000
    eigenvectors:
  1.000  0.000  0.000  0.000  0.000
  0.000  1.000  0.000  0.000  0.000
  0.000  0.000  1.000  0.000  0.000
  0.000  0.000  0.000  1.000  0.000
  0.000  0.000  0.000  0.000  1.000
    occupations:
  1.000  0.000  0.000  0.000  0.000
  0.000  1.000  0.000  0.000  0.000
  0.000  0.000  1.000  0.000  0.000
  0.000  0.000  0.000  1.000  0.000
  0.000  0.000  0.000  0.000  1.000
atomic mag. moment =    -2.000000
atom    9   Tr[ns(na)] (up, down, total) =   2.00000  2.00000  4.00000
   spin  1
    eigenvalues: 
  0.667  0.667  0.667
    eigenvectors:
  1.000  0.000  0.000
  0.000  1.000  0.000
  0.000  0.000  1.000
    occupations:
  0.667  0.000  0.000
  0.000  0.667  0.000
  0.000  0.000  0.667
   spin  2
    eigenvalues: 
  0.667  0.667  0.667
    eigenvectors:
  1.000  0.000  0.000
  0.000  1.000  0.000
  0.000  0.000  1.000
    occupations:
  0.667  0.000  0.000
  0.000  0.667  0.000
  0.000  0.000  0.667
atomic mag. moment =     0.000000
atom   10   Tr[ns(na)] (up, down, total) =   2.00000  2.00000  4.00000
   spin  1
    eigenvalues: 
  0.667  0.667  0.667
    eigenvectors:
  1.000  0.000  0.000
  0.000  1.000  0.000
  0.000  0.000  1.000
    occupations:
  0.667  0.000  0.000
  0.000  0.667  0.000
  0.000  0.000  0.667
   spin  2
    eigenvalues: 
  0.667  0.667  0.667
    eigenvectors:
  1.000  0.000  0.000
  0.000  1.000  0.000
  0.000  0.000  1.000
    occupations:
  0.667  0.000  0.000
  0.000  0.667  0.000
  0.000  0.000  0.667
atomic mag. moment =     0.000000
atom   11   Tr[ns(na)] (up, down, total) =   2.00000  2.00000  4.00000
   spin  1
    eigenvalues: 
  0.667  0.667  0.667
    eigenvectors:
  1.000  0.000  0.000
  0.000  1.000  0.000
  0.000  0.000  1.000
    occupations:
  0.667  0.000  0.000
  0.000  0.667  0.000
  0.000  0.000  0.667
   spin  2
    eigenvalues: 
  0.667  0.667  0.667
    eigenvectors:
  1.000  0.000  0.000
  0.000  1.000  0.000
  0.000  0.000  1.000
    occupations:
  0.667  0.000  0.000
  0.000  0.667  0.000
  0.000  0.000  0.667
atomic mag. moment =     0.000000
atom   12   Tr[ns(na)] (up, down, total) =   2.00000  2.00000  4.00000
   spin  1
    eigenvalues: 
  0.667  0.667  0.667
    eigenvectors:
  1.000  0.000  0.000
  0.000  1.000  0.000
  0.000  0.000  1.000
    occupations:
  0.667  0.000  0.000
  0.000  0.667  0.000
  0.000  0.000  0.667
   spin  2
    eigenvalues: 
  0.667  0.667  0.667
    eigenvectors:
  1.000  0.000  0.000
  0.000  1.000  0.000
  0.000  0.000  1.000
    occupations:
  0.667  0.000  0.000
  0.000  0.667  0.000
  0.000  0.000  0.667
atomic mag. moment =     0.000000
atom   13   Tr[ns(na)] (up, down, total) =   2.00000  2.00000  4.00000
   spin  1
    eigenvalues: 
  0.667  0.667  0.667
    eigenvectors:
  1.000  0.000  0.000
  0.000  1.000  0.000
  0.000  0.000  1.000
    occupations:
  0.667  0.000  0.000
  0.000  0.667  0.000
  0.000  0.000  0.667
   spin  2
    eigenvalues: 
  0.667  0.667  0.667
    eigenvectors:
  1.000  0.000  0.000
  0.000  1.000  0.000
  0.000  0.000  1.000
    occupations:
  0.667  0.000  0.000
  0.000  0.667  0.000
  0.000  0.000  0.667
atomic mag. moment =     0.000000
atom   14   Tr[ns(na)] (up, down, total) =   2.00000  2.00000  4.00000
   spin  1
    eigenvalues: 
  0.667  0.667  0.667
    eigenvectors:
  1.000  0.000  0.000
  0.000  1.000  0.000
  0.000  0.000  1.000
    occupations:
  0.667  0.000  0.000
  0.000  0.667  0.000
  0.000  0.000  0.667
   spin  2
    eigenvalues: 
  0.667  0.667  0.667
    eigenvectors:
  1.000  0.000  0.000
  0.000  1.000  0.000
  0.000  0.000  1.000
    occupations:
  0.667  0.000  0.000
  0.000  0.667  0.000
  0.000  0.000  0.667
atomic mag. moment =     0.000000
atom   15   Tr[ns(na)] (up, down, total) =   2.00000  2.00000  4.00000
   spin  1
    eigenvalues: 
  0.667  0.667  0.667
    eigenvectors:
  1.000  0.000  0.000
  0.000  1.000  0.000
  0.000  0.000  1.000
    occupations:
  0.667  0.000  0.000
  0.000  0.667  0.000
  0.000  0.000  0.667
   spin  2
    eigenvalues: 
  0.667  0.667  0.667
    eigenvectors:
  1.000  0.000  0.000
  0.000  1.000  0.000
  0.000  0.000  1.000
    occupations:
  0.667  0.000  0.000
  0.000  0.667  0.000
  0.000  0.000  0.667
atomic mag. moment =     0.000000
atom   16   Tr[ns(na)] (up, down, total) =   2.00000  2.00000  4.00000
   spin  1
    eigenvalues: 
  0.667  0.667  0.667
    eigenvectors:
  1.000  0.000  0.000
  0.000  1.000  0.000
  0.000  0.000  1.000
    occupations:
  0.667  0.000  0.000
  0.000  0.667  0.000
  0.000  0.000  0.667
   spin  2
    eigenvalues: 
  0.667  0.667  0.667
    eigenvectors:
  1.000  0.000  0.000
  0.000  1.000  0.000
  0.000  0.000  1.000
    occupations:
  0.667  0.000  0.000
  0.000  0.667  0.000
  0.000  0.000  0.667
atomic mag. moment =     0.000000
N of occupied +U levels =  96.0000000
 --- exit write_ns ---
 Atomic wfc used for LDA+U Projector are NOT orthogonalized
     Starting wfc are   80 randomized atomic wfcs

     total cpu time spent up to now is       25.9 secs

     per-process dynamical memory:    59.9 Mb

     Self-consistent Calculation

     iteration #  1     ecut=    30.00 Ry     beta=0.30
     Davidson diagonalization with overlap
     ethr =  1.00E-02,  avg # of iterations =  3.1
 --- enter write_ns ---
 LDA+U parameters:
U( 1)     =  0.00000000
alpha( 1) =  0.00000000
U( 2)     =  0.00000000
alpha( 2) =  0.00000000
U( 3)     =  0.00000000
alpha( 3) =  0.00000000
U( 4)     =  0.00000000
alpha( 4) =  0.00000000
atom    1   Tr[ns(na)] (up, down, total) =   4.98475  3.08067  8.06542
   spin  1
    eigenvalues: 
  0.995  0.995  0.998  0.998  0.998
    eigenvectors:
  0.037  0.962  0.000  0.000  0.000
  0.000  0.000  0.034  0.632  0.333
  0.000  0.000  0.610  0.056  0.333
  0.962  0.037  0.000  0.000  0.000
  0.000  0.000  0.355  0.312  0.333
    occupations:
  0.995  0.000  0.000  0.000  0.000
  0.000  0.998  0.000  0.000  0.000
  0.000  0.000  0.998  0.000  0.000
  0.000  0.000  0.000  0.995  0.000
  0.000  0.000  0.000  0.000  0.998
   spin  2
    eigenvalues: 
  0.241  0.241  0.851  0.851  0.896
    eigenvectors:
  0.054  0.946  0.000  0.000  0.000
  0.000  0.000  0.046  0.620  0.333
  0.000  0.000  0.623  0.043  0.333
  0.946  0.054  0.000  0.000  0.000
  0.000  0.000  0.331  0.336  0.333
    occupations:
  0.241 -0.005  0.005  0.000 -0.010
 -0.005  0.866 -0.015 -0.009 -0.015
  0.005 -0.015  0.866 -0.009  0.015
  0.000 -0.009 -0.009  0.241  0.000
 -0.010 -0.015  0.015  0.000  0.866
atomic mag. moment =     1.904082
atom    2   Tr[ns(na)] (up, down, total) =   4.98475  3.08061  8.06536
   spin  1
    eigenvalues: 
  0.995  0.995  0.998  0.998  0.998
    eigenvectors:
  0.000  0.999  0.001  0.000  0.000
  0.000  0.000  0.167  0.500  0.333
  0.000  0.000  0.167  0.500  0.333
  0.999  0.000  0.000  0.001  0.000
  0.000  0.000  0.665  0.000  0.334
    occupations:
  0.995  0.000  0.000  0.000  0.000
  0.000  0.998  0.000  0.000  0.000
  0.000  0.000  0.998  0.000  0.000
  0.000  0.000  0.000  0.995  0.000
  0.000  0.000  0.000  0.000  0.998
   spin  2
    eigenvalues: 
  0.241  0.241  0.851  0.851  0.896
    eigenvectors:
  0.000  1.000  0.000  0.000  0.000
  0.000  0.000  0.500  0.167  0.333
  0.000  0.000  0.500  0.167  0.333
  1.000  0.000  0.000  0.000  0.000
  0.000  0.000  0.000  0.666  0.333
    occupations:
  0.241 -0.005  0.005  0.000 -0.010
 -0.005  0.866 -0.015 -0.009 -0.015
  0.005 -0.015  0.866 -0.009  0.015
  0.000 -0.009 -0.009  0.241  0.000
 -0.010 -0.015  0.015  0.000  0.866
atomic mag. moment =     1.904131
atom    3   Tr[ns(na)] (up, down, total) =   4.98475  3.08061  8.06536
   spin  1
    eigenvalues: 
  0.995  0.995  0.998  0.998  0.998
    eigenvectors:
  0.750  0.250  0.000  0.000  0.000
  0.000  0.000  0.167  0.500  0.333
  0.000  0.000  0.665  0.000  0.334
  0.250  0.750  0.000  0.000  0.000
  0.000  0.000  0.167  0.500  0.333
    occupations:
  0.995  0.000  0.000  0.000  0.000
  0.000  0.998  0.000  0.000  0.000
  0.000  0.000  0.998  0.000  0.000
  0.000  0.000  0.000  0.995  0.000
  0.000  0.000  0.000  0.000  0.998
   spin  2
    eigenvalues: 
  0.241  0.241  0.851  0.851  0.896
    eigenvectors:
  0.750  0.250  0.000  0.000  0.000
  0.000  0.000  0.500  0.167  0.333
  0.000  0.000  0.000  0.666  0.333
  0.250  0.750  0.000  0.000  0.000
  0.000  0.000  0.500  0.167  0.333
    occupations:
  0.241 -0.005  0.005  0.000 -0.010
 -0.005  0.866 -0.015 -0.009 -0.015
  0.005 -0.015  0.866 -0.009  0.015
  0.000 -0.009 -0.009  0.241  0.000
 -0.010 -0.015  0.015  0.000  0.866
atomic mag. moment =     1.904131
atom    4   Tr[ns(na)] (up, down, total) =   4.98475  3.08061  8.06536
   spin  1
    eigenvalues: 
  0.995  0.995  0.998  0.998  0.998
    eigenvectors:
  0.750  0.250  0.000  0.000  0.000
  0.000  0.000  0.665  0.000  0.334
  0.000  0.000  0.167  0.500  0.333
  0.250  0.750  0.000  0.000  0.000
  0.000  0.000  0.167  0.500  0.333
    occupations:
  0.995  0.000  0.000  0.000  0.000
  0.000  0.998  0.000  0.000  0.000
  0.000  0.000  0.998  0.000  0.000
  0.000  0.000  0.000  0.995  0.000
  0.000  0.000  0.000  0.000  0.998
   spin  2
    eigenvalues: 
  0.241  0.241  0.851  0.851  0.896
    eigenvectors:
  0.750  0.250  0.000  0.000  0.000
  0.000  0.000  0.000  0.666  0.333
  0.000  0.000  0.500  0.167  0.333
  0.250  0.750  0.000  0.000  0.000
  0.000  0.000  0.500  0.167  0.333
    occupations:
  0.241 -0.005  0.005  0.000 -0.010
 -0.005  0.866 -0.015 -0.009 -0.015
  0.005 -0.015  0.866 -0.009  0.015
  0.000 -0.009 -0.009  0.241  0.000
 -0.010 -0.015  0.015  0.000  0.866
atomic mag. moment =     1.904131
atom    5   Tr[ns(na)] (up, down, total) =   3.08063  4.98475  8.06538
   spin  1
    eigenvalues: 
  0.241  0.241  0.851  0.851  0.896
    eigenvectors:
  0.750  0.250  0.000  0.000  0.000
  0.000  0.000  0.667  0.000  0.333
  0.000  0.000  0.166  0.500  0.333
  0.250  0.750  0.000  0.000  0.000
  0.000  0.000  0.166  0.500  0.333
    occupations:
  0.241 -0.005  0.005  0.000 -0.010
 -0.005  0.866 -0.015 -0.009 -0.015
  0.005 -0.015  0.866 -0.009  0.015
  0.000 -0.009 -0.009  0.241  0.000
 -0.010 -0.015  0.015  0.000  0.866
   spin  2
    eigenvalues: 
  0.995  0.995  0.998  0.998  0.998
    eigenvectors:
  0.750  0.250  0.000  0.000  0.000
  0.000  0.000  0.000  0.664  0.336
  0.000  0.000  0.500  0.168  0.332
  0.250  0.750  0.000  0.000  0.000
  0.000  0.000  0.500  0.168  0.332
    occupations:
  0.995  0.000  0.000  0.000  0.000
  0.000  0.998  0.000  0.000  0.000
  0.000  0.000  0.998  0.000  0.000
  0.000  0.000  0.000  0.995  0.000
  0.000  0.000  0.000  0.000  0.998
atomic mag. moment =    -1.904123
atom    6   Tr[ns(na)] (up, down, total) =   3.08063  4.98475  8.06538
   spin  1
    eigenvalues: 
  0.241  0.241  0.851  0.851  0.896
    eigenvectors:
  0.750  0.250  0.000  0.000  0.000
  0.000  0.000  0.166  0.500  0.333
  0.000  0.000  0.667  0.000  0.333
  0.250  0.750  0.000  0.000  0.000
  0.000  0.000  0.166  0.500  0.333
    occupations:
  0.241 -0.005  0.005  0.000 -0.010
 -0.005  0.866 -0.015 -0.009 -0.015
  0.005 -0.015  0.866 -0.009  0.015
  0.000 -0.009 -0.009  0.241  0.000
 -0.010 -0.015  0.015  0.000  0.866
   spin  2
    eigenvalues: 
  0.995  0.995  0.998  0.998  0.998
    eigenvectors:
  0.750  0.250  0.000  0.000  0.000
  0.000  0.000  0.500  0.168  0.332
  0.000  0.000  0.000  0.664  0.336
  0.250  0.750  0.000  0.000  0.000
  0.000  0.000  0.500  0.168  0.332
    occupations:
  0.995  0.000  0.000  0.000  0.000
  0.000  0.998  0.000  0.000  0.000
  0.000  0.000  0.998  0.000  0.000
  0.000  0.000  0.000  0.995  0.000
  0.000  0.000  0.000  0.000  0.998
atomic mag. moment =    -1.904123
atom    7   Tr[ns(na)] (up, down, total) =   3.08063  4.98475  8.06538
   spin  1
    eigenvalues: 
  0.241  0.241  0.851  0.851  0.896
    eigenvectors:
  0.000  1.000  0.000  0.000  0.000
  0.000  0.000  0.166  0.500  0.333
  0.000  0.000  0.166  0.500  0.333
  1.000  0.000  0.000  0.000  0.000
  0.000  0.000  0.667  0.000  0.333
    occupations:
  0.241 -0.005  0.005  0.000 -0.010
 -0.005  0.866 -0.015 -0.009 -0.015
  0.005 -0.015  0.866 -0.009  0.015
  0.000 -0.009 -0.009  0.241  0.000
 -0.010 -0.015  0.015  0.000  0.866
   spin  2
    eigenvalues: 
  0.995  0.995  0.998  0.998  0.998
    eigenvectors:
  0.000  0.999  0.000  0.001  0.000
  0.000  0.000  0.500  0.168  0.332
  0.000  0.000  0.500  0.168  0.332
  0.999  0.000  0.001  0.000  0.000
  0.000  0.000  0.000  0.664  0.336
    occupations:
  0.995  0.000  0.000  0.000  0.000
  0.000  0.998  0.000  0.000  0.000
  0.000  0.000  0.998  0.000  0.000
  0.000  0.000  0.000  0.995  0.000
  0.000  0.000  0.000  0.000  0.998
atomic mag. moment =    -1.904123
atom    8   Tr[ns(na)] (up, down, total) =   3.08065  4.98475  8.06540
   spin  1
    eigenvalues: 
  0.241  0.241  0.851  0.851  0.896
    eigenvectors:
  0.065  0.935  0.000  0.000  0.000
  0.000  0.000  0.030  0.636  0.333
  0.000  0.000  0.605  0.062  0.333
  0.935  0.065  0.000  0.000  0.000
  0.000  0.000  0.364  0.302  0.333
    occupations:
  0.241 -0.005  0.005  0.000 -0.010
 -0.005  0.866 -0.015 -0.009 -0.015
  0.005 -0.015  0.866 -0.009  0.015
  0.000 -0.009 -0.009  0.241  0.000
 -0.010 -0.015  0.015  0.000  0.866
   spin  2
    eigenvalues: 
  0.995  0.995  0.998  0.998  0.998
    eigenvectors:
  0.026  0.973  0.000  0.000  0.000
  0.000  0.000  0.029  0.637  0.333
  0.000  0.000  0.603  0.063  0.333
  0.973  0.026  0.000  0.000  0.000
  0.000  0.000  0.367  0.300  0.333
    occupations:
  0.995  0.000  0.000  0.000  0.000
  0.000  0.998  0.000  0.000  0.000
  0.000  0.000  0.998  0.000  0.000
  0.000  0.000  0.000  0.995  0.000
  0.000  0.000  0.000  0.000  0.998
atomic mag. moment =    -1.904098
atom    9   Tr[ns(na)] (up, down, total) =   2.96541  2.96540  5.93081
   spin  1
    eigenvalues: 
  0.988  0.988  0.989
    eigenvectors:
  0.167  0.500  0.333
  0.167  0.500  0.333
  0.666  0.000  0.334
    occupations:
  0.988  0.000  0.000
  0.000  0.988  0.000
  0.000  0.000  0.988
   spin  2
    eigenvalues: 
  0.988  0.988  0.989
    eigenvectors:
  0.500  0.167  0.333
  0.500  0.167  0.333
  0.000  0.665  0.335
    occupations:
  0.988  0.000  0.000
  0.000  0.988  0.000
  0.000  0.000  0.988
atomic mag. moment =     0.000004
atom   10   Tr[ns(na)] (up, down, total) =   2.96540  2.96540  5.93080
   spin  1
    eigenvalues: 
  0.988  0.988  0.989
    eigenvectors:
  0.089  0.577  0.333
  0.259  0.408  0.333
  0.652  0.015  0.333
    occupations:
  0.988  0.000  0.000
  0.000  0.988  0.000
  0.000  0.000  0.988
   spin  2
    eigenvalues: 
  0.988  0.988  0.989
    eigenvectors:
  0.077  0.590  0.333
  0.277  0.389  0.333
  0.646  0.021  0.333
    occupations:
  0.988  0.000  0.000
  0.000  0.988  0.000
  0.000  0.000  0.988
atomic mag. moment =    -0.000001
atom   11   Tr[ns(na)] (up, down, total) =   2.96541  2.96540  5.93081
   spin  1
    eigenvalues: 
  0.988  0.988  0.989
    eigenvectors:
  0.167  0.500  0.333
  0.666  0.000  0.334
  0.167  0.500  0.333
    occupations:
  0.988  0.000  0.000
  0.000  0.988  0.000
  0.000  0.000  0.988
   spin  2
    eigenvalues: 
  0.988  0.988  0.989
    eigenvectors:
  0.500  0.167  0.333
  0.000  0.665  0.335
  0.500  0.167  0.333
    occupations:
  0.988  0.000  0.000
  0.000  0.988  0.000
  0.000  0.000  0.988
atomic mag. moment =     0.000004
atom   12   Tr[ns(na)] (up, down, total) =   2.96541  2.96540  5.93081
   spin  1
    eigenvalues: 
  0.988  0.988  0.989
    eigenvectors:
  0.666  0.000  0.334
  0.167  0.500  0.333
  0.167  0.500  0.333
    occupations:
  0.988  0.000  0.000
  0.000  0.988  0.000
  0.000  0.000  0.988
   spin  2
    eigenvalues: 
  0.988  0.988  0.989
    eigenvectors:
  0.000  0.665  0.335
  0.500  0.167  0.333
  0.500  0.167  0.333
    occupations:
  0.988  0.000  0.000
  0.000  0.988  0.000
  0.000  0.000  0.988
atomic mag. moment =     0.000004
atom   13   Tr[ns(na)] (up, down, total) =   2.96541  2.96540  5.93081
   spin  1
    eigenvalues: 
  0.988  0.988  0.989
    eigenvectors:
  0.167  0.500  0.333
  0.666  0.000  0.334
  0.167  0.500  0.333
    occupations:
  0.988  0.000  0.000
  0.000  0.988  0.000
  0.000  0.000  0.988
   spin  2
    eigenvalues: 
  0.988  0.988  0.989
    eigenvectors:
  0.500  0.167  0.333
  0.000  0.665  0.335
  0.500  0.167  0.333
    occupations:
  0.988  0.000  0.000
  0.000  0.988  0.000
  0.000  0.000  0.988
atomic mag. moment =     0.000004
atom   14   Tr[ns(na)] (up, down, total) =   2.96541  2.96540  5.93081
   spin  1
    eigenvalues: 
  0.988  0.988  0.989
    eigenvectors:
  0.666  0.000  0.334
  0.167  0.500  0.333
  0.167  0.500  0.333
    occupations:
  0.988  0.000  0.000
  0.000  0.988  0.000
  0.000  0.000  0.988
   spin  2
    eigenvalues: 
  0.988  0.988  0.989
    eigenvectors:
  0.000  0.665  0.335
  0.500  0.167  0.333
  0.500  0.167  0.333
    occupations:
  0.988  0.000  0.000
  0.000  0.988  0.000
  0.000  0.000  0.988
atomic mag. moment =     0.000004
atom   15   Tr[ns(na)] (up, down, total) =   2.96540  2.96540  5.93080
   spin  1
    eigenvalues: 
  0.988  0.988  0.989
    eigenvectors:
  0.073  0.594  0.333
  0.284  0.383  0.333
  0.644  0.023  0.333
    occupations:
  0.988  0.000  0.000
  0.000  0.988  0.000
  0.000  0.000  0.988
   spin  2
    eigenvalues: 
  0.988  0.988  0.989
    eigenvectors:
  0.107  0.560  0.333
  0.235  0.432  0.333
  0.658  0.008  0.333
    occupations:
  0.988  0.000  0.000
  0.000  0.988  0.000
  0.000  0.000  0.988
atomic mag. moment =    -0.000001
atom   16   Tr[ns(na)] (up, down, total) =   2.96541  2.96540  5.93081
   spin  1
    eigenvalues: 
  0.988  0.988  0.989
    eigenvectors:
  0.167  0.500  0.333
  0.167  0.500  0.333
  0.666  0.000  0.334
    occupations:
  0.988  0.000  0.000
  0.000  0.988  0.000
  0.000  0.000  0.988
   spin  2
    eigenvalues: 
  0.988  0.988  0.989
    eigenvectors:
  0.500  0.167  0.333
  0.500  0.167  0.333
  0.000  0.665  0.335
    occupations:
  0.988  0.000  0.000
  0.000  0.988  0.000
  0.000  0.000  0.988
atomic mag. moment =     0.000004
N of occupied +U levels = 111.9694984
 --- exit write_ns ---
 --- in v_hubbard ---
Hubbard energy    0.0000
 -------

     total cpu time spent up to now is       78.1 secs

     total energy              =    -938.82315604 Ry
     Harris-Foulkes estimate   =    -942.63302558 Ry
     estimated scf accuracy    <      10.04160650 Ry

     total magnetization       =     0.00 Bohr mag/cell
     absolute magnetization    =    18.44 Bohr mag/cell

     iteration #  2     ecut=    30.00 Ry     beta=0.30
     Davidson diagonalization with overlap
     ethr =  7.85E-03,  avg # of iterations =  2.0
 --- enter write_ns ---
 LDA+U parameters:
U( 1)     =  0.00000000
alpha( 1) =  0.00000000
U( 2)     =  0.00000000
alpha( 2) =  0.00000000
U( 3)     =  0.00000000
alpha( 3) =  0.00000000
U( 4)     =  0.00000000
alpha( 4) =  0.00000000
atom    1   Tr[ns(na)] (up, down, total) =   4.96687  3.85330  8.82017
   spin  1
    eigenvalues: 
  0.988  0.988  0.997  0.997  0.997
    eigenvectors:
  0.030  0.970  0.000  0.000  0.000
  0.000  0.000  0.333  0.037  0.630
  0.000  0.000  0.333  0.613  0.054
  0.970  0.030  0.000  0.000  0.000
  0.000  0.000  0.333  0.350  0.316
    occupations:
  0.988  0.000  0.000  0.000  0.000
  0.000  0.997  0.000  0.000  0.000
  0.000  0.000  0.997  0.000  0.000
  0.000  0.000  0.000  0.988  0.000
  0.000  0.000  0.000  0.000  0.997
   spin  2
    eigenvalues: 
  0.441  0.441  0.990  0.990  0.990
    eigenvectors:
  0.032  0.967  0.000  0.000  0.000
  0.000  0.000  0.046  0.621  0.333
  0.000  0.000  0.623  0.044  0.333
  0.967  0.032  0.000  0.000  0.000
  0.000  0.000  0.331  0.335  0.333
    occupations:
  0.442 -0.004  0.004  0.000 -0.008
 -0.004  0.990  0.000 -0.007  0.000
  0.004  0.000  0.990 -0.007  0.000
  0.000 -0.007 -0.007  0.442  0.000
 -0.008  0.000  0.000  0.000  0.990
atomic mag. moment =     1.113571
atom    2   Tr[ns(na)] (up, down, total) =   4.96687  3.85355  8.82042
   spin  1
    eigenvalues: 
  0.988  0.988  0.997  0.997  0.997
    eigenvectors:
  0.000  1.000  0.000  0.000  0.000
  0.000  0.000  0.331  0.500  0.169
  0.000  0.000  0.331  0.500  0.169
  1.000  0.000  0.000  0.000  0.000
  0.000  0.000  0.338  0.000  0.662
    occupations:
  0.988  0.000  0.000  0.000  0.000
  0.000  0.997  0.000  0.000  0.000
  0.000  0.000  0.997  0.000  0.000
  0.000  0.000  0.000  0.988  0.000
  0.000  0.000  0.000  0.000  0.997
   spin  2
    eigenvalues: 
  0.442  0.442  0.990  0.990  0.990
    eigenvectors:
  1.000  0.000  0.000  0.000  0.000
  0.000  0.000  0.500  0.196  0.304
  0.000  0.000  0.500  0.196  0.304
  0.000  1.000  0.000  0.000  0.000
  0.000  0.000  0.000  0.608  0.392
    occupations:
  0.442 -0.004  0.004  0.000 -0.008
 -0.004  0.990  0.000 -0.007  0.000
  0.004  0.000  0.990 -0.007  0.000
  0.000 -0.007 -0.007  0.442  0.000
 -0.008  0.000  0.000  0.000  0.990
atomic mag. moment =     1.113325
atom    3   Tr[ns(na)] (up, down, total) =   4.96687  3.85355  8.82042
   spin  1
    eigenvalues: 
  0.988  0.988  0.997  0.997  0.997
    eigenvectors:
  0.750  0.250  0.000  0.000  0.000
  0.000  0.000  0.331  0.500  0.169
  0.000  0.000  0.338  0.000  0.662
  0.250  0.750  0.000  0.000  0.000
  0.000  0.000  0.331  0.500  0.169
    occupations:
  0.988  0.000  0.000  0.000  0.000
  0.000  0.997  0.000  0.000  0.000
  0.000  0.000  0.997  0.000  0.000
  0.000  0.000  0.000  0.988  0.000
  0.000  0.000  0.000  0.000  0.997
   spin  2
    eigenvalues: 
  0.442  0.442  0.990  0.990  0.990
    eigenvectors:
  0.250  0.750  0.000  0.000  0.000
  0.000  0.000  0.500  0.196  0.304
  0.000  0.000  0.000  0.608  0.392
  0.750  0.250  0.000  0.000  0.000
  0.000  0.000  0.500  0.196  0.304
    occupations:
  0.442 -0.004  0.004  0.000 -0.008
 -0.004  0.990  0.000 -0.007  0.000
  0.004  0.000  0.990 -0.007  0.000
  0.000 -0.007 -0.007  0.442  0.000
 -0.008  0.000  0.000  0.000  0.990
atomic mag. moment =     1.113325
atom    4   Tr[ns(na)] (up, down, total) =   4.96687  3.85355  8.82042
   spin  1
    eigenvalues: 
  0.988  0.988  0.997  0.997  0.997
    eigenvectors:
  0.750  0.250  0.000  0.000  0.000
  0.000  0.000  0.338  0.000  0.662
  0.000  0.000  0.331  0.500  0.169
  0.250  0.750  0.000  0.000  0.000
  0.000  0.000  0.331  0.500  0.169
    occupations:
  0.988  0.000  0.000  0.000  0.000
  0.000  0.997  0.000  0.000  0.000
  0.000  0.000  0.997  0.000  0.000
  0.000  0.000  0.000  0.988  0.000
  0.000  0.000  0.000  0.000  0.997
   spin  2
    eigenvalues: 
  0.442  0.442  0.990  0.990  0.990
    eigenvectors:
  0.250  0.750  0.000  0.000  0.000
  0.000  0.000  0.000  0.608  0.392
  0.000  0.000  0.500  0.196  0.304
  0.750  0.250  0.000  0.000  0.000
  0.000  0.000  0.500  0.196  0.304
    occupations:
  0.442 -0.004  0.004  0.000 -0.008
 -0.004  0.990  0.000 -0.007  0.000
  0.004  0.000  0.990 -0.007  0.000
  0.000 -0.007 -0.007  0.442  0.000
 -0.008  0.000  0.000  0.000  0.990
atomic mag. moment =     1.113325
atom    5   Tr[ns(na)] (up, down, total) =   3.85352  4.96687  8.82039
   spin  1
    eigenvalues: 
  0.442  0.442  0.990  0.990  0.990
    eigenvectors:
  0.250  0.750  0.000  0.000  0.000
  0.000  0.000  0.000  0.634  0.366
  0.000  0.000  0.500  0.183  0.317
  0.750  0.250  0.000  0.000  0.000
  0.000  0.000  0.500  0.183  0.317
    occupations:
  0.442 -0.004  0.004  0.000 -0.008
 -0.004  0.990  0.000 -0.007  0.000
  0.004  0.000  0.990 -0.007  0.000
  0.000 -0.007 -0.007  0.442  0.000
 -0.008  0.000  0.000  0.000  0.990
   spin  2
    eigenvalues: 
  0.988  0.988  0.997  0.997  0.997
    eigenvectors:
  0.250  0.750  0.000  0.000  0.000
  0.000  0.000  0.331  0.000  0.669
  0.000  0.000  0.335  0.500  0.165
  0.750  0.250  0.000  0.000  0.000
  0.000  0.000  0.335  0.500  0.165
    occupations:
  0.988  0.000  0.000  0.000  0.000
  0.000  0.997  0.000  0.000  0.000
  0.000  0.000  0.997  0.000  0.000
  0.000  0.000  0.000  0.988  0.000
  0.000  0.000  0.000  0.000  0.997
atomic mag. moment =    -1.113347
atom    6   Tr[ns(na)] (up, down, total) =   3.85352  4.96687  8.82039
   spin  1
    eigenvalues: 
  0.442  0.442  0.990  0.990  0.990
    eigenvectors:
  0.250  0.750  0.000  0.000  0.000
  0.000  0.000  0.500  0.183  0.317
  0.000  0.000  0.000  0.634  0.366
  0.750  0.250  0.000  0.000  0.000
  0.000  0.000  0.500  0.183  0.317
    occupations:
  0.442 -0.004  0.004  0.000 -0.008
 -0.004  0.990  0.000 -0.007  0.000
  0.004  0.000  0.990 -0.007  0.000
  0.000 -0.007 -0.007  0.442  0.000
 -0.008  0.000  0.000  0.000  0.990
   spin  2
    eigenvalues: 
  0.988  0.988  0.997  0.997  0.997
    eigenvectors:
  0.250  0.750  0.000  0.000  0.000
  0.000  0.000  0.335  0.500  0.165
  0.000  0.000  0.331  0.000  0.669
  0.750  0.250  0.000  0.000  0.000
  0.000  0.000  0.335  0.500  0.165
    occupations:
  0.988  0.000  0.000  0.000  0.000
  0.000  0.997  0.000  0.000  0.000
  0.000  0.000  0.997  0.000  0.000
  0.000  0.000  0.000  0.988  0.000
  0.000  0.000  0.000  0.000  0.997
atomic mag. moment =    -1.113347
atom    7   Tr[ns(na)] (up, down, total) =   3.85352  4.96687  8.82039
   spin  1
    eigenvalues: 
  0.442  0.442  0.990  0.990  0.990
    eigenvectors:
  1.000  0.000  0.000  0.000  0.000
  0.000  0.000  0.500  0.183  0.317
  0.000  0.000  0.500  0.183  0.317
  0.000  1.000  0.000  0.000  0.000
  0.000  0.000  0.000  0.634  0.366
    occupations:
  0.442 -0.004  0.004  0.000 -0.008
 -0.004  0.990  0.000 -0.007  0.000
  0.004  0.000  0.990 -0.007  0.000
  0.000 -0.007 -0.007  0.442  0.000
 -0.008  0.000  0.000  0.000  0.990
   spin  2
    eigenvalues: 
  0.988  0.988  0.997  0.997  0.997
    eigenvectors:
  1.000  0.000  0.000  0.000  0.000
  0.000  0.000  0.335  0.500  0.165
  0.000  0.000  0.335  0.500  0.165
  0.000  1.000  0.000  0.000  0.000
  0.000  0.000  0.331  0.000  0.669
    occupations:
  0.988  0.000  0.000  0.000  0.000
  0.000  0.997  0.000  0.000  0.000
  0.000  0.000  0.997  0.000  0.000
  0.000  0.000  0.000  0.988  0.000
  0.000  0.000  0.000  0.000  0.997
atomic mag. moment =    -1.113347
atom    8   Tr[ns(na)] (up, down, total) =   3.85347  4.96688  8.82035
   spin  1
    eigenvalues: 
  0.441  0.441  0.990  0.990  0.990
    eigenvectors:
  0.001  0.999  0.000  0.000  0.000
  0.000  0.000  0.037  0.630  0.333
  0.000  0.000  0.613  0.053  0.333
  0.999  0.001  0.000  0.000  0.000
  0.000  0.000  0.350  0.317  0.333
    occupations:
  0.442 -0.004  0.004  0.000 -0.008
 -0.004  0.990  0.000 -0.007  0.000
  0.004  0.000  0.990 -0.007  0.000
  0.000 -0.007 -0.007  0.442  0.000
 -0.008  0.000  0.000  0.000  0.990
   spin  2
    eigenvalues: 
  0.988  0.988  0.997  0.997  0.997
    eigenvectors:
  0.041  0.959  0.000  0.000  0.000
  0.000  0.000  0.333  0.035  0.632
  0.000  0.000  0.333  0.611  0.055
  0.959  0.041  0.000  0.000  0.000
  0.000  0.000  0.333  0.354  0.313
    occupations:
  0.988  0.000  0.000  0.000  0.000
  0.000  0.997  0.000  0.000  0.000
  0.000  0.000  0.997  0.000  0.000
  0.000  0.000  0.000  0.988  0.000
  0.000  0.000  0.000  0.000  0.997
atomic mag. moment =    -1.113414
atom    9   Tr[ns(na)] (up, down, total) =   2.73842  2.73844  5.47685
   spin  1
    eigenvalues: 
  0.912  0.912  0.914
    eigenvectors:
  0.500  0.168  0.332
  0.500  0.168  0.332
  0.000  0.664  0.336
    occupations:
  0.913  0.001 -0.001
  0.001  0.913 -0.001
 -0.001 -0.001  0.913
   spin  2
    eigenvalues: 
  0.912  0.912  0.914
    eigenvectors:
  0.500  0.170  0.330
  0.500  0.170  0.330
  0.000  0.660  0.340
    occupations:
  0.913  0.001 -0.001
  0.001  0.913 -0.001
 -0.001 -0.001  0.913
atomic mag. moment =    -0.000021
atom   10   Tr[ns(na)] (up, down, total) =   2.73845  2.73846  5.47691
   spin  1
    eigenvalues: 
  0.912  0.912  0.914
    eigenvectors:
  0.071  0.596  0.333
  0.287  0.380  0.333
  0.643  0.024  0.333
    occupations:
  0.913  0.001 -0.001
  0.001  0.913 -0.001
 -0.001 -0.001  0.913
   spin  2
    eigenvalues: 
  0.912  0.912  0.914
    eigenvectors:
  0.076  0.591  0.333
  0.279  0.388  0.333
  0.645  0.021  0.333
    occupations:
  0.913  0.001 -0.001
  0.001  0.913 -0.001
 -0.001 -0.001  0.913
atomic mag. moment =    -0.000007
atom   11   Tr[ns(na)] (up, down, total) =   2.73842  2.73844  5.47685
   spin  1
    eigenvalues: 
  0.912  0.912  0.914
    eigenvectors:
  0.500  0.168  0.332
  0.000  0.664  0.336
  0.500  0.168  0.332
    occupations:
  0.913  0.001 -0.001
  0.001  0.913 -0.001
 -0.001 -0.001  0.913
   spin  2
    eigenvalues: 
  0.912  0.912  0.914
    eigenvectors:
  0.500  0.170  0.330
  0.000  0.660  0.340
  0.500  0.170  0.330
    occupations:
  0.913  0.001 -0.001
  0.001  0.913 -0.001
 -0.001 -0.001  0.913
atomic mag. moment =    -0.000021
atom   12   Tr[ns(na)] (up, down, total) =   2.73842  2.73844  5.47685
   spin  1
    eigenvalues: 
  0.912  0.912  0.914
    eigenvectors:
  0.000  0.664  0.336
  0.500  0.168  0.332
  0.500  0.168  0.332
    occupations:
  0.913  0.001 -0.001
  0.001  0.913 -0.001
 -0.001 -0.001  0.913
   spin  2
    eigenvalues: 
  0.912  0.912  0.914
    eigenvectors:
  0.000  0.660  0.340
  0.500  0.170  0.330
  0.500  0.170  0.330
    occupations:
  0.913  0.001 -0.001
  0.001  0.913 -0.001
 -0.001 -0.001  0.913
atomic mag. moment =    -0.000021
atom   13   Tr[ns(na)] (up, down, total) =   2.73842  2.73844  5.47685
   spin  1
    eigenvalues: 
  0.912  0.912  0.914
    eigenvectors:
  0.500  0.168  0.332
  0.000  0.664  0.336
  0.500  0.168  0.332
    occupations:
  0.913  0.001 -0.001
  0.001  0.913 -0.001
 -0.001 -0.001  0.913
   spin  2
    eigenvalues: 
  0.912  0.912  0.914
    eigenvectors:
  0.500  0.170  0.330
  0.000  0.660  0.340
  0.500  0.170  0.330
    occupations:
  0.913  0.001 -0.001
  0.001  0.913 -0.001
 -0.001 -0.001  0.913
atomic mag. moment =    -0.000021
atom   14   Tr[ns(na)] (up, down, total) =   2.73842  2.73844  5.47685
   spin  1
    eigenvalues: 
  0.912  0.912  0.914
    eigenvectors:
  0.000  0.664  0.336
  0.500  0.168  0.332
  0.500  0.168  0.332
    occupations:
  0.913  0.001 -0.001
  0.001  0.913 -0.001
 -0.001 -0.001  0.913
   spin  2
    eigenvalues: 
  0.912  0.912  0.914
    eigenvectors:
  0.000  0.660  0.340
  0.500  0.170  0.330
  0.500  0.170  0.330
    occupations:
  0.913  0.001 -0.001
  0.001  0.913 -0.001
 -0.001 -0.001  0.913
atomic mag. moment =    -0.000021
atom   15   Tr[ns(na)] (up, down, total) =   2.73845  2.73846  5.47691
   spin  1
    eigenvalues: 
  0.912  0.912  0.914
    eigenvectors:
  0.079  0.588  0.333
  0.274  0.393  0.333
  0.647  0.020  0.333
    occupations:
  0.913  0.001 -0.001
  0.001  0.913 -0.001
 -0.001 -0.001  0.913
   spin  2
    eigenvalues: 
  0.912  0.912  0.914
    eigenvectors:
  0.119  0.548  0.333
  0.220  0.447  0.333
  0.661  0.005  0.333
    occupations:
  0.913  0.001 -0.001
  0.001  0.913 -0.001
 -0.001 -0.001  0.913
atomic mag. moment =    -0.000007
atom   16   Tr[ns(na)] (up, down, total) =   2.73842  2.73844  5.47685
   spin  1
    eigenvalues: 
  0.912  0.912  0.914
    eigenvectors:
  0.500  0.168  0.332
  0.500  0.168  0.332
  0.000  0.664  0.336
    occupations:
  0.913  0.001 -0.001
  0.001  0.913 -0.001
 -0.001 -0.001  0.913
   spin  2
    eigenvalues: 
  0.912  0.912  0.914
    eigenvectors:
  0.500  0.170  0.330
  0.500  0.170  0.330
  0.000  0.660  0.340
    occupations:
  0.913  0.001 -0.001
  0.001  0.913 -0.001
 -0.001 -0.001  0.913
atomic mag. moment =    -0.000021
N of occupied +U levels = 114.3779168
 --- exit write_ns ---
 --- in v_hubbard ---
Hubbard energy    0.0000
 -------

     total cpu time spent up to now is      123.9 secs

     total energy              =    -941.39075060 Ry
     Harris-Foulkes estimate   =    -941.33839456 Ry
     estimated scf accuracy    <       2.02735647 Ry

     total magnetization       =     0.00 Bohr mag/cell
     absolute magnetization    =    12.09 Bohr mag/cell

     iteration #  3     ecut=    30.00 Ry     beta=0.30
     Davidson diagonalization with overlap
     ethr =  1.58E-03,  avg # of iterations =  1.0
 --- enter write_ns ---
 LDA+U parameters:
U( 1)     =  0.00000000
alpha( 1) =  0.00000000
U( 2)     =  0.00000000
alpha( 2) =  0.00000000
U( 3)     =  0.00000000
alpha( 3) =  0.00000000
U( 4)     =  0.00000000
alpha( 4) =  0.00000000
atom    1   Tr[ns(na)] (up, down, total) =   4.96980  3.66835  8.63816
   spin  1
    eigenvalues: 
  0.988  0.988  0.998  0.998  0.998
    eigenvectors:
  0.015  0.985  0.000  0.000  0.000
  0.000  0.000  0.333  0.036  0.631
  0.000  0.000  0.333  0.612  0.054
  0.985  0.015  0.000  0.000  0.000
  0.000  0.000  0.333  0.352  0.315
    occupations:
  0.988  0.000  0.000  0.000  0.000
  0.000  0.998  0.000  0.000  0.000
  0.000  0.000  0.998  0.000  0.000
  0.000  0.000  0.000  0.988  0.000
  0.000  0.000  0.000  0.000  0.998
   spin  2
    eigenvalues: 
  0.346  0.346  0.992  0.992  0.993
    eigenvectors:
  0.052  0.948  0.000  0.000  0.000
  0.000  0.000  0.036  0.630  0.333
  0.000  0.000  0.613  0.054  0.333
  0.948  0.052  0.000  0.000  0.000
  0.000  0.000  0.350  0.316  0.333
    occupations:
  0.346 -0.003  0.003  0.000 -0.006
 -0.003  0.992  0.000 -0.006  0.000
  0.003  0.000  0.992 -0.006  0.000
  0.000 -0.006 -0.006  0.346  0.000
 -0.006  0.000  0.000  0.000  0.992
atomic mag. moment =     1.301448
atom    2   Tr[ns(na)] (up, down, total) =   4.96980  3.66826  8.63805
   spin  1
    eigenvalues: 
  0.988  0.988  0.998  0.998  0.998
    eigenvectors:
  1.000  0.000  0.000  0.000  0.000
  0.000  0.000  0.334  0.500  0.166
  0.000  0.000  0.334  0.500  0.166
  0.000  1.000  0.000  0.000  0.000
  0.000  0.000  0.332  0.000  0.668
    occupations:
  0.988  0.000  0.000  0.000  0.000
  0.000  0.998  0.000  0.000  0.000
  0.000  0.000  0.998  0.000  0.000
  0.000  0.000  0.000  0.988  0.000
  0.000  0.000  0.000  0.000  0.998
   spin  2
    eigenvalues: 
  0.345  0.345  0.992  0.992  0.993
    eigenvectors:
  0.000  1.000  0.000  0.000  0.000
  0.000  0.000  0.164  0.500  0.336
  0.000  0.000  0.164  0.500  0.336
  1.000  0.000  0.000  0.000  0.000
  0.000  0.000  0.671  0.000  0.329
    occupations:
  0.346 -0.003  0.003  0.000 -0.006
 -0.003  0.992  0.000 -0.006  0.000
  0.003  0.000  0.992 -0.006  0.000
  0.000 -0.006 -0.006  0.346  0.000
 -0.006  0.000  0.000  0.000  0.992
atomic mag. moment =     1.301541
atom    3   Tr[ns(na)] (up, down, total) =   4.96980  3.66826  8.63805
   spin  1
    eigenvalues: 
  0.988  0.988  0.998  0.998  0.998
    eigenvectors:
  0.250  0.750  0.000  0.000  0.000
  0.000  0.000  0.334  0.500  0.166
  0.000  0.000  0.332  0.000  0.668
  0.750  0.250  0.000  0.000  0.000
  0.000  0.000  0.334  0.500  0.166
    occupations:
  0.988  0.000  0.000  0.000  0.000
  0.000  0.998  0.000  0.000  0.000
  0.000  0.000  0.998  0.000  0.000
  0.000  0.000  0.000  0.988  0.000
  0.000  0.000  0.000  0.000  0.998
   spin  2
    eigenvalues: 
  0.345  0.345  0.992  0.992  0.993
    eigenvectors:
  0.750  0.250  0.000  0.000  0.000
  0.000  0.000  0.164  0.500  0.336
  0.000  0.000  0.671  0.000  0.329
  0.250  0.750  0.000  0.000  0.000
  0.000  0.000  0.164  0.500  0.336
    occupations:
  0.346 -0.003  0.003  0.000 -0.006
 -0.003  0.992  0.000 -0.006  0.000
  0.003  0.000  0.992 -0.006  0.000
  0.000 -0.006 -0.006  0.346  0.000
 -0.006  0.000  0.000  0.000  0.992
atomic mag. moment =     1.301541
atom    4   Tr[ns(na)] (up, down, total) =   4.96980  3.66826  8.63805
   spin  1
    eigenvalues: 
  0.988  0.988  0.998  0.998  0.998
    eigenvectors:
  0.250  0.750  0.000  0.000  0.000
  0.000  0.000  0.332  0.000  0.668
  0.000  0.000  0.334  0.500  0.166
  0.750  0.250  0.000  0.000  0.000
  0.000  0.000  0.334  0.500  0.166
    occupations:
  0.988  0.000  0.000  0.000  0.000
  0.000  0.998  0.000  0.000  0.000
  0.000  0.000  0.998  0.000  0.000
  0.000  0.000  0.000  0.988  0.000
  0.000  0.000  0.000  0.000  0.998
   spin  2
    eigenvalues: 
  0.345  0.345  0.992  0.992  0.993
    eigenvectors:
  0.750  0.250  0.000  0.000  0.000
  0.000  0.000  0.671  0.000  0.329
  0.000  0.000  0.164  0.500  0.336
  0.250  0.750  0.000  0.000  0.000
  0.000  0.000  0.164  0.500  0.336
    occupations:
  0.346 -0.003  0.003  0.000 -0.006
 -0.003  0.992  0.000 -0.006  0.000
  0.003  0.000  0.992 -0.006  0.000
  0.000 -0.006 -0.006  0.346  0.000
 -0.006  0.000  0.000  0.000  0.992
atomic mag. moment =     1.301541
atom    5   Tr[ns(na)] (up, down, total) =   3.66829  4.96980  8.63809
   spin  1
    eigenvalues: 
  0.346  0.346  0.992  0.992  0.993
    eigenvectors:
  0.250  0.750  0.000  0.000  0.000
  0.000  0.000  0.000  0.666  0.334
  0.000  0.000  0.500  0.167  0.333
  0.750  0.250  0.000  0.000  0.000
  0.000  0.000  0.500  0.167  0.333
    occupations:
  0.346 -0.003  0.003  0.000 -0.006
 -0.003  0.992  0.000 -0.006  0.000
  0.003  0.000  0.992 -0.006  0.000
  0.000 -0.006 -0.006  0.346  0.000
 -0.006  0.000  0.000  0.000  0.992
   spin  2
    eigenvalues: 
  0.988  0.988  0.998  0.998  0.998
    eigenvectors:
  0.750  0.250  0.000  0.000  0.000
  0.000  0.000  0.357  0.643  0.000
  0.000  0.000  0.321  0.179  0.500
  0.250  0.750  0.000  0.000  0.000
  0.000  0.000  0.321  0.179  0.500
    occupations:
  0.988  0.000  0.000  0.000  0.000
  0.000  0.998  0.000  0.000  0.000
  0.000  0.000  0.998  0.000  0.000
  0.000  0.000  0.000  0.988  0.000
  0.000  0.000  0.000  0.000  0.998
atomic mag. moment =    -1.301511
atom    6   Tr[ns(na)] (up, down, total) =   3.66829  4.96980  8.63809
   spin  1
    eigenvalues: 
  0.346  0.346  0.992  0.992  0.993
    eigenvectors:
  0.250  0.750  0.000  0.000  0.000
  0.000  0.000  0.500  0.167  0.333
  0.000  0.000  0.000  0.666  0.334
  0.750  0.250  0.000  0.000  0.000
  0.000  0.000  0.500  0.167  0.333
    occupations:
  0.346 -0.003  0.003  0.000 -0.006
 -0.003  0.992  0.000 -0.006  0.000
  0.003  0.000  0.992 -0.006  0.000
  0.000 -0.006 -0.006  0.346  0.000
 -0.006  0.000  0.000  0.000  0.992
   spin  2
    eigenvalues: 
  0.988  0.988  0.998  0.998  0.998
    eigenvectors:
  0.750  0.250  0.000  0.000  0.000
  0.000  0.000  0.321  0.179  0.500
  0.000  0.000  0.357  0.643  0.000
  0.250  0.750  0.000  0.000  0.000
  0.000  0.000  0.321  0.179  0.500
    occupations:
  0.988  0.000  0.000  0.000  0.000
  0.000  0.998  0.000  0.000  0.000
  0.000  0.000  0.998  0.000  0.000
  0.000  0.000  0.000  0.988  0.000
  0.000  0.000  0.000  0.000  0.998
atomic mag. moment =    -1.301511
atom    7   Tr[ns(na)] (up, down, total) =   3.66829  4.96980  8.63809
   spin  1
    eigenvalues: 
  0.346  0.346  0.992  0.992  0.993
    eigenvectors:
  1.000  0.000  0.000  0.000  0.000
  0.000  0.000  0.500  0.167  0.333
  0.000  0.000  0.500  0.167  0.333
  0.000  1.000  0.000  0.000  0.000
  0.000  0.000  0.000  0.666  0.334
    occupations:
  0.346 -0.003  0.003  0.000 -0.006
 -0.003  0.992  0.000 -0.006  0.000
  0.003  0.000  0.992 -0.006  0.000
  0.000 -0.006 -0.006  0.346  0.000
 -0.006  0.000  0.000  0.000  0.992
   spin  2
    eigenvalues: 
  0.988  0.988  0.998  0.998  0.998
    eigenvectors:
  0.000  1.000  0.000  0.000  0.000
  0.000  0.000  0.321  0.179  0.500
  0.000  0.000  0.321  0.179  0.500
  1.000  0.000  0.000  0.000  0.000
  0.000  0.000  0.357  0.643  0.000
    occupations:
  0.988  0.000  0.000  0.000  0.000
  0.000  0.998  0.000  0.000  0.000
  0.000  0.000  0.998  0.000  0.000
  0.000  0.000  0.000  0.988  0.000
  0.000  0.000  0.000  0.000  0.998
atomic mag. moment =    -1.301511
atom    8   Tr[ns(na)] (up, down, total) =   3.66825  4.96979  8.63804
   spin  1
    eigenvalues: 
  0.345  0.345  0.992  0.992  0.993
    eigenvectors:
  0.051  0.949  0.000  0.000  0.000
  0.000  0.000  0.038  0.628  0.333
  0.000  0.000  0.615  0.052  0.333
  0.949  0.051  0.000  0.000  0.000
  0.000  0.000  0.347  0.320  0.333
    occupations:
  0.346 -0.003  0.003  0.000 -0.006
 -0.003  0.992  0.000 -0.006  0.000
  0.003  0.000  0.992 -0.006  0.000
  0.000 -0.006 -0.006  0.346  0.000
 -0.006  0.000  0.000  0.000  0.992
   spin  2
    eigenvalues: 
  0.988  0.988  0.998  0.998  0.998
    eigenvectors:
  0.014  0.986  0.000  0.000  0.000
  0.000  0.000  0.333  0.030  0.636
  0.000  0.000  0.333  0.605  0.061
  0.986  0.014  0.000  0.000  0.000
  0.000  0.000  0.333  0.364  0.302
    occupations:
  0.988  0.000  0.000  0.000  0.000
  0.000  0.998  0.000  0.000  0.000
  0.000  0.000  0.998  0.000  0.000
  0.000  0.000  0.000  0.988  0.000
  0.000  0.000  0.000  0.000  0.998
atomic mag. moment =    -1.301536
atom    9   Tr[ns(na)] (up, down, total) =   2.82215  2.82214  5.64429
   spin  1
    eigenvalues: 
  0.940  0.940  0.942
    eigenvectors:
  0.167  0.500  0.333
  0.167  0.500  0.333
  0.667  0.000  0.333
    occupations:
  0.941  0.001 -0.001
  0.001  0.941 -0.001
 -0.001 -0.001  0.941
   spin  2
    eigenvalues: 
  0.940  0.940  0.942
    eigenvectors:
  0.500  0.165  0.335
  0.500  0.165  0.335
  0.000  0.669  0.331
    occupations:
  0.941  0.001 -0.001
  0.001  0.941 -0.001
 -0.001 -0.001  0.941
atomic mag. moment =     0.000008
atom   10   Tr[ns(na)] (up, down, total) =   2.82216  2.82216  5.64432
   spin  1
    eigenvalues: 
  0.940  0.940  0.942
    eigenvectors:
  0.082  0.585  0.333
  0.269  0.398  0.333
  0.649  0.018  0.333
    occupations:
  0.941  0.001 -0.001
  0.001  0.941 -0.001
 -0.001 -0.001  0.941
   spin  2
    eigenvalues: 
  0.940  0.940  0.942
    eigenvectors:
  0.101  0.566  0.333
  0.243  0.424  0.333
  0.656  0.010  0.333
    occupations:
  0.941  0.001 -0.001
  0.001  0.941 -0.001
 -0.001 -0.001  0.941
atomic mag. moment =    -0.000007
atom   11   Tr[ns(na)] (up, down, total) =   2.82215  2.82214  5.64429
   spin  1
    eigenvalues: 
  0.940  0.940  0.942
    eigenvectors:
  0.167  0.500  0.333
  0.667  0.000  0.333
  0.167  0.500  0.333
    occupations:
  0.941  0.001 -0.001
  0.001  0.941 -0.001
 -0.001 -0.001  0.941
   spin  2
    eigenvalues: 
  0.940  0.940  0.942
    eigenvectors:
  0.500  0.165  0.335
  0.000  0.669  0.331
  0.500  0.165  0.335
    occupations:
  0.941  0.001 -0.001
  0.001  0.941 -0.001
 -0.001 -0.001  0.941
atomic mag. moment =     0.000008
atom   12   Tr[ns(na)] (up, down, total) =   2.82215  2.82214  5.64429
   spin  1
    eigenvalues: 
  0.940  0.940  0.942
    eigenvectors:
  0.667  0.000  0.333
  0.167  0.500  0.333
  0.167  0.500  0.333
    occupations:
  0.941  0.001 -0.001
  0.001  0.941 -0.001
 -0.001 -0.001  0.941
   spin  2
    eigenvalues: 
  0.940  0.940  0.942
    eigenvectors:
  0.000  0.669  0.331
  0.500  0.165  0.335
  0.500  0.165  0.335
    occupations:
  0.941  0.001 -0.001
  0.001  0.941 -0.001
 -0.001 -0.001  0.941
atomic mag. moment =     0.000008
atom   13   Tr[ns(na)] (up, down, total) =   2.82215  2.82214  5.64429
   spin  1
    eigenvalues: 
  0.940  0.940  0.942
    eigenvectors:
  0.167  0.500  0.333
  0.667  0.000  0.333
  0.167  0.500  0.333
    occupations:
  0.941  0.001 -0.001
  0.001  0.941 -0.001
 -0.001 -0.001  0.941
   spin  2
    eigenvalues: 
  0.940  0.940  0.942
    eigenvectors:
  0.500  0.165  0.335
  0.000  0.669  0.331
  0.500  0.165  0.335
    occupations:
  0.941  0.001 -0.001
  0.001  0.941 -0.001
 -0.001 -0.001  0.941
atomic mag. moment =     0.000008
atom   14   Tr[ns(na)] (up, down, total) =   2.82215  2.82214  5.64429
   spin  1
    eigenvalues: 
  0.940  0.940  0.942
    eigenvectors:
  0.667  0.000  0.333
  0.167  0.500  0.333
  0.167  0.500  0.333
    occupations:
  0.941  0.001 -0.001
  0.001  0.941 -0.001
 -0.001 -0.001  0.941
   spin  2
    eigenvalues: 
  0.940  0.940  0.942
    eigenvectors:
  0.000  0.669  0.331
  0.500  0.165  0.335
  0.500  0.165  0.335
    occupations:
  0.941  0.001 -0.001
  0.001  0.941 -0.001
 -0.001 -0.001  0.941
atomic mag. moment =     0.000008
atom   15   Tr[ns(na)] (up, down, total) =   2.82216  2.82216  5.64432
   spin  1
    eigenvalues: 
  0.940  0.940  0.942
    eigenvectors:
  0.066  0.601  0.333
  0.295  0.372  0.333
  0.639  0.027  0.333
    occupations:
  0.941  0.001 -0.001
  0.001  0.941 -0.001
 -0.001 -0.001  0.941
   spin  2
    eigenvalues: 
  0.940  0.940  0.942
    eigenvectors:
  0.068  0.599  0.333
  0.292  0.375  0.333
  0.641  0.026  0.333
    occupations:
  0.941  0.001 -0.001
  0.001  0.941 -0.001
 -0.001 -0.001  0.941
atomic mag. moment =    -0.000007
atom   16   Tr[ns(na)] (up, down, total) =   2.82215  2.82214  5.64429
   spin  1
    eigenvalues: 
  0.940  0.940  0.942
    eigenvectors:
  0.167  0.500  0.333
  0.167  0.500  0.333
  0.667  0.000  0.333
    occupations:
  0.941  0.001 -0.001
  0.001  0.941 -0.001
 -0.001 -0.001  0.941
   spin  2
    eigenvalues: 
  0.940  0.940  0.942
    eigenvectors:
  0.500  0.165  0.335
  0.500  0.165  0.335
  0.000  0.669  0.331
    occupations:
  0.941  0.001 -0.001
  0.001  0.941 -0.001
 -0.001 -0.001  0.941
atomic mag. moment =     0.000008
N of occupied +U levels = 114.2589963
 --- exit write_ns ---

     negative rho (up, down):  0.106E-03 0.107E-03
 --- in v_hubbard ---
Hubbard energy    0.0000
 -------

     total cpu time spent up to now is      163.7 secs

     total energy              =    -941.95026429 Ry
     Harris-Foulkes estimate   =    -941.52794304 Ry
     estimated scf accuracy    <       0.67058424 Ry

     total magnetization       =     0.00 Bohr mag/cell
     absolute magnetization    =    13.28 Bohr mag/cell

     iteration #  4     ecut=    30.00 Ry     beta=0.30
     Davidson diagonalization with overlap
     ethr =  5.24E-04,  avg # of iterations =  1.6
 --- enter write_ns ---
 LDA+U parameters:
U( 1)     =  0.00000000
alpha( 1) =  0.00000000
U( 2)     =  0.00000000
alpha( 2) =  0.00000000
U( 3)     =  0.00000000
alpha( 3) =  0.00000000
U( 4)     =  0.00000000
alpha( 4) =  0.00000000
atom    1   Tr[ns(na)] (up, down, total) =   4.95591  3.77525  8.73116
   spin  1
    eigenvalues: 
  0.982  0.982  0.997  0.997  0.997
    eigenvectors:
  0.020  0.980  0.000  0.000  0.000
  0.000  0.000  0.038  0.629  0.333
  0.000  0.000  0.614  0.052  0.333
  0.980  0.020  0.000  0.000  0.000
  0.000  0.000  0.348  0.319  0.333
    occupations:
  0.982  0.000  0.000  0.000  0.000
  0.000  0.997  0.000  0.000  0.000
  0.000  0.000  0.997  0.000  0.000
  0.000  0.000  0.000  0.982  0.000
  0.000  0.000  0.000  0.000  0.997
   spin  2
    eigenvalues: 
  0.394  0.394  0.995  0.995  0.996
    eigenvectors:
  0.004  0.996  0.000  0.000  0.000
  0.000  0.000  0.031  0.636  0.333
  0.000  0.000  0.606  0.061  0.333
  0.996  0.004  0.000  0.000  0.000
  0.000  0.000  0.364  0.303  0.333
    occupations:
  0.394  0.000  0.000  0.000  0.000
  0.000  0.996  0.000  0.000  0.000
  0.000  0.000  0.996  0.000  0.000
  0.000  0.000  0.000  0.394  0.000
  0.000  0.000  0.000  0.000  0.996
atomic mag. moment =     1.180656
atom    2   Tr[ns(na)] (up, down, total) =   4.95599  3.77591  8.73190
   spin  1
    eigenvalues: 
  0.982  0.982  0.997  0.997  0.997
    eigenvectors:
  1.000  0.000  0.000  0.000  0.000
  0.000  0.000  0.160  0.500  0.340
  0.000  0.000  0.160  0.500  0.340
  0.000  1.000  0.000  0.000  0.000
  0.000  0.000  0.680  0.000  0.320
    occupations:
  0.982  0.000  0.000  0.000  0.000
  0.000  0.997  0.000  0.000  0.000
  0.000  0.000  0.997  0.000  0.000
  0.000  0.000  0.000  0.982  0.000
  0.000  0.000  0.000  0.000  0.997
   spin  2
    eigenvalues: 
  0.395  0.395  0.995  0.995  0.996
    eigenvectors:
  0.000  1.000  0.000  0.000  0.000
  0.000  0.000  0.500  0.172  0.328
  0.000  0.000  0.500  0.172  0.328
  1.000  0.000  0.000  0.000  0.000
  0.000  0.000  0.000  0.655  0.345
    occupations:
  0.395  0.000  0.000  0.000  0.000
  0.000  0.996  0.000  0.000  0.000
  0.000  0.000  0.996  0.000  0.000
  0.000  0.000  0.000  0.395  0.000
  0.000  0.000  0.000  0.000  0.996
atomic mag. moment =     1.180088
atom    3   Tr[ns(na)] (up, down, total) =   4.95599  3.77591  8.73190
   spin  1
    eigenvalues: 
  0.982  0.982  0.997  0.997  0.997
    eigenvectors:
  0.250  0.750  0.000  0.000  0.000
  0.000  0.000  0.160  0.500  0.340
  0.000  0.000  0.680  0.000  0.320
  0.750  0.250  0.000  0.000  0.000
  0.000  0.000  0.160  0.500  0.340
    occupations:
  0.982  0.000  0.000  0.000  0.000
  0.000  0.997  0.000  0.000  0.000
  0.000  0.000  0.997  0.000  0.000
  0.000  0.000  0.000  0.982  0.000
  0.000  0.000  0.000  0.000  0.997
   spin  2
    eigenvalues: 
  0.395  0.395  0.995  0.995  0.996
    eigenvectors:
  0.750  0.250  0.000  0.000  0.000
  0.000  0.000  0.500  0.172  0.328
  0.000  0.000  0.000  0.655  0.345
  0.250  0.750  0.000  0.000  0.000
  0.000  0.000  0.500  0.172  0.328
    occupations:
  0.395  0.000  0.000  0.000  0.000
  0.000  0.996  0.000  0.000  0.000
  0.000  0.000  0.996  0.000  0.000
  0.000  0.000  0.000  0.395  0.000
  0.000  0.000  0.000  0.000  0.996
atomic mag. moment =     1.180088
atom    4   Tr[ns(na)] (up, down, total) =   4.95599  3.77591  8.73190
   spin  1
    eigenvalues: 
  0.982  0.982  0.997  0.997  0.997
    eigenvectors:
  0.250  0.750  0.000  0.000  0.000
  0.000  0.000  0.680  0.000  0.320
  0.000  0.000  0.160  0.500  0.340
  0.750  0.250  0.000  0.000  0.000
  0.000  0.000  0.160  0.500  0.340
    occupations:
  0.982  0.000  0.000  0.000  0.000
  0.000  0.997  0.000  0.000  0.000
  0.000  0.000  0.997  0.000  0.000
  0.000  0.000  0.000  0.982  0.000
  0.000  0.000  0.000  0.000  0.997
   spin  2
    eigenvalues: 
  0.395  0.395  0.995  0.995  0.996
    eigenvectors:
  0.750  0.250  0.000  0.000  0.000
  0.000  0.000  0.000  0.655  0.345
  0.000  0.000  0.500  0.172  0.328
  0.250  0.750  0.000  0.000  0.000
  0.000  0.000  0.500  0.172  0.328
    occupations:
  0.395  0.000  0.000  0.000  0.000
  0.000  0.996  0.000  0.000  0.000
  0.000  0.000  0.996  0.000  0.000
  0.000  0.000  0.000  0.395  0.000
  0.000  0.000  0.000  0.000  0.996
atomic mag. moment =     1.180088
atom    5   Tr[ns(na)] (up, down, total) =   3.77562  4.95595  8.73156
   spin  1
    eigenvalues: 
  0.395  0.395  0.995  0.995  0.996
    eigenvectors:
  0.750  0.250  0.000  0.000  0.000
  0.000  0.000  0.670  0.000  0.330
  0.000  0.000  0.165  0.500  0.335
  0.250  0.750  0.000  0.000  0.000
  0.000  0.000  0.165  0.500  0.335
    occupations:
  0.395  0.000  0.000  0.000  0.000
  0.000  0.996  0.000  0.000  0.000
  0.000  0.000  0.996  0.000  0.000
  0.000  0.000  0.000  0.395  0.000
  0.000  0.000  0.000  0.000  0.996
   spin  2
    eigenvalues: 
  0.982  0.982  0.997  0.997  0.997
    eigenvectors:
  0.750  0.250  0.000  0.000  0.000
  0.000  0.000  0.000  0.638  0.362
  0.000  0.000  0.500  0.181  0.319
  0.250  0.750  0.000  0.000  0.000
  0.000  0.000  0.500  0.181  0.319
    occupations:
  0.982  0.000  0.000  0.000  0.000
  0.000  0.997  0.000  0.000  0.000
  0.000  0.000  0.997  0.000  0.000
  0.000  0.000  0.000  0.982  0.000
  0.000  0.000  0.000  0.000  0.997
atomic mag. moment =    -1.180327
atom    6   Tr[ns(na)] (up, down, total) =   3.77562  4.95595  8.73156
   spin  1
    eigenvalues: 
  0.395  0.395  0.995  0.995  0.996
    eigenvectors:
  0.750  0.250  0.000  0.000  0.000
  0.000  0.000  0.165  0.500  0.335
  0.000  0.000  0.670  0.000  0.330
  0.250  0.750  0.000  0.000  0.000
  0.000  0.000  0.165  0.500  0.335
    occupations:
  0.395  0.000  0.000  0.000  0.000
  0.000  0.996  0.000  0.000  0.000
  0.000  0.000  0.996  0.000  0.000
  0.000  0.000  0.000  0.395  0.000
  0.000  0.000  0.000  0.000  0.996
   spin  2
    eigenvalues: 
  0.982  0.982  0.997  0.997  0.997
    eigenvectors:
  0.750  0.250  0.000  0.000  0.000
  0.000  0.000  0.500  0.181  0.319
  0.000  0.000  0.000  0.638  0.362
  0.250  0.750  0.000  0.000  0.000
  0.000  0.000  0.500  0.181  0.319
    occupations:
  0.982  0.000  0.000  0.000  0.000
  0.000  0.997  0.000  0.000  0.000
  0.000  0.000  0.997  0.000  0.000
  0.000  0.000  0.000  0.982  0.000
  0.000  0.000  0.000  0.000  0.997
atomic mag. moment =    -1.180327
atom    7   Tr[ns(na)] (up, down, total) =   3.77562  4.95595  8.73156
   spin  1
    eigenvalues: 
  0.395  0.395  0.995  0.995  0.996
    eigenvectors:
  0.000  1.000  0.000  0.000  0.000
  0.000  0.000  0.165  0.500  0.335
  0.000  0.000  0.165  0.500  0.335
  1.000  0.000  0.000  0.000  0.000
  0.000  0.000  0.670  0.000  0.330
    occupations:
  0.395  0.000  0.000  0.000  0.000
  0.000  0.996  0.000  0.000  0.000
  0.000  0.000  0.996  0.000  0.000
  0.000  0.000  0.000  0.395  0.000
  0.000  0.000  0.000  0.000  0.996
   spin  2
    eigenvalues: 
  0.982  0.982  0.997  0.997  0.997
    eigenvectors:
  0.000  1.000  0.000  0.000  0.000
  0.000  0.000  0.500  0.181  0.319
  0.000  0.000  0.500  0.181  0.319
  1.000  0.000  0.000  0.000  0.000
  0.000  0.000  0.000  0.638  0.362
    occupations:
  0.982  0.000  0.000  0.000  0.000
  0.000  0.997  0.000  0.000  0.000
[...]
    13.0420  13.0472  13.0484  13.0553  13.0564  13.0668  13.0909  13.0989
    16.4828  16.4855  19.6550  19.6565  19.7136

     occupation numbers 
     0.0469   0.0469   0.0469   0.0469   0.0469   0.0469   0.0469   0.0469
     0.0469   0.0469   0.0469   0.0469   0.0469   0.0469   0.0469   0.0469
     0.0469   0.0469   0.0469   0.0469   0.0469   0.0469   0.0469   0.0469
     0.0469   0.0469   0.0469   0.0469   0.0469   0.0469   0.0469   0.0469
     0.0469   0.0469   0.0469   0.0469   0.0469   0.0469   0.0469   0.0469
     0.0469   0.0469   0.0469   0.0469   0.0469   0.0469   0.0469   0.0469
     0.0469   0.0469   0.0469   0.0469   0.0469   0.0469   0.0469   0.0469
     0.0469   0.0469   0.0469   0.0469   0.0469   0.0469   0.0469   0.0469
     0.0000   0.0000   0.0000   0.0000   0.0000   0.0000   0.0000   0.0000
     0.0000   0.0000   0.0000   0.0000   0.0000

          k = 0.0000 0.5000 0.0000 (  2706 PWs)   bands (ev):

    -7.8464  -6.7995  -6.7484  -6.7484  -6.7470  -6.7452  -6.5600  -6.5540
     4.4890   4.4988   4.5013   4.5053   5.2341   5.5223   5.5223   6.5306
     6.5320   6.5522   6.5895   6.5980   6.6240   6.6311   6.6862   7.0658
     7.0661   7.1712   7.1782   7.4677   7.9726   7.9777   8.6542   8.6636
     8.9663   9.5411   9.6332   9.6341   9.8210   9.9858  10.0601  10.0608
    10.0999  10.1169  10.1907  10.2850  10.2857  10.4027  10.4172  10.5492
    10.5544  10.6185  10.6202  10.6636  10.9254  11.0149  11.0235  11.0553
    11.0716  11.1819  11.2525  11.3015  11.3140  11.3504  11.3688  11.3924
    12.8880  13.0418  13.0436  13.0730  13.5310  13.5751  13.6475  13.6625
    15.2148  18.5667  18.5680  18.5681  18.5712

     occupation numbers 
     0.0938   0.0938   0.0938   0.0938   0.0938   0.0938   0.0938   0.0938
     0.0938   0.0938   0.0938   0.0938   0.0938   0.0938   0.0938   0.0938
     0.0938   0.0938   0.0938   0.0938   0.0938   0.0938   0.0938   0.0938
     0.0938   0.0938   0.0938   0.0938   0.0938   0.0938   0.0938   0.0938
     0.0938   0.0938   0.0938   0.0938   0.0938   0.0938   0.0938   0.0938
     0.0938   0.0938   0.0938   0.0938   0.0938   0.0938   0.0938   0.0938
     0.0938   0.0938   0.0938   0.0938   0.0938   0.0938   0.0938   0.0938
     0.0938   0.0937   0.0937   0.0937   0.0937   0.0937   0.0937   0.0937
     0.0000   0.0000   0.0000   0.0000   0.0000   0.0000   0.0000   0.0000
     0.0000   0.0000   0.0000   0.0000   0.0000

          k = 0.7500-0.2500 0.7500 (  2734 PWs)   bands (ev):

    -7.4964  -7.1657  -6.9589  -6.7642  -6.7623  -6.5880  -6.5495  -6.5438
     4.9646   4.9713   4.9823   5.3096   5.4259   5.5013   5.5247   6.1789
     6.2131   6.2386   6.2675   6.5913   6.5966   6.7500   6.7519   6.8646
     6.8944   6.9282   6.9992   7.3625   7.3807   7.7245   7.7648   8.0205
     9.4642   9.6576   9.8257   9.8996   9.9606   9.9730  10.0411  10.1417
    10.1457  10.1732  10.2153  10.2934  10.3235  10.3268  10.4827  10.5153
    10.7363  10.7417  10.7508  10.7572  10.8866  10.9189  11.0521  11.0867
    11.1769  11.2038  11.2383  11.2695  11.3422  11.3470  11.3656  11.4223
    12.7482  12.7959  12.8484  12.9461  13.2429  13.2695  13.3748  13.4450
    16.6957  17.6034  18.6714  19.3631  19.3650

     occupation numbers 
     0.1875   0.1875   0.1875   0.1875   0.1875   0.1875   0.1875   0.1875
     0.1875   0.1875   0.1875   0.1875   0.1875   0.1875   0.1875   0.1875
     0.1875   0.1875   0.1875   0.1875   0.1875   0.1875   0.1875   0.1875
     0.1875   0.1875   0.1875   0.1875   0.1875   0.1875   0.1875   0.1875
     0.1875   0.1875   0.1875   0.1875   0.1875   0.1875   0.1875   0.1875
     0.1875   0.1875   0.1875   0.1875   0.1875   0.1875   0.1875   0.1875
     0.1875   0.1875   0.1875   0.1875   0.1875   0.1875   0.1875   0.1875
     0.1875   0.1875   0.1875   0.1875   0.1875   0.1875   0.1875   0.1875
     0.0000   0.0000   0.0000   0.0000   0.0000   0.0000   0.0000   0.0000
     0.0000   0.0000   0.0000   0.0000   0.0000

          k = 0.5000 0.0000 0.5000 (  2742 PWs)   bands (ev):

    -7.6347  -7.0105  -7.0101  -6.7114  -6.7106  -6.5967  -6.5932  -6.5369
     4.7731   4.7828   5.0672   5.0741   5.2651   5.2676   5.7024   5.9679
     6.2889   6.3057   6.5299   6.7242   6.7467   6.7511   6.9149   6.9185
     6.9364   7.1597   7.1665   7.1946   7.4548   7.4626   7.6376   8.1286
     9.6627   9.6650   9.7946   9.8555   9.9098   9.9139  10.0521  10.1162
    10.1372  10.2305  10.2322  10.2324  10.2363  10.3648  10.3713  10.5210
    10.7275  10.7567  10.7595  10.8312  10.9163  11.1008  11.1076  11.1258
    11.2141  11.2210  11.2456  11.2603  11.2845  11.3561  11.4124  11.4198
    13.0463  13.0529  13.0604  13.0909  13.1214  13.1563  13.1721  13.2962
    16.0089  18.0606  18.0643  19.3752  19.3812

     occupation numbers 
     0.0938   0.0938   0.0938   0.0938   0.0938   0.0938   0.0938   0.0938
     0.0938   0.0938   0.0938   0.0938   0.0938   0.0938   0.0938   0.0938
     0.0938   0.0938   0.0938   0.0938   0.0938   0.0938   0.0938   0.0938
     0.0938   0.0938   0.0938   0.0938   0.0938   0.0938   0.0938   0.0938
     0.0938   0.0938   0.0938   0.0938   0.0938   0.0938   0.0938   0.0938
     0.0938   0.0938   0.0938   0.0938   0.0938   0.0938   0.0938   0.0938
     0.0938   0.0938   0.0938   0.0938   0.0938   0.0938   0.0938   0.0938
     0.0937   0.0937   0.0937   0.0937   0.0937   0.0937   0.0937   0.0937
     0.0000   0.0000   0.0000   0.0000   0.0000   0.0000   0.0000   0.0000
     0.0000   0.0000   0.0000   0.0000   0.0000

          k = 0.0000-1.0000 0.0000 (  2762 PWs)   bands (ev):

    -7.3048  -7.3027  -6.8112  -6.8110  -6.8094  -6.8058  -6.5072  -6.4999
     5.0210   5.0216   5.0286   5.0370   5.7709   5.7762   6.0991   6.1049
     6.1068   6.1134   6.4058   6.4115   6.6536   6.6587   6.6859   6.6940
     6.7225   6.7301   6.7331   6.7408   8.1500   8.1554   8.1610   8.1674
     9.2525   9.2650   9.9532   9.9552  10.0336  10.0359  10.0485  10.0496
    10.0518  10.0637  10.1725  10.1764  10.3524  10.3556  10.4993  10.4993
    10.5219  10.5330  10.5847  10.5855  10.9145  10.9383  11.0079  11.0231
    11.1509  11.1658  11.2290  11.2535  11.3392  11.3432  11.3581  11.3635
    12.4644  12.4895  12.7226  12.7456  13.5204  13.5308  13.6203  13.6358
    17.6654  17.6707  19.2528  19.2530  19.2536

     occupation numbers 
     0.0469   0.0469   0.0469   0.0469   0.0469   0.0469   0.0469   0.0469
     0.0469   0.0469   0.0469   0.0469   0.0469   0.0469   0.0469   0.0469
     0.0469   0.0469   0.0469   0.0469   0.0469   0.0469   0.0469   0.0469
     0.0469   0.0469   0.0469   0.0469   0.0469   0.0469   0.0469   0.0469
     0.0469   0.0469   0.0469   0.0469   0.0469   0.0469   0.0469   0.0469
     0.0469   0.0469   0.0469   0.0469   0.0469   0.0469   0.0469   0.0469
     0.0469   0.0469   0.0469   0.0469   0.0469   0.0469   0.0469   0.0469
     0.0469   0.0469   0.0469   0.0469   0.0469   0.0469   0.0469   0.0469
     0.0000   0.0000   0.0000   0.0000   0.0000   0.0000   0.0000   0.0000
     0.0000   0.0000   0.0000   0.0000   0.0000

          k =-0.5000-1.0000 0.0000 (  2740 PWs)   bands (ev):

    -7.1466  -7.1454  -7.1451  -7.1414  -6.5739  -6.5700  -6.5691  -6.5619
     5.2792   5.2860   5.2879   5.3333   5.3821   5.5470   5.5472   5.6596
     6.2258   6.2558   6.2597   6.2931   6.6234   6.6245   6.6387   6.7674
     6.9034   7.2707   7.2777   7.4655   7.4842   7.5096   7.5127   7.5654
     9.7165   9.7431   9.7441   9.8123   9.9925  10.0424  10.0435  10.0729
    10.1234  10.2767  10.2925  10.2933  10.3497  10.3519  10.4063  10.4683
    10.6203  10.6695  10.6696  10.6944  10.9534  10.9601  10.9832  11.0018
    11.1828  11.1885  11.2052  11.2915  11.3066  11.3135  11.3778  11.3800
    12.7853  12.8916  12.9104  13.0162  13.1622  13.2016  13.2160  13.2609
    18.0203  18.0352  18.0392  18.0568  20.8618

     occupation numbers 
     0.0938   0.0938   0.0938   0.0938   0.0938   0.0938   0.0938   0.0938
     0.0938   0.0938   0.0938   0.0938   0.0938   0.0938   0.0938   0.0938
     0.0938   0.0938   0.0938   0.0938   0.0938   0.0938   0.0938   0.0938
     0.0938   0.0938   0.0938   0.0938   0.0938   0.0938   0.0938   0.0938
     0.0938   0.0938   0.0938   0.0938   0.0938   0.0938   0.0938   0.0938
     0.0938   0.0938   0.0938   0.0938   0.0938   0.0938   0.0938   0.0938
     0.0938   0.0938   0.0938   0.0938   0.0938   0.0938   0.0938   0.0938
     0.0937   0.0937   0.0937   0.0937   0.0937   0.0937   0.0937   0.0937
     0.0000   0.0000   0.0000   0.0000   0.0000   0.0000   0.0000   0.0000
     0.0000   0.0000   0.0000   0.0000   0.0000

          k =-0.2500 0.2500 0.2500 (  2743 PWs)   bands (ev):

    -7.8999  -6.9230  -6.6780  -6.6780  -6.6775  -6.6271  -6.6200  -6.6200
     4.3462   4.3567   4.3567   4.6165   5.3443   5.3450   5.3450   6.4835
     6.4852   6.4852   6.6249   6.6286   6.6286   6.7018   6.7018   7.2154
     7.2200   7.2200   7.7083   7.7121   7.7121   7.9768   8.4599   8.4599
     9.2692   9.2694   9.2694   9.6231   9.6231  10.0071  10.0691  10.0699
    10.0699  10.2833  10.2833  10.2881  10.6078  10.6078  10.6114  10.6325
    10.6325  10.7273  10.7301  10.7301  10.9236  10.9236  10.9483  10.9543
    10.9543  11.0469  11.2603  11.2749  11.2749  11.4059  11.4059  11.4125
    13.3401  13.3401  13.3537  13.3564  13.3564  13.3609  13.3859  13.3859
    14.7682  17.5961  18.6754  18.6754  18.6775

     occupation numbers 
     0.0313   0.0313   0.0313   0.0313   0.0313   0.0313   0.0313   0.0313
     0.0313   0.0313   0.0313   0.0313   0.0313   0.0313   0.0313   0.0313
     0.0313   0.0313   0.0313   0.0313   0.0313   0.0313   0.0313   0.0313
     0.0313   0.0313   0.0313   0.0313   0.0313   0.0313   0.0313   0.0313
     0.0313   0.0313   0.0313   0.0313   0.0313   0.0313   0.0313   0.0313
     0.0313   0.0313   0.0313   0.0313   0.0313   0.0313   0.0313   0.0313
     0.0313   0.0313   0.0313   0.0313   0.0313   0.0313   0.0313   0.0313
     0.0313   0.0313   0.0312   0.0312   0.0312   0.0312   0.0312   0.0312
     0.0000   0.0000   0.0000   0.0000   0.0000   0.0000   0.0000   0.0000
     0.0000   0.0000   0.0000   0.0000   0.0000

          k = 0.5000-0.5000-0.5000 (  2764 PWs)   bands (ev):

    -7.4462  -7.4382  -6.6669  -6.6669  -6.6659  -6.6457  -6.6381  -6.6381
     5.0104   5.0131   5.0131   5.1123   5.1232   5.1232   6.0810   6.1255
     6.2611   6.2611   6.2627   6.6972   6.7029   6.7029   6.7518   6.7518
     6.7529   6.9824   6.9824   7.4498   7.4602   7.4602   7.8753   7.8753
     9.4943   9.4943   9.4947   9.6779   9.6779  10.1198  10.1249  10.1249
    10.1250  10.4654  10.4654  10.4727  10.5110  10.5110  10.5110  10.7442
    10.7442  10.8455  10.8455  10.8468  10.8866  11.0591  11.0591  11.0602
    11.2486  11.2635  11.2635  11.3031  11.3031  11.4133  11.4133  11.4203
    13.0434  13.0486  13.0486  13.0640  13.0640  13.0745  13.1045  13.1045
    16.4125  16.5596  19.6321  19.6321  19.6339

     occupation numbers 
     0.0156   0.0156   0.0156   0.0156   0.0156   0.0156   0.0156   0.0156
     0.0156   0.0156   0.0156   0.0156   0.0156   0.0156   0.0156   0.0156
     0.0156   0.0156   0.0156   0.0156   0.0156   0.0156   0.0156   0.0156
     0.0156   0.0156   0.0156   0.0156   0.0156   0.0156   0.0156   0.0156
     0.0156   0.0156   0.0156   0.0156   0.0156   0.0156   0.0156   0.0156
     0.0156   0.0156   0.0156   0.0156   0.0156   0.0156   0.0156   0.0156
     0.0156   0.0156   0.0156   0.0156   0.0156   0.0156   0.0156   0.0156
     0.0156   0.0156   0.0156   0.0156   0.0156   0.0156   0.0156   0.0156
     0.0000   0.0000   0.0000   0.0000   0.0000   0.0000   0.0000   0.0000
     0.0000   0.0000   0.0000   0.0000   0.0000

          k =-0.7500 0.7500-0.2500 (  2734 PWs)   bands (ev):

    -7.4963  -7.1657  -6.9588  -6.7642  -6.7623  -6.5880  -6.5497  -6.5438
     4.9706   4.9771   4.9812   5.2454   5.5019   5.5065   5.5096   6.1261
     6.2304   6.2352   6.3482   6.5690   6.5736   6.6653   6.8232   6.8267
     6.8352   7.0471   7.0508   7.1582   7.5121   7.7512   7.7770   8.0052
     9.3880   9.5621   9.9474   9.9494  10.0247  10.0284  10.0481  10.0495
    10.0630  10.1827  10.2183  10.2193  10.4069  10.4495  10.5050  10.5055
    10.6683  10.7007  10.7021  10.7177  10.9036  10.9584  11.1008  11.1121
    11.2216  11.2266  11.2472  11.2762  11.2909  11.2980  11.3533  11.3684
    12.7520  12.8122  12.8847  12.9083  13.2630  13.3452  13.3524  13.3752
    16.6952  17.6044  18.6729  19.3615  19.3622

     occupation numbers 
     0.0938   0.0938   0.0938   0.0938   0.0938   0.0938   0.0938   0.0938
     0.0938   0.0938   0.0938   0.0938   0.0938   0.0938   0.0938   0.0938
     0.0938   0.0938   0.0938   0.0938   0.0938   0.0938   0.0938   0.0938
     0.0938   0.0938   0.0938   0.0938   0.0938   0.0938   0.0938   0.0938
     0.0938   0.0938   0.0938   0.0938   0.0938   0.0938   0.0938   0.0938
     0.0938   0.0938   0.0938   0.0938   0.0938   0.0938   0.0938   0.0938
     0.0938   0.0938   0.0938   0.0938   0.0938   0.0938   0.0938   0.0938
     0.0937   0.0937   0.0937   0.0937   0.0937   0.0937   0.0937   0.0937
     0.0000   0.0000   0.0000   0.0000   0.0000   0.0000   0.0000   0.0000
     0.0000   0.0000   0.0000   0.0000   0.0000

          k = 0.7500-0.7500-0.2500 (  2734 PWs)   bands (ev):

    -7.4964  -7.1658  -6.9589  -6.7645  -6.7626  -6.5876  -6.5494  -6.5435
     4.9655   4.9764   4.9792   5.2862   5.4418   5.4993   5.5045   6.2244
     6.2275   6.2320   6.2687   6.6571   6.6680   6.6711   6.7016   6.7085
     6.8329   7.0853   7.0892   7.2756   7.3853   7.7585   7.7668   8.0575
     9.3595   9.5493   9.7640   9.7640   9.7890  10.0644  10.1000  10.1002
    10.2917  10.2970  10.4265  10.4283  10.4487  10.5599  10.5621  10.5639
    10.5828  10.6547  10.6568  10.6590  10.8511  10.8850  10.8929  10.9721
    11.0798  11.2520  11.2836  11.3133  11.3138  11.3709  11.3778  11.4359
    12.7049  12.8507  12.8875  12.9127  13.2887  13.3400  13.3459  13.3704
    16.6951  17.6058  18.6708  19.3607  19.3613

     occupation numbers 
     0.0938   0.0938   0.0938   0.0938   0.0938   0.0938   0.0938   0.0938
     0.0938   0.0938   0.0938   0.0938   0.0938   0.0938   0.0938   0.0938
     0.0938   0.0938   0.0938   0.0938   0.0938   0.0938   0.0938   0.0938
     0.0938   0.0938   0.0938   0.0938   0.0938   0.0938   0.0938   0.0938
     0.0938   0.0938   0.0938   0.0938   0.0938   0.0938   0.0938   0.0938
     0.0938   0.0938   0.0938   0.0938   0.0938   0.0938   0.0938   0.0938
     0.0938   0.0938   0.0938   0.0938   0.0938   0.0938   0.0938   0.0938
     0.0938   0.0937   0.0937   0.0937   0.0937   0.0937   0.0937   0.0937
     0.0000   0.0000   0.0000   0.0000   0.0000   0.0000   0.0000   0.0000
     0.0000   0.0000   0.0000   0.0000   0.0000

          k =-0.5000 0.5000 0.0000 (  2742 PWs)   bands (ev):

    -7.6347  -7.0106  -7.0102  -6.7118  -6.7114  -6.5962  -6.5921  -6.5369
     4.7719   4.7799   5.0793   5.0869   5.2434   5.2443   5.7045   5.9699
     6.3174   6.3198   6.5869   6.6793   6.6846   6.7917   6.8640   6.9243
     7.0232   7.1621   7.1697   7.2088   7.2121   7.4949   7.8420   8.1264
     9.5603   9.6126   9.6417   9.6429   9.7798  10.0784  10.0799  10.1348
    10.2466  10.2534  10.3097  10.3949  10.4536  10.5654  10.5672  10.5704
    10.6439  10.6681  10.6708  10.7574  10.7726  10.8277  11.0550  11.0608
    11.1178  11.2776  11.2861  11.3538  11.3763  11.3875  11.3948  11.4140
    13.0484  13.0522  13.0573  13.0737  13.0921  13.2103  13.2199  13.2540
    16.0101  18.0604  18.0646  19.3713  19.3766

     occupation numbers 
     0.0938   0.0938   0.0938   0.0938   0.0938   0.0938   0.0938   0.0938
     0.0938   0.0938   0.0938   0.0938   0.0938   0.0938   0.0938   0.0938
     0.0938   0.0938   0.0938   0.0938   0.0938   0.0938   0.0938   0.0938
     0.0938   0.0938   0.0938   0.0938   0.0938   0.0938   0.0938   0.0938
     0.0938   0.0938   0.0938   0.0938   0.0938   0.0938   0.0938   0.0938
     0.0938   0.0938   0.0938   0.0938   0.0938   0.0938   0.0938   0.0938
     0.0938   0.0938   0.0938   0.0938   0.0938   0.0938   0.0938   0.0938
     0.0938   0.0937   0.0937   0.0937   0.0937   0.0937   0.0937   0.0937
     0.0000   0.0000   0.0000   0.0000   0.0000   0.0000   0.0000   0.0000
     0.0000   0.0000   0.0000   0.0000   0.0000

     the Fermi energy is    11.9648 ev

!    total energy              =    -941.92021132 Ry
     Harris-Foulkes estimate   =    -941.92021129 Ry
     estimated scf accuracy    <          5.8E-09 Ry

     The total energy is the sum of the following terms:

     one-electron contribution =     -56.31402238 Ry
     hartree contribution      =     175.69493972 Ry
     xc contribution           =    -297.53951997 Ry
     ewald contribution        =    -763.85740583 Ry
     Hubbard energy            =       0.09579716 Ry
     smearing contrib. (-TS)   =       0.00000000 Ry

     total magnetization       =     0.00 Bohr mag/cell
     absolute magnetization    =    12.31 Bohr mag/cell

     convergence has been achieved in   8 iterations

     init_run     :     10.94s CPU     11.07s WALL (       1 calls)
     electrons    :    376.62s CPU    379.10s WALL (       1 calls)

     Called by init_run:
     wfcinit      :      0.00s CPU      0.00s WALL (       1 calls)
     potinit      :      0.99s CPU      1.03s WALL (       1 calls)

     Called by electrons:
     c_bands      :    275.15s CPU    275.85s WALL (       8 calls)
     sum_band     :     68.40s CPU     68.88s WALL (       8 calls)
     v_of_rho     :      7.95s CPU      7.99s WALL (       9 calls)
     v_h          :      0.16s CPU      0.15s WALL (       9 calls)
     v_xc         :      7.80s CPU      7.83s WALL (       9 calls)
     newd         :     27.74s CPU     27.77s WALL (       9 calls)
     mix_rho      :      0.47s CPU      0.48s WALL (       8 calls)

     Called by c_bands:
     init_us_2    :      2.09s CPU      2.08s WALL (     416 calls)
     cegterg      :    266.80s CPU    267.26s WALL (     208 calls)

     Called by sum_band:
     sum_band:bec :      0.48s CPU      0.47s WALL (     208 calls)
     addusdens    :     26.51s CPU     26.52s WALL (       8 calls)

     Called by *egterg:
     h_psi        :    175.18s CPU    175.57s WALL (     817 calls)
     s_psi        :     16.37s CPU     16.38s WALL (     817 calls)
     g_psi        :      0.92s CPU      0.91s WALL (     609 calls)
     cdiaghg      :     30.62s CPU     30.64s WALL (     791 calls)
     cegterg:over :     16.77s CPU     16.78s WALL (     609 calls)
     cegterg:upda :     10.50s CPU     10.53s WALL (     609 calls)
     cegterg:last :      7.80s CPU      7.80s WALL (     230 calls)

     Called by h_psi:
     h_psi:vloc   :    124.86s CPU    125.23s WALL (     817 calls)
     h_psi:vnl    :     32.85s CPU     32.86s WALL (     817 calls)
     add_vuspsi   :     16.40s CPU     16.40s WALL (     817 calls)
     vhpsi        :     17.12s CPU     17.11s WALL (     817 calls)

     General routines
     calbec       :     31.97s CPU     32.02s WALL (    2050 calls)
     fft          :      3.62s CPU      3.63s WALL (     267 calls)
     ffts         :      0.09s CPU      0.09s WALL (      34 calls)
     fftw         :    125.06s CPU    125.41s WALL (   92960 calls)
     interpolate  :      0.59s CPU      0.60s WALL (      34 calls)
     davcio       :      0.01s CPU      0.50s WALL (     442 calls)

     Parallel routines
     fft_scatter  :     30.75s CPU     30.87s WALL (   93261 calls)
     Hubbard U routines
     new_ns       :      2.78s CPU      3.01s WALL (       8 calls)
     vhpsi        :     17.12s CPU     17.11s WALL (     817 calls)

     PWSCF        :  6m28.10s CPU     6m31.06s WALL


   This run was terminated on:  15:53: 6  13Nov2012            

=------------------------------------------------------------------------------=
   JOB DONE.
=------------------------------------------------------------------------------=
 
Job Ended on n18 at Tue Nov 13 15:53:06 EST 2012
 
