   JOB DONE.
=------------------------------------------------------------------------------=

     Program PWSCF v.5.0.1 starts on 13Nov2012 at 15:40: 0 

     This program is part of the open-source Quantum ESPRESSO suite
     for quantum simulation of materials; please cite
         "P. Giannozzi et al., J. Phys.:Condens. Matter 21 395502 (2009);
          URL http://www.quantum-espresso.org", 
     in publications or presentations arising from this work. More details at
     http://www.quantum-espresso.org/quote.php

     Parallel version (MPI), running on     2 processors
     R & G space division:  proc/pool =    2

     Current dimensions of program PWSCF are:
     Max number of different atomic species (ntypx) = 10
     Max number of k-points (npk) =  40000
     Max angular momentum in pseudopotentials (lmaxx) =  3
     Reading input from NiO_U0_a10.in
               file Ni.pbe-nd-rrkjus.UPF: wavefunction(s)  4S renormalized
               file Ni.pbe-nd-rrkjus.UPF: wavefunction(s)  4S renormalized
               file Ni.pbe-nd-rrkjus.UPF: wavefunction(s)  4S renormalized
               file O.pbe-rrkjus.UPF: wavefunction(s)  2S renormalized

     Subspace diagonalization in iterative solution of the eigenvalue problem:
     a serial algorithm will be used


     Parallelization info
     --------------------
     sticks:   dense  smooth     PW     G-vecs:    dense   smooth      PW
     Min        1293     519    150                43273    11032    1738
     Max        1294     520    151                43274    11043    1741
     Sum        2587    1039    301                86547    22075    3479


     Title: 
     GGA + U, U = 1D-40, alpha = 0.100                                          


     bravais-lattice index     =            2
     lattice parameter (alat)  =      15.8000  a.u.
     unit-cell volume          =     986.0780 (a.u.)^3
     number of atoms/cell      =           16
     number of atomic types    =            4
     number of electrons       =       128.00
     number of Kohn-Sham states=           77
     kinetic-energy cutoff     =      30.0000  Ry
     charge density cutoff     =     300.0000  Ry
     convergence threshold     =      1.0E-08
     mixing beta               =       0.3000
     number of iterations used =            8  plain     mixing
     Exchange-correlation      =  SLA  PW   PBE  PBE ( 1 4 3 4 0)
     EXX-fraction              =        0.00

     celldm(1)=  15.800000  celldm(2)=   0.000000  celldm(3)=   0.000000
     celldm(4)=   0.000000  celldm(5)=   0.000000  celldm(6)=   0.000000

     crystal axes: (cart. coord. in units of alat)
               a(1) = (  -0.500000   0.000000   0.500000 )  
               a(2) = (   0.000000   0.500000   0.500000 )  
               a(3) = (  -0.500000   0.500000   0.000000 )  

     reciprocal axes: (cart. coord. in units 2 pi/alat)
               b(1) = ( -1.000000 -1.000000  1.000000 )  
               b(2) = (  1.000000  1.000000  1.000000 )  
               b(3) = ( -1.000000  1.000000 -1.000000 )  


     PseudoPot. # 1 for Ni read from file:
     /home/mcurnan/dft-course/Project1/example_NiO/Ni.pbe-nd-rrkjus.UPF
     MD5 check sum: 8081f0a005c9a5470caab1a58e82ecb2
     Pseudo is Ultrasoft + core correction, Zval = 10.0
     Generated by new atomic code, or converted to UPF format
     Using radial grid of 1203 points,  6 beta functions with: 
                l(1) =   0
                l(2) =   0
                l(3) =   1
                l(4) =   1
                l(5) =   2
                l(6) =   2
     Q(r) pseudized with 0 coefficients 


     PseudoPot. # 2 for Ni read from file:
     /home/mcurnan/dft-course/Project1/example_NiO/Ni.pbe-nd-rrkjus.UPF
     MD5 check sum: 8081f0a005c9a5470caab1a58e82ecb2
     Pseudo is Ultrasoft + core correction, Zval = 10.0
     Generated by new atomic code, or converted to UPF format
     Using radial grid of 1203 points,  6 beta functions with: 
                l(1) =   0
                l(2) =   0
                l(3) =   1
                l(4) =   1
                l(5) =   2
                l(6) =   2
     Q(r) pseudized with 0 coefficients 


     PseudoPot. # 3 for Ni read from file:
     /home/mcurnan/dft-course/Project1/example_NiO/Ni.pbe-nd-rrkjus.UPF
     MD5 check sum: 8081f0a005c9a5470caab1a58e82ecb2
     Pseudo is Ultrasoft + core correction, Zval = 10.0
     Generated by new atomic code, or converted to UPF format
     Using radial grid of 1203 points,  6 beta functions with: 
                l(1) =   0
                l(2) =   0
                l(3) =   1
                l(4) =   1
                l(5) =   2
                l(6) =   2
     Q(r) pseudized with 0 coefficients 


     PseudoPot. # 4 for O  read from file:
     /home/mcurnan/dft-course/Project1/example_NiO/O.pbe-rrkjus.UPF
     MD5 check sum: 390ba29e75625707450f3bd3f0eb6be9
     Pseudo is Ultrasoft, Zval =  6.0
     Generated by new atomic code, or converted to UPF format
     Using radial grid of 1269 points,  4 beta functions with: 
                l(1) =   0
                l(2) =   0
                l(3) =   1
                l(4) =   1
     Q(r) pseudized with 0 coefficients 


     atomic species   valence    mass     pseudopotential
        Ni1           10.00     1.00000     Ni( 1.00)
        Ni2           10.00     1.00000     Ni( 1.00)
        Ni3           10.00     1.00000     Ni( 1.00)
        O1             6.00     1.00000     O ( 1.00)

     Starting magnetic structure 
     atomic species   magnetization
        Ni1          0.500
        Ni2          0.500
        Ni3         -0.500
        O1           0.000
 -----
     simplified LDA+U calculation, Hubbard_lmax = 2
     atomic species  L   Hubbard U  Hubbard alpha
        Ni1          2    0.000000    0.100000
        Ni2          2    0.000000    0.000000
        Ni3          2    0.000000    0.000000
        O1           1    0.000000    0.000000
 -----

     12 Sym. Ops., with inversion, found


                                    s                        frac. trans.

      isym =  1     identity                                     

 cryst.   s( 1) = (     1          0          0      )
                  (     0          1          0      )
                  (     0          0          1      )

 cart.    s( 1) = (  1.0000000  0.0000000  0.0000000 )
                  (  0.0000000  1.0000000  0.0000000 )
                  (  0.0000000  0.0000000  1.0000000 )


      isym =  2     180 deg rotation - cart. axis [1,1,0]        

 cryst.   s( 2) = (     0         -1          0      )
                  (    -1          0          0      )
                  (     0          0         -1      )

 cart.    s( 2) = (  0.0000000  1.0000000  0.0000000 )
                  (  1.0000000  0.0000000  0.0000000 )
                  (  0.0000000  0.0000000 -1.0000000 )


      isym =  3     180 deg rotation - cart. axis [1,0,1]        

 cryst.   s( 3) = (    -1          0          0      )
                  (     0          0         -1      )
                  (     0         -1          0      )

 cart.    s( 3) = (  0.0000000  0.0000000  1.0000000 )
                  (  0.0000000 -1.0000000  0.0000000 )
                  (  1.0000000  0.0000000  0.0000000 )


      isym =  4     180 deg rotation - cart. axis [0,1,-1]       

 cryst.   s( 4) = (     0          0         -1      )
                  (     0         -1          0      )
                  (    -1          0          0      )

 cart.    s( 4) = ( -1.0000000  0.0000000  0.0000000 )
                  (  0.0000000  0.0000000 -1.0000000 )
                  (  0.0000000 -1.0000000  0.0000000 )


      isym =  5     120 deg rotation - cart. axis [-1,1,1]       

 cryst.   s( 5) = (     0          1          0      )
                  (     0          0          1      )
                  (     1          0          0      )

 cart.    s( 5) = (  0.0000000 -1.0000000  0.0000000 )
                  (  0.0000000  0.0000000  1.0000000 )
                  ( -1.0000000  0.0000000  0.0000000 )


      isym =  6     120 deg rotation - cart. axis [1,-1,-1]      

 cryst.   s( 6) = (     0          0          1      )
                  (     1          0          0      )
                  (     0          1          0      )

 cart.    s( 6) = (  0.0000000  0.0000000 -1.0000000 )
                  ( -1.0000000  0.0000000  0.0000000 )
                  (  0.0000000  1.0000000  0.0000000 )


      isym =  7     inversion                                    

 cryst.   s( 7) = (    -1          0          0      )
                  (     0         -1          0      )
                  (     0          0         -1      )

 cart.    s( 7) = ( -1.0000000  0.0000000  0.0000000 )
                  (  0.0000000 -1.0000000  0.0000000 )
                  (  0.0000000  0.0000000 -1.0000000 )


      isym =  8     inv. 180 deg rotation - cart. axis [1,1,0]   

 cryst.   s( 8) = (     0          1          0      )
                  (     1          0          0      )
                  (     0          0          1      )

 cart.    s( 8) = (  0.0000000 -1.0000000  0.0000000 )
                  ( -1.0000000  0.0000000  0.0000000 )
                  (  0.0000000  0.0000000  1.0000000 )


      isym =  9     inv. 180 deg rotation - cart. axis [1,0,1]   

 cryst.   s( 9) = (     1          0          0      )
                  (     0          0          1      )
                  (     0          1          0      )

 cart.    s( 9) = (  0.0000000  0.0000000 -1.0000000 )
                  (  0.0000000  1.0000000  0.0000000 )
                  ( -1.0000000  0.0000000  0.0000000 )


      isym = 10     inv. 180 deg rotation - cart. axis [0,1,-1]  

 cryst.   s(10) = (     0          0          1      )
                  (     0          1          0      )
                  (     1          0          0      )

 cart.    s(10) = (  1.0000000  0.0000000  0.0000000 )
                  (  0.0000000  0.0000000  1.0000000 )
                  (  0.0000000  1.0000000  0.0000000 )


      isym = 11     inv. 120 deg rotation - cart. axis [-1,1,1]  

 cryst.   s(11) = (     0         -1          0      )
                  (     0          0         -1      )
                  (    -1          0          0      )

 cart.    s(11) = (  0.0000000  1.0000000  0.0000000 )
                  (  0.0000000  0.0000000 -1.0000000 )
                  (  1.0000000  0.0000000  0.0000000 )


      isym = 12     inv. 120 deg rotation - cart. axis [1,-1,-1] 

 cryst.   s(12) = (     0          0         -1      )
                  (    -1          0          0      )
                  (     0         -1          0      )

 cart.    s(12) = (  0.0000000  0.0000000  1.0000000 )
                  (  1.0000000  0.0000000  0.0000000 )
                  (  0.0000000 -1.0000000  0.0000000 )


     point group D_3d (-3m) 
     there are  6 classes
     the character table:

       E     2C3   3C2'  i     2S6   3s_d 
A_1g   1.00  1.00  1.00  1.00  1.00  1.00
A_2g   1.00  1.00 -1.00  1.00  1.00 -1.00
E_g    2.00 -1.00  0.00  2.00 -1.00  0.00
A_1u   1.00  1.00  1.00 -1.00 -1.00 -1.00
A_2u   1.00  1.00 -1.00 -1.00 -1.00  1.00
E_u    2.00 -1.00  0.00 -2.00  1.00  0.00

     the symmetry operations in each class:
     E        1
     3C2'     2    4    3
     2C3      5    6
     i        7
     3s_d     8   10    9
     2S6     11   12

   Cartesian axes

     site n.     atom                  positions (alat units)
         1           Ni1 tau(   1) = (   0.0000000   0.0000000   0.0000000  )
         2           Ni2 tau(   2) = (  -0.2500000   0.2500000   0.5000000  )
         3           Ni2 tau(   3) = (  -0.5000000   0.2500000   0.2500000  )
         4           Ni2 tau(   4) = (  -0.2500000   0.5000000   0.2500000  )
         5           Ni3 tau(   5) = (  -0.2500000   0.0000000   0.2500000  )
         6           Ni3 tau(   6) = (   0.0000000   0.2500000   0.2500000  )
         7           Ni3 tau(   7) = (  -0.2500000   0.2500000   0.0000000  )
         8           Ni3 tau(   8) = (  -0.5000000   0.5000000   0.5000000  )
         9           O1  tau(   9) = (   0.0000000   0.2500000   0.0000000  )
        10           O1  tau(  10) = (  -0.2500000   0.2500000   0.2500000  )
        11           O1  tau(  11) = (  -0.2500000   0.5000000   0.0000000  )
        12           O1  tau(  12) = (   0.0000000   0.5000000   0.2500000  )
        13           O1  tau(  13) = (  -0.2500000   0.5000000   0.5000000  )
        14           O1  tau(  14) = (  -0.5000000   0.5000000   0.2500000  )
        15           O1  tau(  15) = (  -0.2500000   0.7500000   0.2500000  )
        16           O1  tau(  16) = (  -0.5000000   0.7500000   0.5000000  )

   Crystallographic axes

     site n.     atom                  positions (cryst. coord.)
         1           Ni1 tau(   1) = (  0.0000000  0.0000000  0.0000000  )
         2           Ni2 tau(   2) = (  0.5000000  0.5000000  0.0000000  )
         3           Ni2 tau(   3) = (  0.5000000  0.0000000  0.5000000  )
         4           Ni2 tau(   4) = (  0.0000000  0.5000000  0.5000000  )
         5           Ni3 tau(   5) = (  0.5000000  0.0000000  0.0000000  )
         6           Ni3 tau(   6) = (  0.0000000  0.5000000  0.0000000  )
         7           Ni3 tau(   7) = (  0.0000000  0.0000000  0.5000000  )
         8           Ni3 tau(   8) = (  0.5000000  0.5000000  0.5000000  )
         9           O1  tau(   9) = ( -0.2500000  0.2500000  0.2500000  )
        10           O1  tau(  10) = (  0.2500000  0.2500000  0.2500000  )
        11           O1  tau(  11) = ( -0.2500000  0.2500000  0.7500000  )
        12           O1  tau(  12) = ( -0.2500000  0.7500000  0.2500000  )
        13           O1  tau(  13) = (  0.2500000  0.7500000  0.2500000  )
        14           O1  tau(  14) = (  0.2500000  0.2500000  0.7500000  )
        15           O1  tau(  15) = ( -0.2500000  0.7500000  0.7500000  )
        16           O1  tau(  16) = (  0.2500000  0.7500000  0.7500000  )

     number of k points=    26  gaussian smearing, width (Ry)=  0.0100
                       cart. coord. in units 2pi/alat
        k(    1) = (   0.0000000   0.0000000   0.0000000), wk =   0.0156250
        k(    2) = (  -0.2500000   0.2500000  -0.2500000), wk =   0.0937500
        k(    3) = (   0.5000000  -0.5000000   0.5000000), wk =   0.0468750
        k(    4) = (   0.0000000   0.5000000   0.0000000), wk =   0.0937500
        k(    5) = (   0.7500000  -0.2500000   0.7500000), wk =   0.1875000
        k(    6) = (   0.5000000   0.0000000   0.5000000), wk =   0.0937500
        k(    7) = (   0.0000000  -1.0000000   0.0000000), wk =   0.0468750
        k(    8) = (  -0.5000000  -1.0000000   0.0000000), wk =   0.0937500
        k(    9) = (  -0.2500000   0.2500000   0.2500000), wk =   0.0312500
        k(   10) = (   0.5000000  -0.5000000  -0.5000000), wk =   0.0156250
        k(   11) = (  -0.7500000   0.7500000  -0.2500000), wk =   0.0937500
        k(   12) = (   0.7500000  -0.7500000  -0.2500000), wk =   0.0937500
        k(   13) = (  -0.5000000   0.5000000   0.0000000), wk =   0.0937500
        k(   14) = (   0.0000000   0.0000000   0.0000000), wk =   0.0156250
        k(   15) = (  -0.2500000   0.2500000  -0.2500000), wk =   0.0937500
        k(   16) = (   0.5000000  -0.5000000   0.5000000), wk =   0.0468750
        k(   17) = (   0.0000000   0.5000000   0.0000000), wk =   0.0937500
        k(   18) = (   0.7500000  -0.2500000   0.7500000), wk =   0.1875000
        k(   19) = (   0.5000000   0.0000000   0.5000000), wk =   0.0937500
        k(   20) = (   0.0000000  -1.0000000   0.0000000), wk =   0.0468750
        k(   21) = (  -0.5000000  -1.0000000   0.0000000), wk =   0.0937500
        k(   22) = (  -0.2500000   0.2500000   0.2500000), wk =   0.0312500
        k(   23) = (   0.5000000  -0.5000000  -0.5000000), wk =   0.0156250
        k(   24) = (  -0.7500000   0.7500000  -0.2500000), wk =   0.0937500
        k(   25) = (   0.7500000  -0.7500000  -0.2500000), wk =   0.0937500
        k(   26) = (  -0.5000000   0.5000000   0.0000000), wk =   0.0937500

                       cryst. coord.
        k(    1) = (   0.0000000   0.0000000   0.0000000), wk =   0.0156250
        k(    2) = (   0.0000000   0.0000000   0.2500000), wk =   0.0937500
        k(    3) = (   0.0000000   0.0000000  -0.5000000), wk =   0.0468750
        k(    4) = (   0.0000000   0.2500000   0.2500000), wk =   0.0937500
        k(    5) = (   0.0000000   0.2500000  -0.5000000), wk =   0.1875000
        k(    6) = (   0.0000000   0.2500000  -0.2500000), wk =   0.0937500
        k(    7) = (   0.0000000  -0.5000000  -0.5000000), wk =   0.0468750
        k(    8) = (   0.2500000  -0.5000000  -0.2500000), wk =   0.0937500
        k(    9) = (   0.2500000   0.2500000   0.2500000), wk =   0.0312500
        k(   10) = (  -0.5000000  -0.5000000  -0.5000000), wk =   0.0156250
        k(   11) = (   0.2500000   0.2500000   0.7500000), wk =   0.0937500
        k(   12) = (  -0.5000000  -0.5000000  -0.7500000), wk =   0.0937500
        k(   13) = (   0.2500000   0.2500000   0.5000000), wk =   0.0937500
        k(   14) = (   0.0000000   0.0000000   0.0000000), wk =   0.0156250
        k(   15) = (   0.0000000   0.0000000   0.2500000), wk =   0.0937500
        k(   16) = (   0.0000000   0.0000000  -0.5000000), wk =   0.0468750
        k(   17) = (   0.0000000   0.2500000   0.2500000), wk =   0.0937500
        k(   18) = (   0.0000000   0.2500000  -0.5000000), wk =   0.1875000
        k(   19) = (   0.0000000   0.2500000  -0.2500000), wk =   0.0937500
        k(   20) = (   0.0000000  -0.5000000  -0.5000000), wk =   0.0468750
        k(   21) = (   0.2500000  -0.5000000  -0.2500000), wk =   0.0937500
        k(   22) = (   0.2500000   0.2500000   0.2500000), wk =   0.0312500
        k(   23) = (  -0.5000000  -0.5000000  -0.5000000), wk =   0.0156250
        k(   24) = (   0.2500000   0.2500000   0.7500000), wk =   0.0937500
        k(   25) = (  -0.5000000  -0.5000000  -0.7500000), wk =   0.0937500
        k(   26) = (   0.2500000   0.2500000   0.5000000), wk =   0.0937500

     Dense  grid:    86547 G-vectors     FFT dimensions: (  64,  64,  64)

     Smooth grid:    22075 G-vectors     FFT dimensions: (  40,  40,  40)

     Largest allocated arrays     est. size (Mb)     dimensions
        Kohn-Sham Wavefunctions         1.64 Mb     (   1395,   77)
        Atomic wavefunctions            1.70 Mb     (   1395,   80)
        NL pseudopotentials             4.43 Mb     (   1395,  208)
        Each V/rho on FFT grid          4.00 Mb     ( 131072,   2)
        Each G-vector array             0.33 Mb     (  43274)
        G-vector shells                 0.00 Mb     (    635)
     Largest temporary arrays     est. size (Mb)     dimensions
        Auxiliary wavefunctions         6.56 Mb     (   1395,  308)
        Each subspace H/S matrix        1.45 Mb     ( 308, 308)
        Each <psi_i|beta_j> matrix      0.24 Mb     (    208,   77)
        Arrays for rho mixing          16.00 Mb     ( 131072,   8)

     Check: negative/imaginary core charge=   -0.000047    0.000000

     The initial density is read from file :
     /home/mcurnan/dft-course/Project1/example_NiO/0/Ni/alpha/NiO_U0.save/charge-density.dat

 --- in v_hubbard ---
Hubbard energy    0.0640
 -------
     Number of +U iterations with fixed ns =  0
     Starting occupations:
 --- enter write_ns ---
 LDA+U parameters:
U( 1)     =  0.00000000
alpha( 1) =  0.10000000
U( 2)     =  0.00000000
alpha( 2) =  0.00000000
U( 3)     =  0.00000000
alpha( 3) =  0.00000000
U( 4)     =  0.00000000
alpha( 4) =  0.00000000
atom    1   Tr[ns(na)] (up, down, total) =   4.95241  3.75362  8.70602
   spin  1
    eigenvalues: 
  0.980  0.980  0.997  0.997  0.997
    eigenvectors:
  0.027  0.973  0.000  0.000  0.000
  0.000  0.000  0.028  0.639  0.333
  0.000  0.000  0.601  0.065  0.333
  0.973  0.027  0.000  0.000  0.000
  0.000  0.000  0.371  0.296  0.333
    occupations:
  0.980  0.000  0.000  0.000  0.000
  0.000  0.997  0.000  0.000  0.000
  0.000  0.000  0.997  0.000  0.000
  0.000  0.000  0.000  0.980  0.000
  0.000  0.000  0.000  0.000  0.997
   spin  2
    eigenvalues: 
  0.384  0.384  0.995  0.995  0.995
    eigenvectors:
  0.032  0.968  0.000  0.000  0.000
  0.000  0.000  0.042  0.625  0.333
  0.000  0.000  0.619  0.048  0.333
  0.968  0.032  0.000  0.000  0.000
  0.000  0.000  0.339  0.328  0.333
    occupations:
  0.384 -0.001  0.001  0.000 -0.001
 -0.001  0.995  0.000 -0.001  0.000
  0.001  0.000  0.995 -0.001  0.000
  0.000 -0.001 -0.001  0.384  0.000
 -0.001  0.000  0.000  0.000  0.995
atomic mag. moment =     1.198792
atom    2   Tr[ns(na)] (up, down, total) =   4.95241  3.75361  8.70602
   spin  1
    eigenvalues: 
  0.980  0.980  0.997  0.997  0.997
    eigenvectors:
  0.000  1.000  0.000  0.000  0.000
  0.000  0.000  0.167  0.500  0.333
  0.000  0.000  0.167  0.500  0.333
  1.000  0.000  0.000  0.000  0.000
  0.000  0.000  0.667  0.000  0.333
    occupations:
  0.980  0.000  0.000  0.000  0.000
  0.000  0.997  0.000  0.000  0.000
  0.000  0.000  0.997  0.000  0.000
  0.000  0.000  0.000  0.980  0.000
  0.000  0.000  0.000  0.000  0.997
   spin  2
    eigenvalues: 
  0.384  0.384  0.995  0.995  0.995
    eigenvectors:
  1.000  0.000  0.000  0.000  0.000
  0.000  0.000  0.167  0.500  0.333
  0.000  0.000  0.167  0.500  0.333
  0.000  1.000  0.000  0.000  0.000
  0.000  0.000  0.667  0.000  0.333
    occupations:
  0.384 -0.001  0.001  0.000 -0.001
 -0.001  0.995  0.000 -0.001  0.000
  0.001  0.000  0.995 -0.001  0.000
  0.000 -0.001 -0.001  0.384  0.000
 -0.001  0.000  0.000  0.000  0.995
atomic mag. moment =     1.198793
atom    3   Tr[ns(na)] (up, down, total) =   4.95241  3.75361  8.70602
   spin  1
    eigenvalues: 
  0.980  0.980  0.997  0.997  0.997
    eigenvectors:
  0.750  0.250  0.000  0.000  0.000
  0.000  0.000  0.167  0.500  0.333
  0.000  0.000  0.667  0.000  0.333
  0.250  0.750  0.000  0.000  0.000
  0.000  0.000  0.167  0.500  0.333
    occupations:
  0.980  0.000  0.000  0.000  0.000
  0.000  0.997  0.000  0.000  0.000
  0.000  0.000  0.997  0.000  0.000
  0.000  0.000  0.000  0.980  0.000
  0.000  0.000  0.000  0.000  0.997
   spin  2
    eigenvalues: 
  0.384  0.384  0.995  0.995  0.995
    eigenvectors:
  0.250  0.750  0.000  0.000  0.000
  0.000  0.000  0.167  0.500  0.333
  0.000  0.000  0.667  0.000  0.333
  0.750  0.250  0.000  0.000  0.000
  0.000  0.000  0.167  0.500  0.333
    occupations:
  0.384 -0.001  0.001  0.000 -0.001
 -0.001  0.995  0.000 -0.001  0.000
  0.001  0.000  0.995 -0.001  0.000
  0.000 -0.001 -0.001  0.384  0.000
 -0.001  0.000  0.000  0.000  0.995
atomic mag. moment =     1.198793
atom    4   Tr[ns(na)] (up, down, total) =   4.95241  3.75361  8.70602
   spin  1
    eigenvalues: 
  0.980  0.980  0.997  0.997  0.997
    eigenvectors:
  0.750  0.250  0.000  0.000  0.000
  0.000  0.000  0.667  0.000  0.333
  0.000  0.000  0.167  0.500  0.333
  0.250  0.750  0.000  0.000  0.000
  0.000  0.000  0.167  0.500  0.333
    occupations:
  0.980  0.000  0.000  0.000  0.000
  0.000  0.997  0.000  0.000  0.000
  0.000  0.000  0.997  0.000  0.000
  0.000  0.000  0.000  0.980  0.000
  0.000  0.000  0.000  0.000  0.997
   spin  2
    eigenvalues: 
  0.384  0.384  0.995  0.995  0.995
    eigenvectors:
  0.250  0.750  0.000  0.000  0.000
  0.000  0.000  0.667  0.000  0.333
  0.000  0.000  0.167  0.500  0.333
  0.750  0.250  0.000  0.000  0.000
  0.000  0.000  0.167  0.500  0.333
    occupations:
  0.384 -0.001  0.001  0.000 -0.001
 -0.001  0.995  0.000 -0.001  0.000
  0.001  0.000  0.995 -0.001  0.000
  0.000 -0.001 -0.001  0.384  0.000
 -0.001  0.000  0.000  0.000  0.995
atomic mag. moment =     1.198793
atom    5   Tr[ns(na)] (up, down, total) =   3.75362  4.95241  8.70603
   spin  1
    eigenvalues: 
  0.384  0.384  0.995  0.995  0.995
    eigenvectors:
  0.250  0.750  0.000  0.000  0.000
  0.000  0.000  0.667  0.000  0.333
  0.000  0.000  0.167  0.500  0.333
  0.750  0.250  0.000  0.000  0.000
  0.000  0.000  0.167  0.500  0.333
    occupations:
  0.384 -0.001  0.001  0.000 -0.001
 -0.001  0.995  0.000 -0.001  0.000
  0.001  0.000  0.995 -0.001  0.000
  0.000 -0.001 -0.001  0.384  0.000
 -0.001  0.000  0.000  0.000  0.995
   spin  2
    eigenvalues: 
  0.980  0.980  0.997  0.997  0.997
    eigenvectors:
  0.750  0.250  0.000  0.000  0.000
  0.000  0.000  0.667  0.000  0.333
  0.000  0.000  0.167  0.500  0.333
  0.250  0.750  0.000  0.000  0.000
  0.000  0.000  0.167  0.500  0.333
    occupations:
  0.980  0.000  0.000  0.000  0.000
  0.000  0.997  0.000  0.000  0.000
  0.000  0.000  0.997  0.000  0.000
  0.000  0.000  0.000  0.980  0.000
  0.000  0.000  0.000  0.000  0.997
atomic mag. moment =    -1.198790
atom    6   Tr[ns(na)] (up, down, total) =   3.75362  4.95241  8.70603
   spin  1
    eigenvalues: 
  0.384  0.384  0.995  0.995  0.995
    eigenvectors:
  0.250  0.750  0.000  0.000  0.000
  0.000  0.000  0.167  0.500  0.333
  0.000  0.000  0.667  0.000  0.333
  0.750  0.250  0.000  0.000  0.000
  0.000  0.000  0.167  0.500  0.333
    occupations:
  0.384 -0.001  0.001  0.000 -0.001
 -0.001  0.995  0.000 -0.001  0.000
  0.001  0.000  0.995 -0.001  0.000
  0.000 -0.001 -0.001  0.384  0.000
 -0.001  0.000  0.000  0.000  0.995
   spin  2
    eigenvalues: 
  0.980  0.980  0.997  0.997  0.997
    eigenvectors:
  0.750  0.250  0.000  0.000  0.000
  0.000  0.000  0.167  0.500  0.333
  0.000  0.000  0.667  0.000  0.333
  0.250  0.750  0.000  0.000  0.000
  0.000  0.000  0.167  0.500  0.333
    occupations:
  0.980  0.000  0.000  0.000  0.000
  0.000  0.997  0.000  0.000  0.000
  0.000  0.000  0.997  0.000  0.000
  0.000  0.000  0.000  0.980  0.000
  0.000  0.000  0.000  0.000  0.997
atomic mag. moment =    -1.198790
atom    7   Tr[ns(na)] (up, down, total) =   3.75362  4.95241  8.70603
   spin  1
    eigenvalues: 
  0.384  0.384  0.995  0.995  0.995
    eigenvectors:
  1.000  0.000  0.000  0.000  0.000
  0.000  0.000  0.167  0.500  0.333
  0.000  0.000  0.167  0.500  0.333
  0.000  1.000  0.000  0.000  0.000
  0.000  0.000  0.667  0.000  0.333
    occupations:
  0.384 -0.001  0.001  0.000 -0.001
 -0.001  0.995  0.000 -0.001  0.000
  0.001  0.000  0.995 -0.001  0.000
  0.000 -0.001 -0.001  0.384  0.000
 -0.001  0.000  0.000  0.000  0.995
   spin  2
    eigenvalues: 
  0.980  0.980  0.997  0.997  0.997
    eigenvectors:
  0.000  1.000  0.000  0.000  0.000
  0.000  0.000  0.167  0.500  0.333
  0.000  0.000  0.167  0.500  0.333
  1.000  0.000  0.000  0.000  0.000
  0.000  0.000  0.667  0.000  0.333
    occupations:
  0.980  0.000  0.000  0.000  0.000
  0.000  0.997  0.000  0.000  0.000
  0.000  0.000  0.997  0.000  0.000
  0.000  0.000  0.000  0.980  0.000
  0.000  0.000  0.000  0.000  0.997
atomic mag. moment =    -1.198790
atom    8   Tr[ns(na)] (up, down, total) =   3.75362  4.95241  8.70603
   spin  1
    eigenvalues: 
  0.384  0.384  0.995  0.995  0.995
    eigenvectors:
  0.039  0.961  0.000  0.000  0.000
  0.000  0.000  0.026  0.641  0.333
  0.000  0.000  0.599  0.068  0.333
  0.961  0.039  0.000  0.000  0.000
  0.000  0.000  0.375  0.292  0.333
    occupations:
  0.384 -0.001  0.001  0.000 -0.001
 -0.001  0.995  0.000 -0.001  0.000
  0.001  0.000  0.995 -0.001  0.000
  0.000 -0.001 -0.001  0.384  0.000
 -0.001  0.000  0.000  0.000  0.995
   spin  2
    eigenvalues: 
  0.980  0.980  0.997  0.997  0.997
    eigenvectors:
  0.006  0.994  0.000  0.000  0.000
  0.000  0.000  0.033  0.633  0.333
  0.000  0.000  0.609  0.058  0.333
  0.994  0.006  0.000  0.000  0.000
  0.000  0.000  0.358  0.309  0.333
    occupations:
  0.980  0.000  0.000  0.000  0.000
  0.000  0.997  0.000  0.000  0.000
  0.000  0.000  0.997  0.000  0.000
  0.000  0.000  0.000  0.980  0.000
  0.000  0.000  0.000  0.000  0.997
atomic mag. moment =    -1.198787
atom    9   Tr[ns(na)] (up, down, total) =   2.81114  2.81114  5.62228
   spin  1
    eigenvalues: 
  0.937  0.937  0.938
    eigenvectors:
  0.167  0.500  0.333
  0.167  0.500  0.333
  0.667  0.000  0.333
    occupations:
  0.937  0.000  0.000
  0.000  0.937  0.000
  0.000  0.000  0.937
   spin  2
    eigenvalues: 
  0.937  0.937  0.938
    eigenvectors:
  0.500  0.167  0.333
  0.500  0.167  0.333
  0.000  0.667  0.333
    occupations:
  0.937  0.000  0.000
  0.000  0.937  0.000
  0.000  0.000  0.937
atomic mag. moment =    -0.000001
atom   10   Tr[ns(na)] (up, down, total) =   2.81114  2.81114  5.62229
   spin  1
    eigenvalues: 
  0.937  0.937  0.938
    eigenvectors:
  0.060  0.607  0.333
  0.306  0.361  0.333
  0.635  0.032  0.333
    occupations:
  0.937  0.000  0.000
  0.000  0.937  0.000
  0.000  0.000  0.937
   spin  2
    eigenvalues: 
  0.937  0.937  0.938
    eigenvectors:
  0.038  0.628  0.333
  0.346  0.320  0.333
  0.615  0.051  0.333
    occupations:
  0.937  0.000  0.000
  0.000  0.937  0.000
  0.000  0.000  0.937
atomic mag. moment =     0.000000
atom   11   Tr[ns(na)] (up, down, total) =   2.81114  2.81114  5.62228
   spin  1
    eigenvalues: 
  0.937  0.937  0.938
    eigenvectors:
  0.167  0.500  0.333
  0.667  0.000  0.333
  0.167  0.500  0.333
    occupations:
  0.937  0.000  0.000
  0.000  0.937  0.000
  0.000  0.000  0.937
   spin  2
    eigenvalues: 
  0.937  0.937  0.938
    eigenvectors:
  0.500  0.167  0.333
  0.000  0.667  0.333
  0.500  0.167  0.333
    occupations:
  0.937  0.000  0.000
  0.000  0.937  0.000
  0.000  0.000  0.937
atomic mag. moment =    -0.000001
atom   12   Tr[ns(na)] (up, down, total) =   2.81114  2.81114  5.62228
   spin  1
    eigenvalues: 
  0.937  0.937  0.938
    eigenvectors:
  0.667  0.000  0.333
  0.167  0.500  0.333
  0.167  0.500  0.333
    occupations:
  0.937  0.000  0.000
  0.000  0.937  0.000
  0.000  0.000  0.937
   spin  2
    eigenvalues: 
  0.937  0.937  0.938
    eigenvectors:
  0.000  0.667  0.333
  0.500  0.167  0.333
  0.500  0.167  0.333
    occupations:
  0.937  0.000  0.000
  0.000  0.937  0.000
  0.000  0.000  0.937
atomic mag. moment =    -0.000001
atom   13   Tr[ns(na)] (up, down, total) =   2.81114  2.81114  5.62228
   spin  1
    eigenvalues: 
  0.937  0.937  0.938
    eigenvectors:
  0.167  0.500  0.333
  0.667  0.000  0.333
  0.167  0.500  0.333
    occupations:
  0.937  0.000  0.000
  0.000  0.937  0.000
  0.000  0.000  0.937
   spin  2
    eigenvalues: 
  0.937  0.937  0.938
    eigenvectors:
  0.500  0.167  0.333
  0.000  0.667  0.333
  0.500  0.167  0.333
    occupations:
  0.937  0.000  0.000
  0.000  0.937  0.000
  0.000  0.000  0.937
atomic mag. moment =    -0.000001
atom   14   Tr[ns(na)] (up, down, total) =   2.81114  2.81114  5.62228
   spin  1
    eigenvalues: 
  0.937  0.937  0.938
    eigenvectors:
  0.667  0.000  0.333
  0.167  0.500  0.333
  0.167  0.500  0.333
    occupations:
  0.937  0.000  0.000
  0.000  0.937  0.000
  0.000  0.000  0.937
   spin  2
    eigenvalues: 
  0.937  0.937  0.938
    eigenvectors:
  0.000  0.667  0.333
  0.500  0.167  0.333
  0.500  0.167  0.333
    occupations:
  0.937  0.000  0.000
  0.000  0.937  0.000
  0.000  0.000  0.937
atomic mag. moment =    -0.000001
atom   15   Tr[ns(na)] (up, down, total) =   2.81114  2.81114  5.62229
   spin  1
    eigenvalues: 
  0.937  0.937  0.938
    eigenvectors:
  0.059  0.607  0.333
  0.306  0.361  0.333
  0.635  0.032  0.333
    occupations:
  0.937  0.000  0.000
  0.000  0.937  0.000
  0.000  0.000  0.937
   spin  2
    eigenvalues: 
  0.937  0.937  0.938
    eigenvectors:
  0.040  0.626  0.333
  0.342  0.325  0.333
  0.618  0.049  0.333
    occupations:
  0.937  0.000  0.000
  0.000  0.937  0.000
  0.000  0.000  0.937
atomic mag. moment =     0.000000
atom   16   Tr[ns(na)] (up, down, total) =   2.81114  2.81114  5.62228
   spin  1
    eigenvalues: 
  0.937  0.937  0.938
    eigenvectors:
  0.167  0.500  0.333
  0.167  0.500  0.333
  0.667  0.000  0.333
    occupations:
  0.937  0.000  0.000
  0.000  0.937  0.000
  0.000  0.000  0.937
   spin  2
    eigenvalues: 
  0.937  0.937  0.938
    eigenvectors:
  0.500  0.167  0.333
  0.500  0.167  0.333
  0.000  0.667  0.333
    occupations:
  0.937  0.000  0.000
  0.000  0.937  0.000
  0.000  0.000  0.937
atomic mag. moment =    -0.000001
N of occupied +U levels = 114.6264805
 --- exit write_ns ---
 LDA+U Projector read from file 
     Starting wfc from file

     total cpu time spent up to now is       11.9 secs

     per-process dynamical memory:   103.5 Mb

     Self-consistent Calculation

     iteration #  1     ecut=    30.00 Ry     beta=0.30
     Davidson diagonalization with overlap
     ethr =  1.00E-10,  avg # of iterations = 11.0
 --- enter write_ns ---
 LDA+U parameters:
U( 1)     =  0.00000000
alpha( 1) =  0.10000000
U( 2)     =  0.00000000
alpha( 2) =  0.00000000
U( 3)     =  0.00000000
alpha( 3) =  0.00000000
U( 4)     =  0.00000000
alpha( 4) =  0.00000000
atom    1   Tr[ns(na)] (up, down, total) =   4.95035  3.73262  8.68297
   spin  1
    eigenvalues: 
  0.979  0.979  0.997  0.997  0.997
    eigenvectors:
  0.025  0.975  0.000  0.000  0.000
  0.000  0.000  0.034  0.633  0.333
  0.000  0.000  0.609  0.057  0.333
  0.975  0.025  0.000  0.000  0.000
  0.000  0.000  0.357  0.310  0.333
    occupations:
  0.979  0.000  0.000  0.000  0.000
  0.000  0.997  0.000  0.000  0.000
  0.000  0.000  0.997  0.000  0.000
  0.000  0.000  0.000  0.979  0.000
  0.000  0.000  0.000  0.000  0.997
   spin  2
    eigenvalues: 
  0.374  0.374  0.995  0.995  0.995
    eigenvectors:
  0.016  0.984  0.000  0.000  0.000
  0.000  0.000  0.023  0.643  0.333
  0.000  0.000  0.595  0.072  0.333
  0.984  0.016  0.000  0.000  0.000
  0.000  0.000  0.382  0.285  0.333
    occupations:
  0.374  0.000  0.000  0.000 -0.001
  0.000  0.995  0.000 -0.001  0.000
  0.000  0.000  0.995 -0.001  0.000
  0.000 -0.001 -0.001  0.374  0.000
 -0.001  0.000  0.000  0.000  0.995
atomic mag. moment =     1.217731
atom    2   Tr[ns(na)] (up, down, total) =   4.95243  3.75423  8.70666
   spin  1
    eigenvalues: 
  0.980  0.980  0.997  0.997  0.997
    eigenvectors:
  1.000  0.000  0.000  0.000  0.000
  0.000  0.000  0.166  0.500  0.334
  0.000  0.000  0.166  0.500  0.334
  0.000  1.000  0.000  0.000  0.000
  0.000  0.000  0.668  0.000  0.332
    occupations:
  0.980  0.000  0.000  0.000  0.000
  0.000  0.997  0.000  0.000  0.000
  0.000  0.000  0.997  0.000  0.000
  0.000  0.000  0.000  0.980  0.000
  0.000  0.000  0.000  0.000  0.997
   spin  2
    eigenvalues: 
  0.384  0.384  0.995  0.995  0.996
    eigenvectors:
  0.000  1.000  0.000  0.000  0.000
  0.000  0.000  0.500  0.399  0.101
  0.000  0.000  0.500  0.399  0.101
  1.000  0.000  0.000  0.000  0.000
  0.000  0.000  0.000  0.202  0.798
    occupations:
  0.384 -0.001  0.001  0.000 -0.001
 -0.001  0.995  0.000 -0.001  0.000
  0.001  0.000  0.995 -0.001  0.000
  0.000 -0.001 -0.001  0.384  0.000
 -0.001  0.000  0.000  0.000  0.996
atomic mag. moment =     1.198200
atom    3   Tr[ns(na)] (up, down, total) =   4.95243  3.75423  8.70666
   spin  1
    eigenvalues: 
  0.980  0.980  0.997  0.997  0.997
    eigenvectors:
  0.250  0.750  0.000  0.000  0.000
  0.000  0.000  0.166  0.500  0.334
  0.000  0.000  0.668  0.000  0.332
  0.750  0.250  0.000  0.000  0.000
  0.000  0.000  0.166  0.500  0.334
    occupations:
  0.980  0.000  0.000  0.000  0.000
  0.000  0.997  0.000  0.000  0.000
  0.000  0.000  0.997  0.000  0.000
  0.000  0.000  0.000  0.980  0.000
  0.000  0.000  0.000  0.000  0.997
   spin  2
    eigenvalues: 
  0.384  0.384  0.995  0.995  0.996
    eigenvectors:
  0.750  0.250  0.000  0.000  0.000
  0.000  0.000  0.500  0.399  0.101
  0.000  0.000  0.000  0.202  0.798
  0.250  0.750  0.000  0.000  0.000
  0.000  0.000  0.500  0.399  0.101
    occupations:
  0.384 -0.001  0.001  0.000 -0.001
 -0.001  0.995  0.000 -0.001  0.000
  0.001  0.000  0.996 -0.001  0.000
  0.000 -0.001 -0.001  0.384  0.000
 -0.001  0.000  0.000  0.000  0.995
atomic mag. moment =     1.198200
atom    4   Tr[ns(na)] (up, down, total) =   4.95243  3.75423  8.70666
   spin  1
    eigenvalues: 
  0.980  0.980  0.997  0.997  0.997
    eigenvectors:
  0.250  0.750  0.000  0.000  0.000
  0.000  0.000  0.668  0.000  0.332
  0.000  0.000  0.166  0.500  0.334
  0.750  0.250  0.000  0.000  0.000
  0.000  0.000  0.166  0.500  0.334
    occupations:
  0.980  0.000  0.000  0.000  0.000
  0.000  0.997  0.000  0.000  0.000
  0.000  0.000  0.997  0.000  0.000
  0.000  0.000  0.000  0.980  0.000
  0.000  0.000  0.000  0.000  0.997
   spin  2
    eigenvalues: 
  0.384  0.384  0.995  0.995  0.996
    eigenvectors:
  0.750  0.250  0.000  0.000  0.000
  0.000  0.000  0.000  0.202  0.798
  0.000  0.000  0.500  0.399  0.101
  0.250  0.750  0.000  0.000  0.000
  0.000  0.000  0.500  0.399  0.101
    occupations:
  0.384 -0.001  0.001  0.000 -0.001
 -0.001  0.996  0.000 -0.001  0.000
  0.001  0.000  0.995 -0.001  0.000
  0.000 -0.001 -0.001  0.384  0.000
 -0.001  0.000  0.000  0.000  0.995
atomic mag. moment =     1.198200
atom    5   Tr[ns(na)] (up, down, total) =   3.75369  4.95249  8.70618
   spin  1
    eigenvalues: 
  0.384  0.384  0.995  0.995  0.995
    eigenvectors:
  0.750  0.250  0.000  0.000  0.000
  0.000  0.000  0.665  0.000  0.335
  0.000  0.000  0.168  0.500  0.332
  0.250  0.750  0.000  0.000  0.000
  0.000  0.000  0.168  0.500  0.332
    occupations:
  0.384  0.000  0.001  0.000 -0.001
  0.000  0.995  0.000 -0.001  0.000
  0.001  0.000  0.995 -0.001  0.000
  0.000 -0.001 -0.001  0.384  0.000
 -0.001  0.000  0.000  0.000  0.995
   spin  2
    eigenvalues: 
  0.980  0.980  0.997  0.997  0.997
    eigenvectors:
  0.750  0.250  0.000  0.000  0.000
  0.000  0.000  0.000  0.074  0.926
  0.000  0.000  0.500  0.463  0.037
  0.250  0.750  0.000  0.000  0.000
  0.000  0.000  0.500  0.463  0.037
    occupations:
  0.980  0.000  0.000  0.000  0.000
  0.000  0.997  0.000  0.000  0.000
  0.000  0.000  0.997  0.000  0.000
  0.000  0.000  0.000  0.980  0.000
  0.000  0.000  0.000  0.000  0.997
atomic mag. moment =    -1.198798
atom    6   Tr[ns(na)] (up, down, total) =   3.75369  4.95249  8.70618
   spin  1
    eigenvalues: 
  0.384  0.384  0.995  0.995  0.995
    eigenvectors:
  0.750  0.250  0.000  0.000  0.000
  0.000  0.000  0.168  0.500  0.332
  0.000  0.000  0.665  0.000  0.335
  0.250  0.750  0.000  0.000  0.000
  0.000  0.000  0.168  0.500  0.332
    occupations:
  0.384 -0.001  0.000  0.000 -0.001
 -0.001  0.995  0.000 -0.001  0.000
  0.000  0.000  0.995 -0.001  0.000
  0.000 -0.001 -0.001  0.384  0.000
 -0.001  0.000  0.000  0.000  0.995
   spin  2
    eigenvalues: 
  0.980  0.980  0.997  0.997  0.997
    eigenvectors:
  0.750  0.250  0.000  0.000  0.000
  0.000  0.000  0.500  0.463  0.037
  0.000  0.000  0.000  0.074  0.926
  0.250  0.750  0.000  0.000  0.000
  0.000  0.000  0.500  0.463  0.037
    occupations:
  0.980  0.000  0.000  0.000  0.000
  0.000  0.997  0.000  0.000  0.000
  0.000  0.000  0.997  0.000  0.000
  0.000  0.000  0.000  0.980  0.000
  0.000  0.000  0.000  0.000  0.997
atomic mag. moment =    -1.198798
atom    7   Tr[ns(na)] (up, down, total) =   3.75369  4.95249  8.70618
   spin  1
    eigenvalues: 
  0.384  0.384  0.995  0.995  0.995
    eigenvectors:
  0.000  1.000  0.000  0.000  0.000
  0.000  0.000  0.168  0.500  0.332
  0.000  0.000  0.168  0.500  0.332
  1.000  0.000  0.000  0.000  0.000
  0.000  0.000  0.665  0.000  0.335
    occupations:
  0.384 -0.001  0.001  0.000 -0.001
 -0.001  0.995  0.000 -0.001  0.000
  0.001  0.000  0.995 -0.001  0.000
  0.000 -0.001 -0.001  0.384  0.000
 -0.001  0.000  0.000  0.000  0.995
   spin  2
    eigenvalues: 
  0.980  0.980  0.997  0.997  0.997
    eigenvectors:
  0.000  1.000  0.000  0.000  0.000
  0.000  0.000  0.500  0.463  0.037
  0.000  0.000  0.500  0.463  0.037
  1.000  0.000  0.000  0.000  0.000
  0.000  0.000  0.000  0.074  0.926
    occupations:
  0.980  0.000  0.000  0.000  0.000
  0.000  0.997  0.000  0.000  0.000
  0.000  0.000  0.997  0.000  0.000
  0.000  0.000  0.000  0.980  0.000
  0.000  0.000  0.000  0.000  0.997
atomic mag. moment =    -1.198798
atom    8   Tr[ns(na)] (up, down, total) =   3.75592  4.95461  8.71053
   spin  1
    eigenvalues: 
  0.385  0.385  0.995  0.995  0.995
    eigenvectors:
  0.005  0.995  0.000  0.000  0.000
  0.000  0.000  0.038  0.629  0.333
  0.000  0.000  0.615  0.052  0.333
  0.995  0.005  0.000  0.000  0.000
  0.000  0.000  0.347  0.319  0.333
    occupations:
  0.385 -0.001  0.001  0.000 -0.001
 -0.001  0.995  0.000 -0.001  0.000
  0.001  0.000  0.995 -0.001  0.000
  0.000 -0.001 -0.001  0.385  0.000
 -0.001  0.000  0.000  0.000  0.995
   spin  2
    eigenvalues: 
  0.981  0.981  0.997  0.997  0.997
    eigenvectors:
  0.028  0.972  0.000  0.000  0.000
  0.000  0.000  0.036  0.631  0.333
  0.000  0.000  0.612  0.055  0.333
  0.972  0.028  0.000  0.000  0.000
  0.000  0.000  0.352  0.314  0.333
    occupations:
  0.981  0.000  0.000  0.000  0.000
  0.000  0.997  0.000  0.000  0.000
  0.000  0.000  0.997  0.000  0.000
  0.000  0.000  0.000  0.981  0.000
  0.000  0.000  0.000  0.000  0.997
atomic mag. moment =    -1.198688
atom    9   Tr[ns(na)] (up, down, total) =   2.81114  2.81267  5.62381
   spin  1
    eigenvalues: 
  0.937  0.937  0.938
    eigenvectors:
  0.165  0.500  0.335
  0.165  0.500  0.335
  0.671  0.000  0.329
    occupations:
  0.937  0.000  0.000
  0.000  0.937  0.000
  0.000  0.000  0.937
   spin  2
    eigenvalues: 
  0.937  0.937  0.939
    eigenvectors:
  0.500  0.405  0.095
  0.500  0.405  0.095
  0.000  0.190  0.810
    occupations:
  0.937  0.000  0.000
  0.000  0.937  0.000
  0.000  0.000  0.939
atomic mag. moment =    -0.001527
atom   10   Tr[ns(na)] (up, down, total) =   2.81114  2.81116  5.62231
   spin  1
    eigenvalues: 
  0.937  0.937  0.938
    eigenvectors:
  0.080  0.586  0.333
  0.272  0.395  0.333
  0.648  0.019  0.333
    occupations:
  0.937  0.000  0.000
  0.000  0.937  0.000
  0.000  0.000  0.937
   spin  2
    eigenvalues: 
  0.937  0.937  0.938
    eigenvectors:
  0.078  0.589  0.333
  0.276  0.391  0.333
  0.646  0.020  0.333
    occupations:
  0.937  0.000  0.000
  0.000  0.937  0.000
  0.000  0.000  0.937
atomic mag. moment =    -0.000019
atom   11   Tr[ns(na)] (up, down, total) =   2.81114  2.81267  5.62381
   spin  1
    eigenvalues: 
  0.937  0.937  0.938
    eigenvectors:
  0.165  0.500  0.335
  0.671  0.000  0.329
  0.165  0.500  0.335
    occupations:
  0.937  0.000  0.000
  0.000  0.937  0.000
  0.000  0.000  0.937
   spin  2
    eigenvalues: 
  0.937  0.937  0.939
    eigenvectors:
  0.500  0.405  0.095
  0.000  0.190  0.810
  0.500  0.405  0.095
    occupations:
  0.937  0.000  0.000
  0.000  0.939  0.000
  0.000  0.000  0.937
atomic mag. moment =    -0.001527
atom   12   Tr[ns(na)] (up, down, total) =   2.81114  2.81267  5.62381
   spin  1
    eigenvalues: 
  0.937  0.937  0.938
    eigenvectors:
  0.671  0.000  0.329
  0.165  0.500  0.335
  0.165  0.500  0.335
    occupations:
  0.937  0.000  0.000
  0.000  0.937  0.000
  0.000  0.000  0.937
   spin  2
    eigenvalues: 
  0.937  0.937  0.939
    eigenvectors:
  0.000  0.190  0.810
  0.500  0.405  0.095
  0.500  0.405  0.095
    occupations:
  0.939  0.000  0.000
  0.000  0.937  0.000
  0.000  0.000  0.937
atomic mag. moment =    -0.001527
atom   13   Tr[ns(na)] (up, down, total) =   2.81114  2.81267  5.62381
   spin  1
    eigenvalues: 
  0.937  0.937  0.938
    eigenvectors:
  0.165  0.500  0.335
  0.671  0.000  0.329
  0.165  0.500  0.335
    occupations:
  0.937  0.000  0.000
  0.000  0.937  0.000
  0.000  0.000  0.937
   spin  2
    eigenvalues: 
  0.937  0.937  0.939
    eigenvectors:
  0.500  0.405  0.095
  0.000  0.190  0.810
  0.500  0.405  0.095
    occupations:
  0.937  0.000  0.000
  0.000  0.939  0.000
  0.000  0.000  0.937
atomic mag. moment =    -0.001527
atom   14   Tr[ns(na)] (up, down, total) =   2.81114  2.81267  5.62381
   spin  1
    eigenvalues: 
  0.937  0.937  0.938
    eigenvectors:
  0.671  0.000  0.329
  0.165  0.500  0.335
  0.165  0.500  0.335
    occupations:
  0.937  0.000  0.000
  0.000  0.937  0.000
  0.000  0.000  0.937
   spin  2
    eigenvalues: 
  0.937  0.937  0.939
    eigenvectors:
  0.000  0.190  0.810
  0.500  0.405  0.095
  0.500  0.405  0.095
    occupations:
  0.939  0.000  0.000
  0.000  0.937  0.000
  0.000  0.000  0.937
atomic mag. moment =    -0.001527
atom   15   Tr[ns(na)] (up, down, total) =   2.81114  2.81116  5.62231
   spin  1
    eigenvalues: 
  0.937  0.937  0.938
    eigenvectors:
  0.070  0.597  0.333
  0.288  0.379  0.333
  0.642  0.025  0.333
    occupations:
  0.937  0.000  0.000
  0.000  0.937  0.000
  0.000  0.000  0.937
   spin  2
    eigenvalues: 
  0.937  0.937  0.938
    eigenvectors:
  0.078  0.589  0.333
  0.276  0.391  0.333
  0.646  0.020  0.333
    occupations:
  0.937  0.000  0.000
  0.000  0.937  0.000
  0.000  0.000  0.937
atomic mag. moment =    -0.000019
atom   16   Tr[ns(na)] (up, down, total) =   2.81114  2.81267  5.62381
   spin  1
    eigenvalues: 
  0.937  0.937  0.938
    eigenvectors:
  0.165  0.500  0.335
  0.165  0.500  0.335
  0.671  0.000  0.329
    occupations:
  0.937  0.000  0.000
  0.000  0.937  0.000
  0.000  0.000  0.937
   spin  2
    eigenvalues: 
  0.937  0.937  0.939
    eigenvectors:
  0.500  0.405  0.095
  0.500  0.405  0.095
  0.000  0.190  0.810
    occupations:
  0.937  0.000  0.000
  0.000  0.937  0.000
  0.000  0.000  0.939
atomic mag. moment =    -0.001527
N of occupied +U levels = 114.6194848
 --- exit write_ns ---
 --- in v_hubbard ---
Hubbard energy    0.0639
 -------

     total cpu time spent up to now is      102.4 secs

     total energy              =    -941.95203653 Ry
     Harris-Foulkes estimate   =    -941.95219760 Ry
     estimated scf accuracy    <       0.00036639 Ry

     total magnetization       =     0.00 Bohr mag/cell
     absolute magnetization    =    12.30 Bohr mag/cell

     iteration #  2     ecut=    30.00 Ry     beta=0.30
     Davidson diagonalization with overlap
     ethr =  2.86E-07,  avg # of iterations =  2.0
 --- enter write_ns ---
 LDA+U parameters:
U( 1)     =  0.00000000
alpha( 1) =  0.10000000
U( 2)     =  0.00000000
alpha( 2) =  0.00000000
U( 3)     =  0.00000000
alpha( 3) =  0.00000000
U( 4)     =  0.00000000
alpha( 4) =  0.00000000
atom    1   Tr[ns(na)] (up, down, total) =   4.95418  3.75464  8.70882
   spin  1
    eigenvalues: 
  0.981  0.981  0.997  0.997  0.997
    eigenvectors:
  0.007  0.993  0.000  0.000  0.000
  0.000  0.000  0.039  0.628  0.333
  0.000  0.000  0.616  0.051  0.333
  0.993  0.007  0.000  0.000  0.000
  0.000  0.000  0.345  0.322  0.333
    occupations:
  0.981  0.000  0.000  0.000  0.000
  0.000  0.997  0.000  0.000  0.000
  0.000  0.000  0.997  0.000  0.000
  0.000  0.000  0.000  0.981  0.000
  0.000  0.000  0.000  0.000  0.997
   spin  2
    eigenvalues: 
  0.384  0.384  0.995  0.995  0.996
    eigenvectors:
  0.037  0.963  0.000  0.000  0.000
  0.000  0.000  0.033  0.634  0.333
  0.000  0.000  0.609  0.058  0.333
  0.963  0.037  0.000  0.000  0.000
  0.000  0.000  0.358  0.308  0.333
    occupations:
  0.384 -0.001  0.001  0.000 -0.001
 -0.001  0.995  0.000 -0.001  0.000
  0.001  0.000  0.995 -0.001  0.000
  0.000 -0.001 -0.001  0.384  0.000
 -0.001  0.000  0.000  0.000  0.995
atomic mag. moment =     1.199541
atom    2   Tr[ns(na)] (up, down, total) =   4.95236  3.75321  8.70557
   spin  1
    eigenvalues: 
  0.980  0.980  0.997  0.997  0.997
    eigenvectors:
  0.000  1.000  0.000  0.000  0.000
  0.000  0.000  0.500  0.379  0.121
  0.000  0.000  0.500  0.379  0.121
  1.000  0.000  0.000  0.000  0.000
  0.000  0.000  0.000  0.243  0.757
    occupations:
  0.980  0.000  0.000  0.000  0.000
  0.000  0.997  0.000  0.000  0.000
  0.000  0.000  0.997  0.000  0.000
  0.000  0.000  0.000  0.980  0.000
  0.000  0.000  0.000  0.000  0.997
   spin  2
    eigenvalues: 
  0.384  0.384  0.995  0.995  0.995
    eigenvectors:
  1.000  0.000  0.000  0.000  0.000
  0.000  0.000  0.113  0.500  0.387
  0.000  0.000  0.113  0.500  0.387
  0.000  1.000  0.000  0.000  0.000
  0.000  0.000  0.773  0.000  0.227
    occupations:
  0.384 -0.001  0.001  0.000 -0.001
 -0.001  0.995  0.000 -0.001  0.000
  0.001  0.000  0.995 -0.001  0.000
  0.000 -0.001 -0.001  0.384  0.000
 -0.001  0.000  0.000  0.000  0.995
atomic mag. moment =     1.199141
atom    3   Tr[ns(na)] (up, down, total) =   4.95236  3.75321  8.70557
   spin  1
    eigenvalues: 
  0.980  0.980  0.997  0.997  0.997
    eigenvectors:
  0.750  0.250  0.000  0.000  0.000
  0.000  0.000  0.500  0.379  0.121
  0.000  0.000  0.000  0.243  0.757
  0.250  0.750  0.000  0.000  0.000
  0.000  0.000  0.500  0.379  0.121
    occupations:
  0.980  0.000  0.000  0.000  0.000
  0.000  0.997  0.000  0.000  0.000
  0.000  0.000  0.997  0.000  0.000
  0.000  0.000  0.000  0.980  0.000
  0.000  0.000  0.000  0.000  0.997
   spin  2
    eigenvalues: 
  0.384  0.384  0.995  0.995  0.995
    eigenvectors:
  0.250  0.750  0.000  0.000  0.000
  0.000  0.000  0.113  0.500  0.387
  0.000  0.000  0.773  0.000  0.227
  0.750  0.250  0.000  0.000  0.000
  0.000  0.000  0.113  0.500  0.387
    occupations:
  0.384 -0.001  0.001  0.000 -0.001
 -0.001  0.995  0.000 -0.001  0.000
  0.001  0.000  0.995 -0.001  0.000
  0.000 -0.001 -0.001  0.384  0.000
 -0.001  0.000  0.000  0.000  0.995
atomic mag. moment =     1.199141
atom    4   Tr[ns(na)] (up, down, total) =   4.95236  3.75321  8.70557
   spin  1
    eigenvalues: 
  0.980  0.980  0.997  0.997  0.997
    eigenvectors:
  0.750  0.250  0.000  0.000  0.000
  0.000  0.000  0.000  0.243  0.757
  0.000  0.000  0.500  0.379  0.121
  0.250  0.750  0.000  0.000  0.000
  0.000  0.000  0.500  0.379  0.121
    occupations:
  0.980  0.000  0.000  0.000  0.000
  0.000  0.997  0.000  0.000  0.000
  0.000  0.000  0.997  0.000  0.000
  0.000  0.000  0.000  0.980  0.000
  0.000  0.000  0.000  0.000  0.997
   spin  2
    eigenvalues: 
  0.384  0.384  0.995  0.995  0.995
    eigenvectors:
  0.250  0.750  0.000  0.000  0.000
  0.000  0.000  0.773  0.000  0.227
  0.000  0.000  0.113  0.500  0.387
  0.750  0.250  0.000  0.000  0.000
  0.000  0.000  0.113  0.500  0.387
    occupations:
  0.384 -0.001  0.001  0.000 -0.001
 -0.001  0.995  0.000 -0.001  0.000
  0.001  0.000  0.995 -0.001  0.000
  0.000 -0.001 -0.001  0.384  0.000
 -0.001  0.000  0.000  0.000  0.995
atomic mag. moment =     1.199141
atom    5   Tr[ns(na)] (up, down, total) =   3.75421  4.95244  8.70665
   spin  1
    eigenvalues: 
  0.384  0.384  0.995  0.995  0.996
    eigenvectors:
  0.250  0.750  0.000  0.000  0.000
  0.000  0.000  0.000  0.436  0.564
  0.000  0.000  0.500  0.282  0.218
  0.750  0.250  0.000  0.000  0.000
  0.000  0.000  0.500  0.282  0.218
    occupations:
  0.384  0.000  0.001  0.000 -0.001
  0.000  0.995  0.000 -0.001  0.000
  0.001  0.000  0.995 -0.001  0.000
  0.000 -0.001 -0.001  0.384  0.000
 -0.001  0.000  0.000  0.000  0.995
   spin  2
    eigenvalues: 
  0.980  0.980  0.997  0.997  0.997
    eigenvectors:
  0.750  0.250  0.000  0.000  0.000
  0.000  0.000  0.860  0.000  0.140
  0.000  0.000  0.070  0.500  0.430
  0.250  0.750  0.000  0.000  0.000
  0.000  0.000  0.070  0.500  0.430
    occupations:
  0.980  0.000  0.000  0.000  0.000
  0.000  0.997  0.000  0.000  0.000
  0.000  0.000  0.997  0.000  0.000
  0.000  0.000  0.000  0.980  0.000
  0.000  0.000  0.000  0.000  0.997
atomic mag. moment =    -1.198228
atom    6   Tr[ns(na)] (up, down, total) =   3.75421  4.95244  8.70665
   spin  1
    eigenvalues: 
  0.384  0.384  0.995  0.995  0.996
    eigenvectors:
  0.250  0.750  0.000  0.000  0.000
  0.000  0.000  0.500  0.282  0.218
  0.000  0.000  0.000  0.436  0.564
  0.750  0.250  0.000  0.000  0.000
  0.000  0.000  0.500  0.282  0.218
    occupations:
  0.384 -0.001  0.000  0.000 -0.001
 -0.001  0.995  0.000 -0.001  0.000
  0.000  0.000  0.995 -0.001  0.000
  0.000 -0.001 -0.001  0.384  0.000
 -0.001  0.000  0.000  0.000  0.995
   spin  2
    eigenvalues: 
  0.980  0.980  0.997  0.997  0.997
    eigenvectors:
  0.750  0.250  0.000  0.000  0.000
  0.000  0.000  0.070  0.500  0.430
  0.000  0.000  0.860  0.000  0.140
  0.250  0.750  0.000  0.000  0.000
  0.000  0.000  0.070  0.500  0.430
    occupations:
  0.980  0.000  0.000  0.000  0.000
  0.000  0.997  0.000  0.000  0.000
  0.000  0.000  0.997  0.000  0.000
  0.000  0.000  0.000  0.980  0.000
  0.000  0.000  0.000  0.000  0.997
atomic mag. moment =    -1.198228
atom    7   Tr[ns(na)] (up, down, total) =   3.75421  4.95244  8.70665
   spin  1
    eigenvalues: 
  0.384  0.384  0.995  0.995  0.996
    eigenvectors:
  1.000  0.000  0.000  0.000  0.000
  0.000  0.000  0.500  0.282  0.218
  0.000  0.000  0.500  0.282  0.218
  0.000  1.000  0.000  0.000  0.000
  0.000  0.000  0.000  0.436  0.564
    occupations:
  0.384 -0.001  0.001  0.000 -0.001
 -0.001  0.995  0.000 -0.001  0.000
  0.001  0.000  0.995 -0.001  0.000
  0.000 -0.001 -0.001  0.384  0.000
 -0.001  0.000  0.000  0.000  0.995
   spin  2
    eigenvalues: 
  0.980  0.980  0.997  0.997  0.997
    eigenvectors:
  0.000  1.000  0.000  0.000  0.000
  0.000  0.000  0.070  0.500  0.430
  0.000  0.000  0.070  0.500  0.430
  1.000  0.000  0.000  0.000  0.000
  0.000  0.000  0.860  0.000  0.140
    occupations:
  0.980  0.000  0.000  0.000  0.000
  0.000  0.997  0.000  0.000  0.000
  0.000  0.000  0.997  0.000  0.000
  0.000  0.000  0.000  0.980  0.000
  0.000  0.000  0.000  0.000  0.997
atomic mag. moment =    -1.198228
atom    8   Tr[ns(na)] (up, down, total) =   3.74390  4.95115  8.69505
   spin  1
    eigenvalues: 
  0.379  0.379  0.995  0.995  0.995
    eigenvectors:
  0.000  1.000  0.000  0.000  0.000
  0.000  0.000  0.050  0.617  0.333
  0.000  0.000  0.627  0.040  0.333
  1.000  0.000  0.000  0.000  0.000
  0.000  0.000  0.324  0.343  0.333
    occupations:
  0.379  0.000  0.000  0.000 -0.001
  0.000  0.995  0.000 -0.001  0.000
  0.000  0.000  0.995 -0.001  0.000
  0.000 -0.001 -0.001  0.379  0.000
 -0.001  0.000  0.000  0.000  0.995
   spin  2
    eigenvalues: 
  0.980  0.980  0.997  0.997  0.997
    eigenvectors:
  0.033  0.967  0.000  0.000  0.000
  0.000  0.000  0.028  0.639  0.333
  0.000  0.000  0.602  0.065  0.333
  0.967  0.033  0.000  0.000  0.000
  0.000  0.000  0.370  0.297  0.333
    occupations:
  0.980  0.000  0.000  0.000  0.000
  0.000  0.997  0.000  0.000  0.000
  0.000  0.000  0.997  0.000  0.000
  0.000  0.000  0.000  0.980  0.000
  0.000  0.000  0.000  0.000  0.997
atomic mag. moment =    -1.207251
atom    9   Tr[ns(na)] (up, down, total) =   2.81151  2.81106  5.62257
   spin  1
    eigenvalues: 
  0.937  0.937  0.938
    eigenvectors:
  0.500  0.276  0.224
  0.500  0.276  0.224
  0.000  0.447  0.553
    occupations:
  0.937  0.000  0.000
  0.000  0.937  0.000
  0.000  0.000  0.938
   spin  2
    eigenvalues: 
  0.937  0.937  0.938
    eigenvectors:
  0.165  0.500  0.335
  0.165  0.500  0.335
  0.670  0.000  0.330
    occupations:
  0.937  0.000  0.000
  0.000  0.937  0.000
  0.000  0.000  0.937
atomic mag. moment =     0.000445
atom   10   Tr[ns(na)] (up, down, total) =   2.81112  2.81123  5.62235
   spin  1
    eigenvalues: 
  0.937  0.937  0.938
    eigenvectors:
  0.083  0.583  0.333
  0.268  0.399  0.333
  0.649  0.017  0.333
    occupations:
  0.937  0.000  0.000
  0.000  0.937  0.000
  0.000  0.000  0.937
   spin  2
    eigenvalues: 
  0.937  0.937  0.938
    eigenvectors:
  0.071  0.595  0.333
  0.286  0.381  0.333
  0.643  0.024  0.333
    occupations:
  0.937  0.000  0.000
  0.000  0.937  0.000
  0.000  0.000  0.937
atomic mag. moment =    -0.000106
atom   11   Tr[ns(na)] (up, down, total) =   2.81151  2.81106  5.62257
   spin  1
    eigenvalues: 
  0.937  0.937  0.938
    eigenvectors:
  0.500  0.276  0.224
  0.000  0.447  0.553
  0.500  0.276  0.224
    occupations:
  0.937  0.000  0.000
  0.000  0.938  0.000
  0.000  0.000  0.937
   spin  2
    eigenvalues: 
  0.937  0.937  0.938
    eigenvectors:
  0.165  0.500  0.335
  0.670  0.000  0.330
  0.165  0.500  0.335
    occupations:
  0.937  0.000  0.000
  0.000  0.937  0.000
  0.000  0.000  0.937
atomic mag. moment =     0.000445
atom   12   Tr[ns(na)] (up, down, total) =   2.81151  2.81106  5.62257
   spin  1
    eigenvalues: 
  0.937  0.937  0.938
    eigenvectors:
  0.000  0.447  0.553
  0.500  0.276  0.224
  0.500  0.276  0.224
    occupations:
  0.938  0.000  0.000
  0.000  0.937  0.000
  0.000  0.000  0.937
   spin  2
    eigenvalues: 
  0.937  0.937  0.938
    eigenvectors:
  0.670  0.000  0.330
  0.165  0.500  0.335
  0.165  0.500  0.335
    occupations:
  0.937  0.000  0.000
  0.000  0.937  0.000
  0.000  0.000  0.937
atomic mag. moment =     0.000445
atom   13   Tr[ns(na)] (up, down, total) =   2.81151  2.81106  5.62257
   spin  1
    eigenvalues: 
  0.937  0.937  0.938
    eigenvectors:
  0.500  0.276  0.224
  0.000  0.447  0.553
  0.500  0.276  0.224
    occupations:
  0.937  0.000  0.000
  0.000  0.938  0.000
  0.000  0.000  0.937
   spin  2
    eigenvalues: 
  0.937  0.937  0.938
    eigenvectors:
  0.165  0.500  0.335
  0.670  0.000  0.330
  0.165  0.500  0.335
    occupations:
  0.937  0.000  0.000
  0.000  0.937  0.000
  0.000  0.000  0.937
atomic mag. moment =     0.000445
atom   14   Tr[ns(na)] (up, down, total) =   2.81151  2.81106  5.62257
   spin  1
    eigenvalues: 
  0.937  0.937  0.938
    eigenvectors:
  0.000  0.447  0.553
  0.500  0.276  0.224
  0.500  0.276  0.224
    occupations:
  0.938  0.000  0.000
  0.000  0.937  0.000
  0.000  0.000  0.937
   spin  2
    eigenvalues: 
  0.937  0.937  0.938
    eigenvectors:
  0.670  0.000  0.330
  0.165  0.500  0.335
  0.165  0.500  0.335
    occupations:
  0.937  0.000  0.000
  0.000  0.937  0.000
  0.000  0.000  0.937
atomic mag. moment =     0.000445
atom   15   Tr[ns(na)] (up, down, total) =   2.81112  2.81123  5.62235
   spin  1
    eigenvalues: 
  0.937  0.937  0.938
    eigenvectors:
  0.085  0.582  0.333
  0.266  0.401  0.333
  0.650  0.017  0.333
    occupations:
  0.937  0.000  0.000
  0.000  0.937  0.000
  0.000  0.000  0.937
   spin  2
    eigenvalues: 
  0.937  0.937  0.938
    eigenvectors:
  0.057  0.609  0.333
  0.309  0.357  0.333
  0.633  0.033  0.333
    occupations:
  0.937  0.000  0.000
  0.000  0.937  0.000
  0.000  0.000  0.937
atomic mag. moment =    -0.000106
atom   16   Tr[ns(na)] (up, down, total) =   2.81151  2.81106  5.62257
   spin  1
    eigenvalues: 
  0.937  0.937  0.938
    eigenvectors:
  0.500  0.276  0.224
  0.500  0.276  0.224
  0.000  0.447  0.553
    occupations:
  0.937  0.000  0.000
  0.000  0.937  0.000
  0.000  0.000  0.938
   spin  2
    eigenvalues: 
  0.937  0.937  0.938
    eigenvectors:
  0.165  0.500  0.335
  0.165  0.500  0.335
  0.670  0.000  0.330
    occupations:
  0.937  0.000  0.000
  0.000  0.937  0.000
  0.000  0.000  0.937
atomic mag. moment =     0.000445
N of occupied +U levels = 114.6206511
 --- exit write_ns ---
 --- in v_hubbard ---
Hubbard energy    0.0639
 -------

     total cpu time spent up to now is      145.6 secs

     total energy              =    -941.95209132 Ry
     Harris-Foulkes estimate   =    -941.95221308 Ry
     estimated scf accuracy    <       0.00050319 Ry

     total magnetization       =     0.00 Bohr mag/cell
     absolute magnetization    =    12.30 Bohr mag/cell

     iteration #  3     ecut=    30.00 Ry     beta=0.30
     Davidson diagonalization with overlap
     ethr =  2.86E-07,  avg # of iterations =  1.9
 --- enter write_ns ---
 LDA+U parameters:
U( 1)     =  0.00000000
alpha( 1) =  0.10000000
U( 2)     =  0.00000000
alpha( 2) =  0.00000000
U( 3)     =  0.00000000
alpha( 3) =  0.00000000
U( 4)     =  0.00000000
alpha( 4) =  0.00000000
atom    1   Tr[ns(na)] (up, down, total) =   4.95199  3.74296  8.69495
   spin  1
    eigenvalues: 
  0.980  0.980  0.997  0.997  0.997
    eigenvectors:
  0.007  0.993  0.000  0.000  0.000
  0.000  0.000  0.034  0.632  0.333
  0.000  0.000  0.610  0.056  0.333
  0.993  0.007  0.000  0.000  0.000
  0.000  0.000  0.356  0.311  0.333
    occupations:
  0.980  0.000  0.000  0.000  0.000
  0.000  0.997  0.000  0.000  0.000
  0.000  0.000  0.997  0.000  0.000
  0.000  0.000  0.000  0.980  0.000
  0.000  0.000  0.000  0.000  0.997
   spin  2
    eigenvalues: 
  0.379  0.379  0.995  0.995  0.995
    eigenvectors:
  0.014  0.986  0.000  0.000  0.000
  0.000  0.000  0.034  0.633  0.333
  0.000  0.000  0.610  0.057  0.333
  0.986  0.014  0.000  0.000  0.000
  0.000  0.000  0.356  0.311  0.333
    occupations:
  0.379 -0.001  0.001  0.000 -0.001
 -0.001  0.995  0.000 -0.001  0.000
  0.001  0.000  0.995 -0.001  0.000
  0.000 -0.001 -0.001  0.379  0.000
 -0.001  0.000  0.000  0.000  0.995
atomic mag. moment =     1.209030
atom    2   Tr[ns(na)] (up, down, total) =   4.95242  3.75393  8.70635
   spin  1
    eigenvalues: 
  0.980  0.980  0.997  0.997  0.997
    eigenvectors:
  0.000  1.000  0.000  0.000  0.000
  0.000  0.000  0.142  0.500  0.358
  0.000  0.000  0.142  0.500  0.358
  1.000  0.000  0.000  0.000  0.000
  0.000  0.000  0.715  0.000  0.285
    occupations:
  0.980  0.000  0.000  0.000  0.000
  0.000  0.997  0.000  0.000  0.000
  0.000  0.000  0.997  0.000  0.000
  0.000  0.000  0.000  0.980  0.000
  0.000  0.000  0.000  0.000  0.997
   spin  2
    eigenvalues: 
  0.384  0.384  0.995  0.995  0.996
    eigenvectors:
  1.000  0.000  0.000  0.000  0.000
  0.000  0.000  0.500  0.258  0.242
  0.000  0.000  0.500  0.258  0.242
  0.000  1.000  0.000  0.000  0.000
  0.000  0.000  0.000  0.484  0.516
    occupations:
  0.384 -0.001  0.001  0.000 -0.001
 -0.001  0.995  0.000 -0.001  0.000
  0.001  0.000  0.995 -0.001  0.000
  0.000 -0.001 -0.001  0.384  0.000
 -0.001  0.000  0.000  0.000  0.995
atomic mag. moment =     1.198498
atom    3   Tr[ns(na)] (up, down, total) =   4.95242  3.75393  8.70635
   spin  1
    eigenvalues: 
  0.980  0.980  0.997  0.997  0.997
    eigenvectors:
  0.750  0.250  0.000  0.000  0.000
  0.000  0.000  0.142  0.500  0.358
  0.000  0.000  0.715  0.000  0.285
  0.250  0.750  0.000  0.000  0.000
  0.000  0.000  0.142  0.500  0.358
    occupations:
  0.980  0.000  0.000  0.000  0.000
  0.000  0.997  0.000  0.000  0.000
  0.000  0.000  0.997  0.000  0.000
  0.000  0.000  0.000  0.980  0.000
  0.000  0.000  0.000  0.000  0.997
   spin  2
    eigenvalues: 
  0.384  0.384  0.995  0.995  0.996
    eigenvectors:
  0.250  0.750  0.000  0.000  0.000
  0.000  0.000  0.500  0.258  0.242
  0.000  0.000  0.000  0.484  0.516
  0.750  0.250  0.000  0.000  0.000
  0.000  0.000  0.500  0.258  0.242
    occupations:
  0.384 -0.001  0.001  0.000 -0.001
 -0.001  0.995  0.000 -0.001  0.000
  0.001  0.000  0.995 -0.001  0.000
  0.000 -0.001 -0.001  0.384  0.000
 -0.001  0.000  0.000  0.000  0.995
atomic mag. moment =     1.198498
atom    4   Tr[ns(na)] (up, down, total) =   4.95242  3.75393  8.70635
   spin  1
    eigenvalues: 
  0.980  0.980  0.997  0.997  0.997
    eigenvectors:
  0.750  0.250  0.000  0.000  0.000
  0.000  0.000  0.715  0.000  0.285
  0.000  0.000  0.142  0.500  0.358
  0.250  0.750  0.000  0.000  0.000
  0.000  0.000  0.142  0.500  0.358
    occupations:
  0.980  0.000  0.000  0.000  0.000
  0.000  0.997  0.000  0.000  0.000
  0.000  0.000  0.997  0.000  0.000
  0.000  0.000  0.000  0.980  0.000
  0.000  0.000  0.000  0.000  0.997
   spin  2
    eigenvalues: 
  0.384  0.384  0.995  0.995  0.996
    eigenvectors:
  0.250  0.750  0.000  0.000  0.000
  0.000  0.000  0.000  0.484  0.516
  0.000  0.000  0.500  0.258  0.242
  0.750  0.250  0.000  0.000  0.000
  0.000  0.000  0.500  0.258  0.242
    occupations:
  0.384 -0.001  0.001  0.000 -0.001
 -0.001  0.995  0.000 -0.001  0.000
  0.001  0.000  0.995 -0.001  0.000
  0.000 -0.001 -0.001  0.384  0.000
 -0.001  0.000  0.000  0.000  0.995
atomic mag. moment =     1.198498
atom    5   Tr[ns(na)] (up, down, total) =   3.75354  4.95239  8.70593
   spin  1
    eigenvalues: 
  0.384  0.384  0.995  0.995  0.995
    eigenvectors:
  0.250  0.750  0.000  0.000  0.000
  0.000  0.000  0.692  0.000  0.308
  0.000  0.000  0.154  0.500  0.346
  0.750  0.250  0.000  0.000  0.000
  0.000  0.000  0.154  0.500  0.346
    occupations:
  0.384  0.000  0.001  0.000 -0.001
  0.000  0.995  0.000 -0.001  0.000
  0.001  0.000  0.995 -0.001  0.000
  0.000 -0.001 -0.001  0.384  0.000
 -0.001  0.000  0.000  0.000  0.995
   spin  2
    eigenvalues: 
  0.980  0.980  0.997  0.997  0.997
    eigenvectors:
  0.750  0.250  0.000  0.000  0.000
  0.000  0.000  0.000  0.358  0.642
  0.000  0.000  0.500  0.321  0.179
  0.250  0.750  0.000  0.000  0.000
  0.000  0.000  0.500  0.321  0.179
    occupations:
  0.980  0.000  0.000  0.000  0.000
  0.000  0.997  0.000  0.000  0.000
  0.000  0.000  0.997  0.000  0.000
  0.000  0.000  0.000  0.980  0.000
  0.000  0.000  0.000  0.000  0.997
atomic mag. moment =    -1.198856
atom    6   Tr[ns(na)] (up, down, total) =   3.75354  4.95239  8.70593
   spin  1
    eigenvalues: 
  0.384  0.384  0.995  0.995  0.995
    eigenvectors:
  0.250  0.750  0.000  0.000  0.000
  0.000  0.000  0.154  0.500  0.346
  0.000  0.000  0.692  0.000  0.308
  0.750  0.250  0.000  0.000  0.000
  0.000  0.000  0.154  0.500  0.346
    occupations:
  0.384 -0.001  0.000  0.000 -0.001
 -0.001  0.995  0.000 -0.001  0.000
  0.000  0.000  0.995 -0.001  0.000
  0.000 -0.001 -0.001  0.384  0.000
 -0.001  0.000  0.000  0.000  0.995
   spin  2
    eigenvalues: 
  0.980  0.980  0.997  0.997  0.997
    eigenvectors:
  0.750  0.250  0.000  0.000  0.000
  0.000  0.000  0.500  0.321  0.179
  0.000  0.000  0.000  0.358  0.642
  0.250  0.750  0.000  0.000  0.000
  0.000  0.000  0.500  0.321  0.179
    occupations:
  0.980  0.000  0.000  0.000  0.000
  0.000  0.997  0.000  0.000  0.000
  0.000  0.000  0.997  0.000  0.000
  0.000  0.000  0.000  0.980  0.000
  0.000  0.000  0.000  0.000  0.997
atomic mag. moment =    -1.198856
atom    7   Tr[ns(na)] (up, down, total) =   3.75354  4.95239  8.70593
   spin  1
    eigenvalues: 
  0.384  0.384  0.995  0.995  0.995
    eigenvectors:
  1.000  0.000  0.000  0.000  0.000
  0.000  0.000  0.154  0.500  0.346
  0.000  0.000  0.154  0.500  0.346
  0.000  1.000  0.000  0.000  0.000
  0.000  0.000  0.692  0.000  0.308
    occupations:
  0.384 -0.001  0.001  0.000 -0.001
 -0.001  0.995  0.000 -0.001  0.000
  0.001  0.000  0.995 -0.001  0.000
  0.000 -0.001 -0.001  0.384  0.000
 -0.001  0.000  0.000  0.000  0.995
   spin  2
    eigenvalues: 
  0.980  0.980  0.997  0.997  0.997
    eigenvectors:
  0.000  1.000  0.000  0.000  0.000
  0.000  0.000  0.500  0.321  0.179
  0.000  0.000  0.500  0.321  0.179
  1.000  0.000  0.000  0.000  0.000
  0.000  0.000  0.000  0.358  0.642
    occupations:
  0.980  0.000  0.000  0.000  0.000
  0.000  0.997  0.000  0.000  0.000
  0.000  0.000  0.997  0.000  0.000
  0.000  0.000  0.000  0.980  0.000
  0.000  0.000  0.000  0.000  0.997
atomic mag. moment =    -1.198856
atom    8   Tr[ns(na)] (up, down, total) =   3.75363  4.95345  8.70708
   spin  1
    eigenvalues: 
  0.384  0.384  0.995  0.995  0.995
    eigenvectors:
  0.002  0.998  0.000  0.000  0.000
  0.000  0.000  0.022  0.645  0.333
  0.000  0.000  0.592  0.074  0.333
  0.998  0.002  0.000  0.000  0.000
  0.000  0.000  0.385  0.281  0.333
    occupations:
  0.384 -0.001  0.001  0.000 -0.001
 -0.001  0.995  0.000 -0.001  0.000
  0.001  0.000  0.995 -0.001  0.000
  0.000 -0.001 -0.001  0.384  0.000
 -0.001  0.000  0.000  0.000  0.995
   spin  2
    eigenvalues: 
  0.981  0.981  0.997  0.997  0.997
    eigenvectors:
  0.019  0.981  0.000  0.000  0.000
  0.000  0.000  0.036  0.631  0.333
  0.000  0.000  0.612  0.054  0.333
  0.981  0.019  0.000  0.000  0.000
  0.000  0.000  0.352  0.315  0.333
    occupations:
  0.981  0.000  0.000  0.000  0.000
  0.000  0.997  0.000  0.000  0.000
  0.000  0.000  0.997  0.000  0.000
  0.000  0.000  0.000  0.981  0.000
  0.000  0.000  0.000  0.000  0.997
atomic mag. moment =    -1.199816
atom    9   Tr[ns(na)] (up, down, total) =   2.81102  2.81179  5.62281
   spin  1
    eigenvalues: 
  0.937  0.937  0.938
    eigenvectors:
  0.162  0.500  0.338
  0.162  0.500  0.338
  0.675  0.000  0.325
    occupations:
  0.937  0.000  0.000
  0.000  0.937  0.000
  0.000  0.000  0.937
   spin  2
    eigenvalues: 
  0.937  0.937  0.938
    eigenvectors:
  0.500  0.303  0.197
  0.500  0.303  0.197
  0.000  0.393  0.607
    occupations:
  0.937  0.000  0.000
  0.000  0.937  0.000
  0.000  0.000  0.938
atomic mag. moment =    -0.000771
atom   10   Tr[ns(na)] (up, down, total) =   2.81117  2.81113  5.62230
   spin  1
    eigenvalues: 
  0.937  0.937  0.938
    eigenvectors:
  0.081  0.586  0.333
  0.271  0.396  0.333
  0.648  0.019  0.333
    occupations:
  0.937  0.000  0.000
  0.000  0.937  0.000
  0.000  0.000  0.937
   spin  2
    eigenvalues: 
  0.937  0.937  0.938
    eigenvectors:
  0.069  0.598  0.333
  0.290  0.377  0.333
  0.641  0.025  0.333
    occupations:
  0.937  0.000  0.000
  0.000  0.937  0.000
  0.000  0.000  0.937
atomic mag. moment =     0.000036
atom   11   Tr[ns(na)] (up, down, total) =   2.81102  2.81179  5.62281
   spin  1
    eigenvalues: 
  0.937  0.937  0.938
    eigenvectors:
  0.162  0.500  0.338
  0.675  0.000  0.325
  0.162  0.500  0.338
    occupations:
  0.937  0.000  0.000
  0.000  0.937  0.000
  0.000  0.000  0.937
   spin  2
    eigenvalues: 
  0.937  0.937  0.938
    eigenvectors:
  0.500  0.303  0.197
  0.000  0.393  0.607
  0.500  0.303  0.197
    occupations:
  0.937  0.000  0.000
  0.000  0.938  0.000
  0.000  0.000  0.937
atomic mag. moment =    -0.000771
atom   12   Tr[ns(na)] (up, down, total) =   2.81102  2.81179  5.62281
   spin  1
    eigenvalues: 
  0.937  0.937  0.938
    eigenvectors:
  0.675  0.000  0.325
  0.162  0.500  0.338
  0.162  0.500  0.338
    occupations:
  0.937  0.000  0.000
  0.000  0.937  0.000
  0.000  0.000  0.937
   spin  2
    eigenvalues: 
  0.937  0.937  0.938
    eigenvectors:
  0.000  0.393  0.607
  0.500  0.303  0.197
  0.500  0.303  0.197
    occupations:
  0.938  0.000  0.000
  0.000  0.937  0.000
  0.000  0.000  0.937
atomic mag. moment =    -0.000771
atom   13   Tr[ns(na)] (up, down, total) =   2.81102  2.81179  5.62281
   spin  1
    eigenvalues: 
  0.937  0.937  0.938
    eigenvectors:
  0.162  0.500  0.338
  0.675  0.000  0.325
  0.162  0.500  0.338
    occupations:
  0.937  0.000  0.000
  0.000  0.937  0.000
  0.000  0.000  0.937
   spin  2
    eigenvalues: 
  0.937  0.937  0.938
    eigenvectors:
  0.500  0.303  0.197
  0.000  0.393  0.607
  0.500  0.303  0.197
    occupations:
  0.937  0.000  0.000
  0.000  0.938  0.000
  0.000  0.000  0.937
atomic mag. moment =    -0.000771
atom   14   Tr[ns(na)] (up, down, total) =   2.81102  2.81179  5.62281
   spin  1
    eigenvalues: 
  0.937  0.937  0.938
    eigenvectors:
  0.675  0.000  0.325
  0.162  0.500  0.338
  0.162  0.500  0.338
    occupations:
  0.937  0.000  0.000
  0.000  0.937  0.000
  0.000  0.000  0.937
   spin  2
    eigenvalues: 
  0.937  0.937  0.938
    eigenvectors:
  0.000  0.393  0.607
  0.500  0.303  0.197
  0.500  0.303  0.197
    occupations:
  0.938  0.000  0.000
  0.000  0.937  0.000
  0.000  0.000  0.937
atomic mag. moment =    -0.000771
atom   15   Tr[ns(na)] (up, down, total) =   2.81117  2.81113  5.62230
   spin  1
    eigenvalues: 
  0.937  0.937  0.938
    eigenvectors:
  0.051  0.616  0.333
  0.321  0.346  0.333
  0.628  0.039  0.333
    occupations:
  0.937  0.000  0.000
  0.000  0.937  0.000
  0.000  0.000  0.937
   spin  2
    eigenvalues: 
  0.937  0.937  0.938
    eigenvectors:
  0.047  0.620  0.333
  0.329  0.337  0.333
  0.624  0.043  0.333
    occupations:
  0.937  0.000  0.000
  0.000  0.937  0.000
  0.000  0.000  0.937
atomic mag. moment =     0.000036
atom   16   Tr[ns(na)] (up, down, total) =   2.81102  2.81179  5.62281
   spin  1
    eigenvalues: 
  0.937  0.937  0.938
    eigenvectors:
  0.162  0.500  0.338
  0.162  0.500  0.338
  0.675  0.000  0.325
    occupations:
  0.937  0.000  0.000
  0.000  0.937  0.000
  0.000  0.000  0.937
   spin  2
    eigenvalues: 
  0.937  0.937  0.938
    eigenvectors:
  0.500  0.303  0.197
  0.500  0.303  0.197
  0.000  0.393  0.607
    occupations:
  0.937  0.000  0.000
  0.000  0.937  0.000
  0.000  0.000  0.938
atomic mag. moment =    -0.000771
N of occupied +U levels = 114.6203258
 --- exit write_ns ---
 --- in v_hubbard ---
Hubbard energy    0.0639
 -------

     total cpu time spent up to now is      185.3 secs

     total energy              =    -941.95215200 Ry
     Harris-Foulkes estimate   =    -941.95215266 Ry
     estimated scf accuracy    <       0.00000673 Ry

     total magnetization       =     0.00 Bohr mag/cell
     absolute magnetization    =    12.30 Bohr mag/cell

     iteration #  4     ecut=    30.00 Ry     beta=0.30
     Davidson diagonalization with overlap
     ethr =  5.26E-09,  avg # of iterations =  2.0
 --- enter write_ns ---
 LDA+U parameters:
U( 1)     =  0.00000000
alpha( 1) =  0.10000000
U( 2)     =  0.00000000
alpha( 2) =  0.00000000
U( 3)     =  0.00000000
alpha( 3) =  0.00000000
U( 4)     =  0.00000000
alpha( 4) =  0.00000000
atom    1   Tr[ns(na)] (up, down, total) =   4.95218  3.74288  8.69505
   spin  1
    eigenvalues: 
  0.980  0.980  0.997  0.997  0.997
    eigenvectors:
  0.003  0.997  0.000  0.000  0.000
  0.000  0.000  0.027  0.639  0.333
  0.000  0.000  0.601  0.066  0.333
  0.997  0.003  0.000  0.000  0.000
  0.000  0.000  0.372  0.295  0.333
    occupations:
  0.980  0.000  0.000  0.000  0.000
  0.000  0.997  0.000  0.000  0.000
  0.000  0.000  0.997  0.000  0.000
  0.000  0.000  0.000  0.980  0.000
  0.000  0.000  0.000  0.000  0.997
   spin  2
    eigenvalues: 
  0.379  0.379  0.995  0.995  0.995
    eigenvectors:
  0.015  0.985  0.000  0.000  0.000
  0.000  0.000  0.022  0.645  0.333
  0.000  0.000  0.592  0.075  0.333
  0.985  0.015  0.000  0.000  0.000
  0.000  0.000  0.386  0.280  0.333
    occupations:
  0.379  0.000  0.000  0.000 -0.001
  0.000  0.995  0.000 -0.001  0.000
  0.000  0.000  0.995 -0.001  0.000
  0.000 -0.001 -0.001  0.379  0.000
 -0.001  0.000  0.000  0.000  0.995
atomic mag. moment =     1.209297
atom    2   Tr[ns(na)] (up, down, total) =   4.95238  3.75369  8.70607
   spin  1
    eigenvalues: 
  0.980  0.980  0.997  0.997  0.997
    eigenvectors:
  0.000  1.000  0.000  0.000  0.000
  0.000  0.000  0.500  0.183  0.317
  0.000  0.000  0.500  0.183  0.317
  1.000  0.000  0.000  0.000  0.000
  0.000  0.000  0.000  0.634  0.366
    occupations:
  0.980  0.000  0.000  0.000  0.000
  0.000  0.997  0.000  0.000  0.000
  0.000  0.000  0.997  0.000  0.000
  0.000  0.000  0.000  0.980  0.000
  0.000  0.000  0.000  0.000  0.997
   spin  2
    eigenvalues: 
  0.384  0.384  0.995  0.995  0.996
    eigenvectors:
  0.000  1.000  0.000  0.000  0.000
  0.000  0.000  0.500  0.261  0.239
  0.000  0.000  0.500  0.261  0.239
  1.000  0.000  0.000  0.000  0.000
  0.000  0.000  0.000  0.479  0.521
    occupations:
  0.384 -0.001  0.001  0.000 -0.001
 -0.001  0.995  0.000 -0.001  0.000
  0.001  0.000  0.995 -0.001  0.000
  0.000 -0.001 -0.001  0.384  0.000
 -0.001  0.000  0.000  0.000  0.995
atomic mag. moment =     1.198689
atom    3   Tr[ns(na)] (up, down, total) =   4.95238  3.75369  8.70607
   spin  1
    eigenvalues: 
  0.980  0.980  0.997  0.997  0.997
    eigenvectors:
  0.750  0.250  0.000  0.000  0.000
  0.000  0.000  0.500  0.183  0.317
  0.000  0.000  0.000  0.634  0.366
  0.250  0.750  0.000  0.000  0.000
  0.000  0.000  0.500  0.183  0.317
    occupations:
  0.980  0.000  0.000  0.000  0.000
  0.000  0.997  0.000  0.000  0.000
  0.000  0.000  0.997  0.000  0.000
  0.000  0.000  0.000  0.980  0.000
  0.000  0.000  0.000  0.000  0.997
   spin  2
    eigenvalues: 
  0.384  0.384  0.995  0.995  0.996
    eigenvectors:
  0.750  0.250  0.000  0.000  0.000
  0.000  0.000  0.500  0.261  0.239
  0.000  0.000  0.000  0.479  0.521
  0.250  0.750  0.000  0.000  0.000
  0.000  0.000  0.500  0.261  0.239
    occupations:
  0.384 -0.001  0.001  0.000 -0.001
 -0.001  0.995  0.000 -0.001  0.000
  0.001  0.000  0.995 -0.001  0.000
  0.000 -0.001 -0.001  0.384  0.000
 -0.001  0.000  0.000  0.000  0.995
atomic mag. moment =     1.198689
atom    4   Tr[ns(na)] (up, down, total) =   4.95238  3.75369  8.70607
   spin  1
    eigenvalues: 
  0.980  0.980  0.997  0.997  0.997
    eigenvectors:
  0.750  0.250  0.000  0.000  0.000
  0.000  0.000  0.000  0.634  0.366
  0.000  0.000  0.500  0.183  0.317
  0.250  0.750  0.000  0.000  0.000
  0.000  0.000  0.500  0.183  0.317
    occupations:
  0.980  0.000  0.000  0.000  0.000
  0.000  0.997  0.000  0.000  0.000
  0.000  0.000  0.997  0.000  0.000
  0.000  0.000  0.000  0.980  0.000
  0.000  0.000  0.000  0.000  0.997
   spin  2
    eigenvalues: 
  0.384  0.384  0.995  0.995  0.996
    eigenvectors:
  0.750  0.250  0.000  0.000  0.000
  0.000  0.000  0.000  0.479  0.521
  0.000  0.000  0.500  0.261  0.239
  0.250  0.750  0.000  0.000  0.000
  0.000  0.000  0.500  0.261  0.239
    occupations:
  0.384 -0.001  0.001  0.000 -0.001
 -0.001  0.995  0.000 -0.001  0.000
  0.001  0.000  0.995 -0.001  0.000
  0.000 -0.001 -0.001  0.384  0.000
 -0.001  0.000  0.000  0.000  0.995
atomic mag. moment =     1.198689
atom    5   Tr[ns(na)] (up, down, total) =   3.75380  4.95245  8.70625
   spin  1
    eigenvalues: 
  0.384  0.384  0.995  0.995  0.995
    eigenvectors:
  0.250  0.750  0.000  0.000  0.000
  0.000  0.000  0.000  0.649  0.351
  0.000  0.000  0.500  0.175  0.325
  0.750  0.250  0.000  0.000  0.000
  0.000  0.000  0.500  0.175  0.325
    occupations:
  0.384 -0.001  0.001  0.000 -0.001
 -0.001  0.995  0.000 -0.001  0.000
  0.001  0.000  0.995 -0.001  0.000
  0.000 -0.001 -0.001  0.384  0.000
 -0.001  0.000  0.000  0.000  0.995
   spin  2
    eigenvalues: 
  0.980  0.980  0.997  0.997  0.997
    eigenvectors:
  0.750  0.250  0.000  0.000  0.000
  0.000  0.000  0.000  0.347  0.653
  0.000  0.000  0.500  0.327  0.173
  0.250  0.750  0.000  0.000  0.000
  0.000  0.000  0.500  0.327  0.173
    occupations:
  0.980  0.000  0.000  0.000  0.000
  0.000  0.997  0.000  0.000  0.000
  0.000  0.000  0.997  0.000  0.000
  0.000  0.000  0.000  0.980  0.000
  0.000  0.000  0.000  0.000  0.997
atomic mag. moment =    -1.198647
atom    6   Tr[ns(na)] (up, down, total) =   3.75380  4.95245  8.70625
   spin  1
    eigenvalues: 
  0.384  0.384  0.995  0.995  0.995
    eigenvectors:
  0.250  0.750  0.000  0.000  0.000
  0.000  0.000  0.500  0.175  0.325
  0.000  0.000  0.000  0.649  0.351
  0.750  0.250  0.000  0.000  0.000
  0.000  0.000  0.500  0.175  0.325
    occupations:
  0.384 -0.001  0.001  0.000 -0.001
 -0.001  0.995  0.000 -0.001  0.000
  0.001  0.000  0.995 -0.001  0.000
  0.000 -0.001 -0.001  0.384  0.000
 -0.001  0.000  0.000  0.000  0.995
   spin  2
    eigenvalues: 
  0.980  0.980  0.997  0.997  0.997
    eigenvectors:
  0.750  0.250  0.000  0.000  0.000
  0.000  0.000  0.500  0.327  0.173
  0.000  0.000  0.000  0.347  0.653
  0.250  0.750  0.000  0.000  0.000
  0.000  0.000  0.500  0.327  0.173
    occupations:
  0.980  0.000  0.000  0.000  0.000
  0.000  0.997  0.000  0.000  0.000
  0.000  0.000  0.997  0.000  0.000
  0.000  0.000  0.000  0.980  0.000
  0.000  0.000  0.000  0.000  0.997
atomic mag. moment =    -1.198647
atom    7   Tr[ns(na)] (up, down, total) =   3.75380  4.95245  8.70625
   spin  1
    eigenvalues: 
  0.384  0.384  0.995  0.995  0.995
    eigenvectors:
  1.000  0.000  0.000  0.000  0.000
  0.000  0.000  0.500  0.175  0.325
  0.000  0.000  0.500  0.175  0.325
  0.000  1.000  0.000  0.000  0.000
  0.000  0.000  0.000  0.649  0.351
    occupations:
  0.384 -0.001  0.001  0.000 -0.001
 -0.001  0.995  0.000 -0.001  0.000
  0.001  0.000  0.995 -0.001  0.000
  0.000 -0.001 -0.001  0.384  0.000
 -0.001  0.000  0.000  0.000  0.995
   spin  2
    eigenvalues: 
  0.980  0.980  0.997  0.997  0.997
    eigenvectors:
  0.000  1.000  0.000  0.000  0.000
  0.000  0.000  0.500  0.327  0.173
  0.000  0.000  0.500  0.327  0.173
  1.000  0.000  0.000  0.000  0.000
  0.000  0.000  0.000  0.347  0.653
    occupations:
  0.980  0.000  0.000  0.000  0.000
  0.000  0.997  0.000  0.000  0.000
  0.000  0.000  0.997  0.000  0.000
[...]
    10.6616  10.6785  10.8718  10.8756  10.9654  10.9700  11.2458  11.2537
    11.2547  11.2644  11.2994  11.3103  11.3322  11.3450  11.4342  11.4418
    13.0404  13.0451  13.0468  13.0529  13.0549  13.0653  13.0766  13.0851
    16.4827  16.4845  19.6542  19.6552  19.7130

     occupation numbers 
     0.0469   0.0469   0.0469   0.0469   0.0469   0.0469   0.0469   0.0469
     0.0469   0.0469   0.0469   0.0469   0.0469   0.0469   0.0469   0.0469
     0.0469   0.0469   0.0469   0.0469   0.0469   0.0469   0.0469   0.0469
     0.0469   0.0469   0.0469   0.0469   0.0469   0.0469   0.0469   0.0469
     0.0469   0.0469   0.0469   0.0469   0.0469   0.0469   0.0469   0.0469
     0.0469   0.0469   0.0469   0.0469   0.0469   0.0469   0.0469   0.0469
     0.0469   0.0469   0.0469   0.0469   0.0469   0.0469   0.0469   0.0469
     0.0469   0.0469   0.0469   0.0469   0.0469   0.0469   0.0469   0.0469
     0.0000   0.0000   0.0000   0.0000   0.0000   0.0000   0.0000   0.0000
     0.0000   0.0000   0.0000   0.0000   0.0000

          k = 0.0000 0.5000 0.0000 (  2706 PWs)   bands (ev):

    -7.8475  -6.8017  -6.7495  -6.7495  -6.7485  -6.7474  -6.5618  -6.5578
     4.4895   4.4957   4.4978   4.5013   5.2330   5.5212   5.5212   6.5290
     6.5299   6.5502   6.5875   6.5954   6.6222   6.6268   6.6833   7.0637
     7.0639   7.1695   7.1741   7.4649   7.9713   7.9764   8.6523   8.6616
     8.9622   9.5381   9.6310   9.6315   9.8180   9.9831  10.0583  10.0588
    10.0980  10.1146  10.1884  10.2823  10.2828  10.4001  10.4144  10.5472
    10.5506  10.6162  10.6174  10.6613  10.9203  11.0121  11.0182  11.0534
    11.0653  11.1770  11.2487  11.2985  11.3061  11.3487  11.3607  11.3870
    12.8841  13.0402  13.0420  13.0611  13.5281  13.5718  13.6458  13.6555
    15.2144  18.5668  18.5679  18.5681  18.5701

     occupation numbers 
     0.0938   0.0938   0.0938   0.0938   0.0938   0.0938   0.0938   0.0938
     0.0938   0.0938   0.0938   0.0938   0.0938   0.0938   0.0938   0.0938
     0.0938   0.0938   0.0938   0.0938   0.0938   0.0938   0.0938   0.0938
     0.0938   0.0938   0.0938   0.0938   0.0938   0.0938   0.0938   0.0938
     0.0938   0.0938   0.0938   0.0938   0.0938   0.0938   0.0938   0.0938
     0.0938   0.0938   0.0938   0.0938   0.0938   0.0938   0.0938   0.0938
     0.0938   0.0938   0.0938   0.0938   0.0938   0.0938   0.0938   0.0938
     0.0938   0.0937   0.0937   0.0937   0.0937   0.0937   0.0937   0.0937
     0.0000   0.0000   0.0000   0.0000   0.0000   0.0000   0.0000   0.0000
     0.0000   0.0000   0.0000   0.0000   0.0000

          k = 0.7500-0.2500 0.7500 (  2734 PWs)   bands (ev):

    -7.4976  -7.1670  -6.9608  -6.7657  -6.7644  -6.5900  -6.5510  -6.5472
     4.9638   4.9687   4.9798   5.3078   5.4244   5.4996   5.5223   6.1769
     6.2112   6.2368   6.2657   6.5896   6.5936   6.7474   6.7499   6.8624
     6.8919   6.9253   6.9961   7.3598   7.3780   7.7221   7.7622   8.0176
     9.4609   9.6547   9.8238   9.8973   9.9583   9.9707  10.0389  10.1399
    10.1433  10.1710  10.2130  10.2908  10.3201  10.3245  10.4803  10.5133
    10.7343  10.7398  10.7471  10.7554  10.8830  10.9138  11.0472  11.0831
    11.1732  11.2005  11.2329  11.2644  11.3378  11.3422  11.3604  11.4171
    12.7449  12.7911  12.8426  12.9395  13.2402  13.2649  13.3705  13.4398
    16.6952  17.6029  18.6711  19.3629  19.3646

     occupation numbers 
     0.1875   0.1875   0.1875   0.1875   0.1875   0.1875   0.1875   0.1875
     0.1875   0.1875   0.1875   0.1875   0.1875   0.1875   0.1875   0.1875
     0.1875   0.1875   0.1875   0.1875   0.1875   0.1875   0.1875   0.1875
     0.1875   0.1875   0.1875   0.1875   0.1875   0.1875   0.1875   0.1875
     0.1875   0.1875   0.1875   0.1875   0.1875   0.1875   0.1875   0.1875
     0.1875   0.1875   0.1875   0.1875   0.1875   0.1875   0.1875   0.1875
     0.1875   0.1875   0.1875   0.1875   0.1875   0.1875   0.1875   0.1875
     0.1875   0.1875   0.1875   0.1875   0.1875   0.1875   0.1875   0.1875
     0.0000   0.0000   0.0000   0.0000   0.0000   0.0000   0.0000   0.0000
     0.0000   0.0000   0.0000   0.0000   0.0000

          k = 0.5000 0.0000 0.5000 (  2742 PWs)   bands (ev):

    -7.6358  -7.0118  -7.0115  -6.7136  -6.7130  -6.5980  -6.5957  -6.5394
     4.7720   4.7794   5.0665   5.0711   5.2637   5.2653   5.7010   5.9658
     6.2870   6.3036   6.5280   6.7217   6.7453   6.7482   6.9136   6.9162
     6.9334   7.1586   7.1632   7.1918   7.4525   7.4578   7.6344   8.1261
     9.6606   9.6621   9.7923   9.8528   9.9077   9.9104  10.0489  10.1140
    10.1353  10.2285  10.2306  10.2307  10.2334  10.3632  10.3675  10.5186
    10.7241  10.7540  10.7561  10.8293  10.9112  11.0985  11.1030  11.1213
    11.2117  11.2173  11.2403  11.2523  11.2819  11.3515  11.4091  11.4140
    13.0446  13.0509  13.0587  13.0778  13.1186  13.1537  13.1644  13.2908
    16.0084  18.0608  18.0633  19.3762  19.3801

     occupation numbers 
     0.0938   0.0938   0.0938   0.0938   0.0938   0.0938   0.0938   0.0938
     0.0938   0.0938   0.0938   0.0938   0.0938   0.0938   0.0938   0.0938
     0.0938   0.0938   0.0938   0.0938   0.0938   0.0938   0.0938   0.0938
     0.0938   0.0938   0.0938   0.0938   0.0938   0.0938   0.0938   0.0938
     0.0938   0.0938   0.0938   0.0938   0.0938   0.0938   0.0938   0.0938
     0.0938   0.0938   0.0938   0.0938   0.0938   0.0938   0.0938   0.0938
     0.0938   0.0938   0.0938   0.0938   0.0938   0.0938   0.0938   0.0938
     0.0937   0.0937   0.0937   0.0937   0.0937   0.0937   0.0937   0.0937
     0.0000   0.0000   0.0000   0.0000   0.0000   0.0000   0.0000   0.0000
     0.0000   0.0000   0.0000   0.0000   0.0000

          k = 0.0000-1.0000 0.0000 (  2762 PWs)   bands (ev):

    -7.3061  -7.3046  -6.8122  -6.8121  -6.8110  -6.8087  -6.5084  -6.5036
     5.0203   5.0204   5.0273   5.0324   5.7697   5.7732   6.0987   6.1039
     6.1045   6.1102   6.4044   6.4082   6.6521   6.6558   6.6844   6.6896
     6.7221   6.7290   6.7291   6.7363   8.1491   8.1527   8.1602   8.1644
     9.2510   9.2593   9.9516   9.9529  10.0319  10.0335  10.0470  10.0477
    10.0502  10.0582  10.1710  10.1736  10.3510  10.3531  10.4977  10.4977
    10.5203  10.5277  10.5833  10.5838  10.9130  10.9291  11.0063  11.0166
    11.1494  11.1602  11.2276  11.2429  11.3375  11.3417  11.3499  11.3550
    12.4629  12.4801  12.7211  12.7358  13.5188  13.5260  13.6187  13.6286
    17.6658  17.6694  19.2525  19.2526  19.2533

     occupation numbers 
     0.0469   0.0469   0.0469   0.0469   0.0469   0.0469   0.0469   0.0469
     0.0469   0.0469   0.0469   0.0469   0.0469   0.0469   0.0469   0.0469
     0.0469   0.0469   0.0469   0.0469   0.0469   0.0469   0.0469   0.0469
     0.0469   0.0469   0.0469   0.0469   0.0469   0.0469   0.0469   0.0469
     0.0469   0.0469   0.0469   0.0469   0.0469   0.0469   0.0469   0.0469
     0.0469   0.0469   0.0469   0.0469   0.0469   0.0469   0.0469   0.0469
     0.0469   0.0469   0.0469   0.0469   0.0469   0.0469   0.0469   0.0469
     0.0469   0.0469   0.0469   0.0469   0.0469   0.0469   0.0469   0.0469
     0.0000   0.0000   0.0000   0.0000   0.0000   0.0000   0.0000   0.0000
     0.0000   0.0000   0.0000   0.0000   0.0000

          k =-0.5000-1.0000 0.0000 (  2740 PWs)   bands (ev):

    -7.1474  -7.1468  -7.1464  -7.1440  -6.5754  -6.5715  -6.5713  -6.5654
     5.2793   5.2838   5.2854   5.3309   5.3808   5.5448   5.5448   5.6570
     6.2246   6.2545   6.2573   6.2898   6.6216   6.6224   6.6361   6.7647
     6.9018   7.2690   7.2737   7.4636   7.4813   7.5075   7.5095   7.5620
     9.7143   9.7410   9.7417   9.8097   9.9899  10.0402  10.0408  10.0711
    10.1210  10.2744  10.2905  10.2911  10.3475  10.3490  10.4032  10.4664
    10.6181  10.6668  10.6668  10.6923  10.9512  10.9554  10.9776  10.9972
    11.1792  11.1867  11.1983  11.2869  11.3024  11.3073  11.3727  11.3741
    12.7813  12.8901  12.9027  13.0105  13.1594  13.1999  13.2103  13.2530
    18.0193  18.0356  18.0382  18.0565  20.8608

     occupation numbers 
     0.0938   0.0938   0.0938   0.0938   0.0938   0.0938   0.0938   0.0938
     0.0938   0.0938   0.0938   0.0938   0.0938   0.0938   0.0938   0.0938
     0.0938   0.0938   0.0938   0.0938   0.0938   0.0938   0.0938   0.0938
     0.0938   0.0938   0.0938   0.0938   0.0938   0.0938   0.0938   0.0938
     0.0938   0.0938   0.0938   0.0938   0.0938   0.0938   0.0938   0.0938
     0.0938   0.0938   0.0938   0.0938   0.0938   0.0938   0.0938   0.0938
     0.0938   0.0938   0.0938   0.0938   0.0938   0.0938   0.0938   0.0938
     0.0937   0.0937   0.0937   0.0937   0.0937   0.0937   0.0937   0.0937
     0.0000   0.0000   0.0000   0.0000   0.0000   0.0000   0.0000   0.0000
     0.0000   0.0000   0.0000   0.0000   0.0000

          k =-0.2500 0.2500 0.2500 (  2743 PWs)   bands (ev):

    -7.9009  -6.9242  -6.6792  -6.6792  -6.6789  -6.6284  -6.6237  -6.6237
     4.3460   4.3529   4.3529   4.6138   5.3434   5.3440   5.3440   6.4813
     6.4826   6.4826   6.6234   6.6259   6.6259   6.6994   6.6994   7.2140
     7.2171   7.2171   7.7069   7.7094   7.7094   7.9750   8.4568   8.4568
     9.2665   9.2666   9.2666   9.6211   9.6211  10.0050  10.0674  10.0680
    10.0680  10.2806  10.2806  10.2838  10.6059  10.6059  10.6082  10.6287
    10.6287  10.7257  10.7276  10.7276  10.9206  10.9206  10.9454  10.9489
    10.9489  11.0418  11.2587  11.2685  11.2685  11.4013  11.4013  11.4058
    13.3380  13.3380  13.3521  13.3545  13.3545  13.3593  13.3748  13.3748
    14.7678  17.5959  18.6754  18.6754  18.6768

     occupation numbers 
     0.0313   0.0313   0.0313   0.0313   0.0313   0.0313   0.0313   0.0313
     0.0313   0.0313   0.0313   0.0313   0.0313   0.0313   0.0313   0.0313
     0.0313   0.0313   0.0313   0.0313   0.0313   0.0313   0.0313   0.0313
     0.0313   0.0313   0.0313   0.0313   0.0313   0.0313   0.0313   0.0313
     0.0313   0.0313   0.0313   0.0313   0.0313   0.0313   0.0313   0.0313
     0.0313   0.0313   0.0313   0.0313   0.0313   0.0313   0.0313   0.0313
     0.0313   0.0313   0.0313   0.0313   0.0313   0.0313   0.0313   0.0313
     0.0313   0.0313   0.0312   0.0312   0.0312   0.0312   0.0312   0.0312
     0.0000   0.0000   0.0000   0.0000   0.0000   0.0000   0.0000   0.0000
     0.0000   0.0000   0.0000   0.0000   0.0000

          k = 0.5000-0.5000-0.5000 (  2764 PWs)   bands (ev):

    -7.4474  -7.4392  -6.6680  -6.6680  -6.6673  -6.6471  -6.6420  -6.6420
     5.0101   5.0119   5.0119   5.1118   5.1190   5.1190   6.0798   6.1225
     6.2602   6.2602   6.2613   6.6945   6.6983   6.6983   6.7507   6.7507
     6.7514   6.9810   6.9810   7.4484   7.4553   7.4553   7.8709   7.8709
     9.4928   9.4928   9.4931   9.6763   9.6763  10.1183  10.1233  10.1233
    10.1233  10.4599  10.4599  10.4647  10.5094  10.5094  10.5094  10.7379
    10.7379  10.8443  10.8443  10.8451  10.8810  11.0579  11.0579  11.0586
    11.2470  11.2569  11.2569  11.3017  11.3017  11.4089  11.4089  11.4136
    13.0418  13.0462  13.0462  13.0617  13.0617  13.0730  13.0912  13.0912
    16.4116  16.5597  19.6317  19.6317  19.6329

     occupation numbers 
     0.0156   0.0156   0.0156   0.0156   0.0156   0.0156   0.0156   0.0156
     0.0156   0.0156   0.0156   0.0156   0.0156   0.0156   0.0156   0.0156
     0.0156   0.0156   0.0156   0.0156   0.0156   0.0156   0.0156   0.0156
     0.0156   0.0156   0.0156   0.0156   0.0156   0.0156   0.0156   0.0156
     0.0156   0.0156   0.0156   0.0156   0.0156   0.0156   0.0156   0.0156
     0.0156   0.0156   0.0156   0.0156   0.0156   0.0156   0.0156   0.0156
     0.0156   0.0156   0.0156   0.0156   0.0156   0.0156   0.0156   0.0156
     0.0156   0.0156   0.0156   0.0156   0.0156   0.0156   0.0156   0.0156
     0.0000   0.0000   0.0000   0.0000   0.0000   0.0000   0.0000   0.0000
     0.0000   0.0000   0.0000   0.0000   0.0000

          k =-0.7500 0.7500-0.2500 (  2734 PWs)   bands (ev):

    -7.4976  -7.1670  -6.9608  -6.7656  -6.7644  -6.5900  -6.5511  -6.5472
     4.9699   4.9752   4.9776   5.2442   5.5009   5.5042   5.5069   6.1240
     6.2293   6.2325   6.3463   6.5678   6.5708   6.6631   6.8216   6.8244
     6.8318   7.0445   7.0470   7.1566   7.5085   7.7484   7.7745   8.0025
     9.3852   9.5599   9.9456   9.9470  10.0230  10.0255  10.0458  10.0472
    10.0602  10.1804  10.2163  10.2170  10.4036  10.4468  10.5021  10.5024
    10.6648  10.6990  10.7000  10.7152  10.9006  10.9545  11.0986  11.1063
    11.2193  11.2238  11.2413  11.2741  11.2846  11.2898  11.3509  11.3608
    12.7481  12.8076  12.8831  12.8979  13.2598  13.3436  13.3500  13.3654
    16.6947  17.6039  18.6727  19.3613  19.3617

     occupation numbers 
     0.0938   0.0938   0.0938   0.0938   0.0938   0.0938   0.0938   0.0938
     0.0938   0.0938   0.0938   0.0938   0.0938   0.0938   0.0938   0.0938
     0.0938   0.0938   0.0938   0.0938   0.0938   0.0938   0.0938   0.0938
     0.0938   0.0938   0.0938   0.0938   0.0938   0.0938   0.0938   0.0938
     0.0938   0.0938   0.0938   0.0938   0.0938   0.0938   0.0938   0.0938
     0.0938   0.0938   0.0938   0.0938   0.0938   0.0938   0.0938   0.0938
     0.0938   0.0938   0.0938   0.0938   0.0938   0.0938   0.0938   0.0938
     0.0937   0.0937   0.0937   0.0937   0.0937   0.0937   0.0937   0.0937
     0.0000   0.0000   0.0000   0.0000   0.0000   0.0000   0.0000   0.0000
     0.0000   0.0000   0.0000   0.0000   0.0000

          k = 0.7500-0.7500-0.2500 (  2734 PWs)   bands (ev):

    -7.4977  -7.1671  -6.9609  -6.7659  -6.7646  -6.5896  -6.5508  -6.5469
     4.9644   4.9745   4.9760   5.2848   5.4399   5.4984   5.5019   6.2228
     6.2266   6.2296   6.2662   6.6551   6.6667   6.6687   6.6995   6.7041
     6.8307   7.0828   7.0854   7.2727   7.3828   7.7560   7.7641   8.0545
     9.3570   9.5469   9.7623   9.7623   9.7870  10.0623  10.0981  10.0983
    10.2898  10.2932  10.4241  10.4254  10.4459  10.5577  10.5591  10.5616
    10.5776  10.6527  10.6543  10.6556  10.8475  10.8830  10.8882  10.9674
    11.0763  11.2485  11.2804  11.3087  11.3088  11.3663  11.3711  11.4307
    12.7008  12.8471  12.8859  12.9015  13.2858  13.3383  13.3443  13.3597
    16.6946  17.6054  18.6705  19.3604  19.3608

     occupation numbers 
     0.0938   0.0938   0.0938   0.0938   0.0938   0.0938   0.0938   0.0938
     0.0938   0.0938   0.0938   0.0938   0.0938   0.0938   0.0938   0.0938
     0.0938   0.0938   0.0938   0.0938   0.0938   0.0938   0.0938   0.0938
     0.0938   0.0938   0.0938   0.0938   0.0938   0.0938   0.0938   0.0938
     0.0938   0.0938   0.0938   0.0938   0.0938   0.0938   0.0938   0.0938
     0.0938   0.0938   0.0938   0.0938   0.0938   0.0938   0.0938   0.0938
     0.0938   0.0938   0.0938   0.0938   0.0938   0.0938   0.0938   0.0938
     0.0938   0.0937   0.0937   0.0937   0.0937   0.0937   0.0937   0.0937
     0.0000   0.0000   0.0000   0.0000   0.0000   0.0000   0.0000   0.0000
     0.0000   0.0000   0.0000   0.0000   0.0000

          k =-0.5000 0.5000 0.0000 (  2742 PWs)   bands (ev):

    -7.6358  -7.0119  -7.0116  -6.7140  -6.7137  -6.5975  -6.5948  -6.5394
     4.7709   4.7763   5.0777   5.0841   5.2422   5.2428   5.7029   5.9681
     6.3158   6.3174   6.5856   6.6776   6.6812   6.7904   6.8609   6.9226
     7.0197   7.1610   7.1661   7.2065   7.2088   7.4912   7.8381   8.1239
     9.5586   9.6107   9.6396   9.6404   9.7775  10.0766  10.0775  10.1330
    10.2449  10.2494  10.3080  10.3914  10.4512  10.5632  10.5639  10.5663
    10.6396  10.6664  10.6683  10.7523  10.7690  10.8248  11.0527  11.0565
    11.1130  11.2748  11.2806  11.3481  11.3739  11.3807  11.3912  11.4103
    13.0468  13.0504  13.0557  13.0700  13.0780  13.2083  13.2158  13.2459
    16.0096  18.0606  18.0636  19.3720  19.3755

     occupation numbers 
     0.0938   0.0938   0.0938   0.0938   0.0938   0.0938   0.0938   0.0938
     0.0938   0.0938   0.0938   0.0938   0.0938   0.0938   0.0938   0.0938
     0.0938   0.0938   0.0938   0.0938   0.0938   0.0938   0.0938   0.0938
     0.0938   0.0938   0.0938   0.0938   0.0938   0.0938   0.0938   0.0938
     0.0938   0.0938   0.0938   0.0938   0.0938   0.0938   0.0938   0.0938
     0.0938   0.0938   0.0938   0.0938   0.0938   0.0938   0.0938   0.0938
     0.0938   0.0938   0.0938   0.0938   0.0938   0.0938   0.0938   0.0938
     0.0938   0.0937   0.0937   0.0937   0.0937   0.0937   0.0937   0.0937
     0.0000   0.0000   0.0000   0.0000   0.0000   0.0000   0.0000   0.0000
     0.0000   0.0000   0.0000   0.0000   0.0000

     the Fermi energy is    11.9618 ev

!    total energy              =    -941.95215394 Ry
     Harris-Foulkes estimate   =    -941.95215393 Ry
     estimated scf accuracy    <          2.6E-09 Ry

     The total energy is the sum of the following terms:

     one-electron contribution =     -56.31880759 Ry
     hartree contribution      =     175.70001109 Ry
     xc contribution           =    -297.53985747 Ry
     ewald contribution        =    -763.85740583 Ry
     Hubbard energy            =       0.06390588 Ry
     smearing contrib. (-TS)   =       0.00000000 Ry

     total magnetization       =     0.00 Bohr mag/cell
     absolute magnetization    =    12.30 Bohr mag/cell

     convergence has been achieved in   8 iterations

     init_run     :     11.05s CPU     11.18s WALL (       1 calls)
     electrons    :    375.51s CPU    376.92s WALL (       1 calls)

     Called by init_run:
     wfcinit      :      0.00s CPU      0.00s WALL (       1 calls)
     potinit      :      0.99s CPU      1.02s WALL (       1 calls)

     Called by electrons:
     c_bands      :    273.65s CPU    274.32s WALL (       8 calls)
     sum_band     :     68.86s CPU     69.15s WALL (       8 calls)
     v_of_rho     :      7.96s CPU      8.00s WALL (       9 calls)
     v_h          :      0.15s CPU      0.15s WALL (       9 calls)
     v_xc         :      7.81s CPU      7.84s WALL (       9 calls)
     newd         :     27.74s CPU     27.76s WALL (       9 calls)
     mix_rho      :      0.48s CPU      0.48s WALL (       8 calls)

     Called by c_bands:
     init_us_2    :      2.08s CPU      2.08s WALL (     416 calls)
     cegterg      :    265.33s CPU    265.75s WALL (     208 calls)

     Called by sum_band:
     sum_band:bec :      0.47s CPU      0.47s WALL (     208 calls)
     addusdens    :     26.76s CPU     26.78s WALL (       8 calls)

     Called by *egterg:
     h_psi        :    175.54s CPU    175.91s WALL (     810 calls)
     s_psi        :     16.17s CPU     16.18s WALL (     810 calls)
     g_psi        :      0.90s CPU      0.89s WALL (     602 calls)
     cdiaghg      :     29.80s CPU     29.81s WALL (     784 calls)
     cegterg:over :     16.50s CPU     16.51s WALL (     602 calls)
     cegterg:upda :     10.30s CPU     10.31s WALL (     602 calls)
     cegterg:last :      7.49s CPU      7.51s WALL (     228 calls)

     Called by h_psi:
     h_psi:vloc   :    125.85s CPU    126.20s WALL (     810 calls)
     h_psi:vnl    :     32.37s CPU     32.38s WALL (     810 calls)
     add_vuspsi   :     16.17s CPU     16.17s WALL (     810 calls)
     vhpsi        :     16.96s CPU     16.97s WALL (     810 calls)

     General routines
     calbec       :     31.63s CPU     31.67s WALL (    2036 calls)
     fft          :      3.67s CPU      3.70s WALL (     267 calls)
     ffts         :      0.09s CPU      0.09s WALL (      34 calls)
     fftw         :    125.95s CPU    126.12s WALL (   92098 calls)
     interpolate  :      0.59s CPU      0.59s WALL (      34 calls)
     davcio       :      0.00s CPU      0.50s WALL (     442 calls)

     Parallel routines
     fft_scatter  :     30.39s CPU     30.69s WALL (   92399 calls)
     Hubbard U routines
     new_ns       :      2.79s CPU      3.00s WALL (       8 calls)
     vhpsi        :     16.96s CPU     16.97s WALL (     810 calls)

     PWSCF        :  6m27.10s CPU     6m28.81s WALL


   This run was terminated on:  15:46:28  13Nov2012            

=------------------------------------------------------------------------------=
