   JOB DONE.
=------------------------------------------------------------------------------=

     Program PWSCF v.5.0.1 starts on 13Nov2012 at 15:11: 2 

     This program is part of the open-source Quantum ESPRESSO suite
     for quantum simulation of materials; please cite
         "P. Giannozzi et al., J. Phys.:Condens. Matter 21 395502 (2009);
          URL http://www.quantum-espresso.org", 
     in publications or presentations arising from this work. More details at
     http://www.quantum-espresso.org/quote.php

     Parallel version (MPI), running on     2 processors
     R & G space division:  proc/pool =    2

     Current dimensions of program PWSCF are:
     Max number of different atomic species (ntypx) = 10
     Max number of k-points (npk) =  40000
     Max angular momentum in pseudopotentials (lmaxx) =  3
     Reading input from NiO_U0_a-15.in
               file Ni.pbe-nd-rrkjus.UPF: wavefunction(s)  4S renormalized
               file Ni.pbe-nd-rrkjus.UPF: wavefunction(s)  4S renormalized
               file Ni.pbe-nd-rrkjus.UPF: wavefunction(s)  4S renormalized
               file O.pbe-rrkjus.UPF: wavefunction(s)  2S renormalized

     Subspace diagonalization in iterative solution of the eigenvalue problem:
     a serial algorithm will be used


     Parallelization info
     --------------------
     sticks:   dense  smooth     PW     G-vecs:    dense   smooth      PW
     Min        1293     519    150                43273    11032    1738
     Max        1294     520    151                43274    11043    1741
     Sum        2587    1039    301                86547    22075    3479


     Title: 
     GGA + U, U = 1D-40, alpha = -0.150                                         


     bravais-lattice index     =            2
     lattice parameter (alat)  =      15.8000  a.u.
     unit-cell volume          =     986.0780 (a.u.)^3
     number of atoms/cell      =           16
     number of atomic types    =            4
     number of electrons       =       128.00
     number of Kohn-Sham states=           77
     kinetic-energy cutoff     =      30.0000  Ry
     charge density cutoff     =     300.0000  Ry
     convergence threshold     =      1.0E-08
     mixing beta               =       0.3000
     number of iterations used =            8  plain     mixing
     Exchange-correlation      =  SLA  PW   PBE  PBE ( 1 4 3 4 0)
     EXX-fraction              =        0.00

     celldm(1)=  15.800000  celldm(2)=   0.000000  celldm(3)=   0.000000
     celldm(4)=   0.000000  celldm(5)=   0.000000  celldm(6)=   0.000000

     crystal axes: (cart. coord. in units of alat)
               a(1) = (  -0.500000   0.000000   0.500000 )  
               a(2) = (   0.000000   0.500000   0.500000 )  
               a(3) = (  -0.500000   0.500000   0.000000 )  

     reciprocal axes: (cart. coord. in units 2 pi/alat)
               b(1) = ( -1.000000 -1.000000  1.000000 )  
               b(2) = (  1.000000  1.000000  1.000000 )  
               b(3) = ( -1.000000  1.000000 -1.000000 )  


     PseudoPot. # 1 for Ni read from file:
     /home/mcurnan/dft-course/Project1/example_NiO/Ni.pbe-nd-rrkjus.UPF
     MD5 check sum: 8081f0a005c9a5470caab1a58e82ecb2
     Pseudo is Ultrasoft + core correction, Zval = 10.0
     Generated by new atomic code, or converted to UPF format
     Using radial grid of 1203 points,  6 beta functions with: 
                l(1) =   0
                l(2) =   0
                l(3) =   1
                l(4) =   1
                l(5) =   2
                l(6) =   2
     Q(r) pseudized with 0 coefficients 


     PseudoPot. # 2 for Ni read from file:
     /home/mcurnan/dft-course/Project1/example_NiO/Ni.pbe-nd-rrkjus.UPF
     MD5 check sum: 8081f0a005c9a5470caab1a58e82ecb2
     Pseudo is Ultrasoft + core correction, Zval = 10.0
     Generated by new atomic code, or converted to UPF format
     Using radial grid of 1203 points,  6 beta functions with: 
                l(1) =   0
                l(2) =   0
                l(3) =   1
                l(4) =   1
                l(5) =   2
                l(6) =   2
     Q(r) pseudized with 0 coefficients 


     PseudoPot. # 3 for Ni read from file:
     /home/mcurnan/dft-course/Project1/example_NiO/Ni.pbe-nd-rrkjus.UPF
     MD5 check sum: 8081f0a005c9a5470caab1a58e82ecb2
     Pseudo is Ultrasoft + core correction, Zval = 10.0
     Generated by new atomic code, or converted to UPF format
     Using radial grid of 1203 points,  6 beta functions with: 
                l(1) =   0
                l(2) =   0
                l(3) =   1
                l(4) =   1
                l(5) =   2
                l(6) =   2
     Q(r) pseudized with 0 coefficients 


     PseudoPot. # 4 for O  read from file:
     /home/mcurnan/dft-course/Project1/example_NiO/O.pbe-rrkjus.UPF
     MD5 check sum: 390ba29e75625707450f3bd3f0eb6be9
     Pseudo is Ultrasoft, Zval =  6.0
     Generated by new atomic code, or converted to UPF format
     Using radial grid of 1269 points,  4 beta functions with: 
                l(1) =   0
                l(2) =   0
                l(3) =   1
                l(4) =   1
     Q(r) pseudized with 0 coefficients 


     atomic species   valence    mass     pseudopotential
        Ni1           10.00     1.00000     Ni( 1.00)
        Ni2           10.00     1.00000     Ni( 1.00)
        Ni3           10.00     1.00000     Ni( 1.00)
        O1             6.00     1.00000     O ( 1.00)

     Starting magnetic structure 
     atomic species   magnetization
        Ni1          0.500
        Ni2          0.500
        Ni3         -0.500
        O1           0.000
 -----
     simplified LDA+U calculation, Hubbard_lmax = 2
     atomic species  L   Hubbard U  Hubbard alpha
        Ni1          2    0.000000   -0.150000
        Ni2          2    0.000000    0.000000
        Ni3          2    0.000000    0.000000
        O1           1    0.000000    0.000000
 -----

     12 Sym. Ops., with inversion, found


                                    s                        frac. trans.

      isym =  1     identity                                     

 cryst.   s( 1) = (     1          0          0      )
                  (     0          1          0      )
                  (     0          0          1      )

 cart.    s( 1) = (  1.0000000  0.0000000  0.0000000 )
                  (  0.0000000  1.0000000  0.0000000 )
                  (  0.0000000  0.0000000  1.0000000 )


      isym =  2     180 deg rotation - cart. axis [1,1,0]        

 cryst.   s( 2) = (     0         -1          0      )
                  (    -1          0          0      )
                  (     0          0         -1      )

 cart.    s( 2) = (  0.0000000  1.0000000  0.0000000 )
                  (  1.0000000  0.0000000  0.0000000 )
                  (  0.0000000  0.0000000 -1.0000000 )


      isym =  3     180 deg rotation - cart. axis [1,0,1]        

 cryst.   s( 3) = (    -1          0          0      )
                  (     0          0         -1      )
                  (     0         -1          0      )

 cart.    s( 3) = (  0.0000000  0.0000000  1.0000000 )
                  (  0.0000000 -1.0000000  0.0000000 )
                  (  1.0000000  0.0000000  0.0000000 )


      isym =  4     180 deg rotation - cart. axis [0,1,-1]       

 cryst.   s( 4) = (     0          0         -1      )
                  (     0         -1          0      )
                  (    -1          0          0      )

 cart.    s( 4) = ( -1.0000000  0.0000000  0.0000000 )
                  (  0.0000000  0.0000000 -1.0000000 )
                  (  0.0000000 -1.0000000  0.0000000 )


      isym =  5     120 deg rotation - cart. axis [-1,1,1]       

 cryst.   s( 5) = (     0          1          0      )
                  (     0          0          1      )
                  (     1          0          0      )

 cart.    s( 5) = (  0.0000000 -1.0000000  0.0000000 )
                  (  0.0000000  0.0000000  1.0000000 )
                  ( -1.0000000  0.0000000  0.0000000 )


      isym =  6     120 deg rotation - cart. axis [1,-1,-1]      

 cryst.   s( 6) = (     0          0          1      )
                  (     1          0          0      )
                  (     0          1          0      )

 cart.    s( 6) = (  0.0000000  0.0000000 -1.0000000 )
                  ( -1.0000000  0.0000000  0.0000000 )
                  (  0.0000000  1.0000000  0.0000000 )


      isym =  7     inversion                                    

 cryst.   s( 7) = (    -1          0          0      )
                  (     0         -1          0      )
                  (     0          0         -1      )

 cart.    s( 7) = ( -1.0000000  0.0000000  0.0000000 )
                  (  0.0000000 -1.0000000  0.0000000 )
                  (  0.0000000  0.0000000 -1.0000000 )


      isym =  8     inv. 180 deg rotation - cart. axis [1,1,0]   

 cryst.   s( 8) = (     0          1          0      )
                  (     1          0          0      )
                  (     0          0          1      )

 cart.    s( 8) = (  0.0000000 -1.0000000  0.0000000 )
                  ( -1.0000000  0.0000000  0.0000000 )
                  (  0.0000000  0.0000000  1.0000000 )


      isym =  9     inv. 180 deg rotation - cart. axis [1,0,1]   

 cryst.   s( 9) = (     1          0          0      )
                  (     0          0          1      )
                  (     0          1          0      )

 cart.    s( 9) = (  0.0000000  0.0000000 -1.0000000 )
                  (  0.0000000  1.0000000  0.0000000 )
                  ( -1.0000000  0.0000000  0.0000000 )


      isym = 10     inv. 180 deg rotation - cart. axis [0,1,-1]  

 cryst.   s(10) = (     0          0          1      )
                  (     0          1          0      )
                  (     1          0          0      )

 cart.    s(10) = (  1.0000000  0.0000000  0.0000000 )
                  (  0.0000000  0.0000000  1.0000000 )
                  (  0.0000000  1.0000000  0.0000000 )


      isym = 11     inv. 120 deg rotation - cart. axis [-1,1,1]  

 cryst.   s(11) = (     0         -1          0      )
                  (     0          0         -1      )
                  (    -1          0          0      )

 cart.    s(11) = (  0.0000000  1.0000000  0.0000000 )
                  (  0.0000000  0.0000000 -1.0000000 )
                  (  1.0000000  0.0000000  0.0000000 )


      isym = 12     inv. 120 deg rotation - cart. axis [1,-1,-1] 

 cryst.   s(12) = (     0          0         -1      )
                  (    -1          0          0      )
                  (     0         -1          0      )

 cart.    s(12) = (  0.0000000  0.0000000  1.0000000 )
                  (  1.0000000  0.0000000  0.0000000 )
                  (  0.0000000 -1.0000000  0.0000000 )


     point group D_3d (-3m) 
     there are  6 classes
     the character table:

       E     2C3   3C2'  i     2S6   3s_d 
A_1g   1.00  1.00  1.00  1.00  1.00  1.00
A_2g   1.00  1.00 -1.00  1.00  1.00 -1.00
E_g    2.00 -1.00  0.00  2.00 -1.00  0.00
A_1u   1.00  1.00  1.00 -1.00 -1.00 -1.00
A_2u   1.00  1.00 -1.00 -1.00 -1.00  1.00
E_u    2.00 -1.00  0.00 -2.00  1.00  0.00

     the symmetry operations in each class:
     E        1
     3C2'     2    4    3
     2C3      5    6
     i        7
     3s_d     8   10    9
     2S6     11   12

   Cartesian axes

     site n.     atom                  positions (alat units)
         1           Ni1 tau(   1) = (   0.0000000   0.0000000   0.0000000  )
         2           Ni2 tau(   2) = (  -0.2500000   0.2500000   0.5000000  )
         3           Ni2 tau(   3) = (  -0.5000000   0.2500000   0.2500000  )
         4           Ni2 tau(   4) = (  -0.2500000   0.5000000   0.2500000  )
         5           Ni3 tau(   5) = (  -0.2500000   0.0000000   0.2500000  )
         6           Ni3 tau(   6) = (   0.0000000   0.2500000   0.2500000  )
         7           Ni3 tau(   7) = (  -0.2500000   0.2500000   0.0000000  )
         8           Ni3 tau(   8) = (  -0.5000000   0.5000000   0.5000000  )
         9           O1  tau(   9) = (   0.0000000   0.2500000   0.0000000  )
        10           O1  tau(  10) = (  -0.2500000   0.2500000   0.2500000  )
        11           O1  tau(  11) = (  -0.2500000   0.5000000   0.0000000  )
        12           O1  tau(  12) = (   0.0000000   0.5000000   0.2500000  )
        13           O1  tau(  13) = (  -0.2500000   0.5000000   0.5000000  )
        14           O1  tau(  14) = (  -0.5000000   0.5000000   0.2500000  )
        15           O1  tau(  15) = (  -0.2500000   0.7500000   0.2500000  )
        16           O1  tau(  16) = (  -0.5000000   0.7500000   0.5000000  )

   Crystallographic axes

     site n.     atom                  positions (cryst. coord.)
         1           Ni1 tau(   1) = (  0.0000000  0.0000000  0.0000000  )
         2           Ni2 tau(   2) = (  0.5000000  0.5000000  0.0000000  )
         3           Ni2 tau(   3) = (  0.5000000  0.0000000  0.5000000  )
         4           Ni2 tau(   4) = (  0.0000000  0.5000000  0.5000000  )
         5           Ni3 tau(   5) = (  0.5000000  0.0000000  0.0000000  )
         6           Ni3 tau(   6) = (  0.0000000  0.5000000  0.0000000  )
         7           Ni3 tau(   7) = (  0.0000000  0.0000000  0.5000000  )
         8           Ni3 tau(   8) = (  0.5000000  0.5000000  0.5000000  )
         9           O1  tau(   9) = ( -0.2500000  0.2500000  0.2500000  )
        10           O1  tau(  10) = (  0.2500000  0.2500000  0.2500000  )
        11           O1  tau(  11) = ( -0.2500000  0.2500000  0.7500000  )
        12           O1  tau(  12) = ( -0.2500000  0.7500000  0.2500000  )
        13           O1  tau(  13) = (  0.2500000  0.7500000  0.2500000  )
        14           O1  tau(  14) = (  0.2500000  0.2500000  0.7500000  )
        15           O1  tau(  15) = ( -0.2500000  0.7500000  0.7500000  )
        16           O1  tau(  16) = (  0.2500000  0.7500000  0.7500000  )

     number of k points=    26  gaussian smearing, width (Ry)=  0.0100
                       cart. coord. in units 2pi/alat
        k(    1) = (   0.0000000   0.0000000   0.0000000), wk =   0.0156250
        k(    2) = (  -0.2500000   0.2500000  -0.2500000), wk =   0.0937500
        k(    3) = (   0.5000000  -0.5000000   0.5000000), wk =   0.0468750
        k(    4) = (   0.0000000   0.5000000   0.0000000), wk =   0.0937500
        k(    5) = (   0.7500000  -0.2500000   0.7500000), wk =   0.1875000
        k(    6) = (   0.5000000   0.0000000   0.5000000), wk =   0.0937500
        k(    7) = (   0.0000000  -1.0000000   0.0000000), wk =   0.0468750
        k(    8) = (  -0.5000000  -1.0000000   0.0000000), wk =   0.0937500
        k(    9) = (  -0.2500000   0.2500000   0.2500000), wk =   0.0312500
        k(   10) = (   0.5000000  -0.5000000  -0.5000000), wk =   0.0156250
        k(   11) = (  -0.7500000   0.7500000  -0.2500000), wk =   0.0937500
        k(   12) = (   0.7500000  -0.7500000  -0.2500000), wk =   0.0937500
        k(   13) = (  -0.5000000   0.5000000   0.0000000), wk =   0.0937500
        k(   14) = (   0.0000000   0.0000000   0.0000000), wk =   0.0156250
        k(   15) = (  -0.2500000   0.2500000  -0.2500000), wk =   0.0937500
        k(   16) = (   0.5000000  -0.5000000   0.5000000), wk =   0.0468750
        k(   17) = (   0.0000000   0.5000000   0.0000000), wk =   0.0937500
        k(   18) = (   0.7500000  -0.2500000   0.7500000), wk =   0.1875000
        k(   19) = (   0.5000000   0.0000000   0.5000000), wk =   0.0937500
        k(   20) = (   0.0000000  -1.0000000   0.0000000), wk =   0.0468750
        k(   21) = (  -0.5000000  -1.0000000   0.0000000), wk =   0.0937500
        k(   22) = (  -0.2500000   0.2500000   0.2500000), wk =   0.0312500
        k(   23) = (   0.5000000  -0.5000000  -0.5000000), wk =   0.0156250
        k(   24) = (  -0.7500000   0.7500000  -0.2500000), wk =   0.0937500
        k(   25) = (   0.7500000  -0.7500000  -0.2500000), wk =   0.0937500
        k(   26) = (  -0.5000000   0.5000000   0.0000000), wk =   0.0937500

                       cryst. coord.
        k(    1) = (   0.0000000   0.0000000   0.0000000), wk =   0.0156250
        k(    2) = (   0.0000000   0.0000000   0.2500000), wk =   0.0937500
        k(    3) = (   0.0000000   0.0000000  -0.5000000), wk =   0.0468750
        k(    4) = (   0.0000000   0.2500000   0.2500000), wk =   0.0937500
        k(    5) = (   0.0000000   0.2500000  -0.5000000), wk =   0.1875000
        k(    6) = (   0.0000000   0.2500000  -0.2500000), wk =   0.0937500
        k(    7) = (   0.0000000  -0.5000000  -0.5000000), wk =   0.0468750
        k(    8) = (   0.2500000  -0.5000000  -0.2500000), wk =   0.0937500
        k(    9) = (   0.2500000   0.2500000   0.2500000), wk =   0.0312500
        k(   10) = (  -0.5000000  -0.5000000  -0.5000000), wk =   0.0156250
        k(   11) = (   0.2500000   0.2500000   0.7500000), wk =   0.0937500
        k(   12) = (  -0.5000000  -0.5000000  -0.7500000), wk =   0.0937500
        k(   13) = (   0.2500000   0.2500000   0.5000000), wk =   0.0937500
        k(   14) = (   0.0000000   0.0000000   0.0000000), wk =   0.0156250
        k(   15) = (   0.0000000   0.0000000   0.2500000), wk =   0.0937500
        k(   16) = (   0.0000000   0.0000000  -0.5000000), wk =   0.0468750
        k(   17) = (   0.0000000   0.2500000   0.2500000), wk =   0.0937500
        k(   18) = (   0.0000000   0.2500000  -0.5000000), wk =   0.1875000
        k(   19) = (   0.0000000   0.2500000  -0.2500000), wk =   0.0937500
        k(   20) = (   0.0000000  -0.5000000  -0.5000000), wk =   0.0468750
        k(   21) = (   0.2500000  -0.5000000  -0.2500000), wk =   0.0937500
        k(   22) = (   0.2500000   0.2500000   0.2500000), wk =   0.0312500
        k(   23) = (  -0.5000000  -0.5000000  -0.5000000), wk =   0.0156250
        k(   24) = (   0.2500000   0.2500000   0.7500000), wk =   0.0937500
        k(   25) = (  -0.5000000  -0.5000000  -0.7500000), wk =   0.0937500
        k(   26) = (   0.2500000   0.2500000   0.5000000), wk =   0.0937500

     Dense  grid:    86547 G-vectors     FFT dimensions: (  64,  64,  64)

     Smooth grid:    22075 G-vectors     FFT dimensions: (  40,  40,  40)

     Largest allocated arrays     est. size (Mb)     dimensions
        Kohn-Sham Wavefunctions         1.64 Mb     (   1395,   77)
        Atomic wavefunctions            1.70 Mb     (   1395,   80)
        NL pseudopotentials             4.43 Mb     (   1395,  208)
        Each V/rho on FFT grid          4.00 Mb     ( 131072,   2)
        Each G-vector array             0.33 Mb     (  43274)
        G-vector shells                 0.00 Mb     (    635)
     Largest temporary arrays     est. size (Mb)     dimensions
        Auxiliary wavefunctions         6.56 Mb     (   1395,  308)
        Each subspace H/S matrix        1.45 Mb     ( 308, 308)
        Each <psi_i|beta_j> matrix      0.24 Mb     (    208,   77)
        Arrays for rho mixing          16.00 Mb     ( 131072,   8)

     Check: negative/imaginary core charge=   -0.000047    0.000000

     The initial density is read from file :
     /home/mcurnan/dft-course/Project1/example_NiO/0/Ni/alpha/NiO_U0.save/charge-density.dat

 --- in v_hubbard ---
Hubbard energy   -0.0960
 -------
     Number of +U iterations with fixed ns =  0
     Starting occupations:
 --- enter write_ns ---
 LDA+U parameters:
U( 1)     =  0.00000000
alpha( 1) = -0.15000000
U( 2)     =  0.00000000
alpha( 2) =  0.00000000
U( 3)     =  0.00000000
alpha( 3) =  0.00000000
U( 4)     =  0.00000000
alpha( 4) =  0.00000000
atom    1   Tr[ns(na)] (up, down, total) =   4.95241  3.75362  8.70602
   spin  1
    eigenvalues: 
  0.980  0.980  0.997  0.997  0.997
    eigenvectors:
  0.027  0.973  0.000  0.000  0.000
  0.000  0.000  0.028  0.639  0.333
  0.000  0.000  0.601  0.065  0.333
  0.973  0.027  0.000  0.000  0.000
  0.000  0.000  0.371  0.296  0.333
    occupations:
  0.980  0.000  0.000  0.000  0.000
  0.000  0.997  0.000  0.000  0.000
  0.000  0.000  0.997  0.000  0.000
  0.000  0.000  0.000  0.980  0.000
  0.000  0.000  0.000  0.000  0.997
   spin  2
    eigenvalues: 
  0.384  0.384  0.995  0.995  0.995
    eigenvectors:
  0.032  0.968  0.000  0.000  0.000
  0.000  0.000  0.042  0.625  0.333
  0.000  0.000  0.619  0.048  0.333
  0.968  0.032  0.000  0.000  0.000
  0.000  0.000  0.339  0.328  0.333
    occupations:
  0.384 -0.001  0.001  0.000 -0.001
 -0.001  0.995  0.000 -0.001  0.000
  0.001  0.000  0.995 -0.001  0.000
  0.000 -0.001 -0.001  0.384  0.000
 -0.001  0.000  0.000  0.000  0.995
atomic mag. moment =     1.198792
atom    2   Tr[ns(na)] (up, down, total) =   4.95241  3.75361  8.70602
   spin  1
    eigenvalues: 
  0.980  0.980  0.997  0.997  0.997
    eigenvectors:
  0.000  1.000  0.000  0.000  0.000
  0.000  0.000  0.167  0.500  0.333
  0.000  0.000  0.167  0.500  0.333
  1.000  0.000  0.000  0.000  0.000
  0.000  0.000  0.667  0.000  0.333
    occupations:
  0.980  0.000  0.000  0.000  0.000
  0.000  0.997  0.000  0.000  0.000
  0.000  0.000  0.997  0.000  0.000
  0.000  0.000  0.000  0.980  0.000
  0.000  0.000  0.000  0.000  0.997
   spin  2
    eigenvalues: 
  0.384  0.384  0.995  0.995  0.995
    eigenvectors:
  1.000  0.000  0.000  0.000  0.000
  0.000  0.000  0.167  0.500  0.333
  0.000  0.000  0.167  0.500  0.333
  0.000  1.000  0.000  0.000  0.000
  0.000  0.000  0.667  0.000  0.333
    occupations:
  0.384 -0.001  0.001  0.000 -0.001
 -0.001  0.995  0.000 -0.001  0.000
  0.001  0.000  0.995 -0.001  0.000
  0.000 -0.001 -0.001  0.384  0.000
 -0.001  0.000  0.000  0.000  0.995
atomic mag. moment =     1.198793
atom    3   Tr[ns(na)] (up, down, total) =   4.95241  3.75361  8.70602
   spin  1
    eigenvalues: 
  0.980  0.980  0.997  0.997  0.997
    eigenvectors:
  0.750  0.250  0.000  0.000  0.000
  0.000  0.000  0.167  0.500  0.333
  0.000  0.000  0.667  0.000  0.333
  0.250  0.750  0.000  0.000  0.000
  0.000  0.000  0.167  0.500  0.333
    occupations:
  0.980  0.000  0.000  0.000  0.000
  0.000  0.997  0.000  0.000  0.000
  0.000  0.000  0.997  0.000  0.000
  0.000  0.000  0.000  0.980  0.000
  0.000  0.000  0.000  0.000  0.997
   spin  2
    eigenvalues: 
  0.384  0.384  0.995  0.995  0.995
    eigenvectors:
  0.250  0.750  0.000  0.000  0.000
  0.000  0.000  0.167  0.500  0.333
  0.000  0.000  0.667  0.000  0.333
  0.750  0.250  0.000  0.000  0.000
  0.000  0.000  0.167  0.500  0.333
    occupations:
  0.384 -0.001  0.001  0.000 -0.001
 -0.001  0.995  0.000 -0.001  0.000
  0.001  0.000  0.995 -0.001  0.000
  0.000 -0.001 -0.001  0.384  0.000
 -0.001  0.000  0.000  0.000  0.995
atomic mag. moment =     1.198793
atom    4   Tr[ns(na)] (up, down, total) =   4.95241  3.75361  8.70602
   spin  1
    eigenvalues: 
  0.980  0.980  0.997  0.997  0.997
    eigenvectors:
  0.750  0.250  0.000  0.000  0.000
  0.000  0.000  0.667  0.000  0.333
  0.000  0.000  0.167  0.500  0.333
  0.250  0.750  0.000  0.000  0.000
  0.000  0.000  0.167  0.500  0.333
    occupations:
  0.980  0.000  0.000  0.000  0.000
  0.000  0.997  0.000  0.000  0.000
  0.000  0.000  0.997  0.000  0.000
  0.000  0.000  0.000  0.980  0.000
  0.000  0.000  0.000  0.000  0.997
   spin  2
    eigenvalues: 
  0.384  0.384  0.995  0.995  0.995
    eigenvectors:
  0.250  0.750  0.000  0.000  0.000
  0.000  0.000  0.667  0.000  0.333
  0.000  0.000  0.167  0.500  0.333
  0.750  0.250  0.000  0.000  0.000
  0.000  0.000  0.167  0.500  0.333
    occupations:
  0.384 -0.001  0.001  0.000 -0.001
 -0.001  0.995  0.000 -0.001  0.000
  0.001  0.000  0.995 -0.001  0.000
  0.000 -0.001 -0.001  0.384  0.000
 -0.001  0.000  0.000  0.000  0.995
atomic mag. moment =     1.198793
atom    5   Tr[ns(na)] (up, down, total) =   3.75362  4.95241  8.70603
   spin  1
    eigenvalues: 
  0.384  0.384  0.995  0.995  0.995
    eigenvectors:
  0.250  0.750  0.000  0.000  0.000
  0.000  0.000  0.667  0.000  0.333
  0.000  0.000  0.167  0.500  0.333
  0.750  0.250  0.000  0.000  0.000
  0.000  0.000  0.167  0.500  0.333
    occupations:
  0.384 -0.001  0.001  0.000 -0.001
 -0.001  0.995  0.000 -0.001  0.000
  0.001  0.000  0.995 -0.001  0.000
  0.000 -0.001 -0.001  0.384  0.000
 -0.001  0.000  0.000  0.000  0.995
   spin  2
    eigenvalues: 
  0.980  0.980  0.997  0.997  0.997
    eigenvectors:
  0.750  0.250  0.000  0.000  0.000
  0.000  0.000  0.667  0.000  0.333
  0.000  0.000  0.167  0.500  0.333
  0.250  0.750  0.000  0.000  0.000
  0.000  0.000  0.167  0.500  0.333
    occupations:
  0.980  0.000  0.000  0.000  0.000
  0.000  0.997  0.000  0.000  0.000
  0.000  0.000  0.997  0.000  0.000
  0.000  0.000  0.000  0.980  0.000
  0.000  0.000  0.000  0.000  0.997
atomic mag. moment =    -1.198790
atom    6   Tr[ns(na)] (up, down, total) =   3.75362  4.95241  8.70603
   spin  1
    eigenvalues: 
  0.384  0.384  0.995  0.995  0.995
    eigenvectors:
  0.250  0.750  0.000  0.000  0.000
  0.000  0.000  0.167  0.500  0.333
  0.000  0.000  0.667  0.000  0.333
  0.750  0.250  0.000  0.000  0.000
  0.000  0.000  0.167  0.500  0.333
    occupations:
  0.384 -0.001  0.001  0.000 -0.001
 -0.001  0.995  0.000 -0.001  0.000
  0.001  0.000  0.995 -0.001  0.000
  0.000 -0.001 -0.001  0.384  0.000
 -0.001  0.000  0.000  0.000  0.995
   spin  2
    eigenvalues: 
  0.980  0.980  0.997  0.997  0.997
    eigenvectors:
  0.750  0.250  0.000  0.000  0.000
  0.000  0.000  0.167  0.500  0.333
  0.000  0.000  0.667  0.000  0.333
  0.250  0.750  0.000  0.000  0.000
  0.000  0.000  0.167  0.500  0.333
    occupations:
  0.980  0.000  0.000  0.000  0.000
  0.000  0.997  0.000  0.000  0.000
  0.000  0.000  0.997  0.000  0.000
  0.000  0.000  0.000  0.980  0.000
  0.000  0.000  0.000  0.000  0.997
atomic mag. moment =    -1.198790
atom    7   Tr[ns(na)] (up, down, total) =   3.75362  4.95241  8.70603
   spin  1
    eigenvalues: 
  0.384  0.384  0.995  0.995  0.995
    eigenvectors:
  1.000  0.000  0.000  0.000  0.000
  0.000  0.000  0.167  0.500  0.333
  0.000  0.000  0.167  0.500  0.333
  0.000  1.000  0.000  0.000  0.000
  0.000  0.000  0.667  0.000  0.333
    occupations:
  0.384 -0.001  0.001  0.000 -0.001
 -0.001  0.995  0.000 -0.001  0.000
  0.001  0.000  0.995 -0.001  0.000
  0.000 -0.001 -0.001  0.384  0.000
 -0.001  0.000  0.000  0.000  0.995
   spin  2
    eigenvalues: 
  0.980  0.980  0.997  0.997  0.997
    eigenvectors:
  0.000  1.000  0.000  0.000  0.000
  0.000  0.000  0.167  0.500  0.333
  0.000  0.000  0.167  0.500  0.333
  1.000  0.000  0.000  0.000  0.000
  0.000  0.000  0.667  0.000  0.333
    occupations:
  0.980  0.000  0.000  0.000  0.000
  0.000  0.997  0.000  0.000  0.000
  0.000  0.000  0.997  0.000  0.000
  0.000  0.000  0.000  0.980  0.000
  0.000  0.000  0.000  0.000  0.997
atomic mag. moment =    -1.198790
atom    8   Tr[ns(na)] (up, down, total) =   3.75362  4.95241  8.70603
   spin  1
    eigenvalues: 
  0.384  0.384  0.995  0.995  0.995
    eigenvectors:
  0.039  0.961  0.000  0.000  0.000
  0.000  0.000  0.026  0.641  0.333
  0.000  0.000  0.599  0.068  0.333
  0.961  0.039  0.000  0.000  0.000
  0.000  0.000  0.375  0.292  0.333
    occupations:
  0.384 -0.001  0.001  0.000 -0.001
 -0.001  0.995  0.000 -0.001  0.000
  0.001  0.000  0.995 -0.001  0.000
  0.000 -0.001 -0.001  0.384  0.000
 -0.001  0.000  0.000  0.000  0.995
   spin  2
    eigenvalues: 
  0.980  0.980  0.997  0.997  0.997
    eigenvectors:
  0.006  0.994  0.000  0.000  0.000
  0.000  0.000  0.033  0.633  0.333
  0.000  0.000  0.609  0.058  0.333
  0.994  0.006  0.000  0.000  0.000
  0.000  0.000  0.358  0.309  0.333
    occupations:
  0.980  0.000  0.000  0.000  0.000
  0.000  0.997  0.000  0.000  0.000
  0.000  0.000  0.997  0.000  0.000
  0.000  0.000  0.000  0.980  0.000
  0.000  0.000  0.000  0.000  0.997
atomic mag. moment =    -1.198787
atom    9   Tr[ns(na)] (up, down, total) =   2.81114  2.81114  5.62228
   spin  1
    eigenvalues: 
  0.937  0.937  0.938
    eigenvectors:
  0.167  0.500  0.333
  0.167  0.500  0.333
  0.667  0.000  0.333
    occupations:
  0.937  0.000  0.000
  0.000  0.937  0.000
  0.000  0.000  0.937
   spin  2
    eigenvalues: 
  0.937  0.937  0.938
    eigenvectors:
  0.500  0.167  0.333
  0.500  0.167  0.333
  0.000  0.667  0.333
    occupations:
  0.937  0.000  0.000
  0.000  0.937  0.000
  0.000  0.000  0.937
atomic mag. moment =    -0.000001
atom   10   Tr[ns(na)] (up, down, total) =   2.81114  2.81114  5.62229
   spin  1
    eigenvalues: 
  0.937  0.937  0.938
    eigenvectors:
  0.060  0.607  0.333
  0.306  0.361  0.333
  0.635  0.032  0.333
    occupations:
  0.937  0.000  0.000
  0.000  0.937  0.000
  0.000  0.000  0.937
   spin  2
    eigenvalues: 
  0.937  0.937  0.938
    eigenvectors:
  0.038  0.628  0.333
  0.346  0.320  0.333
  0.615  0.051  0.333
    occupations:
  0.937  0.000  0.000
  0.000  0.937  0.000
  0.000  0.000  0.937
atomic mag. moment =     0.000000
atom   11   Tr[ns(na)] (up, down, total) =   2.81114  2.81114  5.62228
   spin  1
    eigenvalues: 
  0.937  0.937  0.938
    eigenvectors:
  0.167  0.500  0.333
  0.667  0.000  0.333
  0.167  0.500  0.333
    occupations:
  0.937  0.000  0.000
  0.000  0.937  0.000
  0.000  0.000  0.937
   spin  2
    eigenvalues: 
  0.937  0.937  0.938
    eigenvectors:
  0.500  0.167  0.333
  0.000  0.667  0.333
  0.500  0.167  0.333
    occupations:
  0.937  0.000  0.000
  0.000  0.937  0.000
  0.000  0.000  0.937
atomic mag. moment =    -0.000001
atom   12   Tr[ns(na)] (up, down, total) =   2.81114  2.81114  5.62228
   spin  1
    eigenvalues: 
  0.937  0.937  0.938
    eigenvectors:
  0.667  0.000  0.333
  0.167  0.500  0.333
  0.167  0.500  0.333
    occupations:
  0.937  0.000  0.000
  0.000  0.937  0.000
  0.000  0.000  0.937
   spin  2
    eigenvalues: 
  0.937  0.937  0.938
    eigenvectors:
  0.000  0.667  0.333
  0.500  0.167  0.333
  0.500  0.167  0.333
    occupations:
  0.937  0.000  0.000
  0.000  0.937  0.000
  0.000  0.000  0.937
atomic mag. moment =    -0.000001
atom   13   Tr[ns(na)] (up, down, total) =   2.81114  2.81114  5.62228
   spin  1
    eigenvalues: 
  0.937  0.937  0.938
    eigenvectors:
  0.167  0.500  0.333
  0.667  0.000  0.333
  0.167  0.500  0.333
    occupations:
  0.937  0.000  0.000
  0.000  0.937  0.000
  0.000  0.000  0.937
   spin  2
    eigenvalues: 
  0.937  0.937  0.938
    eigenvectors:
  0.500  0.167  0.333
  0.000  0.667  0.333
  0.500  0.167  0.333
    occupations:
  0.937  0.000  0.000
  0.000  0.937  0.000
  0.000  0.000  0.937
atomic mag. moment =    -0.000001
atom   14   Tr[ns(na)] (up, down, total) =   2.81114  2.81114  5.62228
   spin  1
    eigenvalues: 
  0.937  0.937  0.938
    eigenvectors:
  0.667  0.000  0.333
  0.167  0.500  0.333
  0.167  0.500  0.333
    occupations:
  0.937  0.000  0.000
  0.000  0.937  0.000
  0.000  0.000  0.937
   spin  2
    eigenvalues: 
  0.937  0.937  0.938
    eigenvectors:
  0.000  0.667  0.333
  0.500  0.167  0.333
  0.500  0.167  0.333
    occupations:
  0.937  0.000  0.000
  0.000  0.937  0.000
  0.000  0.000  0.937
atomic mag. moment =    -0.000001
atom   15   Tr[ns(na)] (up, down, total) =   2.81114  2.81114  5.62229
   spin  1
    eigenvalues: 
  0.937  0.937  0.938
    eigenvectors:
  0.059  0.607  0.333
  0.306  0.361  0.333
  0.635  0.032  0.333
    occupations:
  0.937  0.000  0.000
  0.000  0.937  0.000
  0.000  0.000  0.937
   spin  2
    eigenvalues: 
  0.937  0.937  0.938
    eigenvectors:
  0.040  0.626  0.333
  0.342  0.325  0.333
  0.618  0.049  0.333
    occupations:
  0.937  0.000  0.000
  0.000  0.937  0.000
  0.000  0.000  0.937
atomic mag. moment =     0.000000
atom   16   Tr[ns(na)] (up, down, total) =   2.81114  2.81114  5.62228
   spin  1
    eigenvalues: 
  0.937  0.937  0.938
    eigenvectors:
  0.167  0.500  0.333
  0.167  0.500  0.333
  0.667  0.000  0.333
    occupations:
  0.937  0.000  0.000
  0.000  0.937  0.000
  0.000  0.000  0.937
   spin  2
    eigenvalues: 
  0.937  0.937  0.938
    eigenvectors:
  0.500  0.167  0.333
  0.500  0.167  0.333
  0.000  0.667  0.333
    occupations:
  0.937  0.000  0.000
  0.000  0.937  0.000
  0.000  0.000  0.937
atomic mag. moment =    -0.000001
N of occupied +U levels = 114.6264805
 --- exit write_ns ---
 LDA+U Projector read from file 
     Starting wfc from file

     total cpu time spent up to now is       11.6 secs

     per-process dynamical memory:   103.5 Mb

     Self-consistent Calculation

     iteration #  1     ecut=    30.00 Ry     beta=0.30
     Davidson diagonalization with overlap
     c_bands:  1 eigenvalues not converged
     ethr =  1.00E-10,  avg # of iterations = 11.2
 --- enter write_ns ---
 LDA+U parameters:
U( 1)     =  0.00000000
alpha( 1) = -0.15000000
U( 2)     =  0.00000000
alpha( 2) =  0.00000000
U( 3)     =  0.00000000
alpha( 3) =  0.00000000
U( 4)     =  0.00000000
alpha( 4) =  0.00000000
atom    1   Tr[ns(na)] (up, down, total) =   4.95525  3.78594  8.74119
   spin  1
    eigenvalues: 
  0.982  0.982  0.997  0.997  0.997
    eigenvectors:
  0.004  0.996  0.000  0.000  0.000
  0.000  0.000  0.030  0.637  0.333
  0.000  0.000  0.605  0.062  0.333
  0.996  0.004  0.000  0.000  0.000
  0.000  0.000  0.365  0.301  0.333
    occupations:
  0.982  0.000  0.000  0.000  0.000
  0.000  0.997  0.000  0.000  0.000
  0.000  0.000  0.997  0.000  0.000
  0.000  0.000  0.000  0.982  0.000
  0.000  0.000  0.000  0.000  0.997
   spin  2
    eigenvalues: 
  0.399  0.399  0.996  0.996  0.996
    eigenvectors:
  0.015  0.985  0.000  0.000  0.000
  0.000  0.000  0.033  0.634  0.333
  0.000  0.000  0.609  0.058  0.333
  0.985  0.015  0.000  0.000  0.000
  0.000  0.000  0.358  0.308  0.333
    occupations:
  0.399 -0.001  0.001  0.000 -0.001
 -0.001  0.996  0.000 -0.001  0.000
  0.001  0.000  0.996 -0.001  0.000
  0.000 -0.001 -0.001  0.399  0.000
 -0.001  0.000  0.000  0.000  0.996
atomic mag. moment =     1.169317
atom    2   Tr[ns(na)] (up, down, total) =   4.95239  3.75271  8.70510
   spin  1
    eigenvalues: 
  0.980  0.980  0.997  0.997  0.997
    eigenvectors:
  0.000  1.000  0.000  0.000  0.000
  0.000  0.000  0.500  0.169  0.331
  0.000  0.000  0.500  0.169  0.331
  1.000  0.000  0.000  0.000  0.000
  0.000  0.000  0.000  0.662  0.338
    occupations:
  0.980  0.000  0.000  0.000  0.000
  0.000  0.997  0.000  0.000  0.000
  0.000  0.000  0.997  0.000  0.000
  0.000  0.000  0.000  0.980  0.000
  0.000  0.000  0.000  0.000  0.997
   spin  2
    eigenvalues: 
  0.384  0.384  0.995  0.995  0.995
    eigenvectors:
  1.000  0.000  0.000  0.000  0.000
  0.000  0.000  0.020  0.500  0.480
  0.000  0.000  0.020  0.500  0.480
  0.000  1.000  0.000  0.000  0.000
  0.000  0.000  0.960  0.000  0.040
    occupations:
  0.384 -0.001  0.001  0.000 -0.001
 -0.001  0.995  0.000 -0.001  0.000
  0.001  0.000  0.995 -0.001  0.000
  0.000 -0.001 -0.001  0.384  0.000
 -0.001  0.000  0.000  0.000  0.995
atomic mag. moment =     1.199675
atom    3   Tr[ns(na)] (up, down, total) =   4.95239  3.75271  8.70510
   spin  1
    eigenvalues: 
  0.980  0.980  0.997  0.997  0.997
    eigenvectors:
  0.750  0.250  0.000  0.000  0.000
  0.000  0.000  0.500  0.169  0.331
  0.000  0.000  0.000  0.662  0.338
  0.250  0.750  0.000  0.000  0.000
  0.000  0.000  0.500  0.169  0.331
    occupations:
  0.980  0.000  0.000  0.000  0.000
  0.000  0.997  0.000  0.000  0.000
  0.000  0.000  0.997  0.000  0.000
  0.000  0.000  0.000  0.980  0.000
  0.000  0.000  0.000  0.000  0.997
   spin  2
    eigenvalues: 
  0.384  0.384  0.995  0.995  0.995
    eigenvectors:
  0.250  0.750  0.000  0.000  0.000
  0.000  0.000  0.020  0.500  0.480
  0.000  0.000  0.960  0.000  0.040
  0.750  0.250  0.000  0.000  0.000
  0.000  0.000  0.020  0.500  0.480
    occupations:
  0.384 -0.001  0.000  0.000 -0.001
 -0.001  0.995  0.000 -0.001  0.000
  0.000  0.000  0.995 -0.001  0.000
  0.000 -0.001 -0.001  0.384  0.000
 -0.001  0.000  0.000  0.000  0.995
atomic mag. moment =     1.199675
atom    4   Tr[ns(na)] (up, down, total) =   4.95239  3.75271  8.70510
   spin  1
    eigenvalues: 
  0.980  0.980  0.997  0.997  0.997
    eigenvectors:
  0.750  0.250  0.000  0.000  0.000
  0.000  0.000  0.000  0.662  0.338
  0.000  0.000  0.500  0.169  0.331
  0.250  0.750  0.000  0.000  0.000
  0.000  0.000  0.500  0.169  0.331
    occupations:
  0.980  0.000  0.000  0.000  0.000
  0.000  0.997  0.000  0.000  0.000
  0.000  0.000  0.997  0.000  0.000
  0.000  0.000  0.000  0.980  0.000
  0.000  0.000  0.000  0.000  0.997
   spin  2
    eigenvalues: 
  0.384  0.384  0.995  0.995  0.995
    eigenvectors:
  0.250  0.750  0.000  0.000  0.000
  0.000  0.000  0.960  0.000  0.040
  0.000  0.000  0.020  0.500  0.480
  0.750  0.250  0.000  0.000  0.000
  0.000  0.000  0.020  0.500  0.480
    occupations:
  0.384  0.000  0.001  0.000 -0.001
  0.000  0.995  0.000 -0.001  0.000
  0.001  0.000  0.995 -0.001  0.000
  0.000 -0.001 -0.001  0.384  0.000
 -0.001  0.000  0.000  0.000  0.995
atomic mag. moment =     1.199675
atom    5   Tr[ns(na)] (up, down, total) =   3.75348  4.95227  8.70576
   spin  1
    eigenvalues: 
  0.384  0.384  0.995  0.995  0.995
    eigenvectors:
  0.250  0.750  0.000  0.000  0.000
  0.000  0.000  0.000  0.668  0.332
  0.000  0.000  0.500  0.166  0.334
  0.750  0.250  0.000  0.000  0.000
  0.000  0.000  0.500  0.166  0.334
    occupations:
  0.384 -0.001  0.001  0.000 -0.001
 -0.001  0.995  0.000 -0.001  0.000
  0.001  0.000  0.995 -0.001  0.000
  0.000 -0.001 -0.001  0.384  0.000
 -0.001  0.000  0.000  0.000  0.995
   spin  2
    eigenvalues: 
  0.980  0.980  0.997  0.997  0.997
    eigenvectors:
  0.250  0.750  0.000  0.000  0.000
  0.000  0.000  0.988  0.000  0.012
  0.000  0.000  0.006  0.500  0.494
  0.750  0.250  0.000  0.000  0.000
  0.000  0.000  0.006  0.500  0.494
    occupations:
  0.980  0.000  0.000  0.000  0.000
  0.000  0.997  0.000  0.000  0.000
  0.000  0.000  0.997  0.000  0.000
  0.000  0.000  0.000  0.980  0.000
  0.000  0.000  0.000  0.000  0.997
atomic mag. moment =    -1.198789
atom    6   Tr[ns(na)] (up, down, total) =   3.75348  4.95227  8.70576
   spin  1
    eigenvalues: 
  0.384  0.384  0.995  0.995  0.995
    eigenvectors:
  0.250  0.750  0.000  0.000  0.000
  0.000  0.000  0.500  0.166  0.334
  0.000  0.000  0.000  0.668  0.332
  0.750  0.250  0.000  0.000  0.000
  0.000  0.000  0.500  0.166  0.334
    occupations:
  0.384 -0.001  0.001  0.000 -0.001
 -0.001  0.995  0.000 -0.001  0.000
  0.001  0.000  0.995 -0.001  0.000
  0.000 -0.001 -0.001  0.384  0.000
 -0.001  0.000  0.000  0.000  0.995
   spin  2
    eigenvalues: 
  0.980  0.980  0.997  0.997  0.997
    eigenvectors:
  0.250  0.750  0.000  0.000  0.000
  0.000  0.000  0.006  0.500  0.494
  0.000  0.000  0.988  0.000  0.012
  0.750  0.250  0.000  0.000  0.000
  0.000  0.000  0.006  0.500  0.494
    occupations:
  0.980  0.000  0.000  0.000  0.000
  0.000  0.997  0.000  0.000  0.000
  0.000  0.000  0.997  0.000  0.000
  0.000  0.000  0.000  0.980  0.000
  0.000  0.000  0.000  0.000  0.997
atomic mag. moment =    -1.198789
atom    7   Tr[ns(na)] (up, down, total) =   3.75348  4.95227  8.70576
   spin  1
    eigenvalues: 
  0.384  0.384  0.995  0.995  0.995
    eigenvectors:
  1.000  0.000  0.000  0.000  0.000
  0.000  0.000  0.500  0.166  0.334
  0.000  0.000  0.500  0.166  0.334
  0.000  1.000  0.000  0.000  0.000
  0.000  0.000  0.000  0.668  0.332
    occupations:
  0.384 -0.001  0.001  0.000 -0.001
 -0.001  0.995  0.000 -0.001  0.000
  0.001  0.000  0.995 -0.001  0.000
  0.000 -0.001 -0.001  0.384  0.000
 -0.001  0.000  0.000  0.000  0.995
   spin  2
    eigenvalues: 
  0.980  0.980  0.997  0.997  0.997
    eigenvectors:
  1.000  0.000  0.000  0.000  0.000
  0.000  0.000  0.006  0.500  0.494
  0.000  0.000  0.006  0.500  0.494
  0.000  1.000  0.000  0.000  0.000
  0.000  0.000  0.988  0.000  0.012
    occupations:
  0.980  0.000  0.000  0.000  0.000
  0.000  0.997  0.000  0.000  0.000
  0.000  0.000  0.997  0.000  0.000
  0.000  0.000  0.000  0.980  0.000
  0.000  0.000  0.000  0.000  0.997
atomic mag. moment =    -1.198789
atom    8   Tr[ns(na)] (up, down, total) =   3.75031  4.94883  8.69914
   spin  1
    eigenvalues: 
  0.382  0.382  0.995  0.995  0.995
    eigenvectors:
  0.003  0.997  0.000  0.000  0.000
  0.000  0.000  0.030  0.637  0.333
  0.000  0.000  0.604  0.062  0.333
  0.997  0.003  0.000  0.000  0.000
  0.000  0.000  0.366  0.301  0.333
    occupations:
  0.382 -0.001  0.001  0.000 -0.001
 -0.001  0.995  0.000 -0.001  0.000
  0.001  0.000  0.995 -0.001  0.000
  0.000 -0.001 -0.001  0.382  0.000
 -0.001  0.000  0.000  0.000  0.995
   spin  2
    eigenvalues: 
  0.979  0.979  0.997  0.997  0.997
    eigenvectors:
  0.008  0.992  0.000  0.000  0.000
  0.000  0.000  0.035  0.632  0.333
  0.000  0.000  0.611  0.056  0.333
  0.992  0.008  0.000  0.000  0.000
  0.000  0.000  0.354  0.312  0.333
    occupations:
  0.979  0.000  0.000  0.000  0.000
  0.000  0.997  0.000  0.000  0.000
  0.000  0.000  0.997  0.000  0.000
  0.000  0.000  0.000  0.979  0.000
  0.000  0.000  0.000  0.000  0.997
atomic mag. moment =    -1.198520
atom    9   Tr[ns(na)] (up, down, total) =   2.81116  2.80876  5.61991
   spin  1
    eigenvalues: 
  0.937  0.937  0.938
    eigenvectors:
  0.500  0.170  0.330
  0.500  0.170  0.330
  0.000  0.660  0.340
    occupations:
  0.937  0.000  0.000
  0.000  0.937  0.000
  0.000  0.000  0.937
   spin  2
    eigenvalues: 
  0.935  0.937  0.938
    eigenvectors:
  0.021  0.500  0.479
  0.021  0.500  0.479
  0.958  0.000  0.042
    occupations:
  0.937  0.000  0.000
  0.000  0.937  0.000
  0.000  0.000  0.935
atomic mag. moment =     0.002400
atom   10   Tr[ns(na)] (up, down, total) =   2.81114  2.81110  5.62224
   spin  1
    eigenvalues: 
  0.937  0.937  0.938
    eigenvectors:
  0.085  0.582  0.333
  0.265  0.402  0.333
  0.650  0.017  0.333
    occupations:
  0.937  0.000  0.000
  0.000  0.937  0.000
  0.000  0.000  0.937
   spin  2
    eigenvalues: 
  0.937  0.937  0.938
    eigenvectors:
  0.073  0.594  0.333
  0.284  0.383  0.333
  0.644  0.023  0.333
    occupations:
  0.937  0.000  0.000
  0.000  0.937  0.000
  0.000  0.000  0.937
atomic mag. moment =     0.000038
atom   11   Tr[ns(na)] (up, down, total) =   2.81116  2.80876  5.61991
   spin  1
    eigenvalues: 
  0.937  0.937  0.938
    eigenvectors:
  0.500  0.170  0.330
  0.000  0.660  0.340
  0.500  0.170  0.330
    occupations:
  0.937  0.000  0.000
  0.000  0.937  0.000
  0.000  0.000  0.937
   spin  2
    eigenvalues: 
  0.935  0.937  0.938
    eigenvectors:
  0.021  0.500  0.479
  0.958  0.000  0.042
  0.021  0.500  0.479
    occupations:
  0.937  0.000  0.000
  0.000  0.935  0.000
  0.000  0.000  0.937
atomic mag. moment =     0.002400
atom   12   Tr[ns(na)] (up, down, total) =   2.81116  2.80876  5.61991
   spin  1
    eigenvalues: 
  0.937  0.937  0.938
    eigenvectors:
  0.000  0.660  0.340
  0.500  0.170  0.330
  0.500  0.170  0.330
    occupations:
  0.937  0.000  0.000
  0.000  0.937  0.000
  0.000  0.000  0.937
   spin  2
    eigenvalues: 
  0.935  0.937  0.938
    eigenvectors:
  0.958  0.000  0.042
  0.021  0.500  0.479
  0.021  0.500  0.479
    occupations:
  0.935  0.000  0.000
  0.000  0.937  0.000
  0.000  0.000  0.937
atomic mag. moment =     0.002400
atom   13   Tr[ns(na)] (up, down, total) =   2.81116  2.80876  5.61991
   spin  1
    eigenvalues: 
  0.937  0.937  0.938
    eigenvectors:
  0.500  0.170  0.330
  0.000  0.660  0.340
  0.500  0.170  0.330
    occupations:
  0.937  0.000  0.000
  0.000  0.937  0.000
  0.000  0.000  0.937
   spin  2
    eigenvalues: 
  0.935  0.937  0.938
    eigenvectors:
  0.021  0.500  0.479
  0.958  0.000  0.042
  0.021  0.500  0.479
    occupations:
  0.937  0.000  0.000
  0.000  0.935  0.000
  0.000  0.000  0.937
atomic mag. moment =     0.002400
atom   14   Tr[ns(na)] (up, down, total) =   2.81116  2.80876  5.61991
   spin  1
    eigenvalues: 
  0.937  0.937  0.938
    eigenvectors:
  0.000  0.660  0.340
  0.500  0.170  0.330
  0.500  0.170  0.330
    occupations:
  0.937  0.000  0.000
  0.000  0.937  0.000
  0.000  0.000  0.937
   spin  2
    eigenvalues: 
  0.935  0.937  0.938
    eigenvectors:
  0.958  0.000  0.042
  0.021  0.500  0.479
  0.021  0.500  0.479
    occupations:
  0.935  0.000  0.000
  0.000  0.937  0.000
  0.000  0.000  0.937
atomic mag. moment =     0.002400
atom   15   Tr[ns(na)] (up, down, total) =   2.81114  2.81110  5.62224
   spin  1
    eigenvalues: 
  0.937  0.937  0.938
    eigenvectors:
  0.046  0.620  0.333
  0.330  0.337  0.333
  0.624  0.043  0.333
    occupations:
  0.937  0.000  0.000
  0.000  0.937  0.000
  0.000  0.000  0.937
   spin  2
    eigenvalues: 
  0.937  0.937  0.938
    eigenvectors:
  0.070  0.597  0.333
  0.288  0.378  0.333
  0.642  0.025  0.333
    occupations:
  0.937  0.000  0.000
  0.000  0.937  0.000
  0.000  0.000  0.937
atomic mag. moment =     0.000038
atom   16   Tr[ns(na)] (up, down, total) =   2.81116  2.80876  5.61991
   spin  1
    eigenvalues: 
  0.937  0.937  0.938
    eigenvectors:
  0.500  0.170  0.330
  0.500  0.170  0.330
  0.000  0.660  0.340
    occupations:
  0.937  0.000  0.000
  0.000  0.937  0.000
  0.000  0.000  0.937
   spin  2
    eigenvalues: 
  0.935  0.937  0.938
    eigenvectors:
  0.021  0.500  0.479
  0.021  0.500  0.479
  0.958  0.000  0.042
    occupations:
  0.937  0.000  0.000
  0.000  0.937  0.000
  0.000  0.000  0.935
atomic mag. moment =     0.002400
N of occupied +U levels = 114.6368779
 --- exit write_ns ---
 --- in v_hubbard ---
Hubbard energy   -0.0961
 -------

     total cpu time spent up to now is      108.8 secs

     total energy              =    -942.11189754 Ry
     Harris-Foulkes estimate   =    -942.11227635 Ry
     estimated scf accuracy    <       0.00086665 Ry

     total magnetization       =     0.00 Bohr mag/cell
     absolute magnetization    =    12.27 Bohr mag/cell

     iteration #  2     ecut=    30.00 Ry     beta=0.30
     Davidson diagonalization with overlap
     ethr =  6.77E-07,  avg # of iterations =  2.1
 --- enter write_ns ---
 LDA+U parameters:
U( 1)     =  0.00000000
alpha( 1) = -0.15000000
U( 2)     =  0.00000000
alpha( 2) =  0.00000000
U( 3)     =  0.00000000
alpha( 3) =  0.00000000
U( 4)     =  0.00000000
alpha( 4) =  0.00000000
atom    1   Tr[ns(na)] (up, down, total) =   4.94933  3.75151  8.70084
   spin  1
    eigenvalues: 
  0.979  0.979  0.997  0.997  0.997
    eigenvectors:
  0.007  0.993  0.000  0.000  0.000
  0.000  0.000  0.026  0.640  0.333
  0.000  0.000  0.600  0.067  0.333
  0.993  0.007  0.000  0.000  0.000
  0.000  0.000  0.374  0.293  0.333
    occupations:
  0.979  0.000  0.000  0.000  0.000
  0.000  0.997  0.000  0.000  0.000
  0.000  0.000  0.997  0.000  0.000
  0.000  0.000  0.000  0.979  0.000
  0.000  0.000  0.000  0.000  0.997
   spin  2
    eigenvalues: 
  0.383  0.383  0.995  0.995  0.995
    eigenvectors:
  0.009  0.991  0.000  0.000  0.000
  0.000  0.000  0.038  0.629  0.333
  0.000  0.000  0.615  0.052  0.333
  0.991  0.009  0.000  0.000  0.000
  0.000  0.000  0.348  0.319  0.333
    occupations:
  0.383  0.000  0.000  0.000 -0.001
  0.000  0.995  0.000 -0.001  0.000
  0.000  0.000  0.995 -0.001  0.000
  0.000 -0.001 -0.001  0.383  0.000
 -0.001  0.000  0.000  0.000  0.995
atomic mag. moment =     1.197819
atom    2   Tr[ns(na)] (up, down, total) =   4.95248  3.75417  8.70665
   spin  1
    eigenvalues: 
  0.980  0.980  0.997  0.997  0.997
    eigenvectors:
  1.000  0.000  0.000  0.000  0.000
  0.000  0.000  0.027  0.500  0.473
  0.000  0.000  0.027  0.500  0.473
  0.000  1.000  0.000  0.000  0.000
  0.000  0.000  0.945  0.000  0.055
    occupations:
  0.980  0.000  0.000  0.000  0.000
  0.000  0.997  0.000  0.000  0.000
  0.000  0.000  0.997  0.000  0.000
  0.000  0.000  0.000  0.980  0.000
  0.000  0.000  0.000  0.000  0.997
   spin  2
    eigenvalues: 
  0.384  0.384  0.995  0.995  0.996
    eigenvectors:
  0.000  1.000  0.000  0.000  0.000
  0.000  0.000  0.500  0.294  0.206
  0.000  0.000  0.500  0.294  0.206
  1.000  0.000  0.000  0.000  0.000
  0.000  0.000  0.000  0.413  0.587
    occupations:
  0.384 -0.001  0.001  0.000 -0.001
 -0.001  0.995  0.000 -0.001  0.000
  0.001  0.000  0.995 -0.001  0.000
  0.000 -0.001 -0.001  0.384  0.000
 -0.001  0.000  0.000  0.000  0.995
atomic mag. moment =     1.198307
atom    3   Tr[ns(na)] (up, down, total) =   4.95248  3.75417  8.70665
   spin  1
    eigenvalues: 
  0.980  0.980  0.997  0.997  0.997
    eigenvectors:
  0.250  0.750  0.000  0.000  0.000
  0.000  0.000  0.027  0.500  0.473
  0.000  0.000  0.945  0.000  0.055
  0.750  0.250  0.000  0.000  0.000
  0.000  0.000  0.027  0.500  0.473
    occupations:
  0.980  0.000  0.000  0.000  0.000
  0.000  0.997  0.000  0.000  0.000
  0.000  0.000  0.997  0.000  0.000
  0.000  0.000  0.000  0.980  0.000
  0.000  0.000  0.000  0.000  0.997
   spin  2
    eigenvalues: 
  0.384  0.384  0.995  0.995  0.996
    eigenvectors:
  0.750  0.250  0.000  0.000  0.000
  0.000  0.000  0.500  0.294  0.206
  0.000  0.000  0.000  0.413  0.587
  0.250  0.750  0.000  0.000  0.000
  0.000  0.000  0.500  0.294  0.206
    occupations:
  0.384 -0.001  0.000  0.000 -0.001
 -0.001  0.995  0.000 -0.001  0.000
  0.000  0.000  0.995 -0.001  0.000
  0.000 -0.001 -0.001  0.384  0.000
 -0.001  0.000  0.000  0.000  0.995
atomic mag. moment =     1.198307
atom    4   Tr[ns(na)] (up, down, total) =   4.95248  3.75417  8.70665
   spin  1
    eigenvalues: 
  0.980  0.980  0.997  0.997  0.997
    eigenvectors:
  0.250  0.750  0.000  0.000  0.000
  0.000  0.000  0.945  0.000  0.055
  0.000  0.000  0.027  0.500  0.473
  0.750  0.250  0.000  0.000  0.000
  0.000  0.000  0.027  0.500  0.473
    occupations:
  0.980  0.000  0.000  0.000  0.000
  0.000  0.997  0.000  0.000  0.000
  0.000  0.000  0.997  0.000  0.000
  0.000  0.000  0.000  0.980  0.000
  0.000  0.000  0.000  0.000  0.997
   spin  2
    eigenvalues: 
  0.384  0.384  0.995  0.995  0.996
    eigenvectors:
  0.750  0.250  0.000  0.000  0.000
  0.000  0.000  0.000  0.413  0.587
  0.000  0.000  0.500  0.294  0.206
  0.250  0.750  0.000  0.000  0.000
  0.000  0.000  0.500  0.294  0.206
    occupations:
  0.384  0.000  0.001  0.000 -0.001
  0.000  0.995  0.000 -0.001  0.000
  0.001  0.000  0.995 -0.001  0.000
  0.000 -0.001 -0.001  0.384  0.000
 -0.001  0.000  0.000  0.000  0.995
atomic mag. moment =     1.198307
atom    5   Tr[ns(na)] (up, down, total) =   3.75272  4.95237  8.70510
   spin  1
    eigenvalues: 
  0.383  0.384  0.995  0.995  0.995
    eigenvectors:
  0.750  0.250  0.000  0.000  0.000
  0.000  0.000  0.875  0.000  0.125
  0.000  0.000  0.063  0.500  0.437
  0.250  0.750  0.000  0.000  0.000
  0.000  0.000  0.063  0.500  0.437
    occupations:
  0.383 -0.001  0.001  0.000 -0.001
 -0.001  0.995  0.000 -0.001  0.000
  0.001  0.000  0.995 -0.001  0.000
  0.000 -0.001 -0.001  0.384  0.000
 -0.001  0.000  0.000  0.000  0.995
   spin  2
    eigenvalues: 
  0.980  0.980  0.997  0.997  0.997
    eigenvectors:
  0.250  0.750  0.000  0.000  0.000
  0.000  0.000  0.000  0.164  0.836
  0.000  0.000  0.500  0.418  0.082
  0.750  0.250  0.000  0.000  0.000
  0.000  0.000  0.500  0.418  0.082
    occupations:
  0.980  0.000  0.000  0.000  0.000
  0.000  0.997  0.000  0.000  0.000
  0.000  0.000  0.997  0.000  0.000
  0.000  0.000  0.000  0.980  0.000
  0.000  0.000  0.000  0.000  0.997
atomic mag. moment =    -1.199653
atom    6   Tr[ns(na)] (up, down, total) =   3.75272  4.95237  8.70510
   spin  1
    eigenvalues: 
  0.383  0.384  0.995  0.995  0.995
    eigenvectors:
  0.750  0.250  0.000  0.000  0.000
  0.000  0.000  0.063  0.500  0.437
  0.000  0.000  0.875  0.000  0.125
  0.250  0.750  0.000  0.000  0.000
  0.000  0.000  0.063  0.500  0.437
    occupations:
  0.383 -0.001  0.001  0.000 -0.001
 -0.001  0.995  0.000 -0.001  0.000
  0.001  0.000  0.995 -0.001  0.000
  0.000 -0.001 -0.001  0.384  0.000
 -0.001  0.000  0.000  0.000  0.995
   spin  2
    eigenvalues: 
  0.980  0.980  0.997  0.997  0.997
    eigenvectors:
  0.250  0.750  0.000  0.000  0.000
  0.000  0.000  0.500  0.418  0.082
  0.000  0.000  0.000  0.164  0.836
  0.750  0.250  0.000  0.000  0.000
  0.000  0.000  0.500  0.418  0.082
    occupations:
  0.980  0.000  0.000  0.000  0.000
  0.000  0.997  0.000  0.000  0.000
  0.000  0.000  0.997  0.000  0.000
  0.000  0.000  0.000  0.980  0.000
  0.000  0.000  0.000  0.000  0.997
atomic mag. moment =    -1.199653
atom    7   Tr[ns(na)] (up, down, total) =   3.75272  4.95237  8.70510
   spin  1
    eigenvalues: 
  0.383  0.384  0.995  0.995  0.995
    eigenvectors:
  0.000  1.000  0.000  0.000  0.000
  0.000  0.000  0.063  0.500  0.437
  0.000  0.000  0.063  0.500  0.437
  1.000  0.000  0.000  0.000  0.000
  0.000  0.000  0.875  0.000  0.125
    occupations:
  0.384 -0.001  0.001  0.000 -0.001
 -0.001  0.995  0.000 -0.001  0.000
  0.001  0.000  0.995 -0.001  0.000
  0.000 -0.001 -0.001  0.383  0.000
 -0.001  0.000  0.000  0.000  0.995
   spin  2
    eigenvalues: 
  0.980  0.980  0.997  0.997  0.997
    eigenvectors:
  1.000  0.000  0.000  0.000  0.000
  0.000  0.000  0.500  0.418  0.082
  0.000  0.000  0.500  0.418  0.082
  0.000  1.000  0.000  0.000  0.000
  0.000  0.000  0.000  0.164  0.836
    occupations:
  0.980  0.000  0.000  0.000  0.000
  0.000  0.997  0.000  0.000  0.000
  0.000  0.000  0.997  0.000  0.000
  0.000  0.000  0.000  0.980  0.000
  0.000  0.000  0.000  0.000  0.997
atomic mag. moment =    -1.199653
atom    8   Tr[ns(na)] (up, down, total) =   3.76905  4.95429  8.72334
   spin  1
    eigenvalues: 
  0.391  0.391  0.995  0.995  0.996
    eigenvectors:
  0.043  0.957  0.000  0.000  0.000
  0.000  0.000  0.034  0.633  0.333
  0.000  0.000  0.609  0.057  0.333
  0.957  0.043  0.000  0.000  0.000
  0.000  0.000  0.357  0.310  0.333
    occupations:
  0.391 -0.001  0.001  0.000 -0.001
 -0.001  0.996  0.000 -0.001  0.000
  0.001  0.000  0.996 -0.001  0.000
  0.000 -0.001 -0.001  0.391  0.000
 -0.001  0.000  0.000  0.000  0.996
   spin  2
    eigenvalues: 
  0.981  0.981  0.997  0.997  0.997
    eigenvectors:
  0.018  0.982  0.000  0.000  0.000
  0.000  0.000  0.023  0.644  0.333
  0.000  0.000  0.593  0.074  0.333
  0.982  0.018  0.000  0.000  0.000
  0.000  0.000  0.384  0.282  0.333
    occupations:
  0.981  0.000  0.000  0.000  0.000
  0.000  0.997  0.000  0.000  0.000
  0.000  0.000  0.997  0.000  0.000
  0.000  0.000  0.000  0.981  0.000
  0.000  0.000  0.000  0.000  0.997
atomic mag. moment =    -1.185240
atom    9   Tr[ns(na)] (up, down, total) =   2.81056  2.81132  5.62188
   spin  1
    eigenvalues: 
  0.936  0.937  0.938
    eigenvectors:
  0.067  0.500  0.433
  0.067  0.500  0.433
  0.865  0.000  0.135
    occupations:
  0.937  0.000  0.000
  0.000  0.937  0.000
  0.000  0.000  0.936
   spin  2
    eigenvalues: 
  0.937  0.937  0.938
    eigenvectors:
  0.500  0.176  0.324
  0.500  0.176  0.324
  0.000  0.648  0.352
    occupations:
  0.937  0.000  0.000
  0.000  0.937  0.000
  0.000  0.000  0.937
atomic mag. moment =    -0.000768
atom   10   Tr[ns(na)] (up, down, total) =   2.81117  2.81102  5.62219
   spin  1
    eigenvalues: 
  0.937  0.937  0.938
    eigenvectors:
  0.088  0.579  0.333
  0.260  0.406  0.333
  0.651  0.015  0.333
    occupations:
  0.937  0.000  0.000
  0.000  0.937  0.000
  0.000  0.000  0.937
   spin  2
    eigenvalues: 
  0.937  0.937  0.938
    eigenvectors:
  0.072  0.594  0.333
  0.284  0.383  0.333
  0.643  0.023  0.333
    occupations:
  0.937  0.000  0.000
  0.000  0.937  0.000
  0.000  0.000  0.937
atomic mag. moment =     0.000144
atom   11   Tr[ns(na)] (up, down, total) =   2.81056  2.81132  5.62188
   spin  1
    eigenvalues: 
  0.936  0.937  0.938
    eigenvectors:
  0.067  0.500  0.433
  0.865  0.000  0.135
  0.067  0.500  0.433
    occupations:
  0.937  0.000  0.000
  0.000  0.936  0.000
  0.000  0.000  0.937
   spin  2
    eigenvalues: 
  0.937  0.937  0.938
    eigenvectors:
  0.500  0.176  0.324
  0.000  0.648  0.352
  0.500  0.176  0.324
    occupations:
  0.937  0.000  0.000
  0.000  0.937  0.000
  0.000  0.000  0.937
atomic mag. moment =    -0.000768
atom   12   Tr[ns(na)] (up, down, total) =   2.81056  2.81132  5.62188
   spin  1
    eigenvalues: 
  0.936  0.937  0.938
    eigenvectors:
  0.865  0.000  0.135
  0.067  0.500  0.433
  0.067  0.500  0.433
    occupations:
  0.936  0.000  0.000
  0.000  0.937  0.000
  0.000  0.000  0.937
   spin  2
    eigenvalues: 
  0.937  0.937  0.938
    eigenvectors:
  0.000  0.648  0.352
  0.500  0.176  0.324
  0.500  0.176  0.324
    occupations:
  0.937  0.000  0.000
  0.000  0.937  0.000
  0.000  0.000  0.937
atomic mag. moment =    -0.000768
atom   13   Tr[ns(na)] (up, down, total) =   2.81056  2.81132  5.62188
   spin  1
    eigenvalues: 
  0.936  0.937  0.938
    eigenvectors:
  0.067  0.500  0.433
  0.865  0.000  0.135
  0.067  0.500  0.433
    occupations:
  0.937  0.000  0.000
  0.000  0.936  0.000
  0.000  0.000  0.937
   spin  2
    eigenvalues: 
  0.937  0.937  0.938
    eigenvectors:
  0.500  0.176  0.324
  0.000  0.648  0.352
  0.500  0.176  0.324
    occupations:
  0.937  0.000  0.000
  0.000  0.937  0.000
  0.000  0.000  0.937
atomic mag. moment =    -0.000768
atom   14   Tr[ns(na)] (up, down, total) =   2.81056  2.81132  5.62188
   spin  1
    eigenvalues: 
  0.936  0.937  0.938
    eigenvectors:
  0.865  0.000  0.135
  0.067  0.500  0.433
  0.067  0.500  0.433
    occupations:
  0.936  0.000  0.000
  0.000  0.937  0.000
  0.000  0.000  0.937
   spin  2
    eigenvalues: 
  0.937  0.937  0.938
    eigenvectors:
  0.000  0.648  0.352
  0.500  0.176  0.324
  0.500  0.176  0.324
    occupations:
  0.937  0.000  0.000
  0.000  0.937  0.000
  0.000  0.000  0.937
atomic mag. moment =    -0.000768
atom   15   Tr[ns(na)] (up, down, total) =   2.81117  2.81102  5.62219
   spin  1
    eigenvalues: 
  0.937  0.937  0.938
    eigenvectors:
  0.102  0.564  0.333
  0.241  0.426  0.333
  0.657  0.010  0.333
    occupations:
  0.937  0.000  0.000
  0.000  0.937  0.000
  0.000  0.000  0.937
   spin  2
    eigenvalues: 
  0.937  0.937  0.938
    eigenvectors:
  0.062  0.605  0.333
  0.301  0.365  0.333
  0.637  0.030  0.333
    occupations:
  0.937  0.000  0.000
  0.000  0.937  0.000
  0.000  0.000  0.937
atomic mag. moment =     0.000144
atom   16   Tr[ns(na)] (up, down, total) =   2.81056  2.81132  5.62188
   spin  1
    eigenvalues: 
  0.936  0.937  0.938
    eigenvectors:
  0.067  0.500  0.433
  0.067  0.500  0.433
  0.865  0.000  0.135
    occupations:
  0.937  0.000  0.000
  0.000  0.937  0.000
  0.000  0.000  0.936
   spin  2
    eigenvalues: 
  0.937  0.937  0.938
    eigenvectors:
  0.500  0.176  0.324
  0.500  0.176  0.324
  0.000  0.648  0.352
    occupations:
  0.937  0.000  0.000
  0.000  0.937  0.000
  0.000  0.000  0.937
atomic mag. moment =    -0.000768
N of occupied +U levels = 114.6350908
 --- exit write_ns ---
 --- in v_hubbard ---
Hubbard energy   -0.0961
 -------

     total cpu time spent up to now is      152.0 secs

     total energy              =    -942.11202349 Ry
     Harris-Foulkes estimate   =    -942.11232064 Ry
     estimated scf accuracy    <       0.00124335 Ry

     total magnetization       =     0.00 Bohr mag/cell
     absolute magnetization    =    12.28 Bohr mag/cell

     iteration #  3     ecut=    30.00 Ry     beta=0.30
     Davidson diagonalization with overlap
     ethr =  6.77E-07,  avg # of iterations =  2.0
 --- enter write_ns ---
 LDA+U parameters:
U( 1)     =  0.00000000
alpha( 1) = -0.15000000
U( 2)     =  0.00000000
alpha( 2) =  0.00000000
U( 3)     =  0.00000000
alpha( 3) =  0.00000000
U( 4)     =  0.00000000
alpha( 4) =  0.00000000
atom    1   Tr[ns(na)] (up, down, total) =   4.95299  3.76960  8.72259
   spin  1
    eigenvalues: 
  0.980  0.980  0.997  0.997  0.997
    eigenvectors:
  0.027  0.973  0.000  0.000  0.000
  0.000  0.000  0.027  0.640  0.333
  0.000  0.000  0.600  0.066  0.333
  0.973  0.027  0.000  0.000  0.000
  0.000  0.000  0.373  0.294  0.333
    occupations:
  0.980  0.000  0.000  0.000  0.000
  0.000  0.997  0.000  0.000  0.000
  0.000  0.000  0.997  0.000  0.000
  0.000  0.000  0.000  0.980  0.000
  0.000  0.000  0.000  0.000  0.997
   spin  2
    eigenvalues: 
  0.392  0.392  0.995  0.995  0.996
    eigenvectors:
  0.031  0.969  0.000  0.000  0.000
  0.000  0.000  0.020  0.647  0.333
  0.000  0.000  0.589  0.078  0.333
  0.969  0.031  0.000  0.000  0.000
  0.000  0.000  0.391  0.275  0.333
    occupations:
  0.392 -0.001  0.001  0.000 -0.001
 -0.001  0.995  0.000 -0.001  0.000
  0.001  0.000  0.995 -0.001  0.000
  0.000 -0.001 -0.001  0.392  0.000
 -0.001  0.000  0.000  0.000  0.995
atomic mag. moment =     1.183398
atom    2   Tr[ns(na)] (up, down, total) =   4.95239  3.75313  8.70553
   spin  1
    eigenvalues: 
  0.980  0.980  0.997  0.997  0.997
    eigenvectors:
  1.000  0.000  0.000  0.000  0.000
  0.000  0.000  0.500  0.212  0.288
  0.000  0.000  0.500  0.212  0.288
  0.000  1.000  0.000  0.000  0.000
  0.000  0.000  0.000  0.576  0.424
    occupations:
  0.980  0.000  0.000  0.000  0.000
  0.000  0.997  0.000  0.000  0.000
  0.000  0.000  0.997  0.000  0.000
  0.000  0.000  0.000  0.980  0.000
  0.000  0.000  0.000  0.000  0.997
   spin  2
    eigenvalues: 
  0.384  0.384  0.995  0.995  0.995
    eigenvectors:
  0.000  1.000  0.000  0.000  0.000
  0.000  0.000  0.073  0.500  0.427
  0.000  0.000  0.073  0.500  0.427
  1.000  0.000  0.000  0.000  0.000
  0.000  0.000  0.854  0.000  0.146
    occupations:
  0.384 -0.001  0.001  0.000 -0.001
 -0.001  0.995  0.000 -0.001  0.000
  0.001  0.000  0.995 -0.001  0.000
  0.000 -0.001 -0.001  0.384  0.000
 -0.001  0.000  0.000  0.000  0.995
atomic mag. moment =     1.199259
atom    3   Tr[ns(na)] (up, down, total) =   4.95239  3.75313  8.70553
   spin  1
    eigenvalues: 
  0.980  0.980  0.997  0.997  0.997
    eigenvectors:
  0.250  0.750  0.000  0.000  0.000
  0.000  0.000  0.500  0.212  0.288
  0.000  0.000  0.000  0.576  0.424
  0.750  0.250  0.000  0.000  0.000
  0.000  0.000  0.500  0.212  0.288
    occupations:
  0.980  0.000  0.000  0.000  0.000
  0.000  0.997  0.000  0.000  0.000
  0.000  0.000  0.997  0.000  0.000
  0.000  0.000  0.000  0.980  0.000
  0.000  0.000  0.000  0.000  0.997
   spin  2
    eigenvalues: 
  0.384  0.384  0.995  0.995  0.995
    eigenvectors:
  0.750  0.250  0.000  0.000  0.000
  0.000  0.000  0.073  0.500  0.427
  0.000  0.000  0.854  0.000  0.146
  0.250  0.750  0.000  0.000  0.000
  0.000  0.000  0.073  0.500  0.427
    occupations:
  0.384 -0.001  0.000  0.000 -0.001
 -0.001  0.995  0.000 -0.001  0.000
  0.000  0.000  0.995 -0.001  0.000
  0.000 -0.001 -0.001  0.384  0.000
 -0.001  0.000  0.000  0.000  0.995
atomic mag. moment =     1.199259
atom    4   Tr[ns(na)] (up, down, total) =   4.95239  3.75313  8.70553
   spin  1
    eigenvalues: 
  0.980  0.980  0.997  0.997  0.997
    eigenvectors:
  0.250  0.750  0.000  0.000  0.000
  0.000  0.000  0.000  0.576  0.424
  0.000  0.000  0.500  0.212  0.288
  0.750  0.250  0.000  0.000  0.000
  0.000  0.000  0.500  0.212  0.288
    occupations:
  0.980  0.000  0.000  0.000  0.000
  0.000  0.997  0.000  0.000  0.000
  0.000  0.000  0.997  0.000  0.000
  0.000  0.000  0.000  0.980  0.000
  0.000  0.000  0.000  0.000  0.997
   spin  2
    eigenvalues: 
  0.384  0.384  0.995  0.995  0.995
    eigenvectors:
  0.750  0.250  0.000  0.000  0.000
  0.000  0.000  0.854  0.000  0.146
  0.000  0.000  0.073  0.500  0.427
  0.250  0.750  0.000  0.000  0.000
  0.000  0.000  0.073  0.500  0.427
    occupations:
  0.384  0.000  0.001  0.000 -0.001
  0.000  0.995  0.000 -0.001  0.000
  0.001  0.000  0.995 -0.001  0.000
  0.000 -0.001 -0.001  0.384  0.000
 -0.001  0.000  0.000  0.000  0.995
atomic mag. moment =     1.199259
atom    5   Tr[ns(na)] (up, down, total) =   3.75371  4.95244  8.70615
   spin  1
    eigenvalues: 
  0.384  0.384  0.995  0.995  0.995
    eigenvectors:
  0.750  0.250  0.000  0.000  0.000
  0.000  0.000  0.000  0.622  0.378
  0.000  0.000  0.500  0.189  0.311
  0.250  0.750  0.000  0.000  0.000
  0.000  0.000  0.500  0.189  0.311
    occupations:
  0.384 -0.001  0.001  0.000 -0.001
 -0.001  0.995  0.000 -0.001  0.000
  0.001  0.000  0.995 -0.001  0.000
  0.000 -0.001 -0.001  0.384  0.000
 -0.001  0.000  0.000  0.000  0.995
   spin  2
    eigenvalues: 
  0.980  0.980  0.997  0.997  0.997
    eigenvectors:
  0.250  0.750  0.000  0.000  0.000
  0.000  0.000  0.921  0.000  0.079
  0.000  0.000  0.039  0.500  0.461
  0.750  0.250  0.000  0.000  0.000
  0.000  0.000  0.039  0.500  0.461
    occupations:
  0.980  0.000  0.000  0.000  0.000
  0.000  0.997  0.000  0.000  0.000
  0.000  0.000  0.997  0.000  0.000
  0.000  0.000  0.000  0.980  0.000
  0.000  0.000  0.000  0.000  0.997
atomic mag. moment =    -1.198724
atom    6   Tr[ns(na)] (up, down, total) =   3.75371  4.95244  8.70615
   spin  1
    eigenvalues: 
  0.384  0.384  0.995  0.995  0.995
    eigenvectors:
  0.750  0.250  0.000  0.000  0.000
  0.000  0.000  0.500  0.189  0.311
  0.000  0.000  0.000  0.622  0.378
  0.250  0.750  0.000  0.000  0.000
  0.000  0.000  0.500  0.189  0.311
    occupations:
  0.384 -0.001  0.001  0.000 -0.001
 -0.001  0.995  0.000 -0.001  0.000
  0.001  0.000  0.995 -0.001  0.000
  0.000 -0.001 -0.001  0.384  0.000
 -0.001  0.000  0.000  0.000  0.995
   spin  2
    eigenvalues: 
  0.980  0.980  0.997  0.997  0.997
    eigenvectors:
  0.250  0.750  0.000  0.000  0.000
  0.000  0.000  0.039  0.500  0.461
  0.000  0.000  0.921  0.000  0.079
  0.750  0.250  0.000  0.000  0.000
  0.000  0.000  0.039  0.500  0.461
    occupations:
  0.980  0.000  0.000  0.000  0.000
  0.000  0.997  0.000  0.000  0.000
  0.000  0.000  0.997  0.000  0.000
  0.000  0.000  0.000  0.980  0.000
  0.000  0.000  0.000  0.000  0.997
atomic mag. moment =    -1.198724
atom    7   Tr[ns(na)] (up, down, total) =   3.75371  4.95244  8.70615
   spin  1
    eigenvalues: 
  0.384  0.384  0.995  0.995  0.995
    eigenvectors:
  0.000  1.000  0.000  0.000  0.000
  0.000  0.000  0.500  0.189  0.311
  0.000  0.000  0.500  0.189  0.311
  1.000  0.000  0.000  0.000  0.000
  0.000  0.000  0.000  0.622  0.378
    occupations:
  0.384 -0.001  0.001  0.000 -0.001
 -0.001  0.995  0.000 -0.001  0.000
  0.001  0.000  0.995 -0.001  0.000
  0.000 -0.001 -0.001  0.384  0.000
 -0.001  0.000  0.000  0.000  0.995
   spin  2
    eigenvalues: 
  0.980  0.980  0.997  0.997  0.997
    eigenvectors:
  1.000  0.000  0.000  0.000  0.000
  0.000  0.000  0.039  0.500  0.461
  0.000  0.000  0.039  0.500  0.461
  0.000  1.000  0.000  0.000  0.000
  0.000  0.000  0.921  0.000  0.079
    occupations:
  0.980  0.000  0.000  0.000  0.000
  0.000  0.997  0.000  0.000  0.000
  0.000  0.000  0.997  0.000  0.000
  0.000  0.000  0.000  0.980  0.000
  0.000  0.000  0.000  0.000  0.997
atomic mag. moment =    -1.198724
atom    8   Tr[ns(na)] (up, down, total) =   3.75353  4.95079  8.70432
   spin  1
    eigenvalues: 
  0.384  0.384  0.995  0.995  0.995
    eigenvectors:
  0.025  0.975  0.000  0.000  0.000
  0.000  0.000  0.025  0.642  0.333
  0.000  0.000  0.597  0.069  0.333
  0.975  0.025  0.000  0.000  0.000
  0.000  0.000  0.378  0.289  0.333
    occupations:
  0.384 -0.001  0.001  0.000 -0.001
 -0.001  0.995  0.000 -0.001  0.000
  0.001  0.000  0.995 -0.001  0.000
  0.000 -0.001 -0.001  0.384  0.000
 -0.001  0.000  0.000  0.000  0.995
   spin  2
    eigenvalues: 
  0.980  0.980  0.997  0.997  0.997
    eigenvectors:
  0.011  0.989  0.000  0.000  0.000
  0.000  0.000  0.030  0.637  0.333
  0.000  0.000  0.604  0.062  0.333
  0.989  0.011  0.000  0.000  0.000
  0.000  0.000  0.366  0.300  0.333
    occupations:
  0.980  0.000  0.000  0.000  0.000
  0.000  0.997  0.000  0.000  0.000
  0.000  0.000  0.997  0.000  0.000
  0.000  0.000  0.000  0.980  0.000
  0.000  0.000  0.000  0.000  0.997
atomic mag. moment =    -1.197263
atom    9   Tr[ns(na)] (up, down, total) =   2.81134  2.81017  5.62152
   spin  1
    eigenvalues: 
  0.937  0.937  0.938
    eigenvectors:
  0.500  0.174  0.326
  0.500  0.174  0.326
  0.000  0.652  0.348
    occupations:
  0.937  0.000  0.000
  0.000  0.937  0.000
  0.000  0.000  0.937
   spin  2
    eigenvalues: 
  0.936  0.937  0.938
    eigenvectors:
  0.053  0.500  0.447
  0.053  0.500  0.447
  0.895  0.000  0.105
    occupations:
  0.937  0.000  0.000
  0.000  0.937  0.000
  0.000  0.000  0.936
atomic mag. moment =     0.001174
atom   10   Tr[ns(na)] (up, down, total) =   2.81111  2.81116  5.62226
   spin  1
    eigenvalues: 
  0.937  0.937  0.938
    eigenvectors:
  0.081  0.586  0.333
  0.271  0.395  0.333
  0.648  0.019  0.333
    occupations:
  0.937  0.000  0.000
  0.000  0.937  0.000
  0.000  0.000  0.937
   spin  2
    eigenvalues: 
  0.937  0.937  0.938
    eigenvectors:
  0.086  0.580  0.333
  0.263  0.404  0.333
  0.651  0.016  0.333
    occupations:
  0.937  0.000  0.000
  0.000  0.937  0.000
  0.000  0.000  0.937
atomic mag. moment =    -0.000053
atom   11   Tr[ns(na)] (up, down, total) =   2.81134  2.81017  5.62152
   spin  1
    eigenvalues: 
  0.937  0.937  0.938
    eigenvectors:
  0.500  0.174  0.326
  0.000  0.652  0.348
  0.500  0.174  0.326
    occupations:
  0.937  0.000  0.000
  0.000  0.937  0.000
  0.000  0.000  0.937
   spin  2
    eigenvalues: 
  0.936  0.937  0.938
    eigenvectors:
  0.053  0.500  0.447
  0.895  0.000  0.105
  0.053  0.500  0.447
    occupations:
  0.937  0.000  0.000
  0.000  0.936  0.000
  0.000  0.000  0.937
atomic mag. moment =     0.001174
atom   12   Tr[ns(na)] (up, down, total) =   2.81134  2.81017  5.62152
   spin  1
    eigenvalues: 
  0.937  0.937  0.938
    eigenvectors:
  0.000  0.652  0.348
  0.500  0.174  0.326
  0.500  0.174  0.326
    occupations:
  0.937  0.000  0.000
  0.000  0.937  0.000
  0.000  0.000  0.937
   spin  2
    eigenvalues: 
  0.936  0.937  0.938
    eigenvectors:
  0.895  0.000  0.105
  0.053  0.500  0.447
  0.053  0.500  0.447
    occupations:
  0.936  0.000  0.000
  0.000  0.937  0.000
  0.000  0.000  0.937
atomic mag. moment =     0.001174
atom   13   Tr[ns(na)] (up, down, total) =   2.81134  2.81017  5.62152
   spin  1
    eigenvalues: 
  0.937  0.937  0.938
    eigenvectors:
  0.500  0.174  0.326
  0.000  0.652  0.348
  0.500  0.174  0.326
    occupations:
  0.937  0.000  0.000
  0.000  0.937  0.000
  0.000  0.000  0.937
   spin  2
    eigenvalues: 
  0.936  0.937  0.938
    eigenvectors:
  0.053  0.500  0.447
  0.895  0.000  0.105
  0.053  0.500  0.447
    occupations:
  0.937  0.000  0.000
  0.000  0.936  0.000
  0.000  0.000  0.937
atomic mag. moment =     0.001174
atom   14   Tr[ns(na)] (up, down, total) =   2.81134  2.81017  5.62152
   spin  1
    eigenvalues: 
  0.937  0.937  0.938
    eigenvectors:
  0.000  0.652  0.348
  0.500  0.174  0.326
  0.500  0.174  0.326
    occupations:
  0.937  0.000  0.000
  0.000  0.937  0.000
  0.000  0.000  0.937
   spin  2
    eigenvalues: 
  0.936  0.937  0.938
    eigenvectors:
  0.895  0.000  0.105
  0.053  0.500  0.447
  0.053  0.500  0.447
    occupations:
  0.936  0.000  0.000
  0.000  0.937  0.000
  0.000  0.000  0.937
atomic mag. moment =     0.001174
atom   15   Tr[ns(na)] (up, down, total) =   2.81111  2.81116  5.62226
   spin  1
    eigenvalues: 
  0.937  0.937  0.938
    eigenvectors:
  0.068  0.598  0.333
  0.291  0.376  0.333
  0.641  0.026  0.333
    occupations:
  0.937  0.000  0.000
  0.000  0.937  0.000
  0.000  0.000  0.937
   spin  2
    eigenvalues: 
  0.937  0.937  0.938
    eigenvectors:
  0.066  0.601  0.333
  0.294  0.372  0.333
  0.640  0.027  0.333
    occupations:
  0.937  0.000  0.000
  0.000  0.937  0.000
  0.000  0.000  0.937
atomic mag. moment =    -0.000053
atom   16   Tr[ns(na)] (up, down, total) =   2.81134  2.81017  5.62152
   spin  1
    eigenvalues: 
  0.937  0.937  0.938
    eigenvectors:
  0.500  0.174  0.326
  0.500  0.174  0.326
  0.000  0.652  0.348
    occupations:
  0.937  0.000  0.000
  0.000  0.937  0.000
  0.000  0.000  0.937
   spin  2
    eigenvalues: 
  0.936  0.937  0.938
    eigenvectors:
  0.053  0.500  0.447
  0.053  0.500  0.447
  0.895  0.000  0.105
    occupations:
  0.937  0.000  0.000
  0.000  0.937  0.000
  0.000  0.000  0.936
atomic mag. moment =     0.001174
N of occupied +U levels = 114.6355491
 --- exit write_ns ---
 --- in v_hubbard ---
Hubbard energy   -0.0961
 -------

     total cpu time spent up to now is      192.3 secs

     total energy              =    -942.11217100 Ry
     Harris-Foulkes estimate   =    -942.11217287 Ry
     estimated scf accuracy    <       0.00001596 Ry

     total magnetization       =     0.00 Bohr mag/cell
     absolute magnetization    =    12.27 Bohr mag/cell

     iteration #  4     ecut=    30.00 Ry     beta=0.30
     Davidson diagonalization with overlap
     ethr =  1.25E-08,  avg # of iterations =  2.0
 --- enter write_ns ---
 LDA+U parameters:
U( 1)     =  0.00000000
alpha( 1) = -0.15000000
U( 2)     =  0.00000000
alpha( 2) =  0.00000000
U( 3)     =  0.00000000
alpha( 3) =  0.00000000
U( 4)     =  0.00000000
alpha( 4) =  0.00000000
atom    1   Tr[ns(na)] (up, down, total) =   4.95271  3.76974  8.72246
   spin  1
    eigenvalues: 
  0.980  0.980  0.997  0.997  0.997
    eigenvectors:
  0.035  0.965  0.000  0.000  0.000
  0.000  0.000  0.028  0.639  0.333
  0.000  0.000  0.602  0.065  0.333
  0.965  0.035  0.000  0.000  0.000
  0.000  0.000  0.371  0.296  0.333
    occupations:
  0.980  0.000  0.000  0.000  0.000
  0.000  0.997  0.000  0.000  0.000
  0.000  0.000  0.997  0.000  0.000
  0.000  0.000  0.000  0.980  0.000
  0.000  0.000  0.000  0.000  0.997
   spin  2
    eigenvalues: 
  0.392  0.392  0.995  0.995  0.996
    eigenvectors:
  0.035  0.965  0.000  0.000  0.000
  0.000  0.000  0.030  0.637  0.333
  0.000  0.000  0.604  0.063  0.333
  0.965  0.035  0.000  0.000  0.000
  0.000  0.000  0.366  0.300  0.333
    occupations:
  0.392 -0.001  0.001  0.000 -0.001
 -0.001  0.995  0.000 -0.001  0.000
  0.001  0.000  0.995 -0.001  0.000
  0.000 -0.001 -0.001  0.392  0.000
 -0.001  0.000  0.000  0.000  0.995
atomic mag. moment =     1.182972
atom    2   Tr[ns(na)] (up, down, total) =   4.95246  3.75349  8.70595
   spin  1
    eigenvalues: 
  0.980  0.980  0.997  0.997  0.997
    eigenvectors:
  1.000  0.000  0.000  0.000  0.000
  0.000  0.000  0.143  0.500  0.357
  0.000  0.000  0.143  0.500  0.357
  0.000  1.000  0.000  0.000  0.000
  0.000  0.000  0.714  0.000  0.286
    occupations:
  0.980  0.000  0.000  0.000  0.000
  0.000  0.997  0.000  0.000  0.000
  0.000  0.000  0.997  0.000  0.000
  0.000  0.000  0.000  0.980  0.000
  0.000  0.000  0.000  0.000  0.997
   spin  2
    eigenvalues: 
  0.384  0.384  0.995  0.995  0.995
    eigenvectors:
  1.000  0.000  0.000  0.000  0.000
  0.000  0.000  0.071  0.500  0.429
  0.000  0.000  0.071  0.500  0.429
  0.000  1.000  0.000  0.000  0.000
  0.000  0.000  0.858  0.000  0.142
    occupations:
  0.384 -0.001  0.001  0.000 -0.001
 -0.001  0.995  0.000 -0.001  0.000
  0.001  0.000  0.995 -0.001  0.000
  0.000 -0.001 -0.001  0.384  0.000
 -0.001  0.000  0.000  0.000  0.995
atomic mag. moment =     1.198969
atom    3   Tr[ns(na)] (up, down, total) =   4.95246  3.75349  8.70595
   spin  1
    eigenvalues: 
  0.980  0.980  0.997  0.997  0.997
    eigenvectors:
  0.250  0.750  0.000  0.000  0.000
  0.000  0.000  0.143  0.500  0.357
  0.000  0.000  0.714  0.000  0.286
  0.750  0.250  0.000  0.000  0.000
  0.000  0.000  0.143  0.500  0.357
    occupations:
  0.980  0.000  0.000  0.000  0.000
  0.000  0.997  0.000  0.000  0.000
  0.000  0.000  0.997  0.000  0.000
  0.000  0.000  0.000  0.980  0.000
  0.000  0.000  0.000  0.000  0.997
   spin  2
    eigenvalues: 
  0.384  0.384  0.995  0.995  0.995
    eigenvectors:
  0.250  0.750  0.000  0.000  0.000
  0.000  0.000  0.071  0.500  0.429
  0.000  0.000  0.858  0.000  0.142
  0.750  0.250  0.000  0.000  0.000
  0.000  0.000  0.071  0.500  0.429
    occupations:
  0.384 -0.001  0.000  0.000 -0.001
 -0.001  0.995  0.000 -0.001  0.000
  0.000  0.000  0.995 -0.001  0.000
  0.000 -0.001 -0.001  0.384  0.000
 -0.001  0.000  0.000  0.000  0.995
atomic mag. moment =     1.198969
atom    4   Tr[ns(na)] (up, down, total) =   4.95246  3.75349  8.70595
   spin  1
    eigenvalues: 
  0.980  0.980  0.997  0.997  0.997
    eigenvectors:
  0.250  0.750  0.000  0.000  0.000
  0.000  0.000  0.714  0.000  0.286
  0.000  0.000  0.143  0.500  0.357
  0.750  0.250  0.000  0.000  0.000
  0.000  0.000  0.143  0.500  0.357
    occupations:
  0.980  0.000  0.000  0.000  0.000
  0.000  0.997  0.000  0.000  0.000
  0.000  0.000  0.997  0.000  0.000
  0.000  0.000  0.000  0.980  0.000
  0.000  0.000  0.000  0.000  0.997
   spin  2
    eigenvalues: 
  0.384  0.384  0.995  0.995  0.995
    eigenvectors:
  0.250  0.750  0.000  0.000  0.000
  0.000  0.000  0.858  0.000  0.142
  0.000  0.000  0.071  0.500  0.429
  0.750  0.250  0.000  0.000  0.000
  0.000  0.000  0.071  0.500  0.429
    occupations:
  0.384  0.000  0.001  0.000 -0.001
  0.000  0.995  0.000 -0.001  0.000
  0.001  0.000  0.995 -0.001  0.000
  0.000 -0.001 -0.001  0.384  0.000
 -0.001  0.000  0.000  0.000  0.995
atomic mag. moment =     1.198969
atom    5   Tr[ns(na)] (up, down, total) =   3.75332  4.95235  8.70567
   spin  1
    eigenvalues: 
  0.384  0.384  0.995  0.995  0.995
    eigenvectors:
  0.750  0.250  0.000  0.000  0.000
  0.000  0.000  0.693  0.000  0.307
  0.000  0.000  0.154  0.500  0.346
  0.250  0.750  0.000  0.000  0.000
  0.000  0.000  0.154  0.500  0.346
    occupations:
  0.384 -0.001  0.001  0.000 -0.001
 -0.001  0.995  0.000 -0.001  0.000
  0.001  0.000  0.995 -0.001  0.000
  0.000 -0.001 -0.001  0.384  0.000
 -0.001  0.000  0.000  0.000  0.995
   spin  2
    eigenvalues: 
  0.980  0.980  0.997  0.997  0.997
    eigenvectors:
  0.250  0.750  0.000  0.000  0.000
  0.000  0.000  0.926  0.000  0.074
  0.000  0.000  0.037  0.500  0.463
  0.750  0.250  0.000  0.000  0.000
  0.000  0.000  0.037  0.500  0.463
    occupations:
  0.980  0.000  0.000  0.000  0.000
  0.000  0.997  0.000  0.000  0.000
  0.000  0.000  0.997  0.000  0.000
  0.000  0.000  0.000  0.980  0.000
  0.000  0.000  0.000  0.000  0.997
atomic mag. moment =    -1.199028
atom    6   Tr[ns(na)] (up, down, total) =   3.75332  4.95235  8.70567
   spin  1
    eigenvalues: 
  0.384  0.384  0.995  0.995  0.995
    eigenvectors:
  0.750  0.250  0.000  0.000  0.000
  0.000  0.000  0.154  0.500  0.346
  0.000  0.000  0.693  0.000  0.307
  0.250  0.750  0.000  0.000  0.000
  0.000  0.000  0.154  0.500  0.346
    occupations:
  0.384 -0.001  0.001  0.000 -0.001
 -0.001  0.995  0.000 -0.001  0.000
  0.001  0.000  0.995 -0.001  0.000
  0.000 -0.001 -0.001  0.384  0.000
 -0.001  0.000  0.000  0.000  0.995
   spin  2
    eigenvalues: 
  0.980  0.980  0.997  0.997  0.997
    eigenvectors:
  0.250  0.750  0.000  0.000  0.000
  0.000  0.000  0.037  0.500  0.463
  0.000  0.000  0.926  0.000  0.074
  0.750  0.250  0.000  0.000  0.000
  0.000  0.000  0.037  0.500  0.463
    occupations:
  0.980  0.000  0.000  0.000  0.000
  0.000  0.997  0.000  0.000  0.000
  0.000  0.000  0.997  0.000  0.000
  0.000  0.000  0.000  0.980  0.000
  0.000  0.000  0.000  0.000  0.997
atomic mag. moment =    -1.199028
atom    7   Tr[ns(na)] (up, down, total) =   3.75332  4.95235  8.70567
   spin  1
    eigenvalues: 
  0.384  0.384  0.995  0.995  0.995
    eigenvectors:
  0.000  1.000  0.000  0.000  0.000
  0.000  0.000  0.154  0.500  0.346
  0.000  0.000  0.154  0.500  0.346
  1.000  0.000  0.000  0.000  0.000
  0.000  0.000  0.693  0.000  0.307
    occupations:
  0.384 -0.001  0.001  0.000 -0.001
 -0.001  0.995  0.000 -0.001  0.000
  0.001  0.000  0.995 -0.001  0.000
  0.000 -0.001 -0.001  0.384  0.000
 -0.001  0.000  0.000  0.000  0.995
   spin  2
    eigenvalues: 
  0.980  0.980  0.997  0.997  0.997
    eigenvectors:
  1.000  0.000  0.000  0.000  0.000
  0.000  0.000  0.037  0.500  0.463
  0.000  0.000  0.037  0.500  0.463
  0.000  1.000  0.000  0.000  0.000
  0.000  0.000  0.926  0.000  0.074
    occupations:
  0.980  0.000  0.000  0.000  0.000
[...]
    10.6377  10.6539  10.8595  10.8652  10.9515  10.9589  11.2238  11.2331
    11.2391  11.2478  11.2814  11.2924  11.3066  11.3241  11.4184  11.4279
    13.0009  13.0086  13.0326  13.0391  13.0401  13.0471  13.0501  13.0576
    16.4798  16.4825  19.6489  19.6503  19.7124

     occupation numbers 
     0.0469   0.0469   0.0469   0.0469   0.0469   0.0469   0.0469   0.0469
     0.0469   0.0469   0.0469   0.0469   0.0469   0.0469   0.0469   0.0469
     0.0469   0.0469   0.0469   0.0469   0.0469   0.0469   0.0469   0.0469
     0.0469   0.0469   0.0469   0.0469   0.0469   0.0469   0.0469   0.0469
     0.0469   0.0469   0.0469   0.0469   0.0469   0.0469   0.0469   0.0469
     0.0469   0.0469   0.0469   0.0469   0.0469   0.0469   0.0469   0.0469
     0.0469   0.0469   0.0469   0.0469   0.0469   0.0469   0.0469   0.0469
     0.0469   0.0469   0.0469   0.0469   0.0469   0.0469   0.0469   0.0469
     0.0000   0.0000   0.0000   0.0000   0.0000   0.0000   0.0000   0.0000
     0.0000   0.0000   0.0000   0.0000   0.0000

          k = 0.0000 0.5000 0.0000 (  2706 PWs)   bands (ev):

    -7.8529  -6.8142  -6.7576  -6.7564  -6.7549  -6.7549  -6.5767  -6.5705
     4.4769   4.4798   4.4828   4.4930   5.2277   5.5155   5.5156   6.5193
     6.5208   6.5396   6.5728   6.5825   6.6087   6.6135   6.6687   7.0527
     7.0530   7.1537   7.1608   7.4511   7.9646   7.9697   8.6425   8.6514
     8.9405   9.5233   9.6187   9.6196   9.8025   9.9689  10.0485  10.0490
    10.0885  10.1027  10.1766  10.2675  10.2683  10.3871  10.4001  10.5321
    10.5368  10.6031  10.6049  10.6502  10.8927  10.9880  10.9991  11.0308
    11.0466  11.1540  11.2242  11.2769  11.2833  11.3243  11.3404  11.3641
    12.8607  13.0073  13.0321  13.0345  13.5098  13.5545  13.6261  13.6376
    15.2120  18.5643  18.5675  18.5679  18.5683

     occupation numbers 
     0.0938   0.0938   0.0938   0.0938   0.0938   0.0938   0.0938   0.0938
     0.0938   0.0938   0.0938   0.0938   0.0938   0.0938   0.0938   0.0938
     0.0938   0.0938   0.0938   0.0938   0.0938   0.0938   0.0938   0.0938
     0.0938   0.0938   0.0938   0.0938   0.0938   0.0938   0.0938   0.0938
     0.0938   0.0938   0.0938   0.0938   0.0938   0.0938   0.0938   0.0938
     0.0938   0.0938   0.0938   0.0938   0.0938   0.0938   0.0938   0.0938
     0.0938   0.0938   0.0938   0.0938   0.0938   0.0938   0.0938   0.0938
     0.0938   0.0937   0.0937   0.0937   0.0937   0.0937   0.0937   0.0937
     0.0000   0.0000   0.0000   0.0000   0.0000   0.0000   0.0000   0.0000
     0.0000   0.0000   0.0000   0.0000   0.0000

          k = 0.7500-0.2500 0.7500 (  2734 PWs)   bands (ev):

    -7.5039  -7.1735  -6.9707  -6.7750  -6.7733  -6.5997  -6.5640  -6.5583
     4.9525   4.9589   4.9701   5.2983   5.4164   5.4909   5.5108   6.1660
     6.2016   6.2278   6.2571   6.5774   6.5826   6.7339   6.7398   6.8512
     6.8790   6.9111   6.9809   7.3442   7.3664   7.7101   7.7493   8.0032
     9.4434   9.6402   9.8143   9.8852   9.9460   9.9596  10.0281  10.1298
    10.1321  10.1595  10.2011  10.2768  10.3036  10.3132  10.4679  10.5031
    10.7238  10.7272  10.7306  10.7461  10.8631  10.8887  11.0223  11.0622
    11.1526  11.1775  11.2114  11.2413  11.3169  11.3218  11.3402  11.3959
    12.7158  12.7644  12.8202  12.9158  13.2179  13.2460  13.3496  13.4198
    16.6927  17.6005  18.6694  19.3612  19.3633

     occupation numbers 
     0.1875   0.1875   0.1875   0.1875   0.1875   0.1875   0.1875   0.1875
     0.1875   0.1875   0.1875   0.1875   0.1875   0.1875   0.1875   0.1875
     0.1875   0.1875   0.1875   0.1875   0.1875   0.1875   0.1875   0.1875
     0.1875   0.1875   0.1875   0.1875   0.1875   0.1875   0.1875   0.1875
     0.1875   0.1875   0.1875   0.1875   0.1875   0.1875   0.1875   0.1875
     0.1875   0.1875   0.1875   0.1875   0.1875   0.1875   0.1875   0.1875
     0.1875   0.1875   0.1875   0.1875   0.1875   0.1875   0.1875   0.1875
     0.1875   0.1875   0.1875   0.1875   0.1875   0.1875   0.1875   0.1875
     0.0000   0.0000   0.0000   0.0000   0.0000   0.0000   0.0000   0.0000
     0.0000   0.0000   0.0000   0.0000   0.0000

          k = 0.5000 0.0000 0.5000 (  2742 PWs)   bands (ev):

    -7.6414  -7.0190  -7.0185  -6.7257  -6.7246  -6.6078  -6.6045  -6.5519
     4.7590   4.7688   5.0558   5.0628   5.2541   5.2566   5.6938   5.9550
     6.2772   6.2933   6.5187   6.7080   6.7340   6.7383   6.9024   6.9071
     6.9207   7.1461   7.1531   7.1773   7.4330   7.4412   7.6196   8.1134
     9.6473   9.6497   9.7805   9.8379   9.8932   9.8971  10.0326  10.1029
    10.1257  10.2177  10.2189  10.2225  10.2227  10.3485  10.3550  10.5067
    10.7040  10.7371  10.7416  10.8201  10.8854  11.0789  11.0833  11.0988
    11.1850  11.1996  11.2190  11.2284  11.2681  11.3312  11.3889  11.3957
    13.0055  13.0373  13.0456  13.0496  13.0959  13.1315  13.1436  13.2696
    16.0060  18.0581  18.0617  19.3748  19.3807

     occupation numbers 
     0.0938   0.0938   0.0938   0.0938   0.0938   0.0938   0.0938   0.0938
     0.0938   0.0938   0.0938   0.0938   0.0938   0.0938   0.0938   0.0938
     0.0938   0.0938   0.0938   0.0938   0.0938   0.0938   0.0938   0.0938
     0.0938   0.0938   0.0938   0.0938   0.0938   0.0938   0.0938   0.0938
     0.0938   0.0938   0.0938   0.0938   0.0938   0.0938   0.0938   0.0938
     0.0938   0.0938   0.0938   0.0938   0.0938   0.0938   0.0938   0.0938
     0.0938   0.0938   0.0938   0.0938   0.0938   0.0938   0.0938   0.0938
     0.0937   0.0937   0.0937   0.0937   0.0937   0.0937   0.0937   0.0937
     0.0000   0.0000   0.0000   0.0000   0.0000   0.0000   0.0000   0.0000
     0.0000   0.0000   0.0000   0.0000   0.0000

          k = 0.0000-1.0000 0.0000 (  2762 PWs)   bands (ev):

    -7.3146  -7.3124  -6.8228  -6.8193  -6.8177  -6.8175  -6.5222  -6.5149
     5.0054   5.0136   5.0206   5.0207   5.7581   5.7634   6.0885   6.0935
     6.0965   6.1023   6.3918   6.3974   6.6370   6.6447   6.6712   6.6770
     6.7086   6.7137   6.7181   6.7258   8.1393   8.1447   8.1494   8.1559
     9.2302   9.2432   9.9414   9.9436  10.0216  10.0239  10.0298  10.0383
    10.0394  10.0422  10.1593  10.1634  10.3405  10.3438  10.4896  10.4896
    10.5017  10.5123  10.5753  10.5761  10.8802  10.9055  10.9819  10.9983
    11.1189  11.1419  11.2053  11.2204  11.3131  11.3167  11.3294  11.3345
    12.4264  12.4553  12.6951  12.7132  13.4979  13.5109  13.5989  13.6108
    17.6629  17.6682  19.2483  19.2506  19.2535

     occupation numbers 
     0.0469   0.0469   0.0469   0.0469   0.0469   0.0469   0.0469   0.0469
     0.0469   0.0469   0.0469   0.0469   0.0469   0.0469   0.0469   0.0469
     0.0469   0.0469   0.0469   0.0469   0.0469   0.0469   0.0469   0.0469
     0.0469   0.0469   0.0469   0.0469   0.0469   0.0469   0.0469   0.0469
     0.0469   0.0469   0.0469   0.0469   0.0469   0.0469   0.0469   0.0469
     0.0469   0.0469   0.0469   0.0469   0.0469   0.0469   0.0469   0.0469
     0.0469   0.0469   0.0469   0.0469   0.0469   0.0469   0.0469   0.0469
     0.0469   0.0469   0.0469   0.0469   0.0469   0.0469   0.0469   0.0469
     0.0000   0.0000   0.0000   0.0000   0.0000   0.0000   0.0000   0.0000
     0.0000   0.0000   0.0000   0.0000   0.0000

          k =-0.5000-1.0000 0.0000 (  2740 PWs)   bands (ev):

    -7.1576  -7.1534  -7.1531  -7.1516  -6.5851  -6.5850  -6.5803  -6.5770
     5.2715   5.2718   5.2798   5.3198   5.3746   5.5332   5.5333   5.6438
     6.2180   6.2421   6.2481   6.2756   6.6103   6.6123   6.6248   6.7506
     6.8937   7.2533   7.2605   7.4539   7.4665   7.4943   7.4972   7.5445
     9.7022   9.7293   9.7306   9.7968   9.9767  10.0278  10.0287  10.0625
    10.1088  10.2628  10.2797  10.2807  10.3339  10.3360  10.3880  10.4566
    10.6071  10.6526  10.6530  10.6818  10.9304  10.9319  10.9535  10.9741
    11.1596  11.1601  11.1786  11.2642  11.2799  11.2838  11.3509  11.3524
    12.7551  12.8648  12.8825  12.9890  13.1350  13.1768  13.1916  13.2307
    18.0142  18.0332  18.0356  18.0576  20.8559

     occupation numbers 
     0.0938   0.0938   0.0938   0.0938   0.0938   0.0938   0.0938   0.0938
     0.0938   0.0938   0.0938   0.0938   0.0938   0.0938   0.0938   0.0938
     0.0938   0.0938   0.0938   0.0938   0.0938   0.0938   0.0938   0.0938
     0.0938   0.0938   0.0938   0.0938   0.0938   0.0938   0.0938   0.0938
     0.0938   0.0938   0.0938   0.0938   0.0938   0.0938   0.0938   0.0938
     0.0938   0.0938   0.0938   0.0938   0.0938   0.0938   0.0938   0.0938
     0.0938   0.0938   0.0938   0.0938   0.0938   0.0938   0.0938   0.0938
     0.0937   0.0937   0.0937   0.0937   0.0937   0.0937   0.0937   0.0937
     0.0000   0.0000   0.0000   0.0000   0.0000   0.0000   0.0000   0.0000
     0.0000   0.0000   0.0000   0.0000   0.0000

          k =-0.2500 0.2500 0.2500 (  2743 PWs)   bands (ev):

    -7.9061  -6.9301  -6.6859  -6.6856  -6.6856  -6.6422  -6.6422  -6.6351
     4.3339   4.3339   4.3443   4.6007   5.3384   5.3384   5.3392   6.4685
     6.4685   6.4706   6.6121   6.6121   6.6159   6.6873   6.6873   7.2021
     7.2021   7.2067   7.6959   7.6959   7.6997   7.9660   8.4413   8.4413
     9.2520   9.2520   9.2523   9.6110   9.6110   9.9942  10.0581  10.0581
    10.0590  10.2614  10.2664  10.2664  10.5920  10.5945  10.5945  10.6102
    10.6102  10.7146  10.7146  10.7176  10.8985  10.8985  10.9288  10.9288
    10.9296  11.0177  11.2360  11.2360  11.2507  11.3755  11.3821  11.3821
    13.3110  13.3110  13.3349  13.3349  13.3439  13.3479  13.3479  13.3516
    14.7658  17.5945  18.6736  18.6757  18.6757

     occupation numbers 
     0.0313   0.0313   0.0313   0.0313   0.0313   0.0313   0.0313   0.0313
     0.0313   0.0313   0.0313   0.0313   0.0313   0.0313   0.0313   0.0313
     0.0313   0.0313   0.0313   0.0313   0.0313   0.0313   0.0313   0.0313
     0.0313   0.0313   0.0313   0.0313   0.0313   0.0313   0.0313   0.0313
     0.0313   0.0313   0.0313   0.0313   0.0313   0.0313   0.0313   0.0313
     0.0313   0.0313   0.0313   0.0313   0.0313   0.0313   0.0313   0.0313
     0.0313   0.0313   0.0313   0.0313   0.0313   0.0313   0.0313   0.0313
     0.0313   0.0313   0.0312   0.0312   0.0312   0.0312   0.0312   0.0312
     0.0000   0.0000   0.0000   0.0000   0.0000   0.0000   0.0000   0.0000
     0.0000   0.0000   0.0000   0.0000   0.0000

          k = 0.5000-0.5000-0.5000 (  2764 PWs)   bands (ev):

    -7.4536  -7.4442  -6.6743  -6.6733  -6.6733  -6.6616  -6.6616  -6.6539
     5.0059   5.0059   5.0086   5.0979   5.0979   5.1089   6.0737   6.1073
     6.2543   6.2559   6.2559   6.6747   6.6747   6.6808   6.7440   6.7452
     6.7452   6.9740   6.9740   7.4302   7.4302   7.4409   7.8489   7.8489
     9.4850   9.4853   9.4853   9.6681   9.6681  10.1110  10.1149  10.1150
    10.1150  10.4222  10.4292  10.4292  10.5011  10.5011  10.5011  10.7075
    10.7075  10.8370  10.8383  10.8383  10.8538  11.0507  11.0519  11.0519
    11.2243  11.2243  11.2390  11.2950  11.2950  11.3830  11.3900  11.3900
    13.0086  13.0086  13.0336  13.0442  13.0442  13.0582  13.0582  13.0655
    16.4068  16.5598  19.6281  19.6298  19.6298

     occupation numbers 
     0.0156   0.0156   0.0156   0.0156   0.0156   0.0156   0.0156   0.0156
     0.0156   0.0156   0.0156   0.0156   0.0156   0.0156   0.0156   0.0156
     0.0156   0.0156   0.0156   0.0156   0.0156   0.0156   0.0156   0.0156
     0.0156   0.0156   0.0156   0.0156   0.0156   0.0156   0.0156   0.0156
     0.0156   0.0156   0.0156   0.0156   0.0156   0.0156   0.0156   0.0156
     0.0156   0.0156   0.0156   0.0156   0.0156   0.0156   0.0156   0.0156
     0.0156   0.0156   0.0156   0.0156   0.0156   0.0156   0.0156   0.0156
     0.0156   0.0156   0.0156   0.0156   0.0156   0.0156   0.0156   0.0156
     0.0000   0.0000   0.0000   0.0000   0.0000   0.0000   0.0000   0.0000
     0.0000   0.0000   0.0000   0.0000   0.0000

          k =-0.7500 0.7500-0.2500 (  2734 PWs)   bands (ev):

    -7.5038  -7.1736  -6.9708  -6.7749  -6.7731  -6.5998  -6.5641  -6.5582
     4.9573   4.9658   4.9681   5.2381   5.4884   5.4930   5.4993   6.1132
     6.2188   6.2235   6.3364   6.5569   6.5617   6.6519   6.8072   6.8137
     6.8207   7.0277   7.0314   7.1489   7.4904   7.7343   7.7621   7.9888
     9.3708   9.5484   9.9341   9.9366  10.0101  10.0140  10.0336  10.0357
    10.0474  10.1690  10.2051  10.2062  10.3864  10.4333  10.4875  10.4875
    10.6455  10.6892  10.6905  10.7031  10.8843  10.9362  11.0736  11.0864
    11.1895  11.2069  11.2221  11.2506  11.2652  11.2684  11.3271  11.3406
    12.7178  12.7825  12.8600  12.8750  13.2391  13.3168  13.3357  13.3450
    16.6922  17.6016  18.6714  19.3591  19.3599

     occupation numbers 
     0.0938   0.0938   0.0938   0.0938   0.0938   0.0938   0.0938   0.0938
     0.0938   0.0938   0.0938   0.0938   0.0938   0.0938   0.0938   0.0938
     0.0938   0.0938   0.0938   0.0938   0.0938   0.0938   0.0938   0.0938
     0.0938   0.0938   0.0938   0.0938   0.0938   0.0938   0.0938   0.0938
     0.0938   0.0938   0.0938   0.0938   0.0938   0.0938   0.0938   0.0938
     0.0938   0.0938   0.0938   0.0938   0.0938   0.0938   0.0938   0.0938
     0.0938   0.0938   0.0938   0.0938   0.0938   0.0938   0.0938   0.0938
     0.0937   0.0937   0.0937   0.0937   0.0937   0.0937   0.0937   0.0937
     0.0000   0.0000   0.0000   0.0000   0.0000   0.0000   0.0000   0.0000
     0.0000   0.0000   0.0000   0.0000   0.0000

          k = 0.7500-0.7500-0.2500 (  2734 PWs)   bands (ev):

    -7.5040  -7.1737  -6.9707  -6.7750  -6.7732  -6.5996  -6.5641  -6.5581
     4.9520   4.9650   4.9663   5.2776   5.4295   5.4885   5.4941   6.2136
     6.2185   6.2224   6.2536   6.6444   6.6570   6.6600   6.6819   6.6887
     6.8199   7.0666   7.0705   7.2579   7.3704   7.7432   7.7508   8.0392
     9.3441   9.5350   9.7534   9.7535   9.7767  10.0520  10.0886  10.0889
    10.2736  10.2798  10.4092  10.4115  10.4314  10.5398  10.5411  10.5528
    10.5577  10.6388  10.6415  10.6432  10.8281  10.8651  10.8727  10.9448
    11.0580  11.2291  11.2576  11.2861  11.2892  11.3422  11.3494  11.4088
    12.6745  12.8165  12.8649  12.8779  13.2641  13.3137  13.3314  13.3363
    16.6920  17.6033  18.6690  19.3584  19.3590

     occupation numbers 
     0.0938   0.0938   0.0938   0.0938   0.0938   0.0938   0.0938   0.0938
     0.0938   0.0938   0.0938   0.0938   0.0938   0.0938   0.0938   0.0938
     0.0938   0.0938   0.0938   0.0938   0.0938   0.0938   0.0938   0.0938
     0.0938   0.0938   0.0938   0.0938   0.0938   0.0938   0.0938   0.0938
     0.0938   0.0938   0.0938   0.0938   0.0938   0.0938   0.0938   0.0938
     0.0938   0.0938   0.0938   0.0938   0.0938   0.0938   0.0938   0.0938
     0.0938   0.0938   0.0938   0.0938   0.0938   0.0938   0.0938   0.0938
     0.0938   0.0937   0.0937   0.0937   0.0937   0.0937   0.0937   0.0937
     0.0000   0.0000   0.0000   0.0000   0.0000   0.0000   0.0000   0.0000
     0.0000   0.0000   0.0000   0.0000   0.0000

          k =-0.5000 0.5000 0.0000 (  2742 PWs)   bands (ev):

    -7.6415  -7.0191  -7.0186  -6.7255  -6.7249  -6.6078  -6.6040  -6.5519
     4.7578   4.7658   5.0661   5.0736   5.2354   5.2362   5.6952   5.9587
     6.3054   6.3077   6.5788   6.6635   6.6690   6.7834   6.8446   6.9143
     7.0029   7.1480   7.1558   7.1912   7.1950   7.4727   7.8192   8.1113
     9.5502   9.6012   9.6278   9.6289   9.7657  10.0658  10.0673  10.1239
    10.2288  10.2361  10.2990  10.3721  10.4386  10.5437  10.5485  10.5510
    10.6171  10.6553  10.6581  10.7243  10.7554  10.8106  11.0350  11.0397
    11.0885  11.2507  11.2598  11.3250  11.3516  11.3571  11.3748  11.3987
    13.0058  13.0390  13.0434  13.0466  13.0490  13.1826  13.1991  13.2238
    16.0072  18.0579  18.0622  19.3703  19.3755

     occupation numbers 
     0.0938   0.0938   0.0938   0.0938   0.0938   0.0938   0.0938   0.0938
     0.0938   0.0938   0.0938   0.0938   0.0938   0.0938   0.0938   0.0938
     0.0938   0.0938   0.0938   0.0938   0.0938   0.0938   0.0938   0.0938
     0.0938   0.0938   0.0938   0.0938   0.0938   0.0938   0.0938   0.0938
     0.0938   0.0938   0.0938   0.0938   0.0938   0.0938   0.0938   0.0938
     0.0938   0.0938   0.0938   0.0938   0.0938   0.0938   0.0938   0.0938
     0.0938   0.0938   0.0938   0.0938   0.0938   0.0938   0.0938   0.0938
     0.0938   0.0937   0.0937   0.0937   0.0937   0.0937   0.0937   0.0937
     0.0000   0.0000   0.0000   0.0000   0.0000   0.0000   0.0000   0.0000
     0.0000   0.0000   0.0000   0.0000   0.0000

     the Fermi energy is    11.9432 ev

!    total energy              =    -942.11217537 Ry
     Harris-Foulkes estimate   =    -942.11217535 Ry
     estimated scf accuracy    <          5.2E-09 Ry

     The total energy is the sum of the following terms:

     one-electron contribution =     -56.34272793 Ry
     hartree contribution      =     175.72574201 Ry
     xc contribution           =    -297.54161693 Ry
     ewald contribution        =    -763.85740583 Ry
     Hubbard energy            =      -0.09616668 Ry
     smearing contrib. (-TS)   =       0.00000000 Ry

     total magnetization       =     0.00 Bohr mag/cell
     absolute magnetization    =    12.27 Bohr mag/cell

     convergence has been achieved in   8 iterations

     init_run     :     10.84s CPU     11.05s WALL (       1 calls)
     electrons    :    384.42s CPU    386.31s WALL (       1 calls)

     Called by init_run:
     wfcinit      :      0.00s CPU      0.00s WALL (       1 calls)
     potinit      :      0.97s CPU      1.01s WALL (       1 calls)

     Called by electrons:
     c_bands      :    281.34s CPU    282.08s WALL (       8 calls)
     sum_band     :     69.65s CPU     69.97s WALL (       8 calls)
     v_of_rho     :      8.00s CPU      8.03s WALL (       9 calls)
     v_h          :      0.15s CPU      0.15s WALL (       9 calls)
     v_xc         :      7.85s CPU      7.88s WALL (       9 calls)
     newd         :     27.97s CPU     28.00s WALL (       9 calls)
     mix_rho      :      0.50s CPU      0.51s WALL (       8 calls)

     Called by c_bands:
     init_us_2    :      2.13s CPU      2.14s WALL (     416 calls)
     cegterg      :    272.89s CPU    273.39s WALL (     208 calls)

     Called by sum_band:
     sum_band:bec :      0.47s CPU      0.47s WALL (     208 calls)
     addusdens    :     26.92s CPU     26.93s WALL (       8 calls)

     Called by *egterg:
     h_psi        :    179.12s CPU    179.53s WALL (     820 calls)
     s_psi        :     16.79s CPU     16.80s WALL (     820 calls)
     g_psi        :      0.93s CPU      0.92s WALL (     612 calls)
     cdiaghg      :     30.93s CPU     30.96s WALL (     794 calls)
     cegterg:over :     17.12s CPU     17.14s WALL (     612 calls)
     cegterg:upda :     11.11s CPU     11.12s WALL (     612 calls)
     cegterg:last :      8.01s CPU      8.03s WALL (     230 calls)

     Called by h_psi:
     h_psi:vloc   :    127.63s CPU    128.00s WALL (     820 calls)
     h_psi:vnl    :     33.46s CPU     33.48s WALL (     820 calls)
     add_vuspsi   :     16.64s CPU     16.67s WALL (     820 calls)
     vhpsi        :     17.62s CPU     17.65s WALL (     820 calls)

     General routines
     calbec       :     32.57s CPU     32.61s WALL (    2056 calls)
     fft          :      3.69s CPU      3.77s WALL (     267 calls)
     ffts         :      0.09s CPU      0.13s WALL (      34 calls)
     fftw         :    125.56s CPU    125.76s WALL (   93198 calls)
     interpolate  :      0.59s CPU      0.69s WALL (      34 calls)
     davcio       :      0.00s CPU      0.51s WALL (     442 calls)

     Parallel routines
     fft_scatter  :     29.74s CPU     29.92s WALL (   93499 calls)
     Hubbard U routines
     new_ns       :      2.86s CPU      3.07s WALL (       8 calls)
     vhpsi        :     17.62s CPU     17.65s WALL (     820 calls)

     PWSCF        :  6m35.79s CPU     6m38.02s WALL


   This run was terminated on:  15:17:40  13Nov2012            

=------------------------------------------------------------------------------=
