   JOB DONE.
=------------------------------------------------------------------------------=

     Program PWSCF v.5.0.1 starts on 13Nov2012 at 15:34: 4 

     This program is part of the open-source Quantum ESPRESSO suite
     for quantum simulation of materials; please cite
         "P. Giannozzi et al., J. Phys.:Condens. Matter 21 395502 (2009);
          URL http://www.quantum-espresso.org", 
     in publications or presentations arising from this work. More details at
     http://www.quantum-espresso.org/quote.php

     Parallel version (MPI), running on     2 processors
     R & G space division:  proc/pool =    2

     Current dimensions of program PWSCF are:
     Max number of different atomic species (ntypx) = 10
     Max number of k-points (npk) =  40000
     Max angular momentum in pseudopotentials (lmaxx) =  3
     Reading input from NiO_U0_a5.in
               file Ni.pbe-nd-rrkjus.UPF: wavefunction(s)  4S renormalized
               file Ni.pbe-nd-rrkjus.UPF: wavefunction(s)  4S renormalized
               file Ni.pbe-nd-rrkjus.UPF: wavefunction(s)  4S renormalized
               file O.pbe-rrkjus.UPF: wavefunction(s)  2S renormalized

     Subspace diagonalization in iterative solution of the eigenvalue problem:
     a serial algorithm will be used


     Parallelization info
     --------------------
     sticks:   dense  smooth     PW     G-vecs:    dense   smooth      PW
     Min        1293     519    150                43273    11032    1738
     Max        1294     520    151                43274    11043    1741
     Sum        2587    1039    301                86547    22075    3479


     Title: 
     GGA + U, U = 1D-40, alpha = 0.050                                          


     bravais-lattice index     =            2
     lattice parameter (alat)  =      15.8000  a.u.
     unit-cell volume          =     986.0780 (a.u.)^3
     number of atoms/cell      =           16
     number of atomic types    =            4
     number of electrons       =       128.00
     number of Kohn-Sham states=           77
     kinetic-energy cutoff     =      30.0000  Ry
     charge density cutoff     =     300.0000  Ry
     convergence threshold     =      1.0E-08
     mixing beta               =       0.3000
     number of iterations used =            8  plain     mixing
     Exchange-correlation      =  SLA  PW   PBE  PBE ( 1 4 3 4 0)
     EXX-fraction              =        0.00

     celldm(1)=  15.800000  celldm(2)=   0.000000  celldm(3)=   0.000000
     celldm(4)=   0.000000  celldm(5)=   0.000000  celldm(6)=   0.000000

     crystal axes: (cart. coord. in units of alat)
               a(1) = (  -0.500000   0.000000   0.500000 )  
               a(2) = (   0.000000   0.500000   0.500000 )  
               a(3) = (  -0.500000   0.500000   0.000000 )  

     reciprocal axes: (cart. coord. in units 2 pi/alat)
               b(1) = ( -1.000000 -1.000000  1.000000 )  
               b(2) = (  1.000000  1.000000  1.000000 )  
               b(3) = ( -1.000000  1.000000 -1.000000 )  


     PseudoPot. # 1 for Ni read from file:
     /home/mcurnan/dft-course/Project1/example_NiO/Ni.pbe-nd-rrkjus.UPF
     MD5 check sum: 8081f0a005c9a5470caab1a58e82ecb2
     Pseudo is Ultrasoft + core correction, Zval = 10.0
     Generated by new atomic code, or converted to UPF format
     Using radial grid of 1203 points,  6 beta functions with: 
                l(1) =   0
                l(2) =   0
                l(3) =   1
                l(4) =   1
                l(5) =   2
                l(6) =   2
     Q(r) pseudized with 0 coefficients 


     PseudoPot. # 2 for Ni read from file:
     /home/mcurnan/dft-course/Project1/example_NiO/Ni.pbe-nd-rrkjus.UPF
     MD5 check sum: 8081f0a005c9a5470caab1a58e82ecb2
     Pseudo is Ultrasoft + core correction, Zval = 10.0
     Generated by new atomic code, or converted to UPF format
     Using radial grid of 1203 points,  6 beta functions with: 
                l(1) =   0
                l(2) =   0
                l(3) =   1
                l(4) =   1
                l(5) =   2
                l(6) =   2
     Q(r) pseudized with 0 coefficients 


     PseudoPot. # 3 for Ni read from file:
     /home/mcurnan/dft-course/Project1/example_NiO/Ni.pbe-nd-rrkjus.UPF
     MD5 check sum: 8081f0a005c9a5470caab1a58e82ecb2
     Pseudo is Ultrasoft + core correction, Zval = 10.0
     Generated by new atomic code, or converted to UPF format
     Using radial grid of 1203 points,  6 beta functions with: 
                l(1) =   0
                l(2) =   0
                l(3) =   1
                l(4) =   1
                l(5) =   2
                l(6) =   2
     Q(r) pseudized with 0 coefficients 


     PseudoPot. # 4 for O  read from file:
     /home/mcurnan/dft-course/Project1/example_NiO/O.pbe-rrkjus.UPF
     MD5 check sum: 390ba29e75625707450f3bd3f0eb6be9
     Pseudo is Ultrasoft, Zval =  6.0
     Generated by new atomic code, or converted to UPF format
     Using radial grid of 1269 points,  4 beta functions with: 
                l(1) =   0
                l(2) =   0
                l(3) =   1
                l(4) =   1
     Q(r) pseudized with 0 coefficients 


     atomic species   valence    mass     pseudopotential
        Ni1           10.00     1.00000     Ni( 1.00)
        Ni2           10.00     1.00000     Ni( 1.00)
        Ni3           10.00     1.00000     Ni( 1.00)
        O1             6.00     1.00000     O ( 1.00)

     Starting magnetic structure 
     atomic species   magnetization
        Ni1          0.500
        Ni2          0.500
        Ni3         -0.500
        O1           0.000
 -----
     simplified LDA+U calculation, Hubbard_lmax = 2
     atomic species  L   Hubbard U  Hubbard alpha
        Ni1          2    0.000000    0.050000
        Ni2          2    0.000000    0.000000
        Ni3          2    0.000000    0.000000
        O1           1    0.000000    0.000000
 -----

     12 Sym. Ops., with inversion, found


                                    s                        frac. trans.

      isym =  1     identity                                     

 cryst.   s( 1) = (     1          0          0      )
                  (     0          1          0      )
                  (     0          0          1      )

 cart.    s( 1) = (  1.0000000  0.0000000  0.0000000 )
                  (  0.0000000  1.0000000  0.0000000 )
                  (  0.0000000  0.0000000  1.0000000 )


      isym =  2     180 deg rotation - cart. axis [1,1,0]        

 cryst.   s( 2) = (     0         -1          0      )
                  (    -1          0          0      )
                  (     0          0         -1      )

 cart.    s( 2) = (  0.0000000  1.0000000  0.0000000 )
                  (  1.0000000  0.0000000  0.0000000 )
                  (  0.0000000  0.0000000 -1.0000000 )


      isym =  3     180 deg rotation - cart. axis [1,0,1]        

 cryst.   s( 3) = (    -1          0          0      )
                  (     0          0         -1      )
                  (     0         -1          0      )

 cart.    s( 3) = (  0.0000000  0.0000000  1.0000000 )
                  (  0.0000000 -1.0000000  0.0000000 )
                  (  1.0000000  0.0000000  0.0000000 )


      isym =  4     180 deg rotation - cart. axis [0,1,-1]       

 cryst.   s( 4) = (     0          0         -1      )
                  (     0         -1          0      )
                  (    -1          0          0      )

 cart.    s( 4) = ( -1.0000000  0.0000000  0.0000000 )
                  (  0.0000000  0.0000000 -1.0000000 )
                  (  0.0000000 -1.0000000  0.0000000 )


      isym =  5     120 deg rotation - cart. axis [-1,1,1]       

 cryst.   s( 5) = (     0          1          0      )
                  (     0          0          1      )
                  (     1          0          0      )

 cart.    s( 5) = (  0.0000000 -1.0000000  0.0000000 )
                  (  0.0000000  0.0000000  1.0000000 )
                  ( -1.0000000  0.0000000  0.0000000 )


      isym =  6     120 deg rotation - cart. axis [1,-1,-1]      

 cryst.   s( 6) = (     0          0          1      )
                  (     1          0          0      )
                  (     0          1          0      )

 cart.    s( 6) = (  0.0000000  0.0000000 -1.0000000 )
                  ( -1.0000000  0.0000000  0.0000000 )
                  (  0.0000000  1.0000000  0.0000000 )


      isym =  7     inversion                                    

 cryst.   s( 7) = (    -1          0          0      )
                  (     0         -1          0      )
                  (     0          0         -1      )

 cart.    s( 7) = ( -1.0000000  0.0000000  0.0000000 )
                  (  0.0000000 -1.0000000  0.0000000 )
                  (  0.0000000  0.0000000 -1.0000000 )


      isym =  8     inv. 180 deg rotation - cart. axis [1,1,0]   

 cryst.   s( 8) = (     0          1          0      )
                  (     1          0          0      )
                  (     0          0          1      )

 cart.    s( 8) = (  0.0000000 -1.0000000  0.0000000 )
                  ( -1.0000000  0.0000000  0.0000000 )
                  (  0.0000000  0.0000000  1.0000000 )


      isym =  9     inv. 180 deg rotation - cart. axis [1,0,1]   

 cryst.   s( 9) = (     1          0          0      )
                  (     0          0          1      )
                  (     0          1          0      )

 cart.    s( 9) = (  0.0000000  0.0000000 -1.0000000 )
                  (  0.0000000  1.0000000  0.0000000 )
                  ( -1.0000000  0.0000000  0.0000000 )


      isym = 10     inv. 180 deg rotation - cart. axis [0,1,-1]  

 cryst.   s(10) = (     0          0          1      )
                  (     0          1          0      )
                  (     1          0          0      )

 cart.    s(10) = (  1.0000000  0.0000000  0.0000000 )
                  (  0.0000000  0.0000000  1.0000000 )
                  (  0.0000000  1.0000000  0.0000000 )


      isym = 11     inv. 120 deg rotation - cart. axis [-1,1,1]  

 cryst.   s(11) = (     0         -1          0      )
                  (     0          0         -1      )
                  (    -1          0          0      )

 cart.    s(11) = (  0.0000000  1.0000000  0.0000000 )
                  (  0.0000000  0.0000000 -1.0000000 )
                  (  1.0000000  0.0000000  0.0000000 )


      isym = 12     inv. 120 deg rotation - cart. axis [1,-1,-1] 

 cryst.   s(12) = (     0          0         -1      )
                  (    -1          0          0      )
                  (     0         -1          0      )

 cart.    s(12) = (  0.0000000  0.0000000  1.0000000 )
                  (  1.0000000  0.0000000  0.0000000 )
                  (  0.0000000 -1.0000000  0.0000000 )


     point group D_3d (-3m) 
     there are  6 classes
     the character table:

       E     2C3   3C2'  i     2S6   3s_d 
A_1g   1.00  1.00  1.00  1.00  1.00  1.00
A_2g   1.00  1.00 -1.00  1.00  1.00 -1.00
E_g    2.00 -1.00  0.00  2.00 -1.00  0.00
A_1u   1.00  1.00  1.00 -1.00 -1.00 -1.00
A_2u   1.00  1.00 -1.00 -1.00 -1.00  1.00
E_u    2.00 -1.00  0.00 -2.00  1.00  0.00

     the symmetry operations in each class:
     E        1
     3C2'     2    4    3
     2C3      5    6
     i        7
     3s_d     8   10    9
     2S6     11   12

   Cartesian axes

     site n.     atom                  positions (alat units)
         1           Ni1 tau(   1) = (   0.0000000   0.0000000   0.0000000  )
         2           Ni2 tau(   2) = (  -0.2500000   0.2500000   0.5000000  )
         3           Ni2 tau(   3) = (  -0.5000000   0.2500000   0.2500000  )
         4           Ni2 tau(   4) = (  -0.2500000   0.5000000   0.2500000  )
         5           Ni3 tau(   5) = (  -0.2500000   0.0000000   0.2500000  )
         6           Ni3 tau(   6) = (   0.0000000   0.2500000   0.2500000  )
         7           Ni3 tau(   7) = (  -0.2500000   0.2500000   0.0000000  )
         8           Ni3 tau(   8) = (  -0.5000000   0.5000000   0.5000000  )
         9           O1  tau(   9) = (   0.0000000   0.2500000   0.0000000  )
        10           O1  tau(  10) = (  -0.2500000   0.2500000   0.2500000  )
        11           O1  tau(  11) = (  -0.2500000   0.5000000   0.0000000  )
        12           O1  tau(  12) = (   0.0000000   0.5000000   0.2500000  )
        13           O1  tau(  13) = (  -0.2500000   0.5000000   0.5000000  )
        14           O1  tau(  14) = (  -0.5000000   0.5000000   0.2500000  )
        15           O1  tau(  15) = (  -0.2500000   0.7500000   0.2500000  )
        16           O1  tau(  16) = (  -0.5000000   0.7500000   0.5000000  )

   Crystallographic axes

     site n.     atom                  positions (cryst. coord.)
         1           Ni1 tau(   1) = (  0.0000000  0.0000000  0.0000000  )
         2           Ni2 tau(   2) = (  0.5000000  0.5000000  0.0000000  )
         3           Ni2 tau(   3) = (  0.5000000  0.0000000  0.5000000  )
         4           Ni2 tau(   4) = (  0.0000000  0.5000000  0.5000000  )
         5           Ni3 tau(   5) = (  0.5000000  0.0000000  0.0000000  )
         6           Ni3 tau(   6) = (  0.0000000  0.5000000  0.0000000  )
         7           Ni3 tau(   7) = (  0.0000000  0.0000000  0.5000000  )
         8           Ni3 tau(   8) = (  0.5000000  0.5000000  0.5000000  )
         9           O1  tau(   9) = ( -0.2500000  0.2500000  0.2500000  )
        10           O1  tau(  10) = (  0.2500000  0.2500000  0.2500000  )
        11           O1  tau(  11) = ( -0.2500000  0.2500000  0.7500000  )
        12           O1  tau(  12) = ( -0.2500000  0.7500000  0.2500000  )
        13           O1  tau(  13) = (  0.2500000  0.7500000  0.2500000  )
        14           O1  tau(  14) = (  0.2500000  0.2500000  0.7500000  )
        15           O1  tau(  15) = ( -0.2500000  0.7500000  0.7500000  )
        16           O1  tau(  16) = (  0.2500000  0.7500000  0.7500000  )

     number of k points=    26  gaussian smearing, width (Ry)=  0.0100
                       cart. coord. in units 2pi/alat
        k(    1) = (   0.0000000   0.0000000   0.0000000), wk =   0.0156250
        k(    2) = (  -0.2500000   0.2500000  -0.2500000), wk =   0.0937500
        k(    3) = (   0.5000000  -0.5000000   0.5000000), wk =   0.0468750
        k(    4) = (   0.0000000   0.5000000   0.0000000), wk =   0.0937500
        k(    5) = (   0.7500000  -0.2500000   0.7500000), wk =   0.1875000
        k(    6) = (   0.5000000   0.0000000   0.5000000), wk =   0.0937500
        k(    7) = (   0.0000000  -1.0000000   0.0000000), wk =   0.0468750
        k(    8) = (  -0.5000000  -1.0000000   0.0000000), wk =   0.0937500
        k(    9) = (  -0.2500000   0.2500000   0.2500000), wk =   0.0312500
        k(   10) = (   0.5000000  -0.5000000  -0.5000000), wk =   0.0156250
        k(   11) = (  -0.7500000   0.7500000  -0.2500000), wk =   0.0937500
        k(   12) = (   0.7500000  -0.7500000  -0.2500000), wk =   0.0937500
        k(   13) = (  -0.5000000   0.5000000   0.0000000), wk =   0.0937500
        k(   14) = (   0.0000000   0.0000000   0.0000000), wk =   0.0156250
        k(   15) = (  -0.2500000   0.2500000  -0.2500000), wk =   0.0937500
        k(   16) = (   0.5000000  -0.5000000   0.5000000), wk =   0.0468750
        k(   17) = (   0.0000000   0.5000000   0.0000000), wk =   0.0937500
        k(   18) = (   0.7500000  -0.2500000   0.7500000), wk =   0.1875000
        k(   19) = (   0.5000000   0.0000000   0.5000000), wk =   0.0937500
        k(   20) = (   0.0000000  -1.0000000   0.0000000), wk =   0.0468750
        k(   21) = (  -0.5000000  -1.0000000   0.0000000), wk =   0.0937500
        k(   22) = (  -0.2500000   0.2500000   0.2500000), wk =   0.0312500
        k(   23) = (   0.5000000  -0.5000000  -0.5000000), wk =   0.0156250
        k(   24) = (  -0.7500000   0.7500000  -0.2500000), wk =   0.0937500
        k(   25) = (   0.7500000  -0.7500000  -0.2500000), wk =   0.0937500
        k(   26) = (  -0.5000000   0.5000000   0.0000000), wk =   0.0937500

                       cryst. coord.
        k(    1) = (   0.0000000   0.0000000   0.0000000), wk =   0.0156250
        k(    2) = (   0.0000000   0.0000000   0.2500000), wk =   0.0937500
        k(    3) = (   0.0000000   0.0000000  -0.5000000), wk =   0.0468750
        k(    4) = (   0.0000000   0.2500000   0.2500000), wk =   0.0937500
        k(    5) = (   0.0000000   0.2500000  -0.5000000), wk =   0.1875000
        k(    6) = (   0.0000000   0.2500000  -0.2500000), wk =   0.0937500
        k(    7) = (   0.0000000  -0.5000000  -0.5000000), wk =   0.0468750
        k(    8) = (   0.2500000  -0.5000000  -0.2500000), wk =   0.0937500
        k(    9) = (   0.2500000   0.2500000   0.2500000), wk =   0.0312500
        k(   10) = (  -0.5000000  -0.5000000  -0.5000000), wk =   0.0156250
        k(   11) = (   0.2500000   0.2500000   0.7500000), wk =   0.0937500
        k(   12) = (  -0.5000000  -0.5000000  -0.7500000), wk =   0.0937500
        k(   13) = (   0.2500000   0.2500000   0.5000000), wk =   0.0937500
        k(   14) = (   0.0000000   0.0000000   0.0000000), wk =   0.0156250
        k(   15) = (   0.0000000   0.0000000   0.2500000), wk =   0.0937500
        k(   16) = (   0.0000000   0.0000000  -0.5000000), wk =   0.0468750
        k(   17) = (   0.0000000   0.2500000   0.2500000), wk =   0.0937500
        k(   18) = (   0.0000000   0.2500000  -0.5000000), wk =   0.1875000
        k(   19) = (   0.0000000   0.2500000  -0.2500000), wk =   0.0937500
        k(   20) = (   0.0000000  -0.5000000  -0.5000000), wk =   0.0468750
        k(   21) = (   0.2500000  -0.5000000  -0.2500000), wk =   0.0937500
        k(   22) = (   0.2500000   0.2500000   0.2500000), wk =   0.0312500
        k(   23) = (  -0.5000000  -0.5000000  -0.5000000), wk =   0.0156250
        k(   24) = (   0.2500000   0.2500000   0.7500000), wk =   0.0937500
        k(   25) = (  -0.5000000  -0.5000000  -0.7500000), wk =   0.0937500
        k(   26) = (   0.2500000   0.2500000   0.5000000), wk =   0.0937500

     Dense  grid:    86547 G-vectors     FFT dimensions: (  64,  64,  64)

     Smooth grid:    22075 G-vectors     FFT dimensions: (  40,  40,  40)

     Largest allocated arrays     est. size (Mb)     dimensions
        Kohn-Sham Wavefunctions         1.64 Mb     (   1395,   77)
        Atomic wavefunctions            1.70 Mb     (   1395,   80)
        NL pseudopotentials             4.43 Mb     (   1395,  208)
        Each V/rho on FFT grid          4.00 Mb     ( 131072,   2)
        Each G-vector array             0.33 Mb     (  43274)
        G-vector shells                 0.00 Mb     (    635)
     Largest temporary arrays     est. size (Mb)     dimensions
        Auxiliary wavefunctions         6.56 Mb     (   1395,  308)
        Each subspace H/S matrix        1.45 Mb     ( 308, 308)
        Each <psi_i|beta_j> matrix      0.24 Mb     (    208,   77)
        Arrays for rho mixing          16.00 Mb     ( 131072,   8)

     Check: negative/imaginary core charge=   -0.000047    0.000000

     The initial density is read from file :
     /home/mcurnan/dft-course/Project1/example_NiO/0/Ni/alpha/NiO_U0.save/charge-density.dat

 --- in v_hubbard ---
Hubbard energy    0.0320
 -------
     Number of +U iterations with fixed ns =  0
     Starting occupations:
 --- enter write_ns ---
 LDA+U parameters:
U( 1)     =  0.00000000
alpha( 1) =  0.05000000
U( 2)     =  0.00000000
alpha( 2) =  0.00000000
U( 3)     =  0.00000000
alpha( 3) =  0.00000000
U( 4)     =  0.00000000
alpha( 4) =  0.00000000
atom    1   Tr[ns(na)] (up, down, total) =   4.95241  3.75362  8.70602
   spin  1
    eigenvalues: 
  0.980  0.980  0.997  0.997  0.997
    eigenvectors:
  0.027  0.973  0.000  0.000  0.000
  0.000  0.000  0.028  0.639  0.333
  0.000  0.000  0.601  0.065  0.333
  0.973  0.027  0.000  0.000  0.000
  0.000  0.000  0.371  0.296  0.333
    occupations:
  0.980  0.000  0.000  0.000  0.000
  0.000  0.997  0.000  0.000  0.000
  0.000  0.000  0.997  0.000  0.000
  0.000  0.000  0.000  0.980  0.000
  0.000  0.000  0.000  0.000  0.997
   spin  2
    eigenvalues: 
  0.384  0.384  0.995  0.995  0.995
    eigenvectors:
  0.032  0.968  0.000  0.000  0.000
  0.000  0.000  0.042  0.625  0.333
  0.000  0.000  0.619  0.048  0.333
  0.968  0.032  0.000  0.000  0.000
  0.000  0.000  0.339  0.328  0.333
    occupations:
  0.384 -0.001  0.001  0.000 -0.001
 -0.001  0.995  0.000 -0.001  0.000
  0.001  0.000  0.995 -0.001  0.000
  0.000 -0.001 -0.001  0.384  0.000
 -0.001  0.000  0.000  0.000  0.995
atomic mag. moment =     1.198792
atom    2   Tr[ns(na)] (up, down, total) =   4.95241  3.75361  8.70602
   spin  1
    eigenvalues: 
  0.980  0.980  0.997  0.997  0.997
    eigenvectors:
  0.000  1.000  0.000  0.000  0.000
  0.000  0.000  0.167  0.500  0.333
  0.000  0.000  0.167  0.500  0.333
  1.000  0.000  0.000  0.000  0.000
  0.000  0.000  0.667  0.000  0.333
    occupations:
  0.980  0.000  0.000  0.000  0.000
  0.000  0.997  0.000  0.000  0.000
  0.000  0.000  0.997  0.000  0.000
  0.000  0.000  0.000  0.980  0.000
  0.000  0.000  0.000  0.000  0.997
   spin  2
    eigenvalues: 
  0.384  0.384  0.995  0.995  0.995
    eigenvectors:
  1.000  0.000  0.000  0.000  0.000
  0.000  0.000  0.167  0.500  0.333
  0.000  0.000  0.167  0.500  0.333
  0.000  1.000  0.000  0.000  0.000
  0.000  0.000  0.667  0.000  0.333
    occupations:
  0.384 -0.001  0.001  0.000 -0.001
 -0.001  0.995  0.000 -0.001  0.000
  0.001  0.000  0.995 -0.001  0.000
  0.000 -0.001 -0.001  0.384  0.000
 -0.001  0.000  0.000  0.000  0.995
atomic mag. moment =     1.198793
atom    3   Tr[ns(na)] (up, down, total) =   4.95241  3.75361  8.70602
   spin  1
    eigenvalues: 
  0.980  0.980  0.997  0.997  0.997
    eigenvectors:
  0.750  0.250  0.000  0.000  0.000
  0.000  0.000  0.167  0.500  0.333
  0.000  0.000  0.667  0.000  0.333
  0.250  0.750  0.000  0.000  0.000
  0.000  0.000  0.167  0.500  0.333
    occupations:
  0.980  0.000  0.000  0.000  0.000
  0.000  0.997  0.000  0.000  0.000
  0.000  0.000  0.997  0.000  0.000
  0.000  0.000  0.000  0.980  0.000
  0.000  0.000  0.000  0.000  0.997
   spin  2
    eigenvalues: 
  0.384  0.384  0.995  0.995  0.995
    eigenvectors:
  0.250  0.750  0.000  0.000  0.000
  0.000  0.000  0.167  0.500  0.333
  0.000  0.000  0.667  0.000  0.333
  0.750  0.250  0.000  0.000  0.000
  0.000  0.000  0.167  0.500  0.333
    occupations:
  0.384 -0.001  0.001  0.000 -0.001
 -0.001  0.995  0.000 -0.001  0.000
  0.001  0.000  0.995 -0.001  0.000
  0.000 -0.001 -0.001  0.384  0.000
 -0.001  0.000  0.000  0.000  0.995
atomic mag. moment =     1.198793
atom    4   Tr[ns(na)] (up, down, total) =   4.95241  3.75361  8.70602
   spin  1
    eigenvalues: 
  0.980  0.980  0.997  0.997  0.997
    eigenvectors:
  0.750  0.250  0.000  0.000  0.000
  0.000  0.000  0.667  0.000  0.333
  0.000  0.000  0.167  0.500  0.333
  0.250  0.750  0.000  0.000  0.000
  0.000  0.000  0.167  0.500  0.333
    occupations:
  0.980  0.000  0.000  0.000  0.000
  0.000  0.997  0.000  0.000  0.000
  0.000  0.000  0.997  0.000  0.000
  0.000  0.000  0.000  0.980  0.000
  0.000  0.000  0.000  0.000  0.997
   spin  2
    eigenvalues: 
  0.384  0.384  0.995  0.995  0.995
    eigenvectors:
  0.250  0.750  0.000  0.000  0.000
  0.000  0.000  0.667  0.000  0.333
  0.000  0.000  0.167  0.500  0.333
  0.750  0.250  0.000  0.000  0.000
  0.000  0.000  0.167  0.500  0.333
    occupations:
  0.384 -0.001  0.001  0.000 -0.001
 -0.001  0.995  0.000 -0.001  0.000
  0.001  0.000  0.995 -0.001  0.000
  0.000 -0.001 -0.001  0.384  0.000
 -0.001  0.000  0.000  0.000  0.995
atomic mag. moment =     1.198793
atom    5   Tr[ns(na)] (up, down, total) =   3.75362  4.95241  8.70603
   spin  1
    eigenvalues: 
  0.384  0.384  0.995  0.995  0.995
    eigenvectors:
  0.250  0.750  0.000  0.000  0.000
  0.000  0.000  0.667  0.000  0.333
  0.000  0.000  0.167  0.500  0.333
  0.750  0.250  0.000  0.000  0.000
  0.000  0.000  0.167  0.500  0.333
    occupations:
  0.384 -0.001  0.001  0.000 -0.001
 -0.001  0.995  0.000 -0.001  0.000
  0.001  0.000  0.995 -0.001  0.000
  0.000 -0.001 -0.001  0.384  0.000
 -0.001  0.000  0.000  0.000  0.995
   spin  2
    eigenvalues: 
  0.980  0.980  0.997  0.997  0.997
    eigenvectors:
  0.750  0.250  0.000  0.000  0.000
  0.000  0.000  0.667  0.000  0.333
  0.000  0.000  0.167  0.500  0.333
  0.250  0.750  0.000  0.000  0.000
  0.000  0.000  0.167  0.500  0.333
    occupations:
  0.980  0.000  0.000  0.000  0.000
  0.000  0.997  0.000  0.000  0.000
  0.000  0.000  0.997  0.000  0.000
  0.000  0.000  0.000  0.980  0.000
  0.000  0.000  0.000  0.000  0.997
atomic mag. moment =    -1.198790
atom    6   Tr[ns(na)] (up, down, total) =   3.75362  4.95241  8.70603
   spin  1
    eigenvalues: 
  0.384  0.384  0.995  0.995  0.995
    eigenvectors:
  0.250  0.750  0.000  0.000  0.000
  0.000  0.000  0.167  0.500  0.333
  0.000  0.000  0.667  0.000  0.333
  0.750  0.250  0.000  0.000  0.000
  0.000  0.000  0.167  0.500  0.333
    occupations:
  0.384 -0.001  0.001  0.000 -0.001
 -0.001  0.995  0.000 -0.001  0.000
  0.001  0.000  0.995 -0.001  0.000
  0.000 -0.001 -0.001  0.384  0.000
 -0.001  0.000  0.000  0.000  0.995
   spin  2
    eigenvalues: 
  0.980  0.980  0.997  0.997  0.997
    eigenvectors:
  0.750  0.250  0.000  0.000  0.000
  0.000  0.000  0.167  0.500  0.333
  0.000  0.000  0.667  0.000  0.333
  0.250  0.750  0.000  0.000  0.000
  0.000  0.000  0.167  0.500  0.333
    occupations:
  0.980  0.000  0.000  0.000  0.000
  0.000  0.997  0.000  0.000  0.000
  0.000  0.000  0.997  0.000  0.000
  0.000  0.000  0.000  0.980  0.000
  0.000  0.000  0.000  0.000  0.997
atomic mag. moment =    -1.198790
atom    7   Tr[ns(na)] (up, down, total) =   3.75362  4.95241  8.70603
   spin  1
    eigenvalues: 
  0.384  0.384  0.995  0.995  0.995
    eigenvectors:
  1.000  0.000  0.000  0.000  0.000
  0.000  0.000  0.167  0.500  0.333
  0.000  0.000  0.167  0.500  0.333
  0.000  1.000  0.000  0.000  0.000
  0.000  0.000  0.667  0.000  0.333
    occupations:
  0.384 -0.001  0.001  0.000 -0.001
 -0.001  0.995  0.000 -0.001  0.000
  0.001  0.000  0.995 -0.001  0.000
  0.000 -0.001 -0.001  0.384  0.000
 -0.001  0.000  0.000  0.000  0.995
   spin  2
    eigenvalues: 
  0.980  0.980  0.997  0.997  0.997
    eigenvectors:
  0.000  1.000  0.000  0.000  0.000
  0.000  0.000  0.167  0.500  0.333
  0.000  0.000  0.167  0.500  0.333
  1.000  0.000  0.000  0.000  0.000
  0.000  0.000  0.667  0.000  0.333
    occupations:
  0.980  0.000  0.000  0.000  0.000
  0.000  0.997  0.000  0.000  0.000
  0.000  0.000  0.997  0.000  0.000
  0.000  0.000  0.000  0.980  0.000
  0.000  0.000  0.000  0.000  0.997
atomic mag. moment =    -1.198790
atom    8   Tr[ns(na)] (up, down, total) =   3.75362  4.95241  8.70603
   spin  1
    eigenvalues: 
  0.384  0.384  0.995  0.995  0.995
    eigenvectors:
  0.039  0.961  0.000  0.000  0.000
  0.000  0.000  0.026  0.641  0.333
  0.000  0.000  0.599  0.068  0.333
  0.961  0.039  0.000  0.000  0.000
  0.000  0.000  0.375  0.292  0.333
    occupations:
  0.384 -0.001  0.001  0.000 -0.001
 -0.001  0.995  0.000 -0.001  0.000
  0.001  0.000  0.995 -0.001  0.000
  0.000 -0.001 -0.001  0.384  0.000
 -0.001  0.000  0.000  0.000  0.995
   spin  2
    eigenvalues: 
  0.980  0.980  0.997  0.997  0.997
    eigenvectors:
  0.006  0.994  0.000  0.000  0.000
  0.000  0.000  0.033  0.633  0.333
  0.000  0.000  0.609  0.058  0.333
  0.994  0.006  0.000  0.000  0.000
  0.000  0.000  0.358  0.309  0.333
    occupations:
  0.980  0.000  0.000  0.000  0.000
  0.000  0.997  0.000  0.000  0.000
  0.000  0.000  0.997  0.000  0.000
  0.000  0.000  0.000  0.980  0.000
  0.000  0.000  0.000  0.000  0.997
atomic mag. moment =    -1.198787
atom    9   Tr[ns(na)] (up, down, total) =   2.81114  2.81114  5.62228
   spin  1
    eigenvalues: 
  0.937  0.937  0.938
    eigenvectors:
  0.167  0.500  0.333
  0.167  0.500  0.333
  0.667  0.000  0.333
    occupations:
  0.937  0.000  0.000
  0.000  0.937  0.000
  0.000  0.000  0.937
   spin  2
    eigenvalues: 
  0.937  0.937  0.938
    eigenvectors:
  0.500  0.167  0.333
  0.500  0.167  0.333
  0.000  0.667  0.333
    occupations:
  0.937  0.000  0.000
  0.000  0.937  0.000
  0.000  0.000  0.937
atomic mag. moment =    -0.000001
atom   10   Tr[ns(na)] (up, down, total) =   2.81114  2.81114  5.62229
   spin  1
    eigenvalues: 
  0.937  0.937  0.938
    eigenvectors:
  0.060  0.607  0.333
  0.306  0.361  0.333
  0.635  0.032  0.333
    occupations:
  0.937  0.000  0.000
  0.000  0.937  0.000
  0.000  0.000  0.937
   spin  2
    eigenvalues: 
  0.937  0.937  0.938
    eigenvectors:
  0.038  0.628  0.333
  0.346  0.320  0.333
  0.615  0.051  0.333
    occupations:
  0.937  0.000  0.000
  0.000  0.937  0.000
  0.000  0.000  0.937
atomic mag. moment =     0.000000
atom   11   Tr[ns(na)] (up, down, total) =   2.81114  2.81114  5.62228
   spin  1
    eigenvalues: 
  0.937  0.937  0.938
    eigenvectors:
  0.167  0.500  0.333
  0.667  0.000  0.333
  0.167  0.500  0.333
    occupations:
  0.937  0.000  0.000
  0.000  0.937  0.000
  0.000  0.000  0.937
   spin  2
    eigenvalues: 
  0.937  0.937  0.938
    eigenvectors:
  0.500  0.167  0.333
  0.000  0.667  0.333
  0.500  0.167  0.333
    occupations:
  0.937  0.000  0.000
  0.000  0.937  0.000
  0.000  0.000  0.937
atomic mag. moment =    -0.000001
atom   12   Tr[ns(na)] (up, down, total) =   2.81114  2.81114  5.62228
   spin  1
    eigenvalues: 
  0.937  0.937  0.938
    eigenvectors:
  0.667  0.000  0.333
  0.167  0.500  0.333
  0.167  0.500  0.333
    occupations:
  0.937  0.000  0.000
  0.000  0.937  0.000
  0.000  0.000  0.937
   spin  2
    eigenvalues: 
  0.937  0.937  0.938
    eigenvectors:
  0.000  0.667  0.333
  0.500  0.167  0.333
  0.500  0.167  0.333
    occupations:
  0.937  0.000  0.000
  0.000  0.937  0.000
  0.000  0.000  0.937
atomic mag. moment =    -0.000001
atom   13   Tr[ns(na)] (up, down, total) =   2.81114  2.81114  5.62228
   spin  1
    eigenvalues: 
  0.937  0.937  0.938
    eigenvectors:
  0.167  0.500  0.333
  0.667  0.000  0.333
  0.167  0.500  0.333
    occupations:
  0.937  0.000  0.000
  0.000  0.937  0.000
  0.000  0.000  0.937
   spin  2
    eigenvalues: 
  0.937  0.937  0.938
    eigenvectors:
  0.500  0.167  0.333
  0.000  0.667  0.333
  0.500  0.167  0.333
    occupations:
  0.937  0.000  0.000
  0.000  0.937  0.000
  0.000  0.000  0.937
atomic mag. moment =    -0.000001
atom   14   Tr[ns(na)] (up, down, total) =   2.81114  2.81114  5.62228
   spin  1
    eigenvalues: 
  0.937  0.937  0.938
    eigenvectors:
  0.667  0.000  0.333
  0.167  0.500  0.333
  0.167  0.500  0.333
    occupations:
  0.937  0.000  0.000
  0.000  0.937  0.000
  0.000  0.000  0.937
   spin  2
    eigenvalues: 
  0.937  0.937  0.938
    eigenvectors:
  0.000  0.667  0.333
  0.500  0.167  0.333
  0.500  0.167  0.333
    occupations:
  0.937  0.000  0.000
  0.000  0.937  0.000
  0.000  0.000  0.937
atomic mag. moment =    -0.000001
atom   15   Tr[ns(na)] (up, down, total) =   2.81114  2.81114  5.62229
   spin  1
    eigenvalues: 
  0.937  0.937  0.938
    eigenvectors:
  0.059  0.607  0.333
  0.306  0.361  0.333
  0.635  0.032  0.333
    occupations:
  0.937  0.000  0.000
  0.000  0.937  0.000
  0.000  0.000  0.937
   spin  2
    eigenvalues: 
  0.937  0.937  0.938
    eigenvectors:
  0.040  0.626  0.333
  0.342  0.325  0.333
  0.618  0.049  0.333
    occupations:
  0.937  0.000  0.000
  0.000  0.937  0.000
  0.000  0.000  0.937
atomic mag. moment =     0.000000
atom   16   Tr[ns(na)] (up, down, total) =   2.81114  2.81114  5.62228
   spin  1
    eigenvalues: 
  0.937  0.937  0.938
    eigenvectors:
  0.167  0.500  0.333
  0.167  0.500  0.333
  0.667  0.000  0.333
    occupations:
  0.937  0.000  0.000
  0.000  0.937  0.000
  0.000  0.000  0.937
   spin  2
    eigenvalues: 
  0.937  0.937  0.938
    eigenvectors:
  0.500  0.167  0.333
  0.500  0.167  0.333
  0.000  0.667  0.333
    occupations:
  0.937  0.000  0.000
  0.000  0.937  0.000
  0.000  0.000  0.937
atomic mag. moment =    -0.000001
N of occupied +U levels = 114.6264805
 --- exit write_ns ---
 LDA+U Projector read from file 
     Starting wfc from file

     total cpu time spent up to now is       12.6 secs

     per-process dynamical memory:   103.5 Mb

     Self-consistent Calculation

     iteration #  1     ecut=    30.00 Ry     beta=0.30
     Davidson diagonalization with overlap
     ethr =  1.00E-10,  avg # of iterations =  8.7
 --- enter write_ns ---
 LDA+U parameters:
U( 1)     =  0.00000000
alpha( 1) =  0.05000000
U( 2)     =  0.00000000
alpha( 2) =  0.00000000
U( 3)     =  0.00000000
alpha( 3) =  0.00000000
U( 4)     =  0.00000000
alpha( 4) =  0.00000000
atom    1   Tr[ns(na)] (up, down, total) =   4.95140  3.74307  8.69447
   spin  1
    eigenvalues: 
  0.980  0.980  0.997  0.997  0.997
    eigenvectors:
  0.023  0.977  0.000  0.000  0.000
  0.000  0.000  0.026  0.641  0.333
  0.000  0.000  0.599  0.068  0.333
  0.977  0.023  0.000  0.000  0.000
  0.000  0.000  0.375  0.291  0.333
    occupations:
  0.980  0.000  0.000  0.000  0.000
  0.000  0.997  0.000  0.000  0.000
  0.000  0.000  0.997  0.000  0.000
  0.000  0.000  0.000  0.980  0.000
  0.000  0.000  0.000  0.000  0.997
   spin  2
    eigenvalues: 
  0.379  0.379  0.995  0.995  0.995
    eigenvectors:
  0.031  0.969  0.000  0.000  0.000
  0.000  0.000  0.037  0.630  0.333
  0.000  0.000  0.613  0.053  0.333
  0.969  0.031  0.000  0.000  0.000
  0.000  0.000  0.350  0.317  0.333
    occupations:
  0.379  0.000  0.000  0.000 -0.001
  0.000  0.995  0.000 -0.001  0.000
  0.000  0.000  0.995 -0.001  0.000
  0.000 -0.001 -0.001  0.379  0.000
 -0.001  0.000  0.000  0.000  0.995
atomic mag. moment =     1.208330
atom    2   Tr[ns(na)] (up, down, total) =   4.95242  3.75392  8.70635
   spin  1
    eigenvalues: 
  0.980  0.980  0.997  0.997  0.997
    eigenvectors:
  1.000  0.000  0.000  0.000  0.000
  0.000  0.000  0.167  0.500  0.333
  0.000  0.000  0.167  0.500  0.333
  0.000  1.000  0.000  0.000  0.000
  0.000  0.000  0.667  0.000  0.333
    occupations:
  0.980  0.000  0.000  0.000  0.000
  0.000  0.997  0.000  0.000  0.000
  0.000  0.000  0.997  0.000  0.000
  0.000  0.000  0.000  0.980  0.000
  0.000  0.000  0.000  0.000  0.997
   spin  2
    eigenvalues: 
  0.384  0.384  0.995  0.995  0.996
    eigenvectors:
  0.000  1.000  0.000  0.000  0.000
  0.000  0.000  0.500  0.302  0.198
  0.000  0.000  0.500  0.302  0.198
  1.000  0.000  0.000  0.000  0.000
  0.000  0.000  0.000  0.396  0.604
    occupations:
  0.384 -0.001  0.001  0.000 -0.001
 -0.001  0.995  0.000 -0.001  0.000
  0.001  0.000  0.995 -0.001  0.000
  0.000 -0.001 -0.001  0.384  0.000
 -0.001  0.000  0.000  0.000  0.995
atomic mag. moment =     1.198496
atom    3   Tr[ns(na)] (up, down, total) =   4.95242  3.75392  8.70635
   spin  1
    eigenvalues: 
  0.980  0.980  0.997  0.997  0.997
    eigenvectors:
  0.250  0.750  0.000  0.000  0.000
  0.000  0.000  0.167  0.500  0.333
  0.000  0.000  0.667  0.000  0.333
  0.750  0.250  0.000  0.000  0.000
  0.000  0.000  0.167  0.500  0.333
    occupations:
  0.980  0.000  0.000  0.000  0.000
  0.000  0.997  0.000  0.000  0.000
  0.000  0.000  0.997  0.000  0.000
  0.000  0.000  0.000  0.980  0.000
  0.000  0.000  0.000  0.000  0.997
   spin  2
    eigenvalues: 
  0.384  0.384  0.995  0.995  0.996
    eigenvectors:
  0.750  0.250  0.000  0.000  0.000
  0.000  0.000  0.500  0.302  0.198
  0.000  0.000  0.000  0.396  0.604
  0.250  0.750  0.000  0.000  0.000
  0.000  0.000  0.500  0.302  0.198
    occupations:
  0.384 -0.001  0.001  0.000 -0.001
 -0.001  0.995  0.000 -0.001  0.000
  0.001  0.000  0.995 -0.001  0.000
  0.000 -0.001 -0.001  0.384  0.000
 -0.001  0.000  0.000  0.000  0.995
atomic mag. moment =     1.198496
atom    4   Tr[ns(na)] (up, down, total) =   4.95242  3.75392  8.70635
   spin  1
    eigenvalues: 
  0.980  0.980  0.997  0.997  0.997
    eigenvectors:
  0.250  0.750  0.000  0.000  0.000
  0.000  0.000  0.667  0.000  0.333
  0.000  0.000  0.167  0.500  0.333
  0.750  0.250  0.000  0.000  0.000
  0.000  0.000  0.167  0.500  0.333
    occupations:
  0.980  0.000  0.000  0.000  0.000
  0.000  0.997  0.000  0.000  0.000
  0.000  0.000  0.997  0.000  0.000
  0.000  0.000  0.000  0.980  0.000
  0.000  0.000  0.000  0.000  0.997
   spin  2
    eigenvalues: 
  0.384  0.384  0.995  0.995  0.996
    eigenvectors:
  0.750  0.250  0.000  0.000  0.000
  0.000  0.000  0.000  0.396  0.604
  0.000  0.000  0.500  0.302  0.198
  0.250  0.750  0.000  0.000  0.000
  0.000  0.000  0.500  0.302  0.198
    occupations:
  0.384 -0.001  0.001  0.000 -0.001
 -0.001  0.995  0.000 -0.001  0.000
  0.001  0.000  0.995 -0.001  0.000
  0.000 -0.001 -0.001  0.384  0.000
 -0.001  0.000  0.000  0.000  0.995
atomic mag. moment =     1.198496
atom    5   Tr[ns(na)] (up, down, total) =   3.75364  4.95245  8.70609
   spin  1
    eigenvalues: 
  0.384  0.384  0.995  0.995  0.995
    eigenvectors:
  0.750  0.250  0.000  0.000  0.000
  0.000  0.000  0.000  0.665  0.334
  0.000  0.000  0.500  0.167  0.333
  0.250  0.750  0.000  0.000  0.000
  0.000  0.000  0.500  0.167  0.333
    occupations:
  0.384  0.000  0.001  0.000 -0.001
  0.000  0.995  0.000 -0.001  0.000
  0.001  0.000  0.995 -0.001  0.000
  0.000 -0.001 -0.001  0.384  0.000
 -0.001  0.000  0.000  0.000  0.995
   spin  2
    eigenvalues: 
  0.980  0.980  0.997  0.997  0.997
    eigenvectors:
  0.750  0.250  0.000  0.000  0.000
  0.000  0.000  0.000  0.215  0.785
  0.000  0.000  0.500  0.393  0.107
  0.250  0.750  0.000  0.000  0.000
  0.000  0.000  0.500  0.393  0.107
    occupations:
  0.980  0.000  0.000  0.000  0.000
  0.000  0.997  0.000  0.000  0.000
  0.000  0.000  0.997  0.000  0.000
  0.000  0.000  0.000  0.980  0.000
  0.000  0.000  0.000  0.000  0.997
atomic mag. moment =    -1.198804
atom    6   Tr[ns(na)] (up, down, total) =   3.75364  4.95245  8.70609
   spin  1
    eigenvalues: 
  0.384  0.384  0.995  0.995  0.995
    eigenvectors:
  0.750  0.250  0.000  0.000  0.000
  0.000  0.000  0.500  0.167  0.333
  0.000  0.000  0.000  0.665  0.334
  0.250  0.750  0.000  0.000  0.000
  0.000  0.000  0.500  0.167  0.333
    occupations:
  0.384 -0.001  0.000  0.000 -0.001
 -0.001  0.995  0.000 -0.001  0.000
  0.000  0.000  0.995 -0.001  0.000
  0.000 -0.001 -0.001  0.384  0.000
 -0.001  0.000  0.000  0.000  0.995
   spin  2
    eigenvalues: 
  0.980  0.980  0.997  0.997  0.997
    eigenvectors:
  0.750  0.250  0.000  0.000  0.000
  0.000  0.000  0.500  0.393  0.107
  0.000  0.000  0.000  0.215  0.785
  0.250  0.750  0.000  0.000  0.000
  0.000  0.000  0.500  0.393  0.107
    occupations:
  0.980  0.000  0.000  0.000  0.000
  0.000  0.997  0.000  0.000  0.000
  0.000  0.000  0.997  0.000  0.000
  0.000  0.000  0.000  0.980  0.000
  0.000  0.000  0.000  0.000  0.997
atomic mag. moment =    -1.198804
atom    7   Tr[ns(na)] (up, down, total) =   3.75364  4.95245  8.70609
   spin  1
    eigenvalues: 
  0.384  0.384  0.995  0.995  0.995
    eigenvectors:
  0.000  1.000  0.000  0.000  0.000
  0.000  0.000  0.500  0.167  0.333
  0.000  0.000  0.500  0.167  0.333
  1.000  0.000  0.000  0.000  0.000
  0.000  0.000  0.000  0.665  0.334
    occupations:
  0.384 -0.001  0.001  0.000 -0.001
 -0.001  0.995  0.000 -0.001  0.000
  0.001  0.000  0.995 -0.001  0.000
  0.000 -0.001 -0.001  0.384  0.000
 -0.001  0.000  0.000  0.000  0.995
   spin  2
    eigenvalues: 
  0.980  0.980  0.997  0.997  0.997
    eigenvectors:
  0.000  1.000  0.000  0.000  0.000
  0.000  0.000  0.500  0.393  0.107
  0.000  0.000  0.500  0.393  0.107
  1.000  0.000  0.000  0.000  0.000
  0.000  0.000  0.000  0.215  0.785
    occupations:
  0.980  0.000  0.000  0.000  0.000
  0.000  0.997  0.000  0.000  0.000
  0.000  0.000  0.997  0.000  0.000
  0.000  0.000  0.000  0.980  0.000
  0.000  0.000  0.000  0.000  0.997
atomic mag. moment =    -1.198804
atom    8   Tr[ns(na)] (up, down, total) =   3.75474  4.95352  8.70826
   spin  1
    eigenvalues: 
  0.384  0.384  0.995  0.995  0.995
    eigenvectors:
  0.009  0.991  0.000  0.000  0.000
  0.000  0.000  0.025  0.642  0.333
  0.000  0.000  0.597  0.070  0.333
  0.991  0.009  0.000  0.000  0.000
  0.000  0.000  0.379  0.288  0.333
    occupations:
  0.384 -0.001  0.001  0.000 -0.001
 -0.001  0.995  0.000 -0.001  0.000
  0.001  0.000  0.995 -0.001  0.000
  0.000 -0.001 -0.001  0.384  0.000
 -0.001  0.000  0.000  0.000  0.995
   spin  2
    eigenvalues: 
  0.981  0.981  0.997  0.997  0.997
    eigenvectors:
  0.038  0.962  0.000  0.000  0.000
  0.000  0.000  0.028  0.639  0.333
  0.000  0.000  0.601  0.065  0.333
  0.962  0.038  0.000  0.000  0.000
  0.000  0.000  0.371  0.296  0.333
    occupations:
  0.981  0.000  0.000  0.000  0.000
  0.000  0.997  0.000  0.000  0.000
  0.000  0.000  0.997  0.000  0.000
  0.000  0.000  0.000  0.981  0.000
  0.000  0.000  0.000  0.000  0.997
atomic mag. moment =    -1.198789
atom    9   Tr[ns(na)] (up, down, total) =   2.81115  2.81191  5.62306
   spin  1
    eigenvalues: 
  0.937  0.937  0.938
    eigenvectors:
  0.166  0.500  0.334
  0.166  0.500  0.334
  0.668  0.000  0.332
    occupations:
  0.937  0.000  0.000
  0.000  0.937  0.000
  0.000  0.000  0.937
   spin  2
    eigenvalues: 
  0.937  0.937  0.938
    eigenvectors:
  0.500  0.306  0.194
  0.500  0.306  0.194
  0.000  0.387  0.613
    occupations:
  0.937  0.000  0.000
  0.000  0.937  0.000
  0.000  0.000  0.938
atomic mag. moment =    -0.000767
atom   10   Tr[ns(na)] (up, down, total) =   2.81114  2.81115  5.62229
   spin  1
    eigenvalues: 
  0.937  0.937  0.938
    eigenvectors:
  0.090  0.576  0.333
  0.257  0.409  0.333
  0.652  0.014  0.333
    occupations:
  0.937  0.000  0.000
  0.000  0.937  0.000
  0.000  0.000  0.937
   spin  2
    eigenvalues: 
  0.937  0.937  0.938
    eigenvectors:
  0.096  0.571  0.333
  0.249  0.417  0.333
  0.655  0.012  0.333
    occupations:
  0.937  0.000  0.000
  0.000  0.937  0.000
  0.000  0.000  0.937
atomic mag. moment =    -0.000007
atom   11   Tr[ns(na)] (up, down, total) =   2.81115  2.81191  5.62306
   spin  1
    eigenvalues: 
  0.937  0.937  0.938
    eigenvectors:
  0.166  0.500  0.334
  0.668  0.000  0.332
  0.166  0.500  0.334
    occupations:
  0.937  0.000  0.000
  0.000  0.937  0.000
  0.000  0.000  0.937
   spin  2
    eigenvalues: 
  0.937  0.937  0.938
    eigenvectors:
  0.500  0.306  0.194
  0.000  0.387  0.613
  0.500  0.306  0.194
    occupations:
  0.937  0.000  0.000
  0.000  0.938  0.000
  0.000  0.000  0.937
atomic mag. moment =    -0.000767
atom   12   Tr[ns(na)] (up, down, total) =   2.81115  2.81191  5.62306
   spin  1
    eigenvalues: 
  0.937  0.937  0.938
    eigenvectors:
  0.668  0.000  0.332
  0.166  0.500  0.334
  0.166  0.500  0.334
    occupations:
  0.937  0.000  0.000
  0.000  0.937  0.000
  0.000  0.000  0.937
   spin  2
    eigenvalues: 
  0.937  0.937  0.938
    eigenvectors:
  0.000  0.387  0.613
  0.500  0.306  0.194
  0.500  0.306  0.194
    occupations:
  0.938  0.000  0.000
  0.000  0.937  0.000
  0.000  0.000  0.937
atomic mag. moment =    -0.000767
atom   13   Tr[ns(na)] (up, down, total) =   2.81115  2.81191  5.62306
   spin  1
    eigenvalues: 
  0.937  0.937  0.938
    eigenvectors:
  0.166  0.500  0.334
  0.668  0.000  0.332
  0.166  0.500  0.334
    occupations:
  0.937  0.000  0.000
  0.000  0.937  0.000
  0.000  0.000  0.937
   spin  2
    eigenvalues: 
  0.937  0.937  0.938
    eigenvectors:
  0.500  0.306  0.194
  0.000  0.387  0.613
  0.500  0.306  0.194
    occupations:
  0.937  0.000  0.000
  0.000  0.938  0.000
  0.000  0.000  0.937
atomic mag. moment =    -0.000767
atom   14   Tr[ns(na)] (up, down, total) =   2.81115  2.81191  5.62306
   spin  1
    eigenvalues: 
  0.937  0.937  0.938
    eigenvectors:
  0.668  0.000  0.332
  0.166  0.500  0.334
  0.166  0.500  0.334
    occupations:
  0.937  0.000  0.000
  0.000  0.937  0.000
  0.000  0.000  0.937
   spin  2
    eigenvalues: 
  0.937  0.937  0.938
    eigenvectors:
  0.000  0.387  0.613
  0.500  0.306  0.194
  0.500  0.306  0.194
    occupations:
  0.938  0.000  0.000
  0.000  0.937  0.000
  0.000  0.000  0.937
atomic mag. moment =    -0.000767
atom   15   Tr[ns(na)] (up, down, total) =   2.81114  2.81115  5.62229
   spin  1
    eigenvalues: 
  0.937  0.937  0.938
    eigenvectors:
  0.087  0.579  0.333
  0.261  0.405  0.333
  0.651  0.015  0.333
    occupations:
  0.937  0.000  0.000
  0.000  0.937  0.000
  0.000  0.000  0.937
   spin  2
    eigenvalues: 
  0.937  0.937  0.938
    eigenvectors:
  0.072  0.594  0.333
  0.284  0.382  0.333
  0.643  0.023  0.333
    occupations:
  0.937  0.000  0.000
  0.000  0.937  0.000
  0.000  0.000  0.937
atomic mag. moment =    -0.000007
atom   16   Tr[ns(na)] (up, down, total) =   2.81115  2.81191  5.62306
   spin  1
    eigenvalues: 
  0.937  0.937  0.938
    eigenvectors:
  0.166  0.500  0.334
  0.166  0.500  0.334
  0.668  0.000  0.332
    occupations:
  0.937  0.000  0.000
  0.000  0.937  0.000
  0.000  0.000  0.937
   spin  2
    eigenvalues: 
  0.937  0.937  0.938
    eigenvectors:
  0.500  0.306  0.194
  0.500  0.306  0.194
  0.000  0.387  0.613
    occupations:
  0.937  0.000  0.000
  0.000  0.937  0.000
  0.000  0.000  0.938
atomic mag. moment =    -0.000767
N of occupied +U levels = 114.6229701
 --- exit write_ns ---
 --- in v_hubbard ---
Hubbard energy    0.0320
 -------

     total cpu time spent up to now is      100.6 secs

     total energy              =    -941.98408768 Ry
     Harris-Foulkes estimate   =    -941.98412805 Ry
     estimated scf accuracy    <       0.00009200 Ry

     total magnetization       =     0.00 Bohr mag/cell
     absolute magnetization    =    12.29 Bohr mag/cell

     iteration #  2     ecut=    30.00 Ry     beta=0.30
     Davidson diagonalization with overlap
     ethr =  7.19E-08,  avg # of iterations =  2.0
 --- enter write_ns ---
 LDA+U parameters:
U( 1)     =  0.00000000
alpha( 1) =  0.05000000
U( 2)     =  0.00000000
alpha( 2) =  0.00000000
U( 3)     =  0.00000000
alpha( 3) =  0.00000000
U( 4)     =  0.00000000
alpha( 4) =  0.00000000
atom    1   Tr[ns(na)] (up, down, total) =   4.95332  3.75414  8.70745
   spin  1
    eigenvalues: 
  0.981  0.981  0.997  0.997  0.997
    eigenvectors:
  0.023  0.977  0.000  0.000  0.000
  0.000  0.000  0.032  0.634  0.333
  0.000  0.000  0.608  0.059  0.333
  0.977  0.023  0.000  0.000  0.000
  0.000  0.000  0.360  0.307  0.333
    occupations:
  0.981  0.000  0.000  0.000  0.000
  0.000  0.997  0.000  0.000  0.000
  0.000  0.000  0.997  0.000  0.000
  0.000  0.000  0.000  0.981  0.000
  0.000  0.000  0.000  0.000  0.997
   spin  2
    eigenvalues: 
  0.384  0.384  0.995  0.995  0.996
    eigenvectors:
  0.049  0.951  0.000  0.000  0.000
  0.000  0.000  0.030  0.636  0.333
  0.000  0.000  0.605  0.062  0.333
  0.951  0.049  0.000  0.000  0.000
  0.000  0.000  0.365  0.302  0.333
    occupations:
  0.384 -0.001  0.001  0.000 -0.001
 -0.001  0.995  0.000 -0.001  0.000
  0.001  0.000  0.995 -0.001  0.000
  0.000 -0.001 -0.001  0.384  0.000
 -0.001  0.000  0.000  0.000  0.995
atomic mag. moment =     1.199177
atom    2   Tr[ns(na)] (up, down, total) =   4.95238  3.75340  8.70579
   spin  1
    eigenvalues: 
  0.980  0.980  0.997  0.997  0.997
    eigenvectors:
  0.000  1.000  0.000  0.000  0.000
  0.000  0.000  0.500  0.283  0.217
  0.000  0.000  0.500  0.283  0.217
  1.000  0.000  0.000  0.000  0.000
  0.000  0.000  0.000  0.435  0.565
    occupations:
  0.980  0.000  0.000  0.000  0.000
  0.000  0.997  0.000  0.000  0.000
  0.000  0.000  0.997  0.000  0.000
  0.000  0.000  0.000  0.980  0.000
  0.000  0.000  0.000  0.000  0.997
   spin  2
    eigenvalues: 
  0.384  0.384  0.995  0.995  0.995
    eigenvectors:
  1.000  0.000  0.000  0.000  0.000
  0.000  0.000  0.137  0.500  0.363
  0.000  0.000  0.137  0.500  0.363
  0.000  1.000  0.000  0.000  0.000
  0.000  0.000  0.726  0.000  0.274
    occupations:
  0.384 -0.001  0.001  0.000 -0.001
 -0.001  0.995  0.000 -0.001  0.000
  0.001  0.000  0.995 -0.001  0.000
  0.000 -0.001 -0.001  0.384  0.000
 -0.001  0.000  0.000  0.000  0.995
atomic mag. moment =     1.198977
atom    3   Tr[ns(na)] (up, down, total) =   4.95238  3.75340  8.70579
   spin  1
    eigenvalues: 
  0.980  0.980  0.997  0.997  0.997
    eigenvectors:
  0.750  0.250  0.000  0.000  0.000
  0.000  0.000  0.500  0.283  0.217
  0.000  0.000  0.000  0.435  0.565
  0.250  0.750  0.000  0.000  0.000
  0.000  0.000  0.500  0.283  0.217
    occupations:
  0.980  0.000  0.000  0.000  0.000
  0.000  0.997  0.000  0.000  0.000
  0.000  0.000  0.997  0.000  0.000
  0.000  0.000  0.000  0.980  0.000
  0.000  0.000  0.000  0.000  0.997
   spin  2
    eigenvalues: 
  0.384  0.384  0.995  0.995  0.995
    eigenvectors:
  0.250  0.750  0.000  0.000  0.000
  0.000  0.000  0.137  0.500  0.363
  0.000  0.000  0.726  0.000  0.274
  0.750  0.250  0.000  0.000  0.000
  0.000  0.000  0.137  0.500  0.363
    occupations:
  0.384 -0.001  0.001  0.000 -0.001
 -0.001  0.995  0.000 -0.001  0.000
  0.001  0.000  0.995 -0.001  0.000
  0.000 -0.001 -0.001  0.384  0.000
 -0.001  0.000  0.000  0.000  0.995
atomic mag. moment =     1.198977
atom    4   Tr[ns(na)] (up, down, total) =   4.95238  3.75340  8.70579
   spin  1
    eigenvalues: 
  0.980  0.980  0.997  0.997  0.997
    eigenvectors:
  0.750  0.250  0.000  0.000  0.000
  0.000  0.000  0.000  0.435  0.565
  0.000  0.000  0.500  0.283  0.217
  0.250  0.750  0.000  0.000  0.000
  0.000  0.000  0.500  0.283  0.217
    occupations:
  0.980  0.000  0.000  0.000  0.000
  0.000  0.997  0.000  0.000  0.000
  0.000  0.000  0.997  0.000  0.000
  0.000  0.000  0.000  0.980  0.000
  0.000  0.000  0.000  0.000  0.997
   spin  2
    eigenvalues: 
  0.384  0.384  0.995  0.995  0.995
    eigenvectors:
  0.250  0.750  0.000  0.000  0.000
  0.000  0.000  0.726  0.000  0.274
  0.000  0.000  0.137  0.500  0.363
  0.750  0.250  0.000  0.000  0.000
  0.000  0.000  0.137  0.500  0.363
    occupations:
  0.384 -0.001  0.001  0.000 -0.001
 -0.001  0.995  0.000 -0.001  0.000
  0.001  0.000  0.995 -0.001  0.000
  0.000 -0.001 -0.001  0.384  0.000
 -0.001  0.000  0.000  0.000  0.995
atomic mag. moment =     1.198977
atom    5   Tr[ns(na)] (up, down, total) =   3.75392  4.95243  8.70634
   spin  1
    eigenvalues: 
  0.384  0.384  0.995  0.995  0.995
    eigenvectors:
  0.250  0.750  0.000  0.000  0.000
  0.000  0.000  0.000  0.555  0.445
  0.000  0.000  0.500  0.223  0.277
  0.750  0.250  0.000  0.000  0.000
  0.000  0.000  0.500  0.223  0.277
    occupations:
  0.384 -0.001  0.001  0.000 -0.001
 -0.001  0.995  0.000 -0.001  0.000
  0.001  0.000  0.995 -0.001  0.000
  0.000 -0.001 -0.001  0.384  0.000
 -0.001  0.000  0.000  0.000  0.995
   spin  2
    eigenvalues: 
  0.980  0.980  0.997  0.997  0.997
    eigenvectors:
  0.750  0.250  0.000  0.000  0.000
  0.000  0.000  0.789  0.000  0.211
  0.000  0.000  0.106  0.500  0.394
  0.250  0.750  0.000  0.000  0.000
  0.000  0.000  0.106  0.500  0.394
    occupations:
  0.980  0.000  0.000  0.000  0.000
  0.000  0.997  0.000  0.000  0.000
  0.000  0.000  0.997  0.000  0.000
  0.000  0.000  0.000  0.980  0.000
  0.000  0.000  0.000  0.000  0.997
atomic mag. moment =    -1.198510
atom    6   Tr[ns(na)] (up, down, total) =   3.75392  4.95243  8.70634
   spin  1
    eigenvalues: 
  0.384  0.384  0.995  0.995  0.995
    eigenvectors:
  0.250  0.750  0.000  0.000  0.000
  0.000  0.000  0.500  0.223  0.277
  0.000  0.000  0.000  0.555  0.445
  0.750  0.250  0.000  0.000  0.000
  0.000  0.000  0.500  0.223  0.277
    occupations:
  0.384 -0.001  0.001  0.000 -0.001
 -0.001  0.995  0.000 -0.001  0.000
  0.001  0.000  0.995 -0.001  0.000
  0.000 -0.001 -0.001  0.384  0.000
 -0.001  0.000  0.000  0.000  0.995
   spin  2
    eigenvalues: 
  0.980  0.980  0.997  0.997  0.997
    eigenvectors:
  0.750  0.250  0.000  0.000  0.000
  0.000  0.000  0.106  0.500  0.394
  0.000  0.000  0.789  0.000  0.211
  0.250  0.750  0.000  0.000  0.000
  0.000  0.000  0.106  0.500  0.394
    occupations:
  0.980  0.000  0.000  0.000  0.000
  0.000  0.997  0.000  0.000  0.000
  0.000  0.000  0.997  0.000  0.000
  0.000  0.000  0.000  0.980  0.000
  0.000  0.000  0.000  0.000  0.997
atomic mag. moment =    -1.198510
atom    7   Tr[ns(na)] (up, down, total) =   3.75392  4.95243  8.70634
   spin  1
    eigenvalues: 
  0.384  0.384  0.995  0.995  0.995
    eigenvectors:
  1.000  0.000  0.000  0.000  0.000
  0.000  0.000  0.500  0.223  0.277
  0.000  0.000  0.500  0.223  0.277
  0.000  1.000  0.000  0.000  0.000
  0.000  0.000  0.000  0.555  0.445
    occupations:
  0.384 -0.001  0.001  0.000 -0.001
 -0.001  0.995  0.000 -0.001  0.000
  0.001  0.000  0.995 -0.001  0.000
  0.000 -0.001 -0.001  0.384  0.000
 -0.001  0.000  0.000  0.000  0.995
   spin  2
    eigenvalues: 
  0.980  0.980  0.997  0.997  0.997
    eigenvectors:
  0.000  1.000  0.000  0.000  0.000
  0.000  0.000  0.106  0.500  0.394
  0.000  0.000  0.106  0.500  0.394
  1.000  0.000  0.000  0.000  0.000
  0.000  0.000  0.789  0.000  0.211
    occupations:
  0.980  0.000  0.000  0.000  0.000
  0.000  0.997  0.000  0.000  0.000
  0.000  0.000  0.997  0.000  0.000
  0.000  0.000  0.000  0.980  0.000
  0.000  0.000  0.000  0.000  0.997
atomic mag. moment =    -1.198510
atom    8   Tr[ns(na)] (up, down, total) =   3.74872  4.95179  8.70051
   spin  1
    eigenvalues: 
  0.382  0.382  0.995  0.995  0.995
    eigenvectors:
  0.027  0.973  0.000  0.000  0.000
  0.000  0.000  0.026  0.640  0.333
  0.000  0.000  0.599  0.068  0.333
  0.973  0.027  0.000  0.000  0.000
  0.000  0.000  0.375  0.292  0.333
    occupations:
  0.382  0.000  0.000  0.000 -0.001
  0.000  0.995  0.000 -0.001  0.000
  0.000  0.000  0.995 -0.001  0.000
  0.000 -0.001 -0.001  0.382  0.000
 -0.001  0.000  0.000  0.000  0.995
   spin  2
    eigenvalues: 
  0.980  0.980  0.997  0.997  0.997
    eigenvectors:
  0.015  0.985  0.000  0.000  0.000
  0.000  0.000  0.035  0.632  0.333
  0.000  0.000  0.611  0.056  0.333
  0.985  0.015  0.000  0.000  0.000
  0.000  0.000  0.355  0.312  0.333
    occupations:
  0.980  0.000  0.000  0.000  0.000
  0.000  0.997  0.000  0.000  0.000
  0.000  0.000  0.997  0.000  0.000
  0.000  0.000  0.000  0.980  0.000
  0.000  0.000  0.000  0.000  0.997
atomic mag. moment =    -1.203064
atom    9   Tr[ns(na)] (up, down, total) =   2.81133  2.81110  5.62243
   spin  1
    eigenvalues: 
  0.937  0.937  0.938
    eigenvectors:
  0.500  0.220  0.280
  0.500  0.220  0.280
  0.000  0.561  0.439
    occupations:
  0.937  0.000  0.000
  0.000  0.937  0.000
  0.000  0.000  0.937
   spin  2
    eigenvalues: 
  0.937  0.937  0.938
    eigenvectors:
  0.166  0.500  0.334
  0.166  0.500  0.334
  0.669  0.000  0.331
    occupations:
  0.937  0.000  0.000
  0.000  0.937  0.000
  0.000  0.000  0.937
atomic mag. moment =     0.000224
atom   10   Tr[ns(na)] (up, down, total) =   2.81113  2.81119  5.62232
   spin  1
    eigenvalues: 
  0.937  0.937  0.938
    eigenvectors:
  0.056  0.611  0.333
  0.312  0.355  0.333
  0.632  0.034  0.333
    occupations:
  0.937  0.000  0.000
  0.000  0.937  0.000
  0.000  0.000  0.937
   spin  2
    eigenvalues: 
  0.937  0.937  0.938
    eigenvectors:
  0.098  0.568  0.333
  0.246  0.420  0.333
  0.656  0.011  0.333
    occupations:
  0.937  0.000  0.000
  0.000  0.937  0.000
  0.000  0.000  0.937
atomic mag. moment =    -0.000056
atom   11   Tr[ns(na)] (up, down, total) =   2.81133  2.81110  5.62243
   spin  1
    eigenvalues: 
  0.937  0.937  0.938
    eigenvectors:
  0.500  0.220  0.280
  0.000  0.561  0.439
  0.500  0.220  0.280
    occupations:
  0.937  0.000  0.000
  0.000  0.937  0.000
  0.000  0.000  0.937
   spin  2
    eigenvalues: 
  0.937  0.937  0.938
    eigenvectors:
  0.166  0.500  0.334
  0.669  0.000  0.331
  0.166  0.500  0.334
    occupations:
  0.937  0.000  0.000
  0.000  0.937  0.000
  0.000  0.000  0.937
atomic mag. moment =     0.000224
atom   12   Tr[ns(na)] (up, down, total) =   2.81133  2.81110  5.62243
   spin  1
    eigenvalues: 
  0.937  0.937  0.938
    eigenvectors:
  0.000  0.561  0.439
  0.500  0.220  0.280
  0.500  0.220  0.280
    occupations:
  0.937  0.000  0.000
  0.000  0.937  0.000
  0.000  0.000  0.937
   spin  2
    eigenvalues: 
  0.937  0.937  0.938
    eigenvectors:
  0.669  0.000  0.331
  0.166  0.500  0.334
  0.166  0.500  0.334
    occupations:
  0.937  0.000  0.000
  0.000  0.937  0.000
  0.000  0.000  0.937
atomic mag. moment =     0.000224
atom   13   Tr[ns(na)] (up, down, total) =   2.81133  2.81110  5.62243
   spin  1
    eigenvalues: 
  0.937  0.937  0.938
    eigenvectors:
  0.500  0.220  0.280
  0.000  0.561  0.439
  0.500  0.220  0.280
    occupations:
  0.937  0.000  0.000
  0.000  0.937  0.000
  0.000  0.000  0.937
   spin  2
    eigenvalues: 
  0.937  0.937  0.938
    eigenvectors:
  0.166  0.500  0.334
  0.669  0.000  0.331
  0.166  0.500  0.334
    occupations:
  0.937  0.000  0.000
  0.000  0.937  0.000
  0.000  0.000  0.937
atomic mag. moment =     0.000224
atom   14   Tr[ns(na)] (up, down, total) =   2.81133  2.81110  5.62243
   spin  1
    eigenvalues: 
  0.937  0.937  0.938
    eigenvectors:
  0.000  0.561  0.439
  0.500  0.220  0.280
  0.500  0.220  0.280
    occupations:
  0.937  0.000  0.000
  0.000  0.937  0.000
  0.000  0.000  0.937
   spin  2
    eigenvalues: 
  0.937  0.937  0.938
    eigenvectors:
  0.669  0.000  0.331
  0.166  0.500  0.334
  0.166  0.500  0.334
    occupations:
  0.937  0.000  0.000
  0.000  0.937  0.000
  0.000  0.000  0.937
atomic mag. moment =     0.000224
atom   15   Tr[ns(na)] (up, down, total) =   2.81113  2.81119  5.62232
   spin  1
    eigenvalues: 
  0.937  0.937  0.938
    eigenvectors:
  0.049  0.618  0.333
  0.325  0.342  0.333
  0.626  0.041  0.333
    occupations:
  0.937  0.000  0.000
  0.000  0.937  0.000
  0.000  0.000  0.937
   spin  2
    eigenvalues: 
  0.937  0.937  0.938
    eigenvectors:
  0.118  0.549  0.333
  0.221  0.446  0.333
  0.661  0.005  0.333
    occupations:
  0.937  0.000  0.000
  0.000  0.937  0.000
  0.000  0.000  0.937
atomic mag. moment =    -0.000056
atom   16   Tr[ns(na)] (up, down, total) =   2.81133  2.81110  5.62243
   spin  1
    eigenvalues: 
  0.937  0.937  0.938
    eigenvectors:
  0.500  0.220  0.280
  0.500  0.220  0.280
  0.000  0.561  0.439
    occupations:
  0.937  0.000  0.000
  0.000  0.937  0.000
  0.000  0.000  0.937
   spin  2
    eigenvalues: 
  0.937  0.937  0.938
    eigenvectors:
  0.166  0.500  0.334
  0.166  0.500  0.334
  0.669  0.000  0.331
    occupations:
  0.937  0.000  0.000
  0.000  0.937  0.000
  0.000  0.000  0.937
atomic mag. moment =     0.000224
N of occupied +U levels = 114.6235546
 --- exit write_ns ---
 --- in v_hubbard ---
Hubbard energy    0.0320
 -------

     total cpu time spent up to now is      144.1 secs

     total energy              =    -941.98410135 Ry
     Harris-Foulkes estimate   =    -941.98413204 Ry
     estimated scf accuracy    <       0.00012705 Ry

     total magnetization       =     0.00 Bohr mag/cell
     absolute magnetization    =    12.29 Bohr mag/cell

     iteration #  3     ecut=    30.00 Ry     beta=0.30
     Davidson diagonalization with overlap
     ethr =  7.19E-08,  avg # of iterations =  1.9
 --- enter write_ns ---
 LDA+U parameters:
U( 1)     =  0.00000000
alpha( 1) =  0.05000000
U( 2)     =  0.00000000
alpha( 2) =  0.00000000
U( 3)     =  0.00000000
alpha( 3) =  0.00000000
U( 4)     =  0.00000000
alpha( 4) =  0.00000000
atom    1   Tr[ns(na)] (up, down, total) =   4.95220  3.74828  8.70048
   spin  1
    eigenvalues: 
  0.980  0.980  0.997  0.997  0.997
    eigenvectors:
  0.020  0.980  0.000  0.000  0.000
  0.000  0.000  0.027  0.639  0.333
  0.000  0.000  0.601  0.066  0.333
  0.980  0.020  0.000  0.000  0.000
  0.000  0.000  0.372  0.295  0.333
    occupations:
  0.980  0.000  0.000  0.000  0.000
  0.000  0.997  0.000  0.000  0.000
  0.000  0.000  0.997  0.000  0.000
  0.000  0.000  0.000  0.980  0.000
  0.000  0.000  0.000  0.000  0.997
   spin  2
    eigenvalues: 
  0.381  0.381  0.995  0.995  0.995
    eigenvectors:
  0.003  0.997  0.000  0.000  0.000
  0.000  0.000  0.034  0.632  0.333
  0.000  0.000  0.610  0.056  0.333
  0.997  0.003  0.000  0.000  0.000
  0.000  0.000  0.355  0.311  0.333
    occupations:
  0.381 -0.001  0.001  0.000 -0.001
 -0.001  0.995  0.000 -0.001  0.000
  0.001  0.000  0.995 -0.001  0.000
  0.000 -0.001 -0.001  0.381  0.000
 -0.001  0.000  0.000  0.000  0.995
atomic mag. moment =     1.203922
atom    2   Tr[ns(na)] (up, down, total) =   4.95242  3.75377  8.70618
   spin  1
    eigenvalues: 
  0.980  0.980  0.997  0.997  0.997
    eigenvectors:
  0.000  1.000  0.000  0.000  0.000
  0.000  0.000  0.154  0.500  0.346
  0.000  0.000  0.154  0.500  0.346
  1.000  0.000  0.000  0.000  0.000
  0.000  0.000  0.692  0.000  0.308
    occupations:
  0.980  0.000  0.000  0.000  0.000
  0.000  0.997  0.000  0.000  0.000
  0.000  0.000  0.997  0.000  0.000
  0.000  0.000  0.000  0.980  0.000
  0.000  0.000  0.000  0.000  0.997
   spin  2
    eigenvalues: 
  0.384  0.384  0.995  0.995  0.995
    eigenvectors:
  1.000  0.000  0.000  0.000  0.000
  0.000  0.000  0.500  0.211  0.289
  0.000  0.000  0.500  0.211  0.289
  0.000  1.000  0.000  0.000  0.000
  0.000  0.000  0.000  0.577  0.423
    occupations:
  0.384 -0.001  0.001  0.000 -0.001
 -0.001  0.995  0.000 -0.001  0.000
  0.001  0.000  0.995 -0.001  0.000
  0.000 -0.001 -0.001  0.384  0.000
 -0.001  0.000  0.000  0.000  0.995
atomic mag. moment =     1.198649
atom    3   Tr[ns(na)] (up, down, total) =   4.95242  3.75377  8.70618
   spin  1
    eigenvalues: 
  0.980  0.980  0.997  0.997  0.997
    eigenvectors:
  0.750  0.250  0.000  0.000  0.000
  0.000  0.000  0.154  0.500  0.346
  0.000  0.000  0.692  0.000  0.308
  0.250  0.750  0.000  0.000  0.000
  0.000  0.000  0.154  0.500  0.346
    occupations:
  0.980  0.000  0.000  0.000  0.000
  0.000  0.997  0.000  0.000  0.000
  0.000  0.000  0.997  0.000  0.000
  0.000  0.000  0.000  0.980  0.000
  0.000  0.000  0.000  0.000  0.997
   spin  2
    eigenvalues: 
  0.384  0.384  0.995  0.995  0.995
    eigenvectors:
  0.250  0.750  0.000  0.000  0.000
  0.000  0.000  0.500  0.211  0.289
  0.000  0.000  0.000  0.577  0.423
  0.750  0.250  0.000  0.000  0.000
  0.000  0.000  0.500  0.211  0.289
    occupations:
  0.384 -0.001  0.001  0.000 -0.001
 -0.001  0.995  0.000 -0.001  0.000
  0.001  0.000  0.995 -0.001  0.000
  0.000 -0.001 -0.001  0.384  0.000
 -0.001  0.000  0.000  0.000  0.995
atomic mag. moment =     1.198649
atom    4   Tr[ns(na)] (up, down, total) =   4.95242  3.75377  8.70618
   spin  1
    eigenvalues: 
  0.980  0.980  0.997  0.997  0.997
    eigenvectors:
  0.750  0.250  0.000  0.000  0.000
  0.000  0.000  0.692  0.000  0.308
  0.000  0.000  0.154  0.500  0.346
  0.250  0.750  0.000  0.000  0.000
  0.000  0.000  0.154  0.500  0.346
    occupations:
  0.980  0.000  0.000  0.000  0.000
  0.000  0.997  0.000  0.000  0.000
  0.000  0.000  0.997  0.000  0.000
  0.000  0.000  0.000  0.980  0.000
  0.000  0.000  0.000  0.000  0.997
   spin  2
    eigenvalues: 
  0.384  0.384  0.995  0.995  0.995
    eigenvectors:
  0.250  0.750  0.000  0.000  0.000
  0.000  0.000  0.000  0.577  0.423
  0.000  0.000  0.500  0.211  0.289
  0.750  0.250  0.000  0.000  0.000
  0.000  0.000  0.500  0.211  0.289
    occupations:
  0.384 -0.001  0.001  0.000 -0.001
 -0.001  0.995  0.000 -0.001  0.000
  0.001  0.000  0.995 -0.001  0.000
  0.000 -0.001 -0.001  0.384  0.000
 -0.001  0.000  0.000  0.000  0.995
atomic mag. moment =     1.198649
atom    5   Tr[ns(na)] (up, down, total) =   3.75357  4.95240  8.70597
   spin  1
    eigenvalues: 
  0.384  0.384  0.995  0.995  0.995
    eigenvectors:
  0.250  0.750  0.000  0.000  0.000
  0.000  0.000  0.680  0.000  0.320
  0.000  0.000  0.160  0.500  0.340
  0.750  0.250  0.000  0.000  0.000
  0.000  0.000  0.160  0.500  0.340
    occupations:
  0.384  0.000  0.001  0.000 -0.001
  0.000  0.995  0.000 -0.001  0.000
  0.001  0.000  0.995 -0.001  0.000
  0.000 -0.001 -0.001  0.384  0.000
 -0.001  0.000  0.000  0.000  0.995
   spin  2
    eigenvalues: 
  0.980  0.980  0.997  0.997  0.997
    eigenvectors:
  0.750  0.250  0.000  0.000  0.000
  0.000  0.000  0.000  0.508  0.492
  0.000  0.000  0.500  0.246  0.254
  0.250  0.750  0.000  0.000  0.000
  0.000  0.000  0.500  0.246  0.254
    occupations:
  0.980  0.000  0.000  0.000  0.000
  0.000  0.997  0.000  0.000  0.000
  0.000  0.000  0.997  0.000  0.000
  0.000  0.000  0.000  0.980  0.000
  0.000  0.000  0.000  0.000  0.997
atomic mag. moment =    -1.198829
atom    6   Tr[ns(na)] (up, down, total) =   3.75357  4.95240  8.70597
   spin  1
    eigenvalues: 
  0.384  0.384  0.995  0.995  0.995
    eigenvectors:
  0.250  0.750  0.000  0.000  0.000
  0.000  0.000  0.160  0.500  0.340
  0.000  0.000  0.680  0.000  0.320
  0.750  0.250  0.000  0.000  0.000
  0.000  0.000  0.160  0.500  0.340
    occupations:
  0.384 -0.001  0.000  0.000 -0.001
 -0.001  0.995  0.000 -0.001  0.000
  0.000  0.000  0.995 -0.001  0.000
  0.000 -0.001 -0.001  0.384  0.000
 -0.001  0.000  0.000  0.000  0.995
   spin  2
    eigenvalues: 
  0.980  0.980  0.997  0.997  0.997
    eigenvectors:
  0.750  0.250  0.000  0.000  0.000
  0.000  0.000  0.500  0.246  0.254
  0.000  0.000  0.000  0.508  0.492
  0.250  0.750  0.000  0.000  0.000
  0.000  0.000  0.500  0.246  0.254
    occupations:
  0.980  0.000  0.000  0.000  0.000
  0.000  0.997  0.000  0.000  0.000
  0.000  0.000  0.997  0.000  0.000
  0.000  0.000  0.000  0.980  0.000
  0.000  0.000  0.000  0.000  0.997
atomic mag. moment =    -1.198829
atom    7   Tr[ns(na)] (up, down, total) =   3.75357  4.95240  8.70597
   spin  1
    eigenvalues: 
  0.384  0.384  0.995  0.995  0.995
    eigenvectors:
  1.000  0.000  0.000  0.000  0.000
  0.000  0.000  0.160  0.500  0.340
  0.000  0.000  0.160  0.500  0.340
  0.000  1.000  0.000  0.000  0.000
  0.000  0.000  0.680  0.000  0.320
    occupations:
  0.384 -0.001  0.001  0.000 -0.001
 -0.001  0.995  0.000 -0.001  0.000
  0.001  0.000  0.995 -0.001  0.000
  0.000 -0.001 -0.001  0.384  0.000
 -0.001  0.000  0.000  0.000  0.995
   spin  2
    eigenvalues: 
  0.980  0.980  0.997  0.997  0.997
    eigenvectors:
  0.000  1.000  0.000  0.000  0.000
  0.000  0.000  0.500  0.246  0.254
  0.000  0.000  0.500  0.246  0.254
  1.000  0.000  0.000  0.000  0.000
  0.000  0.000  0.000  0.508  0.492
    occupations:
  0.980  0.000  0.000  0.000  0.000
  0.000  0.997  0.000  0.000  0.000
  0.000  0.000  0.997  0.000  0.000
  0.000  0.000  0.000  0.980  0.000
  0.000  0.000  0.000  0.000  0.997
atomic mag. moment =    -1.198829
atom    8   Tr[ns(na)] (up, down, total) =   3.75362  4.95293  8.70656
   spin  1
    eigenvalues: 
  0.384  0.384  0.995  0.995  0.995
    eigenvectors:
  0.010  0.990  0.000  0.000  0.000
  0.000  0.000  0.024  0.642  0.333
  0.000  0.000  0.596  0.071  0.333
  0.990  0.010  0.000  0.000  0.000
  0.000  0.000  0.380  0.287  0.333
    occupations:
  0.384 -0.001  0.001  0.000 -0.001
 -0.001  0.995  0.000 -0.001  0.000
  0.001  0.000  0.995 -0.001  0.000
  0.000 -0.001 -0.001  0.384  0.000
 -0.001  0.000  0.000  0.000  0.995
   spin  2
    eigenvalues: 
  0.981  0.981  0.997  0.997  0.997
    eigenvectors:
  0.009  0.991  0.000  0.000  0.000
  0.000  0.000  0.032  0.635  0.333
  0.000  0.000  0.607  0.060  0.333
  0.991  0.009  0.000  0.000  0.000
  0.000  0.000  0.361  0.306  0.333
    occupations:
  0.981  0.000  0.000  0.000  0.000
  0.000  0.997  0.000  0.000  0.000
  0.000  0.000  0.997  0.000  0.000
  0.000  0.000  0.000  0.981  0.000
  0.000  0.000  0.000  0.000  0.997
atomic mag. moment =    -1.199308
atom    9   Tr[ns(na)] (up, down, total) =   2.81108  2.81147  5.62255
   spin  1
    eigenvalues: 
  0.937  0.937  0.938
    eigenvectors:
  0.164  0.500  0.336
  0.164  0.500  0.336
  0.671  0.000  0.329
    occupations:
  0.937  0.000  0.000
  0.000  0.937  0.000
  0.000  0.000  0.937
   spin  2
    eigenvalues: 
  0.937  0.937  0.938
    eigenvectors:
  0.500  0.234  0.266
  0.500  0.234  0.266
  0.000  0.531  0.469
    occupations:
  0.937  0.000  0.000
  0.000  0.937  0.000
  0.000  0.000  0.937
atomic mag. moment =    -0.000387
atom   10   Tr[ns(na)] (up, down, total) =   2.81116  2.81114  5.62230
   spin  1
    eigenvalues: 
  0.937  0.937  0.938
    eigenvectors:
  0.080  0.586  0.333
  0.272  0.395  0.333
  0.648  0.019  0.333
    occupations:
  0.937  0.000  0.000
  0.000  0.937  0.000
  0.000  0.000  0.937
   spin  2
    eigenvalues: 
  0.937  0.937  0.938
    eigenvectors:
  0.057  0.609  0.333
  0.309  0.357  0.333
  0.633  0.033  0.333
    occupations:
  0.937  0.000  0.000
  0.000  0.937  0.000
  0.000  0.000  0.937
atomic mag. moment =     0.000018
atom   11   Tr[ns(na)] (up, down, total) =   2.81108  2.81147  5.62255
   spin  1
    eigenvalues: 
  0.937  0.937  0.938
    eigenvectors:
  0.164  0.500  0.336
  0.671  0.000  0.329
  0.164  0.500  0.336
    occupations:
  0.937  0.000  0.000
  0.000  0.937  0.000
  0.000  0.000  0.937
   spin  2
    eigenvalues: 
  0.937  0.937  0.938
    eigenvectors:
  0.500  0.234  0.266
  0.000  0.531  0.469
  0.500  0.234  0.266
    occupations:
  0.937  0.000  0.000
  0.000  0.937  0.000
  0.000  0.000  0.937
atomic mag. moment =    -0.000387
atom   12   Tr[ns(na)] (up, down, total) =   2.81108  2.81147  5.62255
   spin  1
    eigenvalues: 
  0.937  0.937  0.938
    eigenvectors:
  0.671  0.000  0.329
  0.164  0.500  0.336
  0.164  0.500  0.336
    occupations:
  0.937  0.000  0.000
  0.000  0.937  0.000
  0.000  0.000  0.937
   spin  2
    eigenvalues: 
  0.937  0.937  0.938
    eigenvectors:
  0.000  0.531  0.469
  0.500  0.234  0.266
  0.500  0.234  0.266
    occupations:
  0.937  0.000  0.000
  0.000  0.937  0.000
  0.000  0.000  0.937
atomic mag. moment =    -0.000387
atom   13   Tr[ns(na)] (up, down, total) =   2.81108  2.81147  5.62255
   spin  1
    eigenvalues: 
  0.937  0.937  0.938
    eigenvectors:
  0.164  0.500  0.336
  0.671  0.000  0.329
  0.164  0.500  0.336
    occupations:
  0.937  0.000  0.000
  0.000  0.937  0.000
  0.000  0.000  0.937
   spin  2
    eigenvalues: 
  0.937  0.937  0.938
    eigenvectors:
  0.500  0.234  0.266
  0.000  0.531  0.469
  0.500  0.234  0.266
    occupations:
  0.937  0.000  0.000
  0.000  0.937  0.000
  0.000  0.000  0.937
atomic mag. moment =    -0.000387
atom   14   Tr[ns(na)] (up, down, total) =   2.81108  2.81147  5.62255
   spin  1
    eigenvalues: 
  0.937  0.937  0.938
    eigenvectors:
  0.671  0.000  0.329
  0.164  0.500  0.336
  0.164  0.500  0.336
    occupations:
  0.937  0.000  0.000
  0.000  0.937  0.000
  0.000  0.000  0.937
   spin  2
    eigenvalues: 
  0.937  0.937  0.938
    eigenvectors:
  0.000  0.531  0.469
  0.500  0.234  0.266
  0.500  0.234  0.266
    occupations:
  0.937  0.000  0.000
  0.000  0.937  0.000
  0.000  0.000  0.937
atomic mag. moment =    -0.000387
atom   15   Tr[ns(na)] (up, down, total) =   2.81116  2.81114  5.62230
   spin  1
    eigenvalues: 
  0.937  0.937  0.938
    eigenvectors:
  0.085  0.582  0.333
  0.265  0.402  0.333
  0.650  0.017  0.333
    occupations:
  0.937  0.000  0.000
  0.000  0.937  0.000
  0.000  0.000  0.937
   spin  2
    eigenvalues: 
  0.937  0.937  0.938
    eigenvectors:
  0.067  0.600  0.333
  0.293  0.374  0.333
  0.640  0.027  0.333
    occupations:
  0.937  0.000  0.000
  0.000  0.937  0.000
  0.000  0.000  0.937
atomic mag. moment =     0.000018
atom   16   Tr[ns(na)] (up, down, total) =   2.81108  2.81147  5.62255
   spin  1
    eigenvalues: 
  0.937  0.937  0.938
    eigenvectors:
  0.164  0.500  0.336
  0.164  0.500  0.336
  0.671  0.000  0.329
    occupations:
  0.937  0.000  0.000
  0.000  0.937  0.000
  0.000  0.000  0.937
   spin  2
    eigenvalues: 
  0.937  0.937  0.938
    eigenvectors:
  0.500  0.234  0.266
  0.500  0.234  0.266
  0.000  0.531  0.469
    occupations:
  0.937  0.000  0.000
  0.000  0.937  0.000
  0.000  0.000  0.937
atomic mag. moment =    -0.000387
N of occupied +U levels = 114.6233918
 --- exit write_ns ---
 --- in v_hubbard ---
Hubbard energy    0.0320
 -------

     total cpu time spent up to now is      184.4 secs

     total energy              =    -941.98411664 Ry
     Harris-Foulkes estimate   =    -941.98411681 Ry
     estimated scf accuracy    <       0.00000171 Ry

     total magnetization       =     0.00 Bohr mag/cell
     absolute magnetization    =    12.29 Bohr mag/cell

     iteration #  4     ecut=    30.00 Ry     beta=0.30
     Davidson diagonalization with overlap
     ethr =  1.33E-09,  avg # of iterations =  2.0
 --- enter write_ns ---
 LDA+U parameters:
U( 1)     =  0.00000000
alpha( 1) =  0.05000000
U( 2)     =  0.00000000
alpha( 2) =  0.00000000
U( 3)     =  0.00000000
alpha( 3) =  0.00000000
U( 4)     =  0.00000000
alpha( 4) =  0.00000000
atom    1   Tr[ns(na)] (up, down, total) =   4.95230  3.74824  8.70053
   spin  1
    eigenvalues: 
  0.980  0.980  0.997  0.997  0.997
    eigenvectors:
  0.008  0.992  0.000  0.000  0.000
  0.000  0.000  0.039  0.627  0.333
  0.000  0.000  0.616  0.050  0.333
  0.992  0.008  0.000  0.000  0.000
  0.000  0.000  0.344  0.322  0.333
    occupations:
  0.980  0.000  0.000  0.000  0.000
  0.000  0.997  0.000  0.000  0.000
  0.000  0.000  0.997  0.000  0.000
  0.000  0.000  0.000  0.980  0.000
  0.000  0.000  0.000  0.000  0.997
   spin  2
    eigenvalues: 
  0.381  0.381  0.995  0.995  0.995
    eigenvectors:
  0.006  0.994  0.000  0.000  0.000
  0.000  0.000  0.042  0.624  0.333
  0.000  0.000  0.620  0.047  0.333
  0.994  0.006  0.000  0.000  0.000
  0.000  0.000  0.338  0.329  0.333
    occupations:
  0.381 -0.001  0.001  0.000 -0.001
 -0.001  0.995  0.000 -0.001  0.000
  0.001  0.000  0.995 -0.001  0.000
  0.000 -0.001 -0.001  0.381  0.000
 -0.001  0.000  0.000  0.000  0.995
atomic mag. moment =     1.204058
atom    2   Tr[ns(na)] (up, down, total) =   4.95239  3.75365  8.70604
   spin  1
    eigenvalues: 
  0.980  0.980  0.997  0.997  0.997
    eigenvectors:
  0.000  1.000  0.000  0.000  0.000
  0.000  0.000  0.500  0.175  0.325
  0.000  0.000  0.500  0.175  0.325
  1.000  0.000  0.000  0.000  0.000
  0.000  0.000  0.000  0.650  0.350
    occupations:
  0.980  0.000  0.000  0.000  0.000
  0.000  0.997  0.000  0.000  0.000
  0.000  0.000  0.997  0.000  0.000
  0.000  0.000  0.000  0.980  0.000
  0.000  0.000  0.000  0.000  0.997
   spin  2
    eigenvalues: 
  0.384  0.384  0.995  0.995  0.995
    eigenvectors:
  0.000  1.000  0.000  0.000  0.000
  0.000  0.000  0.500  0.213  0.287
  0.000  0.000  0.500  0.213  0.287
  1.000  0.000  0.000  0.000  0.000
  0.000  0.000  0.000  0.574  0.426
    occupations:
  0.384 -0.001  0.001  0.000 -0.001
 -0.001  0.995  0.000 -0.001  0.000
  0.001  0.000  0.995 -0.001  0.000
  0.000 -0.001 -0.001  0.384  0.000
 -0.001  0.000  0.000  0.000  0.995
atomic mag. moment =     1.198745
atom    3   Tr[ns(na)] (up, down, total) =   4.95239  3.75365  8.70604
   spin  1
    eigenvalues: 
  0.980  0.980  0.997  0.997  0.997
    eigenvectors:
  0.750  0.250  0.000  0.000  0.000
  0.000  0.000  0.500  0.175  0.325
  0.000  0.000  0.000  0.650  0.350
  0.250  0.750  0.000  0.000  0.000
  0.000  0.000  0.500  0.175  0.325
    occupations:
  0.980  0.000  0.000  0.000  0.000
  0.000  0.997  0.000  0.000  0.000
  0.000  0.000  0.997  0.000  0.000
  0.000  0.000  0.000  0.980  0.000
  0.000  0.000  0.000  0.000  0.997
   spin  2
    eigenvalues: 
  0.384  0.384  0.995  0.995  0.995
    eigenvectors:
  0.750  0.250  0.000  0.000  0.000
  0.000  0.000  0.500  0.213  0.287
  0.000  0.000  0.000  0.574  0.426
  0.250  0.750  0.000  0.000  0.000
  0.000  0.000  0.500  0.213  0.287
    occupations:
  0.384 -0.001  0.001  0.000 -0.001
 -0.001  0.995  0.000 -0.001  0.000
  0.001  0.000  0.995 -0.001  0.000
  0.000 -0.001 -0.001  0.384  0.000
 -0.001  0.000  0.000  0.000  0.995
atomic mag. moment =     1.198745
atom    4   Tr[ns(na)] (up, down, total) =   4.95239  3.75365  8.70604
   spin  1
    eigenvalues: 
  0.980  0.980  0.997  0.997  0.997
    eigenvectors:
  0.750  0.250  0.000  0.000  0.000
  0.000  0.000  0.000  0.650  0.350
  0.000  0.000  0.500  0.175  0.325
  0.250  0.750  0.000  0.000  0.000
  0.000  0.000  0.500  0.175  0.325
    occupations:
  0.980  0.000  0.000  0.000  0.000
  0.000  0.997  0.000  0.000  0.000
  0.000  0.000  0.997  0.000  0.000
  0.000  0.000  0.000  0.980  0.000
  0.000  0.000  0.000  0.000  0.997
   spin  2
    eigenvalues: 
  0.384  0.384  0.995  0.995  0.995
    eigenvectors:
  0.750  0.250  0.000  0.000  0.000
  0.000  0.000  0.000  0.574  0.426
  0.000  0.000  0.500  0.213  0.287
  0.250  0.750  0.000  0.000  0.000
  0.000  0.000  0.500  0.213  0.287
    occupations:
  0.384 -0.001  0.001  0.000 -0.001
 -0.001  0.995  0.000 -0.001  0.000
  0.001  0.000  0.995 -0.001  0.000
  0.000 -0.001 -0.001  0.384  0.000
 -0.001  0.000  0.000  0.000  0.995
atomic mag. moment =     1.198745
atom    5   Tr[ns(na)] (up, down, total) =   3.75370  4.95243  8.70613
   spin  1
    eigenvalues: 
  0.384  0.384  0.995  0.995  0.995
    eigenvectors:
  0.250  0.750  0.000  0.000  0.000
  0.000  0.000  0.000  0.658  0.342
  0.000  0.000  0.500  0.171  0.329
  0.750  0.250  0.000  0.000  0.000
  0.000  0.000  0.500  0.171  0.329
    occupations:
  0.384 -0.001  0.001  0.000 -0.001
 -0.001  0.995  0.000 -0.001  0.000
  0.001  0.000  0.995 -0.001  0.000
  0.000 -0.001 -0.001  0.384  0.000
 -0.001  0.000  0.000  0.000  0.995
   spin  2
    eigenvalues: 
  0.980  0.980  0.997  0.997  0.997
    eigenvectors:
  0.750  0.250  0.000  0.000  0.000
  0.000  0.000  0.000  0.501  0.499
  0.000  0.000  0.500  0.250  0.250
  0.250  0.750  0.000  0.000  0.000
  0.000  0.000  0.500  0.250  0.250
    occupations:
  0.980  0.000  0.000  0.000  0.000
  0.000  0.997  0.000  0.000  0.000
  0.000  0.000  0.997  0.000  0.000
  0.000  0.000  0.000  0.980  0.000
  0.000  0.000  0.000  0.000  0.997
atomic mag. moment =    -1.198726
atom    6   Tr[ns(na)] (up, down, total) =   3.75370  4.95243  8.70613
   spin  1
    eigenvalues: 
  0.384  0.384  0.995  0.995  0.995
    eigenvectors:
  0.250  0.750  0.000  0.000  0.000
  0.000  0.000  0.500  0.171  0.329
  0.000  0.000  0.000  0.658  0.342
  0.750  0.250  0.000  0.000  0.000
  0.000  0.000  0.500  0.171  0.329
    occupations:
  0.384 -0.001  0.001  0.000 -0.001
 -0.001  0.995  0.000 -0.001  0.000
  0.001  0.000  0.995 -0.001  0.000
  0.000 -0.001 -0.001  0.384  0.000
 -0.001  0.000  0.000  0.000  0.995
   spin  2
    eigenvalues: 
  0.980  0.980  0.997  0.997  0.997
    eigenvectors:
  0.750  0.250  0.000  0.000  0.000
  0.000  0.000  0.500  0.250  0.250
  0.000  0.000  0.000  0.501  0.499
  0.250  0.750  0.000  0.000  0.000
  0.000  0.000  0.500  0.250  0.250
    occupations:
  0.980  0.000  0.000  0.000  0.000
  0.000  0.997  0.000  0.000  0.000
  0.000  0.000  0.997  0.000  0.000
  0.000  0.000  0.000  0.980  0.000
  0.000  0.000  0.000  0.000  0.997
atomic mag. moment =    -1.198726
atom    7   Tr[ns(na)] (up, down, total) =   3.75370  4.95243  8.70613
   spin  1
    eigenvalues: 
  0.384  0.384  0.995  0.995  0.995
    eigenvectors:
  1.000  0.000  0.000  0.000  0.000
  0.000  0.000  0.500  0.171  0.329
  0.000  0.000  0.500  0.171  0.329
  0.000  1.000  0.000  0.000  0.000
  0.000  0.000  0.000  0.658  0.342
    occupations:
  0.384 -0.001  0.001  0.000 -0.001
 -0.001  0.995  0.000 -0.001  0.000
  0.001  0.000  0.995 -0.001  0.000
  0.000 -0.001 -0.001  0.384  0.000
 -0.001  0.000  0.000  0.000  0.995
   spin  2
    eigenvalues: 
  0.980  0.980  0.997  0.997  0.997
    eigenvectors:
  0.000  1.000  0.000  0.000  0.000
  0.000  0.000  0.500  0.250  0.250
  0.000  0.000  0.500  0.250  0.250
  1.000  0.000  0.000  0.000  0.000
  0.000  0.000  0.000  0.501  0.499
    occupations:
  0.980  0.000  0.000  0.000  0.000
  0.000  0.997  0.000  0.000  0.000
  0.000  0.000  0.997  0.000  0.000
[...]
    10.6601  10.6686  10.8705  10.8724  10.9641  10.9664  11.2445  11.2486
    11.2533  11.2582  11.2980  11.3030  11.3306  11.3369  11.4330  11.4366
    13.0388  13.0423  13.0453  13.0495  13.0533  13.0629  13.0637  13.0723
    16.4827  16.4836  19.6534  19.6539  19.7125

     occupation numbers 
     0.0469   0.0469   0.0469   0.0469   0.0469   0.0469   0.0469   0.0469
     0.0469   0.0469   0.0469   0.0469   0.0469   0.0469   0.0469   0.0469
     0.0469   0.0469   0.0469   0.0469   0.0469   0.0469   0.0469   0.0469
     0.0469   0.0469   0.0469   0.0469   0.0469   0.0469   0.0469   0.0469
     0.0469   0.0469   0.0469   0.0469   0.0469   0.0469   0.0469   0.0469
     0.0469   0.0469   0.0469   0.0469   0.0469   0.0469   0.0469   0.0469
     0.0469   0.0469   0.0469   0.0469   0.0469   0.0469   0.0469   0.0469
     0.0469   0.0469   0.0469   0.0469   0.0469   0.0469   0.0469   0.0469
     0.0000   0.0000   0.0000   0.0000   0.0000   0.0000   0.0000   0.0000
     0.0000   0.0000   0.0000   0.0000   0.0000

          k = 0.0000 0.5000 0.0000 (  2706 PWs)   bands (ev):

    -7.8486  -6.8041  -6.7507  -6.7506  -6.7501  -6.7495  -6.5636  -6.5615
     4.4898   4.4926   4.4940   4.4977   5.2319   5.5200   5.5200   6.5274
     6.5278   6.5481   6.5852   6.5927   6.6205   6.6226   6.6804   7.0616
     7.0617   7.1677   7.1701   7.4621   7.9699   7.9751   8.6504   8.6596
     8.9579   9.5352   9.6287   9.6290   9.8150   9.9803  10.0565  10.0567
    10.0961  10.1122  10.1861  10.2795  10.2798  10.3975  10.4116  10.5451
    10.5468  10.6140  10.6146  10.6591  10.9150  11.0094  11.0126  11.0512
    11.0593  11.1723  11.2446  11.2955  11.2989  11.3470  11.3529  11.3818
    12.8800  13.0386  13.0403  13.0496  13.5250  13.5683  13.6441  13.6487
    15.2139  18.5669  18.5679  18.5681  18.5691

     occupation numbers 
     0.0938   0.0938   0.0938   0.0938   0.0938   0.0938   0.0938   0.0938
     0.0938   0.0938   0.0938   0.0938   0.0938   0.0938   0.0938   0.0938
     0.0938   0.0938   0.0938   0.0938   0.0938   0.0938   0.0938   0.0938
     0.0938   0.0938   0.0938   0.0938   0.0938   0.0938   0.0938   0.0938
     0.0938   0.0938   0.0938   0.0938   0.0938   0.0938   0.0938   0.0938
     0.0938   0.0938   0.0938   0.0938   0.0938   0.0938   0.0938   0.0938
     0.0938   0.0938   0.0938   0.0938   0.0938   0.0938   0.0938   0.0938
     0.0938   0.0937   0.0937   0.0937   0.0937   0.0937   0.0937   0.0937
     0.0000   0.0000   0.0000   0.0000   0.0000   0.0000   0.0000   0.0000
     0.0000   0.0000   0.0000   0.0000   0.0000

          k = 0.7500-0.2500 0.7500 (  2734 PWs)   bands (ev):

    -7.4989  -7.1683  -6.9628  -6.7672  -6.7666  -6.5919  -6.5525  -6.5506
     4.9628   4.9660   4.9774   5.3059   5.4228   5.4979   5.5200   6.1747
     6.2093   6.2350   6.2640   6.5879   6.5908   6.7448   6.7479   6.8602
     6.8893   6.9224   6.9931   7.3569   7.3754   7.7197   7.7596   8.0147
     9.4575   9.6518   9.8219   9.8950   9.9559   9.9684  10.0367  10.1380
    10.1410  10.1687  10.2106  10.2882  10.3168  10.3222  10.4778  10.5112
    10.7322  10.7379  10.7434  10.7535  10.8793  10.9087  11.0423  11.0793
    11.1692  11.1968  11.2277  11.2595  11.3336  11.3377  11.3556  11.4122
    12.7410  12.7857  12.8370  12.9336  13.2369  13.2604  13.3662  13.4351
    16.6947  17.6024  18.6707  19.3627  19.3643

     occupation numbers 
     0.1875   0.1875   0.1875   0.1875   0.1875   0.1875   0.1875   0.1875
     0.1875   0.1875   0.1875   0.1875   0.1875   0.1875   0.1875   0.1875
     0.1875   0.1875   0.1875   0.1875   0.1875   0.1875   0.1875   0.1875
     0.1875   0.1875   0.1875   0.1875   0.1875   0.1875   0.1875   0.1875
     0.1875   0.1875   0.1875   0.1875   0.1875   0.1875   0.1875   0.1875
     0.1875   0.1875   0.1875   0.1875   0.1875   0.1875   0.1875   0.1875
     0.1875   0.1875   0.1875   0.1875   0.1875   0.1875   0.1875   0.1875
     0.1875   0.1875   0.1875   0.1875   0.1875   0.1875   0.1875   0.1875
     0.0000   0.0000   0.0000   0.0000   0.0000   0.0000   0.0000   0.0000
     0.0000   0.0000   0.0000   0.0000   0.0000

          k = 0.5000 0.0000 0.5000 (  2742 PWs)   bands (ev):

    -7.6369  -7.0132  -7.0130  -6.7158  -6.7155  -6.5993  -6.5982  -6.5419
     4.7705   4.7762   5.0658   5.0681   5.2623   5.2631   5.6996   5.9637
     6.2851   6.3015   6.5262   6.7191   6.7439   6.7453   6.9123   6.9137
     6.9305   7.1575   7.1598   7.1890   7.4502   7.4529   7.6313   8.1235
     9.6584   9.6592   9.7900   9.8500   9.9056   9.9070  10.0456  10.1118
    10.1333  10.2265  10.2290  10.2291  10.2304  10.3615  10.3637  10.5162
    10.7205  10.7514  10.7525  10.8274  10.9060  11.0961  11.0983  11.1167
    11.2093  11.2127  11.2347  11.2460  11.2792  11.3470  11.4060  11.4085
    13.0428  13.0484  13.0569  13.0651  13.1155  13.1514  13.1566  13.2858
    16.0079  18.0610  18.0622  19.3771  19.3791

     occupation numbers 
     0.0938   0.0938   0.0938   0.0938   0.0938   0.0938   0.0938   0.0938
     0.0938   0.0938   0.0938   0.0938   0.0938   0.0938   0.0938   0.0938
     0.0938   0.0938   0.0938   0.0938   0.0938   0.0938   0.0938   0.0938
     0.0938   0.0938   0.0938   0.0938   0.0938   0.0938   0.0938   0.0938
     0.0938   0.0938   0.0938   0.0938   0.0938   0.0938   0.0938   0.0938
     0.0938   0.0938   0.0938   0.0938   0.0938   0.0938   0.0938   0.0938
     0.0938   0.0938   0.0938   0.0938   0.0938   0.0938   0.0938   0.0938
     0.0937   0.0937   0.0937   0.0937   0.0937   0.0937   0.0937   0.0937
     0.0000   0.0000   0.0000   0.0000   0.0000   0.0000   0.0000   0.0000
     0.0000   0.0000   0.0000   0.0000   0.0000

          k = 0.0000-1.0000 0.0000 (  2762 PWs)   bands (ev):

    -7.3073  -7.3066  -6.8133  -6.8132  -6.8127  -6.8115  -6.5097  -6.5073
     5.0189   5.0194   5.0260   5.0281   5.7684   5.7702   6.0982   6.1008
     6.1040   6.1069   6.4030   6.4049   6.6506   6.6526   6.6829   6.6854
     6.7216   6.7250   6.7281   6.7318   8.1482   8.1500   8.1593   8.1614
     9.2494   9.2536   9.9499   9.9507  10.0303  10.0311  10.0454  10.0458
    10.0486  10.0526  10.1695  10.1708  10.3495  10.3506  10.4960  10.4961
    10.5187  10.5224  10.5818  10.5821  10.9115  10.9196  11.0047  11.0099
    11.1479  11.1538  11.2261  11.2332  11.3359  11.3403  11.3419  11.3467
    12.4614  12.4701  12.7195  12.7265  13.5172  13.5209  13.6171  13.6218
    17.6663  17.6681  19.2521  19.2522  19.2529

     occupation numbers 
     0.0469   0.0469   0.0469   0.0469   0.0469   0.0469   0.0469   0.0469
     0.0469   0.0469   0.0469   0.0469   0.0469   0.0469   0.0469   0.0469
     0.0469   0.0469   0.0469   0.0469   0.0469   0.0469   0.0469   0.0469
     0.0469   0.0469   0.0469   0.0469   0.0469   0.0469   0.0469   0.0469
     0.0469   0.0469   0.0469   0.0469   0.0469   0.0469   0.0469   0.0469
     0.0469   0.0469   0.0469   0.0469   0.0469   0.0469   0.0469   0.0469
     0.0469   0.0469   0.0469   0.0469   0.0469   0.0469   0.0469   0.0469
     0.0469   0.0469   0.0469   0.0469   0.0469   0.0469   0.0469   0.0469
     0.0000   0.0000   0.0000   0.0000   0.0000   0.0000   0.0000   0.0000
     0.0000   0.0000   0.0000   0.0000   0.0000

          k =-0.5000-1.0000 0.0000 (  2740 PWs)   bands (ev):

    -7.1483  -7.1481  -7.1477  -7.1467  -6.5771  -6.5734  -6.5732  -6.5687
     5.2794   5.2815   5.2828   5.3286   5.3795   5.5425   5.5425   5.6543
     6.2233   6.2532   6.2547   6.2866   6.6198   6.6202   6.6336   6.7619
     6.9002   7.2673   7.2697   7.4617   7.4784   7.5054   7.5064   7.5585
     9.7119   9.7389   9.7392   9.8072   9.9873  10.0379  10.0382  10.0694
    10.1185  10.2721  10.2886  10.2888  10.3453  10.3460  10.4002  10.4644
    10.6160  10.6640  10.6640  10.6902  10.9487  10.9506  10.9719  10.9926
    11.1755  11.1851  11.1910  11.2822  11.2977  11.3019  11.3680  11.3687
    12.7769  12.8886  12.8948  13.0053  13.1561  13.1982  13.2037  13.2465
    18.0183  18.0360  18.0371  18.0564  20.8598

     occupation numbers 
     0.0938   0.0938   0.0938   0.0938   0.0938   0.0938   0.0938   0.0938
     0.0938   0.0938   0.0938   0.0938   0.0938   0.0938   0.0938   0.0938
     0.0938   0.0938   0.0938   0.0938   0.0938   0.0938   0.0938   0.0938
     0.0938   0.0938   0.0938   0.0938   0.0938   0.0938   0.0938   0.0938
     0.0938   0.0938   0.0938   0.0938   0.0938   0.0938   0.0938   0.0938
     0.0938   0.0938   0.0938   0.0938   0.0938   0.0938   0.0938   0.0938
     0.0938   0.0938   0.0938   0.0938   0.0938   0.0938   0.0938   0.0938
     0.0937   0.0937   0.0937   0.0937   0.0937   0.0937   0.0937   0.0937
     0.0000   0.0000   0.0000   0.0000   0.0000   0.0000   0.0000   0.0000
     0.0000   0.0000   0.0000   0.0000   0.0000

          k =-0.2500 0.2500 0.2500 (  2743 PWs)   bands (ev):

    -7.9019  -6.9254  -6.6805  -6.6805  -6.6803  -6.6298  -6.6274  -6.6274
     4.3457   4.3492   4.3492   4.6112   5.3426   5.3428   5.3428   6.4792
     6.4798   6.4798   6.6219   6.6231   6.6231   6.6969   6.6969   7.2125
     7.2141   7.2141   7.7054   7.7067   7.7067   7.9732   8.4537   8.4537
     9.2637   9.2637   9.2637   9.6191   9.6191  10.0029  10.0657  10.0660
    10.0660  10.2778  10.2778  10.2794  10.6038  10.6038  10.6050  10.6249
    10.6249  10.7241  10.7250  10.7250  10.9171  10.9171  10.9424  10.9439
    10.9439  11.0368  11.2571  11.2620  11.2620  11.3970  11.3970  11.3993
    13.3356  13.3356  13.3504  13.3523  13.3523  13.3578  13.3644  13.3644
    14.7674  17.5956  18.6755  18.6755  18.6762

     occupation numbers 
     0.0313   0.0313   0.0313   0.0313   0.0313   0.0313   0.0313   0.0313
     0.0313   0.0313   0.0313   0.0313   0.0313   0.0313   0.0313   0.0313
     0.0313   0.0313   0.0313   0.0313   0.0313   0.0313   0.0313   0.0313
     0.0313   0.0313   0.0313   0.0313   0.0313   0.0313   0.0313   0.0313
     0.0313   0.0313   0.0313   0.0313   0.0313   0.0313   0.0313   0.0313
     0.0313   0.0313   0.0313   0.0313   0.0313   0.0313   0.0313   0.0313
     0.0313   0.0313   0.0313   0.0313   0.0313   0.0313   0.0313   0.0313
     0.0313   0.0313   0.0312   0.0312   0.0312   0.0312   0.0312   0.0312
     0.0000   0.0000   0.0000   0.0000   0.0000   0.0000   0.0000   0.0000
     0.0000   0.0000   0.0000   0.0000   0.0000

          k = 0.5000-0.5000-0.5000 (  2764 PWs)   bands (ev):

    -7.4487  -7.4402  -6.6691  -6.6691  -6.6687  -6.6485  -6.6459  -6.6459
     5.0098   5.0107   5.0107   5.1112   5.1149   5.1149   6.0786   6.1195
     6.2594   6.2594   6.2599   6.6917   6.6937   6.6937   6.7496   6.7496
     6.7499   6.9796   6.9796   7.4468   7.4503   7.4503   7.8664   7.8664
     9.4913   9.4913   9.4915   9.6746   9.6746  10.1169  10.1216  10.1216
    10.1216  10.4541  10.4541  10.4565  10.5077  10.5077  10.5077  10.7317
    10.7317  10.8431  10.8431  10.8435  10.8754  11.0567  11.0567  11.0570
    11.2454  11.2503  11.2503  11.3004  11.3004  11.4047  11.4047  11.4071
    13.0402  13.0431  13.0431  13.0588  13.0588  13.0715  13.0792  13.0792
    16.4106  16.5597  19.6314  19.6314  19.6319

     occupation numbers 
     0.0156   0.0156   0.0156   0.0156   0.0156   0.0156   0.0156   0.0156
     0.0156   0.0156   0.0156   0.0156   0.0156   0.0156   0.0156   0.0156
     0.0156   0.0156   0.0156   0.0156   0.0156   0.0156   0.0156   0.0156
     0.0156   0.0156   0.0156   0.0156   0.0156   0.0156   0.0156   0.0156
     0.0156   0.0156   0.0156   0.0156   0.0156   0.0156   0.0156   0.0156
     0.0156   0.0156   0.0156   0.0156   0.0156   0.0156   0.0156   0.0156
     0.0156   0.0156   0.0156   0.0156   0.0156   0.0156   0.0156   0.0156
     0.0156   0.0156   0.0156   0.0156   0.0156   0.0156   0.0156   0.0156
     0.0000   0.0000   0.0000   0.0000   0.0000   0.0000   0.0000   0.0000
     0.0000   0.0000   0.0000   0.0000   0.0000

          k =-0.7500 0.7500-0.2500 (  2734 PWs)   bands (ev):

    -7.4988  -7.1684  -6.9628  -6.7671  -6.7665  -6.5920  -6.5525  -6.5506
     4.9689   4.9734   4.9742   5.2429   5.4992   5.5024   5.5041   6.1219
     6.2282   6.2297   6.3443   6.5665   6.5681   6.6609   6.8200   6.8216
     6.8289   7.0419   7.0431   7.1551   7.5049   7.7456   7.7720   7.9997
     9.3823   9.5576   9.9438   9.9445  10.0212  10.0225  10.0435  10.0450
    10.0575  10.1781  10.2143  10.2146  10.4003  10.4441  10.4992  10.4994
    10.6612  10.6974  10.6978  10.7127  10.8975  10.9506  11.0963  11.1002
    11.2169  11.2200  11.2355  11.2714  11.2794  11.2825  11.3486  11.3535
    12.7436  12.8026  12.8815  12.8883  13.2564  13.3420  13.3464  13.3572
    16.6942  17.6035  18.6724  19.3610  19.3612

     occupation numbers 
     0.0938   0.0938   0.0938   0.0938   0.0938   0.0938   0.0938   0.0938
     0.0938   0.0938   0.0938   0.0938   0.0938   0.0938   0.0938   0.0938
     0.0938   0.0938   0.0938   0.0938   0.0938   0.0938   0.0938   0.0938
     0.0938   0.0938   0.0938   0.0938   0.0938   0.0938   0.0938   0.0938
     0.0938   0.0938   0.0938   0.0938   0.0938   0.0938   0.0938   0.0938
     0.0938   0.0938   0.0938   0.0938   0.0938   0.0938   0.0938   0.0938
     0.0938   0.0938   0.0938   0.0938   0.0938   0.0938   0.0938   0.0938
     0.0937   0.0937   0.0937   0.0937   0.0937   0.0937   0.0937   0.0937
     0.0000   0.0000   0.0000   0.0000   0.0000   0.0000   0.0000   0.0000
     0.0000   0.0000   0.0000   0.0000   0.0000

          k = 0.7500-0.7500-0.2500 (  2734 PWs)   bands (ev):

    -7.4989  -7.1684  -6.9628  -6.7673  -6.7667  -6.5916  -6.5523  -6.5503
     4.9629   4.9726   4.9732   5.2834   5.4379   5.4975   5.4992   6.2211
     6.2258   6.2272   6.2637   6.6531   6.6654   6.6664   6.6973   6.6996
     6.8285   7.0804   7.0817   7.2698   7.3803   7.7534   7.7614   8.0514
     9.3544   9.5445   9.7605   9.7605   9.7849  10.0603  10.0962  10.0964
    10.2878  10.2895  10.4217  10.4224  10.4431  10.5551  10.5557  10.5597
    10.5726  10.6507  10.6517  10.6523  10.8439  10.8810  10.8836  10.9627
    11.0728  11.2448  11.2768  11.3040  11.3042  11.3622  11.3646  11.4258
    12.6963  12.8427  12.8842  12.8913  13.2826  13.3362  13.3427  13.3497
    16.6941  17.6050  18.6702  19.3601  19.3603

     occupation numbers 
     0.0938   0.0938   0.0938   0.0938   0.0938   0.0938   0.0938   0.0938
     0.0938   0.0938   0.0938   0.0938   0.0938   0.0938   0.0938   0.0938
     0.0938   0.0938   0.0938   0.0938   0.0938   0.0938   0.0938   0.0938
     0.0938   0.0938   0.0938   0.0938   0.0938   0.0938   0.0938   0.0938
     0.0938   0.0938   0.0938   0.0938   0.0938   0.0938   0.0938   0.0938
     0.0938   0.0938   0.0938   0.0938   0.0938   0.0938   0.0938   0.0938
     0.0938   0.0938   0.0938   0.0938   0.0938   0.0938   0.0938   0.0938
     0.0938   0.0937   0.0937   0.0937   0.0937   0.0937   0.0937   0.0937
     0.0000   0.0000   0.0000   0.0000   0.0000   0.0000   0.0000   0.0000
     0.0000   0.0000   0.0000   0.0000   0.0000

          k =-0.5000 0.5000 0.0000 (  2742 PWs)   bands (ev):

    -7.6370  -7.0133  -7.0131  -6.7161  -6.7160  -6.5988  -6.5975  -6.5419
     4.7700   4.7726   5.0760   5.0815   5.2410   5.2413   5.7014   5.9662
     6.3142   6.3150   6.5842   6.6759   6.6777   6.7890   6.8577   6.9210
     7.0163   7.1600   7.1625   7.2042   7.2053   7.4875   7.8343   8.1214
     9.5569   9.6088   9.6375   9.6379   9.7751  10.0747  10.0752  10.1312
    10.2431  10.2454  10.3062  10.3878  10.4487  10.5604  10.5610  10.5623
    10.6352  10.6647  10.6657  10.7469  10.7659  10.8219  11.0504  11.0522
    11.1081  11.2718  11.2748  11.3428  11.3711  11.3742  11.3874  11.4072
    13.0451  13.0482  13.0541  13.0642  13.0660  13.2064  13.2106  13.2392
    16.0092  18.0606  18.0628  19.3727  19.3745

     occupation numbers 
     0.0938   0.0938   0.0938   0.0938   0.0938   0.0938   0.0938   0.0938
     0.0938   0.0938   0.0938   0.0938   0.0938   0.0938   0.0938   0.0938
     0.0938   0.0938   0.0938   0.0938   0.0938   0.0938   0.0938   0.0938
     0.0938   0.0938   0.0938   0.0938   0.0938   0.0938   0.0938   0.0938
     0.0938   0.0938   0.0938   0.0938   0.0938   0.0938   0.0938   0.0938
     0.0938   0.0938   0.0938   0.0938   0.0938   0.0938   0.0938   0.0938
     0.0938   0.0938   0.0938   0.0938   0.0938   0.0938   0.0938   0.0938
     0.0938   0.0937   0.0937   0.0937   0.0937   0.0937   0.0937   0.0937
     0.0000   0.0000   0.0000   0.0000   0.0000   0.0000   0.0000   0.0000
     0.0000   0.0000   0.0000   0.0000   0.0000

     the Fermi energy is    11.9586 ev

!    total energy              =    -941.98411713 Ry
     Harris-Foulkes estimate   =    -941.98411712 Ry
     estimated scf accuracy    <          3.7E-09 Ry

     The total energy is the sum of the following terms:

     one-electron contribution =     -56.32374386 Ry
     hartree contribution      =     175.70531478 Ry
     xc contribution           =    -297.54025578 Ry
     ewald contribution        =    -763.85740583 Ry
     Hubbard energy            =       0.03197356 Ry
     smearing contrib. (-TS)   =       0.00000000 Ry

     total magnetization       =     0.00 Bohr mag/cell
     absolute magnetization    =    12.29 Bohr mag/cell

     convergence has been achieved in   7 iterations

     init_run     :     11.39s CPU     11.52s WALL (       1 calls)
     electrons    :    335.73s CPU    337.14s WALL (       1 calls)

     Called by init_run:
     wfcinit      :      0.00s CPU      0.00s WALL (       1 calls)
     potinit      :      1.01s CPU      1.03s WALL (       1 calls)

     Called by electrons:
     c_bands      :    245.08s CPU    245.67s WALL (       7 calls)
     sum_band     :     60.42s CPU     60.69s WALL (       7 calls)
     v_of_rho     :      7.19s CPU      7.21s WALL (       8 calls)
     v_h          :      0.14s CPU      0.14s WALL (       8 calls)
     v_xc         :      7.05s CPU      7.07s WALL (       8 calls)
     newd         :     26.22s CPU     26.23s WALL (       8 calls)
     mix_rho      :      0.42s CPU      0.43s WALL (       7 calls)

     Called by c_bands:
     init_us_2    :      1.93s CPU      1.94s WALL (     364 calls)
     cegterg      :    237.56s CPU    237.90s WALL (     182 calls)

     Called by sum_band:
     sum_band:bec :      0.41s CPU      0.41s WALL (     182 calls)
     addusdens    :     23.37s CPU     23.37s WALL (       7 calls)

     Called by *egterg:
     h_psi        :    152.57s CPU    152.81s WALL (     677 calls)
     s_psi        :     14.35s CPU     14.35s WALL (     677 calls)
     g_psi        :      0.76s CPU      0.77s WALL (     495 calls)
     cdiaghg      :     32.17s CPU     32.19s WALL (     651 calls)
     cegterg:over :     14.68s CPU     14.69s WALL (     495 calls)
     cegterg:upda :      9.39s CPU      9.40s WALL (     495 calls)
     cegterg:last :      5.53s CPU      5.56s WALL (     188 calls)

     Called by h_psi:
     h_psi:vloc   :    108.38s CPU    108.60s WALL (     677 calls)
     h_psi:vnl    :     28.74s CPU     28.75s WALL (     677 calls)
     add_vuspsi   :     14.34s CPU     14.34s WALL (     677 calls)
     vhpsi        :     15.08s CPU     15.09s WALL (     677 calls)

     General routines
     calbec       :     28.17s CPU     28.20s WALL (    1718 calls)
     fft          :      3.27s CPU      3.34s WALL (     236 calls)
     ffts         :      0.08s CPU      0.08s WALL (      30 calls)
     fftw         :    107.56s CPU    107.82s WALL (   79830 calls)
     interpolate  :      0.53s CPU      0.60s WALL (      30 calls)
     davcio       :      0.01s CPU      0.50s WALL (     390 calls)

     Parallel routines
     fft_scatter  :     26.45s CPU     26.44s WALL (   80096 calls)
     Hubbard U routines
     new_ns       :      2.53s CPU      2.74s WALL (       7 calls)
     vhpsi        :     15.08s CPU     15.09s WALL (     677 calls)

     PWSCF        :  5m47.64s CPU     5m49.75s WALL


   This run was terminated on:  15:39:54  13Nov2012            

=------------------------------------------------------------------------------=
