   JOB DONE.
=------------------------------------------------------------------------------=

     Program PWSCF v.5.0.1 starts on 13Nov2012 at 15:25:17 

     This program is part of the open-source Quantum ESPRESSO suite
     for quantum simulation of materials; please cite
         "P. Giannozzi et al., J. Phys.:Condens. Matter 21 395502 (2009);
          URL http://www.quantum-espresso.org", 
     in publications or presentations arising from this work. More details at
     http://www.quantum-espresso.org/quote.php

     Parallel version (MPI), running on     2 processors
     R & G space division:  proc/pool =    2

     Current dimensions of program PWSCF are:
     Max number of different atomic species (ntypx) = 10
     Max number of k-points (npk) =  40000
     Max angular momentum in pseudopotentials (lmaxx) =  3
     Reading input from NiO_U0_a-5.in
               file Ni.pbe-nd-rrkjus.UPF: wavefunction(s)  4S renormalized
               file Ni.pbe-nd-rrkjus.UPF: wavefunction(s)  4S renormalized
               file Ni.pbe-nd-rrkjus.UPF: wavefunction(s)  4S renormalized
               file O.pbe-rrkjus.UPF: wavefunction(s)  2S renormalized

     Subspace diagonalization in iterative solution of the eigenvalue problem:
     a serial algorithm will be used


     Parallelization info
     --------------------
     sticks:   dense  smooth     PW     G-vecs:    dense   smooth      PW
     Min        1293     519    150                43273    11032    1738
     Max        1294     520    151                43274    11043    1741
     Sum        2587    1039    301                86547    22075    3479


     Title: 
     GGA + U, U = 1D-40, alpha = -0.050                                         


     bravais-lattice index     =            2
     lattice parameter (alat)  =      15.8000  a.u.
     unit-cell volume          =     986.0780 (a.u.)^3
     number of atoms/cell      =           16
     number of atomic types    =            4
     number of electrons       =       128.00
     number of Kohn-Sham states=           77
     kinetic-energy cutoff     =      30.0000  Ry
     charge density cutoff     =     300.0000  Ry
     convergence threshold     =      1.0E-08
     mixing beta               =       0.3000
     number of iterations used =            8  plain     mixing
     Exchange-correlation      =  SLA  PW   PBE  PBE ( 1 4 3 4 0)
     EXX-fraction              =        0.00

     celldm(1)=  15.800000  celldm(2)=   0.000000  celldm(3)=   0.000000
     celldm(4)=   0.000000  celldm(5)=   0.000000  celldm(6)=   0.000000

     crystal axes: (cart. coord. in units of alat)
               a(1) = (  -0.500000   0.000000   0.500000 )  
               a(2) = (   0.000000   0.500000   0.500000 )  
               a(3) = (  -0.500000   0.500000   0.000000 )  

     reciprocal axes: (cart. coord. in units 2 pi/alat)
               b(1) = ( -1.000000 -1.000000  1.000000 )  
               b(2) = (  1.000000  1.000000  1.000000 )  
               b(3) = ( -1.000000  1.000000 -1.000000 )  


     PseudoPot. # 1 for Ni read from file:
     /home/mcurnan/dft-course/Project1/example_NiO/Ni.pbe-nd-rrkjus.UPF
     MD5 check sum: 8081f0a005c9a5470caab1a58e82ecb2
     Pseudo is Ultrasoft + core correction, Zval = 10.0
     Generated by new atomic code, or converted to UPF format
     Using radial grid of 1203 points,  6 beta functions with: 
                l(1) =   0
                l(2) =   0
                l(3) =   1
                l(4) =   1
                l(5) =   2
                l(6) =   2
     Q(r) pseudized with 0 coefficients 


     PseudoPot. # 2 for Ni read from file:
     /home/mcurnan/dft-course/Project1/example_NiO/Ni.pbe-nd-rrkjus.UPF
     MD5 check sum: 8081f0a005c9a5470caab1a58e82ecb2
     Pseudo is Ultrasoft + core correction, Zval = 10.0
     Generated by new atomic code, or converted to UPF format
     Using radial grid of 1203 points,  6 beta functions with: 
                l(1) =   0
                l(2) =   0
                l(3) =   1
                l(4) =   1
                l(5) =   2
                l(6) =   2
     Q(r) pseudized with 0 coefficients 


     PseudoPot. # 3 for Ni read from file:
     /home/mcurnan/dft-course/Project1/example_NiO/Ni.pbe-nd-rrkjus.UPF
     MD5 check sum: 8081f0a005c9a5470caab1a58e82ecb2
     Pseudo is Ultrasoft + core correction, Zval = 10.0
     Generated by new atomic code, or converted to UPF format
     Using radial grid of 1203 points,  6 beta functions with: 
                l(1) =   0
                l(2) =   0
                l(3) =   1
                l(4) =   1
                l(5) =   2
                l(6) =   2
     Q(r) pseudized with 0 coefficients 


     PseudoPot. # 4 for O  read from file:
     /home/mcurnan/dft-course/Project1/example_NiO/O.pbe-rrkjus.UPF
     MD5 check sum: 390ba29e75625707450f3bd3f0eb6be9
     Pseudo is Ultrasoft, Zval =  6.0
     Generated by new atomic code, or converted to UPF format
     Using radial grid of 1269 points,  4 beta functions with: 
                l(1) =   0
                l(2) =   0
                l(3) =   1
                l(4) =   1
     Q(r) pseudized with 0 coefficients 


     atomic species   valence    mass     pseudopotential
        Ni1           10.00     1.00000     Ni( 1.00)
        Ni2           10.00     1.00000     Ni( 1.00)
        Ni3           10.00     1.00000     Ni( 1.00)
        O1             6.00     1.00000     O ( 1.00)

     Starting magnetic structure 
     atomic species   magnetization
        Ni1          0.500
        Ni2          0.500
        Ni3         -0.500
        O1           0.000
 -----
     simplified LDA+U calculation, Hubbard_lmax = 2
     atomic species  L   Hubbard U  Hubbard alpha
        Ni1          2    0.000000   -0.050000
        Ni2          2    0.000000    0.000000
        Ni3          2    0.000000    0.000000
        O1           1    0.000000    0.000000
 -----

     12 Sym. Ops., with inversion, found


                                    s                        frac. trans.

      isym =  1     identity                                     

 cryst.   s( 1) = (     1          0          0      )
                  (     0          1          0      )
                  (     0          0          1      )

 cart.    s( 1) = (  1.0000000  0.0000000  0.0000000 )
                  (  0.0000000  1.0000000  0.0000000 )
                  (  0.0000000  0.0000000  1.0000000 )


      isym =  2     180 deg rotation - cart. axis [1,1,0]        

 cryst.   s( 2) = (     0         -1          0      )
                  (    -1          0          0      )
                  (     0          0         -1      )

 cart.    s( 2) = (  0.0000000  1.0000000  0.0000000 )
                  (  1.0000000  0.0000000  0.0000000 )
                  (  0.0000000  0.0000000 -1.0000000 )


      isym =  3     180 deg rotation - cart. axis [1,0,1]        

 cryst.   s( 3) = (    -1          0          0      )
                  (     0          0         -1      )
                  (     0         -1          0      )

 cart.    s( 3) = (  0.0000000  0.0000000  1.0000000 )
                  (  0.0000000 -1.0000000  0.0000000 )
                  (  1.0000000  0.0000000  0.0000000 )


      isym =  4     180 deg rotation - cart. axis [0,1,-1]       

 cryst.   s( 4) = (     0          0         -1      )
                  (     0         -1          0      )
                  (    -1          0          0      )

 cart.    s( 4) = ( -1.0000000  0.0000000  0.0000000 )
                  (  0.0000000  0.0000000 -1.0000000 )
                  (  0.0000000 -1.0000000  0.0000000 )


      isym =  5     120 deg rotation - cart. axis [-1,1,1]       

 cryst.   s( 5) = (     0          1          0      )
                  (     0          0          1      )
                  (     1          0          0      )

 cart.    s( 5) = (  0.0000000 -1.0000000  0.0000000 )
                  (  0.0000000  0.0000000  1.0000000 )
                  ( -1.0000000  0.0000000  0.0000000 )


      isym =  6     120 deg rotation - cart. axis [1,-1,-1]      

 cryst.   s( 6) = (     0          0          1      )
                  (     1          0          0      )
                  (     0          1          0      )

 cart.    s( 6) = (  0.0000000  0.0000000 -1.0000000 )
                  ( -1.0000000  0.0000000  0.0000000 )
                  (  0.0000000  1.0000000  0.0000000 )


      isym =  7     inversion                                    

 cryst.   s( 7) = (    -1          0          0      )
                  (     0         -1          0      )
                  (     0          0         -1      )

 cart.    s( 7) = ( -1.0000000  0.0000000  0.0000000 )
                  (  0.0000000 -1.0000000  0.0000000 )
                  (  0.0000000  0.0000000 -1.0000000 )


      isym =  8     inv. 180 deg rotation - cart. axis [1,1,0]   

 cryst.   s( 8) = (     0          1          0      )
                  (     1          0          0      )
                  (     0          0          1      )

 cart.    s( 8) = (  0.0000000 -1.0000000  0.0000000 )
                  ( -1.0000000  0.0000000  0.0000000 )
                  (  0.0000000  0.0000000  1.0000000 )


      isym =  9     inv. 180 deg rotation - cart. axis [1,0,1]   

 cryst.   s( 9) = (     1          0          0      )
                  (     0          0          1      )
                  (     0          1          0      )

 cart.    s( 9) = (  0.0000000  0.0000000 -1.0000000 )
                  (  0.0000000  1.0000000  0.0000000 )
                  ( -1.0000000  0.0000000  0.0000000 )


      isym = 10     inv. 180 deg rotation - cart. axis [0,1,-1]  

 cryst.   s(10) = (     0          0          1      )
                  (     0          1          0      )
                  (     1          0          0      )

 cart.    s(10) = (  1.0000000  0.0000000  0.0000000 )
                  (  0.0000000  0.0000000  1.0000000 )
                  (  0.0000000  1.0000000  0.0000000 )


      isym = 11     inv. 120 deg rotation - cart. axis [-1,1,1]  

 cryst.   s(11) = (     0         -1          0      )
                  (     0          0         -1      )
                  (    -1          0          0      )

 cart.    s(11) = (  0.0000000  1.0000000  0.0000000 )
                  (  0.0000000  0.0000000 -1.0000000 )
                  (  1.0000000  0.0000000  0.0000000 )


      isym = 12     inv. 120 deg rotation - cart. axis [1,-1,-1] 

 cryst.   s(12) = (     0          0         -1      )
                  (    -1          0          0      )
                  (     0         -1          0      )

 cart.    s(12) = (  0.0000000  0.0000000  1.0000000 )
                  (  1.0000000  0.0000000  0.0000000 )
                  (  0.0000000 -1.0000000  0.0000000 )


     point group D_3d (-3m) 
     there are  6 classes
     the character table:

       E     2C3   3C2'  i     2S6   3s_d 
A_1g   1.00  1.00  1.00  1.00  1.00  1.00
A_2g   1.00  1.00 -1.00  1.00  1.00 -1.00
E_g    2.00 -1.00  0.00  2.00 -1.00  0.00
A_1u   1.00  1.00  1.00 -1.00 -1.00 -1.00
A_2u   1.00  1.00 -1.00 -1.00 -1.00  1.00
E_u    2.00 -1.00  0.00 -2.00  1.00  0.00

     the symmetry operations in each class:
     E        1
     3C2'     2    4    3
     2C3      5    6
     i        7
     3s_d     8   10    9
     2S6     11   12

   Cartesian axes

     site n.     atom                  positions (alat units)
         1           Ni1 tau(   1) = (   0.0000000   0.0000000   0.0000000  )
         2           Ni2 tau(   2) = (  -0.2500000   0.2500000   0.5000000  )
         3           Ni2 tau(   3) = (  -0.5000000   0.2500000   0.2500000  )
         4           Ni2 tau(   4) = (  -0.2500000   0.5000000   0.2500000  )
         5           Ni3 tau(   5) = (  -0.2500000   0.0000000   0.2500000  )
         6           Ni3 tau(   6) = (   0.0000000   0.2500000   0.2500000  )
         7           Ni3 tau(   7) = (  -0.2500000   0.2500000   0.0000000  )
         8           Ni3 tau(   8) = (  -0.5000000   0.5000000   0.5000000  )
         9           O1  tau(   9) = (   0.0000000   0.2500000   0.0000000  )
        10           O1  tau(  10) = (  -0.2500000   0.2500000   0.2500000  )
        11           O1  tau(  11) = (  -0.2500000   0.5000000   0.0000000  )
        12           O1  tau(  12) = (   0.0000000   0.5000000   0.2500000  )
        13           O1  tau(  13) = (  -0.2500000   0.5000000   0.5000000  )
        14           O1  tau(  14) = (  -0.5000000   0.5000000   0.2500000  )
        15           O1  tau(  15) = (  -0.2500000   0.7500000   0.2500000  )
        16           O1  tau(  16) = (  -0.5000000   0.7500000   0.5000000  )

   Crystallographic axes

     site n.     atom                  positions (cryst. coord.)
         1           Ni1 tau(   1) = (  0.0000000  0.0000000  0.0000000  )
         2           Ni2 tau(   2) = (  0.5000000  0.5000000  0.0000000  )
         3           Ni2 tau(   3) = (  0.5000000  0.0000000  0.5000000  )
         4           Ni2 tau(   4) = (  0.0000000  0.5000000  0.5000000  )
         5           Ni3 tau(   5) = (  0.5000000  0.0000000  0.0000000  )
         6           Ni3 tau(   6) = (  0.0000000  0.5000000  0.0000000  )
         7           Ni3 tau(   7) = (  0.0000000  0.0000000  0.5000000  )
         8           Ni3 tau(   8) = (  0.5000000  0.5000000  0.5000000  )
         9           O1  tau(   9) = ( -0.2500000  0.2500000  0.2500000  )
        10           O1  tau(  10) = (  0.2500000  0.2500000  0.2500000  )
        11           O1  tau(  11) = ( -0.2500000  0.2500000  0.7500000  )
        12           O1  tau(  12) = ( -0.2500000  0.7500000  0.2500000  )
        13           O1  tau(  13) = (  0.2500000  0.7500000  0.2500000  )
        14           O1  tau(  14) = (  0.2500000  0.2500000  0.7500000  )
        15           O1  tau(  15) = ( -0.2500000  0.7500000  0.7500000  )
        16           O1  tau(  16) = (  0.2500000  0.7500000  0.7500000  )

     number of k points=    26  gaussian smearing, width (Ry)=  0.0100
                       cart. coord. in units 2pi/alat
        k(    1) = (   0.0000000   0.0000000   0.0000000), wk =   0.0156250
        k(    2) = (  -0.2500000   0.2500000  -0.2500000), wk =   0.0937500
        k(    3) = (   0.5000000  -0.5000000   0.5000000), wk =   0.0468750
        k(    4) = (   0.0000000   0.5000000   0.0000000), wk =   0.0937500
        k(    5) = (   0.7500000  -0.2500000   0.7500000), wk =   0.1875000
        k(    6) = (   0.5000000   0.0000000   0.5000000), wk =   0.0937500
        k(    7) = (   0.0000000  -1.0000000   0.0000000), wk =   0.0468750
        k(    8) = (  -0.5000000  -1.0000000   0.0000000), wk =   0.0937500
        k(    9) = (  -0.2500000   0.2500000   0.2500000), wk =   0.0312500
        k(   10) = (   0.5000000  -0.5000000  -0.5000000), wk =   0.0156250
        k(   11) = (  -0.7500000   0.7500000  -0.2500000), wk =   0.0937500
        k(   12) = (   0.7500000  -0.7500000  -0.2500000), wk =   0.0937500
        k(   13) = (  -0.5000000   0.5000000   0.0000000), wk =   0.0937500
        k(   14) = (   0.0000000   0.0000000   0.0000000), wk =   0.0156250
        k(   15) = (  -0.2500000   0.2500000  -0.2500000), wk =   0.0937500
        k(   16) = (   0.5000000  -0.5000000   0.5000000), wk =   0.0468750
        k(   17) = (   0.0000000   0.5000000   0.0000000), wk =   0.0937500
        k(   18) = (   0.7500000  -0.2500000   0.7500000), wk =   0.1875000
        k(   19) = (   0.5000000   0.0000000   0.5000000), wk =   0.0937500
        k(   20) = (   0.0000000  -1.0000000   0.0000000), wk =   0.0468750
        k(   21) = (  -0.5000000  -1.0000000   0.0000000), wk =   0.0937500
        k(   22) = (  -0.2500000   0.2500000   0.2500000), wk =   0.0312500
        k(   23) = (   0.5000000  -0.5000000  -0.5000000), wk =   0.0156250
        k(   24) = (  -0.7500000   0.7500000  -0.2500000), wk =   0.0937500
        k(   25) = (   0.7500000  -0.7500000  -0.2500000), wk =   0.0937500
        k(   26) = (  -0.5000000   0.5000000   0.0000000), wk =   0.0937500

                       cryst. coord.
        k(    1) = (   0.0000000   0.0000000   0.0000000), wk =   0.0156250
        k(    2) = (   0.0000000   0.0000000   0.2500000), wk =   0.0937500
        k(    3) = (   0.0000000   0.0000000  -0.5000000), wk =   0.0468750
        k(    4) = (   0.0000000   0.2500000   0.2500000), wk =   0.0937500
        k(    5) = (   0.0000000   0.2500000  -0.5000000), wk =   0.1875000
        k(    6) = (   0.0000000   0.2500000  -0.2500000), wk =   0.0937500
        k(    7) = (   0.0000000  -0.5000000  -0.5000000), wk =   0.0468750
        k(    8) = (   0.2500000  -0.5000000  -0.2500000), wk =   0.0937500
        k(    9) = (   0.2500000   0.2500000   0.2500000), wk =   0.0312500
        k(   10) = (  -0.5000000  -0.5000000  -0.5000000), wk =   0.0156250
        k(   11) = (   0.2500000   0.2500000   0.7500000), wk =   0.0937500
        k(   12) = (  -0.5000000  -0.5000000  -0.7500000), wk =   0.0937500
        k(   13) = (   0.2500000   0.2500000   0.5000000), wk =   0.0937500
        k(   14) = (   0.0000000   0.0000000   0.0000000), wk =   0.0156250
        k(   15) = (   0.0000000   0.0000000   0.2500000), wk =   0.0937500
        k(   16) = (   0.0000000   0.0000000  -0.5000000), wk =   0.0468750
        k(   17) = (   0.0000000   0.2500000   0.2500000), wk =   0.0937500
        k(   18) = (   0.0000000   0.2500000  -0.5000000), wk =   0.1875000
        k(   19) = (   0.0000000   0.2500000  -0.2500000), wk =   0.0937500
        k(   20) = (   0.0000000  -0.5000000  -0.5000000), wk =   0.0468750
        k(   21) = (   0.2500000  -0.5000000  -0.2500000), wk =   0.0937500
        k(   22) = (   0.2500000   0.2500000   0.2500000), wk =   0.0312500
        k(   23) = (  -0.5000000  -0.5000000  -0.5000000), wk =   0.0156250
        k(   24) = (   0.2500000   0.2500000   0.7500000), wk =   0.0937500
        k(   25) = (  -0.5000000  -0.5000000  -0.7500000), wk =   0.0937500
        k(   26) = (   0.2500000   0.2500000   0.5000000), wk =   0.0937500

     Dense  grid:    86547 G-vectors     FFT dimensions: (  64,  64,  64)

     Smooth grid:    22075 G-vectors     FFT dimensions: (  40,  40,  40)

     Largest allocated arrays     est. size (Mb)     dimensions
        Kohn-Sham Wavefunctions         1.64 Mb     (   1395,   77)
        Atomic wavefunctions            1.70 Mb     (   1395,   80)
        NL pseudopotentials             4.43 Mb     (   1395,  208)
        Each V/rho on FFT grid          4.00 Mb     ( 131072,   2)
        Each G-vector array             0.33 Mb     (  43274)
        G-vector shells                 0.00 Mb     (    635)
     Largest temporary arrays     est. size (Mb)     dimensions
        Auxiliary wavefunctions         6.56 Mb     (   1395,  308)
        Each subspace H/S matrix        1.45 Mb     ( 308, 308)
        Each <psi_i|beta_j> matrix      0.24 Mb     (    208,   77)
        Arrays for rho mixing          16.00 Mb     ( 131072,   8)

     Check: negative/imaginary core charge=   -0.000047    0.000000

     The initial density is read from file :
     /home/mcurnan/dft-course/Project1/example_NiO/0/Ni/alpha/NiO_U0.save/charge-density.dat

 --- in v_hubbard ---
Hubbard energy   -0.0320
 -------
     Number of +U iterations with fixed ns =  0
     Starting occupations:
 --- enter write_ns ---
 LDA+U parameters:
U( 1)     =  0.00000000
alpha( 1) = -0.05000000
U( 2)     =  0.00000000
alpha( 2) =  0.00000000
U( 3)     =  0.00000000
alpha( 3) =  0.00000000
U( 4)     =  0.00000000
alpha( 4) =  0.00000000
atom    1   Tr[ns(na)] (up, down, total) =   4.95241  3.75362  8.70602
   spin  1
    eigenvalues: 
  0.980  0.980  0.997  0.997  0.997
    eigenvectors:
  0.027  0.973  0.000  0.000  0.000
  0.000  0.000  0.028  0.639  0.333
  0.000  0.000  0.601  0.065  0.333
  0.973  0.027  0.000  0.000  0.000
  0.000  0.000  0.371  0.296  0.333
    occupations:
  0.980  0.000  0.000  0.000  0.000
  0.000  0.997  0.000  0.000  0.000
  0.000  0.000  0.997  0.000  0.000
  0.000  0.000  0.000  0.980  0.000
  0.000  0.000  0.000  0.000  0.997
   spin  2
    eigenvalues: 
  0.384  0.384  0.995  0.995  0.995
    eigenvectors:
  0.032  0.968  0.000  0.000  0.000
  0.000  0.000  0.042  0.625  0.333
  0.000  0.000  0.619  0.048  0.333
  0.968  0.032  0.000  0.000  0.000
  0.000  0.000  0.339  0.328  0.333
    occupations:
  0.384 -0.001  0.001  0.000 -0.001
 -0.001  0.995  0.000 -0.001  0.000
  0.001  0.000  0.995 -0.001  0.000
  0.000 -0.001 -0.001  0.384  0.000
 -0.001  0.000  0.000  0.000  0.995
atomic mag. moment =     1.198792
atom    2   Tr[ns(na)] (up, down, total) =   4.95241  3.75361  8.70602
   spin  1
    eigenvalues: 
  0.980  0.980  0.997  0.997  0.997
    eigenvectors:
  0.000  1.000  0.000  0.000  0.000
  0.000  0.000  0.167  0.500  0.333
  0.000  0.000  0.167  0.500  0.333
  1.000  0.000  0.000  0.000  0.000
  0.000  0.000  0.667  0.000  0.333
    occupations:
  0.980  0.000  0.000  0.000  0.000
  0.000  0.997  0.000  0.000  0.000
  0.000  0.000  0.997  0.000  0.000
  0.000  0.000  0.000  0.980  0.000
  0.000  0.000  0.000  0.000  0.997
   spin  2
    eigenvalues: 
  0.384  0.384  0.995  0.995  0.995
    eigenvectors:
  1.000  0.000  0.000  0.000  0.000
  0.000  0.000  0.167  0.500  0.333
  0.000  0.000  0.167  0.500  0.333
  0.000  1.000  0.000  0.000  0.000
  0.000  0.000  0.667  0.000  0.333
    occupations:
  0.384 -0.001  0.001  0.000 -0.001
 -0.001  0.995  0.000 -0.001  0.000
  0.001  0.000  0.995 -0.001  0.000
  0.000 -0.001 -0.001  0.384  0.000
 -0.001  0.000  0.000  0.000  0.995
atomic mag. moment =     1.198793
atom    3   Tr[ns(na)] (up, down, total) =   4.95241  3.75361  8.70602
   spin  1
    eigenvalues: 
  0.980  0.980  0.997  0.997  0.997
    eigenvectors:
  0.750  0.250  0.000  0.000  0.000
  0.000  0.000  0.167  0.500  0.333
  0.000  0.000  0.667  0.000  0.333
  0.250  0.750  0.000  0.000  0.000
  0.000  0.000  0.167  0.500  0.333
    occupations:
  0.980  0.000  0.000  0.000  0.000
  0.000  0.997  0.000  0.000  0.000
  0.000  0.000  0.997  0.000  0.000
  0.000  0.000  0.000  0.980  0.000
  0.000  0.000  0.000  0.000  0.997
   spin  2
    eigenvalues: 
  0.384  0.384  0.995  0.995  0.995
    eigenvectors:
  0.250  0.750  0.000  0.000  0.000
  0.000  0.000  0.167  0.500  0.333
  0.000  0.000  0.667  0.000  0.333
  0.750  0.250  0.000  0.000  0.000
  0.000  0.000  0.167  0.500  0.333
    occupations:
  0.384 -0.001  0.001  0.000 -0.001
 -0.001  0.995  0.000 -0.001  0.000
  0.001  0.000  0.995 -0.001  0.000
  0.000 -0.001 -0.001  0.384  0.000
 -0.001  0.000  0.000  0.000  0.995
atomic mag. moment =     1.198793
atom    4   Tr[ns(na)] (up, down, total) =   4.95241  3.75361  8.70602
   spin  1
    eigenvalues: 
  0.980  0.980  0.997  0.997  0.997
    eigenvectors:
  0.750  0.250  0.000  0.000  0.000
  0.000  0.000  0.667  0.000  0.333
  0.000  0.000  0.167  0.500  0.333
  0.250  0.750  0.000  0.000  0.000
  0.000  0.000  0.167  0.500  0.333
    occupations:
  0.980  0.000  0.000  0.000  0.000
  0.000  0.997  0.000  0.000  0.000
  0.000  0.000  0.997  0.000  0.000
  0.000  0.000  0.000  0.980  0.000
  0.000  0.000  0.000  0.000  0.997
   spin  2
    eigenvalues: 
  0.384  0.384  0.995  0.995  0.995
    eigenvectors:
  0.250  0.750  0.000  0.000  0.000
  0.000  0.000  0.667  0.000  0.333
  0.000  0.000  0.167  0.500  0.333
  0.750  0.250  0.000  0.000  0.000
  0.000  0.000  0.167  0.500  0.333
    occupations:
  0.384 -0.001  0.001  0.000 -0.001
 -0.001  0.995  0.000 -0.001  0.000
  0.001  0.000  0.995 -0.001  0.000
  0.000 -0.001 -0.001  0.384  0.000
 -0.001  0.000  0.000  0.000  0.995
atomic mag. moment =     1.198793
atom    5   Tr[ns(na)] (up, down, total) =   3.75362  4.95241  8.70603
   spin  1
    eigenvalues: 
  0.384  0.384  0.995  0.995  0.995
    eigenvectors:
  0.250  0.750  0.000  0.000  0.000
  0.000  0.000  0.667  0.000  0.333
  0.000  0.000  0.167  0.500  0.333
  0.750  0.250  0.000  0.000  0.000
  0.000  0.000  0.167  0.500  0.333
    occupations:
  0.384 -0.001  0.001  0.000 -0.001
 -0.001  0.995  0.000 -0.001  0.000
  0.001  0.000  0.995 -0.001  0.000
  0.000 -0.001 -0.001  0.384  0.000
 -0.001  0.000  0.000  0.000  0.995
   spin  2
    eigenvalues: 
  0.980  0.980  0.997  0.997  0.997
    eigenvectors:
  0.750  0.250  0.000  0.000  0.000
  0.000  0.000  0.667  0.000  0.333
  0.000  0.000  0.167  0.500  0.333
  0.250  0.750  0.000  0.000  0.000
  0.000  0.000  0.167  0.500  0.333
    occupations:
  0.980  0.000  0.000  0.000  0.000
  0.000  0.997  0.000  0.000  0.000
  0.000  0.000  0.997  0.000  0.000
  0.000  0.000  0.000  0.980  0.000
  0.000  0.000  0.000  0.000  0.997
atomic mag. moment =    -1.198790
atom    6   Tr[ns(na)] (up, down, total) =   3.75362  4.95241  8.70603
   spin  1
    eigenvalues: 
  0.384  0.384  0.995  0.995  0.995
    eigenvectors:
  0.250  0.750  0.000  0.000  0.000
  0.000  0.000  0.167  0.500  0.333
  0.000  0.000  0.667  0.000  0.333
  0.750  0.250  0.000  0.000  0.000
  0.000  0.000  0.167  0.500  0.333
    occupations:
  0.384 -0.001  0.001  0.000 -0.001
 -0.001  0.995  0.000 -0.001  0.000
  0.001  0.000  0.995 -0.001  0.000
  0.000 -0.001 -0.001  0.384  0.000
 -0.001  0.000  0.000  0.000  0.995
   spin  2
    eigenvalues: 
  0.980  0.980  0.997  0.997  0.997
    eigenvectors:
  0.750  0.250  0.000  0.000  0.000
  0.000  0.000  0.167  0.500  0.333
  0.000  0.000  0.667  0.000  0.333
  0.250  0.750  0.000  0.000  0.000
  0.000  0.000  0.167  0.500  0.333
    occupations:
  0.980  0.000  0.000  0.000  0.000
  0.000  0.997  0.000  0.000  0.000
  0.000  0.000  0.997  0.000  0.000
  0.000  0.000  0.000  0.980  0.000
  0.000  0.000  0.000  0.000  0.997
atomic mag. moment =    -1.198790
atom    7   Tr[ns(na)] (up, down, total) =   3.75362  4.95241  8.70603
   spin  1
    eigenvalues: 
  0.384  0.384  0.995  0.995  0.995
    eigenvectors:
  1.000  0.000  0.000  0.000  0.000
  0.000  0.000  0.167  0.500  0.333
  0.000  0.000  0.167  0.500  0.333
  0.000  1.000  0.000  0.000  0.000
  0.000  0.000  0.667  0.000  0.333
    occupations:
  0.384 -0.001  0.001  0.000 -0.001
 -0.001  0.995  0.000 -0.001  0.000
  0.001  0.000  0.995 -0.001  0.000
  0.000 -0.001 -0.001  0.384  0.000
 -0.001  0.000  0.000  0.000  0.995
   spin  2
    eigenvalues: 
  0.980  0.980  0.997  0.997  0.997
    eigenvectors:
  0.000  1.000  0.000  0.000  0.000
  0.000  0.000  0.167  0.500  0.333
  0.000  0.000  0.167  0.500  0.333
  1.000  0.000  0.000  0.000  0.000
  0.000  0.000  0.667  0.000  0.333
    occupations:
  0.980  0.000  0.000  0.000  0.000
  0.000  0.997  0.000  0.000  0.000
  0.000  0.000  0.997  0.000  0.000
  0.000  0.000  0.000  0.980  0.000
  0.000  0.000  0.000  0.000  0.997
atomic mag. moment =    -1.198790
atom    8   Tr[ns(na)] (up, down, total) =   3.75362  4.95241  8.70603
   spin  1
    eigenvalues: 
  0.384  0.384  0.995  0.995  0.995
    eigenvectors:
  0.039  0.961  0.000  0.000  0.000
  0.000  0.000  0.026  0.641  0.333
  0.000  0.000  0.599  0.068  0.333
  0.961  0.039  0.000  0.000  0.000
  0.000  0.000  0.375  0.292  0.333
    occupations:
  0.384 -0.001  0.001  0.000 -0.001
 -0.001  0.995  0.000 -0.001  0.000
  0.001  0.000  0.995 -0.001  0.000
  0.000 -0.001 -0.001  0.384  0.000
 -0.001  0.000  0.000  0.000  0.995
   spin  2
    eigenvalues: 
  0.980  0.980  0.997  0.997  0.997
    eigenvectors:
  0.006  0.994  0.000  0.000  0.000
  0.000  0.000  0.033  0.633  0.333
  0.000  0.000  0.609  0.058  0.333
  0.994  0.006  0.000  0.000  0.000
  0.000  0.000  0.358  0.309  0.333
    occupations:
  0.980  0.000  0.000  0.000  0.000
  0.000  0.997  0.000  0.000  0.000
  0.000  0.000  0.997  0.000  0.000
  0.000  0.000  0.000  0.980  0.000
  0.000  0.000  0.000  0.000  0.997
atomic mag. moment =    -1.198787
atom    9   Tr[ns(na)] (up, down, total) =   2.81114  2.81114  5.62228
   spin  1
    eigenvalues: 
  0.937  0.937  0.938
    eigenvectors:
  0.167  0.500  0.333
  0.167  0.500  0.333
  0.667  0.000  0.333
    occupations:
  0.937  0.000  0.000
  0.000  0.937  0.000
  0.000  0.000  0.937
   spin  2
    eigenvalues: 
  0.937  0.937  0.938
    eigenvectors:
  0.500  0.167  0.333
  0.500  0.167  0.333
  0.000  0.667  0.333
    occupations:
  0.937  0.000  0.000
  0.000  0.937  0.000
  0.000  0.000  0.937
atomic mag. moment =    -0.000001
atom   10   Tr[ns(na)] (up, down, total) =   2.81114  2.81114  5.62229
   spin  1
    eigenvalues: 
  0.937  0.937  0.938
    eigenvectors:
  0.060  0.607  0.333
  0.306  0.361  0.333
  0.635  0.032  0.333
    occupations:
  0.937  0.000  0.000
  0.000  0.937  0.000
  0.000  0.000  0.937
   spin  2
    eigenvalues: 
  0.937  0.937  0.938
    eigenvectors:
  0.038  0.628  0.333
  0.346  0.320  0.333
  0.615  0.051  0.333
    occupations:
  0.937  0.000  0.000
  0.000  0.937  0.000
  0.000  0.000  0.937
atomic mag. moment =     0.000000
atom   11   Tr[ns(na)] (up, down, total) =   2.81114  2.81114  5.62228
   spin  1
    eigenvalues: 
  0.937  0.937  0.938
    eigenvectors:
  0.167  0.500  0.333
  0.667  0.000  0.333
  0.167  0.500  0.333
    occupations:
  0.937  0.000  0.000
  0.000  0.937  0.000
  0.000  0.000  0.937
   spin  2
    eigenvalues: 
  0.937  0.937  0.938
    eigenvectors:
  0.500  0.167  0.333
  0.000  0.667  0.333
  0.500  0.167  0.333
    occupations:
  0.937  0.000  0.000
  0.000  0.937  0.000
  0.000  0.000  0.937
atomic mag. moment =    -0.000001
atom   12   Tr[ns(na)] (up, down, total) =   2.81114  2.81114  5.62228
   spin  1
    eigenvalues: 
  0.937  0.937  0.938
    eigenvectors:
  0.667  0.000  0.333
  0.167  0.500  0.333
  0.167  0.500  0.333
    occupations:
  0.937  0.000  0.000
  0.000  0.937  0.000
  0.000  0.000  0.937
   spin  2
    eigenvalues: 
  0.937  0.937  0.938
    eigenvectors:
  0.000  0.667  0.333
  0.500  0.167  0.333
  0.500  0.167  0.333
    occupations:
  0.937  0.000  0.000
  0.000  0.937  0.000
  0.000  0.000  0.937
atomic mag. moment =    -0.000001
atom   13   Tr[ns(na)] (up, down, total) =   2.81114  2.81114  5.62228
   spin  1
    eigenvalues: 
  0.937  0.937  0.938
    eigenvectors:
  0.167  0.500  0.333
  0.667  0.000  0.333
  0.167  0.500  0.333
    occupations:
  0.937  0.000  0.000
  0.000  0.937  0.000
  0.000  0.000  0.937
   spin  2
    eigenvalues: 
  0.937  0.937  0.938
    eigenvectors:
  0.500  0.167  0.333
  0.000  0.667  0.333
  0.500  0.167  0.333
    occupations:
  0.937  0.000  0.000
  0.000  0.937  0.000
  0.000  0.000  0.937
atomic mag. moment =    -0.000001
atom   14   Tr[ns(na)] (up, down, total) =   2.81114  2.81114  5.62228
   spin  1
    eigenvalues: 
  0.937  0.937  0.938
    eigenvectors:
  0.667  0.000  0.333
  0.167  0.500  0.333
  0.167  0.500  0.333
    occupations:
  0.937  0.000  0.000
  0.000  0.937  0.000
  0.000  0.000  0.937
   spin  2
    eigenvalues: 
  0.937  0.937  0.938
    eigenvectors:
  0.000  0.667  0.333
  0.500  0.167  0.333
  0.500  0.167  0.333
    occupations:
  0.937  0.000  0.000
  0.000  0.937  0.000
  0.000  0.000  0.937
atomic mag. moment =    -0.000001
atom   15   Tr[ns(na)] (up, down, total) =   2.81114  2.81114  5.62229
   spin  1
    eigenvalues: 
  0.937  0.937  0.938
    eigenvectors:
  0.059  0.607  0.333
  0.306  0.361  0.333
  0.635  0.032  0.333
    occupations:
  0.937  0.000  0.000
  0.000  0.937  0.000
  0.000  0.000  0.937
   spin  2
    eigenvalues: 
  0.937  0.937  0.938
    eigenvectors:
  0.040  0.626  0.333
  0.342  0.325  0.333
  0.618  0.049  0.333
    occupations:
  0.937  0.000  0.000
  0.000  0.937  0.000
  0.000  0.000  0.937
atomic mag. moment =     0.000000
atom   16   Tr[ns(na)] (up, down, total) =   2.81114  2.81114  5.62228
   spin  1
    eigenvalues: 
  0.937  0.937  0.938
    eigenvectors:
  0.167  0.500  0.333
  0.167  0.500  0.333
  0.667  0.000  0.333
    occupations:
  0.937  0.000  0.000
  0.000  0.937  0.000
  0.000  0.000  0.937
   spin  2
    eigenvalues: 
  0.937  0.937  0.938
    eigenvectors:
  0.500  0.167  0.333
  0.500  0.167  0.333
  0.000  0.667  0.333
    occupations:
  0.937  0.000  0.000
  0.000  0.937  0.000
  0.000  0.000  0.937
atomic mag. moment =    -0.000001
N of occupied +U levels = 114.6264805
 --- exit write_ns ---
 LDA+U Projector read from file 
     Starting wfc from file

     total cpu time spent up to now is       11.9 secs

     per-process dynamical memory:   103.5 Mb

     Self-consistent Calculation

     iteration #  1     ecut=    30.00 Ry     beta=0.30
     Davidson diagonalization with overlap
     ethr =  1.00E-10,  avg # of iterations =  8.5
 --- enter write_ns ---
 LDA+U parameters:
U( 1)     =  0.00000000
alpha( 1) = -0.05000000
U( 2)     =  0.00000000
alpha( 2) =  0.00000000
U( 3)     =  0.00000000
alpha( 3) =  0.00000000
U( 4)     =  0.00000000
alpha( 4) =  0.00000000
atom    1   Tr[ns(na)] (up, down, total) =   4.95339  3.76429  8.71768
   spin  1
    eigenvalues: 
  0.981  0.981  0.997  0.997  0.997
    eigenvectors:
  0.018  0.982  0.000  0.000  0.000
  0.000  0.000  0.024  0.643  0.333
  0.000  0.000  0.595  0.072  0.333
  0.982  0.018  0.000  0.000  0.000
  0.000  0.000  0.382  0.285  0.333
    occupations:
  0.981  0.000  0.000  0.000  0.000
  0.000  0.997  0.000  0.000  0.000
  0.000  0.000  0.997  0.000  0.000
  0.000  0.000  0.000  0.981  0.000
  0.000  0.000  0.000  0.000  0.997
   spin  2
    eigenvalues: 
  0.389  0.389  0.995  0.995  0.996
    eigenvectors:
  0.026  0.974  0.000  0.000  0.000
  0.000  0.000  0.033  0.634  0.333
  0.000  0.000  0.608  0.058  0.333
  0.974  0.026  0.000  0.000  0.000
  0.000  0.000  0.359  0.308  0.333
    occupations:
  0.389 -0.001  0.001  0.000 -0.001
 -0.001  0.995  0.000 -0.001  0.000
  0.001  0.000  0.995 -0.001  0.000
  0.000 -0.001 -0.001  0.389  0.000
 -0.001  0.000  0.000  0.000  0.995
atomic mag. moment =     1.189107
atom    2   Tr[ns(na)] (up, down, total) =   4.95240  3.75332  8.70573
   spin  1
    eigenvalues: 
  0.980  0.980  0.997  0.997  0.997
    eigenvectors:
  0.000  1.000  0.000  0.000  0.000
  0.000  0.000  0.500  0.168  0.332
  0.000  0.000  0.500  0.168  0.332
  1.000  0.000  0.000  0.000  0.000
  0.000  0.000  0.000  0.665  0.335
    occupations:
  0.980  0.000  0.000  0.000  0.000
  0.000  0.997  0.000  0.000  0.000
  0.000  0.000  0.997  0.000  0.000
  0.000  0.000  0.000  0.980  0.000
  0.000  0.000  0.000  0.000  0.997
   spin  2
    eigenvalues: 
  0.384  0.384  0.995  0.995  0.995
    eigenvectors:
  1.000  0.000  0.000  0.000  0.000
  0.000  0.000  0.077  0.500  0.423
  0.000  0.000  0.077  0.500  0.423
  0.000  1.000  0.000  0.000  0.000
  0.000  0.000  0.847  0.000  0.153
    occupations:
  0.384 -0.001  0.001  0.000 -0.001
 -0.001  0.995  0.000 -0.001  0.000
  0.001  0.000  0.995 -0.001  0.000
  0.000 -0.001 -0.001  0.384  0.000
 -0.001  0.000  0.000  0.000  0.995
atomic mag. moment =     1.199084
atom    3   Tr[ns(na)] (up, down, total) =   4.95240  3.75332  8.70573
   spin  1
    eigenvalues: 
  0.980  0.980  0.997  0.997  0.997
    eigenvectors:
  0.750  0.250  0.000  0.000  0.000
  0.000  0.000  0.500  0.168  0.332
  0.000  0.000  0.000  0.665  0.335
  0.250  0.750  0.000  0.000  0.000
  0.000  0.000  0.500  0.168  0.332
    occupations:
  0.980  0.000  0.000  0.000  0.000
  0.000  0.997  0.000  0.000  0.000
  0.000  0.000  0.997  0.000  0.000
  0.000  0.000  0.000  0.980  0.000
  0.000  0.000  0.000  0.000  0.997
   spin  2
    eigenvalues: 
  0.384  0.384  0.995  0.995  0.995
    eigenvectors:
  0.250  0.750  0.000  0.000  0.000
  0.000  0.000  0.077  0.500  0.423
  0.000  0.000  0.847  0.000  0.153
  0.750  0.250  0.000  0.000  0.000
  0.000  0.000  0.077  0.500  0.423
    occupations:
  0.384 -0.001  0.000  0.000 -0.001
 -0.001  0.995  0.000 -0.001  0.000
  0.000  0.000  0.995 -0.001  0.000
  0.000 -0.001 -0.001  0.384  0.000
 -0.001  0.000  0.000  0.000  0.995
atomic mag. moment =     1.199084
atom    4   Tr[ns(na)] (up, down, total) =   4.95240  3.75332  8.70573
   spin  1
    eigenvalues: 
  0.980  0.980  0.997  0.997  0.997
    eigenvectors:
  0.750  0.250  0.000  0.000  0.000
  0.000  0.000  0.000  0.665  0.335
  0.000  0.000  0.500  0.168  0.332
  0.250  0.750  0.000  0.000  0.000
  0.000  0.000  0.500  0.168  0.332
    occupations:
  0.980  0.000  0.000  0.000  0.000
  0.000  0.997  0.000  0.000  0.000
  0.000  0.000  0.997  0.000  0.000
  0.000  0.000  0.000  0.980  0.000
  0.000  0.000  0.000  0.000  0.997
   spin  2
    eigenvalues: 
  0.384  0.384  0.995  0.995  0.995
    eigenvectors:
  0.250  0.750  0.000  0.000  0.000
  0.000  0.000  0.847  0.000  0.153
  0.000  0.000  0.077  0.500  0.423
  0.750  0.250  0.000  0.000  0.000
  0.000  0.000  0.077  0.500  0.423
    occupations:
  0.384  0.000  0.001  0.000 -0.001
  0.000  0.995  0.000 -0.001  0.000
  0.001  0.000  0.995 -0.001  0.000
  0.000 -0.001 -0.001  0.384  0.000
 -0.001  0.000  0.000  0.000  0.995
atomic mag. moment =     1.199084
atom    5   Tr[ns(na)] (up, down, total) =   3.75356  4.95236  8.70593
   spin  1
    eigenvalues: 
  0.384  0.384  0.995  0.995  0.995
    eigenvectors:
  0.250  0.750  0.000  0.000  0.000
  0.000  0.000  0.000  0.667  0.333
  0.000  0.000  0.500  0.167  0.333
  0.750  0.250  0.000  0.000  0.000
  0.000  0.000  0.500  0.167  0.333
    occupations:
  0.384 -0.001  0.001  0.000 -0.001
 -0.001  0.995  0.000 -0.001  0.000
  0.001  0.000  0.995 -0.001  0.000
  0.000 -0.001 -0.001  0.384  0.000
 -0.001  0.000  0.000  0.000  0.995
   spin  2
    eigenvalues: 
  0.980  0.980  0.997  0.997  0.997
    eigenvectors:
  0.250  0.750  0.000  0.000  0.000
  0.000  0.000  0.920  0.000  0.080
  0.000  0.000  0.040  0.500  0.460
  0.750  0.250  0.000  0.000  0.000
  0.000  0.000  0.040  0.500  0.460
    occupations:
  0.980  0.000  0.000  0.000  0.000
  0.000  0.997  0.000  0.000  0.000
  0.000  0.000  0.997  0.000  0.000
  0.000  0.000  0.000  0.980  0.000
  0.000  0.000  0.000  0.000  0.997
atomic mag. moment =    -1.198804
atom    6   Tr[ns(na)] (up, down, total) =   3.75356  4.95236  8.70593
   spin  1
    eigenvalues: 
  0.384  0.384  0.995  0.995  0.995
    eigenvectors:
  0.250  0.750  0.000  0.000  0.000
  0.000  0.000  0.500  0.167  0.333
  0.000  0.000  0.000  0.667  0.333
  0.750  0.250  0.000  0.000  0.000
  0.000  0.000  0.500  0.167  0.333
    occupations:
  0.384 -0.001  0.001  0.000 -0.001
 -0.001  0.995  0.000 -0.001  0.000
  0.001  0.000  0.995 -0.001  0.000
  0.000 -0.001 -0.001  0.384  0.000
 -0.001  0.000  0.000  0.000  0.995
   spin  2
    eigenvalues: 
  0.980  0.980  0.997  0.997  0.997
    eigenvectors:
  0.250  0.750  0.000  0.000  0.000
  0.000  0.000  0.040  0.500  0.460
  0.000  0.000  0.920  0.000  0.080
  0.750  0.250  0.000  0.000  0.000
  0.000  0.000  0.040  0.500  0.460
    occupations:
  0.980  0.000  0.000  0.000  0.000
  0.000  0.997  0.000  0.000  0.000
  0.000  0.000  0.997  0.000  0.000
  0.000  0.000  0.000  0.980  0.000
  0.000  0.000  0.000  0.000  0.997
atomic mag. moment =    -1.198804
atom    7   Tr[ns(na)] (up, down, total) =   3.75356  4.95236  8.70593
   spin  1
    eigenvalues: 
  0.384  0.384  0.995  0.995  0.995
    eigenvectors:
  1.000  0.000  0.000  0.000  0.000
  0.000  0.000  0.500  0.167  0.333
  0.000  0.000  0.500  0.167  0.333
  0.000  1.000  0.000  0.000  0.000
  0.000  0.000  0.000  0.667  0.333
    occupations:
  0.384 -0.001  0.001  0.000 -0.001
 -0.001  0.995  0.000 -0.001  0.000
  0.001  0.000  0.995 -0.001  0.000
  0.000 -0.001 -0.001  0.384  0.000
 -0.001  0.000  0.000  0.000  0.995
   spin  2
    eigenvalues: 
  0.980  0.980  0.997  0.997  0.997
    eigenvectors:
  1.000  0.000  0.000  0.000  0.000
  0.000  0.000  0.040  0.500  0.460
  0.000  0.000  0.040  0.500  0.460
  0.000  1.000  0.000  0.000  0.000
  0.000  0.000  0.920  0.000  0.080
    occupations:
  0.980  0.000  0.000  0.000  0.000
  0.000  0.997  0.000  0.000  0.000
  0.000  0.000  0.997  0.000  0.000
  0.000  0.000  0.000  0.980  0.000
  0.000  0.000  0.000  0.000  0.997
atomic mag. moment =    -1.198804
atom    8   Tr[ns(na)] (up, down, total) =   3.75246  4.95125  8.70371
   spin  1
    eigenvalues: 
  0.383  0.383  0.995  0.995  0.995
    eigenvectors:
  0.034  0.966  0.000  0.000  0.000
  0.000  0.000  0.046  0.621  0.333
  0.000  0.000  0.623  0.043  0.333
  0.966  0.034  0.000  0.000  0.000
  0.000  0.000  0.331  0.336  0.333
    occupations:
  0.383 -0.001  0.001  0.000 -0.001
 -0.001  0.995  0.000 -0.001  0.000
  0.001  0.000  0.995 -0.001  0.000
  0.000 -0.001 -0.001  0.383  0.000
 -0.001  0.000  0.000  0.000  0.995
   spin  2
    eigenvalues: 
  0.980  0.980  0.997  0.997  0.997
    eigenvectors:
  0.002  0.998  0.000  0.000  0.000
  0.000  0.000  0.037  0.630  0.333
  0.000  0.000  0.613  0.053  0.333
  0.998  0.002  0.000  0.000  0.000
  0.000  0.000  0.350  0.317  0.333
    occupations:
  0.980  0.000  0.000  0.000  0.000
  0.000  0.997  0.000  0.000  0.000
  0.000  0.000  0.997  0.000  0.000
  0.000  0.000  0.000  0.980  0.000
  0.000  0.000  0.000  0.000  0.997
atomic mag. moment =    -1.198789
atom    9   Tr[ns(na)] (up, down, total) =   2.81115  2.81036  5.62151
   spin  1
    eigenvalues: 
  0.937  0.937  0.938
    eigenvectors:
  0.500  0.168  0.332
  0.500  0.168  0.332
  0.000  0.664  0.336
    occupations:
  0.937  0.000  0.000
  0.000  0.937  0.000
  0.000  0.000  0.937
   spin  2
    eigenvalues: 
  0.936  0.937  0.938
    eigenvectors:
  0.076  0.500  0.424
  0.076  0.500  0.424
  0.848  0.000  0.152
    occupations:
  0.937  0.000  0.000
  0.000  0.937  0.000
  0.000  0.000  0.936
atomic mag. moment =     0.000791
atom   10   Tr[ns(na)] (up, down, total) =   2.81114  2.81112  5.62226
   spin  1
    eigenvalues: 
  0.937  0.937  0.938
    eigenvectors:
  0.044  0.623  0.333
  0.334  0.332  0.333
  0.621  0.045  0.333
    occupations:
  0.937  0.000  0.000
  0.000  0.937  0.000
  0.000  0.000  0.937
   spin  2
    eigenvalues: 
  0.937  0.937  0.938
    eigenvectors:
  0.105  0.561  0.333
  0.237  0.430  0.333
  0.658  0.009  0.333
    occupations:
  0.937  0.000  0.000
  0.000  0.937  0.000
  0.000  0.000  0.937
atomic mag. moment =     0.000016
atom   11   Tr[ns(na)] (up, down, total) =   2.81115  2.81036  5.62151
   spin  1
    eigenvalues: 
  0.937  0.937  0.938
    eigenvectors:
  0.500  0.168  0.332
  0.000  0.664  0.336
  0.500  0.168  0.332
    occupations:
  0.937  0.000  0.000
  0.000  0.937  0.000
  0.000  0.000  0.937
   spin  2
    eigenvalues: 
  0.936  0.937  0.938
    eigenvectors:
  0.076  0.500  0.424
  0.848  0.000  0.152
  0.076  0.500  0.424
    occupations:
  0.937  0.000  0.000
  0.000  0.936  0.000
  0.000  0.000  0.937
atomic mag. moment =     0.000791
atom   12   Tr[ns(na)] (up, down, total) =   2.81115  2.81036  5.62151
   spin  1
    eigenvalues: 
  0.937  0.937  0.938
    eigenvectors:
  0.000  0.664  0.336
  0.500  0.168  0.332
  0.500  0.168  0.332
    occupations:
  0.937  0.000  0.000
  0.000  0.937  0.000
  0.000  0.000  0.937
   spin  2
    eigenvalues: 
  0.936  0.937  0.938
    eigenvectors:
  0.848  0.000  0.152
  0.076  0.500  0.424
  0.076  0.500  0.424
    occupations:
  0.936  0.000  0.000
  0.000  0.937  0.000
  0.000  0.000  0.937
atomic mag. moment =     0.000791
atom   13   Tr[ns(na)] (up, down, total) =   2.81115  2.81036  5.62151
   spin  1
    eigenvalues: 
  0.937  0.937  0.938
    eigenvectors:
  0.500  0.168  0.332
  0.000  0.664  0.336
  0.500  0.168  0.332
    occupations:
  0.937  0.000  0.000
  0.000  0.937  0.000
  0.000  0.000  0.937
   spin  2
    eigenvalues: 
  0.936  0.937  0.938
    eigenvectors:
  0.076  0.500  0.424
  0.848  0.000  0.152
  0.076  0.500  0.424
    occupations:
  0.937  0.000  0.000
  0.000  0.936  0.000
  0.000  0.000  0.937
atomic mag. moment =     0.000791
atom   14   Tr[ns(na)] (up, down, total) =   2.81115  2.81036  5.62151
   spin  1
    eigenvalues: 
  0.937  0.937  0.938
    eigenvectors:
  0.000  0.664  0.336
  0.500  0.168  0.332
  0.500  0.168  0.332
    occupations:
  0.937  0.000  0.000
  0.000  0.937  0.000
  0.000  0.000  0.937
   spin  2
    eigenvalues: 
  0.936  0.937  0.938
    eigenvectors:
  0.848  0.000  0.152
  0.076  0.500  0.424
  0.076  0.500  0.424
    occupations:
  0.936  0.000  0.000
  0.000  0.937  0.000
  0.000  0.000  0.937
atomic mag. moment =     0.000791
atom   15   Tr[ns(na)] (up, down, total) =   2.81114  2.81112  5.62226
   spin  1
    eigenvalues: 
  0.937  0.937  0.938
    eigenvectors:
  0.052  0.615  0.333
  0.319  0.348  0.333
  0.629  0.038  0.333
    occupations:
  0.937  0.000  0.000
  0.000  0.937  0.000
  0.000  0.000  0.937
   spin  2
    eigenvalues: 
  0.937  0.937  0.938
    eigenvectors:
  0.079  0.587  0.333
  0.273  0.393  0.333
  0.647  0.019  0.333
    occupations:
  0.937  0.000  0.000
  0.000  0.937  0.000
  0.000  0.000  0.937
atomic mag. moment =     0.000016
atom   16   Tr[ns(na)] (up, down, total) =   2.81115  2.81036  5.62151
   spin  1
    eigenvalues: 
  0.937  0.937  0.938
    eigenvectors:
  0.500  0.168  0.332
  0.500  0.168  0.332
  0.000  0.664  0.336
    occupations:
  0.937  0.000  0.000
  0.000  0.937  0.000
  0.000  0.000  0.937
   spin  2
    eigenvalues: 
  0.936  0.937  0.938
    eigenvectors:
  0.076  0.500  0.424
  0.076  0.500  0.424
  0.848  0.000  0.152
    occupations:
  0.937  0.000  0.000
  0.000  0.937  0.000
  0.000  0.000  0.936
atomic mag. moment =     0.000791
N of occupied +U levels = 114.6299339
 --- exit write_ns ---
 --- in v_hubbard ---
Hubbard energy   -0.0320
 -------

     total cpu time spent up to now is      102.0 secs

     total energy              =    -942.04807470 Ry
     Harris-Foulkes estimate   =    -942.04811636 Ry
     estimated scf accuracy    <       0.00009503 Ry

     total magnetization       =     0.00 Bohr mag/cell
     absolute magnetization    =    12.28 Bohr mag/cell

     iteration #  2     ecut=    30.00 Ry     beta=0.30
     Davidson diagonalization with overlap
     ethr =  7.42E-08,  avg # of iterations =  2.0
 --- enter write_ns ---
 LDA+U parameters:
U( 1)     =  0.00000000
alpha( 1) = -0.05000000
U( 2)     =  0.00000000
alpha( 2) =  0.00000000
U( 3)     =  0.00000000
alpha( 3) =  0.00000000
U( 4)     =  0.00000000
alpha( 4) =  0.00000000
atom    1   Tr[ns(na)] (up, down, total) =   4.95144  3.75296  8.70440
   spin  1
    eigenvalues: 
  0.980  0.980  0.997  0.997  0.997
    eigenvectors:
  0.014  0.986  0.000  0.000  0.000
  0.000  0.000  0.032  0.635  0.333
  0.000  0.000  0.607  0.059  0.333
  0.986  0.014  0.000  0.000  0.000
  0.000  0.000  0.361  0.306  0.333
    occupations:
  0.980  0.000  0.000  0.000  0.000
  0.000  0.997  0.000  0.000  0.000
  0.000  0.000  0.997  0.000  0.000
  0.000  0.000  0.000  0.980  0.000
  0.000  0.000  0.000  0.000  0.997
   spin  2
    eigenvalues: 
  0.384  0.384  0.995  0.995  0.995
    eigenvectors:
  0.004  0.996  0.000  0.000  0.000
  0.000  0.000  0.032  0.635  0.333
  0.000  0.000  0.608  0.059  0.333
  0.996  0.004  0.000  0.000  0.000
  0.000  0.000  0.360  0.306  0.333
    occupations:
  0.384  0.000  0.000  0.000 -0.001
  0.000  0.995  0.000 -0.001  0.000
  0.000  0.000  0.995 -0.001  0.000
  0.000 -0.001 -0.001  0.384  0.000
 -0.001  0.000  0.000  0.000  0.995
atomic mag. moment =     1.198476
atom    2   Tr[ns(na)] (up, down, total) =   4.95243  3.75378  8.70622
   spin  1
    eigenvalues: 
  0.980  0.980  0.997  0.997  0.997
    eigenvectors:
  1.000  0.000  0.000  0.000  0.000
  0.000  0.000  0.086  0.500  0.414
  0.000  0.000  0.086  0.500  0.414
  0.000  1.000  0.000  0.000  0.000
  0.000  0.000  0.827  0.000  0.173
    occupations:
  0.980  0.000  0.000  0.000  0.000
  0.000  0.997  0.000  0.000  0.000
  0.000  0.000  0.997  0.000  0.000
  0.000  0.000  0.000  0.980  0.000
  0.000  0.000  0.000  0.000  0.997
   spin  2
    eigenvalues: 
  0.384  0.384  0.995  0.995  0.995
    eigenvectors:
  0.000  1.000  0.000  0.000  0.000
  0.000  0.000  0.500  0.204  0.296
  0.000  0.000  0.500  0.204  0.296
  1.000  0.000  0.000  0.000  0.000
  0.000  0.000  0.000  0.592  0.408
    occupations:
  0.384 -0.001  0.001  0.000 -0.001
 -0.001  0.995  0.000 -0.001  0.000
  0.001  0.000  0.995 -0.001  0.000
  0.000 -0.001 -0.001  0.384  0.000
 -0.001  0.000  0.000  0.000  0.995
atomic mag. moment =     1.198647
atom    3   Tr[ns(na)] (up, down, total) =   4.95243  3.75378  8.70622
   spin  1
    eigenvalues: 
  0.980  0.980  0.997  0.997  0.997
    eigenvectors:
  0.250  0.750  0.000  0.000  0.000
  0.000  0.000  0.086  0.500  0.414
  0.000  0.000  0.827  0.000  0.173
  0.750  0.250  0.000  0.000  0.000
  0.000  0.000  0.086  0.500  0.414
    occupations:
  0.980  0.000  0.000  0.000  0.000
  0.000  0.997  0.000  0.000  0.000
  0.000  0.000  0.997  0.000  0.000
  0.000  0.000  0.000  0.980  0.000
  0.000  0.000  0.000  0.000  0.997
   spin  2
    eigenvalues: 
  0.384  0.384  0.995  0.995  0.995
    eigenvectors:
  0.750  0.250  0.000  0.000  0.000
  0.000  0.000  0.500  0.204  0.296
  0.000  0.000  0.000  0.592  0.408
  0.250  0.750  0.000  0.000  0.000
  0.000  0.000  0.500  0.204  0.296
    occupations:
  0.384 -0.001  0.000  0.000 -0.001
 -0.001  0.995  0.000 -0.001  0.000
  0.000  0.000  0.995 -0.001  0.000
  0.000 -0.001 -0.001  0.384  0.000
 -0.001  0.000  0.000  0.000  0.995
atomic mag. moment =     1.198647
atom    4   Tr[ns(na)] (up, down, total) =   4.95243  3.75378  8.70622
   spin  1
    eigenvalues: 
  0.980  0.980  0.997  0.997  0.997
    eigenvectors:
  0.250  0.750  0.000  0.000  0.000
  0.000  0.000  0.827  0.000  0.173
  0.000  0.000  0.086  0.500  0.414
  0.750  0.250  0.000  0.000  0.000
  0.000  0.000  0.086  0.500  0.414
    occupations:
  0.980  0.000  0.000  0.000  0.000
  0.000  0.997  0.000  0.000  0.000
  0.000  0.000  0.997  0.000  0.000
  0.000  0.000  0.000  0.980  0.000
  0.000  0.000  0.000  0.000  0.997
   spin  2
    eigenvalues: 
  0.384  0.384  0.995  0.995  0.995
    eigenvectors:
  0.750  0.250  0.000  0.000  0.000
  0.000  0.000  0.000  0.592  0.408
  0.000  0.000  0.500  0.204  0.296
  0.250  0.750  0.000  0.000  0.000
  0.000  0.000  0.500  0.204  0.296
    occupations:
  0.384  0.000  0.001  0.000 -0.001
  0.000  0.995  0.000 -0.001  0.000
  0.001  0.000  0.995 -0.001  0.000
  0.000 -0.001 -0.001  0.384  0.000
 -0.001  0.000  0.000  0.000  0.995
atomic mag. moment =     1.198647
atom    5   Tr[ns(na)] (up, down, total) =   3.75332  4.95240  8.70572
   spin  1
    eigenvalues: 
  0.384  0.384  0.995  0.995  0.995
    eigenvectors:
  0.750  0.250  0.000  0.000  0.000
  0.000  0.000  0.759  0.000  0.241
  0.000  0.000  0.120  0.500  0.380
  0.250  0.750  0.000  0.000  0.000
  0.000  0.000  0.120  0.500  0.380
    occupations:
  0.384 -0.001  0.001  0.000 -0.001
 -0.001  0.995  0.000 -0.001  0.000
  0.001  0.000  0.995 -0.001  0.000
  0.000 -0.001 -0.001  0.384  0.000
 -0.001  0.000  0.000  0.000  0.995
   spin  2
    eigenvalues: 
  0.980  0.980  0.997  0.997  0.997
    eigenvectors:
  0.250  0.750  0.000  0.000  0.000
  0.000  0.000  0.000  0.483  0.517
  0.000  0.000  0.500  0.258  0.242
  0.750  0.250  0.000  0.000  0.000
  0.000  0.000  0.500  0.258  0.242
    occupations:
  0.980  0.000  0.000  0.000  0.000
  0.000  0.997  0.000  0.000  0.000
  0.000  0.000  0.997  0.000  0.000
  0.000  0.000  0.000  0.980  0.000
  0.000  0.000  0.000  0.000  0.997
atomic mag. moment =    -1.199077
atom    6   Tr[ns(na)] (up, down, total) =   3.75332  4.95240  8.70572
   spin  1
    eigenvalues: 
  0.384  0.384  0.995  0.995  0.995
    eigenvectors:
  0.750  0.250  0.000  0.000  0.000
  0.000  0.000  0.120  0.500  0.380
  0.000  0.000  0.759  0.000  0.241
  0.250  0.750  0.000  0.000  0.000
  0.000  0.000  0.120  0.500  0.380
    occupations:
  0.384 -0.001  0.001  0.000 -0.001
 -0.001  0.995  0.000 -0.001  0.000
  0.001  0.000  0.995 -0.001  0.000
  0.000 -0.001 -0.001  0.384  0.000
 -0.001  0.000  0.000  0.000  0.995
   spin  2
    eigenvalues: 
  0.980  0.980  0.997  0.997  0.997
    eigenvectors:
  0.250  0.750  0.000  0.000  0.000
  0.000  0.000  0.500  0.258  0.242
  0.000  0.000  0.000  0.483  0.517
  0.750  0.250  0.000  0.000  0.000
  0.000  0.000  0.500  0.258  0.242
    occupations:
  0.980  0.000  0.000  0.000  0.000
  0.000  0.997  0.000  0.000  0.000
  0.000  0.000  0.997  0.000  0.000
  0.000  0.000  0.000  0.980  0.000
  0.000  0.000  0.000  0.000  0.997
atomic mag. moment =    -1.199077
atom    7   Tr[ns(na)] (up, down, total) =   3.75332  4.95240  8.70572
   spin  1
    eigenvalues: 
  0.384  0.384  0.995  0.995  0.995
    eigenvectors:
  0.000  1.000  0.000  0.000  0.000
  0.000  0.000  0.120  0.500  0.380
  0.000  0.000  0.120  0.500  0.380
  1.000  0.000  0.000  0.000  0.000
  0.000  0.000  0.759  0.000  0.241
    occupations:
  0.384 -0.001  0.001  0.000 -0.001
 -0.001  0.995  0.000 -0.001  0.000
  0.001  0.000  0.995 -0.001  0.000
  0.000 -0.001 -0.001  0.384  0.000
 -0.001  0.000  0.000  0.000  0.995
   spin  2
    eigenvalues: 
  0.980  0.980  0.997  0.997  0.997
    eigenvectors:
  1.000  0.000  0.000  0.000  0.000
  0.000  0.000  0.500  0.258  0.242
  0.000  0.000  0.500  0.258  0.242
  0.000  1.000  0.000  0.000  0.000
  0.000  0.000  0.000  0.483  0.517
    occupations:
  0.980  0.000  0.000  0.000  0.000
  0.000  0.997  0.000  0.000  0.000
  0.000  0.000  0.997  0.000  0.000
  0.000  0.000  0.000  0.980  0.000
  0.000  0.000  0.000  0.000  0.997
atomic mag. moment =    -1.199077
atom    8   Tr[ns(na)] (up, down, total) =   3.75866  4.95304  8.71171
   spin  1
    eigenvalues: 
  0.386  0.386  0.995  0.995  0.996
    eigenvectors:
  0.018  0.982  0.000  0.000  0.000
  0.000  0.000  0.033  0.633  0.333
  0.000  0.000  0.609  0.057  0.333
  0.982  0.018  0.000  0.000  0.000
  0.000  0.000  0.357  0.309  0.333
    occupations:
  0.386 -0.001  0.001  0.000 -0.001
 -0.001  0.995  0.000 -0.001  0.000
  0.001  0.000  0.995 -0.001  0.000
  0.000 -0.001 -0.001  0.386  0.000
 -0.001  0.000  0.000  0.000  0.995
   spin  2
    eigenvalues: 
  0.981  0.981  0.997  0.997  0.997
    eigenvectors:
  0.050  0.950  0.000  0.000  0.000
  0.000  0.000  0.041  0.626  0.333
  0.000  0.000  0.618  0.048  0.333
  0.950  0.050  0.000  0.000  0.000
  0.000  0.000  0.341  0.326  0.333
    occupations:
  0.981  0.000  0.000  0.000  0.000
  0.000  0.997  0.000  0.000  0.000
  0.000  0.000  0.997  0.000  0.000
  0.000  0.000  0.000  0.981  0.000
  0.000  0.000  0.000  0.000  0.997
atomic mag. moment =    -1.194381
atom    9   Tr[ns(na)] (up, down, total) =   2.81095  2.81120  5.62215
   spin  1
    eigenvalues: 
  0.936  0.937  0.938
    eigenvectors:
  0.123  0.500  0.377
  0.123  0.500  0.377
  0.754  0.000  0.246
    occupations:
  0.937  0.000  0.000
  0.000  0.937  0.000
  0.000  0.000  0.937
   spin  2
    eigenvalues: 
  0.937  0.937  0.938
    eigenvectors:
  0.500  0.169  0.331
  0.500  0.169  0.331
  0.000  0.662  0.338
    occupations:
  0.937  0.000  0.000
  0.000  0.937  0.000
  0.000  0.000  0.937
atomic mag. moment =    -0.000250
atom   10   Tr[ns(na)] (up, down, total) =   2.81115  2.81111  5.62226
   spin  1
    eigenvalues: 
  0.937  0.937  0.938
    eigenvectors:
  0.045  0.622  0.333
  0.333  0.334  0.333
  0.622  0.045  0.333
    occupations:
  0.937  0.000  0.000
  0.000  0.937  0.000
  0.000  0.000  0.937
   spin  2
    eigenvalues: 
  0.937  0.937  0.938
    eigenvectors:
  0.040  0.626  0.333
  0.342  0.324  0.333
  0.617  0.049  0.333
    occupations:
  0.937  0.000  0.000
  0.000  0.937  0.000
  0.000  0.000  0.937
atomic mag. moment =     0.000044
atom   11   Tr[ns(na)] (up, down, total) =   2.81095  2.81120  5.62215
   spin  1
    eigenvalues: 
  0.936  0.937  0.938
    eigenvectors:
  0.123  0.500  0.377
  0.754  0.000  0.246
  0.123  0.500  0.377
    occupations:
  0.937  0.000  0.000
  0.000  0.937  0.000
  0.000  0.000  0.937
   spin  2
    eigenvalues: 
  0.937  0.937  0.938
    eigenvectors:
  0.500  0.169  0.331
  0.000  0.662  0.338
  0.500  0.169  0.331
    occupations:
  0.937  0.000  0.000
  0.000  0.937  0.000
  0.000  0.000  0.937
atomic mag. moment =    -0.000250
atom   12   Tr[ns(na)] (up, down, total) =   2.81095  2.81120  5.62215
   spin  1
    eigenvalues: 
  0.936  0.937  0.938
    eigenvectors:
  0.754  0.000  0.246
  0.123  0.500  0.377
  0.123  0.500  0.377
    occupations:
  0.937  0.000  0.000
  0.000  0.937  0.000
  0.000  0.000  0.937
   spin  2
    eigenvalues: 
  0.937  0.937  0.938
    eigenvectors:
  0.000  0.662  0.338
  0.500  0.169  0.331
  0.500  0.169  0.331
    occupations:
  0.937  0.000  0.000
  0.000  0.937  0.000
  0.000  0.000  0.937
atomic mag. moment =    -0.000250
atom   13   Tr[ns(na)] (up, down, total) =   2.81095  2.81120  5.62215
   spin  1
    eigenvalues: 
  0.936  0.937  0.938
    eigenvectors:
  0.123  0.500  0.377
  0.754  0.000  0.246
  0.123  0.500  0.377
    occupations:
  0.937  0.000  0.000
  0.000  0.937  0.000
  0.000  0.000  0.937
   spin  2
    eigenvalues: 
  0.937  0.937  0.938
    eigenvectors:
  0.500  0.169  0.331
  0.000  0.662  0.338
  0.500  0.169  0.331
    occupations:
  0.937  0.000  0.000
  0.000  0.937  0.000
  0.000  0.000  0.937
atomic mag. moment =    -0.000250
atom   14   Tr[ns(na)] (up, down, total) =   2.81095  2.81120  5.62215
   spin  1
    eigenvalues: 
  0.936  0.937  0.938
    eigenvectors:
  0.754  0.000  0.246
  0.123  0.500  0.377
  0.123  0.500  0.377
    occupations:
  0.937  0.000  0.000
  0.000  0.937  0.000
  0.000  0.000  0.937
   spin  2
    eigenvalues: 
  0.937  0.937  0.938
    eigenvectors:
  0.000  0.662  0.338
  0.500  0.169  0.331
  0.500  0.169  0.331
    occupations:
  0.937  0.000  0.000
  0.000  0.937  0.000
  0.000  0.000  0.937
atomic mag. moment =    -0.000250
atom   15   Tr[ns(na)] (up, down, total) =   2.81115  2.81111  5.62226
   spin  1
    eigenvalues: 
  0.937  0.937  0.938
    eigenvectors:
  0.067  0.600  0.333
  0.293  0.374  0.333
  0.640  0.027  0.333
    occupations:
  0.937  0.000  0.000
  0.000  0.937  0.000
  0.000  0.000  0.937
   spin  2
    eigenvalues: 
  0.937  0.937  0.938
    eigenvectors:
  0.055  0.612  0.333
  0.314  0.353  0.333
  0.631  0.036  0.333
    occupations:
  0.937  0.000  0.000
  0.000  0.937  0.000
  0.000  0.000  0.937
atomic mag. moment =     0.000044
atom   16   Tr[ns(na)] (up, down, total) =   2.81095  2.81120  5.62215
   spin  1
    eigenvalues: 
  0.936  0.937  0.938
    eigenvectors:
  0.123  0.500  0.377
  0.123  0.500  0.377
  0.754  0.000  0.246
    occupations:
  0.937  0.000  0.000
  0.000  0.937  0.000
  0.000  0.000  0.937
   spin  2
    eigenvalues: 
  0.937  0.937  0.938
    eigenvectors:
  0.500  0.169  0.331
  0.500  0.169  0.331
  0.000  0.662  0.338
    occupations:
  0.937  0.000  0.000
  0.000  0.937  0.000
  0.000  0.000  0.937
atomic mag. moment =    -0.000250
N of occupied +U levels = 114.6293385
 --- exit write_ns ---
 --- in v_hubbard ---
Hubbard energy   -0.0320
 -------

     total cpu time spent up to now is      146.3 secs

     total energy              =    -942.04808869 Ry
     Harris-Foulkes estimate   =    -942.04812091 Ry
     estimated scf accuracy    <       0.00013424 Ry

     total magnetization       =     0.00 Bohr mag/cell
     absolute magnetization    =    12.28 Bohr mag/cell

     iteration #  3     ecut=    30.00 Ry     beta=0.30
     Davidson diagonalization with overlap
     ethr =  7.42E-08,  avg # of iterations =  1.9
 --- enter write_ns ---
 LDA+U parameters:
U( 1)     =  0.00000000
alpha( 1) = -0.05000000
U( 2)     =  0.00000000
alpha( 2) =  0.00000000
U( 3)     =  0.00000000
alpha( 3) =  0.00000000
U( 4)     =  0.00000000
alpha( 4) =  0.00000000
atom    1   Tr[ns(na)] (up, down, total) =   4.95261  3.75893  8.71154
   spin  1
    eigenvalues: 
  0.980  0.980  0.997  0.997  0.997
    eigenvectors:
  0.017  0.983  0.000  0.000  0.000
  0.000  0.000  0.037  0.630  0.333
  0.000  0.000  0.614  0.053  0.333
  0.983  0.017  0.000  0.000  0.000
  0.000  0.000  0.349  0.318  0.333
    occupations:
  0.980  0.000  0.000  0.000  0.000
  0.000  0.997  0.000  0.000  0.000
  0.000  0.000  0.997  0.000  0.000
  0.000  0.000  0.000  0.980  0.000
  0.000  0.000  0.000  0.000  0.997
   spin  2
    eigenvalues: 
  0.386  0.386  0.995  0.995  0.996
    eigenvectors:
  0.009  0.991  0.000  0.000  0.000
  0.000  0.000  0.032  0.634  0.333
  0.000  0.000  0.608  0.059  0.333
  0.991  0.009  0.000  0.000  0.000
  0.000  0.000  0.360  0.307  0.333
    occupations:
  0.386 -0.001  0.001  0.000 -0.001
 -0.001  0.995  0.000 -0.001  0.000
  0.001  0.000  0.995 -0.001  0.000
  0.000 -0.001 -0.001  0.386  0.000
 -0.001  0.000  0.000  0.000  0.995
atomic mag. moment =     1.193676
atom    2   Tr[ns(na)] (up, down, total) =   4.95240  3.75345  8.70585
   spin  1
    eigenvalues: 
  0.980  0.980  0.997  0.997  0.997
    eigenvectors:
  1.000  0.000  0.000  0.000  0.000
  0.000  0.000  0.500  0.180  0.320
  0.000  0.000  0.500  0.180  0.320
  0.000  1.000  0.000  0.000  0.000
  0.000  0.000  0.000  0.639  0.361
    occupations:
  0.980  0.000  0.000  0.000  0.000
  0.000  0.997  0.000  0.000  0.000
  0.000  0.000  0.997  0.000  0.000
  0.000  0.000  0.000  0.980  0.000
  0.000  0.000  0.000  0.000  0.997
   spin  2
    eigenvalues: 
  0.384  0.384  0.995  0.995  0.995
    eigenvectors:
  0.000  1.000  0.000  0.000  0.000
  0.000  0.000  0.128  0.500  0.372
  0.000  0.000  0.128  0.500  0.372
  1.000  0.000  0.000  0.000  0.000
  0.000  0.000  0.744  0.000  0.256
    occupations:
  0.384 -0.001  0.001  0.000 -0.001
 -0.001  0.995  0.000 -0.001  0.000
  0.001  0.000  0.995 -0.001  0.000
  0.000 -0.001 -0.001  0.384  0.000
 -0.001  0.000  0.000  0.000  0.995
atomic mag. moment =     1.198954
atom    3   Tr[ns(na)] (up, down, total) =   4.95240  3.75345  8.70585
   spin  1
    eigenvalues: 
  0.980  0.980  0.997  0.997  0.997
    eigenvectors:
  0.250  0.750  0.000  0.000  0.000
  0.000  0.000  0.500  0.180  0.320
  0.000  0.000  0.000  0.639  0.361
  0.750  0.250  0.000  0.000  0.000
  0.000  0.000  0.500  0.180  0.320
    occupations:
  0.980  0.000  0.000  0.000  0.000
  0.000  0.997  0.000  0.000  0.000
  0.000  0.000  0.997  0.000  0.000
  0.000  0.000  0.000  0.980  0.000
  0.000  0.000  0.000  0.000  0.997
   spin  2
    eigenvalues: 
  0.384  0.384  0.995  0.995  0.995
    eigenvectors:
  0.750  0.250  0.000  0.000  0.000
  0.000  0.000  0.128  0.500  0.372
  0.000  0.000  0.744  0.000  0.256
  0.250  0.750  0.000  0.000  0.000
  0.000  0.000  0.128  0.500  0.372
    occupations:
  0.384 -0.001  0.000  0.000 -0.001
 -0.001  0.995  0.000 -0.001  0.000
  0.000  0.000  0.995 -0.001  0.000
  0.000 -0.001 -0.001  0.384  0.000
 -0.001  0.000  0.000  0.000  0.995
atomic mag. moment =     1.198954
atom    4   Tr[ns(na)] (up, down, total) =   4.95240  3.75345  8.70585
   spin  1
    eigenvalues: 
  0.980  0.980  0.997  0.997  0.997
    eigenvectors:
  0.250  0.750  0.000  0.000  0.000
  0.000  0.000  0.000  0.639  0.361
  0.000  0.000  0.500  0.180  0.320
  0.750  0.250  0.000  0.000  0.000
  0.000  0.000  0.500  0.180  0.320
    occupations:
  0.980  0.000  0.000  0.000  0.000
  0.000  0.997  0.000  0.000  0.000
  0.000  0.000  0.997  0.000  0.000
  0.000  0.000  0.000  0.980  0.000
  0.000  0.000  0.000  0.000  0.997
   spin  2
    eigenvalues: 
  0.384  0.384  0.995  0.995  0.995
    eigenvectors:
  0.750  0.250  0.000  0.000  0.000
  0.000  0.000  0.744  0.000  0.256
  0.000  0.000  0.128  0.500  0.372
  0.250  0.750  0.000  0.000  0.000
  0.000  0.000  0.128  0.500  0.372
    occupations:
  0.384  0.000  0.001  0.000 -0.001
  0.000  0.995  0.000 -0.001  0.000
  0.001  0.000  0.995 -0.001  0.000
  0.000 -0.001 -0.001  0.384  0.000
 -0.001  0.000  0.000  0.000  0.995
atomic mag. moment =     1.198954
atom    5   Tr[ns(na)] (up, down, total) =   3.75364  4.95242  8.70606
   spin  1
    eigenvalues: 
  0.384  0.384  0.995  0.995  0.995
    eigenvectors:
  0.750  0.250  0.000  0.000  0.000
  0.000  0.000  0.000  0.653  0.347
  0.000  0.000  0.500  0.174  0.326
  0.250  0.750  0.000  0.000  0.000
  0.000  0.000  0.500  0.174  0.326
    occupations:
  0.384 -0.001  0.001  0.000 -0.001
 -0.001  0.995  0.000 -0.001  0.000
  0.001  0.000  0.995 -0.001  0.000
  0.000 -0.001 -0.001  0.384  0.000
 -0.001  0.000  0.000  0.000  0.995
   spin  2
    eigenvalues: 
  0.980  0.980  0.997  0.997  0.997
    eigenvectors:
  0.250  0.750  0.000  0.000  0.000
  0.000  0.000  0.793  0.000  0.207
  0.000  0.000  0.104  0.500  0.396
  0.750  0.250  0.000  0.000  0.000
  0.000  0.000  0.104  0.500  0.396
    occupations:
  0.980  0.000  0.000  0.000  0.000
  0.000  0.997  0.000  0.000  0.000
  0.000  0.000  0.997  0.000  0.000
  0.000  0.000  0.000  0.980  0.000
  0.000  0.000  0.000  0.000  0.997
atomic mag. moment =    -1.198776
atom    6   Tr[ns(na)] (up, down, total) =   3.75364  4.95242  8.70606
   spin  1
    eigenvalues: 
  0.384  0.384  0.995  0.995  0.995
    eigenvectors:
  0.750  0.250  0.000  0.000  0.000
  0.000  0.000  0.500  0.174  0.326
  0.000  0.000  0.000  0.653  0.347
  0.250  0.750  0.000  0.000  0.000
  0.000  0.000  0.500  0.174  0.326
    occupations:
  0.384 -0.001  0.001  0.000 -0.001
 -0.001  0.995  0.000 -0.001  0.000
  0.001  0.000  0.995 -0.001  0.000
  0.000 -0.001 -0.001  0.384  0.000
 -0.001  0.000  0.000  0.000  0.995
   spin  2
    eigenvalues: 
  0.980  0.980  0.997  0.997  0.997
    eigenvectors:
  0.250  0.750  0.000  0.000  0.000
  0.000  0.000  0.104  0.500  0.396
  0.000  0.000  0.793  0.000  0.207
  0.750  0.250  0.000  0.000  0.000
  0.000  0.000  0.104  0.500  0.396
    occupations:
  0.980  0.000  0.000  0.000  0.000
  0.000  0.997  0.000  0.000  0.000
  0.000  0.000  0.997  0.000  0.000
  0.000  0.000  0.000  0.980  0.000
  0.000  0.000  0.000  0.000  0.997
atomic mag. moment =    -1.198776
atom    7   Tr[ns(na)] (up, down, total) =   3.75364  4.95242  8.70606
   spin  1
    eigenvalues: 
  0.384  0.384  0.995  0.995  0.995
    eigenvectors:
  0.000  1.000  0.000  0.000  0.000
  0.000  0.000  0.500  0.174  0.326
  0.000  0.000  0.500  0.174  0.326
  1.000  0.000  0.000  0.000  0.000
  0.000  0.000  0.000  0.653  0.347
    occupations:
  0.384 -0.001  0.001  0.000 -0.001
 -0.001  0.995  0.000 -0.001  0.000
  0.001  0.000  0.995 -0.001  0.000
  0.000 -0.001 -0.001  0.384  0.000
 -0.001  0.000  0.000  0.000  0.995
   spin  2
    eigenvalues: 
  0.980  0.980  0.997  0.997  0.997
    eigenvectors:
  1.000  0.000  0.000  0.000  0.000
  0.000  0.000  0.104  0.500  0.396
  0.000  0.000  0.104  0.500  0.396
  0.000  1.000  0.000  0.000  0.000
  0.000  0.000  0.793  0.000  0.207
    occupations:
  0.980  0.000  0.000  0.000  0.000
  0.000  0.997  0.000  0.000  0.000
  0.000  0.000  0.997  0.000  0.000
  0.000  0.000  0.000  0.980  0.000
  0.000  0.000  0.000  0.000  0.997
atomic mag. moment =    -1.198776
atom    8   Tr[ns(na)] (up, down, total) =   3.75359  4.95188  8.70547
   spin  1
    eigenvalues: 
  0.384  0.384  0.995  0.995  0.995
    eigenvectors:
  0.024  0.976  0.000  0.000  0.000
  0.000  0.000  0.029  0.638  0.333
  0.000  0.000  0.603  0.063  0.333
  0.976  0.024  0.000  0.000  0.000
  0.000  0.000  0.367  0.299  0.333
    occupations:
  0.384 -0.001  0.001  0.000 -0.001
 -0.001  0.995  0.000 -0.001  0.000
  0.001  0.000  0.995 -0.001  0.000
  0.000 -0.001 -0.001  0.384  0.000
 -0.001  0.000  0.000  0.000  0.995
   spin  2
    eigenvalues: 
  0.980  0.980  0.997  0.997  0.997
    eigenvectors:
  0.019  0.981  0.000  0.000  0.000
  0.000  0.000  0.034  0.633  0.333
  0.000  0.000  0.610  0.057  0.333
  0.981  0.019  0.000  0.000  0.000
  0.000  0.000  0.356  0.311  0.333
    occupations:
  0.980  0.000  0.000  0.000  0.000
  0.000  0.997  0.000  0.000  0.000
  0.000  0.000  0.997  0.000  0.000
  0.000  0.000  0.000  0.980  0.000
  0.000  0.000  0.000  0.000  0.997
atomic mag. moment =    -1.198287
atom    9   Tr[ns(na)] (up, down, total) =   2.81121  2.81082  5.62203
   spin  1
    eigenvalues: 
  0.937  0.937  0.938
    eigenvectors:
  0.500  0.169  0.331
  0.500  0.169  0.331
  0.000  0.662  0.338
    occupations:
  0.937  0.000  0.000
  0.000  0.937  0.000
  0.000  0.000  0.937
   spin  2
    eigenvalues: 
  0.936  0.937  0.938
    eigenvectors:
  0.113  0.500  0.387
  0.113  0.500  0.387
  0.774  0.000  0.226
    occupations:
  0.937  0.000  0.000
  0.000  0.937  0.000
  0.000  0.000  0.937
atomic mag. moment =     0.000389
atom   10   Tr[ns(na)] (up, down, total) =   2.81113  2.81115  5.62228
   spin  1
    eigenvalues: 
  0.937  0.937  0.938
    eigenvectors:
  0.078  0.588  0.333
  0.275  0.392  0.333
  0.647  0.020  0.333
    occupations:
  0.937  0.000  0.000
  0.000  0.937  0.000
  0.000  0.000  0.937
   spin  2
    eigenvalues: 
  0.937  0.937  0.938
    eigenvectors:
  0.127  0.540  0.333
  0.210  0.457  0.333
  0.663  0.003  0.333
    occupations:
  0.937  0.000  0.000
  0.000  0.937  0.000
  0.000  0.000  0.937
atomic mag. moment =    -0.000018
atom   11   Tr[ns(na)] (up, down, total) =   2.81121  2.81082  5.62203
   spin  1
    eigenvalues: 
  0.937  0.937  0.938
    eigenvectors:
  0.500  0.169  0.331
  0.000  0.662  0.338
  0.500  0.169  0.331
    occupations:
  0.937  0.000  0.000
  0.000  0.937  0.000
  0.000  0.000  0.937
   spin  2
    eigenvalues: 
  0.936  0.937  0.938
    eigenvectors:
  0.113  0.500  0.387
  0.774  0.000  0.226
  0.113  0.500  0.387
    occupations:
  0.937  0.000  0.000
  0.000  0.937  0.000
  0.000  0.000  0.937
atomic mag. moment =     0.000389
atom   12   Tr[ns(na)] (up, down, total) =   2.81121  2.81082  5.62203
   spin  1
    eigenvalues: 
  0.937  0.937  0.938
    eigenvectors:
  0.000  0.662  0.338
  0.500  0.169  0.331
  0.500  0.169  0.331
    occupations:
  0.937  0.000  0.000
  0.000  0.937  0.000
  0.000  0.000  0.937
   spin  2
    eigenvalues: 
  0.936  0.937  0.938
    eigenvectors:
  0.774  0.000  0.226
  0.113  0.500  0.387
  0.113  0.500  0.387
    occupations:
  0.937  0.000  0.000
  0.000  0.937  0.000
  0.000  0.000  0.937
atomic mag. moment =     0.000389
atom   13   Tr[ns(na)] (up, down, total) =   2.81121  2.81082  5.62203
   spin  1
    eigenvalues: 
  0.937  0.937  0.938
    eigenvectors:
  0.500  0.169  0.331
  0.000  0.662  0.338
  0.500  0.169  0.331
    occupations:
  0.937  0.000  0.000
  0.000  0.937  0.000
  0.000  0.000  0.937
   spin  2
    eigenvalues: 
  0.936  0.937  0.938
    eigenvectors:
  0.113  0.500  0.387
  0.774  0.000  0.226
  0.113  0.500  0.387
    occupations:
  0.937  0.000  0.000
  0.000  0.937  0.000
  0.000  0.000  0.937
atomic mag. moment =     0.000389
atom   14   Tr[ns(na)] (up, down, total) =   2.81121  2.81082  5.62203
   spin  1
    eigenvalues: 
  0.937  0.937  0.938
    eigenvectors:
  0.000  0.662  0.338
  0.500  0.169  0.331
  0.500  0.169  0.331
    occupations:
  0.937  0.000  0.000
  0.000  0.937  0.000
  0.000  0.000  0.937
   spin  2
    eigenvalues: 
  0.936  0.937  0.938
    eigenvectors:
  0.774  0.000  0.226
  0.113  0.500  0.387
  0.113  0.500  0.387
    occupations:
  0.937  0.000  0.000
  0.000  0.937  0.000
  0.000  0.000  0.937
atomic mag. moment =     0.000389
atom   15   Tr[ns(na)] (up, down, total) =   2.81113  2.81115  5.62228
   spin  1
    eigenvalues: 
  0.937  0.937  0.938
    eigenvectors:
  0.063  0.604  0.333
  0.299  0.367  0.333
  0.637  0.029  0.333
    occupations:
  0.937  0.000  0.000
  0.000  0.937  0.000
  0.000  0.000  0.937
   spin  2
    eigenvalues: 
  0.937  0.937  0.938
    eigenvectors:
  0.113  0.554  0.333
  0.227  0.440  0.333
  0.660  0.007  0.333
    occupations:
  0.937  0.000  0.000
  0.000  0.937  0.000
  0.000  0.000  0.937
atomic mag. moment =    -0.000018
atom   16   Tr[ns(na)] (up, down, total) =   2.81121  2.81082  5.62203
   spin  1
    eigenvalues: 
  0.937  0.937  0.938
    eigenvectors:
  0.500  0.169  0.331
  0.500  0.169  0.331
  0.000  0.662  0.338
    occupations:
  0.937  0.000  0.000
  0.000  0.937  0.000
  0.000  0.000  0.937
   spin  2
    eigenvalues: 
  0.936  0.937  0.938
    eigenvectors:
  0.113  0.500  0.387
  0.113  0.500  0.387
  0.774  0.000  0.226
    occupations:
  0.937  0.000  0.000
  0.000  0.937  0.000
  0.000  0.000  0.937
atomic mag. moment =     0.000389
N of occupied +U levels = 114.6294966
 --- exit write_ns ---
 --- in v_hubbard ---
Hubbard energy   -0.0320
 -------

     total cpu time spent up to now is      189.0 secs

     total energy              =    -942.04810469 Ry
     Harris-Foulkes estimate   =    -942.04810488 Ry
     estimated scf accuracy    <       0.00000171 Ry

     total magnetization       =     0.00 Bohr mag/cell
     absolute magnetization    =    12.28 Bohr mag/cell

     iteration #  4     ecut=    30.00 Ry     beta=0.30
     Davidson diagonalization with overlap
     ethr =  1.34E-09,  avg # of iterations =  2.0
 --- enter write_ns ---
 LDA+U parameters:
U( 1)     =  0.00000000
alpha( 1) = -0.05000000
U( 2)     =  0.00000000
alpha( 2) =  0.00000000
U( 3)     =  0.00000000
alpha( 3) =  0.00000000
U( 4)     =  0.00000000
alpha( 4) =  0.00000000
atom    1   Tr[ns(na)] (up, down, total) =   4.95252  3.75898  8.71150
   spin  1
    eigenvalues: 
  0.980  0.980  0.997  0.997  0.997
    eigenvectors:
  0.014  0.986  0.000  0.000  0.000
  0.000  0.000  0.029  0.638  0.333
  0.000  0.000  0.603  0.064  0.333
  0.986  0.014  0.000  0.000  0.000
  0.000  0.000  0.369  0.298  0.333
    occupations:
  0.980  0.000  0.000  0.000  0.000
  0.000  0.997  0.000  0.000  0.000
  0.000  0.000  0.997  0.000  0.000
  0.000  0.000  0.000  0.980  0.000
  0.000  0.000  0.000  0.000  0.997
   spin  2
    eigenvalues: 
  0.386  0.386  0.995  0.995  0.996
    eigenvectors:
  0.011  0.989  0.000  0.000  0.000
  0.000  0.000  0.030  0.637  0.333
  0.000  0.000  0.604  0.063  0.333
  0.989  0.011  0.000  0.000  0.000
  0.000  0.000  0.366  0.300  0.333
    occupations:
  0.386 -0.001  0.001  0.000 -0.001
 -0.001  0.995  0.000 -0.001  0.000
  0.001  0.000  0.995 -0.001  0.000
  0.000 -0.001 -0.001  0.386  0.000
 -0.001  0.000  0.000  0.000  0.995
atomic mag. moment =     1.193534
atom    2   Tr[ns(na)] (up, down, total) =   4.95243  3.75357  8.70600
   spin  1
    eigenvalues: 
  0.980  0.980  0.997  0.997  0.997
    eigenvectors:
  1.000  0.000  0.000  0.000  0.000
  0.000  0.000  0.159  0.500  0.341
  0.000  0.000  0.159  0.500  0.341
  0.000  1.000  0.000  0.000  0.000
  0.000  0.000  0.683  0.000  0.317
    occupations:
  0.980  0.000  0.000  0.000  0.000
  0.000  0.997  0.000  0.000  0.000
  0.000  0.000  0.997  0.000  0.000
  0.000  0.000  0.000  0.980  0.000
  0.000  0.000  0.000  0.000  0.997
   spin  2
    eigenvalues: 
  0.384  0.384  0.995  0.995  0.995
    eigenvectors:
  1.000  0.000  0.000  0.000  0.000
  0.000  0.000  0.127  0.500  0.373
  0.000  0.000  0.127  0.500  0.373
  0.000  1.000  0.000  0.000  0.000
  0.000  0.000  0.747  0.000  0.253
    occupations:
  0.384 -0.001  0.001  0.000 -0.001
 -0.001  0.995  0.000 -0.001  0.000
  0.001  0.000  0.995 -0.001  0.000
  0.000 -0.001 -0.001  0.384  0.000
 -0.001  0.000  0.000  0.000  0.995
atomic mag. moment =     1.198857
atom    3   Tr[ns(na)] (up, down, total) =   4.95243  3.75357  8.70600
   spin  1
    eigenvalues: 
  0.980  0.980  0.997  0.997  0.997
    eigenvectors:
  0.250  0.750  0.000  0.000  0.000
  0.000  0.000  0.159  0.500  0.341
  0.000  0.000  0.683  0.000  0.317
  0.750  0.250  0.000  0.000  0.000
  0.000  0.000  0.159  0.500  0.341
    occupations:
  0.980  0.000  0.000  0.000  0.000
  0.000  0.997  0.000  0.000  0.000
  0.000  0.000  0.997  0.000  0.000
  0.000  0.000  0.000  0.980  0.000
  0.000  0.000  0.000  0.000  0.997
   spin  2
    eigenvalues: 
  0.384  0.384  0.995  0.995  0.995
    eigenvectors:
  0.250  0.750  0.000  0.000  0.000
  0.000  0.000  0.127  0.500  0.373
  0.000  0.000  0.747  0.000  0.253
  0.750  0.250  0.000  0.000  0.000
  0.000  0.000  0.127  0.500  0.373
    occupations:
  0.384 -0.001  0.000  0.000 -0.001
 -0.001  0.995  0.000 -0.001  0.000
  0.000  0.000  0.995 -0.001  0.000
  0.000 -0.001 -0.001  0.384  0.000
 -0.001  0.000  0.000  0.000  0.995
atomic mag. moment =     1.198857
atom    4   Tr[ns(na)] (up, down, total) =   4.95243  3.75357  8.70600
   spin  1
    eigenvalues: 
  0.980  0.980  0.997  0.997  0.997
    eigenvectors:
  0.250  0.750  0.000  0.000  0.000
  0.000  0.000  0.683  0.000  0.317
  0.000  0.000  0.159  0.500  0.341
  0.750  0.250  0.000  0.000  0.000
  0.000  0.000  0.159  0.500  0.341
    occupations:
  0.980  0.000  0.000  0.000  0.000
  0.000  0.997  0.000  0.000  0.000
  0.000  0.000  0.997  0.000  0.000
  0.000  0.000  0.000  0.980  0.000
  0.000  0.000  0.000  0.000  0.997
   spin  2
    eigenvalues: 
  0.384  0.384  0.995  0.995  0.995
    eigenvectors:
  0.250  0.750  0.000  0.000  0.000
  0.000  0.000  0.747  0.000  0.253
  0.000  0.000  0.127  0.500  0.373
  0.750  0.250  0.000  0.000  0.000
  0.000  0.000  0.127  0.500  0.373
    occupations:
  0.384  0.000  0.001  0.000 -0.001
  0.000  0.995  0.000 -0.001  0.000
  0.001  0.000  0.995 -0.001  0.000
  0.000 -0.001 -0.001  0.384  0.000
 -0.001  0.000  0.000  0.000  0.995
atomic mag. moment =     1.198857
atom    5   Tr[ns(na)] (up, down, total) =   3.75351  4.95239  8.70590
   spin  1
    eigenvalues: 
  0.384  0.384  0.995  0.995  0.995
    eigenvectors:
  0.750  0.250  0.000  0.000  0.000
  0.000  0.000  0.675  0.000  0.325
  0.000  0.000  0.162  0.500  0.338
  0.250  0.750  0.000  0.000  0.000
  0.000  0.000  0.162  0.500  0.338
    occupations:
  0.384 -0.001  0.001  0.000 -0.001
 -0.001  0.995  0.000 -0.001  0.000
  0.001  0.000  0.995 -0.001  0.000
  0.000 -0.001 -0.001  0.384  0.000
 -0.001  0.000  0.000  0.000  0.995
   spin  2
    eigenvalues: 
  0.980  0.980  0.997  0.997  0.997
    eigenvectors:
  0.250  0.750  0.000  0.000  0.000
  0.000  0.000  0.797  0.000  0.203
  0.000  0.000  0.101  0.500  0.399
  0.750  0.250  0.000  0.000  0.000
  0.000  0.000  0.101  0.500  0.399
    occupations:
  0.980  0.000  0.000  0.000  0.000
  0.000  0.997  0.000  0.000  0.000
  0.000  0.000  0.997  0.000  0.000
  0.000  0.000  0.000  0.980  0.000
  0.000  0.000  0.000  0.000  0.997
atomic mag. moment =    -1.198879
atom    6   Tr[ns(na)] (up, down, total) =   3.75351  4.95239  8.70590
   spin  1
    eigenvalues: 
  0.384  0.384  0.995  0.995  0.995
    eigenvectors:
  0.750  0.250  0.000  0.000  0.000
  0.000  0.000  0.162  0.500  0.338
  0.000  0.000  0.675  0.000  0.325
  0.250  0.750  0.000  0.000  0.000
  0.000  0.000  0.162  0.500  0.338
    occupations:
  0.384 -0.001  0.001  0.000 -0.001
 -0.001  0.995  0.000 -0.001  0.000
  0.001  0.000  0.995 -0.001  0.000
  0.000 -0.001 -0.001  0.384  0.000
 -0.001  0.000  0.000  0.000  0.995
   spin  2
    eigenvalues: 
  0.980  0.980  0.997  0.997  0.997
    eigenvectors:
  0.250  0.750  0.000  0.000  0.000
  0.000  0.000  0.101  0.500  0.399
  0.000  0.000  0.797  0.000  0.203
  0.750  0.250  0.000  0.000  0.000
  0.000  0.000  0.101  0.500  0.399
    occupations:
  0.980  0.000  0.000  0.000  0.000
  0.000  0.997  0.000  0.000  0.000
  0.000  0.000  0.997  0.000  0.000
  0.000  0.000  0.000  0.980  0.000
  0.000  0.000  0.000  0.000  0.997
atomic mag. moment =    -1.198879
atom    7   Tr[ns(na)] (up, down, total) =   3.75351  4.95239  8.70590
   spin  1
    eigenvalues: 
  0.384  0.384  0.995  0.995  0.995
    eigenvectors:
  0.000  1.000  0.000  0.000  0.000
  0.000  0.000  0.162  0.500  0.338
  0.000  0.000  0.162  0.500  0.338
  1.000  0.000  0.000  0.000  0.000
  0.000  0.000  0.675  0.000  0.325
    occupations:
  0.384 -0.001  0.001  0.000 -0.001
 -0.001  0.995  0.000 -0.001  0.000
  0.001  0.000  0.995 -0.001  0.000
  0.000 -0.001 -0.001  0.384  0.000
 -0.001  0.000  0.000  0.000  0.995
   spin  2
    eigenvalues: 
  0.980  0.980  0.997  0.997  0.997
    eigenvectors:
  1.000  0.000  0.000  0.000  0.000
  0.000  0.000  0.101  0.500  0.399
  0.000  0.000  0.101  0.500  0.399
  0.000  1.000  0.000  0.000  0.000
  0.000  0.000  0.797  0.000  0.203
    occupations:
  0.980  0.000  0.000  0.000  0.000
  0.000  0.997  0.000  0.000  0.000
  0.000  0.000  0.997  0.000  0.000
[...]
    10.6484  10.6570  10.8660  10.8678  10.9591  10.9615  11.2371  11.2418
    11.2457  11.2506  11.2909  11.2952  11.3213  11.3274  11.4271  11.4304
    13.0275  13.0341  13.0358  13.0422  13.0455  13.0503  13.0561  13.0607
    16.4817  16.4826  19.6514  19.6519  19.7122

     occupation numbers 
     0.0469   0.0469   0.0469   0.0469   0.0469   0.0469   0.0469   0.0469
     0.0469   0.0469   0.0469   0.0469   0.0469   0.0469   0.0469   0.0469
     0.0469   0.0469   0.0469   0.0469   0.0469   0.0469   0.0469   0.0469
     0.0469   0.0469   0.0469   0.0469   0.0469   0.0469   0.0469   0.0469
     0.0469   0.0469   0.0469   0.0469   0.0469   0.0469   0.0469   0.0469
     0.0469   0.0469   0.0469   0.0469   0.0469   0.0469   0.0469   0.0469
     0.0469   0.0469   0.0469   0.0469   0.0469   0.0469   0.0469   0.0469
     0.0469   0.0469   0.0469   0.0469   0.0469   0.0469   0.0469   0.0469
     0.0000   0.0000   0.0000   0.0000   0.0000   0.0000   0.0000   0.0000
     0.0000   0.0000   0.0000   0.0000   0.0000

          k = 0.0000 0.5000 0.0000 (  2706 PWs)   bands (ev):

    -7.8507  -6.8090  -6.7537  -6.7533  -6.7527  -6.7526  -6.5691  -6.5670
     4.4857   4.4863   4.4887   4.4930   5.2298   5.5178   5.5178   6.5236
     6.5241   6.5439   6.5799   6.5873   6.6151   6.6170   6.6747   7.0572
     7.0573   7.1619   7.1643   7.4566   7.9673   7.9724   8.6465   8.6555
     8.9493   9.5293   9.6239   9.6242   9.8088   9.9747  10.0526  10.0528
    10.0924  10.1074  10.1814  10.2737  10.2740  10.3924  10.4059  10.5394
    10.5410  10.6089  10.6095  10.6547  10.9041  11.0008  11.0042  11.0432
    11.0508  11.1630  11.2352  11.2866  11.2894  11.3381  11.3437  11.3725
    12.8711  13.0273  13.0354  13.0378  13.5180  13.5614  13.6367  13.6409
    15.2130  18.5663  18.5675  18.5679  18.5683

     occupation numbers 
     0.0938   0.0938   0.0938   0.0938   0.0938   0.0938   0.0938   0.0938
     0.0938   0.0938   0.0938   0.0938   0.0938   0.0938   0.0938   0.0938
     0.0938   0.0938   0.0938   0.0938   0.0938   0.0938   0.0938   0.0938
     0.0938   0.0938   0.0938   0.0938   0.0938   0.0938   0.0938   0.0938
     0.0938   0.0938   0.0938   0.0938   0.0938   0.0938   0.0938   0.0938
     0.0938   0.0938   0.0938   0.0938   0.0938   0.0938   0.0938   0.0938
     0.0938   0.0938   0.0938   0.0938   0.0938   0.0938   0.0938   0.0938
     0.0938   0.0937   0.0937   0.0937   0.0937   0.0937   0.0937   0.0937
     0.0000   0.0000   0.0000   0.0000   0.0000   0.0000   0.0000   0.0000
     0.0000   0.0000   0.0000   0.0000   0.0000

          k = 0.7500-0.2500 0.7500 (  2734 PWs)   bands (ev):

    -7.5013  -7.1709  -6.9667  -6.7708  -6.7701  -6.5958  -6.5573  -6.5554
     4.9590   4.9617   4.9733   5.3021   5.4197   5.4945   5.5154   6.1705
     6.2055   6.2314   6.2605   6.5833   6.5861   6.7394   6.7439   6.8558
     6.8841   6.9167   6.9870   7.3509   7.3707   7.7150   7.7545   8.0090
     9.4506   9.6460   9.8182   9.8902   9.9511   9.9640  10.0324  10.1341
    10.1365  10.1641  10.2059  10.2828  10.3101  10.3177  10.4729  10.5072
    10.7281  10.7338  10.7360  10.7498  10.8715  10.8986  11.0325  11.0711
    11.1610  11.1881  11.2187  11.2500  11.3254  11.3291  11.3473  11.4035
    12.7308  12.7746  12.8277  12.9239  13.2289  13.2524  13.3578  13.4269
    16.6937  17.6015  18.6701  19.3621  19.3638

     occupation numbers 
     0.1875   0.1875   0.1875   0.1875   0.1875   0.1875   0.1875   0.1875
     0.1875   0.1875   0.1875   0.1875   0.1875   0.1875   0.1875   0.1875
     0.1875   0.1875   0.1875   0.1875   0.1875   0.1875   0.1875   0.1875
     0.1875   0.1875   0.1875   0.1875   0.1875   0.1875   0.1875   0.1875
     0.1875   0.1875   0.1875   0.1875   0.1875   0.1875   0.1875   0.1875
     0.1875   0.1875   0.1875   0.1875   0.1875   0.1875   0.1875   0.1875
     0.1875   0.1875   0.1875   0.1875   0.1875   0.1875   0.1875   0.1875
     0.1875   0.1875   0.1875   0.1875   0.1875   0.1875   0.1875   0.1875
     0.0000   0.0000   0.0000   0.0000   0.0000   0.0000   0.0000   0.0000
     0.0000   0.0000   0.0000   0.0000   0.0000

          k = 0.5000 0.0000 0.5000 (  2742 PWs)   bands (ev):

    -7.6391  -7.0160  -7.0158  -6.7205  -6.7201  -6.6030  -6.6019  -6.5469
     4.7658   4.7716   5.0620   5.0643   5.2586   5.2594   5.6967   5.9594
     6.2812   6.2974   6.5224   6.7138   6.7396   6.7411   6.9083   6.9097
     6.9253   7.1530   7.1553   7.1832   7.4430   7.4457   7.6254   8.1185
     9.6533   9.6541   9.7853   9.8442   9.9000   9.9014  10.0391  10.1074
    10.1295  10.2224  10.2245  10.2258  10.2258  10.3561  10.3583  10.5114
    10.7126  10.7451  10.7464  10.8237  10.8958  11.0887  11.0906  11.1074
    11.2001  11.2045  11.2254  11.2364  11.2737  11.3387  11.3982  11.4006
    13.0313  13.0410  13.0502  13.0534  13.1075  13.1426  13.1474  13.2771
    16.0070  18.0602  18.0614  19.3770  19.3790

     occupation numbers 
     0.0938   0.0938   0.0938   0.0938   0.0938   0.0938   0.0938   0.0938
     0.0938   0.0938   0.0938   0.0938   0.0938   0.0938   0.0938   0.0938
     0.0938   0.0938   0.0938   0.0938   0.0938   0.0938   0.0938   0.0938
     0.0938   0.0938   0.0938   0.0938   0.0938   0.0938   0.0938   0.0938
     0.0938   0.0938   0.0938   0.0938   0.0938   0.0938   0.0938   0.0938
     0.0938   0.0938   0.0938   0.0938   0.0938   0.0938   0.0938   0.0938
     0.0938   0.0938   0.0938   0.0938   0.0938   0.0938   0.0938   0.0938
     0.0937   0.0937   0.0937   0.0937   0.0937   0.0937   0.0937   0.0937
     0.0000   0.0000   0.0000   0.0000   0.0000   0.0000   0.0000   0.0000
     0.0000   0.0000   0.0000   0.0000   0.0000

          k = 0.0000-1.0000 0.0000 (  2762 PWs)   bands (ev):

    -7.3106  -7.3098  -6.8171  -6.8160  -6.8155  -6.8153  -6.5147  -6.5123
     5.0144   5.0163   5.0225   5.0233   5.7642   5.7660   6.0947   6.0974
     6.1003   6.1032   6.3984   6.4003   6.6454   6.6477   6.6778   6.6800
     6.7168   6.7201   6.7228   6.7267   8.1447   8.1465   8.1555   8.1576
     9.2420   9.2464   9.9461   9.9468  10.0263  10.0271  10.0413  10.0421
    10.0425  10.0455  10.1651  10.1665  10.3456  10.3467  10.4928  10.4929
    10.5119  10.5155  10.5787  10.5790  10.9003  10.9086  10.9962  11.0015
    11.1381  11.1449  11.2172  11.2233  11.3270  11.3312  11.3327  11.3374
    12.4492  12.4584  12.7099  12.7164  13.5101  13.5141  13.6097  13.6140
    17.6655  17.6673  19.2508  19.2514  19.2527

     occupation numbers 
     0.0469   0.0469   0.0469   0.0469   0.0469   0.0469   0.0469   0.0469
     0.0469   0.0469   0.0469   0.0469   0.0469   0.0469   0.0469   0.0469
     0.0469   0.0469   0.0469   0.0469   0.0469   0.0469   0.0469   0.0469
     0.0469   0.0469   0.0469   0.0469   0.0469   0.0469   0.0469   0.0469
     0.0469   0.0469   0.0469   0.0469   0.0469   0.0469   0.0469   0.0469
     0.0469   0.0469   0.0469   0.0469   0.0469   0.0469   0.0469   0.0469
     0.0469   0.0469   0.0469   0.0469   0.0469   0.0469   0.0469   0.0469
     0.0469   0.0469   0.0469   0.0469   0.0469   0.0469   0.0469   0.0469
     0.0000   0.0000   0.0000   0.0000   0.0000   0.0000   0.0000   0.0000
     0.0000   0.0000   0.0000   0.0000   0.0000

          k =-0.5000-1.0000 0.0000 (  2740 PWs)   bands (ev):

    -7.1521  -7.1507  -7.1504  -7.1499  -6.5807  -6.5782  -6.5771  -6.5737
     5.2767   5.2772   5.2798   5.3241   5.3770   5.5379   5.5379   5.6491
     6.2207   6.2489   6.2507   6.2807   6.6155   6.6161   6.6290   6.7563
     6.8970   7.2616   7.2639   7.4578   7.4725   7.5003   7.5013   7.5515
     9.7071   9.7343   9.7347   9.8020   9.9821  10.0330  10.0334  10.0660
    10.1136  10.2675  10.2843  10.2846  10.3400  10.3407  10.3941  10.4605
    10.6116  10.6584  10.6584  10.6860  10.9407  10.9420  10.9615  10.9835
    11.1677  11.1757  11.1818  11.2731  11.2884  11.2926  11.3591  11.3597
    12.7670  12.8794  12.8856  12.9965  13.1477  13.1895  13.1950  13.2372
    18.0163  18.0352  18.0362  18.0567  20.8579

     occupation numbers 
     0.0938   0.0938   0.0938   0.0938   0.0938   0.0938   0.0938   0.0938
     0.0938   0.0938   0.0938   0.0938   0.0938   0.0938   0.0938   0.0938
     0.0938   0.0938   0.0938   0.0938   0.0938   0.0938   0.0938   0.0938
     0.0938   0.0938   0.0938   0.0938   0.0938   0.0938   0.0938   0.0938
     0.0938   0.0938   0.0938   0.0938   0.0938   0.0938   0.0938   0.0938
     0.0938   0.0938   0.0938   0.0938   0.0938   0.0938   0.0938   0.0938
     0.0938   0.0938   0.0938   0.0938   0.0938   0.0938   0.0938   0.0938
     0.0937   0.0937   0.0937   0.0937   0.0937   0.0937   0.0937   0.0937
     0.0000   0.0000   0.0000   0.0000   0.0000   0.0000   0.0000   0.0000
     0.0000   0.0000   0.0000   0.0000   0.0000

          k =-0.2500 0.2500 0.2500 (  2743 PWs)   bands (ev):

    -7.9040  -6.9277  -6.6831  -6.6829  -6.6829  -6.6348  -6.6348  -6.6324
     4.3416   4.3416   4.3451   4.6059   5.3407   5.3407   5.3409   6.4743
     6.4743   6.4749   6.6177   6.6177   6.6189   6.6921   6.6921   7.2081
     7.2081   7.2097   7.7013   7.7013   7.7026   7.9697   8.4475   8.4475
     9.2579   9.2579   9.2580   9.6150   9.6150   9.9986  10.0621  10.0621
    10.0624  10.2706  10.2722  10.2722  10.5985  10.5995  10.5995  10.6174
    10.6174  10.7199  10.7199  10.7209  10.9087  10.9087  10.9354  10.9354
    10.9363  11.0271  11.2490  11.2490  11.2539  11.3870  11.3892  11.3892
    13.3278  13.3278  13.3431  13.3431  13.3472  13.3521  13.3521  13.3547
    14.7666  17.5951  18.6749  18.6756  18.6756

     occupation numbers 
     0.0313   0.0313   0.0313   0.0313   0.0313   0.0313   0.0313   0.0313
     0.0313   0.0313   0.0313   0.0313   0.0313   0.0313   0.0313   0.0313
     0.0313   0.0313   0.0313   0.0313   0.0313   0.0313   0.0313   0.0313
     0.0313   0.0313   0.0313   0.0313   0.0313   0.0313   0.0313   0.0313
     0.0313   0.0313   0.0313   0.0313   0.0313   0.0313   0.0313   0.0313
     0.0313   0.0313   0.0313   0.0313   0.0313   0.0313   0.0313   0.0313
     0.0313   0.0313   0.0313   0.0313   0.0313   0.0313   0.0313   0.0313
     0.0313   0.0313   0.0312   0.0312   0.0312   0.0312   0.0312   0.0312
     0.0000   0.0000   0.0000   0.0000   0.0000   0.0000   0.0000   0.0000
     0.0000   0.0000   0.0000   0.0000   0.0000

          k = 0.5000-0.5000-0.5000 (  2764 PWs)   bands (ev):

    -7.4511  -7.4422  -6.6715  -6.6712  -6.6712  -6.6537  -6.6537  -6.6511
     5.0083   5.0083   5.0092   5.1065   5.1065   5.1101   6.0762   6.1134
     6.2571   6.2577   6.2577   6.6843   6.6843   6.6863   6.7470   6.7474
     6.7474   6.9768   6.9768   7.4404   7.4404   7.4439   7.8576   7.8576
     9.4882   9.4884   9.4884   9.6713   9.6713  10.1140  10.1183  10.1183
    10.1183  10.4397  10.4421  10.4421  10.5044  10.5044  10.5044  10.7195
    10.7195  10.8403  10.8407  10.8407  10.8645  11.0539  11.0543  11.0543
    11.2373  11.2373  11.2422  11.2977  11.2977  11.3947  11.3970  11.3970
    13.0312  13.0312  13.0369  13.0506  13.0506  13.0643  13.0643  13.0686
    16.4087  16.5597  19.6300  19.6306  19.6306

     occupation numbers 
     0.0156   0.0156   0.0156   0.0156   0.0156   0.0156   0.0156   0.0156
     0.0156   0.0156   0.0156   0.0156   0.0156   0.0156   0.0156   0.0156
     0.0156   0.0156   0.0156   0.0156   0.0156   0.0156   0.0156   0.0156
     0.0156   0.0156   0.0156   0.0156   0.0156   0.0156   0.0156   0.0156
     0.0156   0.0156   0.0156   0.0156   0.0156   0.0156   0.0156   0.0156
     0.0156   0.0156   0.0156   0.0156   0.0156   0.0156   0.0156   0.0156
     0.0156   0.0156   0.0156   0.0156   0.0156   0.0156   0.0156   0.0156
     0.0156   0.0156   0.0156   0.0156   0.0156   0.0156   0.0156   0.0156
     0.0000   0.0000   0.0000   0.0000   0.0000   0.0000   0.0000   0.0000
     0.0000   0.0000   0.0000   0.0000   0.0000

          k =-0.7500 0.7500-0.2500 (  2734 PWs)   bands (ev):

    -7.5013  -7.1709  -6.9667  -6.7707  -6.7701  -6.5959  -6.5573  -6.5553
     4.9645   4.9696   4.9699   5.2405   5.4941   5.4986   5.5006   6.1176
     6.2243   6.2259   6.3404   6.5626   6.5641   6.6565   6.8149   6.8169
     6.8244   7.0355   7.0367   7.1520   7.4977   7.7400   7.7671   7.9943
     9.3766   9.5530   9.9395   9.9402  10.0164  10.0176  10.0387  10.0404
    10.0524  10.1736  10.2099  10.2103  10.3935  10.4387  10.4934  10.4934
    10.6536  10.6936  10.6940  10.7079  10.8911  10.9432  11.0874  11.0915
    11.2071  11.2120  11.2271  11.2625  11.2713  11.2731  11.3398  11.3445
    12.7326  12.7924  12.8724  12.8783  13.2486  13.3327  13.3389  13.3491
    16.6932  17.6025  18.6720  19.3602  19.3604

     occupation numbers 
     0.0938   0.0938   0.0938   0.0938   0.0938   0.0938   0.0938   0.0938
     0.0938   0.0938   0.0938   0.0938   0.0938   0.0938   0.0938   0.0938
     0.0938   0.0938   0.0938   0.0938   0.0938   0.0938   0.0938   0.0938
     0.0938   0.0938   0.0938   0.0938   0.0938   0.0938   0.0938   0.0938
     0.0938   0.0938   0.0938   0.0938   0.0938   0.0938   0.0938   0.0938
     0.0938   0.0938   0.0938   0.0938   0.0938   0.0938   0.0938   0.0938
     0.0938   0.0938   0.0938   0.0938   0.0938   0.0938   0.0938   0.0938
     0.0937   0.0937   0.0937   0.0937   0.0937   0.0937   0.0937   0.0937
     0.0000   0.0000   0.0000   0.0000   0.0000   0.0000   0.0000   0.0000
     0.0000   0.0000   0.0000   0.0000   0.0000

          k = 0.7500-0.7500-0.2500 (  2734 PWs)   bands (ev):

    -7.5014  -7.1710  -6.9667  -6.7708  -6.7702  -6.5956  -6.5572  -6.5552
     4.9584   4.9689   4.9689   5.2806   5.4338   5.4939   5.4957   6.2176
     6.2227   6.2241   6.2587   6.6489   6.6617   6.6627   6.6907   6.6930
     6.8242   7.0742   7.0755   7.2639   7.3754   7.7484   7.7561   8.0453
     9.3493   9.5398   9.7570   9.7570   9.7808  10.0562  10.0925  10.0926
    10.2817  10.2839  10.4160  10.4168  10.4373  10.5485  10.5487  10.5563
    10.5640  10.6454  10.6466  10.6470  10.8362  10.8743  10.8769  10.9536
    11.0656  11.2372  11.2681  11.2951  11.2957  11.3528  11.3553  11.4169
    12.6863  12.8313  12.8755  12.8811  13.2748  13.3280  13.3359  13.3396
    16.6931  17.6042  18.6696  19.3594  19.3596

     occupation numbers 
     0.0938   0.0938   0.0938   0.0938   0.0938   0.0938   0.0938   0.0938
     0.0938   0.0938   0.0938   0.0938   0.0938   0.0938   0.0938   0.0938
     0.0938   0.0938   0.0938   0.0938   0.0938   0.0938   0.0938   0.0938
     0.0938   0.0938   0.0938   0.0938   0.0938   0.0938   0.0938   0.0938
     0.0938   0.0938   0.0938   0.0938   0.0938   0.0938   0.0938   0.0938
     0.0938   0.0938   0.0938   0.0938   0.0938   0.0938   0.0938   0.0938
     0.0938   0.0938   0.0938   0.0938   0.0938   0.0938   0.0938   0.0938
     0.0938   0.0937   0.0937   0.0937   0.0937   0.0937   0.0937   0.0937
     0.0000   0.0000   0.0000   0.0000   0.0000   0.0000   0.0000   0.0000
     0.0000   0.0000   0.0000   0.0000   0.0000

          k =-0.5000 0.5000 0.0000 (  2742 PWs)   bands (ev):

    -7.6392  -7.0161  -7.0159  -6.7206  -6.7205  -6.6026  -6.6014  -6.5469
     4.7653   4.7680   5.0716   5.0771   5.2384   5.2386   5.6983   5.9625
     6.3102   6.3110   6.5816   6.6707   6.6725   6.7862   6.8513   6.9177
     7.0096   7.1553   7.1579   7.1984   7.1996   7.4801   7.8267   8.1164
     9.5535   9.6051   9.6329   9.6333   9.7704  10.0705  10.0710  10.1276
    10.2373  10.2396  10.3027  10.3803  10.4437  10.5524  10.5552  10.5562
    10.6262  10.6605  10.6615  10.7356  10.7604  10.8162  11.0436  11.0453
    11.0983  11.2629  11.2659  11.3334  11.3623  11.3647  11.3804  11.4025
    13.0331  13.0423  13.0476  13.0510  13.0576  13.1976  13.2027  13.2299
    16.0082  18.0598  18.0620  19.3724  19.3742

     occupation numbers 
     0.0938   0.0938   0.0938   0.0938   0.0938   0.0938   0.0938   0.0938
     0.0938   0.0938   0.0938   0.0938   0.0938   0.0938   0.0938   0.0938
     0.0938   0.0938   0.0938   0.0938   0.0938   0.0938   0.0938   0.0938
     0.0938   0.0938   0.0938   0.0938   0.0938   0.0938   0.0938   0.0938
     0.0938   0.0938   0.0938   0.0938   0.0938   0.0938   0.0938   0.0938
     0.0938   0.0938   0.0938   0.0938   0.0938   0.0938   0.0938   0.0938
     0.0938   0.0938   0.0938   0.0938   0.0938   0.0938   0.0938   0.0938
     0.0938   0.0937   0.0937   0.0937   0.0937   0.0937   0.0937   0.0937
     0.0000   0.0000   0.0000   0.0000   0.0000   0.0000   0.0000   0.0000
     0.0000   0.0000   0.0000   0.0000   0.0000

     the Fermi energy is    11.9519 ev

!    total energy              =    -942.04810518 Ry
     Harris-Foulkes estimate   =    -942.04810518 Ry
     estimated scf accuracy    <          3.9E-09 Ry

     The total energy is the sum of the following terms:

     one-electron contribution =     -56.33299789 Ry
     hartree contribution      =     175.71515058 Ry
     xc contribution           =    -297.54083756 Ry
     ewald contribution        =    -763.85740583 Ry
     Hubbard energy            =      -0.03201448 Ry
     smearing contrib. (-TS)   =       0.00000000 Ry

     total magnetization       =     0.00 Bohr mag/cell
     absolute magnetization    =    12.28 Bohr mag/cell

     convergence has been achieved in   7 iterations

     init_run     :     11.09s CPU     11.24s WALL (       1 calls)
     electrons    :    384.63s CPU    386.17s WALL (       1 calls)

     Called by init_run:
     wfcinit      :      0.00s CPU      0.00s WALL (       1 calls)
     potinit      :      0.99s CPU      1.03s WALL (       1 calls)

     Called by electrons:
     c_bands      :    274.16s CPU    274.78s WALL (       7 calls)
     sum_band     :     70.57s CPU     70.90s WALL (       7 calls)
     v_of_rho     :      7.69s CPU      7.72s WALL (       8 calls)
     v_h          :      0.18s CPU      0.18s WALL (       8 calls)
     v_xc         :      7.51s CPU      7.54s WALL (       8 calls)
     newd         :     34.86s CPU     34.88s WALL (       8 calls)
     mix_rho      :      0.48s CPU      0.49s WALL (       7 calls)

     Called by c_bands:
     init_us_2    :      2.24s CPU      2.24s WALL (     364 calls)
     cegterg      :    265.97s CPU    266.32s WALL (     182 calls)

     Called by sum_band:
     sum_band:bec :      0.42s CPU      0.41s WALL (     182 calls)
     addusdens    :     25.88s CPU     25.88s WALL (       7 calls)

     Called by *egterg:
     h_psi        :    174.07s CPU    174.33s WALL (     664 calls)
     s_psi        :     15.77s CPU     15.77s WALL (     664 calls)
     g_psi        :      0.78s CPU      0.78s WALL (     482 calls)
     cdiaghg      :     33.51s CPU     33.52s WALL (     638 calls)
     cegterg:over :     15.91s CPU     15.92s WALL (     482 calls)
     cegterg:upda :     10.31s CPU     10.32s WALL (     482 calls)
     cegterg:last :      5.93s CPU      5.93s WALL (     187 calls)

     Called by h_psi:
     h_psi:vloc   :    124.55s CPU    124.81s WALL (     664 calls)
     h_psi:vnl    :     31.48s CPU     31.49s WALL (     664 calls)
     add_vuspsi   :     15.72s CPU     15.72s WALL (     664 calls)
     vhpsi        :     17.52s CPU     17.53s WALL (     664 calls)

     General routines
     calbec       :     30.90s CPU     30.92s WALL (    1692 calls)
     fft          :      3.96s CPU      4.03s WALL (     236 calls)
     ffts         :      0.09s CPU      0.09s WALL (      30 calls)
     fftw         :    117.53s CPU    117.90s WALL (   79884 calls)
     interpolate  :      0.70s CPU      0.75s WALL (      30 calls)
     davcio       :      0.00s CPU      0.58s WALL (     390 calls)

     Parallel routines
     fft_scatter  :     32.34s CPU     32.69s WALL (   80150 calls)
     Hubbard U routines
     new_ns       :      2.81s CPU      3.07s WALL (       7 calls)
     vhpsi        :     17.52s CPU     17.53s WALL (     664 calls)

     PWSCF        :  6m36.29s CPU     6m38.03s WALL


   This run was terminated on:  15:31:55  13Nov2012            

=------------------------------------------------------------------------------=
