 
Job started on n18 at Tue Nov 13 15:00:07 EST 2012

     Program PWSCF v.5.0.1 starts on 13Nov2012 at 15: 0: 9 

     This program is part of the open-source Quantum ESPRESSO suite
     for quantum simulation of materials; please cite
         "P. Giannozzi et al., J. Phys.:Condens. Matter 21 395502 (2009);
          URL http://www.quantum-espresso.org", 
     in publications or presentations arising from this work. More details at
     http://www.quantum-espresso.org/quote.php

     Parallel version (MPI), running on     2 processors
     R & G space division:  proc/pool =    2

     Current dimensions of program PWSCF are:
     Max number of different atomic species (ntypx) = 10
     Max number of k-points (npk) =  40000
     Max angular momentum in pseudopotentials (lmaxx) =  3
     Reading input from NiO_U0_init.in
               file Ni.pbe-nd-rrkjus.UPF: wavefunction(s)  4S renormalized
               file Ni.pbe-nd-rrkjus.UPF: wavefunction(s)  4S renormalized
               file Ni.pbe-nd-rrkjus.UPF: wavefunction(s)  4S renormalized
               file O.pbe-rrkjus.UPF: wavefunction(s)  2S renormalized

     Subspace diagonalization in iterative solution of the eigenvalue problem:
     a serial algorithm will be used


     Parallelization info
     --------------------
     sticks:   dense  smooth     PW     G-vecs:    dense   smooth      PW
     Min        1293     519    150                43273    11032    1738
     Max        1294     520    151                43274    11043    1741
     Sum        2587    1039    301                86547    22075    3479


     Title: 
     GGA + U, U = 1D-40, init                                                   


     bravais-lattice index     =            2
     lattice parameter (alat)  =      15.8000  a.u.
     unit-cell volume          =     986.0780 (a.u.)^3
     number of atoms/cell      =           16
     number of atomic types    =            4
     number of electrons       =       128.00
     number of Kohn-Sham states=           77
     kinetic-energy cutoff     =      30.0000  Ry
     charge density cutoff     =     300.0000  Ry
     convergence threshold     =      1.0E-08
     mixing beta               =       0.3000
     number of iterations used =            8  plain     mixing
     Exchange-correlation      =  SLA  PW   PBE  PBE ( 1 4 3 4 0)
     EXX-fraction              =        0.00

     celldm(1)=  15.800000  celldm(2)=   0.000000  celldm(3)=   0.000000
     celldm(4)=   0.000000  celldm(5)=   0.000000  celldm(6)=   0.000000

     crystal axes: (cart. coord. in units of alat)
               a(1) = (  -0.500000   0.000000   0.500000 )  
               a(2) = (   0.000000   0.500000   0.500000 )  
               a(3) = (  -0.500000   0.500000   0.000000 )  

     reciprocal axes: (cart. coord. in units 2 pi/alat)
               b(1) = ( -1.000000 -1.000000  1.000000 )  
               b(2) = (  1.000000  1.000000  1.000000 )  
               b(3) = ( -1.000000  1.000000 -1.000000 )  


     PseudoPot. # 1 for Ni read from file:
     /home/mcurnan/dft-course/Project1/example_NiO/Ni.pbe-nd-rrkjus.UPF
     MD5 check sum: 8081f0a005c9a5470caab1a58e82ecb2
     Pseudo is Ultrasoft + core correction, Zval = 10.0
     Generated by new atomic code, or converted to UPF format
     Using radial grid of 1203 points,  6 beta functions with: 
                l(1) =   0
                l(2) =   0
                l(3) =   1
                l(4) =   1
                l(5) =   2
                l(6) =   2
     Q(r) pseudized with 0 coefficients 


     PseudoPot. # 2 for Ni read from file:
     /home/mcurnan/dft-course/Project1/example_NiO/Ni.pbe-nd-rrkjus.UPF
     MD5 check sum: 8081f0a005c9a5470caab1a58e82ecb2
     Pseudo is Ultrasoft + core correction, Zval = 10.0
     Generated by new atomic code, or converted to UPF format
     Using radial grid of 1203 points,  6 beta functions with: 
                l(1) =   0
                l(2) =   0
                l(3) =   1
                l(4) =   1
                l(5) =   2
                l(6) =   2
     Q(r) pseudized with 0 coefficients 


     PseudoPot. # 3 for Ni read from file:
     /home/mcurnan/dft-course/Project1/example_NiO/Ni.pbe-nd-rrkjus.UPF
     MD5 check sum: 8081f0a005c9a5470caab1a58e82ecb2
     Pseudo is Ultrasoft + core correction, Zval = 10.0
     Generated by new atomic code, or converted to UPF format
     Using radial grid of 1203 points,  6 beta functions with: 
                l(1) =   0
                l(2) =   0
                l(3) =   1
                l(4) =   1
                l(5) =   2
                l(6) =   2
     Q(r) pseudized with 0 coefficients 


     PseudoPot. # 4 for O  read from file:
     /home/mcurnan/dft-course/Project1/example_NiO/O.pbe-rrkjus.UPF
     MD5 check sum: 390ba29e75625707450f3bd3f0eb6be9
     Pseudo is Ultrasoft, Zval =  6.0
     Generated by new atomic code, or converted to UPF format
     Using radial grid of 1269 points,  4 beta functions with: 
                l(1) =   0
                l(2) =   0
                l(3) =   1
                l(4) =   1
     Q(r) pseudized with 0 coefficients 


     atomic species   valence    mass     pseudopotential
        Ni1           10.00     1.00000     Ni( 1.00)
        Ni2           10.00     1.00000     Ni( 1.00)
        Ni3           10.00     1.00000     Ni( 1.00)
        O1             6.00     1.00000     O ( 1.00)

     Starting magnetic structure 
     atomic species   magnetization
        Ni1          0.500
        Ni2          0.500
        Ni3         -0.500
        O1           0.000
 -----
     simplified LDA+U calculation, Hubbard_lmax = 2
     atomic species  L   Hubbard U  Hubbard alpha
        Ni1          2    0.000000    0.000000
        Ni2          2    0.000000    0.000000
        Ni3          2    0.000000    0.000000
        O1           1    0.000000    0.000000
 -----

     12 Sym. Ops., with inversion, found


                                    s                        frac. trans.

      isym =  1     identity                                     

 cryst.   s( 1) = (     1          0          0      )
                  (     0          1          0      )
                  (     0          0          1      )

 cart.    s( 1) = (  1.0000000  0.0000000  0.0000000 )
                  (  0.0000000  1.0000000  0.0000000 )
                  (  0.0000000  0.0000000  1.0000000 )


      isym =  2     180 deg rotation - cart. axis [1,1,0]        

 cryst.   s( 2) = (     0         -1          0      )
                  (    -1          0          0      )
                  (     0          0         -1      )

 cart.    s( 2) = (  0.0000000  1.0000000  0.0000000 )
                  (  1.0000000  0.0000000  0.0000000 )
                  (  0.0000000  0.0000000 -1.0000000 )


      isym =  3     180 deg rotation - cart. axis [1,0,1]        

 cryst.   s( 3) = (    -1          0          0      )
                  (     0          0         -1      )
                  (     0         -1          0      )

 cart.    s( 3) = (  0.0000000  0.0000000  1.0000000 )
                  (  0.0000000 -1.0000000  0.0000000 )
                  (  1.0000000  0.0000000  0.0000000 )


      isym =  4     180 deg rotation - cart. axis [0,1,-1]       

 cryst.   s( 4) = (     0          0         -1      )
                  (     0         -1          0      )
                  (    -1          0          0      )

 cart.    s( 4) = ( -1.0000000  0.0000000  0.0000000 )
                  (  0.0000000  0.0000000 -1.0000000 )
                  (  0.0000000 -1.0000000  0.0000000 )


      isym =  5     120 deg rotation - cart. axis [-1,1,1]       

 cryst.   s( 5) = (     0          1          0      )
                  (     0          0          1      )
                  (     1          0          0      )

 cart.    s( 5) = (  0.0000000 -1.0000000  0.0000000 )
                  (  0.0000000  0.0000000  1.0000000 )
                  ( -1.0000000  0.0000000  0.0000000 )


      isym =  6     120 deg rotation - cart. axis [1,-1,-1]      

 cryst.   s( 6) = (     0          0          1      )
                  (     1          0          0      )
                  (     0          1          0      )

 cart.    s( 6) = (  0.0000000  0.0000000 -1.0000000 )
                  ( -1.0000000  0.0000000  0.0000000 )
                  (  0.0000000  1.0000000  0.0000000 )


      isym =  7     inversion                                    

 cryst.   s( 7) = (    -1          0          0      )
                  (     0         -1          0      )
                  (     0          0         -1      )

 cart.    s( 7) = ( -1.0000000  0.0000000  0.0000000 )
                  (  0.0000000 -1.0000000  0.0000000 )
                  (  0.0000000  0.0000000 -1.0000000 )


      isym =  8     inv. 180 deg rotation - cart. axis [1,1,0]   

 cryst.   s( 8) = (     0          1          0      )
                  (     1          0          0      )
                  (     0          0          1      )

 cart.    s( 8) = (  0.0000000 -1.0000000  0.0000000 )
                  ( -1.0000000  0.0000000  0.0000000 )
                  (  0.0000000  0.0000000  1.0000000 )


      isym =  9     inv. 180 deg rotation - cart. axis [1,0,1]   

 cryst.   s( 9) = (     1          0          0      )
                  (     0          0          1      )
                  (     0          1          0      )

 cart.    s( 9) = (  0.0000000  0.0000000 -1.0000000 )
                  (  0.0000000  1.0000000  0.0000000 )
                  ( -1.0000000  0.0000000  0.0000000 )


      isym = 10     inv. 180 deg rotation - cart. axis [0,1,-1]  

 cryst.   s(10) = (     0          0          1      )
                  (     0          1          0      )
                  (     1          0          0      )

 cart.    s(10) = (  1.0000000  0.0000000  0.0000000 )
                  (  0.0000000  0.0000000  1.0000000 )
                  (  0.0000000  1.0000000  0.0000000 )


      isym = 11     inv. 120 deg rotation - cart. axis [-1,1,1]  

 cryst.   s(11) = (     0         -1          0      )
                  (     0          0         -1      )
                  (    -1          0          0      )

 cart.    s(11) = (  0.0000000  1.0000000  0.0000000 )
                  (  0.0000000  0.0000000 -1.0000000 )
                  (  1.0000000  0.0000000  0.0000000 )


      isym = 12     inv. 120 deg rotation - cart. axis [1,-1,-1] 

 cryst.   s(12) = (     0          0         -1      )
                  (    -1          0          0      )
                  (     0         -1          0      )

 cart.    s(12) = (  0.0000000  0.0000000  1.0000000 )
                  (  1.0000000  0.0000000  0.0000000 )
                  (  0.0000000 -1.0000000  0.0000000 )


     point group D_3d (-3m) 
     there are  6 classes
     the character table:

       E     2C3   3C2'  i     2S6   3s_d 
A_1g   1.00  1.00  1.00  1.00  1.00  1.00
A_2g   1.00  1.00 -1.00  1.00  1.00 -1.00
E_g    2.00 -1.00  0.00  2.00 -1.00  0.00
A_1u   1.00  1.00  1.00 -1.00 -1.00 -1.00
A_2u   1.00  1.00 -1.00 -1.00 -1.00  1.00
E_u    2.00 -1.00  0.00 -2.00  1.00  0.00

     the symmetry operations in each class:
     E        1
     3C2'     2    4    3
     2C3      5    6
     i        7
     3s_d     8   10    9
     2S6     11   12

   Cartesian axes

     site n.     atom                  positions (alat units)
         1           Ni1 tau(   1) = (   0.0000000   0.0000000   0.0000000  )
         2           Ni2 tau(   2) = (  -0.2500000   0.2500000   0.5000000  )
         3           Ni2 tau(   3) = (  -0.5000000   0.2500000   0.2500000  )
         4           Ni2 tau(   4) = (  -0.2500000   0.5000000   0.2500000  )
         5           Ni3 tau(   5) = (  -0.2500000   0.0000000   0.2500000  )
         6           Ni3 tau(   6) = (   0.0000000   0.2500000   0.2500000  )
         7           Ni3 tau(   7) = (  -0.2500000   0.2500000   0.0000000  )
         8           Ni3 tau(   8) = (  -0.5000000   0.5000000   0.5000000  )
         9           O1  tau(   9) = (   0.0000000   0.2500000   0.0000000  )
        10           O1  tau(  10) = (  -0.2500000   0.2500000   0.2500000  )
        11           O1  tau(  11) = (  -0.2500000   0.5000000   0.0000000  )
        12           O1  tau(  12) = (   0.0000000   0.5000000   0.2500000  )
        13           O1  tau(  13) = (  -0.2500000   0.5000000   0.5000000  )
        14           O1  tau(  14) = (  -0.5000000   0.5000000   0.2500000  )
        15           O1  tau(  15) = (  -0.2500000   0.7500000   0.2500000  )
        16           O1  tau(  16) = (  -0.5000000   0.7500000   0.5000000  )

   Crystallographic axes

     site n.     atom                  positions (cryst. coord.)
         1           Ni1 tau(   1) = (  0.0000000  0.0000000  0.0000000  )
         2           Ni2 tau(   2) = (  0.5000000  0.5000000  0.0000000  )
         3           Ni2 tau(   3) = (  0.5000000  0.0000000  0.5000000  )
         4           Ni2 tau(   4) = (  0.0000000  0.5000000  0.5000000  )
         5           Ni3 tau(   5) = (  0.5000000  0.0000000  0.0000000  )
         6           Ni3 tau(   6) = (  0.0000000  0.5000000  0.0000000  )
         7           Ni3 tau(   7) = (  0.0000000  0.0000000  0.5000000  )
         8           Ni3 tau(   8) = (  0.5000000  0.5000000  0.5000000  )
         9           O1  tau(   9) = ( -0.2500000  0.2500000  0.2500000  )
        10           O1  tau(  10) = (  0.2500000  0.2500000  0.2500000  )
        11           O1  tau(  11) = ( -0.2500000  0.2500000  0.7500000  )
        12           O1  tau(  12) = ( -0.2500000  0.7500000  0.2500000  )
        13           O1  tau(  13) = (  0.2500000  0.7500000  0.2500000  )
        14           O1  tau(  14) = (  0.2500000  0.2500000  0.7500000  )
        15           O1  tau(  15) = ( -0.2500000  0.7500000  0.7500000  )
        16           O1  tau(  16) = (  0.2500000  0.7500000  0.7500000  )

     number of k points=    26  gaussian smearing, width (Ry)=  0.0100
                       cart. coord. in units 2pi/alat
        k(    1) = (   0.0000000   0.0000000   0.0000000), wk =   0.0156250
        k(    2) = (  -0.2500000   0.2500000  -0.2500000), wk =   0.0937500
        k(    3) = (   0.5000000  -0.5000000   0.5000000), wk =   0.0468750
        k(    4) = (   0.0000000   0.5000000   0.0000000), wk =   0.0937500
        k(    5) = (   0.7500000  -0.2500000   0.7500000), wk =   0.1875000
        k(    6) = (   0.5000000   0.0000000   0.5000000), wk =   0.0937500
        k(    7) = (   0.0000000  -1.0000000   0.0000000), wk =   0.0468750
        k(    8) = (  -0.5000000  -1.0000000   0.0000000), wk =   0.0937500
        k(    9) = (  -0.2500000   0.2500000   0.2500000), wk =   0.0312500
        k(   10) = (   0.5000000  -0.5000000  -0.5000000), wk =   0.0156250
        k(   11) = (  -0.7500000   0.7500000  -0.2500000), wk =   0.0937500
        k(   12) = (   0.7500000  -0.7500000  -0.2500000), wk =   0.0937500
        k(   13) = (  -0.5000000   0.5000000   0.0000000), wk =   0.0937500
        k(   14) = (   0.0000000   0.0000000   0.0000000), wk =   0.0156250
        k(   15) = (  -0.2500000   0.2500000  -0.2500000), wk =   0.0937500
        k(   16) = (   0.5000000  -0.5000000   0.5000000), wk =   0.0468750
        k(   17) = (   0.0000000   0.5000000   0.0000000), wk =   0.0937500
        k(   18) = (   0.7500000  -0.2500000   0.7500000), wk =   0.1875000
        k(   19) = (   0.5000000   0.0000000   0.5000000), wk =   0.0937500
        k(   20) = (   0.0000000  -1.0000000   0.0000000), wk =   0.0468750
        k(   21) = (  -0.5000000  -1.0000000   0.0000000), wk =   0.0937500
        k(   22) = (  -0.2500000   0.2500000   0.2500000), wk =   0.0312500
        k(   23) = (   0.5000000  -0.5000000  -0.5000000), wk =   0.0156250
        k(   24) = (  -0.7500000   0.7500000  -0.2500000), wk =   0.0937500
        k(   25) = (   0.7500000  -0.7500000  -0.2500000), wk =   0.0937500
        k(   26) = (  -0.5000000   0.5000000   0.0000000), wk =   0.0937500

                       cryst. coord.
        k(    1) = (   0.0000000   0.0000000   0.0000000), wk =   0.0156250
        k(    2) = (   0.0000000   0.0000000   0.2500000), wk =   0.0937500
        k(    3) = (   0.0000000   0.0000000  -0.5000000), wk =   0.0468750
        k(    4) = (   0.0000000   0.2500000   0.2500000), wk =   0.0937500
        k(    5) = (   0.0000000   0.2500000  -0.5000000), wk =   0.1875000
        k(    6) = (   0.0000000   0.2500000  -0.2500000), wk =   0.0937500
        k(    7) = (   0.0000000  -0.5000000  -0.5000000), wk =   0.0468750
        k(    8) = (   0.2500000  -0.5000000  -0.2500000), wk =   0.0937500
        k(    9) = (   0.2500000   0.2500000   0.2500000), wk =   0.0312500
        k(   10) = (  -0.5000000  -0.5000000  -0.5000000), wk =   0.0156250
        k(   11) = (   0.2500000   0.2500000   0.7500000), wk =   0.0937500
        k(   12) = (  -0.5000000  -0.5000000  -0.7500000), wk =   0.0937500
        k(   13) = (   0.2500000   0.2500000   0.5000000), wk =   0.0937500
        k(   14) = (   0.0000000   0.0000000   0.0000000), wk =   0.0156250
        k(   15) = (   0.0000000   0.0000000   0.2500000), wk =   0.0937500
        k(   16) = (   0.0000000   0.0000000  -0.5000000), wk =   0.0468750
        k(   17) = (   0.0000000   0.2500000   0.2500000), wk =   0.0937500
        k(   18) = (   0.0000000   0.2500000  -0.5000000), wk =   0.1875000
        k(   19) = (   0.0000000   0.2500000  -0.2500000), wk =   0.0937500
        k(   20) = (   0.0000000  -0.5000000  -0.5000000), wk =   0.0468750
        k(   21) = (   0.2500000  -0.5000000  -0.2500000), wk =   0.0937500
        k(   22) = (   0.2500000   0.2500000   0.2500000), wk =   0.0312500
        k(   23) = (  -0.5000000  -0.5000000  -0.5000000), wk =   0.0156250
        k(   24) = (   0.2500000   0.2500000   0.7500000), wk =   0.0937500
        k(   25) = (  -0.5000000  -0.5000000  -0.7500000), wk =   0.0937500
        k(   26) = (   0.2500000   0.2500000   0.5000000), wk =   0.0937500

     Dense  grid:    86547 G-vectors     FFT dimensions: (  64,  64,  64)

     Smooth grid:    22075 G-vectors     FFT dimensions: (  40,  40,  40)

     Largest allocated arrays     est. size (Mb)     dimensions
        Kohn-Sham Wavefunctions         1.64 Mb     (   1395,   77)
        Atomic wavefunctions            1.70 Mb     (   1395,   80)
        NL pseudopotentials             4.43 Mb     (   1395,  208)
        Each V/rho on FFT grid          4.00 Mb     ( 131072,   2)
        Each G-vector array             0.33 Mb     (  43274)
        G-vector shells                 0.00 Mb     (    635)
     Largest temporary arrays     est. size (Mb)     dimensions
        Auxiliary wavefunctions         6.56 Mb     (   1395,  308)
        Each subspace H/S matrix        1.45 Mb     ( 308, 308)
        Each <psi_i|beta_j> matrix      0.24 Mb     (    208,   77)
        Arrays for rho mixing          16.00 Mb     ( 131072,   8)

     Check: negative/imaginary core charge=   -0.000047    0.000000

     Initial potential from superposition of free atoms

     starting charge  127.99632, renormalised to  128.00000
 --- in v_hubbard ---
Hubbard energy    0.0000
 -------
     Number of +U iterations with fixed ns =  0
     Starting occupations:
 --- enter write_ns ---
 LDA+U parameters:
U( 1)     =  0.00000000
alpha( 1) =  0.00000000
U( 2)     =  0.00000000
alpha( 2) =  0.00000000
U( 3)     =  0.00000000
alpha( 3) =  0.00000000
U( 4)     =  0.00000000
alpha( 4) =  0.00000000
atom    1   Tr[ns(na)] (up, down, total) =   5.00000  3.00000  8.00000
   spin  1
    eigenvalues: 
  1.000  1.000  1.000  1.000  1.000
    eigenvectors:
  1.000  0.000  0.000  0.000  0.000
  0.000  1.000  0.000  0.000  0.000
  0.000  0.000  1.000  0.000  0.000
  0.000  0.000  0.000  1.000  0.000
  0.000  0.000  0.000  0.000  1.000
    occupations:
  1.000  0.000  0.000  0.000  0.000
  0.000  1.000  0.000  0.000  0.000
  0.000  0.000  1.000  0.000  0.000
  0.000  0.000  0.000  1.000  0.000
  0.000  0.000  0.000  0.000  1.000
   spin  2
    eigenvalues: 
  0.600  0.600  0.600  0.600  0.600
    eigenvectors:
  1.000  0.000  0.000  0.000  0.000
  0.000  1.000  0.000  0.000  0.000
  0.000  0.000  1.000  0.000  0.000
  0.000  0.000  0.000  1.000  0.000
  0.000  0.000  0.000  0.000  1.000
    occupations:
  0.600  0.000  0.000  0.000  0.000
  0.000  0.600  0.000  0.000  0.000
  0.000  0.000  0.600  0.000  0.000
  0.000  0.000  0.000  0.600  0.000
  0.000  0.000  0.000  0.000  0.600
atomic mag. moment =     2.000000
atom    2   Tr[ns(na)] (up, down, total) =   5.00000  3.00000  8.00000
   spin  1
    eigenvalues: 
  1.000  1.000  1.000  1.000  1.000
    eigenvectors:
  1.000  0.000  0.000  0.000  0.000
  0.000  1.000  0.000  0.000  0.000
  0.000  0.000  1.000  0.000  0.000
  0.000  0.000  0.000  1.000  0.000
  0.000  0.000  0.000  0.000  1.000
    occupations:
  1.000  0.000  0.000  0.000  0.000
  0.000  1.000  0.000  0.000  0.000
  0.000  0.000  1.000  0.000  0.000
  0.000  0.000  0.000  1.000  0.000
  0.000  0.000  0.000  0.000  1.000
   spin  2
    eigenvalues: 
  0.600  0.600  0.600  0.600  0.600
    eigenvectors:
  1.000  0.000  0.000  0.000  0.000
  0.000  1.000  0.000  0.000  0.000
  0.000  0.000  1.000  0.000  0.000
  0.000  0.000  0.000  1.000  0.000
  0.000  0.000  0.000  0.000  1.000
    occupations:
  0.600  0.000  0.000  0.000  0.000
  0.000  0.600  0.000  0.000  0.000
  0.000  0.000  0.600  0.000  0.000
  0.000  0.000  0.000  0.600  0.000
  0.000  0.000  0.000  0.000  0.600
atomic mag. moment =     2.000000
atom    3   Tr[ns(na)] (up, down, total) =   5.00000  3.00000  8.00000
   spin  1
    eigenvalues: 
  1.000  1.000  1.000  1.000  1.000
    eigenvectors:
  1.000  0.000  0.000  0.000  0.000
  0.000  1.000  0.000  0.000  0.000
  0.000  0.000  1.000  0.000  0.000
  0.000  0.000  0.000  1.000  0.000
  0.000  0.000  0.000  0.000  1.000
    occupations:
  1.000  0.000  0.000  0.000  0.000
  0.000  1.000  0.000  0.000  0.000
  0.000  0.000  1.000  0.000  0.000
  0.000  0.000  0.000  1.000  0.000
  0.000  0.000  0.000  0.000  1.000
   spin  2
    eigenvalues: 
  0.600  0.600  0.600  0.600  0.600
    eigenvectors:
  1.000  0.000  0.000  0.000  0.000
  0.000  1.000  0.000  0.000  0.000
  0.000  0.000  1.000  0.000  0.000
  0.000  0.000  0.000  1.000  0.000
  0.000  0.000  0.000  0.000  1.000
    occupations:
  0.600  0.000  0.000  0.000  0.000
  0.000  0.600  0.000  0.000  0.000
  0.000  0.000  0.600  0.000  0.000
  0.000  0.000  0.000  0.600  0.000
  0.000  0.000  0.000  0.000  0.600
atomic mag. moment =     2.000000
atom    4   Tr[ns(na)] (up, down, total) =   5.00000  3.00000  8.00000
   spin  1
    eigenvalues: 
  1.000  1.000  1.000  1.000  1.000
    eigenvectors:
  1.000  0.000  0.000  0.000  0.000
  0.000  1.000  0.000  0.000  0.000
  0.000  0.000  1.000  0.000  0.000
  0.000  0.000  0.000  1.000  0.000
  0.000  0.000  0.000  0.000  1.000
    occupations:
  1.000  0.000  0.000  0.000  0.000
  0.000  1.000  0.000  0.000  0.000
  0.000  0.000  1.000  0.000  0.000
  0.000  0.000  0.000  1.000  0.000
  0.000  0.000  0.000  0.000  1.000
   spin  2
    eigenvalues: 
  0.600  0.600  0.600  0.600  0.600
    eigenvectors:
  1.000  0.000  0.000  0.000  0.000
  0.000  1.000  0.000  0.000  0.000
  0.000  0.000  1.000  0.000  0.000
  0.000  0.000  0.000  1.000  0.000
  0.000  0.000  0.000  0.000  1.000
    occupations:
  0.600  0.000  0.000  0.000  0.000
  0.000  0.600  0.000  0.000  0.000
  0.000  0.000  0.600  0.000  0.000
  0.000  0.000  0.000  0.600  0.000
  0.000  0.000  0.000  0.000  0.600
atomic mag. moment =     2.000000
atom    5   Tr[ns(na)] (up, down, total) =   3.00000  5.00000  8.00000
   spin  1
    eigenvalues: 
  0.600  0.600  0.600  0.600  0.600
    eigenvectors:
  1.000  0.000  0.000  0.000  0.000
  0.000  1.000  0.000  0.000  0.000
  0.000  0.000  1.000  0.000  0.000
  0.000  0.000  0.000  1.000  0.000
  0.000  0.000  0.000  0.000  1.000
    occupations:
  0.600  0.000  0.000  0.000  0.000
  0.000  0.600  0.000  0.000  0.000
  0.000  0.000  0.600  0.000  0.000
  0.000  0.000  0.000  0.600  0.000
  0.000  0.000  0.000  0.000  0.600
   spin  2
    eigenvalues: 
  1.000  1.000  1.000  1.000  1.000
    eigenvectors:
  1.000  0.000  0.000  0.000  0.000
  0.000  1.000  0.000  0.000  0.000
  0.000  0.000  1.000  0.000  0.000
  0.000  0.000  0.000  1.000  0.000
  0.000  0.000  0.000  0.000  1.000
    occupations:
  1.000  0.000  0.000  0.000  0.000
  0.000  1.000  0.000  0.000  0.000
  0.000  0.000  1.000  0.000  0.000
  0.000  0.000  0.000  1.000  0.000
  0.000  0.000  0.000  0.000  1.000
atomic mag. moment =    -2.000000
atom    6   Tr[ns(na)] (up, down, total) =   3.00000  5.00000  8.00000
   spin  1
    eigenvalues: 
  0.600  0.600  0.600  0.600  0.600
    eigenvectors:
  1.000  0.000  0.000  0.000  0.000
  0.000  1.000  0.000  0.000  0.000
  0.000  0.000  1.000  0.000  0.000
  0.000  0.000  0.000  1.000  0.000
  0.000  0.000  0.000  0.000  1.000
    occupations:
  0.600  0.000  0.000  0.000  0.000
  0.000  0.600  0.000  0.000  0.000
  0.000  0.000  0.600  0.000  0.000
  0.000  0.000  0.000  0.600  0.000
  0.000  0.000  0.000  0.000  0.600
   spin  2
    eigenvalues: 
  1.000  1.000  1.000  1.000  1.000
    eigenvectors:
  1.000  0.000  0.000  0.000  0.000
  0.000  1.000  0.000  0.000  0.000
  0.000  0.000  1.000  0.000  0.000
  0.000  0.000  0.000  1.000  0.000
  0.000  0.000  0.000  0.000  1.000
    occupations:
  1.000  0.000  0.000  0.000  0.000
  0.000  1.000  0.000  0.000  0.000
  0.000  0.000  1.000  0.000  0.000
  0.000  0.000  0.000  1.000  0.000
  0.000  0.000  0.000  0.000  1.000
atomic mag. moment =    -2.000000
atom    7   Tr[ns(na)] (up, down, total) =   3.00000  5.00000  8.00000
   spin  1
    eigenvalues: 
  0.600  0.600  0.600  0.600  0.600
    eigenvectors:
  1.000  0.000  0.000  0.000  0.000
  0.000  1.000  0.000  0.000  0.000
  0.000  0.000  1.000  0.000  0.000
  0.000  0.000  0.000  1.000  0.000
  0.000  0.000  0.000  0.000  1.000
    occupations:
  0.600  0.000  0.000  0.000  0.000
  0.000  0.600  0.000  0.000  0.000
  0.000  0.000  0.600  0.000  0.000
  0.000  0.000  0.000  0.600  0.000
  0.000  0.000  0.000  0.000  0.600
   spin  2
    eigenvalues: 
  1.000  1.000  1.000  1.000  1.000
    eigenvectors:
  1.000  0.000  0.000  0.000  0.000
  0.000  1.000  0.000  0.000  0.000
  0.000  0.000  1.000  0.000  0.000
  0.000  0.000  0.000  1.000  0.000
  0.000  0.000  0.000  0.000  1.000
    occupations:
  1.000  0.000  0.000  0.000  0.000
  0.000  1.000  0.000  0.000  0.000
  0.000  0.000  1.000  0.000  0.000
  0.000  0.000  0.000  1.000  0.000
  0.000  0.000  0.000  0.000  1.000
atomic mag. moment =    -2.000000
atom    8   Tr[ns(na)] (up, down, total) =   3.00000  5.00000  8.00000
   spin  1
    eigenvalues: 
  0.600  0.600  0.600  0.600  0.600
    eigenvectors:
  1.000  0.000  0.000  0.000  0.000
  0.000  1.000  0.000  0.000  0.000
  0.000  0.000  1.000  0.000  0.000
  0.000  0.000  0.000  1.000  0.000
  0.000  0.000  0.000  0.000  1.000
    occupations:
  0.600  0.000  0.000  0.000  0.000
  0.000  0.600  0.000  0.000  0.000
  0.000  0.000  0.600  0.000  0.000
  0.000  0.000  0.000  0.600  0.000
  0.000  0.000  0.000  0.000  0.600
   spin  2
    eigenvalues: 
  1.000  1.000  1.000  1.000  1.000
    eigenvectors:
  1.000  0.000  0.000  0.000  0.000
  0.000  1.000  0.000  0.000  0.000
  0.000  0.000  1.000  0.000  0.000
  0.000  0.000  0.000  1.000  0.000
  0.000  0.000  0.000  0.000  1.000
    occupations:
  1.000  0.000  0.000  0.000  0.000
  0.000  1.000  0.000  0.000  0.000
  0.000  0.000  1.000  0.000  0.000
  0.000  0.000  0.000  1.000  0.000
  0.000  0.000  0.000  0.000  1.000
atomic mag. moment =    -2.000000
atom    9   Tr[ns(na)] (up, down, total) =   2.00000  2.00000  4.00000
   spin  1
    eigenvalues: 
  0.667  0.667  0.667
    eigenvectors:
  1.000  0.000  0.000
  0.000  1.000  0.000
  0.000  0.000  1.000
    occupations:
  0.667  0.000  0.000
  0.000  0.667  0.000
  0.000  0.000  0.667
   spin  2
    eigenvalues: 
  0.667  0.667  0.667
    eigenvectors:
  1.000  0.000  0.000
  0.000  1.000  0.000
  0.000  0.000  1.000
    occupations:
  0.667  0.000  0.000
  0.000  0.667  0.000
  0.000  0.000  0.667
atomic mag. moment =     0.000000
atom   10   Tr[ns(na)] (up, down, total) =   2.00000  2.00000  4.00000
   spin  1
    eigenvalues: 
  0.667  0.667  0.667
    eigenvectors:
  1.000  0.000  0.000
  0.000  1.000  0.000
  0.000  0.000  1.000
    occupations:
  0.667  0.000  0.000
  0.000  0.667  0.000
  0.000  0.000  0.667
   spin  2
    eigenvalues: 
  0.667  0.667  0.667
    eigenvectors:
  1.000  0.000  0.000
  0.000  1.000  0.000
  0.000  0.000  1.000
    occupations:
  0.667  0.000  0.000
  0.000  0.667  0.000
  0.000  0.000  0.667
atomic mag. moment =     0.000000
atom   11   Tr[ns(na)] (up, down, total) =   2.00000  2.00000  4.00000
   spin  1
    eigenvalues: 
  0.667  0.667  0.667
    eigenvectors:
  1.000  0.000  0.000
  0.000  1.000  0.000
  0.000  0.000  1.000
    occupations:
  0.667  0.000  0.000
  0.000  0.667  0.000
  0.000  0.000  0.667
   spin  2
    eigenvalues: 
  0.667  0.667  0.667
    eigenvectors:
  1.000  0.000  0.000
  0.000  1.000  0.000
  0.000  0.000  1.000
    occupations:
  0.667  0.000  0.000
  0.000  0.667  0.000
  0.000  0.000  0.667
atomic mag. moment =     0.000000
atom   12   Tr[ns(na)] (up, down, total) =   2.00000  2.00000  4.00000
   spin  1
    eigenvalues: 
  0.667  0.667  0.667
    eigenvectors:
  1.000  0.000  0.000
  0.000  1.000  0.000
  0.000  0.000  1.000
    occupations:
  0.667  0.000  0.000
  0.000  0.667  0.000
  0.000  0.000  0.667
   spin  2
    eigenvalues: 
  0.667  0.667  0.667
    eigenvectors:
  1.000  0.000  0.000
  0.000  1.000  0.000
  0.000  0.000  1.000
    occupations:
  0.667  0.000  0.000
  0.000  0.667  0.000
  0.000  0.000  0.667
atomic mag. moment =     0.000000
atom   13   Tr[ns(na)] (up, down, total) =   2.00000  2.00000  4.00000
   spin  1
    eigenvalues: 
  0.667  0.667  0.667
    eigenvectors:
  1.000  0.000  0.000
  0.000  1.000  0.000
  0.000  0.000  1.000
    occupations:
  0.667  0.000  0.000
  0.000  0.667  0.000
  0.000  0.000  0.667
   spin  2
    eigenvalues: 
  0.667  0.667  0.667
    eigenvectors:
  1.000  0.000  0.000
  0.000  1.000  0.000
  0.000  0.000  1.000
    occupations:
  0.667  0.000  0.000
  0.000  0.667  0.000
  0.000  0.000  0.667
atomic mag. moment =     0.000000
atom   14   Tr[ns(na)] (up, down, total) =   2.00000  2.00000  4.00000
   spin  1
    eigenvalues: 
  0.667  0.667  0.667
    eigenvectors:
  1.000  0.000  0.000
  0.000  1.000  0.000
  0.000  0.000  1.000
    occupations:
  0.667  0.000  0.000
  0.000  0.667  0.000
  0.000  0.000  0.667
   spin  2
    eigenvalues: 
  0.667  0.667  0.667
    eigenvectors:
  1.000  0.000  0.000
  0.000  1.000  0.000
  0.000  0.000  1.000
    occupations:
  0.667  0.000  0.000
  0.000  0.667  0.000
  0.000  0.000  0.667
atomic mag. moment =     0.000000
atom   15   Tr[ns(na)] (up, down, total) =   2.00000  2.00000  4.00000
   spin  1
    eigenvalues: 
  0.667  0.667  0.667
    eigenvectors:
  1.000  0.000  0.000
  0.000  1.000  0.000
  0.000  0.000  1.000
    occupations:
  0.667  0.000  0.000
  0.000  0.667  0.000
  0.000  0.000  0.667
   spin  2
    eigenvalues: 
  0.667  0.667  0.667
    eigenvectors:
  1.000  0.000  0.000
  0.000  1.000  0.000
  0.000  0.000  1.000
    occupations:
  0.667  0.000  0.000
  0.000  0.667  0.000
  0.000  0.000  0.667
atomic mag. moment =     0.000000
atom   16   Tr[ns(na)] (up, down, total) =   2.00000  2.00000  4.00000
   spin  1
    eigenvalues: 
  0.667  0.667  0.667
    eigenvectors:
  1.000  0.000  0.000
  0.000  1.000  0.000
  0.000  0.000  1.000
    occupations:
  0.667  0.000  0.000
  0.000  0.667  0.000
  0.000  0.000  0.667
   spin  2
    eigenvalues: 
  0.667  0.667  0.667
    eigenvectors:
  1.000  0.000  0.000
  0.000  1.000  0.000
  0.000  0.000  1.000
    occupations:
  0.667  0.000  0.000
  0.000  0.667  0.000
  0.000  0.000  0.667
atomic mag. moment =     0.000000
N of occupied +U levels =  96.0000000
 --- exit write_ns ---
 Atomic wfc used for LDA+U Projector are NOT orthogonalized
     Starting wfc are   80 randomized atomic wfcs

     total cpu time spent up to now is       25.9 secs

     per-process dynamical memory:    59.9 Mb

     Self-consistent Calculation

     iteration #  1     ecut=    30.00 Ry     beta=0.30
     Davidson diagonalization with overlap
     ethr =  1.00E-02,  avg # of iterations =  3.1
 --- enter write_ns ---
 LDA+U parameters:
U( 1)     =  0.00000000
alpha( 1) =  0.00000000
U( 2)     =  0.00000000
alpha( 2) =  0.00000000
U( 3)     =  0.00000000
alpha( 3) =  0.00000000
U( 4)     =  0.00000000
alpha( 4) =  0.00000000
atom    1   Tr[ns(na)] (up, down, total) =   4.98475  3.08067  8.06542
   spin  1
    eigenvalues: 
  0.995  0.995  0.998  0.998  0.998
    eigenvectors:
  0.037  0.962  0.000  0.000  0.000
  0.000  0.000  0.034  0.632  0.333
  0.000  0.000  0.610  0.056  0.333
  0.962  0.037  0.000  0.000  0.000
  0.000  0.000  0.355  0.312  0.333
    occupations:
  0.995  0.000  0.000  0.000  0.000
  0.000  0.998  0.000  0.000  0.000
  0.000  0.000  0.998  0.000  0.000
  0.000  0.000  0.000  0.995  0.000
  0.000  0.000  0.000  0.000  0.998
   spin  2
    eigenvalues: 
  0.241  0.241  0.851  0.851  0.896
    eigenvectors:
  0.054  0.946  0.000  0.000  0.000
  0.000  0.000  0.046  0.620  0.333
  0.000  0.000  0.623  0.043  0.333
  0.946  0.054  0.000  0.000  0.000
  0.000  0.000  0.331  0.336  0.333
    occupations:
  0.241 -0.005  0.005  0.000 -0.010
 -0.005  0.866 -0.015 -0.009 -0.015
  0.005 -0.015  0.866 -0.009  0.015
  0.000 -0.009 -0.009  0.241  0.000
 -0.010 -0.015  0.015  0.000  0.866
atomic mag. moment =     1.904082
atom    2   Tr[ns(na)] (up, down, total) =   4.98475  3.08061  8.06536
   spin  1
    eigenvalues: 
  0.995  0.995  0.998  0.998  0.998
    eigenvectors:
  0.000  0.999  0.001  0.000  0.000
  0.000  0.000  0.167  0.500  0.333
  0.000  0.000  0.167  0.500  0.333
  0.999  0.000  0.000  0.001  0.000
  0.000  0.000  0.665  0.000  0.334
    occupations:
  0.995  0.000  0.000  0.000  0.000
  0.000  0.998  0.000  0.000  0.000
  0.000  0.000  0.998  0.000  0.000
  0.000  0.000  0.000  0.995  0.000
  0.000  0.000  0.000  0.000  0.998
   spin  2
    eigenvalues: 
  0.241  0.241  0.851  0.851  0.896
    eigenvectors:
  0.000  1.000  0.000  0.000  0.000
  0.000  0.000  0.500  0.167  0.333
  0.000  0.000  0.500  0.167  0.333
  1.000  0.000  0.000  0.000  0.000
  0.000  0.000  0.000  0.666  0.333
    occupations:
  0.241 -0.005  0.005  0.000 -0.010
 -0.005  0.866 -0.015 -0.009 -0.015
  0.005 -0.015  0.866 -0.009  0.015
  0.000 -0.009 -0.009  0.241  0.000
 -0.010 -0.015  0.015  0.000  0.866
atomic mag. moment =     1.904131
atom    3   Tr[ns(na)] (up, down, total) =   4.98475  3.08061  8.06536
   spin  1
    eigenvalues: 
  0.995  0.995  0.998  0.998  0.998
    eigenvectors:
  0.750  0.250  0.000  0.000  0.000
  0.000  0.000  0.167  0.500  0.333
  0.000  0.000  0.665  0.000  0.334
  0.250  0.750  0.000  0.000  0.000
  0.000  0.000  0.167  0.500  0.333
    occupations:
  0.995  0.000  0.000  0.000  0.000
  0.000  0.998  0.000  0.000  0.000
  0.000  0.000  0.998  0.000  0.000
  0.000  0.000  0.000  0.995  0.000
  0.000  0.000  0.000  0.000  0.998
   spin  2
    eigenvalues: 
  0.241  0.241  0.851  0.851  0.896
    eigenvectors:
  0.750  0.250  0.000  0.000  0.000
  0.000  0.000  0.500  0.167  0.333
  0.000  0.000  0.000  0.666  0.333
  0.250  0.750  0.000  0.000  0.000
  0.000  0.000  0.500  0.167  0.333
    occupations:
  0.241 -0.005  0.005  0.000 -0.010
 -0.005  0.866 -0.015 -0.009 -0.015
  0.005 -0.015  0.866 -0.009  0.015
  0.000 -0.009 -0.009  0.241  0.000
 -0.010 -0.015  0.015  0.000  0.866
atomic mag. moment =     1.904131
atom    4   Tr[ns(na)] (up, down, total) =   4.98475  3.08061  8.06536
   spin  1
    eigenvalues: 
  0.995  0.995  0.998  0.998  0.998
    eigenvectors:
  0.750  0.250  0.000  0.000  0.000
  0.000  0.000  0.665  0.000  0.334
  0.000  0.000  0.167  0.500  0.333
  0.250  0.750  0.000  0.000  0.000
  0.000  0.000  0.167  0.500  0.333
    occupations:
  0.995  0.000  0.000  0.000  0.000
  0.000  0.998  0.000  0.000  0.000
  0.000  0.000  0.998  0.000  0.000
  0.000  0.000  0.000  0.995  0.000
  0.000  0.000  0.000  0.000  0.998
   spin  2
    eigenvalues: 
  0.241  0.241  0.851  0.851  0.896
    eigenvectors:
  0.750  0.250  0.000  0.000  0.000
  0.000  0.000  0.000  0.666  0.333
  0.000  0.000  0.500  0.167  0.333
  0.250  0.750  0.000  0.000  0.000
  0.000  0.000  0.500  0.167  0.333
    occupations:
  0.241 -0.005  0.005  0.000 -0.010
 -0.005  0.866 -0.015 -0.009 -0.015
  0.005 -0.015  0.866 -0.009  0.015
  0.000 -0.009 -0.009  0.241  0.000
 -0.010 -0.015  0.015  0.000  0.866
atomic mag. moment =     1.904131
atom    5   Tr[ns(na)] (up, down, total) =   3.08063  4.98475  8.06538
   spin  1
    eigenvalues: 
  0.241  0.241  0.851  0.851  0.896
    eigenvectors:
  0.750  0.250  0.000  0.000  0.000
  0.000  0.000  0.667  0.000  0.333
  0.000  0.000  0.166  0.500  0.333
  0.250  0.750  0.000  0.000  0.000
  0.000  0.000  0.166  0.500  0.333
    occupations:
  0.241 -0.005  0.005  0.000 -0.010
 -0.005  0.866 -0.015 -0.009 -0.015
  0.005 -0.015  0.866 -0.009  0.015
  0.000 -0.009 -0.009  0.241  0.000
 -0.010 -0.015  0.015  0.000  0.866
   spin  2
    eigenvalues: 
  0.995  0.995  0.998  0.998  0.998
    eigenvectors:
  0.750  0.250  0.000  0.000  0.000
  0.000  0.000  0.000  0.664  0.336
  0.000  0.000  0.500  0.168  0.332
  0.250  0.750  0.000  0.000  0.000
  0.000  0.000  0.500  0.168  0.332
    occupations:
  0.995  0.000  0.000  0.000  0.000
  0.000  0.998  0.000  0.000  0.000
  0.000  0.000  0.998  0.000  0.000
  0.000  0.000  0.000  0.995  0.000
  0.000  0.000  0.000  0.000  0.998
atomic mag. moment =    -1.904123
atom    6   Tr[ns(na)] (up, down, total) =   3.08063  4.98475  8.06538
   spin  1
    eigenvalues: 
  0.241  0.241  0.851  0.851  0.896
    eigenvectors:
  0.750  0.250  0.000  0.000  0.000
  0.000  0.000  0.166  0.500  0.333
  0.000  0.000  0.667  0.000  0.333
  0.250  0.750  0.000  0.000  0.000
  0.000  0.000  0.166  0.500  0.333
    occupations:
  0.241 -0.005  0.005  0.000 -0.010
 -0.005  0.866 -0.015 -0.009 -0.015
  0.005 -0.015  0.866 -0.009  0.015
  0.000 -0.009 -0.009  0.241  0.000
 -0.010 -0.015  0.015  0.000  0.866
   spin  2
    eigenvalues: 
  0.995  0.995  0.998  0.998  0.998
    eigenvectors:
  0.750  0.250  0.000  0.000  0.000
  0.000  0.000  0.500  0.168  0.332
  0.000  0.000  0.000  0.664  0.336
  0.250  0.750  0.000  0.000  0.000
  0.000  0.000  0.500  0.168  0.332
    occupations:
  0.995  0.000  0.000  0.000  0.000
  0.000  0.998  0.000  0.000  0.000
  0.000  0.000  0.998  0.000  0.000
  0.000  0.000  0.000  0.995  0.000
  0.000  0.000  0.000  0.000  0.998
atomic mag. moment =    -1.904123
atom    7   Tr[ns(na)] (up, down, total) =   3.08063  4.98475  8.06538
   spin  1
    eigenvalues: 
  0.241  0.241  0.851  0.851  0.896
    eigenvectors:
  0.000  1.000  0.000  0.000  0.000
  0.000  0.000  0.166  0.500  0.333
  0.000  0.000  0.166  0.500  0.333
  1.000  0.000  0.000  0.000  0.000
  0.000  0.000  0.667  0.000  0.333
    occupations:
  0.241 -0.005  0.005  0.000 -0.010
 -0.005  0.866 -0.015 -0.009 -0.015
  0.005 -0.015  0.866 -0.009  0.015
  0.000 -0.009 -0.009  0.241  0.000
 -0.010 -0.015  0.015  0.000  0.866
   spin  2
    eigenvalues: 
  0.995  0.995  0.998  0.998  0.998
    eigenvectors:
  0.000  0.999  0.000  0.001  0.000
  0.000  0.000  0.500  0.168  0.332
  0.000  0.000  0.500  0.168  0.332
  0.999  0.000  0.001  0.000  0.000
  0.000  0.000  0.000  0.664  0.336
    occupations:
  0.995  0.000  0.000  0.000  0.000
  0.000  0.998  0.000  0.000  0.000
  0.000  0.000  0.998  0.000  0.000
  0.000  0.000  0.000  0.995  0.000
  0.000  0.000  0.000  0.000  0.998
atomic mag. moment =    -1.904123
atom    8   Tr[ns(na)] (up, down, total) =   3.08065  4.98475  8.06540
   spin  1
    eigenvalues: 
  0.241  0.241  0.851  0.851  0.896
    eigenvectors:
  0.065  0.935  0.000  0.000  0.000
  0.000  0.000  0.030  0.636  0.333
  0.000  0.000  0.605  0.062  0.333
  0.935  0.065  0.000  0.000  0.000
  0.000  0.000  0.364  0.302  0.333
    occupations:
  0.241 -0.005  0.005  0.000 -0.010
 -0.005  0.866 -0.015 -0.009 -0.015
  0.005 -0.015  0.866 -0.009  0.015
  0.000 -0.009 -0.009  0.241  0.000
 -0.010 -0.015  0.015  0.000  0.866
   spin  2
    eigenvalues: 
  0.995  0.995  0.998  0.998  0.998
    eigenvectors:
  0.026  0.973  0.000  0.000  0.000
  0.000  0.000  0.029  0.637  0.333
  0.000  0.000  0.603  0.063  0.333
  0.973  0.026  0.000  0.000  0.000
  0.000  0.000  0.367  0.300  0.333
    occupations:
  0.995  0.000  0.000  0.000  0.000
  0.000  0.998  0.000  0.000  0.000
  0.000  0.000  0.998  0.000  0.000
  0.000  0.000  0.000  0.995  0.000
  0.000  0.000  0.000  0.000  0.998
atomic mag. moment =    -1.904098
atom    9   Tr[ns(na)] (up, down, total) =   2.96541  2.96540  5.93081
   spin  1
    eigenvalues: 
  0.988  0.988  0.989
    eigenvectors:
  0.167  0.500  0.333
  0.167  0.500  0.333
  0.666  0.000  0.334
    occupations:
  0.988  0.000  0.000
  0.000  0.988  0.000
  0.000  0.000  0.988
   spin  2
    eigenvalues: 
  0.988  0.988  0.989
    eigenvectors:
  0.500  0.167  0.333
  0.500  0.167  0.333
  0.000  0.665  0.335
    occupations:
  0.988  0.000  0.000
  0.000  0.988  0.000
  0.000  0.000  0.988
atomic mag. moment =     0.000004
atom   10   Tr[ns(na)] (up, down, total) =   2.96540  2.96540  5.93080
   spin  1
    eigenvalues: 
  0.988  0.988  0.989
    eigenvectors:
  0.089  0.577  0.333
  0.259  0.408  0.333
  0.652  0.015  0.333
    occupations:
  0.988  0.000  0.000
  0.000  0.988  0.000
  0.000  0.000  0.988
   spin  2
    eigenvalues: 
  0.988  0.988  0.989
    eigenvectors:
  0.077  0.590  0.333
  0.277  0.389  0.333
  0.646  0.021  0.333
    occupations:
  0.988  0.000  0.000
  0.000  0.988  0.000
  0.000  0.000  0.988
atomic mag. moment =    -0.000001
atom   11   Tr[ns(na)] (up, down, total) =   2.96541  2.96540  5.93081
   spin  1
    eigenvalues: 
  0.988  0.988  0.989
    eigenvectors:
  0.167  0.500  0.333
  0.666  0.000  0.334
  0.167  0.500  0.333
    occupations:
  0.988  0.000  0.000
  0.000  0.988  0.000
  0.000  0.000  0.988
   spin  2
    eigenvalues: 
  0.988  0.988  0.989
    eigenvectors:
  0.500  0.167  0.333
  0.000  0.665  0.335
  0.500  0.167  0.333
    occupations:
  0.988  0.000  0.000
  0.000  0.988  0.000
  0.000  0.000  0.988
atomic mag. moment =     0.000004
atom   12   Tr[ns(na)] (up, down, total) =   2.96541  2.96540  5.93081
   spin  1
    eigenvalues: 
  0.988  0.988  0.989
    eigenvectors:
  0.666  0.000  0.334
  0.167  0.500  0.333
  0.167  0.500  0.333
    occupations:
  0.988  0.000  0.000
  0.000  0.988  0.000
  0.000  0.000  0.988
   spin  2
    eigenvalues: 
  0.988  0.988  0.989
    eigenvectors:
  0.000  0.665  0.335
  0.500  0.167  0.333
  0.500  0.167  0.333
    occupations:
  0.988  0.000  0.000
  0.000  0.988  0.000
  0.000  0.000  0.988
atomic mag. moment =     0.000004
atom   13   Tr[ns(na)] (up, down, total) =   2.96541  2.96540  5.93081
   spin  1
    eigenvalues: 
  0.988  0.988  0.989
    eigenvectors:
  0.167  0.500  0.333
  0.666  0.000  0.334
  0.167  0.500  0.333
    occupations:
  0.988  0.000  0.000
  0.000  0.988  0.000
  0.000  0.000  0.988
   spin  2
    eigenvalues: 
  0.988  0.988  0.989
    eigenvectors:
  0.500  0.167  0.333
  0.000  0.665  0.335
  0.500  0.167  0.333
    occupations:
  0.988  0.000  0.000
  0.000  0.988  0.000
  0.000  0.000  0.988
atomic mag. moment =     0.000004
atom   14   Tr[ns(na)] (up, down, total) =   2.96541  2.96540  5.93081
   spin  1
    eigenvalues: 
  0.988  0.988  0.989
    eigenvectors:
  0.666  0.000  0.334
  0.167  0.500  0.333
  0.167  0.500  0.333
    occupations:
  0.988  0.000  0.000
  0.000  0.988  0.000
  0.000  0.000  0.988
   spin  2
    eigenvalues: 
  0.988  0.988  0.989
    eigenvectors:
  0.000  0.665  0.335
  0.500  0.167  0.333
  0.500  0.167  0.333
    occupations:
  0.988  0.000  0.000
  0.000  0.988  0.000
  0.000  0.000  0.988
atomic mag. moment =     0.000004
atom   15   Tr[ns(na)] (up, down, total) =   2.96540  2.96540  5.93080
   spin  1
    eigenvalues: 
  0.988  0.988  0.989
    eigenvectors:
  0.073  0.594  0.333
  0.284  0.383  0.333
  0.644  0.023  0.333
    occupations:
  0.988  0.000  0.000
  0.000  0.988  0.000
  0.000  0.000  0.988
   spin  2
    eigenvalues: 
  0.988  0.988  0.989
    eigenvectors:
  0.107  0.560  0.333
  0.235  0.432  0.333
  0.658  0.008  0.333
    occupations:
  0.988  0.000  0.000
  0.000  0.988  0.000
  0.000  0.000  0.988
atomic mag. moment =    -0.000001
atom   16   Tr[ns(na)] (up, down, total) =   2.96541  2.96540  5.93081
   spin  1
    eigenvalues: 
  0.988  0.988  0.989
    eigenvectors:
  0.167  0.500  0.333
  0.167  0.500  0.333
  0.666  0.000  0.334
    occupations:
  0.988  0.000  0.000
  0.000  0.988  0.000
  0.000  0.000  0.988
   spin  2
    eigenvalues: 
  0.988  0.988  0.989
    eigenvectors:
  0.500  0.167  0.333
  0.500  0.167  0.333
  0.000  0.665  0.335
    occupations:
  0.988  0.000  0.000
  0.000  0.988  0.000
  0.000  0.000  0.988
atomic mag. moment =     0.000004
N of occupied +U levels = 111.9694984
 --- exit write_ns ---
 --- in v_hubbard ---
Hubbard energy    0.0000
 -------

     total cpu time spent up to now is       78.1 secs

     total energy              =    -938.82315604 Ry
     Harris-Foulkes estimate   =    -942.63302558 Ry
     estimated scf accuracy    <      10.04160650 Ry

     total magnetization       =     0.00 Bohr mag/cell
     absolute magnetization    =    18.44 Bohr mag/cell

     iteration #  2     ecut=    30.00 Ry     beta=0.30
     Davidson diagonalization with overlap
     ethr =  7.85E-03,  avg # of iterations =  2.0
 --- enter write_ns ---
 LDA+U parameters:
U( 1)     =  0.00000000
alpha( 1) =  0.00000000
U( 2)     =  0.00000000
alpha( 2) =  0.00000000
U( 3)     =  0.00000000
alpha( 3) =  0.00000000
U( 4)     =  0.00000000
alpha( 4) =  0.00000000
atom    1   Tr[ns(na)] (up, down, total) =   4.96687  3.85330  8.82017
   spin  1
    eigenvalues: 
  0.988  0.988  0.997  0.997  0.997
    eigenvectors:
  0.030  0.970  0.000  0.000  0.000
  0.000  0.000  0.333  0.037  0.630
  0.000  0.000  0.333  0.613  0.054
  0.970  0.030  0.000  0.000  0.000
  0.000  0.000  0.333  0.350  0.316
    occupations:
  0.988  0.000  0.000  0.000  0.000
  0.000  0.997  0.000  0.000  0.000
  0.000  0.000  0.997  0.000  0.000
  0.000  0.000  0.000  0.988  0.000
  0.000  0.000  0.000  0.000  0.997
   spin  2
    eigenvalues: 
  0.441  0.441  0.990  0.990  0.990
    eigenvectors:
  0.032  0.967  0.000  0.000  0.000
  0.000  0.000  0.046  0.621  0.333
  0.000  0.000  0.623  0.044  0.333
  0.967  0.032  0.000  0.000  0.000
  0.000  0.000  0.331  0.335  0.333
    occupations:
  0.442 -0.004  0.004  0.000 -0.008
 -0.004  0.990  0.000 -0.007  0.000
  0.004  0.000  0.990 -0.007  0.000
  0.000 -0.007 -0.007  0.442  0.000
 -0.008  0.000  0.000  0.000  0.990
atomic mag. moment =     1.113571
atom    2   Tr[ns(na)] (up, down, total) =   4.96687  3.85355  8.82042
   spin  1
    eigenvalues: 
  0.988  0.988  0.997  0.997  0.997
    eigenvectors:
  0.000  1.000  0.000  0.000  0.000
  0.000  0.000  0.331  0.500  0.169
  0.000  0.000  0.331  0.500  0.169
  1.000  0.000  0.000  0.000  0.000
  0.000  0.000  0.338  0.000  0.662
    occupations:
  0.988  0.000  0.000  0.000  0.000
  0.000  0.997  0.000  0.000  0.000
  0.000  0.000  0.997  0.000  0.000
  0.000  0.000  0.000  0.988  0.000
  0.000  0.000  0.000  0.000  0.997
   spin  2
    eigenvalues: 
  0.442  0.442  0.990  0.990  0.990
    eigenvectors:
  1.000  0.000  0.000  0.000  0.000
  0.000  0.000  0.500  0.196  0.304
  0.000  0.000  0.500  0.196  0.304
  0.000  1.000  0.000  0.000  0.000
  0.000  0.000  0.000  0.608  0.392
    occupations:
  0.442 -0.004  0.004  0.000 -0.008
 -0.004  0.990  0.000 -0.007  0.000
  0.004  0.000  0.990 -0.007  0.000
  0.000 -0.007 -0.007  0.442  0.000
 -0.008  0.000  0.000  0.000  0.990
atomic mag. moment =     1.113325
atom    3   Tr[ns(na)] (up, down, total) =   4.96687  3.85355  8.82042
   spin  1
    eigenvalues: 
  0.988  0.988  0.997  0.997  0.997
    eigenvectors:
  0.750  0.250  0.000  0.000  0.000
  0.000  0.000  0.331  0.500  0.169
  0.000  0.000  0.338  0.000  0.662
  0.250  0.750  0.000  0.000  0.000
  0.000  0.000  0.331  0.500  0.169
    occupations:
  0.988  0.000  0.000  0.000  0.000
  0.000  0.997  0.000  0.000  0.000
  0.000  0.000  0.997  0.000  0.000
  0.000  0.000  0.000  0.988  0.000
  0.000  0.000  0.000  0.000  0.997
   spin  2
    eigenvalues: 
  0.442  0.442  0.990  0.990  0.990
    eigenvectors:
  0.250  0.750  0.000  0.000  0.000
  0.000  0.000  0.500  0.196  0.304
  0.000  0.000  0.000  0.608  0.392
  0.750  0.250  0.000  0.000  0.000
  0.000  0.000  0.500  0.196  0.304
    occupations:
  0.442 -0.004  0.004  0.000 -0.008
 -0.004  0.990  0.000 -0.007  0.000
  0.004  0.000  0.990 -0.007  0.000
  0.000 -0.007 -0.007  0.442  0.000
 -0.008  0.000  0.000  0.000  0.990
atomic mag. moment =     1.113325
atom    4   Tr[ns(na)] (up, down, total) =   4.96687  3.85355  8.82042
   spin  1
    eigenvalues: 
  0.988  0.988  0.997  0.997  0.997
    eigenvectors:
  0.750  0.250  0.000  0.000  0.000
  0.000  0.000  0.338  0.000  0.662
  0.000  0.000  0.331  0.500  0.169
  0.250  0.750  0.000  0.000  0.000
  0.000  0.000  0.331  0.500  0.169
    occupations:
  0.988  0.000  0.000  0.000  0.000
  0.000  0.997  0.000  0.000  0.000
  0.000  0.000  0.997  0.000  0.000
  0.000  0.000  0.000  0.988  0.000
  0.000  0.000  0.000  0.000  0.997
   spin  2
    eigenvalues: 
  0.442  0.442  0.990  0.990  0.990
    eigenvectors:
  0.250  0.750  0.000  0.000  0.000
  0.000  0.000  0.000  0.608  0.392
  0.000  0.000  0.500  0.196  0.304
  0.750  0.250  0.000  0.000  0.000
  0.000  0.000  0.500  0.196  0.304
    occupations:
  0.442 -0.004  0.004  0.000 -0.008
 -0.004  0.990  0.000 -0.007  0.000
  0.004  0.000  0.990 -0.007  0.000
  0.000 -0.007 -0.007  0.442  0.000
 -0.008  0.000  0.000  0.000  0.990
atomic mag. moment =     1.113325
atom    5   Tr[ns(na)] (up, down, total) =   3.85352  4.96687  8.82039
   spin  1
    eigenvalues: 
  0.442  0.442  0.990  0.990  0.990
    eigenvectors:
  0.250  0.750  0.000  0.000  0.000
  0.000  0.000  0.000  0.634  0.366
  0.000  0.000  0.500  0.183  0.317
  0.750  0.250  0.000  0.000  0.000
  0.000  0.000  0.500  0.183  0.317
    occupations:
  0.442 -0.004  0.004  0.000 -0.008
 -0.004  0.990  0.000 -0.007  0.000
  0.004  0.000  0.990 -0.007  0.000
  0.000 -0.007 -0.007  0.442  0.000
 -0.008  0.000  0.000  0.000  0.990
   spin  2
    eigenvalues: 
  0.988  0.988  0.997  0.997  0.997
    eigenvectors:
  0.250  0.750  0.000  0.000  0.000
  0.000  0.000  0.331  0.000  0.669
  0.000  0.000  0.335  0.500  0.165
  0.750  0.250  0.000  0.000  0.000
  0.000  0.000  0.335  0.500  0.165
    occupations:
  0.988  0.000  0.000  0.000  0.000
  0.000  0.997  0.000  0.000  0.000
  0.000  0.000  0.997  0.000  0.000
  0.000  0.000  0.000  0.988  0.000
  0.000  0.000  0.000  0.000  0.997
atomic mag. moment =    -1.113347
atom    6   Tr[ns(na)] (up, down, total) =   3.85352  4.96687  8.82039
   spin  1
    eigenvalues: 
  0.442  0.442  0.990  0.990  0.990
    eigenvectors:
  0.250  0.750  0.000  0.000  0.000
  0.000  0.000  0.500  0.183  0.317
  0.000  0.000  0.000  0.634  0.366
  0.750  0.250  0.000  0.000  0.000
  0.000  0.000  0.500  0.183  0.317
    occupations:
  0.442 -0.004  0.004  0.000 -0.008
 -0.004  0.990  0.000 -0.007  0.000
  0.004  0.000  0.990 -0.007  0.000
  0.000 -0.007 -0.007  0.442  0.000
 -0.008  0.000  0.000  0.000  0.990
   spin  2
    eigenvalues: 
  0.988  0.988  0.997  0.997  0.997
    eigenvectors:
  0.250  0.750  0.000  0.000  0.000
  0.000  0.000  0.335  0.500  0.165
  0.000  0.000  0.331  0.000  0.669
  0.750  0.250  0.000  0.000  0.000
  0.000  0.000  0.335  0.500  0.165
    occupations:
  0.988  0.000  0.000  0.000  0.000
  0.000  0.997  0.000  0.000  0.000
  0.000  0.000  0.997  0.000  0.000
  0.000  0.000  0.000  0.988  0.000
  0.000  0.000  0.000  0.000  0.997
atomic mag. moment =    -1.113347
atom    7   Tr[ns(na)] (up, down, total) =   3.85352  4.96687  8.82039
   spin  1
    eigenvalues: 
  0.442  0.442  0.990  0.990  0.990
    eigenvectors:
  1.000  0.000  0.000  0.000  0.000
  0.000  0.000  0.500  0.183  0.317
  0.000  0.000  0.500  0.183  0.317
  0.000  1.000  0.000  0.000  0.000
  0.000  0.000  0.000  0.634  0.366
    occupations:
  0.442 -0.004  0.004  0.000 -0.008
 -0.004  0.990  0.000 -0.007  0.000
  0.004  0.000  0.990 -0.007  0.000
  0.000 -0.007 -0.007  0.442  0.000
 -0.008  0.000  0.000  0.000  0.990
   spin  2
    eigenvalues: 
  0.988  0.988  0.997  0.997  0.997
    eigenvectors:
  1.000  0.000  0.000  0.000  0.000
  0.000  0.000  0.335  0.500  0.165
  0.000  0.000  0.335  0.500  0.165
  0.000  1.000  0.000  0.000  0.000
  0.000  0.000  0.331  0.000  0.669
    occupations:
  0.988  0.000  0.000  0.000  0.000
  0.000  0.997  0.000  0.000  0.000
  0.000  0.000  0.997  0.000  0.000
  0.000  0.000  0.000  0.988  0.000
  0.000  0.000  0.000  0.000  0.997
atomic mag. moment =    -1.113347
atom    8   Tr[ns(na)] (up, down, total) =   3.85347  4.96688  8.82035
   spin  1
    eigenvalues: 
  0.441  0.441  0.990  0.990  0.990
    eigenvectors:
  0.001  0.999  0.000  0.000  0.000
  0.000  0.000  0.037  0.630  0.333
  0.000  0.000  0.613  0.053  0.333
  0.999  0.001  0.000  0.000  0.000
  0.000  0.000  0.350  0.317  0.333
    occupations:
  0.442 -0.004  0.004  0.000 -0.008
 -0.004  0.990  0.000 -0.007  0.000
  0.004  0.000  0.990 -0.007  0.000
  0.000 -0.007 -0.007  0.442  0.000
 -0.008  0.000  0.000  0.000  0.990
   spin  2
    eigenvalues: 
  0.988  0.988  0.997  0.997  0.997
    eigenvectors:
  0.041  0.959  0.000  0.000  0.000
  0.000  0.000  0.333  0.035  0.632
  0.000  0.000  0.333  0.611  0.055
  0.959  0.041  0.000  0.000  0.000
  0.000  0.000  0.333  0.354  0.313
    occupations:
  0.988  0.000  0.000  0.000  0.000
  0.000  0.997  0.000  0.000  0.000
  0.000  0.000  0.997  0.000  0.000
  0.000  0.000  0.000  0.988  0.000
  0.000  0.000  0.000  0.000  0.997
atomic mag. moment =    -1.113414
atom    9   Tr[ns(na)] (up, down, total) =   2.73842  2.73844  5.47685
   spin  1
    eigenvalues: 
  0.912  0.912  0.914
    eigenvectors:
  0.500  0.168  0.332
  0.500  0.168  0.332
  0.000  0.664  0.336
    occupations:
  0.913  0.001 -0.001
  0.001  0.913 -0.001
 -0.001 -0.001  0.913
   spin  2
    eigenvalues: 
  0.912  0.912  0.914
    eigenvectors:
  0.500  0.170  0.330
  0.500  0.170  0.330
  0.000  0.660  0.340
    occupations:
  0.913  0.001 -0.001
  0.001  0.913 -0.001
 -0.001 -0.001  0.913
atomic mag. moment =    -0.000021
atom   10   Tr[ns(na)] (up, down, total) =   2.73845  2.73846  5.47691
   spin  1
    eigenvalues: 
  0.912  0.912  0.914
    eigenvectors:
  0.071  0.596  0.333
  0.287  0.380  0.333
  0.643  0.024  0.333
    occupations:
  0.913  0.001 -0.001
  0.001  0.913 -0.001
 -0.001 -0.001  0.913
   spin  2
    eigenvalues: 
  0.912  0.912  0.914
    eigenvectors:
  0.076  0.591  0.333
  0.279  0.388  0.333
  0.645  0.021  0.333
    occupations:
  0.913  0.001 -0.001
  0.001  0.913 -0.001
 -0.001 -0.001  0.913
atomic mag. moment =    -0.000007
atom   11   Tr[ns(na)] (up, down, total) =   2.73842  2.73844  5.47685
   spin  1
    eigenvalues: 
  0.912  0.912  0.914
    eigenvectors:
  0.500  0.168  0.332
  0.000  0.664  0.336
  0.500  0.168  0.332
    occupations:
  0.913  0.001 -0.001
  0.001  0.913 -0.001
 -0.001 -0.001  0.913
   spin  2
    eigenvalues: 
  0.912  0.912  0.914
    eigenvectors:
  0.500  0.170  0.330
  0.000  0.660  0.340
  0.500  0.170  0.330
    occupations:
  0.913  0.001 -0.001
  0.001  0.913 -0.001
 -0.001 -0.001  0.913
atomic mag. moment =    -0.000021
atom   12   Tr[ns(na)] (up, down, total) =   2.73842  2.73844  5.47685
   spin  1
    eigenvalues: 
  0.912  0.912  0.914
    eigenvectors:
  0.000  0.664  0.336
  0.500  0.168  0.332
  0.500  0.168  0.332
    occupations:
  0.913  0.001 -0.001
  0.001  0.913 -0.001
 -0.001 -0.001  0.913
   spin  2
    eigenvalues: 
  0.912  0.912  0.914
    eigenvectors:
  0.000  0.660  0.340
  0.500  0.170  0.330
  0.500  0.170  0.330
    occupations:
  0.913  0.001 -0.001
  0.001  0.913 -0.001
 -0.001 -0.001  0.913
atomic mag. moment =    -0.000021
atom   13   Tr[ns(na)] (up, down, total) =   2.73842  2.73844  5.47685
   spin  1
    eigenvalues: 
  0.912  0.912  0.914
    eigenvectors:
  0.500  0.168  0.332
  0.000  0.664  0.336
  0.500  0.168  0.332
    occupations:
  0.913  0.001 -0.001
  0.001  0.913 -0.001
 -0.001 -0.001  0.913
   spin  2
    eigenvalues: 
  0.912  0.912  0.914
    eigenvectors:
  0.500  0.170  0.330
  0.000  0.660  0.340
  0.500  0.170  0.330
    occupations:
  0.913  0.001 -0.001
  0.001  0.913 -0.001
 -0.001 -0.001  0.913
atomic mag. moment =    -0.000021
atom   14   Tr[ns(na)] (up, down, total) =   2.73842  2.73844  5.47685
   spin  1
    eigenvalues: 
  0.912  0.912  0.914
    eigenvectors:
  0.000  0.664  0.336
  0.500  0.168  0.332
  0.500  0.168  0.332
    occupations:
  0.913  0.001 -0.001
  0.001  0.913 -0.001
 -0.001 -0.001  0.913
   spin  2
    eigenvalues: 
  0.912  0.912  0.914
    eigenvectors:
  0.000  0.660  0.340
  0.500  0.170  0.330
  0.500  0.170  0.330
    occupations:
  0.913  0.001 -0.001
  0.001  0.913 -0.001
 -0.001 -0.001  0.913
atomic mag. moment =    -0.000021
atom   15   Tr[ns(na)] (up, down, total) =   2.73845  2.73846  5.47691
   spin  1
    eigenvalues: 
  0.912  0.912  0.914
    eigenvectors:
  0.079  0.588  0.333
  0.274  0.393  0.333
  0.647  0.020  0.333
    occupations:
  0.913  0.001 -0.001
  0.001  0.913 -0.001
 -0.001 -0.001  0.913
   spin  2
    eigenvalues: 
  0.912  0.912  0.914
    eigenvectors:
  0.119  0.548  0.333
  0.220  0.447  0.333
  0.661  0.005  0.333
    occupations:
  0.913  0.001 -0.001
  0.001  0.913 -0.001
 -0.001 -0.001  0.913
atomic mag. moment =    -0.000007
atom   16   Tr[ns(na)] (up, down, total) =   2.73842  2.73844  5.47685
   spin  1
    eigenvalues: 
  0.912  0.912  0.914
    eigenvectors:
  0.500  0.168  0.332
  0.500  0.168  0.332
  0.000  0.664  0.336
    occupations:
  0.913  0.001 -0.001
  0.001  0.913 -0.001
 -0.001 -0.001  0.913
   spin  2
    eigenvalues: 
  0.912  0.912  0.914
    eigenvectors:
  0.500  0.170  0.330
  0.500  0.170  0.330
  0.000  0.660  0.340
    occupations:
  0.913  0.001 -0.001
  0.001  0.913 -0.001
 -0.001 -0.001  0.913
atomic mag. moment =    -0.000021
N of occupied +U levels = 114.3779168
 --- exit write_ns ---
 --- in v_hubbard ---
Hubbard energy    0.0000
 -------

     total cpu time spent up to now is      123.9 secs

     total energy              =    -941.39075060 Ry
     Harris-Foulkes estimate   =    -941.33839456 Ry
     estimated scf accuracy    <       2.02735647 Ry

     total magnetization       =     0.00 Bohr mag/cell
     absolute magnetization    =    12.09 Bohr mag/cell

     iteration #  3     ecut=    30.00 Ry     beta=0.30
     Davidson diagonalization with overlap
     ethr =  1.58E-03,  avg # of iterations =  1.0
 --- enter write_ns ---
 LDA+U parameters:
U( 1)     =  0.00000000
alpha( 1) =  0.00000000
U( 2)     =  0.00000000
alpha( 2) =  0.00000000
U( 3)     =  0.00000000
alpha( 3) =  0.00000000
U( 4)     =  0.00000000
alpha( 4) =  0.00000000
atom    1   Tr[ns(na)] (up, down, total) =   4.96980  3.66835  8.63816
   spin  1
    eigenvalues: 
  0.988  0.988  0.998  0.998  0.998
    eigenvectors:
  0.015  0.985  0.000  0.000  0.000
  0.000  0.000  0.333  0.036  0.631
  0.000  0.000  0.333  0.612  0.054
  0.985  0.015  0.000  0.000  0.000
  0.000  0.000  0.333  0.352  0.315
    occupations:
  0.988  0.000  0.000  0.000  0.000
  0.000  0.998  0.000  0.000  0.000
  0.000  0.000  0.998  0.000  0.000
  0.000  0.000  0.000  0.988  0.000
  0.000  0.000  0.000  0.000  0.998
   spin  2
    eigenvalues: 
  0.346  0.346  0.992  0.992  0.993
    eigenvectors:
  0.052  0.948  0.000  0.000  0.000
  0.000  0.000  0.036  0.630  0.333
  0.000  0.000  0.613  0.054  0.333
  0.948  0.052  0.000  0.000  0.000
  0.000  0.000  0.350  0.316  0.333
    occupations:
  0.346 -0.003  0.003  0.000 -0.006
 -0.003  0.992  0.000 -0.006  0.000
  0.003  0.000  0.992 -0.006  0.000
  0.000 -0.006 -0.006  0.346  0.000
 -0.006  0.000  0.000  0.000  0.992
atomic mag. moment =     1.301448
atom    2   Tr[ns(na)] (up, down, total) =   4.96980  3.66826  8.63805
   spin  1
    eigenvalues: 
  0.988  0.988  0.998  0.998  0.998
    eigenvectors:
  1.000  0.000  0.000  0.000  0.000
  0.000  0.000  0.334  0.500  0.166
  0.000  0.000  0.334  0.500  0.166
  0.000  1.000  0.000  0.000  0.000
  0.000  0.000  0.332  0.000  0.668
    occupations:
  0.988  0.000  0.000  0.000  0.000
  0.000  0.998  0.000  0.000  0.000
  0.000  0.000  0.998  0.000  0.000
  0.000  0.000  0.000  0.988  0.000
  0.000  0.000  0.000  0.000  0.998
   spin  2
    eigenvalues: 
  0.345  0.345  0.992  0.992  0.993
    eigenvectors:
  0.000  1.000  0.000  0.000  0.000
  0.000  0.000  0.164  0.500  0.336
  0.000  0.000  0.164  0.500  0.336
  1.000  0.000  0.000  0.000  0.000
  0.000  0.000  0.671  0.000  0.329
    occupations:
  0.346 -0.003  0.003  0.000 -0.006
 -0.003  0.992  0.000 -0.006  0.000
  0.003  0.000  0.992 -0.006  0.000
  0.000 -0.006 -0.006  0.346  0.000
 -0.006  0.000  0.000  0.000  0.992
atomic mag. moment =     1.301541
atom    3   Tr[ns(na)] (up, down, total) =   4.96980  3.66826  8.63805
   spin  1
    eigenvalues: 
  0.988  0.988  0.998  0.998  0.998
    eigenvectors:
  0.250  0.750  0.000  0.000  0.000
  0.000  0.000  0.334  0.500  0.166
  0.000  0.000  0.332  0.000  0.668
  0.750  0.250  0.000  0.000  0.000
  0.000  0.000  0.334  0.500  0.166
    occupations:
  0.988  0.000  0.000  0.000  0.000
  0.000  0.998  0.000  0.000  0.000
  0.000  0.000  0.998  0.000  0.000
  0.000  0.000  0.000  0.988  0.000
  0.000  0.000  0.000  0.000  0.998
   spin  2
    eigenvalues: 
  0.345  0.345  0.992  0.992  0.993
    eigenvectors:
  0.750  0.250  0.000  0.000  0.000
  0.000  0.000  0.164  0.500  0.336
  0.000  0.000  0.671  0.000  0.329
  0.250  0.750  0.000  0.000  0.000
  0.000  0.000  0.164  0.500  0.336
    occupations:
  0.346 -0.003  0.003  0.000 -0.006
 -0.003  0.992  0.000 -0.006  0.000
  0.003  0.000  0.992 -0.006  0.000
  0.000 -0.006 -0.006  0.346  0.000
 -0.006  0.000  0.000  0.000  0.992
atomic mag. moment =     1.301541
atom    4   Tr[ns(na)] (up, down, total) =   4.96980  3.66826  8.63805
   spin  1
    eigenvalues: 
  0.988  0.988  0.998  0.998  0.998
    eigenvectors:
  0.250  0.750  0.000  0.000  0.000
  0.000  0.000  0.332  0.000  0.668
  0.000  0.000  0.334  0.500  0.166
  0.750  0.250  0.000  0.000  0.000
  0.000  0.000  0.334  0.500  0.166
    occupations:
  0.988  0.000  0.000  0.000  0.000
  0.000  0.998  0.000  0.000  0.000
  0.000  0.000  0.998  0.000  0.000
  0.000  0.000  0.000  0.988  0.000
  0.000  0.000  0.000  0.000  0.998
   spin  2
    eigenvalues: 
  0.345  0.345  0.992  0.992  0.993
    eigenvectors:
  0.750  0.250  0.000  0.000  0.000
  0.000  0.000  0.671  0.000  0.329
  0.000  0.000  0.164  0.500  0.336
  0.250  0.750  0.000  0.000  0.000
  0.000  0.000  0.164  0.500  0.336
    occupations:
  0.346 -0.003  0.003  0.000 -0.006
 -0.003  0.992  0.000 -0.006  0.000
  0.003  0.000  0.992 -0.006  0.000
  0.000 -0.006 -0.006  0.346  0.000
 -0.006  0.000  0.000  0.000  0.992
atomic mag. moment =     1.301541
atom    5   Tr[ns(na)] (up, down, total) =   3.66829  4.96980  8.63809
   spin  1
    eigenvalues: 
  0.346  0.346  0.992  0.992  0.993
    eigenvectors:
  0.250  0.750  0.000  0.000  0.000
  0.000  0.000  0.000  0.666  0.334
  0.000  0.000  0.500  0.167  0.333
  0.750  0.250  0.000  0.000  0.000
  0.000  0.000  0.500  0.167  0.333
    occupations:
  0.346 -0.003  0.003  0.000 -0.006
 -0.003  0.992  0.000 -0.006  0.000
  0.003  0.000  0.992 -0.006  0.000
  0.000 -0.006 -0.006  0.346  0.000
 -0.006  0.000  0.000  0.000  0.992
   spin  2
    eigenvalues: 
  0.988  0.988  0.998  0.998  0.998
    eigenvectors:
  0.750  0.250  0.000  0.000  0.000
  0.000  0.000  0.357  0.643  0.000
  0.000  0.000  0.321  0.179  0.500
  0.250  0.750  0.000  0.000  0.000
  0.000  0.000  0.321  0.179  0.500
    occupations:
  0.988  0.000  0.000  0.000  0.000
  0.000  0.998  0.000  0.000  0.000
  0.000  0.000  0.998  0.000  0.000
  0.000  0.000  0.000  0.988  0.000
  0.000  0.000  0.000  0.000  0.998
atomic mag. moment =    -1.301511
atom    6   Tr[ns(na)] (up, down, total) =   3.66829  4.96980  8.63809
   spin  1
    eigenvalues: 
  0.346  0.346  0.992  0.992  0.993
    eigenvectors:
  0.250  0.750  0.000  0.000  0.000
  0.000  0.000  0.500  0.167  0.333
  0.000  0.000  0.000  0.666  0.334
  0.750  0.250  0.000  0.000  0.000
  0.000  0.000  0.500  0.167  0.333
    occupations:
  0.346 -0.003  0.003  0.000 -0.006
 -0.003  0.992  0.000 -0.006  0.000
  0.003  0.000  0.992 -0.006  0.000
  0.000 -0.006 -0.006  0.346  0.000
 -0.006  0.000  0.000  0.000  0.992
   spin  2
    eigenvalues: 
  0.988  0.988  0.998  0.998  0.998
    eigenvectors:
  0.750  0.250  0.000  0.000  0.000
  0.000  0.000  0.321  0.179  0.500
  0.000  0.000  0.357  0.643  0.000
  0.250  0.750  0.000  0.000  0.000
  0.000  0.000  0.321  0.179  0.500
    occupations:
  0.988  0.000  0.000  0.000  0.000
  0.000  0.998  0.000  0.000  0.000
  0.000  0.000  0.998  0.000  0.000
  0.000  0.000  0.000  0.988  0.000
  0.000  0.000  0.000  0.000  0.998
atomic mag. moment =    -1.301511
atom    7   Tr[ns(na)] (up, down, total) =   3.66829  4.96980  8.63809
   spin  1
    eigenvalues: 
  0.346  0.346  0.992  0.992  0.993
    eigenvectors:
  1.000  0.000  0.000  0.000  0.000
  0.000  0.000  0.500  0.167  0.333
  0.000  0.000  0.500  0.167  0.333
  0.000  1.000  0.000  0.000  0.000
  0.000  0.000  0.000  0.666  0.334
    occupations:
  0.346 -0.003  0.003  0.000 -0.006
 -0.003  0.992  0.000 -0.006  0.000
  0.003  0.000  0.992 -0.006  0.000
  0.000 -0.006 -0.006  0.346  0.000
 -0.006  0.000  0.000  0.000  0.992
   spin  2
    eigenvalues: 
  0.988  0.988  0.998  0.998  0.998
    eigenvectors:
  0.000  1.000  0.000  0.000  0.000
  0.000  0.000  0.321  0.179  0.500
  0.000  0.000  0.321  0.179  0.500
  1.000  0.000  0.000  0.000  0.000
  0.000  0.000  0.357  0.643  0.000
    occupations:
  0.988  0.000  0.000  0.000  0.000
  0.000  0.998  0.000  0.000  0.000
  0.000  0.000  0.998  0.000  0.000
  0.000  0.000  0.000  0.988  0.000
  0.000  0.000  0.000  0.000  0.998
atomic mag. moment =    -1.301511
atom    8   Tr[ns(na)] (up, down, total) =   3.66825  4.96979  8.63804
   spin  1
    eigenvalues: 
  0.345  0.345  0.992  0.992  0.993
    eigenvectors:
  0.051  0.949  0.000  0.000  0.000
  0.000  0.000  0.038  0.628  0.333
  0.000  0.000  0.615  0.052  0.333
  0.949  0.051  0.000  0.000  0.000
  0.000  0.000  0.347  0.320  0.333
    occupations:
  0.346 -0.003  0.003  0.000 -0.006
 -0.003  0.992  0.000 -0.006  0.000
  0.003  0.000  0.992 -0.006  0.000
  0.000 -0.006 -0.006  0.346  0.000
 -0.006  0.000  0.000  0.000  0.992
   spin  2
    eigenvalues: 
  0.988  0.988  0.998  0.998  0.998
    eigenvectors:
  0.014  0.986  0.000  0.000  0.000
  0.000  0.000  0.333  0.030  0.636
  0.000  0.000  0.333  0.605  0.061
  0.986  0.014  0.000  0.000  0.000
  0.000  0.000  0.333  0.364  0.302
    occupations:
  0.988  0.000  0.000  0.000  0.000
  0.000  0.998  0.000  0.000  0.000
  0.000  0.000  0.998  0.000  0.000
  0.000  0.000  0.000  0.988  0.000
  0.000  0.000  0.000  0.000  0.998
atomic mag. moment =    -1.301536
atom    9   Tr[ns(na)] (up, down, total) =   2.82215  2.82214  5.64429
   spin  1
    eigenvalues: 
  0.940  0.940  0.942
    eigenvectors:
  0.167  0.500  0.333
  0.167  0.500  0.333
  0.667  0.000  0.333
    occupations:
  0.941  0.001 -0.001
  0.001  0.941 -0.001
 -0.001 -0.001  0.941
   spin  2
    eigenvalues: 
  0.940  0.940  0.942
    eigenvectors:
  0.500  0.165  0.335
  0.500  0.165  0.335
  0.000  0.669  0.331
    occupations:
  0.941  0.001 -0.001
  0.001  0.941 -0.001
 -0.001 -0.001  0.941
atomic mag. moment =     0.000008
atom   10   Tr[ns(na)] (up, down, total) =   2.82216  2.82216  5.64432
   spin  1
    eigenvalues: 
  0.940  0.940  0.942
    eigenvectors:
  0.082  0.585  0.333
  0.269  0.398  0.333
  0.649  0.018  0.333
    occupations:
  0.941  0.001 -0.001
  0.001  0.941 -0.001
 -0.001 -0.001  0.941
   spin  2
    eigenvalues: 
  0.940  0.940  0.942
    eigenvectors:
  0.101  0.566  0.333
  0.243  0.424  0.333
  0.656  0.010  0.333
    occupations:
  0.941  0.001 -0.001
  0.001  0.941 -0.001
 -0.001 -0.001  0.941
atomic mag. moment =    -0.000007
atom   11   Tr[ns(na)] (up, down, total) =   2.82215  2.82214  5.64429
   spin  1
    eigenvalues: 
  0.940  0.940  0.942
    eigenvectors:
  0.167  0.500  0.333
  0.667  0.000  0.333
  0.167  0.500  0.333
    occupations:
  0.941  0.001 -0.001
  0.001  0.941 -0.001
 -0.001 -0.001  0.941
   spin  2
    eigenvalues: 
  0.940  0.940  0.942
    eigenvectors:
  0.500  0.165  0.335
  0.000  0.669  0.331
  0.500  0.165  0.335
    occupations:
  0.941  0.001 -0.001
  0.001  0.941 -0.001
 -0.001 -0.001  0.941
atomic mag. moment =     0.000008
atom   12   Tr[ns(na)] (up, down, total) =   2.82215  2.82214  5.64429
   spin  1
    eigenvalues: 
  0.940  0.940  0.942
    eigenvectors:
  0.667  0.000  0.333
  0.167  0.500  0.333
  0.167  0.500  0.333
    occupations:
  0.941  0.001 -0.001
  0.001  0.941 -0.001
 -0.001 -0.001  0.941
   spin  2
    eigenvalues: 
  0.940  0.940  0.942
    eigenvectors:
  0.000  0.669  0.331
  0.500  0.165  0.335
  0.500  0.165  0.335
    occupations:
  0.941  0.001 -0.001
  0.001  0.941 -0.001
 -0.001 -0.001  0.941
atomic mag. moment =     0.000008
atom   13   Tr[ns(na)] (up, down, total) =   2.82215  2.82214  5.64429
   spin  1
    eigenvalues: 
  0.940  0.940  0.942
    eigenvectors:
  0.167  0.500  0.333
  0.667  0.000  0.333
  0.167  0.500  0.333
    occupations:
  0.941  0.001 -0.001
  0.001  0.941 -0.001
 -0.001 -0.001  0.941
   spin  2
    eigenvalues: 
  0.940  0.940  0.942
    eigenvectors:
  0.500  0.165  0.335
  0.000  0.669  0.331
  0.500  0.165  0.335
    occupations:
  0.941  0.001 -0.001
  0.001  0.941 -0.001
 -0.001 -0.001  0.941
atomic mag. moment =     0.000008
atom   14   Tr[ns(na)] (up, down, total) =   2.82215  2.82214  5.64429
   spin  1
    eigenvalues: 
  0.940  0.940  0.942
    eigenvectors:
  0.667  0.000  0.333
  0.167  0.500  0.333
  0.167  0.500  0.333
    occupations:
  0.941  0.001 -0.001
  0.001  0.941 -0.001
 -0.001 -0.001  0.941
   spin  2
    eigenvalues: 
  0.940  0.940  0.942
    eigenvectors:
  0.000  0.669  0.331
  0.500  0.165  0.335
  0.500  0.165  0.335
    occupations:
  0.941  0.001 -0.001
  0.001  0.941 -0.001
 -0.001 -0.001  0.941
atomic mag. moment =     0.000008
atom   15   Tr[ns(na)] (up, down, total) =   2.82216  2.82216  5.64432
   spin  1
    eigenvalues: 
  0.940  0.940  0.942
    eigenvectors:
  0.066  0.601  0.333
  0.295  0.372  0.333
  0.639  0.027  0.333
    occupations:
  0.941  0.001 -0.001
  0.001  0.941 -0.001
 -0.001 -0.001  0.941
   spin  2
    eigenvalues: 
  0.940  0.940  0.942
    eigenvectors:
  0.068  0.599  0.333
  0.292  0.375  0.333
  0.641  0.026  0.333
    occupations:
  0.941  0.001 -0.001
  0.001  0.941 -0.001
 -0.001 -0.001  0.941
atomic mag. moment =    -0.000007
atom   16   Tr[ns(na)] (up, down, total) =   2.82215  2.82214  5.64429
   spin  1
    eigenvalues: 
  0.940  0.940  0.942
    eigenvectors:
  0.167  0.500  0.333
  0.167  0.500  0.333
  0.667  0.000  0.333
    occupations:
  0.941  0.001 -0.001
  0.001  0.941 -0.001
 -0.001 -0.001  0.941
   spin  2
    eigenvalues: 
  0.940  0.940  0.942
    eigenvectors:
  0.500  0.165  0.335
  0.500  0.165  0.335
  0.000  0.669  0.331
    occupations:
  0.941  0.001 -0.001
  0.001  0.941 -0.001
 -0.001 -0.001  0.941
atomic mag. moment =     0.000008
N of occupied +U levels = 114.2589963
 --- exit write_ns ---

     negative rho (up, down):  0.106E-03 0.107E-03
 --- in v_hubbard ---
Hubbard energy    0.0000
 -------

     total cpu time spent up to now is      163.7 secs

     total energy              =    -941.95026429 Ry
     Harris-Foulkes estimate   =    -941.52794304 Ry
     estimated scf accuracy    <       0.67058424 Ry

     total magnetization       =     0.00 Bohr mag/cell
     absolute magnetization    =    13.28 Bohr mag/cell

     iteration #  4     ecut=    30.00 Ry     beta=0.30
     Davidson diagonalization with overlap
     ethr =  5.24E-04,  avg # of iterations =  1.6
 --- enter write_ns ---
 LDA+U parameters:
U( 1)     =  0.00000000
alpha( 1) =  0.00000000
U( 2)     =  0.00000000
alpha( 2) =  0.00000000
U( 3)     =  0.00000000
alpha( 3) =  0.00000000
U( 4)     =  0.00000000
alpha( 4) =  0.00000000
atom    1   Tr[ns(na)] (up, down, total) =   4.95591  3.77525  8.73116
   spin  1
    eigenvalues: 
  0.982  0.982  0.997  0.997  0.997
    eigenvectors:
  0.020  0.980  0.000  0.000  0.000
  0.000  0.000  0.038  0.629  0.333
  0.000  0.000  0.614  0.052  0.333
  0.980  0.020  0.000  0.000  0.000
  0.000  0.000  0.348  0.319  0.333
    occupations:
  0.982  0.000  0.000  0.000  0.000
  0.000  0.997  0.000  0.000  0.000
  0.000  0.000  0.997  0.000  0.000
  0.000  0.000  0.000  0.982  0.000
  0.000  0.000  0.000  0.000  0.997
   spin  2
    eigenvalues: 
  0.394  0.394  0.995  0.995  0.996
    eigenvectors:
  0.004  0.996  0.000  0.000  0.000
  0.000  0.000  0.031  0.636  0.333
  0.000  0.000  0.606  0.061  0.333
  0.996  0.004  0.000  0.000  0.000
  0.000  0.000  0.364  0.303  0.333
    occupations:
  0.394  0.000  0.000  0.000  0.000
  0.000  0.996  0.000  0.000  0.000
  0.000  0.000  0.996  0.000  0.000
  0.000  0.000  0.000  0.394  0.000
  0.000  0.000  0.000  0.000  0.996
atomic mag. moment =     1.180656
atom    2   Tr[ns(na)] (up, down, total) =   4.95599  3.77591  8.73190
   spin  1
    eigenvalues: 
  0.982  0.982  0.997  0.997  0.997
    eigenvectors:
  1.000  0.000  0.000  0.000  0.000
  0.000  0.000  0.160  0.500  0.340
  0.000  0.000  0.160  0.500  0.340
  0.000  1.000  0.000  0.000  0.000
  0.000  0.000  0.680  0.000  0.320
    occupations:
  0.982  0.000  0.000  0.000  0.000
  0.000  0.997  0.000  0.000  0.000
  0.000  0.000  0.997  0.000  0.000
  0.000  0.000  0.000  0.982  0.000
  0.000  0.000  0.000  0.000  0.997
   spin  2
    eigenvalues: 
  0.395  0.395  0.995  0.995  0.996
    eigenvectors:
  0.000  1.000  0.000  0.000  0.000
  0.000  0.000  0.500  0.172  0.328
  0.000  0.000  0.500  0.172  0.328
  1.000  0.000  0.000  0.000  0.000
  0.000  0.000  0.000  0.655  0.345
    occupations:
  0.395  0.000  0.000  0.000  0.000
  0.000  0.996  0.000  0.000  0.000
  0.000  0.000  0.996  0.000  0.000
  0.000  0.000  0.000  0.395  0.000
  0.000  0.000  0.000  0.000  0.996
atomic mag. moment =     1.180088
atom    3   Tr[ns(na)] (up, down, total) =   4.95599  3.77591  8.73190
   spin  1
    eigenvalues: 
  0.982  0.982  0.997  0.997  0.997
    eigenvectors:
  0.250  0.750  0.000  0.000  0.000
  0.000  0.000  0.160  0.500  0.340
  0.000  0.000  0.680  0.000  0.320
  0.750  0.250  0.000  0.000  0.000
  0.000  0.000  0.160  0.500  0.340
    occupations:
  0.982  0.000  0.000  0.000  0.000
  0.000  0.997  0.000  0.000  0.000
  0.000  0.000  0.997  0.000  0.000
  0.000  0.000  0.000  0.982  0.000
  0.000  0.000  0.000  0.000  0.997
   spin  2
    eigenvalues: 
  0.395  0.395  0.995  0.995  0.996
    eigenvectors:
  0.750  0.250  0.000  0.000  0.000
  0.000  0.000  0.500  0.172  0.328
  0.000  0.000  0.000  0.655  0.345
  0.250  0.750  0.000  0.000  0.000
  0.000  0.000  0.500  0.172  0.328
    occupations:
  0.395  0.000  0.000  0.000  0.000
  0.000  0.996  0.000  0.000  0.000
  0.000  0.000  0.996  0.000  0.000
  0.000  0.000  0.000  0.395  0.000
  0.000  0.000  0.000  0.000  0.996
atomic mag. moment =     1.180088
atom    4   Tr[ns(na)] (up, down, total) =   4.95599  3.77591  8.73190
   spin  1
    eigenvalues: 
  0.982  0.982  0.997  0.997  0.997
    eigenvectors:
  0.250  0.750  0.000  0.000  0.000
  0.000  0.000  0.680  0.000  0.320
  0.000  0.000  0.160  0.500  0.340
  0.750  0.250  0.000  0.000  0.000
  0.000  0.000  0.160  0.500  0.340
    occupations:
  0.982  0.000  0.000  0.000  0.000
  0.000  0.997  0.000  0.000  0.000
  0.000  0.000  0.997  0.000  0.000
  0.000  0.000  0.000  0.982  0.000
  0.000  0.000  0.000  0.000  0.997
   spin  2
    eigenvalues: 
  0.395  0.395  0.995  0.995  0.996
    eigenvectors:
  0.750  0.250  0.000  0.000  0.000
  0.000  0.000  0.000  0.655  0.345
  0.000  0.000  0.500  0.172  0.328
  0.250  0.750  0.000  0.000  0.000
  0.000  0.000  0.500  0.172  0.328
    occupations:
  0.395  0.000  0.000  0.000  0.000
  0.000  0.996  0.000  0.000  0.000
  0.000  0.000  0.996  0.000  0.000
  0.000  0.000  0.000  0.395  0.000
  0.000  0.000  0.000  0.000  0.996
atomic mag. moment =     1.180088
atom    5   Tr[ns(na)] (up, down, total) =   3.77562  4.95595  8.73156
   spin  1
    eigenvalues: 
  0.395  0.395  0.995  0.995  0.996
    eigenvectors:
  0.750  0.250  0.000  0.000  0.000
  0.000  0.000  0.670  0.000  0.330
  0.000  0.000  0.165  0.500  0.335
  0.250  0.750  0.000  0.000  0.000
  0.000  0.000  0.165  0.500  0.335
    occupations:
  0.395  0.000  0.000  0.000  0.000
  0.000  0.996  0.000  0.000  0.000
  0.000  0.000  0.996  0.000  0.000
  0.000  0.000  0.000  0.395  0.000
  0.000  0.000  0.000  0.000  0.996
   spin  2
    eigenvalues: 
  0.982  0.982  0.997  0.997  0.997
    eigenvectors:
  0.750  0.250  0.000  0.000  0.000
  0.000  0.000  0.000  0.638  0.362
  0.000  0.000  0.500  0.181  0.319
  0.250  0.750  0.000  0.000  0.000
  0.000  0.000  0.500  0.181  0.319
    occupations:
  0.982  0.000  0.000  0.000  0.000
  0.000  0.997  0.000  0.000  0.000
  0.000  0.000  0.997  0.000  0.000
  0.000  0.000  0.000  0.982  0.000
  0.000  0.000  0.000  0.000  0.997
atomic mag. moment =    -1.180327
atom    6   Tr[ns(na)] (up, down, total) =   3.77562  4.95595  8.73156
   spin  1
    eigenvalues: 
  0.395  0.395  0.995  0.995  0.996
    eigenvectors:
  0.750  0.250  0.000  0.000  0.000
  0.000  0.000  0.165  0.500  0.335
  0.000  0.000  0.670  0.000  0.330
  0.250  0.750  0.000  0.000  0.000
  0.000  0.000  0.165  0.500  0.335
    occupations:
  0.395  0.000  0.000  0.000  0.000
  0.000  0.996  0.000  0.000  0.000
  0.000  0.000  0.996  0.000  0.000
  0.000  0.000  0.000  0.395  0.000
  0.000  0.000  0.000  0.000  0.996
   spin  2
    eigenvalues: 
  0.982  0.982  0.997  0.997  0.997
    eigenvectors:
  0.750  0.250  0.000  0.000  0.000
  0.000  0.000  0.500  0.181  0.319
  0.000  0.000  0.000  0.638  0.362
  0.250  0.750  0.000  0.000  0.000
  0.000  0.000  0.500  0.181  0.319
    occupations:
  0.982  0.000  0.000  0.000  0.000
  0.000  0.997  0.000  0.000  0.000
  0.000  0.000  0.997  0.000  0.000
  0.000  0.000  0.000  0.982  0.000
  0.000  0.000  0.000  0.000  0.997
atomic mag. moment =    -1.180327
atom    7   Tr[ns(na)] (up, down, total) =   3.77562  4.95595  8.73156
   spin  1
    eigenvalues: 
  0.395  0.395  0.995  0.995  0.996
    eigenvectors:
  0.000  1.000  0.000  0.000  0.000
  0.000  0.000  0.165  0.500  0.335
  0.000  0.000  0.165  0.500  0.335
  1.000  0.000  0.000  0.000  0.000
  0.000  0.000  0.670  0.000  0.330
    occupations:
  0.395  0.000  0.000  0.000  0.000
  0.000  0.996  0.000  0.000  0.000
  0.000  0.000  0.996  0.000  0.000
  0.000  0.000  0.000  0.395  0.000
  0.000  0.000  0.000  0.000  0.996
   spin  2
    eigenvalues: 
  0.982  0.982  0.997  0.997  0.997
    eigenvectors:
  0.000  1.000  0.000  0.000  0.000
  0.000  0.000  0.500  0.181  0.319
  0.000  0.000  0.500  0.181  0.319
  1.000  0.000  0.000  0.000  0.000
  0.000  0.000  0.000  0.638  0.362
    occupations:
  0.982  0.000  0.000  0.000  0.000
  0.000  0.997  0.000  0.000  0.000
[...]
    10.6586  10.6586  10.8692  10.8692  10.9628  10.9628  11.2432  11.2432
    11.2520  11.2520  11.2966  11.2966  11.3291  11.3291  11.4317  11.4317
    13.0373  13.0373  13.0437  13.0437  13.0518  13.0518  13.0622  13.0622
    16.4826  16.4826  19.6527  19.6527  19.7119

     occupation numbers 
     0.0469   0.0469   0.0469   0.0469   0.0469   0.0469   0.0469   0.0469
     0.0469   0.0469   0.0469   0.0469   0.0469   0.0469   0.0469   0.0469
     0.0469   0.0469   0.0469   0.0469   0.0469   0.0469   0.0469   0.0469
     0.0469   0.0469   0.0469   0.0469   0.0469   0.0469   0.0469   0.0469
     0.0469   0.0469   0.0469   0.0469   0.0469   0.0469   0.0469   0.0469
     0.0469   0.0469   0.0469   0.0469   0.0469   0.0469   0.0469   0.0469
     0.0469   0.0469   0.0469   0.0469   0.0469   0.0469   0.0469   0.0469
     0.0469   0.0469   0.0469   0.0469   0.0469   0.0469   0.0469   0.0469
     0.0000   0.0000   0.0000   0.0000   0.0000   0.0000   0.0000   0.0000
     0.0000   0.0000   0.0000   0.0000   0.0000

          k = 0.0000 0.5000 0.0000 (  2706 PWs)   bands (ev):

    -7.8497  -6.8066  -6.7520  -6.7517  -6.7517  -6.7514  -6.5654  -6.5653
     4.4894   4.4894   4.4903   4.4946   5.2309   5.5189   5.5189   6.5257
     6.5257   6.5460   6.5828   6.5899   6.6187   6.6187   6.6775   7.0594
     7.0594   7.1660   7.1660   7.4593   7.9686   7.9737   8.6484   8.6575
     8.9537   9.5323   9.6265   9.6265   9.8119   9.9775  10.0547  10.0547
    10.0942  10.1098  10.1837  10.2768  10.2768  10.3949  10.4088  10.5431
    10.5431  10.6118  10.6118  10.6569  10.9097  11.0068  11.0068  11.0481
    11.0542  11.1676  11.2402  11.2925  11.2925  11.3454  11.3454  11.3771
    12.8757  13.0370  13.0370  13.0403  13.5216  13.5649  13.6425  13.6425
    15.2134  18.5668  18.5679  18.5679  18.5683

     occupation numbers 
     0.0938   0.0938   0.0938   0.0938   0.0938   0.0938   0.0938   0.0938
     0.0938   0.0938   0.0938   0.0938   0.0938   0.0938   0.0938   0.0938
     0.0938   0.0938   0.0938   0.0938   0.0938   0.0938   0.0938   0.0938
     0.0938   0.0938   0.0938   0.0938   0.0938   0.0938   0.0938   0.0938
     0.0938   0.0938   0.0938   0.0938   0.0938   0.0938   0.0938   0.0938
     0.0938   0.0938   0.0938   0.0938   0.0938   0.0938   0.0938   0.0938
     0.0938   0.0938   0.0938   0.0938   0.0938   0.0938   0.0938   0.0938
     0.0938   0.0937   0.0937   0.0937   0.0937   0.0937   0.0937   0.0937
     0.0000   0.0000   0.0000   0.0000   0.0000   0.0000   0.0000   0.0000
     0.0000   0.0000   0.0000   0.0000   0.0000

          k = 0.7500-0.2500 0.7500 (  2734 PWs)   bands (ev):

    -7.5001  -7.1696  -6.9648  -6.7688  -6.7686  -6.5939  -6.5541  -6.5538
     4.9613   4.9635   4.9752   5.3040   5.4213   5.4962   5.5176   6.1726
     6.2074   6.2332   6.2622   6.5858   6.5882   6.7421   6.7459   6.8580
     6.8867   6.9195   6.9900   7.3539   7.3729   7.7173   7.7570   8.0118
     9.4541   9.6489   9.8201   9.8926   9.9535   9.9662  10.0346  10.1361
    10.1387  10.1664  10.2083  10.2856  10.3135  10.3200  10.4754  10.5092
    10.7301  10.7359  10.7397  10.7517  10.8755  10.9037  11.0375  11.0754
    11.1652  11.1927  11.2231  11.2547  11.3295  11.3333  11.3513  11.4078
    12.7363  12.7801  12.8321  12.9285  13.2332  13.2562  13.3620  13.4308
    16.6942  17.6019  18.6704  19.3624  19.3640

     occupation numbers 
     0.1875   0.1875   0.1875   0.1875   0.1875   0.1875   0.1875   0.1875
     0.1875   0.1875   0.1875   0.1875   0.1875   0.1875   0.1875   0.1875
     0.1875   0.1875   0.1875   0.1875   0.1875   0.1875   0.1875   0.1875
     0.1875   0.1875   0.1875   0.1875   0.1875   0.1875   0.1875   0.1875
     0.1875   0.1875   0.1875   0.1875   0.1875   0.1875   0.1875   0.1875
     0.1875   0.1875   0.1875   0.1875   0.1875   0.1875   0.1875   0.1875
     0.1875   0.1875   0.1875   0.1875   0.1875   0.1875   0.1875   0.1875
     0.1875   0.1875   0.1875   0.1875   0.1875   0.1875   0.1875   0.1875
     0.0000   0.0000   0.0000   0.0000   0.0000   0.0000   0.0000   0.0000
     0.0000   0.0000   0.0000   0.0000   0.0000

          k = 0.5000 0.0000 0.5000 (  2742 PWs)   bands (ev):

    -7.6381  -7.0145  -7.0145  -6.7180  -6.7180  -6.6008  -6.6005  -6.5445
     4.7685   4.7735   5.0650   5.0650   5.2608   5.2608   5.6981   5.9615
     6.2832   6.2994   6.5243   6.7165   6.7425   6.7425   6.9110   6.9110
     6.9278   7.1564   7.1564   7.1861   7.4479   7.4479   7.6283   8.1210
     9.6563   9.6563   9.7877   9.8472   9.9035   9.9035  10.0424  10.1096
    10.1314  10.2244  10.2274  10.2275  10.2275  10.3599  10.3599  10.5138
    10.7167  10.7489  10.7489  10.8255  10.9010  11.0936  11.0936  11.1121
    11.2070  11.2070  11.2297  11.2409  11.2765  11.3428  11.4033  11.4033
    13.0399  13.0443  13.0552  13.0552  13.1118  13.1494  13.1494  13.2813
    16.0074  18.0612  18.0612  19.3780  19.3780

     occupation numbers 
     0.0938   0.0938   0.0938   0.0938   0.0938   0.0938   0.0938   0.0938
     0.0938   0.0938   0.0938   0.0938   0.0938   0.0938   0.0938   0.0938
     0.0938   0.0938   0.0938   0.0938   0.0938   0.0938   0.0938   0.0938
     0.0938   0.0938   0.0938   0.0938   0.0938   0.0938   0.0938   0.0938
     0.0938   0.0938   0.0938   0.0938   0.0938   0.0938   0.0938   0.0938
     0.0938   0.0938   0.0938   0.0938   0.0938   0.0938   0.0938   0.0938
     0.0938   0.0938   0.0938   0.0938   0.0938   0.0938   0.0938   0.0938
     0.0937   0.0937   0.0937   0.0937   0.0937   0.0937   0.0937   0.0937
     0.0000   0.0000   0.0000   0.0000   0.0000   0.0000   0.0000   0.0000
     0.0000   0.0000   0.0000   0.0000   0.0000

          k = 0.0000-1.0000 0.0000 (  2762 PWs)   bands (ev):

    -7.3086  -7.3086  -6.8145  -6.8145  -6.8143  -6.8143  -6.5111  -6.5111
     5.0176   5.0176   5.0246   5.0246   5.7671   5.7672   6.0978   6.0978
     6.1036   6.1036   6.4016   6.4016   6.6492   6.6492   6.6814   6.6814
     6.7209   6.7209   6.7273   6.7273   8.1473   8.1473   8.1584   8.1584
     9.2479   9.2479   9.9484   9.9484  10.0288  10.0288  10.0440  10.0440
    10.0470  10.0470  10.1680  10.1680  10.3481  10.3481  10.4945  10.4945
    10.5171  10.5171  10.5804  10.5804  10.9101  10.9101  11.0032  11.0032
    11.1465  11.1465  11.2248  11.2248  11.3344  11.3344  11.3389  11.3389
    12.4599  12.4599  12.7179  12.7179  13.5156  13.5156  13.6155  13.6156
    17.6668  17.6668  19.2517  19.2517  19.2525

     occupation numbers 
     0.0469   0.0469   0.0469   0.0469   0.0469   0.0469   0.0469   0.0469
     0.0469   0.0469   0.0469   0.0469   0.0469   0.0469   0.0469   0.0469
     0.0469   0.0469   0.0469   0.0469   0.0469   0.0469   0.0469   0.0469
     0.0469   0.0469   0.0469   0.0469   0.0469   0.0469   0.0469   0.0469
     0.0469   0.0469   0.0469   0.0469   0.0469   0.0469   0.0469   0.0469
     0.0469   0.0469   0.0469   0.0469   0.0469   0.0469   0.0469   0.0469
     0.0469   0.0469   0.0469   0.0469   0.0469   0.0469   0.0469   0.0469
     0.0469   0.0469   0.0469   0.0469   0.0469   0.0469   0.0469   0.0469
     0.0000   0.0000   0.0000   0.0000   0.0000   0.0000   0.0000   0.0000
     0.0000   0.0000   0.0000   0.0000   0.0000

          k =-0.5000-1.0000 0.0000 (  2740 PWs)   bands (ev):

    -7.1497  -7.1493  -7.1493  -7.1490  -6.5789  -6.5754  -6.5754  -6.5716
     5.2791   5.2791   5.2804   5.3263   5.3782   5.5402   5.5402   5.6517
     6.2219   6.2519   6.2519   6.2835   6.6179   6.6179   6.6312   6.7591
     6.8986   7.2656   7.2656   7.4598   7.4754   7.5033   7.5033   7.5550
     9.7096   9.7368   9.7368   9.8046   9.9848  10.0356  10.0356  10.0677
    10.1161  10.2699  10.2866  10.2866  10.3430  10.3430  10.3972  10.4625
    10.6138  10.6612  10.6612  10.6881  10.9458  10.9458  10.9665  10.9881
    11.1717  11.1835  11.1835  11.2777  11.2931  11.2972  11.3638  11.3638
    12.7721  12.8871  12.8871  13.0007  13.1523  13.1966  13.1966  13.2414
    18.0173  18.0361  18.0361  18.0564  20.8589

     occupation numbers 
     0.0938   0.0938   0.0938   0.0938   0.0938   0.0938   0.0938   0.0938
     0.0938   0.0938   0.0938   0.0938   0.0938   0.0938   0.0938   0.0938
     0.0938   0.0938   0.0938   0.0938   0.0938   0.0938   0.0938   0.0938
     0.0938   0.0938   0.0938   0.0938   0.0938   0.0938   0.0938   0.0938
     0.0938   0.0938   0.0938   0.0938   0.0938   0.0938   0.0938   0.0938
     0.0938   0.0938   0.0938   0.0938   0.0938   0.0938   0.0938   0.0938
     0.0938   0.0938   0.0938   0.0938   0.0938   0.0938   0.0938   0.0938
     0.0937   0.0937   0.0937   0.0937   0.0937   0.0937   0.0937   0.0937
     0.0000   0.0000   0.0000   0.0000   0.0000   0.0000   0.0000   0.0000
     0.0000   0.0000   0.0000   0.0000   0.0000

          k =-0.2500 0.2500 0.2500 (  2743 PWs)   bands (ev):

    -7.9030  -6.9266  -6.6818  -6.6817  -6.6817  -6.6312  -6.6312  -6.6312
     4.3454   4.3454   4.3454   4.6085   5.3417   5.3417   5.3417   6.4770
     6.4770   6.4770   6.6204   6.6204   6.6204   6.6945   6.6945   7.2111
     7.2111   7.2111   7.7040   7.7040   7.7040   7.9714   8.4506   8.4506
     9.2609   9.2609   9.2609   9.6171   9.6171  10.0008  10.0641  10.0641
    10.0641  10.2751  10.2751  10.2751  10.6018  10.6018  10.6018  10.6211
    10.6211  10.7225  10.7225  10.7225  10.9131  10.9131  10.9394  10.9394
    10.9394  11.0320  11.2556  11.2556  11.2556  11.3931  11.3931  11.3931
    13.3325  13.3325  13.3488  13.3488  13.3488  13.3563  13.3563  13.3563
    14.7670  17.5953  18.6755  18.6755  18.6755

     occupation numbers 
     0.0313   0.0313   0.0313   0.0313   0.0313   0.0313   0.0313   0.0313
     0.0313   0.0313   0.0313   0.0313   0.0313   0.0313   0.0313   0.0313
     0.0313   0.0313   0.0313   0.0313   0.0313   0.0313   0.0313   0.0313
     0.0313   0.0313   0.0313   0.0313   0.0313   0.0313   0.0313   0.0313
     0.0313   0.0313   0.0313   0.0313   0.0313   0.0313   0.0313   0.0313
     0.0313   0.0313   0.0313   0.0313   0.0313   0.0313   0.0313   0.0313
     0.0313   0.0313   0.0313   0.0313   0.0313   0.0313   0.0313   0.0313
     0.0313   0.0313   0.0312   0.0312   0.0312   0.0312   0.0312   0.0312
     0.0000   0.0000   0.0000   0.0000   0.0000   0.0000   0.0000   0.0000
     0.0000   0.0000   0.0000   0.0000   0.0000

          k = 0.5000-0.5000-0.5000 (  2764 PWs)   bands (ev):

    -7.4499  -7.4412  -6.6702  -6.6702  -6.6702  -6.6499  -6.6498  -6.6498
     5.0095   5.0095   5.0095   5.1106   5.1106   5.1106   6.0774   6.1164
     6.2585   6.2585   6.2585   6.6889   6.6890   6.6890   6.7485   6.7485
     6.7485   6.9782   6.9782   7.4453   7.4453   7.4453   7.8620   7.8620
     9.4899   9.4899   9.4899   9.6730   9.6730  10.1154  10.1200  10.1200
    10.1200  10.4483  10.4483  10.4483  10.5061  10.5061  10.5061  10.7256
    10.7256  10.8419  10.8419  10.8419  10.8699  11.0555  11.0555  11.0555
    11.2439  11.2439  11.2439  11.2990  11.2990  11.4009  11.4009  11.4009
    13.0385  13.0385  13.0385  13.0550  13.0550  13.0700  13.0700  13.0700
    16.4096  16.5597  19.6310  19.6310  19.6310

     occupation numbers 
     0.0156   0.0156   0.0156   0.0156   0.0156   0.0156   0.0156   0.0156
     0.0156   0.0156   0.0156   0.0156   0.0156   0.0156   0.0156   0.0156
     0.0156   0.0156   0.0156   0.0156   0.0156   0.0156   0.0156   0.0156
     0.0156   0.0156   0.0156   0.0156   0.0156   0.0156   0.0156   0.0156
     0.0156   0.0156   0.0156   0.0156   0.0156   0.0156   0.0156   0.0156
     0.0156   0.0156   0.0156   0.0156   0.0156   0.0156   0.0156   0.0156
     0.0156   0.0156   0.0156   0.0156   0.0156   0.0156   0.0156   0.0156
     0.0156   0.0156   0.0156   0.0156   0.0156   0.0156   0.0156   0.0156
     0.0000   0.0000   0.0000   0.0000   0.0000   0.0000   0.0000   0.0000
     0.0000   0.0000   0.0000   0.0000   0.0000

          k =-0.7500 0.7500-0.2500 (  2734 PWs)   bands (ev):

    -7.5001  -7.1697  -6.9648  -6.7686  -6.7686  -6.5940  -6.5540  -6.5540
     4.9673   4.9715   4.9715   5.2417   5.4968   5.5013   5.5013   6.1198
     6.2270   6.2270   6.3423   6.5653   6.5653   6.6587   6.8184   6.8184
     6.8264   7.0393   7.0393   7.1535   7.5012   7.7428   7.7695   7.9970
     9.3795   9.5553   9.9420   9.9420  10.0195  10.0195  10.0411  10.0427
    10.0549  10.1759  10.2123  10.2123  10.3970  10.4414  10.4964  10.4964
    10.6575  10.6957  10.6957  10.7103  10.8944  10.9469  11.0940  11.0940
    11.2145  11.2145  11.2307  11.2678  11.2750  11.2769  11.3466  11.3466
    12.7385  12.7975  12.8799  12.8799  13.2527  13.3404  13.3404  13.3521
    16.6937  17.6030  18.6722  19.3607  19.3607

     occupation numbers 
     0.0938   0.0938   0.0938   0.0938   0.0938   0.0938   0.0938   0.0938
     0.0938   0.0938   0.0938   0.0938   0.0938   0.0938   0.0938   0.0938
     0.0938   0.0938   0.0938   0.0938   0.0938   0.0938   0.0938   0.0938
     0.0938   0.0938   0.0938   0.0938   0.0938   0.0938   0.0938   0.0938
     0.0938   0.0938   0.0938   0.0938   0.0938   0.0938   0.0938   0.0938
     0.0938   0.0938   0.0938   0.0938   0.0938   0.0938   0.0938   0.0938
     0.0938   0.0938   0.0938   0.0938   0.0938   0.0938   0.0938   0.0938
     0.0937   0.0937   0.0937   0.0937   0.0937   0.0937   0.0937   0.0937
     0.0000   0.0000   0.0000   0.0000   0.0000   0.0000   0.0000   0.0000
     0.0000   0.0000   0.0000   0.0000   0.0000

          k = 0.7500-0.7500-0.2500 (  2734 PWs)   bands (ev):

    -7.5002  -7.1698  -6.9648  -6.7688  -6.7688  -6.5937  -6.5538  -6.5538
     4.9609   4.9707   4.9707   5.2819   5.4358   5.4965   5.4965   6.2194
     6.2249   6.2249   6.2612   6.6511   6.6640   6.6640   6.6951   6.6951
     6.8263   7.0779   7.0779   7.2668   7.3778   7.7509   7.7587   8.0483
     9.3519   9.5422   9.7588   9.7588   9.7829  10.0583  10.0945  10.0945
    10.2855  10.2860  10.4193  10.4193  10.4403  10.5522  10.5522  10.5580
    10.5681  10.6486  10.6491  10.6491  10.8402  10.8790  10.8790  10.9582
    11.0693  11.2411  11.2728  11.2997  11.2997  11.3586  11.3586  11.4213
    12.6915  12.8374  12.8827  12.8827  13.2790  13.3335  13.3411  13.3411
    16.6935  17.6046  18.6699  19.3598  19.3598

     occupation numbers 
     0.0938   0.0938   0.0938   0.0938   0.0938   0.0938   0.0938   0.0938
     0.0938   0.0938   0.0938   0.0938   0.0938   0.0938   0.0938   0.0938
     0.0938   0.0938   0.0938   0.0938   0.0938   0.0938   0.0938   0.0938
     0.0938   0.0938   0.0938   0.0938   0.0938   0.0938   0.0938   0.0938
     0.0938   0.0938   0.0938   0.0938   0.0938   0.0938   0.0938   0.0938
     0.0938   0.0938   0.0938   0.0938   0.0938   0.0938   0.0938   0.0938
     0.0938   0.0938   0.0938   0.0938   0.0938   0.0938   0.0938   0.0938
     0.0938   0.0937   0.0937   0.0937   0.0937   0.0937   0.0937   0.0937
     0.0000   0.0000   0.0000   0.0000   0.0000   0.0000   0.0000   0.0000
     0.0000   0.0000   0.0000   0.0000   0.0000

          k =-0.5000 0.5000 0.0000 (  2742 PWs)   bands (ev):

    -7.6381  -7.0147  -7.0146  -6.7183  -6.7183  -6.6001  -6.6001  -6.5445
     4.7689   4.7689   5.0739   5.0791   5.2398   5.2398   5.6998   5.9643
     6.3126   6.3126   6.5829   6.6742   6.6742   6.7876   6.8545   6.9194
     7.0128   7.1589   7.1589   7.2018   7.2018   7.4837   7.8304   8.1189
     9.5552   9.6070   9.6354   9.6354   9.7728  10.0729  10.0729  10.1294
    10.2414  10.2414  10.3044  10.3842  10.4462  10.5566  10.5587  10.5587
    10.6308  10.6631  10.6631  10.7413  10.7631  10.8191  11.0479  11.0479
    11.1032  11.2689  11.2689  11.3381  11.3682  11.3682  11.3838  11.4047
    13.0428  13.0447  13.0526  13.0526  13.0619  13.2045  13.2045  13.2339
    16.0087  18.0604  18.0622  19.3734  19.3734

     occupation numbers 
     0.0938   0.0938   0.0938   0.0938   0.0938   0.0938   0.0938   0.0938
     0.0938   0.0938   0.0938   0.0938   0.0938   0.0938   0.0938   0.0938
     0.0938   0.0938   0.0938   0.0938   0.0938   0.0938   0.0938   0.0938
     0.0938   0.0938   0.0938   0.0938   0.0938   0.0938   0.0938   0.0938
     0.0938   0.0938   0.0938   0.0938   0.0938   0.0938   0.0938   0.0938
     0.0938   0.0938   0.0938   0.0938   0.0938   0.0938   0.0938   0.0938
     0.0938   0.0938   0.0938   0.0938   0.0938   0.0938   0.0938   0.0938
     0.0938   0.0937   0.0937   0.0937   0.0937   0.0937   0.0937   0.0937
     0.0000   0.0000   0.0000   0.0000   0.0000   0.0000   0.0000   0.0000
     0.0000   0.0000   0.0000   0.0000   0.0000

     the Fermi energy is    11.9555 ev

!    total energy              =    -942.01610087 Ry
     Harris-Foulkes estimate   =    -942.01606495 Ry
     estimated scf accuracy    <          1.4E-09 Ry

     The total energy is the sum of the following terms:

     one-electron contribution =     -56.32840779 Ry
     hartree contribution      =     175.71023786 Ry
     xc contribution           =    -297.54052511 Ry
     ewald contribution        =    -763.85740583 Ry
     Hubbard energy            =       0.00000000 Ry
     smearing contrib. (-TS)   =       0.00000000 Ry

     total magnetization       =     0.00 Bohr mag/cell
     absolute magnetization    =    12.29 Bohr mag/cell

     convergence has been achieved in  13 iterations

     Writing output data file NiO_U0.save

     init_run     :     25.04s CPU     25.34s WALL (       1 calls)
     electrons    :    584.83s CPU    620.46s WALL (       1 calls)

     Called by init_run:
     wfcinit      :     13.84s CPU     14.05s WALL (       1 calls)
     potinit      :      1.25s CPU      1.27s WALL (       1 calls)

     Called by electrons:
     c_bands      :    416.44s CPU    448.26s WALL (      13 calls)
     sum_band     :    112.67s CPU    114.19s WALL (      13 calls)
     v_of_rho     :     12.62s CPU     12.77s WALL (      14 calls)
     v_h          :      0.25s CPU      0.28s WALL (      14 calls)
     v_xc         :     12.37s CPU     12.49s WALL (      14 calls)
     newd         :     44.40s CPU     44.52s WALL (      14 calls)
     mix_rho      :      1.09s CPU      1.79s WALL (      13 calls)

     Called by c_bands:
     init_us_2    :      3.93s CPU      3.96s WALL (     728 calls)
     cegterg      :    403.03s CPU    409.64s WALL (     338 calls)

     Called by sum_band:
     sum_band:bec :      0.76s CPU      0.76s WALL (     338 calls)
     addusdens    :     43.62s CPU     43.74s WALL (      13 calls)

     Called by *egterg:
     h_psi        :    291.62s CPU    294.22s WALL (    1118 calls)
     s_psi        :     26.68s CPU     26.72s WALL (    1144 calls)
     g_psi        :      1.29s CPU      1.30s WALL (     754 calls)
     cdiaghg      :     34.75s CPU     34.86s WALL (    1092 calls)
     cegterg:over :     23.05s CPU     23.13s WALL (     754 calls)
     cegterg:upda :     13.28s CPU     13.27s WALL (     754 calls)
     cegterg:last :      8.58s CPU      8.59s WALL (     338 calls)

     Called by h_psi:
     h_psi:vloc   :    208.73s CPU    210.60s WALL (    1118 calls)
     h_psi:vnl    :     52.63s CPU     52.75s WALL (    1118 calls)
     add_vuspsi   :     25.78s CPU     25.83s WALL (    1118 calls)
     vhpsi        :     29.66s CPU     30.27s WALL (    1118 calls)

     General routines
     calbec       :     54.70s CPU     55.42s WALL (    2938 calls)
     fft          :      6.16s CPU      6.61s WALL (     424 calls)
     ffts         :      0.15s CPU      0.18s WALL (      54 calls)
     fftw         :    205.51s CPU    207.32s WALL (  146322 calls)
     interpolate  :      0.98s CPU      1.12s WALL (      54 calls)
     davcio       :      0.03s CPU      7.95s WALL (    2298 calls)

     Parallel routines
     fft_scatter  :     54.94s CPU     56.81s WALL (  146800 calls)
     Hubbard U routines
     new_ns       :      4.69s CPU      5.50s WALL (      13 calls)
     vhpsi        :     29.66s CPU     30.27s WALL (    1118 calls)

     PWSCF        : 10m10.76s CPU    10m46.92s WALL


   This run was terminated on:  15:10:56  13Nov2012            

=------------------------------------------------------------------------------=
