   JOB DONE.
=------------------------------------------------------------------------------=

     Program PWSCF v.5.0.1 starts on 11Nov2012 at 15: 1:25 

     This program is part of the open-source Quantum ESPRESSO suite
     for quantum simulation of materials; please cite
         "P. Giannozzi et al., J. Phys.:Condens. Matter 21 395502 (2009);
          URL http://www.quantum-espresso.org", 
     in publications or presentations arising from this work. More details at
     http://www.quantum-espresso.org/quote.php

     Parallel version (MPI), running on     2 processors
     R & G space division:  proc/pool =    2

     Current dimensions of program PWSCF are:
     Max number of different atomic species (ntypx) = 10
     Max number of k-points (npk) =  40000
     Max angular momentum in pseudopotentials (lmaxx) =  3
     Reading input from CoLaO_U200_a15.in
               file Co.pbe-nd-rrkjus.UPF: wavefunction(s)  4S 3D renormalized
               file O.pbe-rrkjus.UPF: wavefunction(s)  2S renormalized

     Subspace diagonalization in iterative solution of the eigenvalue problem:
     a serial algorithm will be used


     Parallelization info
     --------------------
     sticks:   dense  smooth     PW     G-vecs:    dense   smooth      PW
     Min        1112     444    131                34808     8786    1448
     Max        1113     445    132                34809     8787    1449
     Sum        2225     889    263                69617    17573    2897


     Title: 
     GGA + U, U = 2.000, alpha = 0.150                                          


     bravais-lattice index     =            5
     lattice parameter (alat)  =      10.3292  a.u.
     unit-cell volume          =     793.0599 (a.u.)^3
     number of atoms/cell      =           10
     number of atomic types    =            4
     number of electrons       =        76.00
     number of Kohn-Sham states=           46
     kinetic-energy cutoff     =      30.0000  Ry
     charge density cutoff     =     300.0000  Ry
     convergence threshold     =      1.0E-08
     mixing beta               =       0.2000
     number of iterations used =            8  plain     mixing
     Exchange-correlation      =  SLA  PW   PBE  PBE ( 1 4 3 4 0)
     EXX-fraction              =        0.00

     celldm(1)=  10.329242  celldm(2)=   0.000000  celldm(3)=   0.000000
     celldm(4)=   0.488100  celldm(5)=   0.000000  celldm(6)=   0.000000

     crystal axes: (cart. coord. in units of alat)
               a(1) = (   0.505915  -0.292090   0.811624 )  
               a(2) = (   0.000000   0.584180   0.811624 )  
               a(3) = (  -0.505915  -0.292090   0.811624 )  

     reciprocal axes: (cart. coord. in units 2 pi/alat)
               b(1) = (  0.988308 -0.570600  0.410699 )  
               b(2) = (  0.000000  1.141200  0.410699 )  
               b(3) = ( -0.988308 -0.570600  0.410699 )  


     PseudoPot. # 1 for Co read from file:
     /home/mcurnan/dft-course/Project1/example_LaCoO3/Co.pbe-nd-rrkjus.UPF
     MD5 check sum: 3e47a84addf5e975e0edeaeee2a73f59
     Pseudo is Ultrasoft + core correction, Zval =  9.0
     Generated by new atomic code, or converted to UPF format
     Using radial grid of  961 points,  6 beta functions with: 
                l(1) =   0
                l(2) =   0
                l(3) =   1
                l(4) =   1
                l(5) =   2
                l(6) =   2
     Q(r) pseudized with 0 coefficients 


     PseudoPot. # 2 for La read from file:
     /home/mcurnan/dft-course/Project1/example_LaCoO3/La.pbe-nsp-van.UPF
     MD5 check sum: b2f11743f52dde65f77d1302becd7929
     Pseudo is Ultrasoft + core correction, Zval = 11.0
     Generated by new atomic code, or converted to UPF format
     Using radial grid of  907 points,  6 beta functions with: 
                l(1) =   0
                l(2) =   0
                l(3) =   1
                l(4) =   1
                l(5) =   2
                l(6) =   2
     Q(r) pseudized with  6 coefficients,  rinner =    1.200   1.200   1.200
                                                       1.200   1.200

     PseudoPot. # 3 for La read from file:
     /home/mcurnan/dft-course/Project1/example_LaCoO3/La.pbe-nsp-van.UPF
     MD5 check sum: b2f11743f52dde65f77d1302becd7929
     Pseudo is Ultrasoft + core correction, Zval = 11.0
     Generated by new atomic code, or converted to UPF format
     Using radial grid of  907 points,  6 beta functions with: 
                l(1) =   0
                l(2) =   0
                l(3) =   1
                l(4) =   1
                l(5) =   2
                l(6) =   2
     Q(r) pseudized with  6 coefficients,  rinner =    1.200   1.200   1.200
                                                       1.200   1.200

     PseudoPot. # 4 for O  read from file:
     /home/mcurnan/dft-course/Project1/example_LaCoO3/O.pbe-rrkjus.UPF
     MD5 check sum: 390ba29e75625707450f3bd3f0eb6be9
     Pseudo is Ultrasoft, Zval =  6.0
     Generated by new atomic code, or converted to UPF format
     Using radial grid of 1269 points,  4 beta functions with: 
                l(1) =   0
                l(2) =   0
                l(3) =   1
                l(4) =   1
     Q(r) pseudized with 0 coefficients 


     atomic species   valence    mass     pseudopotential
        Co1            9.00     1.00000     Co( 1.00)
        La1           11.00     1.00000     La( 1.00)
        La2           11.00     1.00000     La( 1.00)
        O1             6.00     1.00000     O ( 1.00)
 -----
     simplified LDA+U calculation, Hubbard_lmax = 2
     atomic species  L   Hubbard U  Hubbard alpha
        Co1          2    2.000000    0.000000
        La1          2    0.000000    0.150000
        La2          2    0.000000    0.000000
        O1           1    0.000000    0.000000
 -----

      3 Sym. Ops. (no inversion) found


                                    s                        frac. trans.

      isym =  1     identity                                     

 cryst.   s( 1) = (     1          0          0      )
                  (     0          1          0      )
                  (     0          0          1      )

 cart.    s( 1) = (  1.0000000  0.0000000  0.0000000 )
                  (  0.0000000  1.0000000  0.0000000 )
                  (  0.0000000  0.0000000  1.0000000 )


      isym =  2     120 deg rotation - cryst. axis [0,0,1]       

 cryst.   s( 2) = (     0          1          0      )
                  (     0          0          1      )
                  (     1          0          0      )

 cart.    s( 2) = ( -0.5000000 -0.8660254  0.0000000 )
                  (  0.8660254 -0.5000000  0.0000000 )
                  (  0.0000000  0.0000000  1.0000000 )


      isym =  3     120 deg rotation - cryst. axis [0,0,-1]      

 cryst.   s( 3) = (     0          0          1      )
                  (     1          0          0      )
                  (     0          1          0      )

 cart.    s( 3) = ( -0.5000000  0.8660254  0.0000000 )
                  ( -0.8660254 -0.5000000  0.0000000 )
                  (  0.0000000  0.0000000  1.0000000 )


     point group C_3 (3)    
     there are  3 classes
     the character table:

       E     C3    C3^2 
A      1.00  1.00  1.00
E      1.00 -0.50 -0.50
E*     1.00 -0.50 -0.50
     imaginary part
A      0.00  0.00  0.00
E      0.00  0.87 -0.87
E*     0.00 -0.87  0.87

     the symmetry operations in each class:
     E        1
     C3       2
     C3^2     3

   Cartesian axes

     site n.     atom                  positions (alat units)
         1           Co1 tau(   1) = (   0.0000000   0.0000000   1.8261537  )
         2           Co1 tau(   2) = (   0.0000000   0.0000000   0.6087179  )
         3           La1 tau(   3) = (   0.0000000   0.0000000   0.0000000  )
         4           La2 tau(   4) = (   0.0000000   0.0000000   1.2174358  )
         5           O1  tau(   5) = (   0.2831100  -0.0928263   1.6236536  )
         6           O1  tau(   6) = (  -0.2219449  -0.1987674   1.6236536  )
         7           O1  tau(   7) = (  -0.0611651   0.2915936   1.6236536  )
         8           O1  tau(   8) = (   0.2228050   0.3849164   1.2170300  )
         9           O1  tau(   9) = (   0.2219449  -0.3854130   1.2170300  )
        10           O1  tau(  10) = (  -0.4447499   0.0004966   1.2170300  )

   Crystallographic axes

     site n.     atom                  positions (cryst. coord.)
         1           Co1 tau(   1) = (  0.7500000  0.7500000  0.7500000  )
         2           Co1 tau(   2) = (  0.2500000  0.2500000  0.2500000  )
         3           La1 tau(   3) = (  0.0000000  0.0000000  0.0000000  )
         4           La2 tau(   4) = (  0.5000000  0.5000000  0.5000000  )
         5           O1  tau(   5) = (  0.9996000  0.5609000  0.4400000  )
         6           O1  tau(   6) = (  0.5609000  0.4400000  0.9996000  )
         7           O1  tau(   7) = (  0.4400000  0.9996000  0.5609000  )
         8           O1  tau(   8) = (  0.5004000  0.9391000  0.0600000  )
         9           O1  tau(   9) = (  0.9391000  0.0600000  0.5004000  )
        10           O1  tau(  10) = (  0.0600000  0.5004000  0.9391000  )

     number of k points=    14  gaussian smearing, width (Ry)=  0.0300
                       cart. coord. in units 2pi/alat
        k(    1) = (   0.0000000   0.0000000   0.0000000), wk =   0.0312500
        k(    2) = (  -0.2470771  -0.1426500   0.1026748), wk =   0.1875000
        k(    3) = (   0.4941541   0.2853000  -0.2053496), wk =   0.0937500
        k(    4) = (  -0.2470771   0.1426500   0.2053496), wk =   0.1875000
        k(    5) = (   0.4941541   0.5706001  -0.1026748), wk =   0.1875000
        k(    6) = (   0.2470771   0.4279500   0.0000000), wk =   0.1875000
        k(    7) = (   0.4941541  -0.2853000  -0.4106993), wk =   0.0937500
        k(    8) = (   0.0000000   0.0000000   0.3080244), wk =   0.0625000
        k(    9) = (   0.7412312   0.4279500   0.0000000), wk =   0.1875000
        k(   10) = (   0.4941541   0.2853000   0.1026748), wk =   0.1875000
        k(   11) = (   0.7412312  -0.4279500  -0.3080244), wk =   0.1875000
        k(   12) = (   0.4941541  -0.5706001  -0.2053496), wk =   0.1875000
        k(   13) = (   0.0000000   0.0000000  -0.6160489), wk =   0.0312500
        k(   14) = (   0.4941541  -0.5706001   0.1026748), wk =   0.1875000

                       cryst. coord.
        k(    1) = (   0.0000000   0.0000000   0.0000000), wk =   0.0312500
        k(    2) = (   0.0000000   0.0000000   0.2500000), wk =   0.1875000
        k(    3) = (   0.0000000   0.0000000  -0.5000000), wk =   0.0937500
        k(    4) = (   0.0000000   0.2500000   0.2500000), wk =   0.1875000
        k(    5) = (   0.0000000   0.2500000  -0.5000000), wk =   0.1875000
        k(    6) = (   0.0000000   0.2500000  -0.2500000), wk =   0.1875000
        k(    7) = (   0.0000000  -0.5000000  -0.5000000), wk =   0.0937500
        k(    8) = (   0.2500000   0.2500000   0.2500000), wk =   0.0625000
        k(    9) = (   0.2500000   0.2500000  -0.5000000), wk =   0.1875000
        k(   10) = (   0.2500000   0.2500000  -0.2500000), wk =   0.1875000
        k(   11) = (   0.2500000  -0.5000000  -0.5000000), wk =   0.1875000
        k(   12) = (   0.2500000  -0.5000000  -0.2500000), wk =   0.1875000
        k(   13) = (  -0.5000000  -0.5000000  -0.5000000), wk =   0.0312500
        k(   14) = (   0.5000000  -0.2500000   0.0000000), wk =   0.1875000

     Dense  grid:    69617 G-vectors     FFT dimensions: (  60,  60,  60)

     Smooth grid:    17573 G-vectors     FFT dimensions: (  40,  40,  40)

     Largest allocated arrays     est. size (Mb)     dimensions
        Kohn-Sham Wavefunctions         0.78 Mb     (   1117,   46)
        Atomic wavefunctions            1.06 Mb     (   1117,   62)
        NL pseudopotentials             2.05 Mb     (   1117,  120)
        Each V/rho on FFT grid          1.65 Mb     ( 108000)
        Each G-vector array             0.27 Mb     (  34808)
        G-vector shells                 0.04 Mb     (   4682)
     Largest temporary arrays     est. size (Mb)     dimensions
        Auxiliary wavefunctions         3.14 Mb     (   1117,  184)
        Each subspace H/S matrix        0.52 Mb     ( 184, 184)
        Each <psi_i|beta_j> matrix      0.08 Mb     (    120,   46)
        Arrays for rho mixing          13.18 Mb     ( 108000,   8)

     Check: negative/imaginary core charge=   -0.000028    0.000000

     The initial density is read from file :
     /home/mcurnan/dft-course/Project1/example_LaCoO3/200/La/alpha/CoLaO_U200.save/charge-density.dat

 --- in v_hubbard ---
Hubbard energy    0.2333
 -------
     Number of +U iterations with fixed ns =  0
     Starting occupations:
 --- enter write_ns ---
 LDA+U parameters:
U( 1)     =  2.00000000
alpha( 1) =  0.00000000
U( 2)     =  0.00000000
alpha( 2) =  0.15000000
U( 3)     =  0.00000000
alpha( 3) =  0.00000000
U( 4)     =  0.00000000
alpha( 4) =  0.00000000
atom    1   Tr[ns(na)] =   8.02205
    eigenvalues: 
  0.596  0.596  0.938  0.941  0.941
    eigenvectors:
  0.000  0.000  1.000  0.000  0.000
  0.334  0.321  0.000  0.004  0.341
  0.321  0.334  0.000  0.341  0.004
  0.288  0.057  0.000  0.515  0.140
  0.057  0.288  0.000  0.140  0.515
    occupations:
  0.938  0.000  0.000  0.000  0.000
  0.000  0.715  0.000 -0.060  0.152
  0.000  0.000  0.715  0.152  0.060
  0.000 -0.060  0.152  0.822  0.000
  0.000  0.152  0.060  0.000  0.822
atom    2   Tr[ns(na)] =   8.02143
    eigenvalues: 
  0.595  0.595  0.938  0.941  0.941
    eigenvectors:
  0.000  0.000  1.000  0.000  0.000
  0.638  0.017  0.000  0.223  0.122
  0.017  0.638  0.000  0.122  0.223
  0.015  0.330  0.000  0.470  0.185
  0.330  0.015  0.000  0.185  0.470
    occupations:
  0.938  0.000  0.000  0.000  0.000
  0.000  0.715  0.000  0.060  0.153
  0.000  0.000  0.715  0.153 -0.060
  0.000  0.060  0.153  0.822  0.000
  0.000  0.153 -0.060  0.000  0.822
atom    3   Tr[ns(na)] =   3.80283
    eigenvalues: 
  0.355  0.355  0.384  0.403  0.403
    eigenvectors:
  0.000  0.000  1.000  0.000  0.000
  0.781  0.140  0.000  0.012  0.068
  0.140  0.781  0.000  0.068  0.012
  0.013  0.067  0.000  0.780  0.140
  0.067  0.013  0.000  0.140  0.780
    occupations:
  0.384  0.000  0.000  0.000  0.000
  0.000  0.359  0.000  0.000  0.013
  0.000  0.000  0.359  0.013  0.000
  0.000  0.000  0.013  0.399  0.000
  0.000  0.013  0.000  0.000  0.399
atom    4   Tr[ns(na)] =   3.80283
    eigenvalues: 
  0.355  0.355  0.384  0.403  0.403
    eigenvectors:
  0.000  0.000  1.000  0.000  0.000
  0.781  0.140  0.000  0.012  0.068
  0.140  0.781  0.000  0.068  0.012
  0.013  0.067  0.000  0.780  0.140
  0.067  0.013  0.000  0.140  0.780
    occupations:
  0.384  0.000  0.000  0.000  0.000
  0.000  0.359  0.000  0.000  0.013
  0.000  0.000  0.359  0.013  0.000
  0.000  0.000  0.013  0.399  0.000
  0.000  0.013  0.000  0.000  0.399
atom    5   Tr[ns(na)] =   5.43358
    eigenvalues: 
  0.846  0.929  0.941
    eigenvectors:
  0.340  0.000  0.660
  0.496  0.250  0.255
  0.164  0.750  0.086
    occupations:
  0.909 -0.039  0.022
 -0.039  0.891  0.022
  0.022  0.022  0.917
atom    6   Tr[ns(na)] =   5.43358
    eigenvalues: 
  0.846  0.929  0.941
    eigenvectors:
  0.340  0.000  0.660
  0.494  0.250  0.256
  0.166  0.750  0.085
    occupations:
  0.909  0.039  0.022
  0.039  0.891 -0.022
  0.022 -0.022  0.917
atom    7   Tr[ns(na)] =   5.43358
    eigenvalues: 
  0.846  0.929  0.941
    eigenvectors:
  0.340  0.000  0.660
  0.000  1.000  0.000
  0.660  0.000  0.340
    occupations:
  0.909  0.000 -0.045
  0.000  0.929  0.000
 -0.045  0.000  0.879
atom    8   Tr[ns(na)] =   5.43358
    eigenvalues: 
  0.846  0.929  0.941
    eigenvectors:
  0.340  0.000  0.660
  0.496  0.250  0.255
  0.164  0.750  0.086
    occupations:
  0.909 -0.039  0.022
 -0.039  0.891  0.022
  0.022  0.022  0.917
atom    9   Tr[ns(na)] =   5.43358
    eigenvalues: 
  0.846  0.929  0.941
    eigenvectors:
  0.340  0.000  0.660
  0.494  0.250  0.256
  0.166  0.750  0.085
    occupations:
  0.909  0.039  0.022
  0.039  0.891 -0.022
  0.022 -0.022  0.917
atom   10   Tr[ns(na)] =   5.43358
    eigenvalues: 
  0.846  0.929  0.941
    eigenvectors:
  0.340  0.000  0.660
  0.000  1.000  0.000
  0.660  0.000  0.340
    occupations:
  0.909  0.000 -0.045
  0.000  0.929  0.000
 -0.045  0.000  0.879
N of occupied +U levels =  56.2506014
 --- exit write_ns ---
 LDA+U Projector read from file 
     Starting wfc from file

     total cpu time spent up to now is        8.4 secs

     per-process dynamical memory:    47.1 Mb

     Self-consistent Calculation

     iteration #  1     ecut=    30.00 Ry     beta=0.20
     Davidson diagonalization with overlap
     c_bands:  1 eigenvalues not converged
     c_bands:  1 eigenvalues not converged
     c_bands:  1 eigenvalues not converged
     c_bands:  1 eigenvalues not converged
     c_bands:  1 eigenvalues not converged
     c_bands:  1 eigenvalues not converged
     c_bands:  1 eigenvalues not converged
     c_bands:  1 eigenvalues not converged
     c_bands:  1 eigenvalues not converged
     c_bands:  2 eigenvalues not converged
     c_bands:  1 eigenvalues not converged
     ethr =  1.00E-10,  avg # of iterations = 18.5
 --- enter write_ns ---
 LDA+U parameters:
U( 1)     =  2.00000000
alpha( 1) =  0.00000000
U( 2)     =  0.00000000
alpha( 2) =  0.15000000
U( 3)     =  0.00000000
alpha( 3) =  0.00000000
U( 4)     =  0.00000000
alpha( 4) =  0.00000000
atom    1   Tr[ns(na)] =   8.11995
    eigenvalues: 
  0.567  0.567  0.975  0.975  0.976
    eigenvectors:
  0.000  0.000  0.000  0.000  1.000
  0.330  0.324  0.005  0.341  0.000
  0.324  0.330  0.341  0.005  0.000
  0.287  0.059  0.513  0.142  0.000
  0.059  0.287  0.142  0.513  0.000
    occupations:
  0.976  0.000  0.000  0.000  0.000
  0.000  0.708  0.000 -0.069  0.181
  0.000  0.000  0.708  0.181  0.069
  0.000 -0.069  0.181  0.834  0.000
  0.000  0.181  0.069  0.000  0.834
atom    2   Tr[ns(na)] =   8.11435
    eigenvalues: 
  0.565  0.565  0.975  0.975  0.976
    eigenvectors:
  0.000  0.000  0.000  0.000  1.000
  0.633  0.021  0.220  0.126  0.000
  0.021  0.633  0.126  0.220  0.000
  0.011  0.335  0.469  0.185  0.000
  0.335  0.011  0.185  0.469  0.000
    occupations:
  0.976  0.000  0.000  0.000  0.000
  0.000  0.707  0.000  0.069  0.182
  0.000  0.000  0.707  0.182 -0.069
  0.000  0.069  0.182  0.833  0.000
  0.000  0.182 -0.069  0.000  0.833
atom    3   Tr[ns(na)] =   3.74297
    eigenvalues: 
  0.350  0.350  0.378  0.397  0.397
    eigenvectors:
  0.000  0.000  1.000  0.000  0.000
  0.774  0.142  0.000  0.012  0.072
  0.142  0.774  0.000  0.072  0.012
  0.014  0.070  0.000  0.775  0.141
  0.070  0.014  0.000  0.141  0.775
    occupations:
  0.378  0.000  0.000  0.000  0.000
  0.000  0.354  0.000  0.000  0.013
  0.000  0.000  0.354  0.013  0.000
  0.000  0.000  0.013  0.393  0.000
  0.000  0.013  0.000  0.000  0.393
atom    4   Tr[ns(na)] =   3.79500
    eigenvalues: 
  0.356  0.356  0.382  0.402  0.402
    eigenvectors:
  0.000  0.000  1.000  0.000  0.000
  0.778  0.140  0.000  0.012  0.069
  0.140  0.778  0.000  0.069  0.012
  0.013  0.068  0.000  0.778  0.141
  0.068  0.013  0.000  0.141  0.778
    occupations:
  0.382  0.000  0.000  0.000  0.000
  0.000  0.359  0.000  0.000  0.013
  0.000  0.000  0.359  0.013  0.000
  0.000  0.000  0.013  0.398  0.000
  0.000  0.013  0.000  0.000  0.398
atom    5   Tr[ns(na)] =   5.41507
    eigenvalues: 
  0.836  0.928  0.944
    eigenvectors:
  0.340  0.000  0.660
  0.495  0.250  0.255
  0.164  0.750  0.086
    occupations:
  0.907 -0.044  0.025
 -0.044  0.886  0.024
  0.025  0.024  0.914
atom    6   Tr[ns(na)] =   5.41507
    eigenvalues: 
  0.836  0.928  0.944
    eigenvectors:
  0.340  0.000  0.660
  0.494  0.250  0.256
  0.165  0.750  0.085
    occupations:
  0.907  0.044  0.025
  0.044  0.887 -0.024
  0.025 -0.024  0.914
atom    7   Tr[ns(na)] =   5.41507
    eigenvalues: 
  0.836  0.928  0.944
    eigenvectors:
  0.340  0.000  0.660
  0.000  1.000  0.000
  0.660  0.000  0.340
    occupations:
  0.907  0.000 -0.051
  0.000  0.928  0.000
 -0.051  0.000  0.873
atom    8   Tr[ns(na)] =   5.41487
    eigenvalues: 
  0.836  0.927  0.944
    eigenvectors:
  0.340  0.000  0.660
  0.495  0.250  0.255
  0.164  0.750  0.086
    occupations:
  0.907 -0.044  0.026
 -0.044  0.886  0.023
  0.026  0.023  0.913
atom    9   Tr[ns(na)] =   5.41487
    eigenvalues: 
  0.836  0.927  0.944
    eigenvectors:
  0.340  0.000  0.660
  0.494  0.250  0.256
  0.165  0.750  0.085
    occupations:
  0.907  0.044  0.026
  0.044  0.887 -0.023
  0.026 -0.023  0.913
atom   10   Tr[ns(na)] =   5.41487
    eigenvalues: 
  0.836  0.927  0.944
    eigenvectors:
  0.340  0.000  0.660
  0.000  1.000  0.000
  0.660  0.000  0.340
    occupations:
  0.907  0.000 -0.051
  0.000  0.927  0.000
 -0.051  0.000  0.873
N of occupied +U levels =  56.2620922
 --- exit write_ns ---
 --- in v_hubbard ---
Hubbard energy    0.2283
 -------

     total cpu time spent up to now is       49.7 secs

     total energy              =    -538.11169129 Ry
     Harris-Foulkes estimate   =    -538.11390702 Ry
     estimated scf accuracy    <       0.01256129 Ry

     iteration #  2     ecut=    30.00 Ry     beta=0.20
     Davidson diagonalization with overlap
     ethr =  1.65E-05,  avg # of iterations =  1.3
 --- enter write_ns ---
 LDA+U parameters:
U( 1)     =  2.00000000
alpha( 1) =  0.00000000
U( 2)     =  0.00000000
alpha( 2) =  0.15000000
U( 3)     =  0.00000000
alpha( 3) =  0.00000000
U( 4)     =  0.00000000
alpha( 4) =  0.00000000
atom    1   Tr[ns(na)] =   8.03156
    eigenvalues: 
  0.546  0.546  0.975  0.975  0.976
    eigenvectors:
  0.000  0.000  0.000  0.000  1.000
  0.332  0.323  0.005  0.340  0.000
  0.323  0.332  0.340  0.005  0.000
  0.286  0.058  0.514  0.141  0.000
  0.058  0.286  0.141  0.514  0.000
    occupations:
  0.976  0.000  0.000  0.000  0.000
  0.000  0.693  0.000 -0.073  0.190
  0.000  0.000  0.693  0.190  0.073
  0.000 -0.073  0.190  0.827  0.000
  0.000  0.190  0.073  0.000  0.827
atom    2   Tr[ns(na)] =   8.04061
    eigenvalues: 
  0.545  0.545  0.976  0.976  0.977
    eigenvectors:
  0.000  0.000  0.000  0.000  1.000
  0.636  0.019  0.220  0.124  0.000
  0.019  0.636  0.124  0.220  0.000
  0.013  0.332  0.470  0.185  0.000
  0.332  0.013  0.185  0.470  0.000
    occupations:
  0.977  0.000  0.000  0.000  0.000
  0.000  0.694  0.000  0.073  0.191
  0.000  0.000  0.694  0.191 -0.073
  0.000  0.073  0.191  0.828  0.000
  0.000  0.191 -0.073  0.000  0.828
atom    3   Tr[ns(na)] =   3.74577
    eigenvalues: 
  0.350  0.350  0.378  0.397  0.397
    eigenvectors:
  0.000  0.000  1.000  0.000  0.000
  0.777  0.141  0.000  0.012  0.070
  0.141  0.777  0.000  0.070  0.012
  0.013  0.069  0.000  0.777  0.141
  0.069  0.013  0.000  0.141  0.777
    occupations:
  0.378  0.000  0.000  0.000  0.000
  0.000  0.354  0.000  0.000  0.013
  0.000  0.000  0.354  0.013  0.000
  0.000  0.000  0.013  0.394  0.000
  0.000  0.013  0.000  0.000  0.394
atom    4   Tr[ns(na)] =   3.79495
    eigenvalues: 
  0.355  0.355  0.382  0.402  0.402
    eigenvectors:
  0.000  0.000  1.000  0.000  0.000
  0.781  0.139  0.000  0.012  0.068
  0.139  0.781  0.000  0.068  0.012
  0.013  0.067  0.000  0.780  0.140
  0.067  0.013  0.000  0.140  0.780
    occupations:
  0.382  0.000  0.000  0.000  0.000
  0.000  0.359  0.000  0.000  0.013
  0.000  0.000  0.359  0.013  0.000
  0.000  0.000  0.013  0.398  0.000
  0.000  0.013  0.000  0.000  0.398
atom    5   Tr[ns(na)] =   5.43987
    eigenvalues: 
  0.844  0.931  0.945
    eigenvectors:
  0.338  0.000  0.662
  0.496  0.251  0.253
  0.166  0.749  0.085
    occupations:
  0.911 -0.042  0.024
 -0.042  0.891  0.023
  0.024  0.023  0.918
atom    6   Tr[ns(na)] =   5.43987
    eigenvalues: 
  0.844  0.931  0.945
    eigenvectors:
  0.338  0.000  0.662
  0.497  0.249  0.254
  0.165  0.751  0.084
    occupations:
  0.911  0.042  0.024
  0.042  0.891 -0.023
  0.024 -0.023  0.918
atom    7   Tr[ns(na)] =   5.43987
    eigenvalues: 
  0.844  0.931  0.945
    eigenvectors:
  0.338  0.000  0.662
  0.000  1.000  0.000
  0.662  0.000  0.338
    occupations:
  0.911  0.000 -0.048
  0.000  0.931  0.000
 -0.048  0.000  0.878
atom    8   Tr[ns(na)] =   5.43976
    eigenvalues: 
  0.844  0.930  0.946
    eigenvectors:
  0.338  0.000  0.662
  0.496  0.251  0.253
  0.166  0.749  0.085
    occupations:
  0.911 -0.042  0.024
 -0.042  0.891  0.023
  0.024  0.023  0.917
atom    9   Tr[ns(na)] =   5.43976
    eigenvalues: 
  0.844  0.930  0.946
    eigenvectors:
  0.338  0.000  0.662
  0.497  0.249  0.254
  0.165  0.751  0.084
    occupations:
  0.911  0.042  0.024
  0.042  0.891 -0.022
  0.024 -0.022  0.917
atom   10   Tr[ns(na)] =   5.43976
    eigenvalues: 
  0.844  0.930  0.946
    eigenvectors:
  0.338  0.000  0.662
  0.000  1.000  0.000
  0.662  0.000  0.338
    occupations:
  0.911  0.000 -0.048
  0.000  0.930  0.000
 -0.048  0.000  0.878
N of occupied +U levels =  56.2517848
 --- exit write_ns ---
 --- in v_hubbard ---
Hubbard energy    0.2258
 -------

     total cpu time spent up to now is       63.9 secs

     total energy              =    -538.11342021 Ry
     Harris-Foulkes estimate   =    -538.11349959 Ry
     estimated scf accuracy    <       0.00729609 Ry

     iteration #  3     ecut=    30.00 Ry     beta=0.20
     Davidson diagonalization with overlap
     ethr =  9.60E-06,  avg # of iterations =  1.0
 --- enter write_ns ---
 LDA+U parameters:
U( 1)     =  2.00000000
alpha( 1) =  0.00000000
U( 2)     =  0.00000000
alpha( 2) =  0.15000000
U( 3)     =  0.00000000
alpha( 3) =  0.00000000
U( 4)     =  0.00000000
alpha( 4) =  0.00000000
atom    1   Tr[ns(na)] =   8.06250
    eigenvalues: 
  0.551  0.551  0.976  0.976  0.977
    eigenvectors:
  0.000  0.000  0.000  0.000  1.000
  0.333  0.323  0.004  0.340  0.000
  0.323  0.333  0.340  0.004  0.000
  0.286  0.058  0.515  0.141  0.000
  0.058  0.286  0.141  0.515  0.000
    occupations:
  0.977  0.000  0.000  0.000  0.000
  0.000  0.698  0.000 -0.073  0.188
  0.000  0.000  0.698  0.188  0.073
  0.000 -0.073  0.188  0.830  0.000
  0.000  0.188  0.073  0.000  0.830
atom    2   Tr[ns(na)] =   8.04882
    eigenvalues: 
  0.548  0.548  0.976  0.976  0.977
    eigenvectors:
  0.000  0.000  0.000  0.000  1.000
  0.635  0.021  0.219  0.125  0.000
  0.021  0.635  0.125  0.219  0.000
  0.012  0.333  0.470  0.185  0.000
  0.333  0.012  0.185  0.470  0.000
    occupations:
  0.977  0.000  0.000  0.000  0.000
  0.000  0.695  0.000  0.072  0.190
  0.000  0.000  0.695  0.190 -0.072
  0.000  0.072  0.190  0.829  0.000
  0.000  0.190 -0.072  0.000  0.829
atom    3   Tr[ns(na)] =   3.74788
    eigenvalues: 
  0.350  0.350  0.378  0.398  0.398
    eigenvectors:
  0.000  0.000  1.000  0.000  0.000
  0.778  0.141  0.000  0.012  0.070
  0.141  0.778  0.000  0.070  0.012
  0.013  0.069  0.000  0.778  0.141
  0.069  0.013  0.000  0.141  0.778
    occupations:
  0.378  0.000  0.000  0.000  0.000
  0.000  0.354  0.000  0.000  0.013
  0.000  0.000  0.354  0.013  0.000
  0.000  0.000  0.013  0.394  0.000
  0.000  0.013  0.000  0.000  0.394
atom    4   Tr[ns(na)] =   3.79567
    eigenvalues: 
  0.356  0.356  0.382  0.402  0.402
    eigenvectors:
  0.000  0.000  1.000  0.000  0.000
  0.781  0.140  0.000  0.012  0.068
  0.140  0.781  0.000  0.068  0.012
  0.013  0.067  0.000  0.780  0.140
  0.067  0.013  0.000  0.140  0.780
    occupations:
  0.382  0.000  0.000  0.000  0.000
  0.000  0.359  0.000  0.000  0.013
  0.000  0.000  0.359  0.013  0.000
  0.000  0.000  0.013  0.398  0.000
  0.000  0.013  0.000  0.000  0.398
atom    5   Tr[ns(na)] =   5.43352
    eigenvalues: 
  0.842  0.930  0.945
    eigenvectors:
  0.338  0.000  0.661
  0.497  0.249  0.254
  0.164  0.751  0.085
    occupations:
  0.910 -0.042  0.024
 -0.042  0.890  0.023
  0.024  0.023  0.917
atom    6   Tr[ns(na)] =   5.43352
    eigenvalues: 
  0.842  0.930  0.945
    eigenvectors:
  0.338  0.000  0.661
  0.495  0.251  0.254
  0.166  0.749  0.084
    occupations:
  0.910  0.042  0.024
  0.042  0.890 -0.023
  0.024 -0.023  0.917
atom    7   Tr[ns(na)] =   5.43352
    eigenvalues: 
  0.842  0.930  0.945
    eigenvectors:
  0.338  0.000  0.661
  0.000  1.000  0.000
  0.661  0.000  0.339
    occupations:
  0.910  0.000 -0.049
  0.000  0.930  0.000
 -0.049  0.000  0.877
atom    8   Tr[ns(na)] =   5.43348
    eigenvalues: 
  0.842  0.929  0.946
    eigenvectors:
  0.339  0.000  0.661
  0.497  0.249  0.254
  0.164  0.751  0.085
    occupations:
  0.910 -0.043  0.024
 -0.043  0.890  0.023
  0.024  0.023  0.916
atom    9   Tr[ns(na)] =   5.43348
    eigenvalues: 
  0.842  0.929  0.946
    eigenvectors:
  0.339  0.000  0.661
  0.495  0.251  0.254
  0.166  0.749  0.084
    occupations:
  0.910  0.042  0.025
  0.042  0.890 -0.023
  0.025 -0.023  0.916
atom   10   Tr[ns(na)] =   5.43348
    eigenvalues: 
  0.842  0.929  0.946
    eigenvectors:
  0.339  0.000  0.661
  0.000  1.000  0.000
  0.661  0.000  0.339
    occupations:
  0.910  0.000 -0.049
  0.000  0.929  0.000
 -0.049  0.000  0.877
N of occupied +U levels =  56.2558728
 --- exit write_ns ---
 --- in v_hubbard ---
Hubbard energy    0.2168
 -------

     total cpu time spent up to now is       78.8 secs

     total energy              =    -538.11405165 Ry
     Harris-Foulkes estimate   =    -538.11358181 Ry
     estimated scf accuracy    <       0.00396718 Ry

     iteration #  4     ecut=    30.00 Ry     beta=0.20
     Davidson diagonalization with overlap
     ethr =  5.22E-06,  avg # of iterations =  1.0
 --- enter write_ns ---
 LDA+U parameters:
U( 1)     =  2.00000000
alpha( 1) =  0.00000000
U( 2)     =  0.00000000
alpha( 2) =  0.15000000
U( 3)     =  0.00000000
alpha( 3) =  0.00000000
U( 4)     =  0.00000000
alpha( 4) =  0.00000000
atom    1   Tr[ns(na)] =   8.00742
    eigenvalues: 
  0.543  0.543  0.973  0.973  0.973
    eigenvectors:
  0.000  0.000  0.000  0.000  1.000
  0.333  0.324  0.005  0.338  0.000
  0.324  0.333  0.338  0.005  0.000
  0.283  0.060  0.514  0.142  0.000
  0.060  0.283  0.142  0.514  0.000
    occupations:
  0.973  0.000  0.000  0.000  0.000
  0.000  0.690  0.000 -0.072  0.191
  0.000  0.000  0.690  0.191  0.072
  0.000 -0.072  0.191  0.825  0.000
  0.000  0.191  0.072  0.000  0.825
atom    2   Tr[ns(na)] =   8.10768
    eigenvalues: 
  0.555  0.555  0.981  0.981  0.982
    eigenvectors:
  0.000  0.000  0.000  0.000  1.000
  0.638  0.019  0.221  0.122  0.000
  0.019  0.638  0.122  0.221  0.000
  0.014  0.329  0.472  0.185  0.000
  0.329  0.014  0.185  0.472  0.000
    occupations:
  0.982  0.000  0.000  0.000  0.000
  0.000  0.701  0.000  0.073  0.188
  0.000  0.000  0.701  0.188 -0.073
  0.000  0.073  0.188  0.835  0.000
  0.000  0.188 -0.073  0.000  0.835
atom    3   Tr[ns(na)] =   3.75424
    eigenvalues: 
  0.351  0.351  0.378  0.398  0.398
    eigenvectors:
  0.000  0.000  1.000  0.000  0.000
  0.779  0.140  0.000  0.012  0.069
  0.140  0.779  0.000  0.069  0.012
  0.013  0.068  0.000  0.779  0.141
  0.068  0.013  0.000  0.141  0.779
    occupations:
  0.378  0.000  0.000  0.000  0.000
  0.000  0.355  0.000  0.000  0.013
  0.000  0.000  0.355  0.013  0.000
  0.000  0.000  0.013  0.394  0.000
  0.000  0.013  0.000  0.000  0.394
atom    4   Tr[ns(na)] =   3.79780
    eigenvalues: 
  0.356  0.356  0.382  0.402  0.402
    eigenvectors:
  0.000  0.000  1.000  0.000  0.000
  0.783  0.139  0.000  0.012  0.067
  0.139  0.783  0.000  0.067  0.012
  0.012  0.066  0.000  0.782  0.140
  0.066  0.012  0.000  0.140  0.782
    occupations:
  0.382  0.000  0.000  0.000  0.000
  0.000  0.360  0.000  0.000  0.012
  0.000  0.000  0.360  0.012  0.000
  0.000  0.000  0.012  0.399  0.000
  0.000  0.012  0.000  0.000  0.399
atom    5   Tr[ns(na)] =   5.43168
    eigenvalues: 
  0.841  0.930  0.945
    eigenvectors:
  0.338  0.000  0.661
  0.490  0.258  0.252
  0.172  0.742  0.087
    occupations:
  0.910 -0.042  0.025
 -0.042  0.890  0.023
  0.025  0.023  0.916
atom    6   Tr[ns(na)] =   5.43168
    eigenvalues: 
  0.841  0.930  0.945
    eigenvectors:
  0.338  0.000  0.661
  0.502  0.242  0.256
  0.159  0.758  0.083
    occupations:
  0.910  0.043  0.024
  0.043  0.889 -0.023
  0.024 -0.023  0.917
atom    7   Tr[ns(na)] =   5.43168
    eigenvalues: 
  0.841  0.930  0.945
    eigenvectors:
  0.338  0.000  0.661
  0.000  1.000  0.000
  0.661  0.000  0.338
    occupations:
  0.910 -0.001 -0.049
 -0.001  0.930 -0.001
 -0.049 -0.001  0.876
atom    8   Tr[ns(na)] =   5.43164
    eigenvalues: 
  0.841  0.929  0.945
    eigenvectors:
  0.339  0.000  0.661
  0.490  0.258  0.252
  0.172  0.742  0.087
    occupations:
  0.910 -0.042  0.025
 -0.042  0.890  0.023
  0.025  0.023  0.916
atom    9   Tr[ns(na)] =   5.43164
    eigenvalues: 
  0.841  0.929  0.945
    eigenvectors:
  0.339  0.000  0.661
  0.502  0.242  0.256
  0.159  0.758  0.083
    occupations:
  0.910  0.043  0.024
  0.043  0.889 -0.023
  0.024 -0.023  0.917
atom   10   Tr[ns(na)] =   5.43164
    eigenvalues: 
  0.841  0.929  0.945
    eigenvectors:
  0.339  0.000  0.661
  0.000  1.000  0.000
  0.661  0.000  0.338
    occupations:
  0.910 -0.001 -0.049
 -0.001  0.929 -0.001
 -0.049 -0.001  0.877
N of occupied +U levels =  56.2571071
 --- exit write_ns ---
 --- in v_hubbard ---
Hubbard energy    0.2070
 -------

     total cpu time spent up to now is       92.5 secs

     total energy              =    -538.11395167 Ry
     Harris-Foulkes estimate   =    -538.11450888 Ry
     estimated scf accuracy    <       0.00704632 Ry

     iteration #  5     ecut=    30.00 Ry     beta=0.20
     Davidson diagonalization with overlap
     ethr =  5.22E-06,  avg # of iterations =  1.0
 --- enter write_ns ---
 LDA+U parameters:
U( 1)     =  2.00000000
alpha( 1) =  0.00000000
U( 2)     =  0.00000000
alpha( 2) =  0.15000000
U( 3)     =  0.00000000
alpha( 3) =  0.00000000
U( 4)     =  0.00000000
alpha( 4) =  0.00000000
atom    1   Tr[ns(na)] =   8.05693
    eigenvalues: 
  0.547  0.547  0.978  0.978  0.978
    eigenvectors:
  0.000  0.000  0.000  0.000  1.000
  0.336  0.322  0.004  0.338  0.000
  0.322  0.336  0.338  0.004  0.000
  0.283  0.059  0.517  0.141  0.000
  0.059  0.283  0.141  0.517  0.000
    occupations:
  0.978  0.000  0.000  0.000  0.000
  0.000  0.695  0.000 -0.074  0.190
  0.000  0.000  0.695  0.190  0.074
  0.000 -0.074  0.190  0.830  0.000
  0.000  0.190  0.074  0.000  0.830
atom    2   Tr[ns(na)] =   8.05509
    eigenvalues: 
  0.546  0.546  0.979  0.979  0.979
    eigenvectors:
  0.000  0.000  0.000  0.000  1.000
  0.637  0.021  0.218  0.124  0.000
  0.021  0.637  0.124  0.218  0.000
  0.012  0.330  0.473  0.185  0.000
  0.330  0.012  0.185  0.473  0.000
    occupations:
  0.979  0.000  0.000  0.000  0.000
  0.000  0.694  0.000  0.073  0.192
  0.000  0.000  0.694  0.192 -0.073
  0.000  0.073  0.192  0.830  0.000
  0.000  0.192 -0.073  0.000  0.830
atom    3   Tr[ns(na)] =   3.75957
    eigenvalues: 
  0.352  0.352  0.379  0.399  0.399
    eigenvectors:
  0.000  0.000  1.000  0.000  0.000
  0.780  0.140  0.000  0.012  0.068
  0.140  0.780  0.000  0.068  0.012
  0.013  0.067  0.000  0.779  0.141
  0.067  0.013  0.000  0.141  0.779
    occupations:
  0.379  0.000  0.000  0.000  0.000
  0.000  0.356  0.000  0.000  0.013
  0.000  0.000  0.356  0.013  0.000
  0.000  0.000  0.013  0.395  0.000
  0.000  0.013  0.000  0.000  0.395
atom    4   Tr[ns(na)] =   3.79939
    eigenvalues: 
  0.356  0.356  0.383  0.402  0.402
    eigenvectors:
  0.000  0.000  1.000  0.000  0.000
  0.784  0.139  0.000  0.011  0.066
  0.139  0.784  0.000  0.066  0.011
  0.012  0.066  0.000  0.782  0.140
  0.066  0.012  0.000  0.140  0.782
    occupations:
  0.383  0.000  0.000  0.000  0.000
  0.000  0.360  0.000  0.000  0.012
  0.000  0.000  0.360  0.012  0.000
  0.000  0.000  0.012  0.399  0.000
  0.000  0.012  0.000  0.000  0.399
atom    5   Tr[ns(na)] =   5.43123
    eigenvalues: 
  0.841  0.930  0.945
    eigenvectors:
  0.338  0.000  0.662
  0.496  0.250  0.253
  0.165  0.750  0.085
    occupations:
  0.910 -0.042  0.024
 -0.042  0.890  0.023
  0.024  0.023  0.916
atom    6   Tr[ns(na)] =   5.43123
    eigenvalues: 
  0.841  0.930  0.945
    eigenvectors:
  0.338  0.000  0.662
  0.496  0.250  0.254
  0.166  0.750  0.084
    occupations:
  0.910  0.042  0.024
  0.042  0.890 -0.023
  0.024 -0.023  0.916
atom    7   Tr[ns(na)] =   5.43123
    eigenvalues: 
  0.841  0.930  0.945
    eigenvectors:
  0.338  0.000  0.662
  0.000  1.000  0.000
  0.662  0.000  0.338
    occupations:
  0.910  0.000 -0.049
  0.000  0.930  0.000
 -0.049  0.000  0.876
atom    8   Tr[ns(na)] =   5.43117
    eigenvalues: 
  0.841  0.929  0.945
    eigenvectors:
  0.338  0.000  0.662
  0.496  0.250  0.253
  0.165  0.750  0.085
    occupations:
  0.910 -0.043  0.025
 -0.043  0.890  0.023
  0.025  0.023  0.916
atom    9   Tr[ns(na)] =   5.43117
    eigenvalues: 
  0.841  0.929  0.945
    eigenvectors:
  0.338  0.000  0.662
  0.496  0.250  0.254
  0.166  0.750  0.084
    occupations:
  0.910  0.043  0.025
  0.043  0.890 -0.023
  0.025 -0.023  0.916
atom   10   Tr[ns(na)] =   5.43117
    eigenvalues: 
  0.841  0.929  0.945
    eigenvectors:
  0.338  0.000  0.662
  0.000  1.000  0.000
  0.662  0.000  0.338
    occupations:
  0.910  0.000 -0.049
  0.000  0.929  0.000
 -0.049  0.000  0.876
N of occupied +U levels =  56.2582073
 --- exit write_ns ---
 --- in v_hubbard ---
Hubbard energy    0.2052
 -------

     total cpu time spent up to now is      106.7 secs

     total energy              =    -538.11430582 Ry
     Harris-Foulkes estimate   =    -538.11433351 Ry
     estimated scf accuracy    <       0.00010645 Ry

     iteration #  6     ecut=    30.00 Ry     beta=0.20
     Davidson diagonalization with overlap
     ethr =  1.40E-07,  avg # of iterations =  2.0
 --- enter write_ns ---
 LDA+U parameters:
U( 1)     =  2.00000000
alpha( 1) =  0.00000000
U( 2)     =  0.00000000
alpha( 2) =  0.15000000
U( 3)     =  0.00000000
alpha( 3) =  0.00000000
U( 4)     =  0.00000000
alpha( 4) =  0.00000000
atom    1   Tr[ns(na)] =   8.05077
    eigenvalues: 
  0.546  0.546  0.978  0.978  0.979
    eigenvectors:
  0.000  0.000  0.000  0.000  1.000
  0.335  0.322  0.004  0.338  0.000
  0.322  0.335  0.338  0.004  0.000
  0.284  0.059  0.516  0.141  0.000
  0.059  0.284  0.141  0.516  0.000
    occupations:
  0.979  0.000  0.000  0.000  0.000
  0.000  0.694  0.000 -0.074  0.191
  0.000  0.000  0.694  0.191  0.074
  0.000 -0.074  0.191  0.830  0.000
  0.000  0.191  0.074  0.000  0.830
atom    2   Tr[ns(na)] =   8.04749
    eigenvalues: 
  0.544  0.544  0.979  0.979  0.980
    eigenvectors:
  0.000  0.000  0.000  0.000  1.000
  0.636  0.021  0.218  0.124  0.000
  0.021  0.636  0.124  0.218  0.000
  0.012  0.331  0.472  0.185  0.000
  0.331  0.012  0.185  0.472  0.000
    occupations:
  0.980  0.000  0.000  0.000  0.000
  0.000  0.693  0.000  0.074  0.193
  0.000  0.000  0.693  0.193 -0.074
  0.000  0.074  0.193  0.830  0.000
  0.000  0.193 -0.074  0.000  0.830
atom    3   Tr[ns(na)] =   3.75383
    eigenvalues: 
  0.351  0.351  0.378  0.398  0.398
    eigenvectors:
  0.000  0.000  1.000  0.000  0.000
  0.779  0.140  0.000  0.012  0.069
  0.140  0.779  0.000  0.069  0.012
  0.013  0.068  0.000  0.779  0.141
  0.068  0.013  0.000  0.141  0.779
    occupations:
  0.378  0.000  0.000  0.000  0.000
  0.000  0.355  0.000  0.000  0.013
  0.000  0.000  0.355  0.013  0.000
  0.000  0.000  0.013  0.394  0.000
  0.000  0.013  0.000  0.000  0.394
atom    4   Tr[ns(na)] =   3.79500
    eigenvalues: 
  0.356  0.356  0.382  0.402  0.402
    eigenvectors:
  0.000  0.000  1.000  0.000  0.000
  0.782  0.139  0.000  0.011  0.067
  0.139  0.782  0.000  0.067  0.011
  0.012  0.066  0.000  0.781  0.140
  0.066  0.012  0.000  0.140  0.781
    occupations:
  0.382  0.000  0.000  0.000  0.000
  0.000  0.359  0.000  0.000  0.012
  0.000  0.000  0.359  0.012  0.000
  0.000  0.000  0.012  0.398  0.000
  0.000  0.012  0.000  0.000  0.398
atom    5   Tr[ns(na)] =   5.43446
    eigenvalues: 
  0.842  0.930  0.945
    eigenvectors:
  0.338  0.000  0.662
  0.497  0.250  0.253
  0.165  0.750  0.085
    occupations:
  0.910 -0.042  0.024
 -0.042  0.890  0.023
  0.024  0.023  0.917
atom    6   Tr[ns(na)] =   5.43446
    eigenvalues: 
  0.842  0.930  0.945
    eigenvectors:
  0.338  0.000  0.662
  0.496  0.250  0.254
  0.166  0.750  0.084
    occupations:
  0.910  0.042  0.024
  0.042  0.890 -0.023
  0.024 -0.023  0.917
atom    7   Tr[ns(na)] =   5.43446
    eigenvalues: 
  0.842  0.930  0.945
    eigenvectors:
  0.338  0.000  0.662
  0.000  1.000  0.000
  0.662  0.000  0.338
    occupations:
  0.910  0.000 -0.049
  0.000  0.930  0.000
 -0.049  0.000  0.877
atom    8   Tr[ns(na)] =   5.43444
    eigenvalues: 
  0.842  0.930  0.946
    eigenvectors:
  0.338  0.000  0.662
  0.497  0.250  0.253
  0.165  0.750  0.085
    occupations:
  0.910 -0.042  0.024
 -0.042  0.890  0.023
  0.024  0.023  0.917
atom    9   Tr[ns(na)] =   5.43444
    eigenvalues: 
  0.842  0.930  0.946
    eigenvectors:
  0.338  0.000  0.662
  0.496  0.250  0.254
  0.166  0.750  0.084
    occupations:
  0.910  0.042  0.024
  0.042  0.890 -0.023
  0.024 -0.023  0.916
atom   10   Tr[ns(na)] =   5.43444
    eigenvalues: 
  0.842  0.930  0.946
    eigenvectors:
  0.338  0.000  0.662
  0.000  1.000  0.000
  0.662  0.000  0.338
    occupations:
  0.910  0.000 -0.049
  0.000  0.930  0.000
 -0.049  0.000  0.877
N of occupied +U levels =  56.2537940
 --- exit write_ns ---
 --- in v_hubbard ---
Hubbard energy    0.2055
 -------

     total cpu time spent up to now is      122.3 secs

     total energy              =    -538.11437866 Ry
     Harris-Foulkes estimate   =    -538.11434101 Ry
     estimated scf accuracy    <       0.00006236 Ry

     iteration #  7     ecut=    30.00 Ry     beta=0.20
     Davidson diagonalization with overlap
     ethr =  8.20E-08,  avg # of iterations =  1.0
 --- enter write_ns ---
 LDA+U parameters:
U( 1)     =  2.00000000
alpha( 1) =  0.00000000
U( 2)     =  0.00000000
alpha( 2) =  0.15000000
U( 3)     =  0.00000000
alpha( 3) =  0.00000000
U( 4)     =  0.00000000
alpha( 4) =  0.00000000
atom    1   Tr[ns(na)] =   8.05370
    eigenvalues: 
  0.546  0.546  0.978  0.978  0.979
    eigenvectors:
  0.000  0.000  0.000  0.000  1.000
  0.335  0.322  0.004  0.338  0.000
  0.322  0.335  0.338  0.004  0.000
  0.284  0.059  0.516  0.141  0.000
  0.059  0.284  0.141  0.516  0.000
    occupations:
  0.979  0.000  0.000  0.000  0.000
  0.000  0.694  0.000 -0.074  0.191
  0.000  0.000  0.694  0.191  0.074
  0.000 -0.074  0.191  0.830  0.000
  0.000  0.191  0.074  0.000  0.830
atom    2   Tr[ns(na)] =   8.05197
    eigenvalues: 
  0.545  0.545  0.979  0.979  0.980
    eigenvectors:
  0.000  0.000  0.000  0.000  1.000
  0.637  0.021  0.219  0.124  0.000
  0.021  0.637  0.124  0.219  0.000
  0.012  0.331  0.472  0.185  0.000
  0.331  0.012  0.185  0.472  0.000
    occupations:
  0.980  0.000  0.000  0.000  0.000
  0.000  0.693  0.000  0.074  0.192
  0.000  0.000  0.693  0.192 -0.074
  0.000  0.074  0.192  0.830  0.000
  0.000  0.192 -0.074  0.000  0.830
atom    3   Tr[ns(na)] =   3.75407
    eigenvalues: 
  0.351  0.351  0.378  0.398  0.398
    eigenvectors:
  0.000  0.000  1.000  0.000  0.000
  0.779  0.140  0.000  0.012  0.069
  0.140  0.779  0.000  0.069  0.012
  0.013  0.068  0.000  0.778  0.141
  0.068  0.013  0.000  0.141  0.778
    occupations:
  0.378  0.000  0.000  0.000  0.000
  0.000  0.355  0.000  0.000  0.013
  0.000  0.000  0.355  0.013  0.000
  0.000  0.000  0.013  0.394  0.000
  0.000  0.013  0.000  0.000  0.394
atom    4   Tr[ns(na)] =   3.79553
    eigenvalues: 
  0.356  0.356  0.382  0.402  0.402
    eigenvectors:
  0.000  0.000  1.000  0.000  0.000
  0.782  0.139  0.000  0.011  0.067
  0.139  0.782  0.000  0.067  0.011
  0.012  0.066  0.000  0.781  0.140
  0.066  0.012  0.000  0.140  0.781
    occupations:
  0.382  0.000  0.000  0.000  0.000
  0.000  0.359  0.000  0.000  0.012
  0.000  0.000  0.359  0.012  0.000
  0.000  0.000  0.012  0.398  0.000
  0.000  0.012  0.000  0.000  0.398
atom    5   Tr[ns(na)] =   5.43324
    eigenvalues: 
  0.842  0.930  0.945
    eigenvectors:
  0.338  0.000  0.662
  0.496  0.250  0.253
  0.165  0.750  0.085
    occupations:
  0.910 -0.042  0.024
 -0.042  0.890  0.023
  0.024  0.023  0.917
atom    6   Tr[ns(na)] =   5.43324
    eigenvalues: 
  0.842  0.930  0.945
    eigenvectors:
  0.338  0.000  0.662
  0.496  0.250  0.254
  0.166  0.750  0.084
    occupations:
  0.910  0.042  0.024
  0.042  0.890 -0.023
  0.024 -0.023  0.917
atom    7   Tr[ns(na)] =   5.43324
    eigenvalues: 
  0.842  0.930  0.945
    eigenvectors:
  0.338  0.000  0.662
  0.000  1.000  0.000
  0.662  0.000  0.338
    occupations:
  0.910  0.000 -0.049
  0.000  0.930  0.000
 -0.049  0.000  0.877
atom    8   Tr[ns(na)] =   5.43320
    eigenvalues: 
  0.842  0.930  0.945
    eigenvectors:
  0.338  0.000  0.662
  0.496  0.250  0.253
  0.165  0.750  0.085
    occupations:
  0.910 -0.043  0.025
 -0.043  0.890  0.023
  0.025  0.023  0.916
atom    9   Tr[ns(na)] =   5.43320
    eigenvalues: 
  0.842  0.930  0.945
    eigenvectors:
  0.338  0.000  0.662
  0.496  0.250  0.254
  0.166  0.750  0.084
    occupations:
  0.910  0.043  0.025
  0.043  0.890 -0.023
  0.025 -0.023  0.916
atom   10   Tr[ns(na)] =   5.43320
    eigenvalues: 
  0.842  0.930  0.945
    eigenvectors:
  0.338  0.000  0.662
  0.000  1.000  0.000
  0.662  0.000  0.338
    occupations:
  0.910  0.000 -0.049
  0.000  0.930  0.000
 -0.049  0.000  0.877
N of occupied +U levels =  56.2545918
 --- exit write_ns ---
 --- in v_hubbard ---
Hubbard energy    0.2056
 -------

     total cpu time spent up to now is      136.5 secs

     total energy              =    -538.11440909 Ry
     Harris-Foulkes estimate   =    -538.11438297 Ry
     estimated scf accuracy    <       0.00000561 Ry

     iteration #  8     ecut=    30.00 Ry     beta=0.20
     Davidson diagonalization with overlap
     ethr =  7.39E-09,  avg # of iterations =  2.1
 --- enter write_ns ---
 LDA+U parameters:
U( 1)     =  2.00000000
alpha( 1) =  0.00000000
U( 2)     =  0.00000000
alpha( 2) =  0.15000000
U( 3)     =  0.00000000
alpha( 3) =  0.00000000
U( 4)     =  0.00000000
alpha( 4) =  0.00000000
atom    1   Tr[ns(na)] =   8.05428
    eigenvalues: 
  0.547  0.547  0.978  0.978  0.979
    eigenvectors:
  0.000  0.000  0.000  0.000  1.000
  0.335  0.322  0.004  0.339  0.000
  0.322  0.335  0.339  0.004  0.000
  0.284  0.059  0.516  0.141  0.000
  0.059  0.284  0.141  0.516  0.000
    occupations:
  0.979  0.000  0.000  0.000  0.000
  0.000  0.694  0.000 -0.074  0.191
  0.000  0.000  0.694  0.191  0.074
  0.000 -0.074  0.191  0.830  0.000
  0.000  0.191  0.074  0.000  0.830
atom    2   Tr[ns(na)] =   8.05306
    eigenvalues: 
  0.545  0.545  0.979  0.979  0.980
    eigenvectors:
  0.000  0.000  0.000  0.000  1.000
  0.636  0.021  0.219  0.124  0.000
  0.021  0.636  0.124  0.219  0.000
  0.012  0.331  0.472  0.185  0.000
  0.331  0.012  0.185  0.472  0.000
    occupations:
  0.980  0.000  0.000  0.000  0.000
  0.000  0.694  0.000  0.074  0.192
  0.000  0.000  0.694  0.192 -0.074
  0.000  0.074  0.192  0.830  0.000
  0.000  0.192 -0.074  0.000  0.830
atom    3   Tr[ns(na)] =   3.75440
    eigenvalues: 
  0.351  0.351  0.378  0.398  0.398
    eigenvectors:
  0.000  0.000  1.000  0.000  0.000
  0.779  0.140  0.000  0.012  0.069
  0.140  0.779  0.000  0.069  0.012
  0.013  0.068  0.000  0.779  0.141
  0.068  0.013  0.000  0.141  0.779
    occupations:
  0.378  0.000  0.000  0.000  0.000
  0.000  0.355  0.000  0.000  0.013
  0.000  0.000  0.355  0.013  0.000
  0.000  0.000  0.013  0.394  0.000
  0.000  0.013  0.000  0.000  0.394
atom    4   Tr[ns(na)] =   3.79691
    eigenvalues: 
  0.356  0.356  0.382  0.402  0.402
    eigenvectors:
  0.000  0.000  1.000  0.000  0.000
  0.783  0.139  0.000  0.011  0.067
  0.139  0.783  0.000  0.067  0.011
  0.012  0.066  0.000  0.781  0.140
  0.066  0.012  0.000  0.140  0.781
    occupations:
  0.382  0.000  0.000  0.000  0.000
  0.000  0.360  0.000  0.000  0.012
  0.000  0.000  0.360  0.012  0.000
  0.000  0.000  0.012  0.399  0.000
  0.000  0.012  0.000  0.000  0.399
atom    5   Tr[ns(na)] =   5.43277
    eigenvalues: 
  0.842  0.930  0.945
    eigenvectors:
  0.338  0.000  0.662
  0.496  0.250  0.253
  0.165  0.750  0.085
    occupations:
  0.910 -0.042  0.024
 -0.042  0.890  0.023
  0.024  0.023  0.917
atom    6   Tr[ns(na)] =   5.43277
    eigenvalues: 
  0.842  0.930  0.945
    eigenvectors:
  0.338  0.000  0.662
  0.496  0.250  0.254
  0.166  0.750  0.084
    occupations:
  0.910  0.042  0.024
  0.042  0.890 -0.023
  0.024 -0.023  0.917
atom    7   Tr[ns(na)] =   5.43277
    eigenvalues: 
  0.842  0.930  0.945
    eigenvectors:
  0.338  0.000  0.662
  0.000  1.000  0.000
  0.662  0.000  0.338
    occupations:
  0.910  0.000 -0.049
  0.000  0.930  0.000
 -0.049  0.000  0.877
atom    8   Tr[ns(na)] =   5.43272
    eigenvalues: 
  0.842  0.929  0.945
    eigenvectors:
  0.338  0.000  0.662
  0.496  0.250  0.253
  0.165  0.750  0.085
    occupations:
  0.910 -0.043  0.025
 -0.043  0.890  0.023
  0.025  0.023  0.916
atom    9   Tr[ns(na)] =   5.43272
    eigenvalues: 
  0.842  0.929  0.945
    eigenvectors:
  0.338  0.000  0.662
  0.496  0.250  0.254
  0.166  0.750  0.084
    occupations:
  0.910  0.043  0.025
  0.043  0.890 -0.023
  0.025 -0.023  0.916
atom   10   Tr[ns(na)] =   5.43272
    eigenvalues: 
  0.842  0.929  0.945
    eigenvectors:
  0.338  0.000  0.662
  0.000  1.000  0.000
  0.662  0.000  0.338
    occupations:
  0.910  0.000 -0.049
  0.000  0.929  0.000
 -0.049  0.000  0.877
N of occupied +U levels =  56.2551439
 --- exit write_ns ---
 --- in v_hubbard ---
Hubbard energy    0.2056
 -------

     total cpu time spent up to now is      152.7 secs

     total energy              =    -538.11442812 Ry
     Harris-Foulkes estimate   =    -538.11441025 Ry
     estimated scf accuracy    <       0.00000032 Ry

     iteration #  9     ecut=    30.00 Ry     beta=0.20
     Davidson diagonalization with overlap
     ethr =  4.21E-10,  avg # of iterations =  2.0
 --- enter write_ns ---
 LDA+U parameters:
U( 1)     =  2.00000000
alpha( 1) =  0.00000000
U( 2)     =  0.00000000
alpha( 2) =  0.15000000
U( 3)     =  0.00000000
alpha( 3) =  0.00000000
U( 4)     =  0.00000000
alpha( 4) =  0.00000000
atom    1   Tr[ns(na)] =   8.05428
    eigenvalues: 
  0.547  0.547  0.978  0.978  0.979
    eigenvectors:
  0.000  0.000  0.000  0.000  1.000
  0.335  0.322  0.004  0.339  0.000
  0.322  0.335  0.339  0.004  0.000
  0.284  0.059  0.516  0.141  0.000
  0.059  0.284  0.141  0.516  0.000
    occupations:
  0.979  0.000  0.000  0.000  0.000
  0.000  0.694  0.000 -0.074  0.191
  0.000  0.000  0.694  0.191  0.074
  0.000 -0.074  0.191  0.830  0.000
  0.000  0.191  0.074  0.000  0.830
atom    2   Tr[ns(na)] =   8.05302
    eigenvalues: 
  0.545  0.545  0.979  0.979  0.980
    eigenvectors:
  0.000  0.000  0.000  0.000  1.000
  0.636  0.021  0.219  0.124  0.000
  0.021  0.636  0.124  0.219  0.000
  0.012  0.331  0.472  0.185  0.000
  0.331  0.012  0.185  0.472  0.000
    occupations:
  0.980  0.000  0.000  0.000  0.000
  0.000  0.694  0.000  0.074  0.192
  0.000  0.000  0.694  0.192 -0.074
  0.000  0.074  0.192  0.830  0.000
  0.000  0.192 -0.074  0.000  0.830
atom    3   Tr[ns(na)] =   3.75426
    eigenvalues: 
  0.351  0.351  0.378  0.398  0.398
    eigenvectors:
  0.000  0.000  1.000  0.000  0.000
  0.779  0.140  0.000  0.012  0.069
  0.140  0.779  0.000  0.069  0.012
  0.013  0.068  0.000  0.778  0.141
  0.068  0.013  0.000  0.141  0.778
    occupations:
  0.378  0.000  0.000  0.000  0.000
  0.000  0.355  0.000  0.000  0.013
  0.000  0.000  0.355  0.013  0.000
  0.000  0.000  0.013  0.394  0.000
  0.000  0.013  0.000  0.000  0.394
atom    4   Tr[ns(na)] =   3.79673
    eigenvalues: 
  0.356  0.356  0.382  0.402  0.402
    eigenvectors:
  0.000  0.000  1.000  0.000  0.000
  0.782  0.139  0.000  0.011  0.067
  0.139  0.782  0.000  0.067  0.011
  0.012  0.066  0.000  0.781  0.140
  0.066  0.012  0.000  0.140  0.781
    occupations:
  0.382  0.000  0.000  0.000  0.000
  0.000  0.360  0.000  0.000  0.012
  0.000  0.000  0.360  0.012  0.000
  0.000  0.000  0.012  0.399  0.000
  0.000  0.012  0.000  0.000  0.399
atom    5   Tr[ns(na)] =   5.43281
    eigenvalues: 
  0.842  0.930  0.945
    eigenvectors:
  0.338  0.000  0.662
  0.496  0.250  0.253
  0.165  0.750  0.085
    occupations:
  0.910 -0.042  0.024
 -0.042  0.890  0.023
  0.024  0.023  0.917
atom    6   Tr[ns(na)] =   5.43281
    eigenvalues: 
  0.842  0.930  0.945
    eigenvectors:
  0.338  0.000  0.662
  0.496  0.250  0.254
  0.166  0.750  0.084
    occupations:
  0.910  0.042  0.024
  0.042  0.890 -0.023
  0.024 -0.023  0.917
atom    7   Tr[ns(na)] =   5.43281
    eigenvalues: 
  0.842  0.930  0.945
    eigenvectors:
  0.338  0.000  0.662
  0.000  1.000  0.000
  0.662  0.000  0.338
    occupations:
  0.910  0.000 -0.049
  0.000  0.930  0.000
 -0.049  0.000  0.877
atom    8   Tr[ns(na)] =   5.43277
    eigenvalues: 
  0.842  0.929  0.945
    eigenvectors:
  0.338  0.000  0.662
  0.496  0.250  0.253
  0.165  0.750  0.085
    occupations:
  0.910 -0.043  0.025
 -0.043  0.890  0.023
  0.025  0.023  0.916
atom    9   Tr[ns(na)] =   5.43277
    eigenvalues: 
  0.842  0.929  0.945
    eigenvectors:
  0.338  0.000  0.662
  0.496  0.250  0.254
  0.166  0.750  0.084
    occupations:
  0.910  0.043  0.025
  0.043  0.890 -0.023
  0.025 -0.023  0.916
atom   10   Tr[ns(na)] =   5.43277
    eigenvalues: 
  0.842  0.929  0.945
    eigenvectors:
  0.338  0.000  0.662
  0.000  1.000  0.000
  0.662  0.000  0.338
    occupations:
  0.910  0.000 -0.049
  0.000  0.929  0.000
 -0.049  0.000  0.877
N of occupied +U levels =  56.2550258
 --- exit write_ns ---
 --- in v_hubbard ---
Hubbard energy    0.2057
 -------

     total cpu time spent up to now is      167.4 secs

     total energy              =    -538.11443963 Ry
     Harris-Foulkes estimate   =    -538.11442815 Ry
     estimated scf accuracy    <       0.00000011 Ry

     iteration # 10     ecut=    30.00 Ry     beta=0.20
     Davidson diagonalization with overlap
     ethr =  1.46E-10,  avg # of iterations =  2.0
 --- enter write_ns ---
 LDA+U parameters:
U( 1)     =  2.00000000
alpha( 1) =  0.00000000
U( 2)     =  0.00000000
alpha( 2) =  0.15000000
U( 3)     =  0.00000000
alpha( 3) =  0.00000000
U( 4)     =  0.00000000
alpha( 4) =  0.00000000
atom    1   Tr[ns(na)] =   8.05423
    eigenvalues: 
  0.546  0.546  0.978  0.978  0.979
    eigenvectors:
  0.000  0.000  0.000  0.000  1.000
  0.335  0.322  0.004  0.339  0.000
  0.322  0.335  0.339  0.004  0.000
  0.284  0.059  0.516  0.141  0.000
  0.059  0.284  0.141  0.516  0.000
    occupations:
  0.979  0.000  0.000  0.000  0.000
  0.000  0.694  0.000 -0.074  0.191
  0.000  0.000  0.694  0.191  0.074
  0.000 -0.074  0.191  0.830  0.000
  0.000  0.191  0.074  0.000  0.830
atom    2   Tr[ns(na)] =   8.05285
    eigenvalues: 
  0.545  0.545  0.979  0.979  0.980
    eigenvectors:
  0.000  0.000  0.000  0.000  1.000
  0.636  0.021  0.219  0.124  0.000
  0.021  0.636  0.124  0.219  0.000
  0.012  0.331  0.472  0.185  0.000
  0.331  0.012  0.185  0.472  0.000
    occupations:
  0.980  0.000  0.000  0.000  0.000
  0.000  0.694  0.000  0.074  0.192
  0.000  0.000  0.694  0.192 -0.074
  0.000  0.074  0.192  0.830  0.000
  0.000  0.192 -0.074  0.000  0.830
atom    3   Tr[ns(na)] =   3.75421
    eigenvalues: 
  0.351  0.351  0.378  0.398  0.398
    eigenvectors:
  0.000  0.000  1.000  0.000  0.000
  0.779  0.140  0.000  0.012  0.069
  0.140  0.779  0.000  0.069  0.012
  0.013  0.068  0.000  0.779  0.141
  0.068  0.013  0.000  0.141  0.779
    occupations:
  0.378  0.000  0.000  0.000  0.000
  0.000  0.355  0.000  0.000  0.013
  0.000  0.000  0.355  0.013  0.000
  0.000  0.000  0.013  0.394  0.000
  0.000  0.013  0.000  0.000  0.394
atom    4   Tr[ns(na)] =   3.79649
    eigenvalues: 
  0.356  0.356  0.382  0.402  0.402
    eigenvectors:
  0.000  0.000  1.000  0.000  0.000
  0.782  0.139  0.000  0.011  0.067
  0.139  0.782  0.000  0.067  0.011
  0.012  0.066  0.000  0.781  0.140
  0.066  0.012  0.000  0.140  0.781
    occupations:
  0.382  0.000  0.000  0.000  0.000
  0.000  0.359  0.000  0.000  0.012
  0.000  0.000  0.359  0.012  0.000
  0.000  0.000  0.012  0.398  0.000
  0.000  0.012  0.000  0.000  0.398
atom    5   Tr[ns(na)] =   5.43287
    eigenvalues: 
  0.842  0.930  0.945
    eigenvectors:
  0.338  0.000  0.662
  0.496  0.250  0.253
  0.165  0.750  0.085
    occupations:
  0.910 -0.042  0.024
 -0.042  0.890  0.023
  0.024  0.023  0.917
atom    6   Tr[ns(na)] =   5.43287
    eigenvalues: 
  0.842  0.930  0.945
    eigenvectors:
  0.338  0.000  0.662
  0.496  0.250  0.254
  0.166  0.750  0.084
    occupations:
  0.910  0.042  0.024
  0.042  0.890 -0.023
  0.024 -0.023  0.917
atom    7   Tr[ns(na)] =   5.43287
    eigenvalues: 
  0.842  0.930  0.945
    eigenvectors:
  0.338  0.000  0.662
  0.000  1.000  0.000
  0.662  0.000  0.338
    occupations:
  0.910  0.000 -0.049
  0.000  0.930  0.000
 -0.049  0.000  0.877
atom    8   Tr[ns(na)] =   5.43284
    eigenvalues: 
  0.842  0.929  0.945
    eigenvectors:
  0.338  0.000  0.662
  0.496  0.250  0.253
  0.165  0.750  0.085
    occupations:
  0.910 -0.043  0.025
 -0.043  0.890  0.023
  0.025  0.023  0.916
atom    9   Tr[ns(na)] =   5.43284
    eigenvalues: 
  0.842  0.929  0.945
    eigenvectors:
  0.338  0.000  0.662
  0.496  0.250  0.254
  0.166  0.750  0.084
    occupations:
  0.910  0.043  0.025
  0.043  0.890 -0.023
  0.025 -0.023  0.916
atom   10   Tr[ns(na)] =   5.43284
    eigenvalues: 
  0.842  0.929  0.945
    eigenvectors:
  0.338  0.000  0.662
  0.000  1.000  0.000
  0.662  0.000  0.338
    occupations:
  0.910  0.000 -0.049
  0.000  0.929  0.000
 -0.049  0.000  0.877
N of occupied +U levels =  56.2549042
 --- exit write_ns ---
 --- in v_hubbard ---
Hubbard energy    0.2057
 -------

     total cpu time spent up to now is      184.4 secs

     total energy              =    -538.11444710 Ry
     Harris-Foulkes estimate   =    -538.11443965 Ry
     estimated scf accuracy    <       0.00000002 Ry

     iteration # 11     ecut=    30.00 Ry     beta=0.20
     Davidson diagonalization with overlap
     ethr =  3.19E-11,  avg # of iterations =  2.0
 --- enter write_ns ---
 LDA+U parameters:
U( 1)     =  2.00000000
alpha( 1) =  0.00000000
U( 2)     =  0.00000000
alpha( 2) =  0.15000000
U( 3)     =  0.00000000
alpha( 3) =  0.00000000
U( 4)     =  0.00000000
alpha( 4) =  0.00000000
atom    1   Tr[ns(na)] =   8.05426
    eigenvalues: 
  0.547  0.547  0.978  0.978  0.979
    eigenvectors:
  0.000  0.000  0.000  0.000  1.000
  0.334  0.323  0.004  0.339  0.000
  0.323  0.334  0.339  0.004  0.000
  0.284  0.059  0.516  0.141  0.000
  0.059  0.284  0.141  0.516  0.000
    occupations:
  0.979  0.000  0.000  0.000  0.000
  0.000  0.694  0.000 -0.074  0.191
  0.000  0.000  0.694  0.191  0.074
  0.000 -0.074  0.191  0.830  0.000
  0.000  0.191  0.074  0.000  0.830
atom    2   Tr[ns(na)] =   8.05294
    eigenvalues: 
  0.545  0.545  0.979  0.979  0.980
    eigenvectors:
  0.000  0.000  0.000  0.000  1.000
  0.636  0.021  0.219  0.124  0.000
  0.021  0.636  0.124  0.219  0.000
  0.012  0.331  0.472  0.185  0.000
  0.331  0.012  0.185  0.472  0.000
    occupations:
  0.980  0.000  0.000  0.000  0.000
  0.000  0.694  0.000  0.074  0.192
  0.000  0.000  0.694  0.192 -0.074
  0.000  0.074  0.192  0.830  0.000
  0.000  0.192 -0.074  0.000  0.830
atom    3   Tr[ns(na)] =   3.75423
    eigenvalues: 
  0.351  0.351  0.378  0.398  0.398
    eigenvectors:
  0.000  0.000  1.000  0.000  0.000
  0.779  0.140  0.000  0.012  0.069
  0.140  0.779  0.000  0.069  0.012
  0.013  0.068  0.000  0.778  0.141
  0.068  0.013  0.000  0.141  0.778
    occupations:
  0.378  0.000  0.000  0.000  0.000
  0.000  0.355  0.000  0.000  0.013
  0.000  0.000  0.355  0.013  0.000
  0.000  0.000  0.013  0.394  0.000
  0.000  0.013  0.000  0.000  0.394
atom    4   Tr[ns(na)] =   3.79654
    eigenvalues: 
  0.356  0.356  0.382  0.402  0.402
    eigenvectors:
  0.000  0.000  1.000  0.000  0.000
  0.783  0.139  0.000  0.011  0.067
  0.139  0.783  0.000  0.067  0.011
  0.012  0.066  0.000  0.781  0.140
  0.066  0.012  0.000  0.140  0.781
    occupations:
  0.382  0.000  0.000  0.000  0.000
  0.000  0.359  0.000  0.000  0.012
  0.000  0.000  0.359  0.012  0.000
  0.000  0.000  0.012  0.398  0.000
  0.000  0.012  0.000  0.000  0.398
atom    5   Tr[ns(na)] =   5.43285
    eigenvalues: 
  0.842  0.930  0.945
    eigenvectors:
  0.338  0.000  0.662
  0.496  0.250  0.253
  0.165  0.750  0.085
    occupations:
  0.910 -0.042  0.024
 -0.042  0.890  0.023
  0.024  0.023  0.917
atom    6   Tr[ns(na)] =   5.43285
    eigenvalues: 
  0.842  0.930  0.945
    eigenvectors:
  0.338  0.000  0.662
  0.496  0.250  0.254
  0.166  0.750  0.084
    occupations:
  0.910  0.042  0.024
  0.042  0.890 -0.023
  0.024 -0.023  0.917
atom    7   Tr[ns(na)] =   5.43285
    eigenvalues: 
  0.842  0.930  0.945
    eigenvectors:
  0.338  0.000  0.662
  0.000  1.000  0.000
  0.662  0.000  0.338
    occupations:
  0.910  0.000 -0.049
  0.000  0.930  0.000
 -0.049  0.000  0.877
atom    8   Tr[ns(na)] =   5.43281
    eigenvalues: 
  0.842  0.929  0.945
    eigenvectors:
  0.338  0.000  0.662
  0.496  0.250  0.253
  0.165  0.750  0.085
    occupations:
  0.910 -0.043  0.025
 -0.043  0.890  0.023
  0.025  0.023  0.916
atom    9   Tr[ns(na)] =   5.43281
    eigenvalues: 
  0.842  0.929  0.945
    eigenvectors:
  0.338  0.000  0.662
  0.496  0.250  0.254
  0.166  0.750  0.084
    occupations:
  0.910  0.043  0.025
  0.043  0.890 -0.023
  0.025 -0.023  0.916
atom   10   Tr[ns(na)] =   5.43281
    eigenvalues: 
  0.842  0.929  0.945
    eigenvectors:
  0.338  0.000  0.662
  0.000  1.000  0.000
  0.662  0.000  0.338
    occupations:
  0.910  0.000 -0.049
  0.000  0.929  0.000
 -0.049  0.000  0.877
N of occupied +U levels =  56.2549377
 --- exit write_ns ---
 --- in v_hubbard ---
Hubbard energy    0.2057
 -------

     total cpu time spent up to now is      198.6 secs

     End of self-consistent calculation

          k = 0.0000 0.0000 0.0000 (  2175 PWs)   bands (ev):

   -19.8283 -19.6403  -6.5308  -5.8157  -5.8157  -5.7730  -5.7730  -5.4267
    -3.8131  -3.2788  -3.2309  -3.2309  -3.0325  -3.0325   5.2056   6.8842
     6.8842   7.4421   7.4421   7.4862   7.5347   7.5347   7.7279   9.3087
     9.5286   9.6349   9.6349   9.7161   9.7161  10.1333  10.1333  10.3741
    10.4785  10.4785  10.6927  11.3129  11.3129  11.7812  12.0783  12.0783
    14.7813  14.7813  15.4868  15.4868  16.2612  16.8453

     occupation numbers 
     0.0313   0.0313   0.0313   0.0313   0.0313   0.0313   0.0313   0.0313
     0.0313   0.0313   0.0313   0.0313   0.0313   0.0313   0.0313   0.0313
     0.0313   0.0313   0.0313   0.0313   0.0313   0.0313   0.0313   0.0313
     0.0312   0.0312   0.0312   0.0312   0.0312   0.0312   0.0312   0.0312
     0.0312   0.0312   0.0312   0.0306   0.0306   0.0205   0.0083   0.0083
     0.0000   0.0000   0.0000   0.0000   0.0000   0.0000

          k =-0.2471-0.1427 0.1027 (  2181 PWs)   bands (ev):

   -19.8046 -19.6665  -6.7085  -6.2498  -5.9167  -5.8169  -5.5733  -5.4384
    -3.6162  -3.4066  -2.9498  -2.9151  -2.8607  -2.7669   5.5718   6.8862
     6.9859   7.0014   7.0426   7.4237   7.4549   7.5400   7.6423   8.4584
     8.5075   9.0890   9.6553   9.7715   9.7973  10.0227  10.3655  10.3753
    10.5526  10.5547  10.6808  11.4684  11.5358  11.5748  12.3382  12.4067
    14.3261  14.3364  15.8698  16.1213  17.0233  17.3152

     occupation numbers 
     0.1875   0.1875   0.1875   0.1875   0.1875   0.1875   0.1875   0.1875
     0.1875   0.1875   0.1875   0.1875   0.1875   0.1875   0.1875   0.1875
     0.1875   0.1875   0.1875   0.1875   0.1875   0.1875   0.1875   0.1875
     0.1875   0.1875   0.1875   0.1875   0.1875   0.1875   0.1875   0.1875
     0.1875   0.1875   0.1875   0.1747   0.1678   0.1628   0.0119   0.0073
     0.0000   0.0000   0.0000   0.0000   0.0000   0.0000

          k = 0.4942 0.2853-0.2053 (  2202 PWs)   bands (ev):

   -19.7735 -19.7000  -6.7115  -6.6675  -5.9375  -5.9268  -5.4914  -5.4849
    -3.4146  -3.3804  -2.8103  -2.7922  -2.5455  -2.4927   6.0573   6.0814
     7.1647   7.1819   7.2331   7.2494   7.5085   7.5341   7.7139   7.7470
     7.9262   7.9553   9.4968   9.5015   9.8833   9.8904  10.2919  10.3016
    10.9420  10.9549  11.0677  11.0818  11.2915  11.3049  13.3069  13.3408
    13.3918  13.4258  16.8480  16.9091  17.1456  17.2052

     occupation numbers 
     0.0938   0.0938   0.0938   0.0938   0.0938   0.0938   0.0938   0.0938
     0.0938   0.0938   0.0938   0.0938   0.0938   0.0938   0.0938   0.0938
     0.0938   0.0938   0.0938   0.0938   0.0938   0.0938   0.0938   0.0938
     0.0938   0.0938   0.0938   0.0938   0.0937   0.0937   0.0937   0.0937
     0.0937   0.0937   0.0936   0.0935   0.0921   0.0919   0.0000   0.0000
     0.0000   0.0000   0.0000   0.0000   0.0000   0.0000

          k =-0.2471 0.1427 0.2053 (  2195 PWs)   bands (ev):

   -19.7987 -19.6690  -6.8378  -6.2096  -6.0365  -5.7766  -5.6194  -5.4312
    -3.4342  -3.2795  -3.1167  -2.9022  -2.8229  -2.5709   5.6046   6.7841
     6.8071   6.8820   7.2328   7.4693   7.5078   7.5351   7.5760   8.5534
     8.6109   8.8213   9.3008   9.6557   9.9501  10.0531  10.0552  10.1672
    10.2943  11.0016  11.1379  11.1545  11.4907  11.5680  11.9830  12.7490
    13.6531  14.7972  16.0469  16.2445  17.0909  17.5732

     occupation numbers 
     0.1875   0.1875   0.1875   0.1875   0.1875   0.1875   0.1875   0.1875
     0.1875   0.1875   0.1875   0.1875   0.1875   0.1875   0.1875   0.1875
     0.1875   0.1875   0.1875   0.1875   0.1875   0.1875   0.1875   0.1875
     0.1875   0.1875   0.1875   0.1875   0.1875   0.1875   0.1875   0.1875
     0.1875   0.1873   0.1867   0.1866   0.1727   0.1638   0.0720   0.0003
     0.0000   0.0000   0.0000   0.0000   0.0000   0.0000

          k = 0.4942 0.5706-0.1027 (  2198 PWs)   bands (ev):

   -19.7765 -19.6893  -6.9346  -6.6142  -6.1070  -5.8593  -5.4741  -5.3569
    -3.3275  -3.2673  -2.8913  -2.7189  -2.5355  -2.3939   5.9165   6.2521
     6.6144   6.9760   7.1882   7.3468   7.4481   7.6411   7.6890   7.8642
     8.1707   8.7799   9.0545   9.3096   9.6187   9.8180   9.9306  10.3614
    10.5964  11.0660  11.1748  11.2495  11.3860  11.4590  12.3302  12.7562
    13.4416  14.3745  16.9467  17.1552  17.3537  18.0446

     occupation numbers 
     0.1875   0.1875   0.1875   0.1875   0.1875   0.1875   0.1875   0.1875
     0.1875   0.1875   0.1875   0.1875   0.1875   0.1875   0.1875   0.1875
     0.1875   0.1875   0.1875   0.1875   0.1875   0.1875   0.1875   0.1875
     0.1875   0.1875   0.1875   0.1875   0.1875   0.1875   0.1875   0.1875
     0.1875   0.1871   0.1864   0.1852   0.1804   0.1755   0.0126   0.0003
     0.0000   0.0000   0.0000   0.0000   0.0000   0.0000

          k = 0.2471 0.4280 0.0000 (  2203 PWs)   bands (ev):

   -19.7818 -19.6876  -6.8238  -6.6026  -6.0230  -5.9514  -5.4040  -5.3372
    -3.5374  -3.3111  -2.8111  -2.7265  -2.5753  -2.5677   5.9028   6.2955
     6.8485   7.0838   7.1838   7.2590   7.4327   7.5099   7.5741   7.9364
     8.1773   8.9403   9.1466   9.4146   9.7800   9.7941  10.0732  10.3662
    10.9067  10.9375  11.0154  11.1983  11.2273  11.5559  12.2524  13.3366
    13.4104  14.1701  16.4814  17.0332  17.4620  17.9603

     occupation numbers 
     0.1875   0.1875   0.1875   0.1875   0.1875   0.1875   0.1875   0.1875
     0.1875   0.1875   0.1875   0.1875   0.1875   0.1875   0.1875   0.1875
     0.1875   0.1875   0.1875   0.1875   0.1875   0.1875   0.1875   0.1875
     0.1875   0.1875   0.1875   0.1875   0.1875   0.1875   0.1875   0.1875
     0.1874   0.1874   0.1873   0.1861   0.1856   0.1654   0.0206   0.0000
     0.0000   0.0000   0.0000   0.0000   0.0000   0.0000

          k = 0.4942-0.2853-0.4107 (  2202 PWs)   bands (ev):

   -19.7766 -19.6811  -7.1558  -6.4417  -6.2272  -5.9002  -5.4930  -5.2693
    -3.2174  -3.1393  -3.0598  -2.6584  -2.4872  -2.2323   5.8269   6.1398
     6.2585   6.8731   7.1832   7.2921   7.5867   7.6799   8.2072   8.2491
     8.2589   8.3300   8.6201   9.4303   9.6913   9.8720  10.0501  10.0876
    10.4462  10.9595  11.1273  11.2875  11.4212  11.5875  11.9132  12.4443
    13.3424  14.8102  17.0900  17.3046  17.5647  17.6486

     occupation numbers 
     0.0938   0.0938   0.0938   0.0938   0.0938   0.0938   0.0938   0.0938
     0.0938   0.0938   0.0938   0.0938   0.0938   0.0938   0.0938   0.0938
     0.0938   0.0938   0.0938   0.0938   0.0938   0.0938   0.0938   0.0938
     0.0938   0.0938   0.0938   0.0938   0.0937   0.0937   0.0937   0.0937
     0.0937   0.0937   0.0934   0.0921   0.0891   0.0805   0.0449   0.0027
     0.0000   0.0000   0.0000   0.0000   0.0000   0.0000

          k = 0.0000 0.0000 0.3080 (  2187 PWs)   bands (ev):

   -19.8044 -19.6669  -6.5971  -5.9340  -5.9083  -5.8933  -5.8080  -5.8026
    -3.2210  -3.1460  -3.1056  -2.9817  -2.9240  -2.8885   5.6310   6.9809
     6.9853   7.1459   7.1506   7.3686   7.3767   7.5760   7.5789   8.6673
     8.6693   9.1647   9.4521   9.6154   9.6177   9.7840  10.1404  10.1456
    10.6764  10.6784  10.8301  11.5032  11.5047  11.5768  12.3130  12.3142
    14.2864  14.2903  15.9584  15.9706  16.9335  17.5235

     occupation numbers 
     0.0625   0.0625   0.0625   0.0625   0.0625   0.0625   0.0625   0.0625
     0.0625   0.0625   0.0625   0.0625   0.0625   0.0625   0.0625   0.0625
     0.0625   0.0625   0.0625   0.0625   0.0625   0.0625   0.0625   0.0625
     0.0625   0.0625   0.0625   0.0625   0.0625   0.0625   0.0625   0.0625
     0.0625   0.0625   0.0625   0.0571   0.0571   0.0542   0.0047   0.0047
     0.0000   0.0000   0.0000   0.0000   0.0000   0.0000

          k = 0.7412 0.4280 0.0000 (  2204 PWs)   bands (ev):

   -19.7815 -19.6880  -6.7083  -6.5673  -6.1156  -5.8015  -5.6558  -5.5129
    -3.1894  -3.1149  -3.0509  -2.6942  -2.6587  -2.5919   5.9423   6.5052
     6.8228   7.1136   7.1970   7.2907   7.4068   7.5021   7.7017   7.8868
     8.2277   8.8164   9.1692   9.4867   9.5955   9.6983   9.8594  10.2342
    10.8999  11.0187  11.0479  11.2668  11.2885  11.4265  12.2552  13.2592
    13.3267  14.1956  16.7298  16.7708  17.6322  17.8273

     occupation numbers 
     0.1875   0.1875   0.1875   0.1875   0.1875   0.1875   0.1875   0.1875
     0.1875   0.1875   0.1875   0.1875   0.1875   0.1875   0.1875   0.1875
     0.1875   0.1875   0.1875   0.1875   0.1875   0.1875   0.1875   0.1875
     0.1875   0.1875   0.1875   0.1875   0.1875   0.1875   0.1875   0.1875
     0.1874   0.1873   0.1872   0.1848   0.1842   0.1779   0.0202   0.0000
     0.0000   0.0000   0.0000   0.0000   0.0000   0.0000

          k = 0.4942 0.2853 0.1027 (  2211 PWs)   bands (ev):

   -19.7767 -19.6892  -6.9511  -6.5073  -6.3006  -5.6661  -5.5897  -5.3294
    -3.3388  -3.1811  -3.0443  -2.6164  -2.5678  -2.3868   5.9482   6.2255
     6.5702   6.9676   7.2223   7.2421   7.4772   7.6392   7.7617   7.8512
     8.2066   8.8587   9.0544   9.4108   9.4766   9.6756  10.0159  10.3549
    10.6231  11.1265  11.2635  11.2724  11.3222  11.3446  12.2841  12.7717
    13.4877  14.3560  16.9199  16.9851  17.6214  17.9664

     occupation numbers 
     0.1875   0.1875   0.1875   0.1875   0.1875   0.1875   0.1875   0.1875
     0.1875   0.1875   0.1875   0.1875   0.1875   0.1875   0.1875   0.1875
     0.1875   0.1875   0.1875   0.1875   0.1875   0.1875   0.1875   0.1875
     0.1875   0.1875   0.1875   0.1875   0.1875   0.1875   0.1875   0.1875
     0.1875   0.1868   0.1849   0.1847   0.1832   0.1823   0.0170   0.0002
     0.0000   0.0000   0.0000   0.0000   0.0000   0.0000

          k = 0.7412-0.4280-0.3080 (  2210 PWs)   bands (ev):

   -19.7766 -19.6894  -6.8869  -6.4159  -6.2795  -5.7654  -5.7238  -5.4594
    -3.0873  -3.0668  -2.9826  -2.7371  -2.6285  -2.4366   6.0147   6.3654
     6.6306   6.9474   7.2129   7.2842   7.5133   7.6603   7.7989   7.8787
     8.1820   8.8622   8.9224   9.4645   9.5215   9.5265   9.6691  10.2076
    10.7061  11.1390  11.2367  11.2615  11.3798  11.4111  12.2443  12.7230
    13.4365  14.3262  17.1009  17.1108  17.5915  17.9326

     occupation numbers 
     0.1875   0.1875   0.1875   0.1875   0.1875   0.1875   0.1875   0.1875
     0.1875   0.1875   0.1875   0.1875   0.1875   0.1875   0.1875   0.1875
     0.1875   0.1875   0.1875   0.1875   0.1875   0.1875   0.1875   0.1875
     0.1875   0.1875   0.1875   0.1875   0.1875   0.1875   0.1875   0.1875
     0.1875   0.1867   0.1854   0.1849   0.1807   0.1789   0.0216   0.0004
     0.0000   0.0000   0.0000   0.0000   0.0000   0.0000

          k = 0.4942-0.5706-0.2053 (  2206 PWs)   bands (ev):

   -19.7743 -19.6882  -6.8607  -6.8495  -6.0123  -6.0048  -5.3989  -5.3954
    -3.1839  -3.1604  -2.8444  -2.8032  -2.3941  -2.3881   6.0895   6.1003
     6.7524   6.7758   7.0973   7.1027   7.3929   7.4176   7.9020   7.9353
     8.7886   8.8078   8.8900   8.8974   9.5380   9.5404  10.0908  10.0923
    10.9138  10.9165  11.1315  11.1373  11.4376  11.4425  12.3007  12.3041
    14.0177  14.0270  17.4626  17.4658  17.9031  17.9083

     occupation numbers 
     0.1875   0.1875   0.1875   0.1875   0.1875   0.1875   0.1875   0.1875
     0.1875   0.1875   0.1875   0.1875   0.1875   0.1875   0.1875   0.1875
     0.1875   0.1875   0.1875   0.1875   0.1875   0.1875   0.1875   0.1875
     0.1875   0.1875   0.1875   0.1875   0.1875   0.1875   0.1875   0.1875
     0.1874   0.1874   0.1868   0.1867   0.1771   0.1768   0.0153   0.0149
     0.0000   0.0000   0.0000   0.0000   0.0000   0.0000

          k = 0.0000 0.0000-0.6160 (  2186 PWs)   bands (ev):

   -19.7736 -19.7002  -6.4995  -6.4486  -5.9292  -5.9292  -5.8909  -5.8909
    -2.9273  -2.9273  -2.8751  -2.8751  -2.7518  -2.6904   6.2849   6.3100
     7.1817   7.1817   7.2004   7.2004   7.5995   7.6260   7.8557   7.8557
     7.8884   7.8884   9.6376   9.6376   9.6455   9.6455   9.7007   9.7118
    11.1241  11.1363  11.1977  11.1977  11.2118  11.2118  13.2488  13.2488
    13.2823  13.2823  17.1278  17.1278  17.1916  17.1916

     occupation numbers 
     0.0313   0.0313   0.0313   0.0313   0.0313   0.0313   0.0313   0.0313
     0.0313   0.0313   0.0313   0.0313   0.0313   0.0313   0.0313   0.0313
     0.0313   0.0313   0.0313   0.0313   0.0313   0.0313   0.0313   0.0313
     0.0313   0.0313   0.0312   0.0312   0.0312   0.0312   0.0312   0.0312
     0.0311   0.0311   0.0310   0.0310   0.0310   0.0310   0.0000   0.0000
     0.0000   0.0000   0.0000   0.0000   0.0000   0.0000

          k = 0.4942-0.5706 0.1027 (  2198 PWs)   bands (ev):

   -19.7765 -19.6893  -6.9350  -6.6134  -6.1080  -5.8583  -5.4751  -5.3562
    -3.3282  -3.2672  -2.8914  -2.7178  -2.5361  -2.3936   5.9145   6.2558
     6.6103   6.9768   7.1922   7.3456   7.4584   7.6282   7.6743   7.8810
     8.1702   8.7849   9.0505   9.3088   9.6162   9.8188   9.9302  10.3632
    10.5961  11.0622  11.1801  11.2485  11.3898  11.4552  12.3300  12.7559
    13.4415  14.3743  16.9486  17.1524  17.3542  18.0462

     occupation numbers 
     0.1875   0.1875   0.1875   0.1875   0.1875   0.1875   0.1875   0.1875
     0.1875   0.1875   0.1875   0.1875   0.1875   0.1875   0.1875   0.1875
     0.1875   0.1875   0.1875   0.1875   0.1875   0.1875   0.1875   0.1875
     0.1875   0.1875   0.1875   0.1875   0.1875   0.1875   0.1875   0.1875
     0.1875   0.1871   0.1863   0.1852   0.1802   0.1758   0.0126   0.0003
     0.0000   0.0000   0.0000   0.0000   0.0000   0.0000

     the Fermi energy is    11.8979 ev

!    total energy              =    -538.11446042 Ry
     Harris-Foulkes estimate   =    -538.11444710 Ry
     estimated scf accuracy    <          2.8E-09 Ry

     The total energy is the sum of the following terms:

     one-electron contribution =     -32.96290338 Ry
     hartree contribution      =      83.71444052 Ry
     xc contribution           =    -199.60685367 Ry
     ewald contribution        =    -389.44315552 Ry
     Hubbard energy            =       0.20571103 Ry
     smearing contrib. (-TS)   =      -0.02169940 Ry

     convergence has been achieved in  11 iterations

     init_run     :      7.71s CPU      7.85s WALL (       1 calls)
     electrons    :    187.38s CPU    190.24s WALL (       1 calls)

     Called by init_run:
     wfcinit      :      0.00s CPU      0.00s WALL (       1 calls)
     potinit      :      0.31s CPU      0.38s WALL (       1 calls)

     Called by electrons:
     c_bands      :    124.46s CPU    125.18s WALL (      11 calls)
     sum_band     :     36.55s CPU     36.76s WALL (      11 calls)
     v_of_rho     :      3.17s CPU      3.19s WALL (      12 calls)
     v_h          :      0.18s CPU      0.19s WALL (      12 calls)
     v_xc         :      2.99s CPU      3.00s WALL (      12 calls)
     newd         :     24.76s CPU     24.91s WALL (      12 calls)
     mix_rho      :      0.33s CPU      0.34s WALL (      11 calls)

     Called by c_bands:
     init_us_2    :      1.23s CPU      1.24s WALL (     308 calls)
     cegterg      :    121.06s CPU    121.37s WALL (     154 calls)

     Called by sum_band:
     sum_band:bec :      0.12s CPU      0.12s WALL (     154 calls)
     addusdens    :     15.85s CPU     15.85s WALL (      11 calls)

     Called by *egterg:
     h_psi        :     91.08s CPU     91.31s WALL (     628 calls)
     s_psi        :      5.11s CPU      5.12s WALL (     628 calls)
     g_psi        :      0.39s CPU      0.39s WALL (     474 calls)
     cdiaghg      :      8.43s CPU      8.45s WALL (     614 calls)
     cegterg:over :      5.89s CPU      5.91s WALL (     474 calls)
     cegterg:upda :      4.05s CPU      4.07s WALL (     474 calls)
     cegterg:last :      2.83s CPU      2.84s WALL (     179 calls)

     Called by h_psi:
     h_psi:vloc   :     74.77s CPU     74.95s WALL (     628 calls)
     h_psi:vnl    :     10.27s CPU     10.29s WALL (     628 calls)
     add_vuspsi   :      5.11s CPU      5.13s WALL (     628 calls)
     vhpsi        :      5.82s CPU      5.83s WALL (     628 calls)

     General routines
     calbec       :     10.59s CPU     10.62s WALL (    1564 calls)
     fft          :      2.25s CPU      2.34s WALL (     187 calls)
     ffts         :      0.07s CPU      0.12s WALL (      23 calls)
     fftw         :     69.26s CPU     69.34s WALL (   44776 calls)
     interpolate  :      0.38s CPU      0.48s WALL (      23 calls)
     davcio       :      0.01s CPU      0.55s WALL (     322 calls)

     Parallel routines
     fft_scatter  :     19.32s CPU     19.41s WALL (   44986 calls)
     Hubbard U routines
     new_ns       :      1.02s CPU      1.18s WALL (      11 calls)
     vhpsi        :      5.82s CPU      5.83s WALL (     628 calls)

     PWSCF        :  3m15.53s CPU     3m18.60s WALL


   This run was terminated on:  15: 4:43  11Nov2012            

=------------------------------------------------------------------------------=
