   JOB DONE.
=------------------------------------------------------------------------------=

     Program PWSCF v.5.0.1 starts on 13Nov2012 at  5:45:51 

     This program is part of the open-source Quantum ESPRESSO suite
     for quantum simulation of materials; please cite
         "P. Giannozzi et al., J. Phys.:Condens. Matter 21 395502 (2009);
          URL http://www.quantum-espresso.org", 
     in publications or presentations arising from this work. More details at
     http://www.quantum-espresso.org/quote.php

     Parallel version (MPI), running on     2 processors
     R & G space division:  proc/pool =    2

     Current dimensions of program PWSCF are:
     Max number of different atomic species (ntypx) = 10
     Max number of k-points (npk) =  40000
     Max angular momentum in pseudopotentials (lmaxx) =  3
     Reading input from CoLaO_U700_a15.in
               file Co.pbe-nd-rrkjus.UPF: wavefunction(s)  4S 3D renormalized
               file O.pbe-rrkjus.UPF: wavefunction(s)  2S renormalized

     Subspace diagonalization in iterative solution of the eigenvalue problem:
     a serial algorithm will be used


     Parallelization info
     --------------------
     sticks:   dense  smooth     PW     G-vecs:    dense   smooth      PW
     Min        1112     444    131                34808     8786    1448
     Max        1113     445    132                34809     8787    1449
     Sum        2225     889    263                69617    17573    2897


     Title: 
     GGA + U, U = 7.000, alpha = 0.150                                          


     bravais-lattice index     =            5
     lattice parameter (alat)  =      10.3292  a.u.
     unit-cell volume          =     793.0599 (a.u.)^3
     number of atoms/cell      =           10
     number of atomic types    =            4
     number of electrons       =        76.00
     number of Kohn-Sham states=           46
     kinetic-energy cutoff     =      30.0000  Ry
     charge density cutoff     =     300.0000  Ry
     convergence threshold     =      1.0E-08
     mixing beta               =       0.2000
     number of iterations used =            8  plain     mixing
     Exchange-correlation      =  SLA  PW   PBE  PBE ( 1 4 3 4 0)
     EXX-fraction              =        0.00

     celldm(1)=  10.329242  celldm(2)=   0.000000  celldm(3)=   0.000000
     celldm(4)=   0.488100  celldm(5)=   0.000000  celldm(6)=   0.000000

     crystal axes: (cart. coord. in units of alat)
               a(1) = (   0.505915  -0.292090   0.811624 )  
               a(2) = (   0.000000   0.584180   0.811624 )  
               a(3) = (  -0.505915  -0.292090   0.811624 )  

     reciprocal axes: (cart. coord. in units 2 pi/alat)
               b(1) = (  0.988308 -0.570600  0.410699 )  
               b(2) = (  0.000000  1.141200  0.410699 )  
               b(3) = ( -0.988308 -0.570600  0.410699 )  


     PseudoPot. # 1 for Co read from file:
     /home/mcurnan/dft-course/Project1/example_LaCoO3/Co.pbe-nd-rrkjus.UPF
     MD5 check sum: 3e47a84addf5e975e0edeaeee2a73f59
     Pseudo is Ultrasoft + core correction, Zval =  9.0
     Generated by new atomic code, or converted to UPF format
     Using radial grid of  961 points,  6 beta functions with: 
                l(1) =   0
                l(2) =   0
                l(3) =   1
                l(4) =   1
                l(5) =   2
                l(6) =   2
     Q(r) pseudized with 0 coefficients 


     PseudoPot. # 2 for La read from file:
     /home/mcurnan/dft-course/Project1/example_LaCoO3/La.pbe-nsp-van.UPF
     MD5 check sum: b2f11743f52dde65f77d1302becd7929
     Pseudo is Ultrasoft + core correction, Zval = 11.0
     Generated by new atomic code, or converted to UPF format
     Using radial grid of  907 points,  6 beta functions with: 
                l(1) =   0
                l(2) =   0
                l(3) =   1
                l(4) =   1
                l(5) =   2
                l(6) =   2
     Q(r) pseudized with  6 coefficients,  rinner =    1.200   1.200   1.200
                                                       1.200   1.200

     PseudoPot. # 3 for La read from file:
     /home/mcurnan/dft-course/Project1/example_LaCoO3/La.pbe-nsp-van.UPF
     MD5 check sum: b2f11743f52dde65f77d1302becd7929
     Pseudo is Ultrasoft + core correction, Zval = 11.0
     Generated by new atomic code, or converted to UPF format
     Using radial grid of  907 points,  6 beta functions with: 
                l(1) =   0
                l(2) =   0
                l(3) =   1
                l(4) =   1
                l(5) =   2
                l(6) =   2
     Q(r) pseudized with  6 coefficients,  rinner =    1.200   1.200   1.200
                                                       1.200   1.200

     PseudoPot. # 4 for O  read from file:
     /home/mcurnan/dft-course/Project1/example_LaCoO3/O.pbe-rrkjus.UPF
     MD5 check sum: 390ba29e75625707450f3bd3f0eb6be9
     Pseudo is Ultrasoft, Zval =  6.0
     Generated by new atomic code, or converted to UPF format
     Using radial grid of 1269 points,  4 beta functions with: 
                l(1) =   0
                l(2) =   0
                l(3) =   1
                l(4) =   1
     Q(r) pseudized with 0 coefficients 


     atomic species   valence    mass     pseudopotential
        Co1            9.00     1.00000     Co( 1.00)
        La1           11.00     1.00000     La( 1.00)
        La2           11.00     1.00000     La( 1.00)
        O1             6.00     1.00000     O ( 1.00)
 -----
     simplified LDA+U calculation, Hubbard_lmax = 2
     atomic species  L   Hubbard U  Hubbard alpha
        Co1          2    7.000000    0.000000
        La1          2    0.000000    0.150000
        La2          2    0.000000    0.000000
        O1           1    0.000000    0.000000
 -----

      3 Sym. Ops. (no inversion) found


                                    s                        frac. trans.

      isym =  1     identity                                     

 cryst.   s( 1) = (     1          0          0      )
                  (     0          1          0      )
                  (     0          0          1      )

 cart.    s( 1) = (  1.0000000  0.0000000  0.0000000 )
                  (  0.0000000  1.0000000  0.0000000 )
                  (  0.0000000  0.0000000  1.0000000 )


      isym =  2     120 deg rotation - cryst. axis [0,0,1]       

 cryst.   s( 2) = (     0          1          0      )
                  (     0          0          1      )
                  (     1          0          0      )

 cart.    s( 2) = ( -0.5000000 -0.8660254  0.0000000 )
                  (  0.8660254 -0.5000000  0.0000000 )
                  (  0.0000000  0.0000000  1.0000000 )


      isym =  3     120 deg rotation - cryst. axis [0,0,-1]      

 cryst.   s( 3) = (     0          0          1      )
                  (     1          0          0      )
                  (     0          1          0      )

 cart.    s( 3) = ( -0.5000000  0.8660254  0.0000000 )
                  ( -0.8660254 -0.5000000  0.0000000 )
                  (  0.0000000  0.0000000  1.0000000 )


     point group C_3 (3)    
     there are  3 classes
     the character table:

       E     C3    C3^2 
A      1.00  1.00  1.00
E      1.00 -0.50 -0.50
E*     1.00 -0.50 -0.50
     imaginary part
A      0.00  0.00  0.00
E      0.00  0.87 -0.87
E*     0.00 -0.87  0.87

     the symmetry operations in each class:
     E        1
     C3       2
     C3^2     3

   Cartesian axes

     site n.     atom                  positions (alat units)
         1           Co1 tau(   1) = (   0.0000000   0.0000000   1.8261537  )
         2           Co1 tau(   2) = (   0.0000000   0.0000000   0.6087179  )
         3           La1 tau(   3) = (   0.0000000   0.0000000   0.0000000  )
         4           La2 tau(   4) = (   0.0000000   0.0000000   1.2174358  )
         5           O1  tau(   5) = (   0.2831100  -0.0928263   1.6236536  )
         6           O1  tau(   6) = (  -0.2219449  -0.1987674   1.6236536  )
         7           O1  tau(   7) = (  -0.0611651   0.2915936   1.6236536  )
         8           O1  tau(   8) = (   0.2228050   0.3849164   1.2170300  )
         9           O1  tau(   9) = (   0.2219449  -0.3854130   1.2170300  )
        10           O1  tau(  10) = (  -0.4447499   0.0004966   1.2170300  )

   Crystallographic axes

     site n.     atom                  positions (cryst. coord.)
         1           Co1 tau(   1) = (  0.7500000  0.7500000  0.7500000  )
         2           Co1 tau(   2) = (  0.2500000  0.2500000  0.2500000  )
         3           La1 tau(   3) = (  0.0000000  0.0000000  0.0000000  )
         4           La2 tau(   4) = (  0.5000000  0.5000000  0.5000000  )
         5           O1  tau(   5) = (  0.9996000  0.5609000  0.4400000  )
         6           O1  tau(   6) = (  0.5609000  0.4400000  0.9996000  )
         7           O1  tau(   7) = (  0.4400000  0.9996000  0.5609000  )
         8           O1  tau(   8) = (  0.5004000  0.9391000  0.0600000  )
         9           O1  tau(   9) = (  0.9391000  0.0600000  0.5004000  )
        10           O1  tau(  10) = (  0.0600000  0.5004000  0.9391000  )

     number of k points=    14  gaussian smearing, width (Ry)=  0.0300
                       cart. coord. in units 2pi/alat
        k(    1) = (   0.0000000   0.0000000   0.0000000), wk =   0.0312500
        k(    2) = (  -0.2470771  -0.1426500   0.1026748), wk =   0.1875000
        k(    3) = (   0.4941541   0.2853000  -0.2053496), wk =   0.0937500
        k(    4) = (  -0.2470771   0.1426500   0.2053496), wk =   0.1875000
        k(    5) = (   0.4941541   0.5706001  -0.1026748), wk =   0.1875000
        k(    6) = (   0.2470771   0.4279500   0.0000000), wk =   0.1875000
        k(    7) = (   0.4941541  -0.2853000  -0.4106993), wk =   0.0937500
        k(    8) = (   0.0000000   0.0000000   0.3080244), wk =   0.0625000
        k(    9) = (   0.7412312   0.4279500   0.0000000), wk =   0.1875000
        k(   10) = (   0.4941541   0.2853000   0.1026748), wk =   0.1875000
        k(   11) = (   0.7412312  -0.4279500  -0.3080244), wk =   0.1875000
        k(   12) = (   0.4941541  -0.5706001  -0.2053496), wk =   0.1875000
        k(   13) = (   0.0000000   0.0000000  -0.6160489), wk =   0.0312500
        k(   14) = (   0.4941541  -0.5706001   0.1026748), wk =   0.1875000

                       cryst. coord.
        k(    1) = (   0.0000000   0.0000000   0.0000000), wk =   0.0312500
        k(    2) = (   0.0000000   0.0000000   0.2500000), wk =   0.1875000
        k(    3) = (   0.0000000   0.0000000  -0.5000000), wk =   0.0937500
        k(    4) = (   0.0000000   0.2500000   0.2500000), wk =   0.1875000
        k(    5) = (   0.0000000   0.2500000  -0.5000000), wk =   0.1875000
        k(    6) = (   0.0000000   0.2500000  -0.2500000), wk =   0.1875000
        k(    7) = (   0.0000000  -0.5000000  -0.5000000), wk =   0.0937500
        k(    8) = (   0.2500000   0.2500000   0.2500000), wk =   0.0625000
        k(    9) = (   0.2500000   0.2500000  -0.5000000), wk =   0.1875000
        k(   10) = (   0.2500000   0.2500000  -0.2500000), wk =   0.1875000
        k(   11) = (   0.2500000  -0.5000000  -0.5000000), wk =   0.1875000
        k(   12) = (   0.2500000  -0.5000000  -0.2500000), wk =   0.1875000
        k(   13) = (  -0.5000000  -0.5000000  -0.5000000), wk =   0.0312500
        k(   14) = (   0.5000000  -0.2500000   0.0000000), wk =   0.1875000

     Dense  grid:    69617 G-vectors     FFT dimensions: (  60,  60,  60)

     Smooth grid:    17573 G-vectors     FFT dimensions: (  40,  40,  40)

     Largest allocated arrays     est. size (Mb)     dimensions
        Kohn-Sham Wavefunctions         0.78 Mb     (   1117,   46)
        Atomic wavefunctions            1.06 Mb     (   1117,   62)
        NL pseudopotentials             2.05 Mb     (   1117,  120)
        Each V/rho on FFT grid          1.65 Mb     ( 108000)
        Each G-vector array             0.27 Mb     (  34808)
        G-vector shells                 0.04 Mb     (   4682)
     Largest temporary arrays     est. size (Mb)     dimensions
        Auxiliary wavefunctions         3.14 Mb     (   1117,  184)
        Each subspace H/S matrix        0.52 Mb     ( 184, 184)
        Each <psi_i|beta_j> matrix      0.08 Mb     (    120,   46)
        Arrays for rho mixing          13.18 Mb     ( 108000,   8)

     Check: negative/imaginary core charge=   -0.000028    0.000000

     The initial density is read from file :
     /home/mcurnan/dft-course/Project1/example_LaCoO3/700/La/alpha/CoLaO_U700.save/charge-density.dat

 --- in v_hubbard ---
Hubbard energy    0.7118
 -------
     Number of +U iterations with fixed ns =  0
     Starting occupations:
 --- enter write_ns ---
 LDA+U parameters:
U( 1)     =  7.00000000
alpha( 1) =  0.00000000
U( 2)     =  0.00000000
alpha( 2) =  0.15000000
U( 3)     =  0.00000000
alpha( 3) =  0.00000000
U( 4)     =  0.00000000
alpha( 4) =  0.00000000
atom    1   Tr[ns(na)] =   8.02205
    eigenvalues: 
  0.596  0.596  0.938  0.941  0.941
    eigenvectors:
  0.000  0.000  1.000  0.000  0.000
  0.334  0.321  0.000  0.004  0.341
  0.321  0.334  0.000  0.341  0.004
  0.288  0.057  0.000  0.515  0.140
  0.057  0.288  0.000  0.140  0.515
    occupations:
  0.938  0.000  0.000  0.000  0.000
  0.000  0.715  0.000 -0.060  0.152
  0.000  0.000  0.715  0.152  0.060
  0.000 -0.060  0.152  0.822  0.000
  0.000  0.152  0.060  0.000  0.822
atom    2   Tr[ns(na)] =   8.02143
    eigenvalues: 
  0.595  0.595  0.938  0.941  0.941
    eigenvectors:
  0.000  0.000  1.000  0.000  0.000
  0.638  0.017  0.000  0.223  0.122
  0.017  0.638  0.000  0.122  0.223
  0.015  0.330  0.000  0.470  0.185
  0.330  0.015  0.000  0.185  0.470
    occupations:
  0.938  0.000  0.000  0.000  0.000
  0.000  0.715  0.000  0.060  0.153
  0.000  0.000  0.715  0.153 -0.060
  0.000  0.060  0.153  0.822  0.000
  0.000  0.153 -0.060  0.000  0.822
atom    3   Tr[ns(na)] =   3.80283
    eigenvalues: 
  0.355  0.355  0.384  0.403  0.403
    eigenvectors:
  0.000  0.000  1.000  0.000  0.000
  0.781  0.140  0.000  0.012  0.068
  0.140  0.781  0.000  0.068  0.012
  0.013  0.067  0.000  0.780  0.140
  0.067  0.013  0.000  0.140  0.780
    occupations:
  0.384  0.000  0.000  0.000  0.000
  0.000  0.359  0.000  0.000  0.013
  0.000  0.000  0.359  0.013  0.000
  0.000  0.000  0.013  0.399  0.000
  0.000  0.013  0.000  0.000  0.399
atom    4   Tr[ns(na)] =   3.80283
    eigenvalues: 
  0.355  0.355  0.384  0.403  0.403
    eigenvectors:
  0.000  0.000  1.000  0.000  0.000
  0.781  0.140  0.000  0.012  0.068
  0.140  0.781  0.000  0.068  0.012
  0.013  0.067  0.000  0.780  0.140
  0.067  0.013  0.000  0.140  0.780
    occupations:
  0.384  0.000  0.000  0.000  0.000
  0.000  0.359  0.000  0.000  0.013
  0.000  0.000  0.359  0.013  0.000
  0.000  0.000  0.013  0.399  0.000
  0.000  0.013  0.000  0.000  0.399
atom    5   Tr[ns(na)] =   5.43358
    eigenvalues: 
  0.846  0.929  0.941
    eigenvectors:
  0.340  0.000  0.660
  0.496  0.250  0.255
  0.164  0.750  0.086
    occupations:
  0.909 -0.039  0.022
 -0.039  0.891  0.022
  0.022  0.022  0.917
atom    6   Tr[ns(na)] =   5.43358
    eigenvalues: 
  0.846  0.929  0.941
    eigenvectors:
  0.340  0.000  0.660
  0.494  0.250  0.256
  0.166  0.750  0.085
    occupations:
  0.909  0.039  0.022
  0.039  0.891 -0.022
  0.022 -0.022  0.917
atom    7   Tr[ns(na)] =   5.43358
    eigenvalues: 
  0.846  0.929  0.941
    eigenvectors:
  0.340  0.000  0.660
  0.000  1.000  0.000
  0.660  0.000  0.340
    occupations:
  0.909  0.000 -0.045
  0.000  0.929  0.000
 -0.045  0.000  0.879
atom    8   Tr[ns(na)] =   5.43358
    eigenvalues: 
  0.846  0.929  0.941
    eigenvectors:
  0.340  0.000  0.660
  0.496  0.250  0.255
  0.164  0.750  0.086
    occupations:
  0.909 -0.039  0.022
 -0.039  0.891  0.022
  0.022  0.022  0.917
atom    9   Tr[ns(na)] =   5.43358
    eigenvalues: 
  0.846  0.929  0.941
    eigenvectors:
  0.340  0.000  0.660
  0.494  0.250  0.256
  0.166  0.750  0.085
    occupations:
  0.909  0.039  0.022
  0.039  0.891 -0.022
  0.022 -0.022  0.917
atom   10   Tr[ns(na)] =   5.43358
    eigenvalues: 
  0.846  0.929  0.941
    eigenvectors:
  0.340  0.000  0.660
  0.000  1.000  0.000
  0.660  0.000  0.340
    occupations:
  0.909  0.000 -0.045
  0.000  0.929  0.000
 -0.045  0.000  0.879
N of occupied +U levels =  56.2506014
 --- exit write_ns ---
 LDA+U Projector read from file 
     Starting wfc from file

     total cpu time spent up to now is        7.8 secs

     per-process dynamical memory:    47.1 Mb

     Self-consistent Calculation

     iteration #  1     ecut=    30.00 Ry     beta=0.20
     Davidson diagonalization with overlap
     c_bands:  1 eigenvalues not converged
     c_bands:  1 eigenvalues not converged
     c_bands:  1 eigenvalues not converged
     c_bands:  1 eigenvalues not converged
     c_bands:  1 eigenvalues not converged
     c_bands:  1 eigenvalues not converged
     c_bands:  1 eigenvalues not converged
     c_bands:  1 eigenvalues not converged
     ethr =  1.00E-10,  avg # of iterations = 18.4
 --- enter write_ns ---
 LDA+U parameters:
U( 1)     =  7.00000000
alpha( 1) =  0.00000000
U( 2)     =  0.00000000
alpha( 2) =  0.15000000
U( 3)     =  0.00000000
alpha( 3) =  0.00000000
U( 4)     =  0.00000000
alpha( 4) =  0.00000000
atom    1   Tr[ns(na)] =   8.28865
    eigenvalues: 
  0.579  0.579  0.995  0.995  0.998
    eigenvectors:
  0.000  0.000  0.000  0.000  1.000
  0.331  0.323  0.004  0.342  0.000
  0.323  0.331  0.342  0.004  0.000
  0.289  0.057  0.514  0.140  0.000
  0.057  0.289  0.140  0.514  0.000
    occupations:
  0.998  0.000  0.000  0.000  0.000
  0.000  0.723  0.000 -0.072  0.184
  0.000  0.000  0.723  0.184  0.072
  0.000 -0.072  0.184  0.851  0.000
  0.000  0.184  0.072  0.000  0.851
atom    2   Tr[ns(na)] =   8.27878
    eigenvalues: 
  0.576  0.576  0.995  0.995  0.998
    eigenvectors:
  0.000  0.000  0.000  0.000  1.000
  0.634  0.020  0.222  0.123  0.000
  0.020  0.634  0.123  0.222  0.000
  0.013  0.333  0.469  0.185  0.000
  0.333  0.013  0.185  0.469  0.000
    occupations:
  0.998  0.000  0.000  0.000  0.000
  0.000  0.721  0.000  0.072  0.186
  0.000  0.000  0.721  0.186 -0.072
  0.000  0.072  0.186  0.850  0.000
  0.000  0.186 -0.072  0.000  0.850
atom    3   Tr[ns(na)] =   3.73470
    eigenvalues: 
  0.350  0.350  0.376  0.396  0.396
    eigenvectors:
  0.000  0.000  1.000  0.000  0.000
  0.769  0.143  0.000  0.013  0.075
  0.143  0.769  0.000  0.075  0.013
  0.014  0.074  0.000  0.770  0.142
  0.074  0.014  0.000  0.142  0.770
    occupations:
  0.376  0.000  0.000  0.000  0.000
  0.000  0.354  0.000  0.000  0.013
  0.000  0.000  0.354  0.013  0.000
  0.000  0.000  0.013  0.392  0.000
  0.000  0.013  0.000  0.000  0.392
atom    4   Tr[ns(na)] =   3.78645
    eigenvalues: 
  0.356  0.356  0.380  0.401  0.401
    eigenvectors:
  0.000  0.000  1.000  0.000  0.000
  0.772  0.142  0.000  0.013  0.073
  0.142  0.772  0.000  0.073  0.013
  0.014  0.071  0.000  0.773  0.142
  0.071  0.014  0.000  0.142  0.773
    occupations:
  0.380  0.000  0.000  0.000  0.000
  0.000  0.360  0.000  0.000  0.013
  0.000  0.000  0.360  0.013  0.000
  0.000  0.000  0.013  0.397  0.000
  0.000  0.013  0.000  0.000  0.397
atom    5   Tr[ns(na)] =   5.36956
    eigenvalues: 
  0.818  0.922  0.945
    eigenvectors:
  0.341  0.000  0.659
  0.494  0.250  0.256
  0.164  0.750  0.086
    occupations:
  0.901 -0.052  0.030
 -0.052  0.877  0.026
  0.030  0.026  0.907
atom    6   Tr[ns(na)] =   5.36956
    eigenvalues: 
  0.818  0.922  0.945
    eigenvectors:
  0.341  0.000  0.659
  0.494  0.250  0.257
  0.165  0.750  0.085
    occupations:
  0.901  0.052  0.030
  0.052  0.877 -0.026
  0.030 -0.026  0.907
atom    7   Tr[ns(na)] =   5.36956
    eigenvalues: 
  0.818  0.922  0.945
    eigenvectors:
  0.341  0.000  0.659
  0.000  1.000  0.000
  0.659  0.000  0.341
    occupations:
  0.901  0.000 -0.060
  0.000  0.922  0.000
 -0.060  0.000  0.861
atom    8   Tr[ns(na)] =   5.36954
    eigenvalues: 
  0.818  0.921  0.945
    eigenvectors:
  0.342  0.000  0.658
  0.494  0.250  0.256
  0.164  0.750  0.086
    occupations:
  0.902 -0.052  0.030
 -0.052  0.877  0.026
  0.030  0.026  0.906
atom    9   Tr[ns(na)] =   5.36954
    eigenvalues: 
  0.818  0.921  0.945
    eigenvectors:
  0.342  0.000  0.658
  0.494  0.250  0.257
  0.165  0.750  0.085
    occupations:
  0.902  0.052  0.030
  0.052  0.877 -0.026
  0.030 -0.026  0.906
atom   10   Tr[ns(na)] =   5.36954
    eigenvalues: 
  0.818  0.921  0.945
    eigenvectors:
  0.342  0.000  0.658
  0.000  1.000  0.000
  0.658  0.000  0.342
    occupations:
  0.902  0.000 -0.060
  0.000  0.921  0.000
 -0.060  0.000  0.862
N of occupied +U levels =  56.3058676
 --- exit write_ns ---
 --- in v_hubbard ---
Hubbard energy    0.6823
 -------

     total cpu time spent up to now is       49.8 secs

     total energy              =    -537.70193203 Ry
     Harris-Foulkes estimate   =    -537.72245183 Ry
     estimated scf accuracy    <       0.08628537 Ry

     iteration #  2     ecut=    30.00 Ry     beta=0.20
     Davidson diagonalization with overlap
     ethr =  1.14E-04,  avg # of iterations =  1.6
 --- enter write_ns ---
 LDA+U parameters:
U( 1)     =  7.00000000
alpha( 1) =  0.00000000
U( 2)     =  0.00000000
alpha( 2) =  0.15000000
U( 3)     =  0.00000000
alpha( 3) =  0.00000000
U( 4)     =  0.00000000
alpha( 4) =  0.00000000
atom    1   Tr[ns(na)] =   8.02239
    eigenvalues: 
  0.510  0.510  0.996  0.996  0.999
    eigenvectors:
  0.000  0.000  0.000  0.000  1.000
  0.334  0.322  0.003  0.342  0.000
  0.322  0.334  0.342  0.003  0.000
  0.290  0.055  0.517  0.139  0.000
  0.055  0.290  0.139  0.517  0.000
    occupations:
  0.999  0.000  0.000  0.000  0.000
  0.000  0.678  0.000 -0.086  0.214
  0.000  0.000  0.678  0.214  0.086
  0.000 -0.086  0.214  0.828  0.000
  0.000  0.214  0.086  0.000  0.828
atom    2   Tr[ns(na)] =   8.02189
    eigenvalues: 
  0.510  0.510  0.996  0.996  0.999
    eigenvectors:
  0.000  0.000  0.000  0.000  1.000
  0.638  0.017  0.225  0.120  0.000
  0.017  0.638  0.120  0.225  0.000
  0.016  0.329  0.471  0.184  0.000
  0.329  0.016  0.184  0.471  0.000
    occupations:
  0.999  0.000  0.000  0.000  0.000
  0.000  0.677  0.000  0.086  0.215
  0.000  0.000  0.677  0.215 -0.086
  0.000  0.086  0.215  0.829  0.000
  0.000  0.215 -0.086  0.000  0.829
atom    3   Tr[ns(na)] =   3.73453
    eigenvalues: 
  0.350  0.350  0.376  0.396  0.396
    eigenvectors:
  0.000  0.000  1.000  0.000  0.000
  0.776  0.141  0.000  0.012  0.070
  0.141  0.776  0.000  0.070  0.012
  0.013  0.069  0.000  0.776  0.141
  0.069  0.013  0.000  0.141  0.776
    occupations:
  0.376  0.000  0.000  0.000  0.000
  0.000  0.353  0.000  0.000  0.013
  0.000  0.000  0.353  0.013  0.000
  0.000  0.000  0.013  0.392  0.000
  0.000  0.013  0.000  0.000  0.392
atom    4   Tr[ns(na)] =   3.78270
    eigenvalues: 
  0.355  0.355  0.380  0.401  0.401
    eigenvectors:
  0.000  0.000  1.000  0.000  0.000
  0.780  0.140  0.000  0.012  0.068
  0.140  0.780  0.000  0.068  0.012
  0.013  0.067  0.000  0.780  0.140
  0.067  0.013  0.000  0.140  0.780
    occupations:
  0.380  0.000  0.000  0.000  0.000
  0.000  0.358  0.000  0.000  0.012
  0.000  0.000  0.358  0.012  0.000
  0.000  0.000  0.012  0.397  0.000
  0.000  0.012  0.000  0.000  0.397
atom    5   Tr[ns(na)] =   5.45300
    eigenvalues: 
  0.843  0.933  0.950
    eigenvectors:
  0.335  0.000  0.665
  0.498  0.252  0.251
  0.167  0.748  0.084
    occupations:
  0.914 -0.044  0.026
 -0.044  0.893  0.024
  0.026  0.024  0.920
atom    6   Tr[ns(na)] =   5.45300
    eigenvalues: 
  0.843  0.933  0.950
    eigenvectors:
  0.335  0.000  0.665
  0.500  0.248  0.252
  0.165  0.752  0.083
    occupations:
  0.914  0.044  0.025
  0.044  0.892 -0.024
  0.025 -0.024  0.920
atom    7   Tr[ns(na)] =   5.45300
    eigenvalues: 
  0.843  0.933  0.950
    eigenvectors:
  0.335  0.000  0.665
  0.000  1.000  0.000
  0.665  0.000  0.335
    occupations:
  0.914  0.000 -0.051
  0.000  0.933  0.000
 -0.051  0.000  0.879
atom    8   Tr[ns(na)] =   5.45280
    eigenvalues: 
  0.843  0.933  0.951
    eigenvectors:
  0.335  0.000  0.665
  0.498  0.252  0.251
  0.167  0.748  0.084
    occupations:
  0.915 -0.044  0.026
 -0.044  0.892  0.023
  0.026  0.023  0.919
atom    9   Tr[ns(na)] =   5.45280
    eigenvalues: 
  0.843  0.933  0.951
    eigenvectors:
  0.335  0.000  0.665
  0.500  0.248  0.252
  0.165  0.752  0.083
    occupations:
  0.915  0.044  0.025
  0.044  0.892 -0.023
  0.025 -0.023  0.919
atom   10   Tr[ns(na)] =   5.45280
    eigenvalues: 
  0.843  0.933  0.951
    eigenvectors:
  0.335  0.000  0.665
  0.000  1.000  0.000
  0.665  0.000  0.335
    occupations:
  0.915  0.000 -0.051
  0.000  0.933  0.000
 -0.051  0.000  0.879
N of occupied +U levels =  56.2788877
 --- exit write_ns ---
 --- in v_hubbard ---
Hubbard energy    0.6703
 -------

     total cpu time spent up to now is       61.5 secs

     total energy              =    -537.72051152 Ry
     Harris-Foulkes estimate   =    -537.72048188 Ry
     estimated scf accuracy    <       0.05109769 Ry

     iteration #  3     ecut=    30.00 Ry     beta=0.20
     Davidson diagonalization with overlap
     ethr =  6.72E-05,  avg # of iterations =  1.0
 --- enter write_ns ---
 LDA+U parameters:
U( 1)     =  7.00000000
alpha( 1) =  0.00000000
U( 2)     =  0.00000000
alpha( 2) =  0.15000000
U( 3)     =  0.00000000
alpha( 3) =  0.00000000
U( 4)     =  0.00000000
alpha( 4) =  0.00000000
atom    1   Tr[ns(na)] =   8.07309
    eigenvalues: 
  0.523  0.523  0.996  0.996  0.999
    eigenvectors:
  0.000  0.000  0.000  0.000  1.000
  0.334  0.322  0.003  0.341  0.000
  0.322  0.334  0.341  0.003  0.000
  0.289  0.055  0.517  0.139  0.000
  0.055  0.289  0.139  0.517  0.000
    occupations:
  0.999  0.000  0.000  0.000  0.000
  0.000  0.686  0.000 -0.084  0.209
  0.000  0.000  0.686  0.209  0.084
  0.000 -0.084  0.209  0.833  0.000
  0.000  0.209  0.084  0.000  0.833
atom    2   Tr[ns(na)] =   8.07069
    eigenvalues: 
  0.522  0.522  0.996  0.996  0.999
    eigenvectors:
  0.000  0.000  0.000  0.000  1.000
  0.638  0.018  0.224  0.120  0.000
  0.018  0.638  0.120  0.224  0.000
  0.015  0.329  0.471  0.184  0.000
  0.329  0.015  0.184  0.471  0.000
    occupations:
  0.999  0.000  0.000  0.000  0.000
  0.000  0.685  0.000  0.084  0.209
  0.000  0.000  0.685  0.209 -0.084
  0.000  0.084  0.209  0.833  0.000
  0.000  0.209 -0.084  0.000  0.833
atom    3   Tr[ns(na)] =   3.73734
    eigenvalues: 
  0.350  0.350  0.376  0.396  0.396
    eigenvectors:
  0.000  0.000  1.000  0.000  0.000
  0.777  0.141  0.000  0.012  0.070
  0.141  0.777  0.000  0.070  0.012
  0.013  0.069  0.000  0.777  0.141
  0.069  0.013  0.000  0.141  0.777
    occupations:
  0.376  0.000  0.000  0.000  0.000
  0.000  0.354  0.000  0.000  0.013
  0.000  0.000  0.354  0.013  0.000
  0.000  0.000  0.013  0.392  0.000
  0.000  0.013  0.000  0.000  0.392
atom    4   Tr[ns(na)] =   3.78484
    eigenvalues: 
  0.355  0.355  0.380  0.401  0.401
    eigenvectors:
  0.000  0.000  1.000  0.000  0.000
  0.781  0.139  0.000  0.012  0.068
  0.139  0.781  0.000  0.068  0.012
  0.013  0.067  0.000  0.780  0.140
  0.067  0.013  0.000  0.140  0.780
    occupations:
  0.380  0.000  0.000  0.000  0.000
  0.000  0.359  0.000  0.000  0.012
  0.000  0.000  0.359  0.012  0.000
  0.000  0.000  0.012  0.397  0.000
  0.000  0.012  0.000  0.000  0.397
atom    5   Tr[ns(na)] =   5.43670
    eigenvalues: 
  0.838  0.931  0.950
    eigenvectors:
  0.336  0.000  0.664
  0.497  0.251  0.252
  0.167  0.749  0.085
    occupations:
  0.912 -0.046  0.027
 -0.046  0.889  0.024
  0.027  0.024  0.917
atom    6   Tr[ns(na)] =   5.43670
    eigenvalues: 
  0.838  0.931  0.950
    eigenvectors:
  0.336  0.000  0.664
  0.499  0.249  0.253
  0.165  0.751  0.083
    occupations:
  0.912  0.046  0.026
  0.046  0.889 -0.024
  0.026 -0.024  0.917
atom    7   Tr[ns(na)] =   5.43670
    eigenvalues: 
  0.838  0.931  0.950
    eigenvectors:
  0.336  0.000  0.664
  0.000  1.000  0.000
  0.664  0.000  0.336
    occupations:
  0.912  0.000 -0.053
  0.000  0.931  0.000
 -0.053  0.000  0.875
atom    8   Tr[ns(na)] =   5.43660
    eigenvalues: 
  0.838  0.931  0.950
    eigenvectors:
  0.336  0.000  0.664
  0.497  0.251  0.252
  0.167  0.749  0.085
    occupations:
  0.912 -0.046  0.027
 -0.046  0.889  0.024
  0.027  0.024  0.917
atom    9   Tr[ns(na)] =   5.43660
    eigenvalues: 
  0.838  0.931  0.950
    eigenvectors:
  0.336  0.000  0.664
  0.499  0.249  0.253
  0.165  0.751  0.084
    occupations:
  0.912  0.046  0.026
  0.046  0.889 -0.024
  0.026 -0.024  0.917
atom   10   Tr[ns(na)] =   5.43660
    eigenvalues: 
  0.838  0.931  0.950
    eigenvectors:
  0.336  0.000  0.664
  0.000  1.000  0.000
  0.664  0.000  0.336
    occupations:
  0.912  0.000 -0.053
  0.000  0.931  0.000
 -0.053  0.000  0.875
N of occupied +U levels =  56.2858755
 --- exit write_ns ---
 --- in v_hubbard ---
Hubbard energy    0.5586
 -------

     total cpu time spent up to now is       73.1 secs

     total energy              =    -537.72988781 Ry
     Harris-Foulkes estimate   =    -537.72157697 Ry
     estimated scf accuracy    <       0.02244392 Ry

     iteration #  4     ecut=    30.00 Ry     beta=0.20
     Davidson diagonalization with overlap
     ethr =  2.95E-05,  avg # of iterations =  2.0
 --- enter write_ns ---
 LDA+U parameters:
U( 1)     =  7.00000000
alpha( 1) =  0.00000000
U( 2)     =  0.00000000
alpha( 2) =  0.15000000
U( 3)     =  0.00000000
alpha( 3) =  0.00000000
U( 4)     =  0.00000000
alpha( 4) =  0.00000000
atom    1   Tr[ns(na)] =   8.09147
    eigenvalues: 
  0.525  0.525  0.998  0.998  1.000
    eigenvectors:
  0.000  0.000  0.000  0.000  1.000
  0.339  0.319  0.002  0.339  0.000
  0.319  0.339  0.339  0.002  0.000
  0.287  0.055  0.520  0.138  0.000
  0.055  0.287  0.138  0.520  0.000
    occupations:
  1.000  0.000  0.000  0.000  0.000
  0.000  0.687  0.000 -0.085  0.207
  0.000  0.000  0.687  0.207  0.085
  0.000 -0.085  0.207  0.836  0.000
  0.000  0.207  0.085  0.000  0.836
atom    2   Tr[ns(na)] =   8.08709
    eigenvalues: 
  0.524  0.524  0.998  0.998  1.000
    eigenvectors:
  0.000  0.000  0.000  0.000  1.000
  0.639  0.019  0.224  0.118  0.000
  0.019  0.639  0.118  0.224  0.000
  0.016  0.326  0.474  0.184  0.000
  0.326  0.016  0.184  0.474  0.000
    occupations:
  1.000  0.000  0.000  0.000  0.000
  0.000  0.686  0.000  0.085  0.208
  0.000  0.000  0.686  0.208 -0.085
  0.000  0.085  0.208  0.836  0.000
  0.000  0.208 -0.085  0.000  0.836
atom    3   Tr[ns(na)] =   3.76360
    eigenvalues: 
  0.353  0.353  0.378  0.398  0.398
    eigenvectors:
  0.000  0.000  1.000  0.000  0.000
  0.784  0.139  0.000  0.011  0.067
  0.139  0.784  0.000  0.067  0.011
  0.012  0.066  0.000  0.782  0.140
  0.066  0.012  0.000  0.140  0.782
    occupations:
  0.378  0.000  0.000  0.000  0.000
  0.000  0.357  0.000  0.000  0.012
  0.000  0.000  0.357  0.012  0.000
  0.000  0.000  0.012  0.395  0.000
  0.000  0.012  0.000  0.000  0.395
atom    4   Tr[ns(na)] =   3.80298
    eigenvalues: 
  0.358  0.358  0.382  0.402  0.402
    eigenvectors:
  0.000  0.000  1.000  0.000  0.000
  0.786  0.138  0.000  0.011  0.065
  0.138  0.786  0.000  0.065  0.011
  0.012  0.064  0.000  0.784  0.140
  0.064  0.012  0.000  0.140  0.784
    occupations:
  0.382  0.000  0.000  0.000  0.000
  0.000  0.361  0.000  0.000  0.012
  0.000  0.000  0.361  0.012  0.000
  0.000  0.000  0.012  0.399  0.000
  0.000  0.012  0.000  0.000  0.399
atom    5   Tr[ns(na)] =   5.42171
    eigenvalues: 
  0.834  0.929  0.948
    eigenvectors:
  0.337  0.000  0.663
  0.497  0.251  0.252
  0.166  0.749  0.085
    occupations:
  0.909 -0.046  0.027
 -0.046  0.887  0.025
  0.027  0.025  0.915
atom    6   Tr[ns(na)] =   5.42171
    eigenvalues: 
  0.834  0.929  0.948
    eigenvectors:
  0.337  0.000  0.663
  0.498  0.249  0.253
  0.165  0.751  0.084
    occupations:
  0.909  0.047  0.027
  0.047  0.886 -0.025
  0.027 -0.025  0.915
atom    7   Tr[ns(na)] =   5.42171
    eigenvalues: 
  0.834  0.929  0.948
    eigenvectors:
  0.337  0.000  0.663
  0.000  1.000  0.000
  0.663  0.000  0.337
    occupations:
  0.909  0.000 -0.054
  0.000  0.929  0.000
 -0.054  0.000  0.872
atom    8   Tr[ns(na)] =   5.42187
    eigenvalues: 
  0.834  0.929  0.948
    eigenvectors:
  0.337  0.000  0.663
  0.496  0.251  0.252
  0.166  0.749  0.085
    occupations:
  0.910 -0.047  0.027
 -0.047  0.887  0.024
  0.027  0.024  0.915
atom    9   Tr[ns(na)] =   5.42187
    eigenvalues: 
  0.834  0.929  0.948
    eigenvectors:
  0.337  0.000  0.663
  0.498  0.249  0.253
  0.165  0.751  0.084
    occupations:
  0.910  0.047  0.027
  0.047  0.887 -0.024
  0.027 -0.024  0.915
atom   10   Tr[ns(na)] =   5.42187
    eigenvalues: 
  0.834  0.929  0.948
    eigenvectors:
  0.337  0.000  0.663
  0.000  1.000  0.000
  0.663  0.000  0.337
    occupations:
  0.910  0.000 -0.054
  0.000  0.929  0.000
 -0.054  0.000  0.872
N of occupied +U levels =  56.2758882
 --- exit write_ns ---
 --- in v_hubbard ---
Hubbard energy    0.5573
 -------

     total cpu time spent up to now is       85.4 secs

     total energy              =    -537.73199286 Ry
     Harris-Foulkes estimate   =    -537.73233791 Ry
     estimated scf accuracy    <       0.00350981 Ry

     iteration #  5     ecut=    30.00 Ry     beta=0.20
     Davidson diagonalization with overlap
     ethr =  4.62E-06,  avg # of iterations =  1.0
 --- enter write_ns ---
 LDA+U parameters:
U( 1)     =  7.00000000
alpha( 1) =  0.00000000
U( 2)     =  0.00000000
alpha( 2) =  0.15000000
U( 3)     =  0.00000000
alpha( 3) =  0.00000000
U( 4)     =  0.00000000
alpha( 4) =  0.00000000
atom    1   Tr[ns(na)] =   8.06747
    eigenvalues: 
  0.519  0.519  0.998  0.998  1.000
    eigenvectors:
  0.000  0.000  0.000  0.000  1.000
  0.340  0.318  0.002  0.340  0.000
  0.318  0.340  0.340  0.002  0.000
  0.288  0.054  0.520  0.138  0.000
  0.054  0.288  0.138  0.520  0.000
    occupations:
  1.000  0.000  0.000  0.000  0.000
  0.000  0.683  0.000 -0.087  0.210
  0.000  0.000  0.683  0.210  0.087
  0.000 -0.087  0.210  0.834  0.000
  0.000  0.210  0.087  0.000  0.834
atom    2   Tr[ns(na)] =   8.06363
    eigenvalues: 
  0.518  0.518  0.998  0.998  1.000
    eigenvectors:
  0.000  0.000  0.000  0.000  1.000
  0.640  0.018  0.224  0.117  0.000
  0.018  0.640  0.117  0.224  0.000
  0.017  0.325  0.475  0.183  0.000
  0.325  0.017  0.183  0.475  0.000
    occupations:
  1.000  0.000  0.000  0.000  0.000
  0.000  0.682  0.000  0.086  0.211
  0.000  0.000  0.682  0.211 -0.086
  0.000  0.086  0.211  0.834  0.000
  0.000  0.211 -0.086  0.000  0.834
atom    3   Tr[ns(na)] =   3.76165
    eigenvalues: 
  0.353  0.353  0.378  0.398  0.398
    eigenvectors:
  0.000  0.000  1.000  0.000  0.000
  0.782  0.139  0.000  0.012  0.067
  0.139  0.782  0.000  0.067  0.012
  0.012  0.066  0.000  0.781  0.141
  0.066  0.012  0.000  0.141  0.781
    occupations:
  0.378  0.000  0.000  0.000  0.000
  0.000  0.357  0.000  0.000  0.012
  0.000  0.000  0.357  0.012  0.000
  0.000  0.000  0.012  0.395  0.000
  0.000  0.012  0.000  0.000  0.395
atom    4   Tr[ns(na)] =   3.80095
    eigenvalues: 
  0.357  0.357  0.382  0.402  0.402
    eigenvectors:
  0.000  0.000  1.000  0.000  0.000
  0.785  0.138  0.000  0.011  0.066
  0.138  0.785  0.000  0.066  0.011
  0.012  0.065  0.000  0.783  0.140
  0.065  0.012  0.000  0.140  0.783
    occupations:
  0.382  0.000  0.000  0.000  0.000
  0.000  0.361  0.000  0.000  0.012
  0.000  0.000  0.361  0.012  0.000
  0.000  0.000  0.012  0.399  0.000
  0.000  0.012  0.000  0.000  0.399
atom    5   Tr[ns(na)] =   5.42945
    eigenvalues: 
  0.836  0.930  0.948
    eigenvectors:
  0.337  0.000  0.663
  0.497  0.251  0.252
  0.167  0.749  0.085
    occupations:
  0.910 -0.046  0.026
 -0.046  0.888  0.024
  0.026  0.024  0.916
atom    6   Tr[ns(na)] =   5.42945
    eigenvalues: 
  0.836  0.930  0.948
    eigenvectors:
  0.337  0.000  0.663
  0.498  0.249  0.253
  0.165  0.751  0.084
    occupations:
  0.910  0.046  0.026
  0.046  0.888 -0.024
  0.026 -0.024  0.916
atom    7   Tr[ns(na)] =   5.42945
    eigenvalues: 
  0.836  0.930  0.948
    eigenvectors:
  0.337  0.000  0.663
  0.000  1.000  0.000
  0.663  0.000  0.337
    occupations:
  0.910  0.000 -0.053
  0.000  0.930  0.000
 -0.053  0.000  0.874
atom    8   Tr[ns(na)] =   5.42950
    eigenvalues: 
  0.836  0.930  0.948
    eigenvectors:
  0.337  0.000  0.663
  0.497  0.251  0.252
  0.167  0.749  0.085
    occupations:
  0.911 -0.046  0.027
 -0.046  0.888  0.024
  0.027  0.024  0.916
atom    9   Tr[ns(na)] =   5.42950
    eigenvalues: 
  0.836  0.930  0.948
    eigenvectors:
  0.337  0.000  0.663
  0.498  0.249  0.253
  0.165  0.751  0.084
    occupations:
  0.911  0.046  0.026
  0.046  0.888 -0.024
  0.026 -0.024  0.916
atom   10   Tr[ns(na)] =   5.42950
    eigenvalues: 
  0.836  0.930  0.948
    eigenvectors:
  0.337  0.000  0.663
  0.000  1.000  0.000
  0.663  0.000  0.337
    occupations:
  0.911  0.000 -0.053
  0.000  0.930  0.000
 -0.053  0.000  0.874
N of occupied +U levels =  56.2705667
 --- exit write_ns ---
 --- in v_hubbard ---
Hubbard energy    0.5556
 -------

     total cpu time spent up to now is       98.6 secs

     total energy              =    -537.73210467 Ry
     Harris-Foulkes estimate   =    -537.73220011 Ry
     estimated scf accuracy    <       0.00072419 Ry

     iteration #  6     ecut=    30.00 Ry     beta=0.20
     Davidson diagonalization with overlap
     ethr =  9.53E-07,  avg # of iterations =  2.4
 --- enter write_ns ---
 LDA+U parameters:
U( 1)     =  7.00000000
alpha( 1) =  0.00000000
U( 2)     =  0.00000000
alpha( 2) =  0.15000000
U( 3)     =  0.00000000
alpha( 3) =  0.00000000
U( 4)     =  0.00000000
alpha( 4) =  0.00000000
atom    1   Tr[ns(na)] =   8.05312
    eigenvalues: 
  0.515  0.515  0.998  0.998  1.000
    eigenvectors:
  0.000  0.000  0.000  0.000  1.000
  0.340  0.318  0.002  0.340  0.000
  0.318  0.340  0.340  0.002  0.000
  0.288  0.054  0.521  0.137  0.000
  0.054  0.288  0.137  0.521  0.000
    occupations:
  1.000  0.000  0.000  0.000  0.000
  0.000  0.680  0.000 -0.088  0.211
  0.000  0.000  0.680  0.211  0.088
  0.000 -0.088  0.211  0.833  0.000
  0.000  0.211  0.088  0.000  0.833
atom    2   Tr[ns(na)] =   8.05107
    eigenvalues: 
  0.514  0.514  0.998  0.998  1.000
    eigenvectors:
  0.000  0.000  0.000  0.000  1.000
  0.641  0.018  0.225  0.117  0.000
  0.018  0.641  0.117  0.225  0.000
  0.017  0.324  0.475  0.183  0.000
  0.324  0.017  0.183  0.475  0.000
    occupations:
  1.000  0.000  0.000  0.000  0.000
  0.000  0.680  0.000  0.088  0.212
  0.000  0.000  0.680  0.212 -0.088
  0.000  0.088  0.212  0.833  0.000
  0.000  0.212 -0.088  0.000  0.833
atom    3   Tr[ns(na)] =   3.74767
    eigenvalues: 
  0.351  0.351  0.377  0.397  0.397
    eigenvectors:
  0.000  0.000  1.000  0.000  0.000
  0.778  0.140  0.000  0.012  0.069
  0.140  0.778  0.000  0.069  0.012
  0.013  0.068  0.000  0.778  0.141
  0.068  0.013  0.000  0.141  0.778
    occupations:
  0.377  0.000  0.000  0.000  0.000
  0.000  0.355  0.000  0.000  0.013
  0.000  0.000  0.355  0.013  0.000
  0.000  0.000  0.013  0.394  0.000
  0.000  0.013  0.000  0.000  0.394
atom    4   Tr[ns(na)] =   3.78932
    eigenvalues: 
  0.356  0.356  0.381  0.401  0.401
    eigenvectors:
  0.000  0.000  1.000  0.000  0.000
  0.782  0.139  0.000  0.011  0.067
  0.139  0.782  0.000  0.067  0.011
  0.012  0.066  0.000  0.781  0.140
  0.066  0.012  0.000  0.140  0.781
    occupations:
  0.381  0.000  0.000  0.000  0.000
  0.000  0.359  0.000  0.000  0.012
  0.000  0.000  0.359  0.012  0.000
  0.000  0.000  0.012  0.398  0.000
  0.000  0.012  0.000  0.000  0.398
atom    5   Tr[ns(na)] =   5.43630
    eigenvalues: 
  0.838  0.931  0.949
    eigenvectors:
  0.336  0.000  0.664
  0.497  0.252  0.252
  0.167  0.748  0.085
    occupations:
  0.912 -0.045  0.026
 -0.045  0.889  0.024
  0.026  0.024  0.917
atom    6   Tr[ns(na)] =   5.43630
    eigenvalues: 
  0.838  0.931  0.949
    eigenvectors:
  0.336  0.000  0.664
  0.499  0.248  0.253
  0.165  0.752  0.084
    occupations:
  0.912  0.046  0.026
  0.046  0.889 -0.024
  0.026 -0.024  0.917
atom    7   Tr[ns(na)] =   5.43630
    eigenvalues: 
  0.838  0.931  0.949
    eigenvectors:
  0.336  0.000  0.664
  0.000  1.000  0.000
  0.664  0.000  0.336
    occupations:
  0.912  0.000 -0.053
  0.000  0.931  0.000
 -0.053  0.000  0.875
atom    8   Tr[ns(na)] =   5.43619
    eigenvalues: 
  0.838  0.931  0.949
    eigenvectors:
  0.337  0.000  0.663
  0.497  0.251  0.252
  0.167  0.749  0.085
    occupations:
  0.912 -0.046  0.026
 -0.046  0.889  0.024
  0.026  0.024  0.917
atom    9   Tr[ns(na)] =   5.43619
    eigenvalues: 
  0.838  0.931  0.949
    eigenvectors:
  0.337  0.000  0.663
  0.499  0.249  0.253
  0.165  0.751  0.084
    occupations:
  0.912  0.046  0.026
  0.046  0.889 -0.024
  0.026 -0.024  0.917
atom   10   Tr[ns(na)] =   5.43619
    eigenvalues: 
  0.838  0.931  0.949
    eigenvectors:
  0.337  0.000  0.663
  0.000  1.000  0.000
  0.663  0.000  0.337
    occupations:
  0.912  0.000 -0.053
  0.000  0.931  0.000
 -0.053  0.000  0.875
N of occupied +U levels =  56.2586442
 --- exit write_ns ---
 --- in v_hubbard ---
Hubbard energy    0.5556
 -------

     total cpu time spent up to now is      117.1 secs

     total energy              =    -537.73236027 Ry
     Harris-Foulkes estimate   =    -537.73225358 Ry
     estimated scf accuracy    <       0.00008201 Ry

     iteration #  7     ecut=    30.00 Ry     beta=0.20
     Davidson diagonalization with overlap
     ethr =  1.08E-07,  avg # of iterations =  1.8
 --- enter write_ns ---
 LDA+U parameters:
U( 1)     =  7.00000000
alpha( 1) =  0.00000000
U( 2)     =  0.00000000
alpha( 2) =  0.15000000
U( 3)     =  0.00000000
alpha( 3) =  0.00000000
U( 4)     =  0.00000000
alpha( 4) =  0.00000000
atom    1   Tr[ns(na)] =   8.04847
    eigenvalues: 
  0.514  0.514  0.998  0.998  1.000
    eigenvectors:
  0.000  0.000  0.000  0.000  1.000
  0.340  0.318  0.002  0.340  0.000
  0.318  0.340  0.340  0.002  0.000
  0.288  0.054  0.521  0.137  0.000
  0.054  0.288  0.137  0.521  0.000
    occupations:
  1.000  0.000  0.000  0.000  0.000
  0.000  0.679  0.000 -0.088  0.212
  0.000  0.000  0.679  0.212  0.088
  0.000 -0.088  0.212  0.833  0.000
  0.000  0.212  0.088  0.000  0.833
atom    2   Tr[ns(na)] =   8.04485
    eigenvalues: 
  0.513  0.513  0.998  0.998  1.000
    eigenvectors:
  0.000  0.000  0.000  0.000  1.000
  0.641  0.017  0.226  0.116  0.000
  0.017  0.641  0.116  0.226  0.000
  0.018  0.324  0.475  0.183  0.000
  0.324  0.018  0.183  0.475  0.000
    occupations:
  1.000  0.000  0.000  0.000  0.000
  0.000  0.679  0.000  0.088  0.213
  0.000  0.000  0.679  0.213 -0.088
  0.000  0.088  0.213  0.832  0.000
  0.000  0.213 -0.088  0.000  0.832
atom    3   Tr[ns(na)] =   3.74865
    eigenvalues: 
  0.351  0.351  0.377  0.397  0.397
    eigenvectors:
  0.000  0.000  1.000  0.000  0.000
  0.779  0.140  0.000  0.012  0.069
  0.140  0.779  0.000  0.069  0.012
  0.013  0.068  0.000  0.778  0.141
  0.068  0.013  0.000  0.141  0.778
    occupations:
  0.377  0.000  0.000  0.000  0.000
  0.000  0.355  0.000  0.000  0.013
  0.000  0.000  0.355  0.013  0.000
  0.000  0.000  0.013  0.394  0.000
  0.000  0.013  0.000  0.000  0.394
atom    4   Tr[ns(na)] =   3.79036
    eigenvalues: 
  0.356  0.356  0.381  0.401  0.401
    eigenvectors:
  0.000  0.000  1.000  0.000  0.000
  0.783  0.139  0.000  0.011  0.067
  0.139  0.783  0.000  0.067  0.011
  0.012  0.066  0.000  0.781  0.140
  0.066  0.012  0.000  0.140  0.781
    occupations:
  0.381  0.000  0.000  0.000  0.000
  0.000  0.360  0.000  0.000  0.012
  0.000  0.000  0.360  0.012  0.000
  0.000  0.000  0.012  0.398  0.000
  0.000  0.012  0.000  0.000  0.398
atom    5   Tr[ns(na)] =   5.43772
    eigenvalues: 
  0.838  0.932  0.949
    eigenvectors:
  0.336  0.000  0.664
  0.497  0.251  0.252
  0.167  0.749  0.085
    occupations:
  0.912 -0.045  0.026
 -0.045  0.890  0.024
  0.026  0.024  0.917
atom    6   Tr[ns(na)] =   5.43772
    eigenvalues: 
  0.838  0.932  0.949
    eigenvectors:
  0.336  0.000  0.664
  0.499  0.249  0.253
  0.165  0.751  0.084
    occupations:
  0.912  0.045  0.026
  0.045  0.889 -0.024
  0.026 -0.024  0.918
atom    7   Tr[ns(na)] =   5.43772
    eigenvalues: 
  0.838  0.932  0.949
    eigenvectors:
  0.336  0.000  0.664
  0.000  1.000  0.000
  0.664  0.000  0.336
    occupations:
  0.912  0.000 -0.052
  0.000  0.932  0.000
 -0.052  0.000  0.876
atom    8   Tr[ns(na)] =   5.43763
    eigenvalues: 
  0.838  0.931  0.949
    eigenvectors:
  0.336  0.000  0.664
  0.497  0.251  0.252
  0.167  0.749  0.085
    occupations:
  0.912 -0.045  0.026
 -0.045  0.890  0.024
  0.026  0.024  0.917
atom    9   Tr[ns(na)] =   5.43763
    eigenvalues: 
  0.838  0.931  0.949
    eigenvectors:
  0.336  0.000  0.664
  0.498  0.249  0.253
  0.165  0.751  0.084
    occupations:
  0.912  0.046  0.026
  0.046  0.889 -0.024
  0.026 -0.024  0.917
atom   10   Tr[ns(na)] =   5.43763
    eigenvalues: 
  0.838  0.931  0.949
    eigenvectors:
  0.336  0.000  0.664
  0.000  1.000  0.000
  0.664  0.000  0.336
    occupations:
  0.912  0.000 -0.053
  0.000  0.931  0.000
 -0.053  0.000  0.876
N of occupied +U levels =  56.2583674
 --- exit write_ns ---
 --- in v_hubbard ---
Hubbard energy    0.5574
 -------

     total cpu time spent up to now is      132.6 secs

     total energy              =    -537.73243427 Ry
     Harris-Foulkes estimate   =    -537.73237023 Ry
     estimated scf accuracy    <       0.00012593 Ry

     iteration #  8     ecut=    30.00 Ry     beta=0.20
     Davidson diagonalization with overlap
     ethr =  1.08E-07,  avg # of iterations =  2.0
 --- enter write_ns ---
 LDA+U parameters:
U( 1)     =  7.00000000
alpha( 1) =  0.00000000
U( 2)     =  0.00000000
alpha( 2) =  0.15000000
U( 3)     =  0.00000000
alpha( 3) =  0.00000000
U( 4)     =  0.00000000
alpha( 4) =  0.00000000
atom    1   Tr[ns(na)] =   8.04825
    eigenvalues: 
  0.514  0.514  0.998  0.998  1.000
    eigenvectors:
  0.000  0.000  0.000  0.000  1.000
  0.341  0.318  0.002  0.340  0.000
  0.318  0.341  0.340  0.002  0.000
  0.289  0.053  0.521  0.137  0.000
  0.053  0.289  0.137  0.521  0.000
    occupations:
  1.000  0.000  0.000  0.000  0.000
  0.000  0.679  0.000 -0.089  0.212
  0.000  0.000  0.679  0.212  0.089
  0.000 -0.089  0.212  0.833  0.000
  0.000  0.212  0.089  0.000  0.833
atom    2   Tr[ns(na)] =   8.04736
    eigenvalues: 
  0.513  0.513  0.998  0.998  1.000
    eigenvectors:
  0.000  0.000  0.000  0.000  1.000
  0.641  0.017  0.226  0.116  0.000
  0.017  0.641  0.116  0.226  0.000
  0.018  0.323  0.475  0.183  0.000
  0.323  0.018  0.183  0.475  0.000
    occupations:
  1.000  0.000  0.000  0.000  0.000
  0.000  0.679  0.000  0.088  0.212
  0.000  0.000  0.679  0.212 -0.088
  0.000  0.088  0.212  0.833  0.000
  0.000  0.212 -0.088  0.000  0.833
atom    3   Tr[ns(na)] =   3.75085
    eigenvalues: 
  0.352  0.352  0.377  0.398  0.398
    eigenvectors:
  0.000  0.000  1.000  0.000  0.000
  0.779  0.140  0.000  0.012  0.069
  0.140  0.779  0.000  0.069  0.012
  0.013  0.068  0.000  0.779  0.141
  0.068  0.013  0.000  0.141  0.779
    occupations:
  0.377  0.000  0.000  0.000  0.000
  0.000  0.355  0.000  0.000  0.012
  0.000  0.000  0.355  0.012  0.000
  0.000  0.000  0.012  0.394  0.000
  0.000  0.012  0.000  0.000  0.394
atom    4   Tr[ns(na)] =   3.79313
    eigenvalues: 
  0.356  0.356  0.381  0.402  0.402
    eigenvectors:
  0.000  0.000  1.000  0.000  0.000
  0.783  0.139  0.000  0.011  0.067
  0.139  0.783  0.000  0.067  0.011
  0.012  0.066  0.000  0.782  0.140
  0.066  0.012  0.000  0.140  0.782
    occupations:
  0.381  0.000  0.000  0.000  0.000
  0.000  0.360  0.000  0.000  0.012
  0.000  0.000  0.360  0.012  0.000
  0.000  0.000  0.012  0.398  0.000
  0.000  0.012  0.000  0.000  0.398
atom    5   Tr[ns(na)] =   5.43666
    eigenvalues: 
  0.838  0.931  0.949
    eigenvectors:
  0.336  0.000  0.664
  0.497  0.252  0.252
  0.167  0.748  0.085
    occupations:
  0.912 -0.045  0.026
 -0.045  0.889  0.024
  0.026  0.024  0.917
atom    6   Tr[ns(na)] =   5.43666
    eigenvalues: 
  0.838  0.931  0.949
    eigenvectors:
  0.336  0.000  0.664
  0.499  0.248  0.253
  0.165  0.752  0.084
    occupations:
  0.912  0.045  0.026
  0.045  0.889 -0.024
  0.026 -0.024  0.917
atom    7   Tr[ns(na)] =   5.43666
    eigenvalues: 
  0.838  0.931  0.949
    eigenvectors:
  0.336  0.000  0.664
  0.000  1.000  0.000
  0.664  0.000  0.336
    occupations:
  0.912  0.000 -0.052
  0.000  0.931  0.000
 -0.052  0.000  0.875
atom    8   Tr[ns(na)] =   5.43662
    eigenvalues: 
  0.838  0.931  0.949
    eigenvectors:
  0.337  0.000  0.663
  0.496  0.252  0.252
  0.167  0.748  0.085
    occupations:
  0.912 -0.045  0.026
 -0.045  0.889  0.024
  0.026  0.024  0.917
atom    9   Tr[ns(na)] =   5.43662
    eigenvalues: 
  0.838  0.931  0.949
    eigenvectors:
  0.337  0.000  0.663
  0.499  0.248  0.253
  0.165  0.752  0.084
    occupations:
  0.912  0.046  0.026
  0.046  0.889 -0.024
  0.026 -0.024  0.917
atom   10   Tr[ns(na)] =   5.43662
    eigenvalues: 
  0.838  0.931  0.949
    eigenvectors:
  0.337  0.000  0.663
  0.000  1.000  0.000
  0.663  0.000  0.337
    occupations:
  0.912  0.000 -0.053
  0.000  0.931  0.000
 -0.053  0.000  0.876
N of occupied +U levels =  56.2594521
 --- exit write_ns ---
 --- in v_hubbard ---
Hubbard energy    0.5586
 -------

     total cpu time spent up to now is      147.3 secs

     total energy              =    -537.73248900 Ry
     Harris-Foulkes estimate   =    -537.73244216 Ry
     estimated scf accuracy    <       0.00003313 Ry

     iteration #  9     ecut=    30.00 Ry     beta=0.20
     Davidson diagonalization with overlap
     ethr =  4.36E-08,  avg # of iterations =  1.7
 --- enter write_ns ---
 LDA+U parameters:
U( 1)     =  7.00000000
alpha( 1) =  0.00000000
U( 2)     =  0.00000000
alpha( 2) =  0.15000000
U( 3)     =  0.00000000
alpha( 3) =  0.00000000
U( 4)     =  0.00000000
alpha( 4) =  0.00000000
atom    1   Tr[ns(na)] =   8.05189
    eigenvalues: 
  0.515  0.515  0.998  0.998  1.000
    eigenvectors:
  0.000  0.000  0.000  0.000  1.000
  0.341  0.317  0.002  0.340  0.000
  0.317  0.341  0.340  0.002  0.000
  0.289  0.053  0.521  0.137  0.000
  0.053  0.289  0.137  0.521  0.000
    occupations:
  1.000  0.000  0.000  0.000  0.000
  0.000  0.680  0.000 -0.089  0.211
  0.000  0.000  0.680  0.211  0.089
  0.000 -0.089  0.211  0.833  0.000
  0.000  0.211  0.089  0.000  0.833
atom    2   Tr[ns(na)] =   8.04862
    eigenvalues: 
  0.514  0.514  0.998  0.998  1.000
    eigenvectors:
  0.000  0.000  0.000  0.000  1.000
  0.642  0.016  0.227  0.115  0.000
  0.016  0.642  0.115  0.227  0.000
  0.019  0.323  0.475  0.183  0.000
  0.323  0.019  0.183  0.475  0.000
    occupations:
  1.000  0.000  0.000  0.000  0.000
  0.000  0.679  0.000  0.089  0.212
  0.000  0.000  0.679  0.212 -0.089
  0.000  0.089  0.212  0.833  0.000
  0.000  0.212 -0.089  0.000  0.833
atom    3   Tr[ns(na)] =   3.75103
    eigenvalues: 
  0.352  0.352  0.377  0.398  0.398
    eigenvectors:
  0.000  0.000  1.000  0.000  0.000
  0.779  0.140  0.000  0.012  0.069
  0.140  0.779  0.000  0.069  0.012
  0.013  0.068  0.000  0.779  0.141
  0.068  0.013  0.000  0.141  0.779
    occupations:
  0.377  0.000  0.000  0.000  0.000
  0.000  0.355  0.000  0.000  0.012
  0.000  0.000  0.355  0.012  0.000
  0.000  0.000  0.012  0.394  0.000
  0.000  0.012  0.000  0.000  0.394
atom    4   Tr[ns(na)] =   3.79350
    eigenvalues: 
  0.356  0.356  0.381  0.402  0.402
    eigenvectors:
  0.000  0.000  1.000  0.000  0.000
  0.782  0.139  0.000  0.011  0.067
  0.139  0.782  0.000  0.067  0.011
  0.012  0.066  0.000  0.781  0.140
  0.066  0.012  0.000  0.140  0.781
    occupations:
  0.381  0.000  0.000  0.000  0.000
  0.000  0.360  0.000  0.000  0.012
  0.000  0.000  0.360  0.012  0.000
  0.000  0.000  0.012  0.398  0.000
  0.000  0.012  0.000  0.000  0.398
atom    5   Tr[ns(na)] =   5.43577
    eigenvalues: 
  0.838  0.931  0.949
    eigenvectors:
  0.337  0.000  0.663
  0.497  0.251  0.252
  0.167  0.749  0.085
    occupations:
  0.911 -0.045  0.026
 -0.045  0.889  0.024
  0.026  0.024  0.917
atom    6   Tr[ns(na)] =   5.43577
    eigenvalues: 
  0.838  0.931  0.949
    eigenvectors:
  0.337  0.000  0.663
  0.498  0.249  0.253
  0.165  0.751  0.084
    occupations:
  0.911  0.045  0.026
  0.045  0.889 -0.024
  0.026 -0.024  0.917
atom    7   Tr[ns(na)] =   5.43577
    eigenvalues: 
  0.838  0.931  0.949
    eigenvectors:
  0.337  0.000  0.663
  0.000  1.000  0.000
  0.663  0.000  0.337
    occupations:
  0.911  0.000 -0.052
  0.000  0.931  0.000
 -0.052  0.000  0.875
atom    8   Tr[ns(na)] =   5.43573
    eigenvalues: 
  0.838  0.931  0.949
    eigenvectors:
  0.337  0.000  0.663
  0.497  0.251  0.252
  0.167  0.749  0.085
    occupations:
  0.912 -0.046  0.026
 -0.046  0.889  0.024
  0.026  0.024  0.917
atom    9   Tr[ns(na)] =   5.43573
    eigenvalues: 
  0.838  0.931  0.949
    eigenvectors:
  0.337  0.000  0.663
  0.498  0.249  0.253
  0.165  0.751  0.084
    occupations:
  0.912  0.046  0.026
  0.046  0.889 -0.024
  0.026 -0.024  0.917
atom   10   Tr[ns(na)] =   5.43573
    eigenvalues: 
  0.838  0.931  0.949
    eigenvectors:
  0.337  0.000  0.663
  0.000  1.000  0.000
  0.663  0.000  0.337
    occupations:
  0.912  0.000 -0.053
  0.000  0.931  0.000
 -0.053  0.000  0.875
N of occupied +U levels =  56.2595412
 --- exit write_ns ---
 --- in v_hubbard ---
Hubbard energy    0.5587
 -------

     total cpu time spent up to now is      159.0 secs

     total energy              =    -537.73252318 Ry
     Harris-Foulkes estimate   =    -537.73249286 Ry
     estimated scf accuracy    <       0.00000651 Ry

     iteration # 10     ecut=    30.00 Ry     beta=0.20
     Davidson diagonalization with overlap
     ethr =  8.56E-09,  avg # of iterations =  2.0
 --- enter write_ns ---
 LDA+U parameters:
U( 1)     =  7.00000000
alpha( 1) =  0.00000000
U( 2)     =  0.00000000
alpha( 2) =  0.15000000
U( 3)     =  0.00000000
alpha( 3) =  0.00000000
U( 4)     =  0.00000000
alpha( 4) =  0.00000000
atom    1   Tr[ns(na)] =   8.05101
    eigenvalues: 
  0.515  0.515  0.998  0.998  1.000
    eigenvectors:
  0.000  0.000  0.000  0.000  1.000
  0.341  0.317  0.002  0.340  0.000
  0.317  0.341  0.340  0.002  0.000
  0.289  0.053  0.521  0.137  0.000
  0.053  0.289  0.137  0.521  0.000
    occupations:
  1.000  0.000  0.000  0.000  0.000
  0.000  0.680  0.000 -0.089  0.211
  0.000  0.000  0.680  0.211  0.089
  0.000 -0.089  0.211  0.833  0.000
  0.000  0.211  0.089  0.000  0.833
atom    2   Tr[ns(na)] =   8.04749
    eigenvalues: 
  0.513  0.513  0.998  0.998  1.000
    eigenvectors:
  0.000  0.000  0.000  0.000  1.000
  0.642  0.016  0.227  0.115  0.000
  0.016  0.642  0.115  0.227  0.000
  0.020  0.322  0.475  0.183  0.000
  0.322  0.020  0.183  0.475  0.000
    occupations:
  1.000  0.000  0.000  0.000  0.000
  0.000  0.679  0.000  0.089  0.212
  0.000  0.000  0.679  0.212 -0.089
  0.000  0.089  0.212  0.833  0.000
  0.000  0.212 -0.089  0.000  0.833
atom    3   Tr[ns(na)] =   3.75047
    eigenvalues: 
  0.352  0.352  0.377  0.398  0.398
    eigenvectors:
  0.000  0.000  1.000  0.000  0.000
  0.779  0.140  0.000  0.012  0.069
  0.140  0.779  0.000  0.069  0.012
  0.013  0.068  0.000  0.778  0.141
  0.068  0.013  0.000  0.141  0.778
    occupations:
  0.377  0.000  0.000  0.000  0.000
  0.000  0.355  0.000  0.000  0.013
  0.000  0.000  0.355  0.013  0.000
  0.000  0.000  0.013  0.394  0.000
  0.000  0.013  0.000  0.000  0.394
atom    4   Tr[ns(na)] =   3.79236
    eigenvalues: 
  0.356  0.356  0.381  0.401  0.401
    eigenvectors:
  0.000  0.000  1.000  0.000  0.000
  0.783  0.139  0.000  0.011  0.067
  0.139  0.783  0.000  0.067  0.011
  0.012  0.066  0.000  0.781  0.140
  0.066  0.012  0.000  0.140  0.781
    occupations:
  0.381  0.000  0.000  0.000  0.000
  0.000  0.360  0.000  0.000  0.012
  0.000  0.000  0.360  0.012  0.000
  0.000  0.000  0.012  0.398  0.000
  0.000  0.012  0.000  0.000  0.398
atom    5   Tr[ns(na)] =   5.43622
    eigenvalues: 
  0.838  0.931  0.949
    eigenvectors:
  0.336  0.000  0.664
  0.497  0.251  0.252
  0.167  0.749  0.085
    occupations:
  0.912 -0.045  0.026
 -0.045  0.889  0.024
  0.026  0.024  0.917
atom    6   Tr[ns(na)] =   5.43622
    eigenvalues: 
  0.838  0.931  0.949
    eigenvectors:
  0.336  0.000  0.664
  0.498  0.249  0.253
  0.165  0.751  0.084
    occupations:
  0.912  0.045  0.026
  0.045  0.889 -0.024
  0.026 -0.024  0.917
atom    7   Tr[ns(na)] =   5.43622
    eigenvalues: 
  0.838  0.931  0.949
    eigenvectors:
  0.336  0.000  0.664
  0.000  1.000  0.000
  0.664  0.000  0.336
    occupations:
  0.912  0.000 -0.052
  0.000  0.931  0.000
 -0.052  0.000  0.875
atom    8   Tr[ns(na)] =   5.43617
    eigenvalues: 
  0.838  0.931  0.949
    eigenvectors:
  0.337  0.000  0.663
  0.497  0.251  0.252
  0.167  0.749  0.085
    occupations:
  0.912 -0.046  0.026
 -0.046  0.889  0.024
  0.026  0.024  0.917
atom    9   Tr[ns(na)] =   5.43617
    eigenvalues: 
  0.838  0.931  0.949
    eigenvectors:
  0.337  0.000  0.663
  0.498  0.249  0.253
  0.165  0.751  0.084
    occupations:
  0.912  0.046  0.026
  0.046  0.889 -0.024
  0.026 -0.024  0.917
atom   10   Tr[ns(na)] =   5.43617
    eigenvalues: 
  0.838  0.931  0.949
    eigenvectors:
  0.337  0.000  0.663
  0.000  1.000  0.000
  0.663  0.000  0.337
    occupations:
  0.912  0.000 -0.053
  0.000  0.931  0.000
 -0.053  0.000  0.875
N of occupied +U levels =  56.2585014
 --- exit write_ns ---
 --- in v_hubbard ---
Hubbard energy    0.5592
 -------

     total cpu time spent up to now is      172.5 secs

     total energy              =    -537.73254884 Ry
     Harris-Foulkes estimate   =    -537.73252564 Ry
     estimated scf accuracy    <       0.00000270 Ry

     iteration # 11     ecut=    30.00 Ry     beta=0.20
     Davidson diagonalization with overlap
     ethr =  3.56E-09,  avg # of iterations =  1.8
 --- enter write_ns ---
 LDA+U parameters:
U( 1)     =  7.00000000
alpha( 1) =  0.00000000
U( 2)     =  0.00000000
alpha( 2) =  0.15000000
U( 3)     =  0.00000000
alpha( 3) =  0.00000000
U( 4)     =  0.00000000
alpha( 4) =  0.00000000
atom    1   Tr[ns(na)] =   8.05114
    eigenvalues: 
  0.515  0.515  0.998  0.998  1.000
    eigenvectors:
  0.000  0.000  0.000  0.000  1.000
  0.342  0.317  0.002  0.340  0.000
  0.317  0.342  0.340  0.002  0.000
  0.289  0.053  0.522  0.136  0.000
  0.053  0.289  0.136  0.522  0.000
    occupations:
  1.000  0.000  0.000  0.000  0.000
  0.000  0.680  0.000 -0.090  0.211
  0.000  0.000  0.680  0.211  0.090
  0.000 -0.090  0.211  0.833  0.000
  0.000  0.211  0.090  0.000  0.833
atom    2   Tr[ns(na)] =   8.04794
    eigenvalues: 
  0.513  0.513  0.998  0.998  1.000
    eigenvectors:
  0.000  0.000  0.000  0.000  1.000
  0.642  0.016  0.228  0.114  0.000
  0.016  0.642  0.114  0.228  0.000
  0.020  0.322  0.475  0.183  0.000
  0.322  0.020  0.183  0.475  0.000
    occupations:
  1.000  0.000  0.000  0.000  0.000
  0.000  0.679  0.000  0.089  0.212
  0.000  0.000  0.679  0.212 -0.089
  0.000  0.089  0.212  0.833  0.000
  0.000  0.212 -0.089  0.000  0.833
atom    3   Tr[ns(na)] =   3.75101
    eigenvalues: 
  0.352  0.352  0.377  0.398  0.398
    eigenvectors:
  0.000  0.000  1.000  0.000  0.000
  0.779  0.140  0.000  0.012  0.069
  0.140  0.779  0.000  0.069  0.012
  0.013  0.068  0.000  0.778  0.141
  0.068  0.013  0.000  0.141  0.778
    occupations:
  0.377  0.000  0.000  0.000  0.000
  0.000  0.355  0.000  0.000  0.012
  0.000  0.000  0.355  0.012  0.000
  0.000  0.000  0.012  0.394  0.000
  0.000  0.012  0.000  0.000  0.394
atom    4   Tr[ns(na)] =   3.79282
    eigenvalues: 
  0.356  0.356  0.381  0.401  0.401
    eigenvectors:
  0.000  0.000  1.000  0.000  0.000
  0.782  0.139  0.000  0.011  0.067
  0.139  0.782  0.000  0.067  0.011
  0.012  0.066  0.000  0.781  0.140
  0.066  0.012  0.000  0.140  0.781
    occupations:
  0.381  0.000  0.000  0.000  0.000
  0.000  0.360  0.000  0.000  0.012
  0.000  0.000  0.360  0.012  0.000
  0.000  0.000  0.012  0.398  0.000
  0.000  0.012  0.000  0.000  0.398
atom    5   Tr[ns(na)] =   5.43602
    eigenvalues: 
  0.838  0.931  0.949
    eigenvectors:
  0.336  0.000  0.664
  0.497  0.251  0.252
  0.167  0.749  0.085
    occupations:
  0.912 -0.045  0.026
 -0.045  0.889  0.024
  0.026  0.024  0.917
atom    6   Tr[ns(na)] =   5.43602
    eigenvalues: 
  0.838  0.931  0.949
    eigenvectors:
  0.336  0.000  0.664
  0.498  0.249  0.253
  0.165  0.751  0.084
    occupations:
  0.912  0.045  0.026
  0.045  0.889 -0.024
  0.026 -0.024  0.917
atom    7   Tr[ns(na)] =   5.43602
    eigenvalues: 
  0.838  0.931  0.949
    eigenvectors:
  0.336  0.000  0.664
  0.000  1.000  0.000
  0.664  0.000  0.336
    occupations:
  0.912  0.000 -0.052
  0.000  0.931  0.000
 -0.052  0.000  0.875
atom    8   Tr[ns(na)] =   5.43597
    eigenvalues: 
  0.838  0.931  0.949
    eigenvectors:
  0.337  0.000  0.663
  0.497  0.251  0.252
  0.167  0.749  0.085
    occupations:
  0.912 -0.046  0.026
 -0.046  0.889  0.024
  0.026  0.024  0.917
atom    9   Tr[ns(na)] =   5.43597
    eigenvalues: 
  0.838  0.931  0.949
    eigenvectors:
  0.337  0.000  0.663
  0.498  0.249  0.253
  0.165  0.751  0.084
    occupations:
  0.912  0.046  0.026
  0.046  0.889 -0.024
  0.026 -0.024  0.917
atom   10   Tr[ns(na)] =   5.43597
    eigenvalues: 
  0.838  0.931  0.949
    eigenvectors:
  0.337  0.000  0.663
  0.000  1.000  0.000
  0.663  0.000  0.337
    occupations:
  0.912  0.000 -0.053
  0.000  0.931  0.000
 -0.053  0.000  0.875
N of occupied +U levels =  56.2588897
 --- exit write_ns ---
 --- in v_hubbard ---
Hubbard energy    0.5590
 -------

     total cpu time spent up to now is      184.6 secs

     total energy              =    -537.73256205 Ry
     Harris-Foulkes estimate   =    -537.73254936 Ry
     estimated scf accuracy    <       0.00000167 Ry

     iteration # 12     ecut=    30.00 Ry     beta=0.20
     Davidson diagonalization with overlap
     ethr =  2.20E-09,  avg # of iterations =  2.0
 --- enter write_ns ---
 LDA+U parameters:
U( 1)     =  7.00000000
alpha( 1) =  0.00000000
U( 2)     =  0.00000000
alpha( 2) =  0.15000000
U( 3)     =  0.00000000
alpha( 3) =  0.00000000
U( 4)     =  0.00000000
alpha( 4) =  0.00000000
atom    1   Tr[ns(na)] =   8.05074
    eigenvalues: 
  0.514  0.514  0.998  0.998  1.000
    eigenvectors:
  0.000  0.000  0.000  0.000  1.000
  0.343  0.316  0.002  0.340  0.000
  0.316  0.343  0.340  0.002  0.000
  0.289  0.052  0.522  0.136  0.000
  0.052  0.289  0.136  0.522  0.000
    occupations:
  1.000  0.000  0.000  0.000  0.000
  0.000  0.680  0.000 -0.090  0.211
  0.000  0.000  0.680  0.211  0.090
  0.000 -0.090  0.211  0.833  0.000
  0.000  0.211  0.090  0.000  0.833
atom    2   Tr[ns(na)] =   8.04746
    eigenvalues: 
  0.513  0.513  0.998  0.998  1.000
    eigenvectors:
  0.000  0.000  0.000  0.000  1.000
  0.643  0.015  0.228  0.114  0.000
  0.015  0.643  0.114  0.228  0.000
  0.021  0.321  0.475  0.183  0.000
  0.321  0.021  0.183  0.475  0.000
    occupations:
  1.000  0.000  0.000  0.000  0.000
  0.000  0.679  0.000  0.090  0.212
  0.000  0.000  0.679  0.212 -0.090
  0.000  0.090  0.212  0.833  0.000
  0.000  0.212 -0.090  0.000  0.833
atom    3   Tr[ns(na)] =   3.75113
    eigenvalues: 
  0.352  0.352  0.377  0.398  0.398
    eigenvectors:
  0.000  0.000  1.000  0.000  0.000
  0.779  0.140  0.000  0.012  0.069
  0.140  0.779  0.000  0.069  0.012
  0.013  0.068  0.000  0.778  0.141
  0.068  0.013  0.000  0.141  0.778
    occupations:
  0.377  0.000  0.000  0.000  0.000
  0.000  0.355  0.000  0.000  0.012
  0.000  0.000  0.355  0.012  0.000
  0.000  0.000  0.012  0.394  0.000
  0.000  0.012  0.000  0.000  0.394
atom    4   Tr[ns(na)] =   3.79339
    eigenvalues: 
  0.356  0.356  0.381  0.402  0.402
    eigenvectors:
  0.000  0.000  1.000  0.000  0.000
  0.783  0.139  0.000  0.011  0.067
  0.139  0.783  0.000  0.067  0.011
  0.012  0.066  0.000  0.781  0.140
  0.066  0.012  0.000  0.140  0.781
    occupations:
  0.381  0.000  0.000  0.000  0.000
  0.000  0.360  0.000  0.000  0.012
  0.000  0.000  0.360  0.012  0.000
  0.000  0.000  0.012  0.398  0.000
  0.000  0.012  0.000  0.000  0.398
atom    5   Tr[ns(na)] =   5.43609
    eigenvalues: 
  0.838  0.931  0.949
    eigenvectors:
  0.336  0.000  0.664
  0.497  0.251  0.252
  0.167  0.749  0.085
    occupations:
  0.911 -0.045  0.026
 -0.045  0.889  0.024
  0.026  0.024  0.917
atom    6   Tr[ns(na)] =   5.43609
    eigenvalues: 
  0.838  0.931  0.949
    eigenvectors:
  0.336  0.000  0.664
  0.498  0.249  0.253
  0.165  0.751  0.084
    occupations:
  0.911  0.045  0.026
  0.045  0.889 -0.024
  0.026 -0.024  0.917
atom    7   Tr[ns(na)] =   5.43609
    eigenvalues: 
  0.838  0.931  0.949
    eigenvectors:
  0.336  0.000  0.664
  0.000  1.000  0.000
  0.664  0.000  0.336
    occupations:
  0.911  0.000 -0.052
  0.000  0.931  0.000
 -0.052  0.000  0.875
atom    8   Tr[ns(na)] =   5.43603
    eigenvalues: 
  0.838  0.931  0.949
    eigenvectors:
  0.337  0.000  0.663
  0.497  0.251  0.252
  0.167  0.749  0.085
    occupations:
  0.912 -0.046  0.026
 -0.046  0.889  0.024
  0.026  0.024  0.917
atom    9   Tr[ns(na)] =   5.43603
    eigenvalues: 
  0.838  0.931  0.949
    eigenvectors:
  0.337  0.000  0.663
  0.498  0.249  0.253
  0.165  0.751  0.084
    occupations:
  0.912  0.046  0.026
  0.046  0.889 -0.024
  0.026 -0.024  0.917
atom   10   Tr[ns(na)] =   5.43603
    eigenvalues: 
  0.838  0.931  0.949
    eigenvectors:
  0.337  0.000  0.663
  0.000  1.000  0.000
  0.663  0.000  0.337
    occupations:
  0.912  0.000 -0.053
  0.000  0.931  0.000
 -0.053  0.000  0.875
N of occupied +U levels =  56.2590808
 --- exit write_ns ---
 --- in v_hubbard ---
Hubbard energy    0.5589
 -------

     total cpu time spent up to now is      197.1 secs

     total energy              =    -537.73257318 Ry
     Harris-Foulkes estimate   =    -537.73256368 Ry
     estimated scf accuracy    <       0.00000025 Ry

     iteration # 13     ecut=    30.00 Ry     beta=0.20
     Davidson diagonalization with overlap
     ethr =  3.28E-10,  avg # of iterations =  2.0
 --- enter write_ns ---
 LDA+U parameters:
U( 1)     =  7.00000000
alpha( 1) =  0.00000000
U( 2)     =  0.00000000
alpha( 2) =  0.15000000
U( 3)     =  0.00000000
alpha( 3) =  0.00000000
U( 4)     =  0.00000000
alpha( 4) =  0.00000000
atom    1   Tr[ns(na)] =   8.05072
    eigenvalues: 
  0.514  0.514  0.998  0.998  1.000
    eigenvectors:
  0.000  0.000  0.000  0.000  1.000
  0.342  0.316  0.002  0.340  0.000
  0.316  0.342  0.340  0.002  0.000
  0.290  0.052  0.522  0.136  0.000
  0.052  0.290  0.136  0.522  0.000
    occupations:
  1.000  0.000  0.000  0.000  0.000
  0.000  0.680  0.000 -0.090  0.211
  0.000  0.000  0.680  0.211  0.090
  0.000 -0.090  0.211  0.833  0.000
  0.000  0.211  0.090  0.000  0.833
atom    2   Tr[ns(na)] =   8.04751
    eigenvalues: 
  0.513  0.513  0.998  0.998  1.000
    eigenvectors:
  0.000  0.000  0.000  0.000  1.000
  0.643  0.015  0.228  0.114  0.000
  0.015  0.643  0.114  0.228  0.000
  0.021  0.321  0.475  0.183  0.000
  0.321  0.021  0.183  0.475  0.000
    occupations:
  1.000  0.000  0.000  0.000  0.000
  0.000  0.679  0.000  0.090  0.212
  0.000  0.000  0.679  0.212 -0.090
  0.000  0.090  0.212  0.833  0.000
  0.000  0.212 -0.090  0.000  0.833
atom    3   Tr[ns(na)] =   3.75101
    eigenvalues: 
  0.352  0.352  0.377  0.398  0.398
    eigenvectors:
  0.000  0.000  1.000  0.000  0.000
  0.779  0.140  0.000  0.012  0.069
  0.140  0.779  0.000  0.069  0.012
  0.013  0.068  0.000  0.778  0.141
  0.068  0.013  0.000  0.141  0.778
    occupations:
  0.377  0.000  0.000  0.000  0.000
  0.000  0.355  0.000  0.000  0.012
  0.000  0.000  0.355  0.012  0.000
  0.000  0.000  0.012  0.394  0.000
  0.000  0.012  0.000  0.000  0.394
atom    4   Tr[ns(na)] =   3.79319
    eigenvalues: 
  0.356  0.356  0.381  0.402  0.402
    eigenvectors:
  0.000  0.000  1.000  0.000  0.000
  0.783  0.139  0.000  0.011  0.067
  0.139  0.783  0.000  0.067  0.011
  0.012  0.066  0.000  0.781  0.140
  0.066  0.012  0.000  0.140  0.781
    occupations:
  0.381  0.000  0.000  0.000  0.000
  0.000  0.360  0.000  0.000  0.012
  0.000  0.000  0.360  0.012  0.000
  0.000  0.000  0.012  0.398  0.000
  0.000  0.012  0.000  0.000  0.398
atom    5   Tr[ns(na)] =   5.43611
    eigenvalues: 
  0.838  0.931  0.949
    eigenvectors:
  0.336  0.000  0.664
  0.497  0.251  0.252
  0.167  0.749  0.085
    occupations:
  0.912 -0.045  0.026
 -0.045  0.889  0.024
  0.026  0.024  0.917
atom    6   Tr[ns(na)] =   5.43611
    eigenvalues: 
  0.838  0.931  0.949
    eigenvectors:
  0.336  0.000  0.664
  0.498  0.249  0.253
  0.165  0.751  0.084
    occupations:
  0.912  0.045  0.026
  0.045  0.889 -0.024
  0.026 -0.024  0.917
atom    7   Tr[ns(na)] =   5.43611
    eigenvalues: 
  0.838  0.931  0.949
    eigenvectors:
  0.336  0.000  0.664
  0.000  1.000  0.000
  0.664  0.000  0.336
    occupations:
  0.912  0.000 -0.052
  0.000  0.931  0.000
 -0.052  0.000  0.875
atom    8   Tr[ns(na)] =   5.43607
    eigenvalues: 
  0.838  0.931  0.949
    eigenvectors:
  0.337  0.000  0.663
  0.497  0.251  0.252
  0.167  0.749  0.085
    occupations:
  0.912 -0.046  0.026
 -0.046  0.889  0.024
  0.026  0.024  0.917
atom    9   Tr[ns(na)] =   5.43607
    eigenvalues: 
  0.838  0.931  0.949
    eigenvectors:
  0.337  0.000  0.663
  0.498  0.249  0.253
  0.165  0.751  0.084
    occupations:
  0.912  0.046  0.026
  0.046  0.889 -0.024
  0.026 -0.024  0.917
atom   10   Tr[ns(na)] =   5.43607
    eigenvalues: 
  0.838  0.931  0.949
    eigenvectors:
  0.337  0.000  0.663
  0.000  1.000  0.000
  0.663  0.000  0.337
    occupations:
  0.912  0.000 -0.053
  0.000  0.931  0.000
 -0.053  0.000  0.875
N of occupied +U levels =  56.2589792
 --- exit write_ns ---
 --- in v_hubbard ---
Hubbard energy    0.5588
 -------

     total cpu time spent up to now is      210.6 secs

     total energy              =    -537.73257937 Ry
     Harris-Foulkes estimate   =    -537.73257321 Ry
     estimated scf accuracy    <       0.00000006 Ry

     iteration # 14     ecut=    30.00 Ry     beta=0.20
     Davidson diagonalization with overlap
     ethr =  7.98E-11,  avg # of iterations =  2.4
 --- enter write_ns ---
 LDA+U parameters:
U( 1)     =  7.00000000
alpha( 1) =  0.00000000
U( 2)     =  0.00000000
alpha( 2) =  0.15000000
U( 3)     =  0.00000000
alpha( 3) =  0.00000000
U( 4)     =  0.00000000
alpha( 4) =  0.00000000
atom    1   Tr[ns(na)] =   8.05073
    eigenvalues: 
  0.514  0.514  0.998  0.998  1.000
    eigenvectors:
  0.000  0.000  0.000  0.000  1.000
  0.342  0.316  0.002  0.340  0.000
  0.316  0.342  0.340  0.002  0.000
  0.290  0.052  0.522  0.136  0.000
  0.052  0.290  0.136  0.522  0.000
    occupations:
  1.000  0.000  0.000  0.000  0.000
  0.000  0.680  0.000 -0.090  0.211
  0.000  0.000  0.680  0.211  0.090
  0.000 -0.090  0.211  0.833  0.000
  0.000  0.211  0.090  0.000  0.833
atom    2   Tr[ns(na)] =   8.04751
    eigenvalues: 
  0.513  0.513  0.998  0.998  1.000
    eigenvectors:
  0.000  0.000  0.000  0.000  1.000
  0.643  0.015  0.228  0.114  0.000
  0.015  0.643  0.114  0.228  0.000
  0.021  0.321  0.476  0.183  0.000
  0.321  0.021  0.183  0.476  0.000
    occupations:
  1.000  0.000  0.000  0.000  0.000
  0.000  0.679  0.000  0.090  0.212
  0.000  0.000  0.679  0.212 -0.090
  0.000  0.090  0.212  0.833  0.000
  0.000  0.212 -0.090  0.000  0.833
atom    3   Tr[ns(na)] =   3.75093
    eigenvalues: 
  0.352  0.352  0.377  0.398  0.398
    eigenvectors:
  0.000  0.000  1.000  0.000  0.000
  0.779  0.140  0.000  0.012  0.069
  0.140  0.779  0.000  0.069  0.012
  0.013  0.068  0.000  0.778  0.141
  0.068  0.013  0.000  0.141  0.778
    occupations:
  0.377  0.000  0.000  0.000  0.000
  0.000  0.355  0.000  0.000  0.012
  0.000  0.000  0.355  0.012  0.000
  0.000  0.000  0.012  0.394  0.000
  0.000  0.012  0.000  0.000  0.394
atom    4   Tr[ns(na)] =   3.79297
    eigenvalues: 
  0.356  0.356  0.381  0.402  0.402
    eigenvectors:
  0.000  0.000  1.000  0.000  0.000
  0.783  0.139  0.000  0.011  0.067
  0.139  0.783  0.000  0.067  0.011
  0.012  0.066  0.000  0.781  0.140
  0.066  0.012  0.000  0.140  0.781
    occupations:
  0.381  0.000  0.000  0.000  0.000
  0.000  0.360  0.000  0.000  0.012
  0.000  0.000  0.360  0.012  0.000
  0.000  0.000  0.012  0.398  0.000
  0.000  0.012  0.000  0.000  0.398
atom    5   Tr[ns(na)] =   5.43615
    eigenvalues: 
  0.838  0.931  0.949
    eigenvectors:
  0.336  0.000  0.664
  0.497  0.251  0.252
  0.167  0.749  0.085
    occupations:
  0.912 -0.045  0.026
 -0.045  0.889  0.024
  0.026  0.024  0.917
atom    6   Tr[ns(na)] =   5.43615
    eigenvalues: 
  0.838  0.931  0.949
    eigenvectors:
  0.336  0.000  0.664
  0.498  0.249  0.253
  0.165  0.751  0.084
    occupations:
  0.912  0.045  0.026
  0.045  0.889 -0.024
  0.026 -0.024  0.917
atom    7   Tr[ns(na)] =   5.43615
    eigenvalues: 
  0.838  0.931  0.949
    eigenvectors:
  0.336  0.000  0.664
  0.000  1.000  0.000
  0.664  0.000  0.336
    occupations:
  0.912  0.000 -0.052
  0.000  0.931  0.000
 -0.052  0.000  0.875
atom    8   Tr[ns(na)] =   5.43611
    eigenvalues: 
  0.838  0.931  0.949
    eigenvectors:
  0.337  0.000  0.663
  0.497  0.251  0.252
  0.167  0.749  0.085
    occupations:
  0.912 -0.046  0.026
 -0.046  0.889  0.024
  0.026  0.024  0.917
atom    9   Tr[ns(na)] =   5.43611
    eigenvalues: 
  0.838  0.931  0.949
    eigenvectors:
  0.337  0.000  0.663
  0.498  0.249  0.253
  0.165  0.751  0.084
    occupations:
  0.912  0.046  0.026
  0.046  0.889 -0.024
  0.026 -0.024  0.917
atom   10   Tr[ns(na)] =   5.43611
    eigenvalues: 
  0.838  0.931  0.949
    eigenvectors:
  0.337  0.000  0.663
  0.000  1.000  0.000
  0.663  0.000  0.337
    occupations:
  0.912  0.000 -0.053
  0.000  0.931  0.000
 -0.053  0.000  0.875
N of occupied +U levels =  56.2589076
 --- exit write_ns ---
 --- in v_hubbard ---
Hubbard energy    0.5588
 -------

     total cpu time spent up to now is      224.6 secs

     total energy              =    -537.73258331 Ry
     Harris-Foulkes estimate   =    -537.73257939 Ry
     estimated scf accuracy    <       0.00000001 Ry

     iteration # 15     ecut=    30.00 Ry     beta=0.20
     Davidson diagonalization with overlap
     ethr =  1.39E-11,  avg # of iterations =  2.0
 --- enter write_ns ---
 LDA+U parameters:
U( 1)     =  7.00000000
alpha( 1) =  0.00000000
U( 2)     =  0.00000000
alpha( 2) =  0.15000000
U( 3)     =  0.00000000
alpha( 3) =  0.00000000
U( 4)     =  0.00000000
alpha( 4) =  0.00000000
atom    1   Tr[ns(na)] =   8.05078
    eigenvalues: 
  0.514  0.514  0.998  0.998  1.000
    eigenvectors:
  0.000  0.000  0.000  0.000  1.000
  0.342  0.316  0.002  0.340  0.000
  0.316  0.342  0.340  0.002  0.000
  0.290  0.052  0.522  0.136  0.000
  0.052  0.290  0.136  0.522  0.000
    occupations:
  1.000  0.000  0.000  0.000  0.000
  0.000  0.680  0.000 -0.090  0.211
  0.000  0.000  0.680  0.211  0.090
  0.000 -0.090  0.211  0.833  0.000
  0.000  0.211  0.090  0.000  0.833
atom    2   Tr[ns(na)] =   8.04757
    eigenvalues: 
  0.513  0.513  0.998  0.998  1.000
    eigenvectors:
  0.000  0.000  0.000  0.000  1.000
  0.643  0.015  0.228  0.114  0.000
  0.015  0.643  0.114  0.228  0.000
  0.021  0.321  0.475  0.183  0.000
  0.321  0.021  0.183  0.475  0.000
    occupations:
  1.000  0.000  0.000  0.000  0.000
  0.000  0.679  0.000  0.090  0.212
  0.000  0.000  0.679  0.212 -0.090
  0.000  0.090  0.212  0.833  0.000
  0.000  0.212 -0.090  0.000  0.833
atom    3   Tr[ns(na)] =   3.75098
    eigenvalues: 
  0.352  0.352  0.377  0.398  0.398
    eigenvectors:
  0.000  0.000  1.000  0.000  0.000
  0.779  0.140  0.000  0.012  0.069
  0.140  0.779  0.000  0.069  0.012
  0.013  0.068  0.000  0.779  0.141
  0.068  0.013  0.000  0.141  0.779
    occupations:
  0.377  0.000  0.000  0.000  0.000
  0.000  0.355  0.000  0.000  0.012
  0.000  0.000  0.355  0.012  0.000
  0.000  0.000  0.012  0.394  0.000
  0.000  0.012  0.000  0.000  0.394
atom    4   Tr[ns(na)] =   3.79304
    eigenvalues: 
  0.356  0.356  0.381  0.402  0.402
    eigenvectors:
  0.000  0.000  1.000  0.000  0.000
  0.783  0.139  0.000  0.011  0.067
  0.139  0.783  0.000  0.067  0.011
  0.012  0.066  0.000  0.781  0.140
  0.066  0.012  0.000  0.140  0.781
    occupations:
  0.381  0.000  0.000  0.000  0.000
  0.000  0.360  0.000  0.000  0.012
  0.000  0.000  0.360  0.012  0.000
  0.000  0.000  0.012  0.398  0.000
  0.000  0.012  0.000  0.000  0.398
atom    5   Tr[ns(na)] =   5.43612
    eigenvalues: 
  0.838  0.931  0.949
    eigenvectors:
  0.336  0.000  0.664
  0.497  0.251  0.252
  0.167  0.749  0.085
    occupations:
  0.912 -0.045  0.026
 -0.045  0.889  0.024
  0.026  0.024  0.917
atom    6   Tr[ns(na)] =   5.43612
    eigenvalues: 
  0.838  0.931  0.949
    eigenvectors:
  0.336  0.000  0.664
  0.498  0.249  0.253
  0.165  0.751  0.084
    occupations:
  0.912  0.045  0.026
  0.045  0.889 -0.024
  0.026 -0.024  0.917
atom    7   Tr[ns(na)] =   5.43612
    eigenvalues: 
  0.838  0.931  0.949
    eigenvectors:
  0.336  0.000  0.664
  0.000  1.000  0.000
  0.664  0.000  0.336
    occupations:
  0.912  0.000 -0.052
  0.000  0.931  0.000
 -0.052  0.000  0.875
atom    8   Tr[ns(na)] =   5.43608
    eigenvalues: 
  0.838  0.931  0.949
    eigenvectors:
  0.337  0.000  0.663
  0.497  0.251  0.252
  0.167  0.749  0.085
    occupations:
  0.912 -0.046  0.026
 -0.046  0.889  0.024
  0.026  0.024  0.917
atom    9   Tr[ns(na)] =   5.43608
    eigenvalues: 
  0.838  0.931  0.949
    eigenvectors:
  0.337  0.000  0.663
  0.498  0.249  0.253
  0.165  0.751  0.084
    occupations:
  0.912  0.046  0.026
  0.046  0.889 -0.024
  0.026 -0.024  0.917
atom   10   Tr[ns(na)] =   5.43608
    eigenvalues: 
  0.838  0.931  0.949
    eigenvectors:
  0.337  0.000  0.663
  0.000  1.000  0.000
  0.663  0.000  0.337
    occupations:
  0.912  0.000 -0.053
  0.000  0.931  0.000
 -0.053  0.000  0.875
N of occupied +U levels =  56.2589543
 --- exit write_ns ---
 --- in v_hubbard ---
Hubbard energy    0.5588
 -------

     total cpu time spent up to now is      237.9 secs

     End of self-consistent calculation

          k = 0.0000 0.0000 0.0000 (  2175 PWs)   bands (ev):

   -19.8221 -19.6344  -6.5326  -5.8709  -5.8709  -5.7719  -5.7719  -5.4268
    -3.9574  -3.3160  -3.3160  -3.2729  -3.0292  -3.0292   5.1715   5.8311
     5.8311   5.8855   6.5118   6.5118   7.2567   7.5272   7.5272   7.7222
     7.7270   7.7270   9.3132   9.6428   9.6428   9.9977   9.9977  10.1629
    10.4777  10.4777  10.6249  10.6249  10.6937  10.9019  11.8364  11.8364
    14.7238  14.7238  15.4933  15.4933  16.2666  16.8493

     occupation numbers 
     0.0313   0.0313   0.0313   0.0313   0.0313   0.0313   0.0313   0.0313
     0.0313   0.0313   0.0313   0.0313   0.0313   0.0313   0.0313   0.0313
     0.0313   0.0313   0.0313   0.0313   0.0313   0.0313   0.0313   0.0313
     0.0313   0.0313   0.0312   0.0312   0.0312   0.0312   0.0312   0.0312
     0.0312   0.0312   0.0311   0.0311   0.0310   0.0297   0.0018   0.0018
     0.0000   0.0000   0.0000   0.0000   0.0000   0.0000

          k =-0.2471-0.1427 0.1027 (  2181 PWs)   bands (ev):

   -19.8033 -19.6784  -6.7095  -6.2688  -5.9515  -5.8304  -5.5764  -5.4445
    -3.7104  -3.4511  -2.9716  -2.9245  -2.8942  -2.7799   5.3588   5.7093
     5.8869   5.9653   6.4261   6.4329   6.7883   7.0339   7.4118   7.5295
     7.5687   7.7157   9.2973   9.4744   9.7096   9.8301   9.8542   9.9569
    10.1873  10.3726  10.4158  10.5777  10.6892  10.7480  12.2780  12.3523
    14.2732  14.2862  15.8746  16.1257  17.0258  17.3183

     occupation numbers 
     0.1875   0.1875   0.1875   0.1875   0.1875   0.1875   0.1875   0.1875
     0.1875   0.1875   0.1875   0.1875   0.1875   0.1875   0.1875   0.1875
     0.1875   0.1875   0.1875   0.1875   0.1875   0.1875   0.1875   0.1875
     0.1875   0.1875   0.1875   0.1875   0.1875   0.1875   0.1875   0.1875
     0.1875   0.1875   0.1874   0.1870   0.1860   0.1849   0.0002   0.0001
     0.0000   0.0000   0.0000   0.0000   0.0000   0.0000

          k = 0.4942 0.2853-0.2053 (  2202 PWs)   bands (ev):

   -19.7900 -19.7171  -6.7124  -6.6686  -5.9530  -5.9423  -5.4955  -5.4892
    -3.4574  -3.4236  -2.8319  -2.8137  -2.5432  -2.4901   5.4452   5.4622
     6.0704   6.0846   6.2168   6.2327   6.7407   6.7493   7.2760   7.2888
     7.4097   7.4261   9.3166   9.3285   9.6904   9.7084   9.9316   9.9489
    10.0617  10.0789  10.3532  10.3669  10.5157  10.5339  13.2586  13.3072
    13.3425  13.3908  16.8495  16.9108  17.1432  17.2031

     occupation numbers 
     0.0938   0.0938   0.0938   0.0938   0.0938   0.0938   0.0938   0.0938
     0.0938   0.0938   0.0938   0.0938   0.0938   0.0938   0.0938   0.0938
     0.0938   0.0938   0.0938   0.0938   0.0938   0.0938   0.0938   0.0938
     0.0938   0.0938   0.0937   0.0937   0.0937   0.0937   0.0937   0.0937
     0.0937   0.0937   0.0937   0.0937   0.0936   0.0936   0.0000   0.0000
     0.0000   0.0000   0.0000   0.0000   0.0000   0.0000

          k =-0.2471 0.1427 0.2053 (  2195 PWs)   bands (ev):

   -19.7963 -19.6899  -6.8381  -6.2346  -6.0549  -5.7843  -5.6207  -5.4496
    -3.4969  -3.3022  -3.1467  -2.9323  -2.8605  -2.5682   5.2856   5.5404
     5.7942   5.9645   6.4174   6.6810   6.9384   7.0326   7.2953   7.5091
     7.6433   7.6860   8.7505   9.3020   9.6748   9.8276   9.9471   9.9564
    10.2584  10.3580  10.5326  10.5630  10.6356  10.7050  11.7784  12.7074
    13.6094  14.7428  16.0531  16.2515  17.0941  17.5753

     occupation numbers 
     0.1875   0.1875   0.1875   0.1875   0.1875   0.1875   0.1875   0.1875
     0.1875   0.1875   0.1875   0.1875   0.1875   0.1875   0.1875   0.1875
     0.1875   0.1875   0.1875   0.1875   0.1875   0.1875   0.1875   0.1875
     0.1875   0.1875   0.1875   0.1875   0.1875   0.1875   0.1875   0.1875
     0.1875   0.1875   0.1872   0.1871   0.1866   0.1857   0.0159   0.0000
     0.0000   0.0000   0.0000   0.0000   0.0000   0.0000

          k = 0.4942 0.5706-0.1027 (  2198 PWs)   bands (ev):

   -19.7943 -19.7129  -6.9347  -6.6175  -6.1114  -5.8615  -5.4796  -5.3673
    -3.3699  -3.2933  -2.9026  -2.7286  -2.5399  -2.3959   5.1034   5.6570
     5.7690   6.1064   6.1981   6.3845   6.4474   6.8949   7.2425   7.3928
     7.6991   7.8482   8.7838   9.0972   9.4414   9.6412   9.6653   9.9832
    10.1806  10.2405  10.2768  10.3857  10.5815  10.7604  12.2719  12.7141
    13.4019  14.3252  16.9504  17.1581  17.3533  18.0483

     occupation numbers 
     0.1875   0.1875   0.1875   0.1875   0.1875   0.1875   0.1875   0.1875
     0.1875   0.1875   0.1875   0.1875   0.1875   0.1875   0.1875   0.1875
     0.1875   0.1875   0.1875   0.1875   0.1875   0.1875   0.1875   0.1875
     0.1875   0.1875   0.1875   0.1875   0.1875   0.1875   0.1875   0.1875
     0.1875   0.1875   0.1875   0.1874   0.1870   0.1846   0.0002   0.0000
     0.0000   0.0000   0.0000   0.0000   0.0000   0.0000

          k = 0.2471 0.4280 0.0000 (  2203 PWs)   bands (ev):

   -19.7947 -19.7079  -6.8245  -6.6120  -6.0304  -5.9554  -5.4101  -5.3425
    -3.6155  -3.3307  -2.8184  -2.7268  -2.5915  -2.5813   5.2726   5.6833
     5.8957   5.9579   6.2157   6.4632   6.5798   6.7281   7.2388   7.3683
     7.4110   8.0518   8.8775   9.2773   9.6219   9.7153   9.8086  10.0296
    10.1268  10.2192  10.2630  10.3723  10.4605  10.8347  12.1757  13.2916
    13.3744  14.1207  16.4814  17.0393  17.4639  17.9634

     occupation numbers 
     0.1875   0.1875   0.1875   0.1875   0.1875   0.1875   0.1875   0.1875
     0.1875   0.1875   0.1875   0.1875   0.1875   0.1875   0.1875   0.1875
     0.1875   0.1875   0.1875   0.1875   0.1875   0.1875   0.1875   0.1875
     0.1875   0.1875   0.1875   0.1875   0.1875   0.1875   0.1875   0.1875
     0.1875   0.1875   0.1875   0.1875   0.1874   0.1821   0.0006   0.0000
     0.0000   0.0000   0.0000   0.0000   0.0000   0.0000

          k = 0.4942-0.2853-0.4107 (  2202 PWs)   bands (ev):

   -19.8003 -19.7063  -7.1555  -6.4392  -6.2251  -5.9071  -5.4931  -5.2810
    -3.2561  -3.1336  -3.0911  -2.6546  -2.4840  -2.2310   4.6910   5.5559
     5.6360   6.0605   6.2627   6.7311   6.7733   6.9328   7.1794   7.2893
     7.6612   8.2131   8.3187   8.6260   9.4335   9.6948   9.9658  10.0513
    10.0858  10.1505  10.2230  10.4934  10.5537  10.8571  11.7394  12.3782
    13.3047  14.7582  17.0970  17.3125  17.5674  17.6547

     occupation numbers 
     0.0938   0.0938   0.0938   0.0938   0.0938   0.0938   0.0938   0.0938
     0.0938   0.0938   0.0938   0.0938   0.0938   0.0938   0.0938   0.0938
     0.0938   0.0938   0.0938   0.0938   0.0938   0.0938   0.0938   0.0938
     0.0938   0.0938   0.0938   0.0938   0.0937   0.0937   0.0937   0.0937
     0.0937   0.0937   0.0937   0.0937   0.0936   0.0905   0.0101   0.0000
     0.0000   0.0000   0.0000   0.0000   0.0000   0.0000

          k = 0.0000 0.0000 0.3080 (  2187 PWs)   bands (ev):

   -19.8032 -19.6810  -6.5979  -5.9497  -5.9452  -5.9268  -5.8146  -5.8057
    -3.2665  -3.2055  -3.1703  -2.9951  -2.9263  -2.8960   5.5478   5.6483
     5.8854   5.8945   6.4600   6.4628   6.7537   7.3920   7.3947   7.5476
     7.5627   7.5694   9.4186   9.4201   9.4552   9.6924  10.0557  10.0609
    10.0916  10.0956  10.4407  10.6073  10.6763  10.6768  12.2492  12.2504
    14.2336  14.2378  15.9642  15.9764  16.9346  17.5270

     occupation numbers 
     0.0625   0.0625   0.0625   0.0625   0.0625   0.0625   0.0625   0.0625
     0.0625   0.0625   0.0625   0.0625   0.0625   0.0625   0.0625   0.0625
     0.0625   0.0625   0.0625   0.0625   0.0625   0.0625   0.0625   0.0625
     0.0625   0.0625   0.0625   0.0625   0.0625   0.0625   0.0625   0.0625
     0.0625   0.0625   0.0625   0.0623   0.0620   0.0620   0.0001   0.0001
     0.0000   0.0000   0.0000   0.0000   0.0000   0.0000

          k = 0.7412 0.4280 0.0000 (  2204 PWs)   bands (ev):

   -19.7949 -19.7102  -6.7086  -6.5786  -6.1152  -5.8086  -5.6819  -5.5186
    -3.2409  -3.1375  -3.0587  -2.7063  -2.6714  -2.5971   5.3420   5.7368
     5.7963   6.1102   6.1286   6.5795   6.6005   6.7576   7.3031   7.3566
     7.4708   7.8840   8.8588   9.3622   9.3949   9.6625   9.8366   9.9985
    10.1639  10.2358  10.3769  10.3861  10.4090  10.5649  12.1731  13.2111
    13.2909  14.1506  16.7291  16.7769  17.6328  17.8306

     occupation numbers 
     0.1875   0.1875   0.1875   0.1875   0.1875   0.1875   0.1875   0.1875
     0.1875   0.1875   0.1875   0.1875   0.1875   0.1875   0.1875   0.1875
     0.1875   0.1875   0.1875   0.1875   0.1875   0.1875   0.1875   0.1875
     0.1875   0.1875   0.1875   0.1875   0.1875   0.1875   0.1875   0.1875
     0.1875   0.1875   0.1875   0.1874   0.1874   0.1871   0.0006   0.0000
     0.0000   0.0000   0.0000   0.0000   0.0000   0.0000

          k = 0.4942 0.2853 0.1027 (  2211 PWs)   bands (ev):

   -19.7944 -19.7128  -6.9518  -6.5084  -6.3055  -5.6772  -5.5903  -5.3363
    -3.3836  -3.1935  -3.0742  -2.6176  -2.5759  -2.3867   5.1168   5.6675
     5.7815   5.9384   6.1957   6.4923   6.6036   6.7721   7.2351   7.2738
     7.8127   7.8580   8.7438   9.2443   9.3333   9.5776   9.8086   9.8831
    10.1903  10.2514  10.3949  10.4745  10.5297  10.6018  12.2275  12.7279
    13.4493  14.3067  16.9231  16.9881  17.6207  17.9679

     occupation numbers 
     0.1875   0.1875   0.1875   0.1875   0.1875   0.1875   0.1875   0.1875
     0.1875   0.1875   0.1875   0.1875   0.1875   0.1875   0.1875   0.1875
     0.1875   0.1875   0.1875   0.1875   0.1875   0.1875   0.1875   0.1875
     0.1875   0.1875   0.1875   0.1875   0.1875   0.1875   0.1875   0.1875
     0.1875   0.1875   0.1874   0.1873   0.1872   0.1869   0.0003   0.0000
     0.0000   0.0000   0.0000   0.0000   0.0000   0.0000

          k = 0.7412-0.4280-0.3080 (  2210 PWs)   bands (ev):

   -19.7955 -19.7141  -6.8875  -6.4210  -6.2847  -5.7660  -5.7335  -5.4748
    -3.1081  -3.0909  -2.9966  -2.7475  -2.6371  -2.4377   5.1543   5.7427
     5.8471   5.9651   6.1915   6.4409   6.5915   6.8448   7.2908   7.3141
     7.7740   7.8466   8.7067   9.1781   9.3797   9.4707   9.6539   9.9977
    10.1405  10.2149  10.2787  10.4480  10.5599  10.6201  12.1897  12.6826
    13.3989  14.2774  17.1042  17.1158  17.5902  17.9361

     occupation numbers 
     0.1875   0.1875   0.1875   0.1875   0.1875   0.1875   0.1875   0.1875
     0.1875   0.1875   0.1875   0.1875   0.1875   0.1875   0.1875   0.1875
     0.1875   0.1875   0.1875   0.1875   0.1875   0.1875   0.1875   0.1875
     0.1875   0.1875   0.1875   0.1875   0.1875   0.1875   0.1875   0.1875
     0.1875   0.1875   0.1875   0.1874   0.1871   0.1867   0.0005   0.0000
     0.0000   0.0000   0.0000   0.0000   0.0000   0.0000

          k = 0.4942-0.5706-0.2053 (  2206 PWs)   bands (ev):

   -19.7988 -19.7132  -6.8597  -6.8491  -6.0120  -6.0045  -5.4067  -5.4031
    -3.2009  -3.1775  -2.8608  -2.8202  -2.3925  -2.3864   5.3697   5.3854
     5.7379   5.7464   6.3218   6.3325   6.6309   6.6397   7.2532   7.2608
     8.0570   8.0653   8.7728   8.7941   9.4005   9.4057   9.8594   9.8686
    10.1506  10.1596  10.2915  10.2993  10.6326  10.6384  12.2304  12.2370
    13.9718  13.9837  17.4627  17.4668  17.9086  17.9131

     occupation numbers 
     0.1875   0.1875   0.1875   0.1875   0.1875   0.1875   0.1875   0.1875
     0.1875   0.1875   0.1875   0.1875   0.1875   0.1875   0.1875   0.1875
     0.1875   0.1875   0.1875   0.1875   0.1875   0.1875   0.1875   0.1875
     0.1875   0.1875   0.1875   0.1875   0.1875   0.1875   0.1875   0.1875
     0.1875   0.1875   0.1875   0.1875   0.1866   0.1866   0.0003   0.0003
     0.0000   0.0000   0.0000   0.0000   0.0000   0.0000

          k = 0.0000 0.0000-0.6160 (  2186 PWs)   bands (ev):

   -19.7924 -19.7196  -6.5023  -6.4517  -5.9429  -5.9429  -5.9047  -5.9047
    -2.9519  -2.9519  -2.9007  -2.9007  -2.7481  -2.6873   5.6328   5.6494
     6.1318   6.1318   6.1495   6.1495   6.7634   6.7751   7.3641   7.3641
     7.3773   7.3773   9.5117   9.5117   9.5278   9.5278   9.5623   9.5766
    10.2081  10.2281  10.3583  10.3583  10.3782  10.3782  13.1992  13.1992
    13.2472  13.2472  17.1294  17.1294  17.1935  17.1935

     occupation numbers 
     0.0313   0.0313   0.0313   0.0313   0.0313   0.0313   0.0313   0.0313
     0.0313   0.0313   0.0313   0.0313   0.0313   0.0313   0.0313   0.0313
     0.0313   0.0313   0.0313   0.0313   0.0313   0.0313   0.0313   0.0313
     0.0313   0.0313   0.0312   0.0312   0.0312   0.0312   0.0312   0.0312
     0.0312   0.0312   0.0312   0.0312   0.0312   0.0312   0.0000   0.0000
     0.0000   0.0000   0.0000   0.0000   0.0000   0.0000

          k = 0.4942-0.5706 0.1027 (  2198 PWs)   bands (ev):

   -19.7943 -19.7129  -6.9351  -6.6169  -6.1123  -5.8603  -5.4807  -5.3667
    -3.3706  -3.2933  -2.9027  -2.7276  -2.5405  -2.3956   5.1024   5.6606
     5.7647   6.1036   6.2016   6.3821   6.4517   6.8948   7.2452   7.3886
     7.6967   7.8525   8.7846   9.0963   9.4399   9.6370   9.6672   9.9815
    10.1827  10.2450  10.2715  10.3875  10.5855  10.7581  12.2717  12.7138
    13.4018  14.3249  16.9523  17.1553  17.3538  18.0501

     occupation numbers 
     0.1875   0.1875   0.1875   0.1875   0.1875   0.1875   0.1875   0.1875
     0.1875   0.1875   0.1875   0.1875   0.1875   0.1875   0.1875   0.1875
     0.1875   0.1875   0.1875   0.1875   0.1875   0.1875   0.1875   0.1875
     0.1875   0.1875   0.1875   0.1875   0.1875   0.1875   0.1875   0.1875
     0.1875   0.1875   0.1875   0.1874   0.1870   0.1846   0.0002   0.0000
     0.0000   0.0000   0.0000   0.0000   0.0000   0.0000

     the Fermi energy is    11.3820 ev

!    total energy              =    -537.73259030 Ry
     Harris-Foulkes estimate   =    -537.73258331 Ry
     estimated scf accuracy    <          3.0E-09 Ry

     The total energy is the sum of the following terms:

     one-electron contribution =     -32.92838079 Ry
     hartree contribution      =      83.71619810 Ry
     xc contribution           =    -199.63285032 Ry
     ewald contribution        =    -389.44315552 Ry
     Hubbard energy            =       0.55880916 Ry
     smearing contrib. (-TS)   =      -0.00321092 Ry

     convergence has been achieved in  15 iterations

     init_run     :      7.25s CPU      7.33s WALL (       1 calls)
     electrons    :    228.88s CPU    230.12s WALL (       1 calls)

     Called by init_run:
     wfcinit      :      0.00s CPU      0.00s WALL (       1 calls)
     potinit      :      0.29s CPU      0.30s WALL (       1 calls)

     Called by electrons:
     c_bands      :    149.61s CPU    150.15s WALL (      15 calls)
     sum_band     :     45.35s CPU     45.64s WALL (      15 calls)
     v_of_rho     :      4.03s CPU      4.03s WALL (      16 calls)
     v_h          :      0.23s CPU      0.23s WALL (      16 calls)
     v_xc         :      3.79s CPU      3.80s WALL (      16 calls)
     newd         :     30.72s CPU     30.74s WALL (      16 calls)
     mix_rho      :      0.47s CPU      0.47s WALL (      15 calls)

     Called by c_bands:
     init_us_2    :      1.62s CPU      1.61s WALL (     420 calls)
     cegterg      :    145.22s CPU    145.50s WALL (     210 calls)

     Called by sum_band:
     sum_band:bec :      0.16s CPU      0.16s WALL (     210 calls)
     addusdens    :     20.28s CPU     20.31s WALL (      15 calls)

     Called by *egterg:
     h_psi        :    109.73s CPU    109.96s WALL (     826 calls)
     s_psi        :      6.18s CPU      6.19s WALL (     826 calls)
     g_psi        :      0.51s CPU      0.51s WALL (     616 calls)
     cdiaghg      :      9.55s CPU      9.57s WALL (     812 calls)
     cegterg:over :      7.11s CPU      7.11s WALL (     616 calls)
     cegterg:upda :      4.73s CPU      4.73s WALL (     616 calls)
     cegterg:last :      3.33s CPU      3.34s WALL (     237 calls)

     Called by h_psi:
     h_psi:vloc   :     89.60s CPU     89.81s WALL (     826 calls)
     h_psi:vnl    :     12.67s CPU     12.67s WALL (     826 calls)
     add_vuspsi   :      6.21s CPU      6.21s WALL (     826 calls)
     vhpsi        :      7.21s CPU      7.20s WALL (     826 calls)

     General routines
     calbec       :     13.28s CPU     13.30s WALL (    2072 calls)
     fft          :      2.71s CPU      2.72s WALL (     251 calls)
     ffts         :      0.09s CPU      0.08s WALL (      31 calls)
     fftw         :     84.71s CPU     84.61s WALL (   59582 calls)
     interpolate  :      0.48s CPU      0.48s WALL (      31 calls)
     davcio       :      0.01s CPU      0.45s WALL (     434 calls)

     Parallel routines
     fft_scatter  :     21.62s CPU     21.62s WALL (   59864 calls)
     Hubbard U routines
     new_ns       :      1.31s CPU      1.50s WALL (      15 calls)
     vhpsi        :      7.21s CPU      7.20s WALL (     826 calls)

     PWSCF        :  3m56.57s CPU     3m57.93s WALL


   This run was terminated on:   5:49:49  13Nov2012            

=------------------------------------------------------------------------------=
