   JOB DONE.
=------------------------------------------------------------------------------=

     Program PWSCF v.5.0.1 starts on 13Nov2012 at  5:38:24 

     This program is part of the open-source Quantum ESPRESSO suite
     for quantum simulation of materials; please cite
         "P. Giannozzi et al., J. Phys.:Condens. Matter 21 395502 (2009);
          URL http://www.quantum-espresso.org", 
     in publications or presentations arising from this work. More details at
     http://www.quantum-espresso.org/quote.php

     Parallel version (MPI), running on     2 processors
     R & G space division:  proc/pool =    2

     Current dimensions of program PWSCF are:
     Max number of different atomic species (ntypx) = 10
     Max number of k-points (npk) =  40000
     Max angular momentum in pseudopotentials (lmaxx) =  3
     Reading input from CoLaO_U700_a5.in
               file Co.pbe-nd-rrkjus.UPF: wavefunction(s)  4S 3D renormalized
               file O.pbe-rrkjus.UPF: wavefunction(s)  2S renormalized

     Subspace diagonalization in iterative solution of the eigenvalue problem:
     a serial algorithm will be used


     Parallelization info
     --------------------
     sticks:   dense  smooth     PW     G-vecs:    dense   smooth      PW
     Min        1112     444    131                34808     8786    1448
     Max        1113     445    132                34809     8787    1449
     Sum        2225     889    263                69617    17573    2897


     Title: 
     GGA + U, U = 7.000, alpha = 0.050                                          


     bravais-lattice index     =            5
     lattice parameter (alat)  =      10.3292  a.u.
     unit-cell volume          =     793.0599 (a.u.)^3
     number of atoms/cell      =           10
     number of atomic types    =            4
     number of electrons       =        76.00
     number of Kohn-Sham states=           46
     kinetic-energy cutoff     =      30.0000  Ry
     charge density cutoff     =     300.0000  Ry
     convergence threshold     =      1.0E-08
     mixing beta               =       0.2000
     number of iterations used =            8  plain     mixing
     Exchange-correlation      =  SLA  PW   PBE  PBE ( 1 4 3 4 0)
     EXX-fraction              =        0.00

     celldm(1)=  10.329242  celldm(2)=   0.000000  celldm(3)=   0.000000
     celldm(4)=   0.488100  celldm(5)=   0.000000  celldm(6)=   0.000000

     crystal axes: (cart. coord. in units of alat)
               a(1) = (   0.505915  -0.292090   0.811624 )  
               a(2) = (   0.000000   0.584180   0.811624 )  
               a(3) = (  -0.505915  -0.292090   0.811624 )  

     reciprocal axes: (cart. coord. in units 2 pi/alat)
               b(1) = (  0.988308 -0.570600  0.410699 )  
               b(2) = (  0.000000  1.141200  0.410699 )  
               b(3) = ( -0.988308 -0.570600  0.410699 )  


     PseudoPot. # 1 for Co read from file:
     /home/mcurnan/dft-course/Project1/example_LaCoO3/Co.pbe-nd-rrkjus.UPF
     MD5 check sum: 3e47a84addf5e975e0edeaeee2a73f59
     Pseudo is Ultrasoft + core correction, Zval =  9.0
     Generated by new atomic code, or converted to UPF format
     Using radial grid of  961 points,  6 beta functions with: 
                l(1) =   0
                l(2) =   0
                l(3) =   1
                l(4) =   1
                l(5) =   2
                l(6) =   2
     Q(r) pseudized with 0 coefficients 


     PseudoPot. # 2 for La read from file:
     /home/mcurnan/dft-course/Project1/example_LaCoO3/La.pbe-nsp-van.UPF
     MD5 check sum: b2f11743f52dde65f77d1302becd7929
     Pseudo is Ultrasoft + core correction, Zval = 11.0
     Generated by new atomic code, or converted to UPF format
     Using radial grid of  907 points,  6 beta functions with: 
                l(1) =   0
                l(2) =   0
                l(3) =   1
                l(4) =   1
                l(5) =   2
                l(6) =   2
     Q(r) pseudized with  6 coefficients,  rinner =    1.200   1.200   1.200
                                                       1.200   1.200

     PseudoPot. # 3 for La read from file:
     /home/mcurnan/dft-course/Project1/example_LaCoO3/La.pbe-nsp-van.UPF
     MD5 check sum: b2f11743f52dde65f77d1302becd7929
     Pseudo is Ultrasoft + core correction, Zval = 11.0
     Generated by new atomic code, or converted to UPF format
     Using radial grid of  907 points,  6 beta functions with: 
                l(1) =   0
                l(2) =   0
                l(3) =   1
                l(4) =   1
                l(5) =   2
                l(6) =   2
     Q(r) pseudized with  6 coefficients,  rinner =    1.200   1.200   1.200
                                                       1.200   1.200

     PseudoPot. # 4 for O  read from file:
     /home/mcurnan/dft-course/Project1/example_LaCoO3/O.pbe-rrkjus.UPF
     MD5 check sum: 390ba29e75625707450f3bd3f0eb6be9
     Pseudo is Ultrasoft, Zval =  6.0
     Generated by new atomic code, or converted to UPF format
     Using radial grid of 1269 points,  4 beta functions with: 
                l(1) =   0
                l(2) =   0
                l(3) =   1
                l(4) =   1
     Q(r) pseudized with 0 coefficients 


     atomic species   valence    mass     pseudopotential
        Co1            9.00     1.00000     Co( 1.00)
        La1           11.00     1.00000     La( 1.00)
        La2           11.00     1.00000     La( 1.00)
        O1             6.00     1.00000     O ( 1.00)
 -----
     simplified LDA+U calculation, Hubbard_lmax = 2
     atomic species  L   Hubbard U  Hubbard alpha
        Co1          2    7.000000    0.000000
        La1          2    0.000000    0.050000
        La2          2    0.000000    0.000000
        O1           1    0.000000    0.000000
 -----

      3 Sym. Ops. (no inversion) found


                                    s                        frac. trans.

      isym =  1     identity                                     

 cryst.   s( 1) = (     1          0          0      )
                  (     0          1          0      )
                  (     0          0          1      )

 cart.    s( 1) = (  1.0000000  0.0000000  0.0000000 )
                  (  0.0000000  1.0000000  0.0000000 )
                  (  0.0000000  0.0000000  1.0000000 )


      isym =  2     120 deg rotation - cryst. axis [0,0,1]       

 cryst.   s( 2) = (     0          1          0      )
                  (     0          0          1      )
                  (     1          0          0      )

 cart.    s( 2) = ( -0.5000000 -0.8660254  0.0000000 )
                  (  0.8660254 -0.5000000  0.0000000 )
                  (  0.0000000  0.0000000  1.0000000 )


      isym =  3     120 deg rotation - cryst. axis [0,0,-1]      

 cryst.   s( 3) = (     0          0          1      )
                  (     1          0          0      )
                  (     0          1          0      )

 cart.    s( 3) = ( -0.5000000  0.8660254  0.0000000 )
                  ( -0.8660254 -0.5000000  0.0000000 )
                  (  0.0000000  0.0000000  1.0000000 )


     point group C_3 (3)    
     there are  3 classes
     the character table:

       E     C3    C3^2 
A      1.00  1.00  1.00
E      1.00 -0.50 -0.50
E*     1.00 -0.50 -0.50
     imaginary part
A      0.00  0.00  0.00
E      0.00  0.87 -0.87
E*     0.00 -0.87  0.87

     the symmetry operations in each class:
     E        1
     C3       2
     C3^2     3

   Cartesian axes

     site n.     atom                  positions (alat units)
         1           Co1 tau(   1) = (   0.0000000   0.0000000   1.8261537  )
         2           Co1 tau(   2) = (   0.0000000   0.0000000   0.6087179  )
         3           La1 tau(   3) = (   0.0000000   0.0000000   0.0000000  )
         4           La2 tau(   4) = (   0.0000000   0.0000000   1.2174358  )
         5           O1  tau(   5) = (   0.2831100  -0.0928263   1.6236536  )
         6           O1  tau(   6) = (  -0.2219449  -0.1987674   1.6236536  )
         7           O1  tau(   7) = (  -0.0611651   0.2915936   1.6236536  )
         8           O1  tau(   8) = (   0.2228050   0.3849164   1.2170300  )
         9           O1  tau(   9) = (   0.2219449  -0.3854130   1.2170300  )
        10           O1  tau(  10) = (  -0.4447499   0.0004966   1.2170300  )

   Crystallographic axes

     site n.     atom                  positions (cryst. coord.)
         1           Co1 tau(   1) = (  0.7500000  0.7500000  0.7500000  )
         2           Co1 tau(   2) = (  0.2500000  0.2500000  0.2500000  )
         3           La1 tau(   3) = (  0.0000000  0.0000000  0.0000000  )
         4           La2 tau(   4) = (  0.5000000  0.5000000  0.5000000  )
         5           O1  tau(   5) = (  0.9996000  0.5609000  0.4400000  )
         6           O1  tau(   6) = (  0.5609000  0.4400000  0.9996000  )
         7           O1  tau(   7) = (  0.4400000  0.9996000  0.5609000  )
         8           O1  tau(   8) = (  0.5004000  0.9391000  0.0600000  )
         9           O1  tau(   9) = (  0.9391000  0.0600000  0.5004000  )
        10           O1  tau(  10) = (  0.0600000  0.5004000  0.9391000  )

     number of k points=    14  gaussian smearing, width (Ry)=  0.0300
                       cart. coord. in units 2pi/alat
        k(    1) = (   0.0000000   0.0000000   0.0000000), wk =   0.0312500
        k(    2) = (  -0.2470771  -0.1426500   0.1026748), wk =   0.1875000
        k(    3) = (   0.4941541   0.2853000  -0.2053496), wk =   0.0937500
        k(    4) = (  -0.2470771   0.1426500   0.2053496), wk =   0.1875000
        k(    5) = (   0.4941541   0.5706001  -0.1026748), wk =   0.1875000
        k(    6) = (   0.2470771   0.4279500   0.0000000), wk =   0.1875000
        k(    7) = (   0.4941541  -0.2853000  -0.4106993), wk =   0.0937500
        k(    8) = (   0.0000000   0.0000000   0.3080244), wk =   0.0625000
        k(    9) = (   0.7412312   0.4279500   0.0000000), wk =   0.1875000
        k(   10) = (   0.4941541   0.2853000   0.1026748), wk =   0.1875000
        k(   11) = (   0.7412312  -0.4279500  -0.3080244), wk =   0.1875000
        k(   12) = (   0.4941541  -0.5706001  -0.2053496), wk =   0.1875000
        k(   13) = (   0.0000000   0.0000000  -0.6160489), wk =   0.0312500
        k(   14) = (   0.4941541  -0.5706001   0.1026748), wk =   0.1875000

                       cryst. coord.
        k(    1) = (   0.0000000   0.0000000   0.0000000), wk =   0.0312500
        k(    2) = (   0.0000000   0.0000000   0.2500000), wk =   0.1875000
        k(    3) = (   0.0000000   0.0000000  -0.5000000), wk =   0.0937500
        k(    4) = (   0.0000000   0.2500000   0.2500000), wk =   0.1875000
        k(    5) = (   0.0000000   0.2500000  -0.5000000), wk =   0.1875000
        k(    6) = (   0.0000000   0.2500000  -0.2500000), wk =   0.1875000
        k(    7) = (   0.0000000  -0.5000000  -0.5000000), wk =   0.0937500
        k(    8) = (   0.2500000   0.2500000   0.2500000), wk =   0.0625000
        k(    9) = (   0.2500000   0.2500000  -0.5000000), wk =   0.1875000
        k(   10) = (   0.2500000   0.2500000  -0.2500000), wk =   0.1875000
        k(   11) = (   0.2500000  -0.5000000  -0.5000000), wk =   0.1875000
        k(   12) = (   0.2500000  -0.5000000  -0.2500000), wk =   0.1875000
        k(   13) = (  -0.5000000  -0.5000000  -0.5000000), wk =   0.0312500
        k(   14) = (   0.5000000  -0.2500000   0.0000000), wk =   0.1875000

     Dense  grid:    69617 G-vectors     FFT dimensions: (  60,  60,  60)

     Smooth grid:    17573 G-vectors     FFT dimensions: (  40,  40,  40)

     Largest allocated arrays     est. size (Mb)     dimensions
        Kohn-Sham Wavefunctions         0.78 Mb     (   1117,   46)
        Atomic wavefunctions            1.06 Mb     (   1117,   62)
        NL pseudopotentials             2.05 Mb     (   1117,  120)
        Each V/rho on FFT grid          1.65 Mb     ( 108000)
        Each G-vector array             0.27 Mb     (  34808)
        G-vector shells                 0.04 Mb     (   4682)
     Largest temporary arrays     est. size (Mb)     dimensions
        Auxiliary wavefunctions         3.14 Mb     (   1117,  184)
        Each subspace H/S matrix        0.52 Mb     ( 184, 184)
        Each <psi_i|beta_j> matrix      0.08 Mb     (    120,   46)
        Arrays for rho mixing          13.18 Mb     ( 108000,   8)

     Check: negative/imaginary core charge=   -0.000028    0.000000

     The initial density is read from file :
     /home/mcurnan/dft-course/Project1/example_LaCoO3/700/La/alpha/CoLaO_U700.save/charge-density.dat

 --- in v_hubbard ---
Hubbard energy    0.6838
 -------
     Number of +U iterations with fixed ns =  0
     Starting occupations:
 --- enter write_ns ---
 LDA+U parameters:
U( 1)     =  7.00000000
alpha( 1) =  0.00000000
U( 2)     =  0.00000000
alpha( 2) =  0.05000000
U( 3)     =  0.00000000
alpha( 3) =  0.00000000
U( 4)     =  0.00000000
alpha( 4) =  0.00000000
atom    1   Tr[ns(na)] =   8.02205
    eigenvalues: 
  0.596  0.596  0.938  0.941  0.941
    eigenvectors:
  0.000  0.000  1.000  0.000  0.000
  0.334  0.321  0.000  0.004  0.341
  0.321  0.334  0.000  0.341  0.004
  0.288  0.057  0.000  0.515  0.140
  0.057  0.288  0.000  0.140  0.515
    occupations:
  0.938  0.000  0.000  0.000  0.000
  0.000  0.715  0.000 -0.060  0.152
  0.000  0.000  0.715  0.152  0.060
  0.000 -0.060  0.152  0.822  0.000
  0.000  0.152  0.060  0.000  0.822
atom    2   Tr[ns(na)] =   8.02143
    eigenvalues: 
  0.595  0.595  0.938  0.941  0.941
    eigenvectors:
  0.000  0.000  1.000  0.000  0.000
  0.638  0.017  0.000  0.223  0.122
  0.017  0.638  0.000  0.122  0.223
  0.015  0.330  0.000  0.470  0.185
  0.330  0.015  0.000  0.185  0.470
    occupations:
  0.938  0.000  0.000  0.000  0.000
  0.000  0.715  0.000  0.060  0.153
  0.000  0.000  0.715  0.153 -0.060
  0.000  0.060  0.153  0.822  0.000
  0.000  0.153 -0.060  0.000  0.822
atom    3   Tr[ns(na)] =   3.80283
    eigenvalues: 
  0.355  0.355  0.384  0.403  0.403
    eigenvectors:
  0.000  0.000  1.000  0.000  0.000
  0.781  0.140  0.000  0.012  0.068
  0.140  0.781  0.000  0.068  0.012
  0.013  0.067  0.000  0.780  0.140
  0.067  0.013  0.000  0.140  0.780
    occupations:
  0.384  0.000  0.000  0.000  0.000
  0.000  0.359  0.000  0.000  0.013
  0.000  0.000  0.359  0.013  0.000
  0.000  0.000  0.013  0.399  0.000
  0.000  0.013  0.000  0.000  0.399
atom    4   Tr[ns(na)] =   3.80283
    eigenvalues: 
  0.355  0.355  0.384  0.403  0.403
    eigenvectors:
  0.000  0.000  1.000  0.000  0.000
  0.781  0.140  0.000  0.012  0.068
  0.140  0.781  0.000  0.068  0.012
  0.013  0.067  0.000  0.780  0.140
  0.067  0.013  0.000  0.140  0.780
    occupations:
  0.384  0.000  0.000  0.000  0.000
  0.000  0.359  0.000  0.000  0.013
  0.000  0.000  0.359  0.013  0.000
  0.000  0.000  0.013  0.399  0.000
  0.000  0.013  0.000  0.000  0.399
atom    5   Tr[ns(na)] =   5.43358
    eigenvalues: 
  0.846  0.929  0.941
    eigenvectors:
  0.340  0.000  0.660
  0.496  0.250  0.255
  0.164  0.750  0.086
    occupations:
  0.909 -0.039  0.022
 -0.039  0.891  0.022
  0.022  0.022  0.917
atom    6   Tr[ns(na)] =   5.43358
    eigenvalues: 
  0.846  0.929  0.941
    eigenvectors:
  0.340  0.000  0.660
  0.494  0.250  0.256
  0.166  0.750  0.085
    occupations:
  0.909  0.039  0.022
  0.039  0.891 -0.022
  0.022 -0.022  0.917
atom    7   Tr[ns(na)] =   5.43358
    eigenvalues: 
  0.846  0.929  0.941
    eigenvectors:
  0.340  0.000  0.660
  0.000  1.000  0.000
  0.660  0.000  0.340
    occupations:
  0.909  0.000 -0.045
  0.000  0.929  0.000
 -0.045  0.000  0.879
atom    8   Tr[ns(na)] =   5.43358
    eigenvalues: 
  0.846  0.929  0.941
    eigenvectors:
  0.340  0.000  0.660
  0.496  0.250  0.255
  0.164  0.750  0.086
    occupations:
  0.909 -0.039  0.022
 -0.039  0.891  0.022
  0.022  0.022  0.917
atom    9   Tr[ns(na)] =   5.43358
    eigenvalues: 
  0.846  0.929  0.941
    eigenvectors:
  0.340  0.000  0.660
  0.494  0.250  0.256
  0.166  0.750  0.085
    occupations:
  0.909  0.039  0.022
  0.039  0.891 -0.022
  0.022 -0.022  0.917
atom   10   Tr[ns(na)] =   5.43358
    eigenvalues: 
  0.846  0.929  0.941
    eigenvectors:
  0.340  0.000  0.660
  0.000  1.000  0.000
  0.660  0.000  0.340
    occupations:
  0.909  0.000 -0.045
  0.000  0.929  0.000
 -0.045  0.000  0.879
N of occupied +U levels =  56.2506014
 --- exit write_ns ---
 LDA+U Projector read from file 
     Starting wfc from file

     total cpu time spent up to now is        8.0 secs

     per-process dynamical memory:    47.1 Mb

     Self-consistent Calculation

     iteration #  1     ecut=    30.00 Ry     beta=0.20
     Davidson diagonalization with overlap
     c_bands:  1 eigenvalues not converged
     c_bands:  1 eigenvalues not converged
     c_bands:  1 eigenvalues not converged
     c_bands:  1 eigenvalues not converged
     c_bands:  1 eigenvalues not converged
     c_bands:  1 eigenvalues not converged
     c_bands:  1 eigenvalues not converged
     c_bands:  1 eigenvalues not converged
     ethr =  1.00E-10,  avg # of iterations = 17.6
 --- enter write_ns ---
 LDA+U parameters:
U( 1)     =  7.00000000
alpha( 1) =  0.00000000
U( 2)     =  0.00000000
alpha( 2) =  0.05000000
U( 3)     =  0.00000000
alpha( 3) =  0.00000000
U( 4)     =  0.00000000
alpha( 4) =  0.00000000
atom    1   Tr[ns(na)] =   8.28794
    eigenvalues: 
  0.578  0.578  0.995  0.995  0.998
    eigenvectors:
  0.000  0.000  0.000  0.000  1.000
  0.331  0.323  0.004  0.342  0.000
  0.323  0.331  0.342  0.004  0.000
  0.289  0.057  0.514  0.140  0.000
  0.057  0.289  0.140  0.514  0.000
    occupations:
  0.998  0.000  0.000  0.000  0.000
  0.000  0.722  0.000 -0.073  0.184
  0.000  0.000  0.722  0.184  0.073
  0.000 -0.073  0.184  0.851  0.000
  0.000  0.184  0.073  0.000  0.851
atom    2   Tr[ns(na)] =   8.27805
    eigenvalues: 
  0.576  0.576  0.995  0.995  0.998
    eigenvectors:
  0.000  0.000  0.000  0.000  1.000
  0.634  0.020  0.223  0.123  0.000
  0.020  0.634  0.123  0.223  0.000
  0.013  0.333  0.469  0.185  0.000
  0.333  0.013  0.185  0.469  0.000
    occupations:
  0.998  0.000  0.000  0.000  0.000
  0.000  0.721  0.000  0.072  0.186
  0.000  0.000  0.721  0.186 -0.072
  0.000  0.072  0.186  0.850  0.000
  0.000  0.186 -0.072  0.000  0.850
atom    3   Tr[ns(na)] =   3.77072
    eigenvalues: 
  0.354  0.354  0.379  0.399  0.399
    eigenvectors:
  0.000  0.000  1.000  0.000  0.000
  0.772  0.142  0.000  0.013  0.073
  0.142  0.772  0.000  0.073  0.013
  0.014  0.072  0.000  0.772  0.142
  0.072  0.014  0.000  0.142  0.772
    occupations:
  0.379  0.000  0.000  0.000  0.000
  0.000  0.358  0.000  0.000  0.013
  0.000  0.000  0.358  0.013  0.000
  0.000  0.000  0.013  0.395  0.000
  0.000  0.013  0.000  0.000  0.395
atom    4   Tr[ns(na)] =   3.78805
    eigenvalues: 
  0.356  0.356  0.381  0.401  0.401
    eigenvectors:
  0.000  0.000  1.000  0.000  0.000
  0.773  0.142  0.000  0.013  0.072
  0.142  0.773  0.000  0.072  0.013
  0.014  0.071  0.000  0.773  0.142
  0.071  0.014  0.000  0.142  0.773
    occupations:
  0.381  0.000  0.000  0.000  0.000
  0.000  0.360  0.000  0.000  0.013
  0.000  0.000  0.360  0.013  0.000
  0.000  0.000  0.013  0.397  0.000
  0.000  0.013  0.000  0.000  0.397
atom    5   Tr[ns(na)] =   5.36739
    eigenvalues: 
  0.818  0.921  0.944
    eigenvectors:
  0.342  0.000  0.658
  0.494  0.250  0.256
  0.164  0.750  0.086
    occupations:
  0.901 -0.052  0.030
 -0.052  0.876  0.026
  0.030  0.026  0.906
atom    6   Tr[ns(na)] =   5.36739
    eigenvalues: 
  0.818  0.921  0.944
    eigenvectors:
  0.342  0.000  0.658
  0.494  0.250  0.257
  0.165  0.750  0.085
    occupations:
  0.901  0.052  0.030
  0.052  0.876 -0.026
  0.030 -0.026  0.906
atom    7   Tr[ns(na)] =   5.36739
    eigenvalues: 
  0.818  0.921  0.944
    eigenvectors:
  0.342  0.000  0.658
  0.000  1.000  0.000
  0.658  0.000  0.342
    occupations:
  0.901  0.000 -0.060
  0.000  0.921  0.000
 -0.060  0.000  0.861
atom    8   Tr[ns(na)] =   5.36738
    eigenvalues: 
  0.818  0.921  0.944
    eigenvectors:
  0.342  0.000  0.658
  0.494  0.250  0.256
  0.164  0.750  0.086
    occupations:
  0.901 -0.052  0.030
 -0.052  0.876  0.026
  0.030  0.026  0.906
atom    9   Tr[ns(na)] =   5.36738
    eigenvalues: 
  0.818  0.921  0.944
    eigenvectors:
  0.342  0.000  0.658
  0.493  0.250  0.257
  0.165  0.750  0.085
    occupations:
  0.901  0.052  0.030
  0.052  0.876 -0.026
  0.030 -0.026  0.906
atom   10   Tr[ns(na)] =   5.36738
    eigenvalues: 
  0.818  0.921  0.944
    eigenvectors:
  0.342  0.000  0.658
  0.000  1.000  0.000
  0.658  0.000  0.342
    occupations:
  0.901  0.000 -0.060
  0.000  0.921  0.000
 -0.060  0.000  0.861
N of occupied +U levels =  56.3290517
 --- exit write_ns ---
 --- in v_hubbard ---
Hubbard energy    0.6545
 -------

     total cpu time spent up to now is       45.4 secs

     total energy              =    -537.72943148 Ry
     Harris-Foulkes estimate   =    -537.75003357 Ry
     estimated scf accuracy    <       0.08659628 Ry

     iteration #  2     ecut=    30.00 Ry     beta=0.20
     Davidson diagonalization with overlap
     ethr =  1.14E-04,  avg # of iterations =  1.6
 --- enter write_ns ---
 LDA+U parameters:
U( 1)     =  7.00000000
alpha( 1) =  0.00000000
U( 2)     =  0.00000000
alpha( 2) =  0.05000000
U( 3)     =  0.00000000
alpha( 3) =  0.00000000
U( 4)     =  0.00000000
alpha( 4) =  0.00000000
atom    1   Tr[ns(na)] =   8.02107
    eigenvalues: 
  0.510  0.510  0.996  0.996  0.999
    eigenvectors:
  0.000  0.000  0.000  0.000  1.000
  0.334  0.322  0.003  0.342  0.000
  0.322  0.334  0.342  0.003  0.000
  0.290  0.055  0.517  0.139  0.000
  0.055  0.290  0.139  0.517  0.000
    occupations:
  0.999  0.000  0.000  0.000  0.000
  0.000  0.677  0.000 -0.087  0.214
  0.000  0.000  0.677  0.214  0.087
  0.000 -0.087  0.214  0.828  0.000
  0.000  0.214  0.087  0.000  0.828
atom    2   Tr[ns(na)] =   8.02052
    eigenvalues: 
  0.509  0.509  0.996  0.996  0.999
    eigenvectors:
  0.000  0.000  0.000  0.000  1.000
  0.638  0.017  0.225  0.120  0.000
  0.017  0.638  0.120  0.225  0.000
  0.016  0.329  0.471  0.184  0.000
  0.329  0.016  0.184  0.471  0.000
    occupations:
  0.999  0.000  0.000  0.000  0.000
  0.000  0.677  0.000  0.086  0.215
  0.000  0.000  0.677  0.215 -0.086
  0.000  0.086  0.215  0.828  0.000
  0.000  0.215 -0.086  0.000  0.828
atom    3   Tr[ns(na)] =   3.76711
    eigenvalues: 
  0.353  0.353  0.379  0.399  0.399
    eigenvectors:
  0.000  0.000  1.000  0.000  0.000
  0.779  0.140  0.000  0.012  0.069
  0.140  0.779  0.000  0.069  0.012
  0.013  0.068  0.000  0.778  0.141
  0.068  0.013  0.000  0.141  0.778
    occupations:
  0.379  0.000  0.000  0.000  0.000
  0.000  0.357  0.000  0.000  0.013
  0.000  0.000  0.357  0.013  0.000
  0.000  0.000  0.013  0.396  0.000
  0.000  0.013  0.000  0.000  0.396
atom    4   Tr[ns(na)] =   3.78305
    eigenvalues: 
  0.355  0.355  0.380  0.401  0.401
    eigenvectors:
  0.000  0.000  1.000  0.000  0.000
  0.780  0.140  0.000  0.012  0.068
  0.140  0.780  0.000  0.068  0.012
  0.013  0.067  0.000  0.780  0.140
  0.067  0.013  0.000  0.140  0.780
    occupations:
  0.380  0.000  0.000  0.000  0.000
  0.000  0.358  0.000  0.000  0.013
  0.000  0.000  0.358  0.013  0.000
  0.000  0.000  0.013  0.397  0.000
  0.000  0.013  0.000  0.000  0.397
atom    5   Tr[ns(na)] =   5.45144
    eigenvalues: 
  0.843  0.933  0.950
    eigenvectors:
  0.335  0.000  0.665
  0.498  0.252  0.251
  0.167  0.748  0.084
    occupations:
  0.914 -0.044  0.025
 -0.044  0.892  0.023
  0.025  0.023  0.919
atom    6   Tr[ns(na)] =   5.45144
    eigenvalues: 
  0.843  0.933  0.950
    eigenvectors:
  0.335  0.000  0.665
  0.500  0.248  0.252
  0.165  0.752  0.083
    occupations:
  0.914  0.044  0.025
  0.044  0.892 -0.023
  0.025 -0.023  0.919
atom    7   Tr[ns(na)] =   5.45144
    eigenvalues: 
  0.843  0.933  0.950
    eigenvectors:
  0.335  0.000  0.665
  0.000  1.000  0.000
  0.665  0.000  0.335
    occupations:
  0.914  0.000 -0.051
  0.000  0.933  0.000
 -0.051  0.000  0.879
atom    8   Tr[ns(na)] =   5.45139
    eigenvalues: 
  0.843  0.933  0.950
    eigenvectors:
  0.335  0.000  0.665
  0.498  0.252  0.251
  0.167  0.748  0.084
    occupations:
  0.914 -0.044  0.026
 -0.044  0.892  0.023
  0.026  0.023  0.919
atom    9   Tr[ns(na)] =   5.45139
    eigenvalues: 
  0.843  0.933  0.950
    eigenvectors:
  0.335  0.000  0.665
  0.500  0.248  0.252
  0.165  0.752  0.083
    occupations:
  0.914  0.044  0.025
  0.044  0.892 -0.023
  0.025 -0.023  0.919
atom   10   Tr[ns(na)] =   5.45139
    eigenvalues: 
  0.843  0.933  0.950
    eigenvectors:
  0.335  0.000  0.665
  0.000  1.000  0.000
  0.665  0.000  0.335
    occupations:
  0.914  0.000 -0.051
  0.000  0.933  0.000
 -0.051  0.000  0.879
N of occupied +U levels =  56.3002066
 --- exit write_ns ---
 --- in v_hubbard ---
Hubbard energy    0.6426
 -------

     total cpu time spent up to now is       57.3 secs

     total energy              =    -537.74813840 Ry
     Harris-Foulkes estimate   =    -537.74811419 Ry
     estimated scf accuracy    <       0.05130929 Ry

     iteration #  3     ecut=    30.00 Ry     beta=0.20
     Davidson diagonalization with overlap
     ethr =  6.75E-05,  avg # of iterations =  1.0
 --- enter write_ns ---
 LDA+U parameters:
U( 1)     =  7.00000000
alpha( 1) =  0.00000000
U( 2)     =  0.00000000
alpha( 2) =  0.05000000
U( 3)     =  0.00000000
alpha( 3) =  0.00000000
U( 4)     =  0.00000000
alpha( 4) =  0.00000000
atom    1   Tr[ns(na)] =   8.07209
    eigenvalues: 
  0.523  0.523  0.996  0.996  0.999
    eigenvectors:
  0.000  0.000  0.000  0.000  1.000
  0.334  0.321  0.003  0.341  0.000
  0.321  0.334  0.341  0.003  0.000
  0.289  0.055  0.517  0.139  0.000
  0.055  0.289  0.139  0.517  0.000
    occupations:
  0.999  0.000  0.000  0.000  0.000
  0.000  0.686  0.000 -0.084  0.209
  0.000  0.000  0.686  0.209  0.084
  0.000 -0.084  0.209  0.833  0.000
  0.000  0.209  0.084  0.000  0.833
atom    2   Tr[ns(na)] =   8.06968
    eigenvalues: 
  0.522  0.522  0.996  0.996  0.999
    eigenvectors:
  0.000  0.000  0.000  0.000  1.000
  0.637  0.018  0.224  0.120  0.000
  0.018  0.637  0.120  0.224  0.000
  0.015  0.329  0.471  0.184  0.000
  0.329  0.015  0.184  0.471  0.000
    occupations:
  0.999  0.000  0.000  0.000  0.000
  0.000  0.685  0.000  0.084  0.210
  0.000  0.000  0.685  0.210 -0.084
  0.000  0.084  0.210  0.833  0.000
  0.000  0.210 -0.084  0.000  0.833
atom    3   Tr[ns(na)] =   3.76889
    eigenvalues: 
  0.354  0.354  0.379  0.399  0.399
    eigenvectors:
  0.000  0.000  1.000  0.000  0.000
  0.779  0.140  0.000  0.012  0.069
  0.140  0.779  0.000  0.069  0.012
  0.013  0.068  0.000  0.779  0.141
  0.068  0.013  0.000  0.141  0.779
    occupations:
  0.379  0.000  0.000  0.000  0.000
  0.000  0.357  0.000  0.000  0.012
  0.000  0.000  0.357  0.012  0.000
  0.000  0.000  0.012  0.396  0.000
  0.000  0.012  0.000  0.000  0.396
atom    4   Tr[ns(na)] =   3.78471
    eigenvalues: 
  0.355  0.355  0.380  0.401  0.401
    eigenvectors:
  0.000  0.000  1.000  0.000  0.000
  0.781  0.140  0.000  0.012  0.068
  0.140  0.781  0.000  0.068  0.012
  0.013  0.067  0.000  0.780  0.140
  0.067  0.013  0.000  0.140  0.780
    occupations:
  0.380  0.000  0.000  0.000  0.000
  0.000  0.359  0.000  0.000  0.012
  0.000  0.000  0.359  0.012  0.000
  0.000  0.000  0.012  0.397  0.000
  0.000  0.012  0.000  0.000  0.397
atom    5   Tr[ns(na)] =   5.43526
    eigenvalues: 
  0.838  0.931  0.949
    eigenvectors:
  0.336  0.000  0.664
  0.497  0.251  0.252
  0.167  0.749  0.085
    occupations:
  0.912 -0.046  0.026
 -0.046  0.889  0.024
  0.026  0.024  0.917
atom    6   Tr[ns(na)] =   5.43526
    eigenvalues: 
  0.838  0.931  0.949
    eigenvectors:
  0.336  0.000  0.664
  0.499  0.249  0.253
  0.165  0.751  0.084
    occupations:
  0.912  0.046  0.026
  0.046  0.889 -0.024
  0.026 -0.024  0.917
atom    7   Tr[ns(na)] =   5.43526
    eigenvalues: 
  0.838  0.931  0.949
    eigenvectors:
  0.336  0.000  0.664
  0.000  1.000  0.000
  0.664  0.000  0.336
    occupations:
  0.912  0.000 -0.053
  0.000  0.931  0.000
 -0.053  0.000  0.875
atom    8   Tr[ns(na)] =   5.43523
    eigenvalues: 
  0.838  0.931  0.949
    eigenvectors:
  0.336  0.000  0.664
  0.497  0.251  0.252
  0.167  0.749  0.085
    occupations:
  0.912 -0.046  0.026
 -0.046  0.889  0.024
  0.026  0.024  0.917
atom    9   Tr[ns(na)] =   5.43523
    eigenvalues: 
  0.838  0.931  0.949
    eigenvectors:
  0.336  0.000  0.664
  0.499  0.249  0.253
  0.165  0.751  0.084
    occupations:
  0.912  0.046  0.026
  0.046  0.889 -0.024
  0.026 -0.024  0.917
atom   10   Tr[ns(na)] =   5.43523
    eigenvalues: 
  0.838  0.931  0.949
    eigenvectors:
  0.336  0.000  0.664
  0.000  1.000  0.000
  0.664  0.000  0.336
    occupations:
  0.912  0.000 -0.053
  0.000  0.931  0.000
 -0.053  0.000  0.875
N of occupied +U levels =  56.3068502
 --- exit write_ns ---
 --- in v_hubbard ---
Hubbard energy    0.5295
 -------

     total cpu time spent up to now is       69.0 secs

     total energy              =    -537.75752320 Ry
     Harris-Foulkes estimate   =    -537.74921223 Ry
     estimated scf accuracy    <       0.02249294 Ry

     iteration #  4     ecut=    30.00 Ry     beta=0.20
     Davidson diagonalization with overlap
     ethr =  2.96E-05,  avg # of iterations =  2.1
 --- enter write_ns ---
 LDA+U parameters:
U( 1)     =  7.00000000
alpha( 1) =  0.00000000
U( 2)     =  0.00000000
alpha( 2) =  0.05000000
U( 3)     =  0.00000000
alpha( 3) =  0.00000000
U( 4)     =  0.00000000
alpha( 4) =  0.00000000
atom    1   Tr[ns(na)] =   8.09236
    eigenvalues: 
  0.525  0.525  0.998  0.998  1.000
    eigenvectors:
  0.000  0.000  0.000  0.000  1.000
  0.340  0.319  0.002  0.339  0.000
  0.319  0.340  0.339  0.002  0.000
  0.287  0.055  0.520  0.138  0.000
  0.055  0.287  0.138  0.520  0.000
    occupations:
  1.000  0.000  0.000  0.000  0.000
  0.000  0.687  0.000 -0.085  0.207
  0.000  0.000  0.687  0.207  0.085
  0.000 -0.085  0.207  0.836  0.000
  0.000  0.207  0.085  0.000  0.836
atom    2   Tr[ns(na)] =   8.08786
    eigenvalues: 
  0.524  0.524  0.998  0.998  1.000
    eigenvectors:
  0.000  0.000  0.000  0.000  1.000
  0.639  0.019  0.224  0.118  0.000
  0.019  0.639  0.118  0.224  0.000
  0.016  0.326  0.474  0.184  0.000
  0.326  0.016  0.184  0.474  0.000
    occupations:
  1.000  0.000  0.000  0.000  0.000
  0.000  0.686  0.000  0.085  0.208
  0.000  0.000  0.686  0.208 -0.085
  0.000  0.085  0.208  0.836  0.000
  0.000  0.208 -0.085  0.000  0.836
atom    3   Tr[ns(na)] =   3.78772
    eigenvalues: 
  0.356  0.356  0.380  0.401  0.401
    eigenvectors:
  0.000  0.000  1.000  0.000  0.000
  0.785  0.138  0.000  0.011  0.066
  0.138  0.785  0.000  0.066  0.011
  0.012  0.065  0.000  0.783  0.140
  0.065  0.012  0.000  0.140  0.783
    occupations:
  0.380  0.000  0.000  0.000  0.000
  0.000  0.359  0.000  0.000  0.012
  0.000  0.000  0.359  0.012  0.000
  0.000  0.000  0.012  0.397  0.000
  0.000  0.012  0.000  0.000  0.397
atom    4   Tr[ns(na)] =   3.80109
    eigenvalues: 
  0.357  0.357  0.381  0.402  0.402
    eigenvectors:
  0.000  0.000  1.000  0.000  0.000
  0.786  0.138  0.000  0.011  0.066
  0.138  0.786  0.000  0.066  0.011
  0.012  0.065  0.000  0.783  0.140
  0.065  0.012  0.000  0.140  0.783
    occupations:
  0.381  0.000  0.000  0.000  0.000
  0.000  0.361  0.000  0.000  0.012
  0.000  0.000  0.361  0.012  0.000
  0.000  0.000  0.012  0.399  0.000
  0.000  0.012  0.000  0.000  0.399
atom    5   Tr[ns(na)] =   5.42073
    eigenvalues: 
  0.834  0.929  0.947
    eigenvectors:
  0.337  0.000  0.663
  0.496  0.251  0.252
  0.166  0.749  0.085
    occupations:
  0.909 -0.046  0.027
 -0.046  0.886  0.025
  0.027  0.025  0.915
atom    6   Tr[ns(na)] =   5.42073
    eigenvalues: 
  0.834  0.929  0.947
    eigenvectors:
  0.337  0.000  0.663
  0.498  0.249  0.253
  0.165  0.751  0.084
    occupations:
  0.909  0.046  0.027
  0.046  0.886 -0.025
  0.027 -0.025  0.915
atom    7   Tr[ns(na)] =   5.42073
    eigenvalues: 
  0.834  0.929  0.947
    eigenvectors:
  0.337  0.000  0.663
  0.000  1.000  0.000
  0.663  0.000  0.337
    occupations:
  0.909  0.000 -0.054
  0.000  0.929  0.000
 -0.054  0.000  0.872
atom    8   Tr[ns(na)] =   5.42077
    eigenvalues: 
  0.834  0.929  0.948
    eigenvectors:
  0.337  0.000  0.663
  0.496  0.251  0.252
  0.166  0.749  0.085
    occupations:
  0.909 -0.046  0.027
 -0.046  0.886  0.025
  0.027  0.025  0.915
atom    9   Tr[ns(na)] =   5.42077
    eigenvalues: 
  0.834  0.929  0.948
    eigenvectors:
  0.337  0.000  0.663
  0.498  0.249  0.254
  0.165  0.751  0.084
    occupations:
  0.909  0.047  0.027
  0.047  0.886 -0.024
  0.027 -0.024  0.915
atom   10   Tr[ns(na)] =   5.42077
    eigenvalues: 
  0.834  0.929  0.948
    eigenvectors:
  0.337  0.000  0.663
  0.000  1.000  0.000
  0.663  0.000  0.337
    occupations:
  0.909  0.000 -0.054
  0.000  0.929  0.000
 -0.054  0.000  0.872
N of occupied +U levels =  56.2935156
 --- exit write_ns ---
 --- in v_hubbard ---
Hubbard energy    0.5280
 -------

     total cpu time spent up to now is       81.4 secs

     total energy              =    -537.75967180 Ry
     Harris-Foulkes estimate   =    -537.75999510 Ry
     estimated scf accuracy    <       0.00367647 Ry

     iteration #  5     ecut=    30.00 Ry     beta=0.20
     Davidson diagonalization with overlap
     ethr =  4.84E-06,  avg # of iterations =  1.0
 --- enter write_ns ---
 LDA+U parameters:
U( 1)     =  7.00000000
alpha( 1) =  0.00000000
U( 2)     =  0.00000000
alpha( 2) =  0.05000000
U( 3)     =  0.00000000
alpha( 3) =  0.00000000
U( 4)     =  0.00000000
alpha( 4) =  0.00000000
atom    1   Tr[ns(na)] =   8.06885
    eigenvalues: 
  0.519  0.519  0.998  0.998  1.000
    eigenvectors:
  0.000  0.000  0.000  0.000  1.000
  0.340  0.318  0.002  0.339  0.000
  0.318  0.340  0.339  0.002  0.000
  0.287  0.054  0.520  0.138  0.000
  0.054  0.287  0.138  0.520  0.000
    occupations:
  1.000  0.000  0.000  0.000  0.000
  0.000  0.683  0.000 -0.087  0.210
  0.000  0.000  0.683  0.210  0.087
  0.000 -0.087  0.210  0.834  0.000
  0.000  0.210  0.087  0.000  0.834
atom    2   Tr[ns(na)] =   8.06492
    eigenvalues: 
  0.518  0.518  0.998  0.998  1.000
    eigenvectors:
  0.000  0.000  0.000  0.000  1.000
  0.640  0.018  0.224  0.117  0.000
  0.018  0.640  0.117  0.224  0.000
  0.016  0.325  0.475  0.183  0.000
  0.325  0.016  0.183  0.475  0.000
    occupations:
  1.000  0.000  0.000  0.000  0.000
  0.000  0.682  0.000  0.086  0.211
  0.000  0.000  0.682  0.211 -0.086
  0.000  0.086  0.211  0.834  0.000
  0.000  0.211 -0.086  0.000  0.834
atom    3   Tr[ns(na)] =   3.78673
    eigenvalues: 
  0.356  0.356  0.380  0.401  0.401
    eigenvectors:
  0.000  0.000  1.000  0.000  0.000
  0.784  0.139  0.000  0.011  0.067
  0.139  0.784  0.000  0.067  0.011
  0.012  0.066  0.000  0.782  0.140
  0.066  0.012  0.000  0.140  0.782
    occupations:
  0.380  0.000  0.000  0.000  0.000
  0.000  0.359  0.000  0.000  0.012
  0.000  0.000  0.359  0.012  0.000
  0.000  0.000  0.012  0.397  0.000
  0.000  0.012  0.000  0.000  0.397
atom    4   Tr[ns(na)] =   3.79988
    eigenvalues: 
  0.357  0.357  0.381  0.402  0.402
    eigenvectors:
  0.000  0.000  1.000  0.000  0.000
  0.784  0.138  0.000  0.011  0.066
  0.138  0.784  0.000  0.066  0.011
  0.012  0.065  0.000  0.783  0.140
  0.065  0.012  0.000  0.140  0.783
    occupations:
  0.381  0.000  0.000  0.000  0.000
  0.000  0.361  0.000  0.000  0.012
  0.000  0.000  0.361  0.012  0.000
  0.000  0.000  0.012  0.399  0.000
  0.000  0.012  0.000  0.000  0.399
atom    5   Tr[ns(na)] =   5.42807
    eigenvalues: 
  0.836  0.930  0.948
    eigenvectors:
  0.337  0.000  0.663
  0.497  0.251  0.252
  0.167  0.749  0.085
    occupations:
  0.910 -0.046  0.026
 -0.046  0.888  0.024
  0.026  0.024  0.916
atom    6   Tr[ns(na)] =   5.42807
    eigenvalues: 
  0.836  0.930  0.948
    eigenvectors:
  0.337  0.000  0.663
  0.498  0.249  0.253
  0.165  0.751  0.084
    occupations:
  0.910  0.046  0.026
  0.046  0.888 -0.024
  0.026 -0.024  0.916
atom    7   Tr[ns(na)] =   5.42807
    eigenvalues: 
  0.836  0.930  0.948
    eigenvectors:
  0.337  0.000  0.663
  0.000  1.000  0.000
  0.663  0.000  0.337
    occupations:
  0.910  0.000 -0.053
  0.000  0.930  0.000
 -0.053  0.000  0.874
atom    8   Tr[ns(na)] =   5.42809
    eigenvalues: 
  0.836  0.930  0.948
    eigenvectors:
  0.337  0.000  0.663
  0.497  0.251  0.252
  0.167  0.749  0.085
    occupations:
  0.910 -0.046  0.026
 -0.046  0.888  0.024
  0.026  0.024  0.916
atom    9   Tr[ns(na)] =   5.42809
    eigenvalues: 
  0.836  0.930  0.948
    eigenvectors:
  0.337  0.000  0.663
  0.498  0.249  0.253
  0.165  0.751  0.084
    occupations:
  0.910  0.046  0.026
  0.046  0.888 -0.024
  0.026 -0.024  0.916
atom   10   Tr[ns(na)] =   5.42809
    eigenvalues: 
  0.836  0.930  0.948
    eigenvectors:
  0.337  0.000  0.663
  0.000  1.000  0.000
  0.663  0.000  0.337
    occupations:
  0.910  0.000 -0.053
  0.000  0.930  0.000
 -0.053  0.000  0.874
N of occupied +U levels =  56.2888836
 --- exit write_ns ---
 --- in v_hubbard ---
Hubbard energy    0.5286
 -------

     total cpu time spent up to now is       92.6 secs

     total energy              =    -537.75979813 Ry
     Harris-Foulkes estimate   =    -537.75986632 Ry
     estimated scf accuracy    <       0.00077398 Ry

     iteration #  6     ecut=    30.00 Ry     beta=0.20
     Davidson diagonalization with overlap
     ethr =  1.02E-06,  avg # of iterations =  2.0
 --- enter write_ns ---
 LDA+U parameters:
U( 1)     =  7.00000000
alpha( 1) =  0.00000000
U( 2)     =  0.00000000
alpha( 2) =  0.05000000
U( 3)     =  0.00000000
alpha( 3) =  0.00000000
U( 4)     =  0.00000000
alpha( 4) =  0.00000000
atom    1   Tr[ns(na)] =   8.05446
    eigenvalues: 
  0.516  0.516  0.998  0.998  1.000
    eigenvectors:
  0.000  0.000  0.000  0.000  1.000
  0.340  0.318  0.002  0.340  0.000
  0.318  0.340  0.340  0.002  0.000
  0.288  0.054  0.521  0.137  0.000
  0.054  0.288  0.137  0.521  0.000
    occupations:
  1.000  0.000  0.000  0.000  0.000
  0.000  0.681  0.000 -0.088  0.211
  0.000  0.000  0.681  0.211  0.088
  0.000 -0.088  0.211  0.833  0.000
  0.000  0.211  0.088  0.000  0.833
atom    2   Tr[ns(na)] =   8.05244
    eigenvalues: 
  0.515  0.515  0.998  0.998  1.000
    eigenvectors:
  0.000  0.000  0.000  0.000  1.000
  0.641  0.017  0.226  0.116  0.000
  0.017  0.641  0.116  0.226  0.000
  0.018  0.324  0.475  0.183  0.000
  0.324  0.018  0.183  0.475  0.000
    occupations:
  1.000  0.000  0.000  0.000  0.000
  0.000  0.680  0.000  0.088  0.212
  0.000  0.000  0.680  0.212 -0.088
  0.000  0.088  0.212  0.833  0.000
  0.000  0.212 -0.088  0.000  0.833
atom    3   Tr[ns(na)] =   3.77537
    eigenvalues: 
  0.354  0.354  0.379  0.400  0.400
    eigenvectors:
  0.000  0.000  1.000  0.000  0.000
  0.780  0.140  0.000  0.012  0.068
  0.140  0.780  0.000  0.068  0.012
  0.013  0.067  0.000  0.780  0.141
  0.067  0.013  0.000  0.141  0.780
    occupations:
  0.379  0.000  0.000  0.000  0.000
  0.000  0.358  0.000  0.000  0.012
  0.000  0.000  0.358  0.012  0.000
  0.000  0.000  0.012  0.396  0.000
  0.000  0.012  0.000  0.000  0.396
atom    4   Tr[ns(na)] =   3.78931
    eigenvalues: 
  0.356  0.356  0.381  0.401  0.401
    eigenvectors:
  0.000  0.000  1.000  0.000  0.000
  0.782  0.139  0.000  0.012  0.068
  0.139  0.782  0.000  0.068  0.012
  0.012  0.067  0.000  0.781  0.140
  0.067  0.012  0.000  0.140  0.781
    occupations:
  0.381  0.000  0.000  0.000  0.000
  0.000  0.359  0.000  0.000  0.012
  0.000  0.000  0.359  0.012  0.000
  0.000  0.000  0.012  0.398  0.000
  0.000  0.012  0.000  0.000  0.398
atom    5   Tr[ns(na)] =   5.43447
    eigenvalues: 
  0.838  0.931  0.949
    eigenvectors:
  0.337  0.000  0.663
  0.497  0.252  0.252
  0.167  0.748  0.085
    occupations:
  0.911 -0.045  0.026
 -0.045  0.889  0.024
  0.026  0.024  0.917
atom    6   Tr[ns(na)] =   5.43447
    eigenvalues: 
  0.838  0.931  0.949
    eigenvectors:
  0.337  0.000  0.663
  0.499  0.248  0.253
  0.165  0.752  0.084
    occupations:
  0.911  0.046  0.026
  0.046  0.889 -0.024
  0.026 -0.024  0.917
atom    7   Tr[ns(na)] =   5.43447
    eigenvalues: 
  0.838  0.931  0.949
    eigenvectors:
  0.337  0.000  0.663
  0.000  1.000  0.000
  0.663  0.000  0.337
    occupations:
  0.911  0.000 -0.053
  0.000  0.931  0.000
 -0.053  0.000  0.875
atom    8   Tr[ns(na)] =   5.43442
    eigenvalues: 
  0.838  0.931  0.949
    eigenvectors:
  0.337  0.000  0.663
  0.497  0.252  0.252
  0.167  0.748  0.085
    occupations:
  0.911 -0.045  0.026
 -0.045  0.889  0.024
  0.026  0.024  0.917
atom    9   Tr[ns(na)] =   5.43442
    eigenvalues: 
  0.838  0.931  0.949
    eigenvectors:
  0.337  0.000  0.663
  0.498  0.248  0.253
  0.165  0.752  0.084
    occupations:
  0.911  0.046  0.026
  0.046  0.889 -0.024
  0.026 -0.024  0.917
atom   10   Tr[ns(na)] =   5.43442
    eigenvalues: 
  0.838  0.931  0.949
    eigenvectors:
  0.337  0.000  0.663
  0.000  1.000  0.000
  0.663  0.000  0.337
    occupations:
  0.911  0.000 -0.053
  0.000  0.931  0.000
 -0.053  0.000  0.875
N of occupied +U levels =  56.2782204
 --- exit write_ns ---
 --- in v_hubbard ---
Hubbard energy    0.5284
 -------

     total cpu time spent up to now is      104.9 secs

     total energy              =    -537.76002612 Ry
     Harris-Foulkes estimate   =    -537.75992572 Ry
     estimated scf accuracy    <       0.00008338 Ry

     iteration #  7     ecut=    30.00 Ry     beta=0.20
     Davidson diagonalization with overlap
     ethr =  1.10E-07,  avg # of iterations =  2.0
 --- enter write_ns ---
 LDA+U parameters:
U( 1)     =  7.00000000
alpha( 1) =  0.00000000
U( 2)     =  0.00000000
alpha( 2) =  0.05000000
U( 3)     =  0.00000000
alpha( 3) =  0.00000000
U( 4)     =  0.00000000
alpha( 4) =  0.00000000
atom    1   Tr[ns(na)] =   8.04834
    eigenvalues: 
  0.514  0.514  0.998  0.998  1.000
    eigenvectors:
  0.000  0.000  0.000  0.000  1.000
  0.341  0.318  0.002  0.340  0.000
  0.318  0.341  0.340  0.002  0.000
  0.288  0.054  0.521  0.137  0.000
  0.054  0.288  0.137  0.521  0.000
    occupations:
  1.000  0.000  0.000  0.000  0.000
  0.000  0.679  0.000 -0.088  0.212
  0.000  0.000  0.679  0.212  0.088
  0.000 -0.088  0.212  0.833  0.000
  0.000  0.212  0.088  0.000  0.833
atom    2   Tr[ns(na)] =   8.04506
    eigenvalues: 
  0.513  0.513  0.998  0.998  1.000
    eigenvectors:
  0.000  0.000  0.000  0.000  1.000
  0.641  0.017  0.226  0.116  0.000
  0.017  0.641  0.116  0.226  0.000
  0.018  0.324  0.475  0.183  0.000
  0.324  0.018  0.183  0.475  0.000
    occupations:
  1.000  0.000  0.000  0.000  0.000
  0.000  0.679  0.000  0.088  0.213
  0.000  0.000  0.679  0.213 -0.088
  0.000  0.088  0.213  0.832  0.000
  0.000  0.213 -0.088  0.000  0.832
atom    3   Tr[ns(na)] =   3.77573
    eigenvalues: 
  0.354  0.354  0.379  0.400  0.400
    eigenvectors:
  0.000  0.000  1.000  0.000  0.000
  0.781  0.140  0.000  0.012  0.068
  0.140  0.781  0.000  0.068  0.012
  0.013  0.067  0.000  0.780  0.141
  0.067  0.013  0.000  0.141  0.780
    occupations:
  0.379  0.000  0.000  0.000  0.000
  0.000  0.358  0.000  0.000  0.012
  0.000  0.000  0.358  0.012  0.000
  0.000  0.000  0.012  0.396  0.000
  0.000  0.012  0.000  0.000  0.396
atom    4   Tr[ns(na)] =   3.78970
    eigenvalues: 
  0.356  0.356  0.381  0.401  0.401
    eigenvectors:
  0.000  0.000  1.000  0.000  0.000
  0.782  0.140  0.000  0.012  0.067
  0.140  0.782  0.000  0.067  0.012
  0.012  0.066  0.000  0.781  0.140
  0.066  0.012  0.000  0.140  0.781
    occupations:
  0.381  0.000  0.000  0.000  0.000
  0.000  0.359  0.000  0.000  0.012
  0.000  0.000  0.359  0.012  0.000
  0.000  0.000  0.012  0.398  0.000
  0.000  0.012  0.000  0.000  0.398
atom    5   Tr[ns(na)] =   5.43645
    eigenvalues: 
  0.838  0.931  0.949
    eigenvectors:
  0.336  0.000  0.664
  0.497  0.251  0.252
  0.167  0.749  0.085
    occupations:
  0.912 -0.045  0.026
 -0.045  0.889  0.024
  0.026  0.024  0.917
atom    6   Tr[ns(na)] =   5.43645
    eigenvalues: 
  0.838  0.931  0.949
    eigenvectors:
  0.336  0.000  0.664
  0.498  0.249  0.253
  0.165  0.751  0.084
    occupations:
  0.912  0.045  0.026
  0.045  0.889 -0.024
  0.026 -0.024  0.917
atom    7   Tr[ns(na)] =   5.43645
    eigenvalues: 
  0.838  0.931  0.949
    eigenvectors:
  0.336  0.000  0.664
  0.000  1.000  0.000
  0.664  0.000  0.336
    occupations:
  0.912  0.000 -0.052
  0.000  0.931  0.000
 -0.052  0.000  0.875
atom    8   Tr[ns(na)] =   5.43641
    eigenvalues: 
  0.838  0.931  0.949
    eigenvectors:
  0.337  0.000  0.663
  0.497  0.251  0.252
  0.167  0.749  0.085
    occupations:
  0.912 -0.045  0.026
 -0.045  0.889  0.024
  0.026  0.024  0.917
atom    9   Tr[ns(na)] =   5.43641
    eigenvalues: 
  0.838  0.931  0.949
    eigenvectors:
  0.337  0.000  0.663
  0.498  0.249  0.253
  0.165  0.751  0.084
    occupations:
  0.912  0.045  0.026
  0.045  0.889 -0.024
  0.026 -0.024  0.917
atom   10   Tr[ns(na)] =   5.43641
    eigenvalues: 
  0.838  0.931  0.949
    eigenvectors:
  0.337  0.000  0.663
  0.000  1.000  0.000
  0.663  0.000  0.337
    occupations:
  0.912  0.000 -0.052
  0.000  0.931  0.000
 -0.052  0.000  0.876
N of occupied +U levels =  56.2774252
 --- exit write_ns ---
 --- in v_hubbard ---
Hubbard energy    0.5300
 -------

     total cpu time spent up to now is      116.6 secs

     total energy              =    -537.76010785 Ry
     Harris-Foulkes estimate   =    -537.76004082 Ry
     estimated scf accuracy    <       0.00010371 Ry

     iteration #  8     ecut=    30.00 Ry     beta=0.20
     Davidson diagonalization with overlap
     ethr =  1.10E-07,  avg # of iterations =  1.1
 --- enter write_ns ---
 LDA+U parameters:
U( 1)     =  7.00000000
alpha( 1) =  0.00000000
U( 2)     =  0.00000000
alpha( 2) =  0.05000000
U( 3)     =  0.00000000
alpha( 3) =  0.00000000
U( 4)     =  0.00000000
alpha( 4) =  0.00000000
atom    1   Tr[ns(na)] =   8.04705
    eigenvalues: 
  0.514  0.514  0.998  0.998  1.000
    eigenvectors:
  0.000  0.000  0.000  0.000  1.000
  0.341  0.317  0.002  0.340  0.000
  0.317  0.341  0.340  0.002  0.000
  0.289  0.053  0.521  0.137  0.000
  0.053  0.289  0.137  0.521  0.000
    occupations:
  1.000  0.000  0.000  0.000  0.000
  0.000  0.679  0.000 -0.089  0.212
  0.000  0.000  0.679  0.212  0.089
  0.000 -0.089  0.212  0.832  0.000
  0.000  0.212  0.089  0.000  0.832
atom    2   Tr[ns(na)] =   8.04619
    eigenvalues: 
  0.513  0.513  0.998  0.998  1.000
    eigenvectors:
  0.000  0.000  0.000  0.000  1.000
  0.641  0.017  0.226  0.116  0.000
  0.017  0.641  0.116  0.226  0.000
  0.019  0.323  0.475  0.183  0.000
  0.323  0.019  0.183  0.475  0.000
    occupations:
  1.000  0.000  0.000  0.000  0.000
  0.000  0.679  0.000  0.088  0.212
  0.000  0.000  0.679  0.212 -0.088
  0.000  0.088  0.212  0.832  0.000
  0.000  0.212 -0.088  0.000  0.832
atom    3   Tr[ns(na)] =   3.77770
    eigenvalues: 
  0.355  0.355  0.379  0.400  0.400
    eigenvectors:
  0.000  0.000  1.000  0.000  0.000
  0.781  0.139  0.000  0.012  0.068
  0.139  0.781  0.000  0.068  0.012
  0.013  0.067  0.000  0.780  0.141
  0.067  0.013  0.000  0.141  0.780
    occupations:
  0.379  0.000  0.000  0.000  0.000
  0.000  0.358  0.000  0.000  0.012
  0.000  0.000  0.358  0.012  0.000
  0.000  0.000  0.012  0.396  0.000
  0.000  0.012  0.000  0.000  0.396
atom    4   Tr[ns(na)] =   3.79182
    eigenvalues: 
  0.356  0.356  0.381  0.401  0.401
    eigenvectors:
  0.000  0.000  1.000  0.000  0.000
  0.782  0.139  0.000  0.011  0.067
  0.139  0.782  0.000  0.067  0.011
  0.012  0.066  0.000  0.781  0.140
  0.066  0.012  0.000  0.140  0.781
    occupations:
  0.381  0.000  0.000  0.000  0.000
  0.000  0.360  0.000  0.000  0.012
  0.000  0.000  0.360  0.012  0.000
  0.000  0.000  0.012  0.398  0.000
  0.000  0.012  0.000  0.000  0.398
atom    5   Tr[ns(na)] =   5.43593
    eigenvalues: 
  0.838  0.931  0.949
    eigenvectors:
  0.337  0.000  0.663
  0.496  0.252  0.252
  0.167  0.748  0.085
    occupations:
  0.912 -0.045  0.026
 -0.045  0.889  0.024
  0.026  0.024  0.917
atom    6   Tr[ns(na)] =   5.43593
    eigenvalues: 
  0.838  0.931  0.949
    eigenvectors:
  0.337  0.000  0.663
  0.499  0.248  0.253
  0.165  0.752  0.084
    occupations:
  0.912  0.045  0.026
  0.045  0.889 -0.024
  0.026 -0.024  0.917
atom    7   Tr[ns(na)] =   5.43593
    eigenvalues: 
  0.838  0.931  0.949
    eigenvectors:
  0.337  0.000  0.663
  0.000  1.000  0.000
  0.663  0.000  0.337
    occupations:
  0.912  0.000 -0.052
  0.000  0.931  0.000
 -0.052  0.000  0.875
atom    8   Tr[ns(na)] =   5.43591
    eigenvalues: 
  0.838  0.931  0.949
    eigenvectors:
  0.337  0.000  0.663
  0.496  0.252  0.252
  0.167  0.748  0.085
    occupations:
  0.912 -0.045  0.026
 -0.045  0.889  0.024
  0.026  0.024  0.917
atom    9   Tr[ns(na)] =   5.43591
    eigenvalues: 
  0.838  0.931  0.949
    eigenvectors:
  0.337  0.000  0.663
  0.499  0.248  0.253
  0.165  0.752  0.084
    occupations:
  0.912  0.045  0.026
  0.045  0.889 -0.024
  0.026 -0.024  0.917
atom   10   Tr[ns(na)] =   5.43591
    eigenvalues: 
  0.838  0.931  0.949
    eigenvectors:
  0.337  0.000  0.663
  0.000  1.000  0.000
  0.663  0.000  0.337
    occupations:
  0.912  0.000 -0.052
  0.000  0.931  0.000
 -0.052  0.000  0.875
N of occupied +U levels =  56.2782870
 --- exit write_ns ---
 --- in v_hubbard ---
Hubbard energy    0.5313
 -------

     total cpu time spent up to now is      129.2 secs

     total energy              =    -537.76015786 Ry
     Harris-Foulkes estimate   =    -537.76011329 Ry
     estimated scf accuracy    <       0.00004231 Ry

     iteration #  9     ecut=    30.00 Ry     beta=0.20
     Davidson diagonalization with overlap
     ethr =  5.57E-08,  avg # of iterations =  2.0
 --- enter write_ns ---
 LDA+U parameters:
U( 1)     =  7.00000000
alpha( 1) =  0.00000000
U( 2)     =  0.00000000
alpha( 2) =  0.05000000
U( 3)     =  0.00000000
alpha( 3) =  0.00000000
U( 4)     =  0.00000000
alpha( 4) =  0.00000000
atom    1   Tr[ns(na)] =   8.05145
    eigenvalues: 
  0.515  0.515  0.998  0.998  1.000
    eigenvectors:
  0.000  0.000  0.000  0.000  1.000
  0.341  0.317  0.002  0.340  0.000
  0.317  0.341  0.340  0.002  0.000
  0.289  0.053  0.521  0.137  0.000
  0.053  0.289  0.137  0.521  0.000
    occupations:
  1.000  0.000  0.000  0.000  0.000
  0.000  0.680  0.000 -0.089  0.211
  0.000  0.000  0.680  0.211  0.089
  0.000 -0.089  0.211  0.833  0.000
  0.000  0.211  0.089  0.000  0.833
atom    2   Tr[ns(na)] =   8.04819
    eigenvalues: 
  0.514  0.514  0.998  0.998  1.000
    eigenvectors:
  0.000  0.000  0.000  0.000  1.000
  0.642  0.016  0.227  0.115  0.000
  0.016  0.642  0.115  0.227  0.000
  0.019  0.323  0.475  0.183  0.000
  0.323  0.019  0.183  0.475  0.000
    occupations:
  1.000  0.000  0.000  0.000  0.000
  0.000  0.679  0.000  0.089  0.212
  0.000  0.000  0.679  0.212 -0.089
  0.000  0.089  0.212  0.833  0.000
  0.000  0.212 -0.089  0.000  0.833
atom    3   Tr[ns(na)] =   3.77891
    eigenvalues: 
  0.355  0.355  0.380  0.400  0.400
    eigenvectors:
  0.000  0.000  1.000  0.000  0.000
  0.781  0.139  0.000  0.012  0.068
  0.139  0.781  0.000  0.068  0.012
  0.013  0.067  0.000  0.780  0.140
  0.067  0.013  0.000  0.140  0.780
    occupations:
  0.380  0.000  0.000  0.000  0.000
  0.000  0.358  0.000  0.000  0.012
  0.000  0.000  0.358  0.012  0.000
  0.000  0.000  0.012  0.397  0.000
  0.000  0.012  0.000  0.000  0.397
atom    4   Tr[ns(na)] =   3.79311
    eigenvalues: 
  0.356  0.356  0.381  0.402  0.402
    eigenvectors:
  0.000  0.000  1.000  0.000  0.000
  0.782  0.139  0.000  0.011  0.067
  0.139  0.782  0.000  0.067  0.011
  0.012  0.066  0.000  0.781  0.140
  0.066  0.012  0.000  0.140  0.781
    occupations:
  0.381  0.000  0.000  0.000  0.000
  0.000  0.360  0.000  0.000  0.012
  0.000  0.000  0.360  0.012  0.000
  0.000  0.000  0.012  0.398  0.000
  0.000  0.012  0.000  0.000  0.398
atom    5   Tr[ns(na)] =   5.43457
    eigenvalues: 
  0.838  0.931  0.949
    eigenvectors:
  0.337  0.000  0.663
  0.497  0.251  0.252
  0.167  0.749  0.085
    occupations:
  0.911 -0.045  0.026
 -0.045  0.889  0.024
  0.026  0.024  0.917
atom    6   Tr[ns(na)] =   5.43457
    eigenvalues: 
  0.838  0.931  0.949
    eigenvectors:
  0.337  0.000  0.663
  0.498  0.249  0.253
  0.165  0.751  0.084
    occupations:
  0.911  0.045  0.026
  0.045  0.889 -0.024
  0.026 -0.024  0.917
atom    7   Tr[ns(na)] =   5.43457
    eigenvalues: 
  0.838  0.931  0.949
    eigenvectors:
  0.337  0.000  0.663
  0.000  1.000  0.000
  0.663  0.000  0.337
    occupations:
  0.911  0.000 -0.052
  0.000  0.931  0.000
 -0.052  0.000  0.875
atom    8   Tr[ns(na)] =   5.43455
    eigenvalues: 
  0.838  0.931  0.949
    eigenvectors:
  0.337  0.000  0.663
  0.497  0.251  0.252
  0.167  0.749  0.085
    occupations:
  0.911 -0.045  0.026
 -0.045  0.889  0.024
  0.026  0.024  0.917
atom    9   Tr[ns(na)] =   5.43455
    eigenvalues: 
  0.838  0.931  0.949
    eigenvectors:
  0.337  0.000  0.663
  0.498  0.249  0.253
  0.165  0.751  0.084
    occupations:
  0.911  0.045  0.026
  0.045  0.889 -0.024
  0.026 -0.024  0.917
atom   10   Tr[ns(na)] =   5.43455
    eigenvalues: 
  0.838  0.931  0.949
    eigenvectors:
  0.337  0.000  0.663
  0.000  1.000  0.000
  0.663  0.000  0.337
    occupations:
  0.911  0.000 -0.052
  0.000  0.931  0.000
 -0.052  0.000  0.875
N of occupied +U levels =  56.2790300
 --- exit write_ns ---
 --- in v_hubbard ---
Hubbard energy    0.5310
 -------

     total cpu time spent up to now is      142.4 secs

     total energy              =    -537.76019087 Ry
     Harris-Foulkes estimate   =    -537.76016396 Ry
     estimated scf accuracy    <       0.00000789 Ry

     iteration # 10     ecut=    30.00 Ry     beta=0.20
     Davidson diagonalization with overlap
     ethr =  1.04E-08,  avg # of iterations =  2.0
 --- enter write_ns ---
 LDA+U parameters:
U( 1)     =  7.00000000
alpha( 1) =  0.00000000
U( 2)     =  0.00000000
alpha( 2) =  0.05000000
U( 3)     =  0.00000000
alpha( 3) =  0.00000000
U( 4)     =  0.00000000
alpha( 4) =  0.00000000
atom    1   Tr[ns(na)] =   8.04870
    eigenvalues: 
  0.514  0.514  0.998  0.998  1.000
    eigenvectors:
  0.000  0.000  0.000  0.000  1.000
  0.342  0.316  0.002  0.340  0.000
  0.316  0.342  0.340  0.002  0.000
  0.289  0.053  0.522  0.137  0.000
  0.053  0.289  0.137  0.522  0.000
    occupations:
  1.000  0.000  0.000  0.000  0.000
  0.000  0.679  0.000 -0.090  0.211
  0.000  0.000  0.679  0.211  0.090
  0.000 -0.090  0.211  0.833  0.000
  0.000  0.211  0.090  0.000  0.833
atom    2   Tr[ns(na)] =   8.04525
    eigenvalues: 
  0.513  0.513  0.998  0.998  1.000
    eigenvectors:
  0.000  0.000  0.000  0.000  1.000
  0.642  0.016  0.227  0.115  0.000
  0.016  0.642  0.115  0.227  0.000
  0.020  0.322  0.475  0.183  0.000
  0.322  0.020  0.183  0.475  0.000
    occupations:
  1.000  0.000  0.000  0.000  0.000
  0.000  0.679  0.000  0.089  0.212
  0.000  0.000  0.679  0.212 -0.089
  0.000  0.089  0.212  0.832  0.000
  0.000  0.212 -0.089  0.000  0.832
atom    3   Tr[ns(na)] =   3.77809
    eigenvalues: 
  0.355  0.355  0.380  0.400  0.400
    eigenvectors:
  0.000  0.000  1.000  0.000  0.000
  0.781  0.139  0.000  0.012  0.068
  0.139  0.781  0.000  0.068  0.012
  0.013  0.067  0.000  0.780  0.140
  0.067  0.013  0.000  0.140  0.780
    occupations:
  0.380  0.000  0.000  0.000  0.000
  0.000  0.358  0.000  0.000  0.012
  0.000  0.000  0.358  0.012  0.000
  0.000  0.000  0.012  0.397  0.000
  0.000  0.012  0.000  0.000  0.397
atom    4   Tr[ns(na)] =   3.79207
    eigenvalues: 
  0.356  0.356  0.381  0.401  0.401
    eigenvectors:
  0.000  0.000  1.000  0.000  0.000
  0.782  0.139  0.000  0.011  0.067
  0.139  0.782  0.000  0.067  0.011
  0.012  0.066  0.000  0.781  0.140
  0.066  0.012  0.000  0.140  0.781
    occupations:
  0.381  0.000  0.000  0.000  0.000
  0.000  0.360  0.000  0.000  0.012
  0.000  0.000  0.360  0.012  0.000
  0.000  0.000  0.012  0.398  0.000
  0.000  0.012  0.000  0.000  0.398
atom    5   Tr[ns(na)] =   5.43560
    eigenvalues: 
  0.838  0.931  0.949
    eigenvectors:
  0.337  0.000  0.663
  0.497  0.251  0.252
  0.167  0.749  0.085
    occupations:
  0.911 -0.045  0.026
 -0.045  0.889  0.024
  0.026  0.024  0.917
atom    6   Tr[ns(na)] =   5.43560
    eigenvalues: 
  0.838  0.931  0.949
    eigenvectors:
  0.337  0.000  0.663
  0.498  0.249  0.253
  0.165  0.751  0.084
    occupations:
  0.911  0.045  0.026
  0.045  0.889 -0.024
  0.026 -0.024  0.917
atom    7   Tr[ns(na)] =   5.43560
    eigenvalues: 
  0.838  0.931  0.949
    eigenvectors:
  0.337  0.000  0.663
  0.000  1.000  0.000
  0.663  0.000  0.337
    occupations:
  0.911  0.000 -0.052
  0.000  0.931  0.000
 -0.052  0.000  0.875
atom    8   Tr[ns(na)] =   5.43559
    eigenvalues: 
  0.838  0.931  0.949
    eigenvectors:
  0.337  0.000  0.663
  0.497  0.251  0.252
  0.167  0.749  0.085
    occupations:
  0.912 -0.045  0.026
 -0.045  0.889  0.024
  0.026  0.024  0.917
atom    9   Tr[ns(na)] =   5.43559
    eigenvalues: 
  0.838  0.931  0.949
    eigenvectors:
  0.337  0.000  0.663
  0.498  0.249  0.253
  0.165  0.751  0.084
    occupations:
  0.912  0.045  0.026
  0.045  0.889 -0.024
  0.026 -0.024  0.917
atom   10   Tr[ns(na)] =   5.43559
    eigenvalues: 
  0.838  0.931  0.949
    eigenvectors:
  0.337  0.000  0.663
  0.000  1.000  0.000
  0.663  0.000  0.337
    occupations:
  0.912  0.000 -0.052
  0.000  0.931  0.000
 -0.052  0.000  0.875
N of occupied +U levels =  56.2776707
 --- exit write_ns ---
 --- in v_hubbard ---
Hubbard energy    0.5318
 -------

     total cpu time spent up to now is      156.4 secs

     total energy              =    -537.76021893 Ry
     Harris-Foulkes estimate   =    -537.76019480 Ry
     estimated scf accuracy    <       0.00000694 Ry

     iteration # 11     ecut=    30.00 Ry     beta=0.20
     Davidson diagonalization with overlap
     ethr =  9.13E-09,  avg # of iterations =  1.0
 --- enter write_ns ---
 LDA+U parameters:
U( 1)     =  7.00000000
alpha( 1) =  0.00000000
U( 2)     =  0.00000000
alpha( 2) =  0.05000000
U( 3)     =  0.00000000
alpha( 3) =  0.00000000
U( 4)     =  0.00000000
alpha( 4) =  0.00000000
atom    1   Tr[ns(na)] =   8.05037
    eigenvalues: 
  0.514  0.514  0.998  0.998  1.000
    eigenvectors:
  0.000  0.000  0.000  0.000  1.000
  0.342  0.316  0.002  0.340  0.000
  0.316  0.342  0.340  0.002  0.000
  0.289  0.053  0.522  0.136  0.000
  0.053  0.289  0.136  0.522  0.000
    occupations:
  1.000  0.000  0.000  0.000  0.000
  0.000  0.680  0.000 -0.090  0.211
  0.000  0.000  0.680  0.211  0.090
  0.000 -0.090  0.211  0.833  0.000
  0.000  0.211  0.090  0.000  0.833
atom    2   Tr[ns(na)] =   8.04716
    eigenvalues: 
  0.513  0.513  0.998  0.998  1.000
    eigenvectors:
  0.000  0.000  0.000  0.000  1.000
  0.642  0.016  0.228  0.114  0.000
  0.016  0.642  0.114  0.228  0.000
  0.020  0.322  0.475  0.183  0.000
  0.322  0.020  0.183  0.475  0.000
    occupations:
  1.000  0.000  0.000  0.000  0.000
  0.000  0.679  0.000  0.089  0.212
  0.000  0.000  0.679  0.212 -0.089
  0.000  0.089  0.212  0.833  0.000
  0.000  0.212 -0.089  0.000  0.833
atom    3   Tr[ns(na)] =   3.77861
    eigenvalues: 
  0.355  0.355  0.380  0.400  0.400
    eigenvectors:
  0.000  0.000  1.000  0.000  0.000
  0.781  0.139  0.000  0.012  0.068
  0.139  0.781  0.000  0.068  0.012
  0.013  0.067  0.000  0.780  0.141
  0.067  0.013  0.000  0.141  0.780
    occupations:
  0.380  0.000  0.000  0.000  0.000
  0.000  0.358  0.000  0.000  0.012
  0.000  0.000  0.358  0.012  0.000
  0.000  0.000  0.012  0.397  0.000
  0.000  0.012  0.000  0.000  0.397
atom    4   Tr[ns(na)] =   3.79254
    eigenvalues: 
  0.356  0.356  0.381  0.401  0.401
    eigenvectors:
  0.000  0.000  1.000  0.000  0.000
  0.782  0.139  0.000  0.011  0.067
  0.139  0.782  0.000  0.067  0.011
  0.012  0.066  0.000  0.781  0.140
  0.066  0.012  0.000  0.140  0.781
    occupations:
  0.381  0.000  0.000  0.000  0.000
  0.000  0.360  0.000  0.000  0.012
  0.000  0.000  0.360  0.012  0.000
  0.000  0.000  0.012  0.398  0.000
  0.000  0.012  0.000  0.000  0.398
atom    5   Tr[ns(na)] =   5.43495
    eigenvalues: 
  0.838  0.931  0.949
    eigenvectors:
  0.337  0.000  0.663
  0.497  0.251  0.252
  0.167  0.749  0.085
    occupations:
  0.911 -0.045  0.026
 -0.045  0.889  0.024
  0.026  0.024  0.917
atom    6   Tr[ns(na)] =   5.43495
    eigenvalues: 
  0.838  0.931  0.949
    eigenvectors:
  0.337  0.000  0.663
  0.498  0.249  0.253
  0.165  0.751  0.084
    occupations:
  0.911  0.045  0.026
  0.045  0.889 -0.024
  0.026 -0.024  0.917
atom    7   Tr[ns(na)] =   5.43495
    eigenvalues: 
  0.838  0.931  0.949
    eigenvectors:
  0.337  0.000  0.663
  0.000  1.000  0.000
  0.663  0.000  0.337
    occupations:
  0.911  0.000 -0.052
  0.000  0.931  0.000
 -0.052  0.000  0.875
atom    8   Tr[ns(na)] =   5.43494
    eigenvalues: 
  0.838  0.931  0.949
    eigenvectors:
  0.337  0.000  0.663
  0.497  0.251  0.252
  0.167  0.749  0.085
    occupations:
  0.911 -0.045  0.026
 -0.045  0.889  0.024
  0.026  0.024  0.917
atom    9   Tr[ns(na)] =   5.43494
    eigenvalues: 
  0.838  0.931  0.949
    eigenvectors:
  0.337  0.000  0.663
  0.498  0.249  0.253
  0.165  0.751  0.084
    occupations:
  0.911  0.045  0.026
  0.045  0.889 -0.024
  0.026 -0.024  0.917
atom   10   Tr[ns(na)] =   5.43494
    eigenvalues: 
  0.838  0.931  0.949
    eigenvectors:
  0.337  0.000  0.663
  0.000  1.000  0.000
  0.663  0.000  0.337
    occupations:
  0.911  0.000 -0.052
  0.000  0.931  0.000
 -0.052  0.000  0.875
N of occupied +U levels =  56.2783360
 --- exit write_ns ---
 --- in v_hubbard ---
Hubbard energy    0.5315
 -------

     total cpu time spent up to now is      168.7 secs

     total energy              =    -537.76023280 Ry
     Harris-Foulkes estimate   =    -537.76022032 Ry
     estimated scf accuracy    <       0.00000154 Ry

     iteration # 12     ecut=    30.00 Ry     beta=0.20
     Davidson diagonalization with overlap
     ethr =  2.03E-09,  avg # of iterations =  1.4
 --- enter write_ns ---
 LDA+U parameters:
U( 1)     =  7.00000000
alpha( 1) =  0.00000000
U( 2)     =  0.00000000
alpha( 2) =  0.05000000
U( 3)     =  0.00000000
alpha( 3) =  0.00000000
U( 4)     =  0.00000000
alpha( 4) =  0.00000000
atom    1   Tr[ns(na)] =   8.04979
    eigenvalues: 
  0.514  0.514  0.998  0.998  1.000
    eigenvectors:
  0.000  0.000  0.000  0.000  1.000
  0.343  0.316  0.002  0.340  0.000
  0.316  0.343  0.340  0.002  0.000
  0.289  0.052  0.522  0.136  0.000
  0.052  0.289  0.136  0.522  0.000
    occupations:
  1.000  0.000  0.000  0.000  0.000
  0.000  0.680  0.000 -0.090  0.211
  0.000  0.000  0.680  0.211  0.090
  0.000 -0.090  0.211  0.833  0.000
  0.000  0.211  0.090  0.000  0.833
atom    2   Tr[ns(na)] =   8.04654
    eigenvalues: 
  0.513  0.513  0.998  0.998  1.000
    eigenvectors:
  0.000  0.000  0.000  0.000  1.000
  0.643  0.015  0.228  0.114  0.000
  0.015  0.643  0.114  0.228  0.000
  0.021  0.321  0.476  0.183  0.000
  0.321  0.021  0.183  0.476  0.000
    occupations:
  1.000  0.000  0.000  0.000  0.000
  0.000  0.679  0.000  0.090  0.212
  0.000  0.000  0.679  0.212 -0.090
  0.000  0.090  0.212  0.833  0.000
  0.000  0.212 -0.090  0.000  0.833
atom    3   Tr[ns(na)] =   3.77872
    eigenvalues: 
  0.355  0.355  0.380  0.400  0.400
    eigenvectors:
  0.000  0.000  1.000  0.000  0.000
  0.782  0.139  0.000  0.012  0.068
  0.139  0.782  0.000  0.068  0.012
  0.012  0.067  0.000  0.780  0.140
  0.067  0.012  0.000  0.140  0.780
    occupations:
  0.380  0.000  0.000  0.000  0.000
  0.000  0.358  0.000  0.000  0.012
  0.000  0.000  0.358  0.012  0.000
  0.000  0.000  0.012  0.397  0.000
  0.000  0.012  0.000  0.000  0.397
atom    4   Tr[ns(na)] =   3.79279
    eigenvalues: 
  0.356  0.356  0.381  0.402  0.402
    eigenvectors:
  0.000  0.000  1.000  0.000  0.000
  0.783  0.139  0.000  0.011  0.067
  0.139  0.783  0.000  0.067  0.011
  0.012  0.066  0.000  0.781  0.140
  0.066  0.012  0.000  0.140  0.781
    occupations:
  0.381  0.000  0.000  0.000  0.000
  0.000  0.360  0.000  0.000  0.012
  0.000  0.000  0.360  0.012  0.000
  0.000  0.000  0.012  0.398  0.000
  0.000  0.012  0.000  0.000  0.398
atom    5   Tr[ns(na)] =   5.43510
    eigenvalues: 
  0.838  0.931  0.949
    eigenvectors:
  0.337  0.000  0.663
  0.497  0.251  0.252
  0.167  0.749  0.085
    occupations:
  0.911 -0.045  0.026
 -0.045  0.889  0.024
  0.026  0.024  0.917
atom    6   Tr[ns(na)] =   5.43510
    eigenvalues: 
  0.838  0.931  0.949
    eigenvectors:
  0.337  0.000  0.663
  0.498  0.249  0.253
  0.165  0.751  0.084
    occupations:
  0.911  0.045  0.026
  0.045  0.889 -0.024
  0.026 -0.024  0.917
atom    7   Tr[ns(na)] =   5.43510
    eigenvalues: 
  0.838  0.931  0.949
    eigenvectors:
  0.337  0.000  0.663
  0.000  1.000  0.000
  0.663  0.000  0.337
    occupations:
  0.911  0.000 -0.052
  0.000  0.931  0.000
 -0.052  0.000  0.875
atom    8   Tr[ns(na)] =   5.43507
    eigenvalues: 
  0.838  0.931  0.949
    eigenvectors:
  0.337  0.000  0.663
  0.497  0.251  0.252
  0.167  0.749  0.085
    occupations:
  0.911 -0.045  0.026
 -0.045  0.889  0.024
  0.026  0.024  0.917
atom    9   Tr[ns(na)] =   5.43507
    eigenvalues: 
  0.838  0.931  0.949
    eigenvectors:
  0.337  0.000  0.663
  0.498  0.249  0.253
  0.165  0.751  0.084
    occupations:
  0.911  0.045  0.026
  0.045  0.889 -0.024
  0.026 -0.024  0.917
atom   10   Tr[ns(na)] =   5.43507
    eigenvalues: 
  0.838  0.931  0.949
    eigenvectors:
  0.337  0.000  0.663
  0.000  1.000  0.000
  0.663  0.000  0.337
    occupations:
  0.911  0.000 -0.052
  0.000  0.931  0.000
 -0.052  0.000  0.875
N of occupied +U levels =  56.2783499
 --- exit write_ns ---
 --- in v_hubbard ---
Hubbard energy    0.5314
 -------

     total cpu time spent up to now is      181.1 secs

     total energy              =    -537.76024409 Ry
     Harris-Foulkes estimate   =    -537.76023421 Ry
     estimated scf accuracy    <       0.00000011 Ry

     iteration # 13     ecut=    30.00 Ry     beta=0.20
     Davidson diagonalization with overlap
     ethr =  1.48E-10,  avg # of iterations =  2.8
 --- enter write_ns ---
 LDA+U parameters:
U( 1)     =  7.00000000
alpha( 1) =  0.00000000
U( 2)     =  0.00000000
alpha( 2) =  0.05000000
U( 3)     =  0.00000000
alpha( 3) =  0.00000000
U( 4)     =  0.00000000
alpha( 4) =  0.00000000
atom    1   Tr[ns(na)] =   8.04999
    eigenvalues: 
  0.514  0.514  0.998  0.998  1.000
    eigenvectors:
  0.000  0.000  0.000  0.000  1.000
  0.343  0.316  0.002  0.340  0.000
  0.316  0.343  0.340  0.002  0.000
  0.289  0.052  0.522  0.136  0.000
  0.052  0.289  0.136  0.522  0.000
    occupations:
  1.000  0.000  0.000  0.000  0.000
  0.000  0.680  0.000 -0.090  0.211
  0.000  0.000  0.680  0.211  0.090
  0.000 -0.090  0.211  0.833  0.000
  0.000  0.211  0.090  0.000  0.833
atom    2   Tr[ns(na)] =   8.04675
    eigenvalues: 
  0.513  0.513  0.998  0.998  1.000
    eigenvectors:
  0.000  0.000  0.000  0.000  1.000
  0.643  0.015  0.228  0.114  0.000
  0.015  0.643  0.114  0.228  0.000
  0.021  0.321  0.475  0.183  0.000
  0.321  0.021  0.183  0.475  0.000
    occupations:
  1.000  0.000  0.000  0.000  0.000
  0.000  0.679  0.000  0.090  0.212
  0.000  0.000  0.679  0.212 -0.090
  0.000  0.090  0.212  0.833  0.000
  0.000  0.212 -0.090  0.000  0.833
atom    3   Tr[ns(na)] =   3.77878
    eigenvalues: 
  0.355  0.355  0.380  0.400  0.400
    eigenvectors:
  0.000  0.000  1.000  0.000  0.000
  0.781  0.139  0.000  0.012  0.068
  0.139  0.781  0.000  0.068  0.012
  0.013  0.067  0.000  0.780  0.140
  0.067  0.013  0.000  0.140  0.780
    occupations:
  0.380  0.000  0.000  0.000  0.000
  0.000  0.358  0.000  0.000  0.012
  0.000  0.000  0.358  0.012  0.000
  0.000  0.000  0.012  0.397  0.000
  0.000  0.012  0.000  0.000  0.397
atom    4   Tr[ns(na)] =   3.79289
    eigenvalues: 
  0.356  0.356  0.381  0.402  0.402
    eigenvectors:
  0.000  0.000  1.000  0.000  0.000
  0.783  0.139  0.000  0.011  0.067
  0.139  0.783  0.000  0.067  0.011
  0.012  0.066  0.000  0.781  0.140
  0.066  0.012  0.000  0.140  0.781
    occupations:
  0.381  0.000  0.000  0.000  0.000
  0.000  0.360  0.000  0.000  0.012
  0.000  0.000  0.360  0.012  0.000
  0.000  0.000  0.012  0.398  0.000
  0.000  0.012  0.000  0.000  0.398
atom    5   Tr[ns(na)] =   5.43502
    eigenvalues: 
  0.838  0.931  0.949
    eigenvectors:
  0.337  0.000  0.663
  0.497  0.251  0.252
  0.167  0.749  0.085
    occupations:
  0.911 -0.045  0.026
 -0.045  0.889  0.024
  0.026  0.024  0.917
atom    6   Tr[ns(na)] =   5.43502
    eigenvalues: 
  0.838  0.931  0.949
    eigenvectors:
  0.337  0.000  0.663
  0.498  0.249  0.253
  0.165  0.751  0.084
    occupations:
  0.911  0.045  0.026
  0.045  0.889 -0.024
  0.026 -0.024  0.917
atom    7   Tr[ns(na)] =   5.43502
    eigenvalues: 
  0.838  0.931  0.949
    eigenvectors:
  0.337  0.000  0.663
  0.000  1.000  0.000
  0.663  0.000  0.337
    occupations:
  0.911  0.000 -0.052
  0.000  0.931  0.000
 -0.052  0.000  0.875
atom    8   Tr[ns(na)] =   5.43500
    eigenvalues: 
  0.838  0.931  0.949
    eigenvectors:
  0.337  0.000  0.663
  0.497  0.251  0.252
  0.167  0.749  0.085
    occupations:
  0.911 -0.045  0.026
 -0.045  0.889  0.024
  0.026  0.024  0.917
atom    9   Tr[ns(na)] =   5.43500
    eigenvalues: 
  0.838  0.931  0.949
    eigenvectors:
  0.337  0.000  0.663
  0.498  0.249  0.253
  0.165  0.751  0.084
    occupations:
  0.911  0.045  0.026
  0.045  0.889 -0.024
  0.026 -0.024  0.917
atom   10   Tr[ns(na)] =   5.43500
    eigenvalues: 
  0.838  0.931  0.949
    eigenvectors:
  0.337  0.000  0.663
  0.000  1.000  0.000
  0.663  0.000  0.337
    occupations:
  0.911  0.000 -0.052
  0.000  0.931  0.000
 -0.052  0.000  0.875
N of occupied +U levels =  56.2784813
 --- exit write_ns ---
 --- in v_hubbard ---
Hubbard energy    0.5314
 -------

     total cpu time spent up to now is      195.0 secs

     total energy              =    -537.76025028 Ry
     Harris-Foulkes estimate   =    -537.76024414 Ry
     estimated scf accuracy    <       0.00000006 Ry

     iteration # 14     ecut=    30.00 Ry     beta=0.20
     Davidson diagonalization with overlap
     ethr =  7.50E-11,  avg # of iterations =  3.0
 --- enter write_ns ---
 LDA+U parameters:
U( 1)     =  7.00000000
alpha( 1) =  0.00000000
U( 2)     =  0.00000000
alpha( 2) =  0.05000000
U( 3)     =  0.00000000
alpha( 3) =  0.00000000
U( 4)     =  0.00000000
alpha( 4) =  0.00000000
atom    1   Tr[ns(na)] =   8.04999
    eigenvalues: 
  0.514  0.514  0.998  0.998  1.000
    eigenvectors:
  0.000  0.000  0.000  0.000  1.000
  0.343  0.316  0.002  0.340  0.000
  0.316  0.343  0.340  0.002  0.000
  0.290  0.052  0.522  0.136  0.000
  0.052  0.290  0.136  0.522  0.000
    occupations:
  1.000  0.000  0.000  0.000  0.000
  0.000  0.680  0.000 -0.090  0.211
  0.000  0.000  0.680  0.211  0.090
  0.000 -0.090  0.211  0.833  0.000
  0.000  0.211  0.090  0.000  0.833
atom    2   Tr[ns(na)] =   8.04675
    eigenvalues: 
  0.513  0.513  0.998  0.998  1.000
    eigenvectors:
  0.000  0.000  0.000  0.000  1.000
  0.643  0.015  0.228  0.114  0.000
  0.015  0.643  0.114  0.228  0.000
  0.021  0.321  0.475  0.183  0.000
  0.321  0.021  0.183  0.475  0.000
    occupations:
  1.000  0.000  0.000  0.000  0.000
  0.000  0.679  0.000  0.090  0.212
  0.000  0.000  0.679  0.212 -0.090
  0.000  0.090  0.212  0.833  0.000
  0.000  0.212 -0.090  0.000  0.833
atom    3   Tr[ns(na)] =   3.77861
    eigenvalues: 
  0.355  0.355  0.380  0.400  0.400
    eigenvectors:
  0.000  0.000  1.000  0.000  0.000
  0.781  0.139  0.000  0.012  0.068
  0.139  0.781  0.000  0.068  0.012
  0.013  0.067  0.000  0.780  0.140
  0.067  0.013  0.000  0.140  0.780
    occupations:
  0.380  0.000  0.000  0.000  0.000
  0.000  0.358  0.000  0.000  0.012
  0.000  0.000  0.358  0.012  0.000
  0.000  0.000  0.012  0.397  0.000
  0.000  0.012  0.000  0.000  0.397
atom    4   Tr[ns(na)] =   3.79263
    eigenvalues: 
  0.356  0.356  0.381  0.401  0.401
    eigenvectors:
  0.000  0.000  1.000  0.000  0.000
  0.782  0.139  0.000  0.011  0.067
  0.139  0.782  0.000  0.067  0.011
  0.012  0.066  0.000  0.781  0.140
  0.066  0.012  0.000  0.140  0.781
    occupations:
  0.381  0.000  0.000  0.000  0.000
  0.000  0.360  0.000  0.000  0.012
  0.000  0.000  0.360  0.012  0.000
  0.000  0.000  0.012  0.398  0.000
  0.000  0.012  0.000  0.000  0.398
atom    5   Tr[ns(na)] =   5.43507
    eigenvalues: 
  0.838  0.931  0.949
    eigenvectors:
  0.337  0.000  0.663
  0.497  0.251  0.252
  0.167  0.749  0.085
    occupations:
  0.911 -0.045  0.026
 -0.045  0.889  0.024
  0.026  0.024  0.917
atom    6   Tr[ns(na)] =   5.43507
    eigenvalues: 
  0.838  0.931  0.949
    eigenvectors:
  0.337  0.000  0.663
  0.498  0.249  0.253
  0.165  0.751  0.084
    occupations:
  0.911  0.045  0.026
  0.045  0.889 -0.024
  0.026 -0.024  0.917
atom    7   Tr[ns(na)] =   5.43507
    eigenvalues: 
  0.838  0.931  0.949
    eigenvectors:
  0.337  0.000  0.663
  0.000  1.000  0.000
  0.663  0.000  0.337
    occupations:
  0.911  0.000 -0.052
  0.000  0.931  0.000
 -0.052  0.000  0.875
atom    8   Tr[ns(na)] =   5.43506
    eigenvalues: 
  0.838  0.931  0.949
    eigenvectors:
  0.337  0.000  0.663
  0.497  0.251  0.252
  0.167  0.749  0.085
    occupations:
  0.911 -0.045  0.026
 -0.045  0.889  0.024
  0.026  0.024  0.917
atom    9   Tr[ns(na)] =   5.43506
    eigenvalues: 
  0.838  0.931  0.949
    eigenvectors:
  0.337  0.000  0.663
  0.498  0.249  0.253
  0.165  0.751  0.084
    occupations:
  0.911  0.045  0.026
  0.045  0.889 -0.024
  0.026 -0.024  0.917
atom   10   Tr[ns(na)] =   5.43506
    eigenvalues: 
  0.838  0.931  0.949
    eigenvectors:
  0.337  0.000  0.663
  0.000  1.000  0.000
  0.663  0.000  0.337
    occupations:
  0.911  0.000 -0.052
  0.000  0.931  0.000
 -0.052  0.000  0.875
N of occupied +U levels =  56.2783479
 --- exit write_ns ---
 --- in v_hubbard ---
Hubbard energy    0.5314
 -------

     total cpu time spent up to now is      210.9 secs

     total energy              =    -537.76025426 Ry
     Harris-Foulkes estimate   =    -537.76025031 Ry
     estimated scf accuracy    <       0.00000002 Ry

     iteration # 15     ecut=    30.00 Ry     beta=0.20
     Davidson diagonalization with overlap
     ethr =  2.72E-11,  avg # of iterations =  2.1
 --- enter write_ns ---
 LDA+U parameters:
U( 1)     =  7.00000000
alpha( 1) =  0.00000000
U( 2)     =  0.00000000
alpha( 2) =  0.05000000
U( 3)     =  0.00000000
alpha( 3) =  0.00000000
U( 4)     =  0.00000000
alpha( 4) =  0.00000000
atom    1   Tr[ns(na)] =   8.05004
    eigenvalues: 
  0.514  0.514  0.998  0.998  1.000
    eigenvectors:
  0.000  0.000  0.000  0.000  1.000
  0.342  0.316  0.002  0.340  0.000
  0.316  0.342  0.340  0.002  0.000
  0.290  0.052  0.522  0.136  0.000
  0.052  0.290  0.136  0.522  0.000
    occupations:
  1.000  0.000  0.000  0.000  0.000
  0.000  0.680  0.000 -0.090  0.211
  0.000  0.000  0.680  0.211  0.090
  0.000 -0.090  0.211  0.833  0.000
  0.000  0.211  0.090  0.000  0.833
atom    2   Tr[ns(na)] =   8.04680
    eigenvalues: 
  0.513  0.513  0.998  0.998  1.000
    eigenvectors:
  0.000  0.000  0.000  0.000  1.000
  0.643  0.015  0.228  0.114  0.000
  0.015  0.643  0.114  0.228  0.000
  0.021  0.321  0.475  0.183  0.000
  0.321  0.021  0.183  0.475  0.000
    occupations:
  1.000  0.000  0.000  0.000  0.000
  0.000  0.679  0.000  0.090  0.212
  0.000  0.000  0.679  0.212 -0.090
  0.000  0.090  0.212  0.833  0.000
  0.000  0.212 -0.090  0.000  0.833
atom    3   Tr[ns(na)] =   3.77870
    eigenvalues: 
  0.355  0.355  0.380  0.400  0.400
    eigenvectors:
  0.000  0.000  1.000  0.000  0.000
  0.781  0.139  0.000  0.012  0.068
  0.139  0.781  0.000  0.068  0.012
  0.013  0.067  0.000  0.780  0.140
  0.067  0.013  0.000  0.140  0.780
    occupations:
  0.380  0.000  0.000  0.000  0.000
  0.000  0.358  0.000  0.000  0.012
  0.000  0.000  0.358  0.012  0.000
  0.000  0.000  0.012  0.397  0.000
  0.000  0.012  0.000  0.000  0.397
atom    4   Tr[ns(na)] =   3.79273
    eigenvalues: 
  0.356  0.356  0.381  0.402  0.402
    eigenvectors:
  0.000  0.000  1.000  0.000  0.000
  0.782  0.139  0.000  0.011  0.067
  0.139  0.782  0.000  0.067  0.011
  0.012  0.066  0.000  0.781  0.140
  0.066  0.012  0.000  0.140  0.781
    occupations:
  0.381  0.000  0.000  0.000  0.000
  0.000  0.360  0.000  0.000  0.012
  0.000  0.000  0.360  0.012  0.000
  0.000  0.000  0.012  0.398  0.000
  0.000  0.012  0.000  0.000  0.398
atom    5   Tr[ns(na)] =   5.43503
    eigenvalues: 
  0.838  0.931  0.949
    eigenvectors:
  0.337  0.000  0.663
  0.497  0.251  0.252
  0.167  0.749  0.085
    occupations:
  0.911 -0.045  0.026
 -0.045  0.889  0.024
  0.026  0.024  0.917
atom    6   Tr[ns(na)] =   5.43503
    eigenvalues: 
  0.838  0.931  0.949
    eigenvectors:
  0.337  0.000  0.663
  0.498  0.249  0.253
  0.165  0.751  0.084
    occupations:
  0.911  0.045  0.026
  0.045  0.889 -0.024
  0.026 -0.024  0.917
atom    7   Tr[ns(na)] =   5.43503
    eigenvalues: 
  0.838  0.931  0.949
    eigenvectors:
  0.337  0.000  0.663
  0.000  1.000  0.000
  0.663  0.000  0.337
    occupations:
  0.911  0.000 -0.052
  0.000  0.931  0.000
 -0.052  0.000  0.875
atom    8   Tr[ns(na)] =   5.43502
    eigenvalues: 
  0.838  0.931  0.949
    eigenvectors:
  0.337  0.000  0.663
  0.497  0.251  0.252
  0.167  0.749  0.085
    occupations:
  0.911 -0.045  0.026
 -0.045  0.889  0.024
  0.026  0.024  0.917
atom    9   Tr[ns(na)] =   5.43502
    eigenvalues: 
  0.838  0.931  0.949
    eigenvectors:
  0.337  0.000  0.663
  0.498  0.249  0.253
  0.165  0.751  0.084
    occupations:
  0.911  0.045  0.026
  0.045  0.889 -0.024
  0.026 -0.024  0.917
atom   10   Tr[ns(na)] =   5.43502
    eigenvalues: 
  0.838  0.931  0.949
    eigenvectors:
  0.337  0.000  0.663
  0.000  1.000  0.000
  0.663  0.000  0.337
    occupations:
  0.911  0.000 -0.052
  0.000  0.931  0.000
 -0.052  0.000  0.875
N of occupied +U levels =  56.2784222
 --- exit write_ns ---
 --- in v_hubbard ---
Hubbard energy    0.5314
 -------

     total cpu time spent up to now is      224.1 secs

     End of self-consistent calculation

          k = 0.0000 0.0000 0.0000 (  2175 PWs)   bands (ev):

   -19.8012 -19.6264  -6.5446  -5.8856  -5.8856  -5.8064  -5.8064  -5.4652
    -3.9447  -3.3120  -3.3120  -3.2616  -3.0247  -3.0247   5.1600   5.8203
     5.8203   5.8758   6.4983   6.4983   7.2424   7.5147   7.5147   7.7115
     7.7132   7.7132   9.3024   9.6314   9.6314   9.9790   9.9790  10.1492
    10.4641  10.4641  10.6106  10.6106  10.6805  10.8901  11.8230  11.8230
    14.7088  14.7088  15.4526  15.4526  16.2237  16.8087

     occupation numbers 
     0.0313   0.0313   0.0313   0.0313   0.0313   0.0313   0.0313   0.0313
     0.0313   0.0313   0.0313   0.0313   0.0313   0.0313   0.0313   0.0313
     0.0313   0.0313   0.0313   0.0313   0.0313   0.0313   0.0313   0.0313
     0.0313   0.0313   0.0312   0.0312   0.0312   0.0312   0.0312   0.0312
     0.0312   0.0312   0.0311   0.0311   0.0310   0.0297   0.0018   0.0018
     0.0000   0.0000   0.0000   0.0000   0.0000   0.0000

          k =-0.2471-0.1427 0.1027 (  2181 PWs)   bands (ev):

   -19.7786 -19.6743  -6.7222  -6.2960  -5.9699  -5.8533  -5.6034  -5.4729
    -3.6994  -3.4439  -2.9620  -2.9169  -2.8905  -2.7771   5.3418   5.6974
     5.8742   5.9532   6.4127   6.4176   6.7740   7.0180   7.3992   7.5150
     7.5546   7.7012   9.2780   9.4547   9.6973   9.8146   9.8410   9.9440
    10.1736  10.3573  10.4014  10.5644  10.6756  10.7344  12.2641  12.3386
    14.2582  14.2704  15.8374  16.0902  16.9910  17.2848

     occupation numbers 
     0.1875   0.1875   0.1875   0.1875   0.1875   0.1875   0.1875   0.1875
     0.1875   0.1875   0.1875   0.1875   0.1875   0.1875   0.1875   0.1875
     0.1875   0.1875   0.1875   0.1875   0.1875   0.1875   0.1875   0.1875
     0.1875   0.1875   0.1875   0.1875   0.1875   0.1875   0.1875   0.1875
     0.1875   0.1875   0.1874   0.1870   0.1860   0.1849   0.0002   0.0001
     0.0000   0.0000   0.0000   0.0000   0.0000   0.0000

          k = 0.4942 0.2853-0.2053 (  2202 PWs)   bands (ev):

   -19.7514 -19.7272  -6.7206  -6.7023  -5.9687  -5.9650  -5.5171  -5.5138
    -3.4369  -3.4253  -2.8201  -2.8138  -2.5182  -2.5003   5.4291   5.4404
     6.0561   6.0674   6.2028   6.2145   6.7280   6.7324   7.2626   7.2739
     7.3952   7.4108   9.2981   9.3093   9.6732   9.6911   9.9168   9.9342
    10.0478  10.0648  10.3392  10.3530  10.5015  10.5197  13.2445  13.2931
    13.3282  13.3765  16.8398  16.8608  17.1334  17.1536

     occupation numbers 
     0.0938   0.0938   0.0938   0.0938   0.0938   0.0938   0.0938   0.0938
     0.0938   0.0938   0.0938   0.0938   0.0938   0.0938   0.0938   0.0938
     0.0938   0.0938   0.0938   0.0938   0.0938   0.0938   0.0938   0.0938
     0.0938   0.0938   0.0937   0.0937   0.0937   0.0937   0.0937   0.0937
     0.0937   0.0937   0.0937   0.0937   0.0936   0.0936   0.0000   0.0000
     0.0000   0.0000   0.0000   0.0000   0.0000   0.0000

          k =-0.2471 0.1427 0.2053 (  2195 PWs)   bands (ev):

   -19.7691 -19.6909  -6.8485  -6.2510  -6.0747  -5.8212  -5.6460  -5.4706
    -3.4855  -3.2919  -3.1382  -2.9271  -2.8596  -2.5621   5.2710   5.5221
     5.7791   5.9506   6.4046   6.6680   6.9259   7.0202   7.2791   7.4914
     7.6279   7.6718   8.7235   9.2906   9.6611   9.8131   9.9326   9.9411
    10.2433  10.3432  10.5195  10.5484  10.6215  10.6915  11.7643  12.6938
    13.5934  14.7282  16.0157  16.2166  17.0567  17.5505

     occupation numbers 
     0.1875   0.1875   0.1875   0.1875   0.1875   0.1875   0.1875   0.1875
     0.1875   0.1875   0.1875   0.1875   0.1875   0.1875   0.1875   0.1875
     0.1875   0.1875   0.1875   0.1875   0.1875   0.1875   0.1875   0.1875
     0.1875   0.1875   0.1875   0.1875   0.1875   0.1875   0.1875   0.1875
     0.1875   0.1875   0.1872   0.1871   0.1866   0.1857   0.0159   0.0000
     0.0000   0.0000   0.0000   0.0000   0.0000   0.0000

          k = 0.4942 0.5706-0.1027 (  2198 PWs)   bands (ev):

   -19.7555 -19.7282  -6.9488  -6.6390  -6.1265  -5.8837  -5.5060  -5.3861
    -3.3559  -3.2848  -2.8937  -2.7222  -2.5355  -2.3911   5.0846   5.6376
     5.7494   6.0898   6.1834   6.3682   6.4296   6.8811   7.2280   7.3724
     7.6846   7.8340   8.7587   9.0825   9.4271   9.6263   9.6492   9.9686
    10.1645  10.2222  10.2626  10.3707  10.5675  10.7473  12.2579  12.6993
    13.3879  14.3108  16.9215  17.1294  17.3216  18.0293

     occupation numbers 
     0.1875   0.1875   0.1875   0.1875   0.1875   0.1875   0.1875   0.1875
     0.1875   0.1875   0.1875   0.1875   0.1875   0.1875   0.1875   0.1875
     0.1875   0.1875   0.1875   0.1875   0.1875   0.1875   0.1875   0.1875
     0.1875   0.1875   0.1875   0.1875   0.1875   0.1875   0.1875   0.1875
     0.1875   0.1875   0.1875   0.1874   0.1870   0.1846   0.0002   0.0000
     0.0000   0.0000   0.0000   0.0000   0.0000   0.0000

          k = 0.2471 0.4280 0.0000 (  2203 PWs)   bands (ev):

   -19.7618 -19.7147  -6.8401  -6.6364  -6.0492  -5.9748  -5.4340  -5.3649
    -3.6048  -3.3195  -2.8124  -2.7142  -2.5900  -2.5771   5.2550   5.6612
     5.8810   5.9440   6.2036   6.4458   6.5581   6.7149   7.2237   7.3519
     7.3984   8.0366   8.8583   9.2603   9.6044   9.6987   9.7926  10.0143
    10.1114  10.2054  10.2484  10.3587  10.4452  10.8214  12.1619  13.2769
    13.3603  14.1060  16.4494  17.0110  17.4348  17.9385

     occupation numbers 
     0.1875   0.1875   0.1875   0.1875   0.1875   0.1875   0.1875   0.1875
     0.1875   0.1875   0.1875   0.1875   0.1875   0.1875   0.1875   0.1875
     0.1875   0.1875   0.1875   0.1875   0.1875   0.1875   0.1875   0.1875
     0.1875   0.1875   0.1875   0.1875   0.1875   0.1875   0.1875   0.1875
     0.1875   0.1875   0.1875   0.1875   0.1874   0.1820   0.0006   0.0000
     0.0000   0.0000   0.0000   0.0000   0.0000   0.0000

          k = 0.4942-0.2853-0.4107 (  2202 PWs)   bands (ev):

   -19.7642 -19.7245  -7.1630  -6.4475  -6.2333  -5.9520  -5.5190  -5.2966
    -3.2413  -3.1213  -3.0820  -2.6496  -2.4805  -2.2253   4.6687   5.5378
     5.6117   6.0417   6.2510   6.7171   6.7604   6.9196   7.1553   7.2649
     7.6478   8.1819   8.3043   8.6122   9.4214   9.6823   9.9471  10.0378
    10.0707  10.1337  10.2047  10.4798  10.5391  10.8445  11.7250  12.3629
    13.2912  14.7438  17.0641  17.2844  17.5378  17.6263

     occupation numbers 
     0.0938   0.0938   0.0938   0.0938   0.0938   0.0938   0.0938   0.0938
     0.0938   0.0938   0.0938   0.0938   0.0938   0.0938   0.0938   0.0938
     0.0938   0.0938   0.0938   0.0938   0.0938   0.0938   0.0938   0.0938
     0.0938   0.0938   0.0938   0.0938   0.0937   0.0937   0.0937   0.0937
     0.0937   0.0937   0.0937   0.0937   0.0936   0.0905   0.0101   0.0000
     0.0000   0.0000   0.0000   0.0000   0.0000   0.0000

          k = 0.0000 0.0000 0.3080 (  2187 PWs)   bands (ev):

   -19.7782 -19.6771  -6.6103  -5.9816  -5.9577  -5.9519  -5.8369  -5.8344
    -3.2566  -3.1899  -3.1780  -2.9869  -2.9108  -2.9005   5.5324   5.6361
     5.8754   5.8784   6.4467   6.4476   6.7413   7.3802   7.3811   7.5320
     7.5496   7.5519   9.3993   9.3999   9.4443   9.6786  10.0448  10.0466
    10.0759  10.0772  10.4285  10.5952  10.6627  10.6628  12.2352  12.2356
    14.2193  14.2207  15.9312  15.9352  16.8976  17.4973

     occupation numbers 
     0.0625   0.0625   0.0625   0.0625   0.0625   0.0625   0.0625   0.0625
     0.0625   0.0625   0.0625   0.0625   0.0625   0.0625   0.0625   0.0625
     0.0625   0.0625   0.0625   0.0625   0.0625   0.0625   0.0625   0.0625
     0.0625   0.0625   0.0625   0.0625   0.0625   0.0625   0.0625   0.0625
     0.0625   0.0625   0.0625   0.0623   0.0620   0.0620   0.0001   0.0001
     0.0000   0.0000   0.0000   0.0000   0.0000   0.0000

          k = 0.7412 0.4280 0.0000 (  2204 PWs)   bands (ev):

   -19.7611 -19.7178  -6.7249  -6.6024  -6.1348  -5.8284  -5.7004  -5.5425
    -3.2341  -3.1212  -3.0555  -2.6898  -2.6764  -2.5930   5.3268   5.7152
     5.7803   6.0969   6.1149   6.5651   6.5825   6.7393   7.2870   7.3441
     7.4574   7.8664   8.8414   9.3402   9.3797   9.6486   9.8207   9.9841
    10.1495  10.2240  10.3616  10.3706  10.3930  10.5503  12.1589  13.1964
    13.2764  14.1360  16.7005  16.7438  17.6043  17.8069

     occupation numbers 
     0.1875   0.1875   0.1875   0.1875   0.1875   0.1875   0.1875   0.1875
     0.1875   0.1875   0.1875   0.1875   0.1875   0.1875   0.1875   0.1875
     0.1875   0.1875   0.1875   0.1875   0.1875   0.1875   0.1875   0.1875
     0.1875   0.1875   0.1875   0.1875   0.1875   0.1875   0.1875   0.1875
     0.1875   0.1875   0.1875   0.1874   0.1874   0.1871   0.0006   0.0000
     0.0000   0.0000   0.0000   0.0000   0.0000   0.0000

          k = 0.4942 0.2853 0.1027 (  2211 PWs)   bands (ev):

   -19.7558 -19.7280  -6.9657  -6.5324  -6.3201  -5.6993  -5.6136  -5.3562
    -3.3712  -3.1826  -3.0676  -2.6076  -2.5739  -2.3818   5.0978   5.6482
     5.7597   5.9248   6.1802   6.4749   6.5871   6.7572   7.2213   7.2537
     7.7979   7.8438   8.7192   9.2319   9.3150   9.5641   9.7933   9.8684
    10.1748  10.2346  10.3776  10.4590  10.5160  10.5889  12.2137  12.7128
    13.4355  14.2923  16.9004  16.9515  17.5920  17.9425

     occupation numbers 
     0.1875   0.1875   0.1875   0.1875   0.1875   0.1875   0.1875   0.1875
     0.1875   0.1875   0.1875   0.1875   0.1875   0.1875   0.1875   0.1875
     0.1875   0.1875   0.1875   0.1875   0.1875   0.1875   0.1875   0.1875
     0.1875   0.1875   0.1875   0.1875   0.1875   0.1875   0.1875   0.1875
     0.1875   0.1875   0.1874   0.1873   0.1872   0.1869   0.0003   0.0000
     0.0000   0.0000   0.0000   0.0000   0.0000   0.0000

          k = 0.7412-0.4280-0.3080 (  2210 PWs)   bands (ev):

   -19.7568 -19.7295  -6.9019  -6.4449  -6.2988  -5.7864  -5.7593  -5.4928
    -3.0990  -3.0807  -2.9839  -2.7436  -2.6341  -2.4328   5.1362   5.7258
     5.8255   5.9508   6.1762   6.4227   6.5756   6.8306   7.2764   7.2935
     7.7595   7.8319   8.6815   9.1657   9.3626   9.4569   9.6384   9.9838
    10.1236  10.1995  10.2625  10.4328  10.5466  10.6057  12.1752  12.6675
    13.3849  14.2627  17.0756  17.0865  17.5601  17.9168

     occupation numbers 
     0.1875   0.1875   0.1875   0.1875   0.1875   0.1875   0.1875   0.1875
     0.1875   0.1875   0.1875   0.1875   0.1875   0.1875   0.1875   0.1875
     0.1875   0.1875   0.1875   0.1875   0.1875   0.1875   0.1875   0.1875
     0.1875   0.1875   0.1875   0.1875   0.1875   0.1875   0.1875   0.1875
     0.1875   0.1875   0.1875   0.1874   0.1871   0.1867   0.0005   0.0000
     0.0000   0.0000   0.0000   0.0000   0.0000   0.0000

          k = 0.4942-0.5706-0.2053 (  2206 PWs)   bands (ev):

   -19.7599 -19.7313  -6.8773  -6.8664  -6.0272  -6.0244  -5.4264  -5.4251
    -3.1801  -3.1723  -2.8411  -2.8276  -2.3864  -2.3832   5.3564   5.3617
     5.7190   5.7271   6.3068   6.3116   6.6119   6.6200   7.2385   7.2456
     8.0442   8.0474   8.7594   8.7669   9.3881   9.3899   9.8434   9.8520
    10.1348  10.1436  10.2766  10.2841  10.6182  10.6230  12.2160  12.2225
    13.9577  13.9696  17.4382  17.4397  17.8834  17.8860

     occupation numbers 
     0.1875   0.1875   0.1875   0.1875   0.1875   0.1875   0.1875   0.1875
     0.1875   0.1875   0.1875   0.1875   0.1875   0.1875   0.1875   0.1875
     0.1875   0.1875   0.1875   0.1875   0.1875   0.1875   0.1875   0.1875
     0.1875   0.1875   0.1875   0.1875   0.1875   0.1875   0.1875   0.1875
     0.1875   0.1875   0.1875   0.1875   0.1866   0.1866   0.0003   0.0003
     0.0000   0.0000   0.0000   0.0000   0.0000   0.0000

          k = 0.0000 0.0000-0.6160 (  2186 PWs)   bands (ev):

   -19.7539 -19.7297  -6.5103  -6.4883  -5.9503  -5.9503  -5.9373  -5.9373
    -2.9295  -2.9295  -2.9122  -2.9122  -2.7187  -2.6984   5.6192   5.6294
     6.1188   6.1188   6.1316   6.1316   6.7498   6.7582   7.3500   7.3500
     7.3621   7.3621   9.4945   9.4945   9.5064   9.5064   9.5499   9.5641
    10.1965  10.2160  10.3441  10.3441  10.3634  10.3634  13.1842  13.1842
    13.2320  13.2320  17.1215  17.1215  17.1429  17.1429

     occupation numbers 
     0.0313   0.0313   0.0313   0.0313   0.0313   0.0313   0.0313   0.0313
     0.0313   0.0313   0.0313   0.0313   0.0313   0.0313   0.0313   0.0313
     0.0313   0.0313   0.0313   0.0313   0.0313   0.0313   0.0313   0.0313
     0.0313   0.0313   0.0312   0.0312   0.0312   0.0312   0.0312   0.0312
     0.0312   0.0312   0.0312   0.0312   0.0312   0.0312   0.0000   0.0000
     0.0000   0.0000   0.0000   0.0000   0.0000   0.0000

          k = 0.4942-0.5706 0.1027 (  2198 PWs)   bands (ev):

   -19.7555 -19.7282  -6.9493  -6.6383  -6.1274  -5.8825  -5.5070  -5.3855
    -3.3567  -3.2847  -2.8938  -2.7212  -2.5360  -2.3908   5.0836   5.6409
     5.7453   6.0872   6.1866   6.3658   6.4340   6.8810   7.2308   7.3680
     7.6822   7.8383   8.7595   9.0817   9.4255   9.6220   9.6512   9.9669
    10.1664  10.2269  10.2573  10.3726  10.5714  10.7450  12.2577  12.6991
    13.3878  14.3105  16.9233  17.1265  17.3222  18.0300

     occupation numbers 
     0.1875   0.1875   0.1875   0.1875   0.1875   0.1875   0.1875   0.1875
     0.1875   0.1875   0.1875   0.1875   0.1875   0.1875   0.1875   0.1875
     0.1875   0.1875   0.1875   0.1875   0.1875   0.1875   0.1875   0.1875
     0.1875   0.1875   0.1875   0.1875   0.1875   0.1875   0.1875   0.1875
     0.1875   0.1875   0.1875   0.1874   0.1870   0.1846   0.0002   0.0000
     0.0000   0.0000   0.0000   0.0000   0.0000   0.0000

     the Fermi energy is    11.3683 ev

!    total energy              =    -537.76026124 Ry
     Harris-Foulkes estimate   =    -537.76025427 Ry
     estimated scf accuracy    <          3.5E-09 Ry

     The total energy is the sum of the following terms:

     one-electron contribution =     -32.89758885 Ry
     hartree contribution      =      83.67836278 Ry
     xc contribution           =    -199.62602482 Ry
     ewald contribution        =    -389.44315552 Ry
     Hubbard energy            =       0.53136031 Ry
     smearing contrib. (-TS)   =      -0.00321514 Ry

     convergence has been achieved in  15 iterations

     init_run     :      7.48s CPU      7.56s WALL (       1 calls)
     electrons    :    214.99s CPU    216.08s WALL (       1 calls)

     Called by init_run:
     wfcinit      :      0.00s CPU      0.00s WALL (       1 calls)
     potinit      :      0.30s CPU      0.32s WALL (       1 calls)

     Called by electrons:
     c_bands      :    141.27s CPU    141.73s WALL (      15 calls)
     sum_band     :     43.52s CPU     43.77s WALL (      15 calls)
     v_of_rho     :      3.96s CPU      3.97s WALL (      16 calls)
     v_h          :      0.21s CPU      0.21s WALL (      16 calls)
     v_xc         :      3.75s CPU      3.76s WALL (      16 calls)
     newd         :     27.39s CPU     27.42s WALL (      16 calls)
     mix_rho      :      0.42s CPU      0.42s WALL (      15 calls)

     Called by c_bands:
     init_us_2    :      1.54s CPU      1.54s WALL (     420 calls)
     cegterg      :    137.03s CPU    137.27s WALL (     210 calls)

     Called by sum_band:
     sum_band:bec :      0.15s CPU      0.16s WALL (     210 calls)
     addusdens    :     19.39s CPU     19.40s WALL (      15 calls)

     Called by *egterg:
     h_psi        :    103.48s CPU    103.69s WALL (     808 calls)
     s_psi        :      5.85s CPU      5.86s WALL (     808 calls)
     g_psi        :      0.50s CPU      0.50s WALL (     598 calls)
     cdiaghg      :      9.24s CPU      9.24s WALL (     794 calls)
     cegterg:over :      6.60s CPU      6.61s WALL (     598 calls)
     cegterg:upda :      4.39s CPU      4.39s WALL (     598 calls)
     cegterg:last :      3.10s CPU      3.10s WALL (     237 calls)

     Called by h_psi:
     h_psi:vloc   :     84.73s CPU     84.90s WALL (     808 calls)
     h_psi:vnl    :     11.88s CPU     11.89s WALL (     808 calls)
     add_vuspsi   :      5.87s CPU      5.87s WALL (     808 calls)
     vhpsi        :      6.65s CPU      6.67s WALL (     808 calls)

     General routines
     calbec       :     12.50s CPU     12.51s WALL (    2036 calls)
     fft          :      2.58s CPU      2.60s WALL (     251 calls)
     ffts         :      0.08s CPU      0.08s WALL (      31 calls)
     fftw         :     81.59s CPU     81.59s WALL (   59352 calls)
     interpolate  :      0.43s CPU      0.44s WALL (      31 calls)
     davcio       :      0.00s CPU      0.39s WALL (     434 calls)

     Parallel routines
     fft_scatter  :     20.31s CPU     20.36s WALL (   59634 calls)
     Hubbard U routines
     new_ns       :      1.25s CPU      1.42s WALL (      15 calls)
     vhpsi        :      6.65s CPU      6.67s WALL (     808 calls)

     PWSCF        :  3m42.90s CPU     3m44.10s WALL


   This run was terminated on:   5:42: 8  13Nov2012            

=------------------------------------------------------------------------------=
