   JOB DONE.
=------------------------------------------------------------------------------=

     Program PWSCF v.5.0.1 starts on 13Nov2012 at  5:26:59 

     This program is part of the open-source Quantum ESPRESSO suite
     for quantum simulation of materials; please cite
         "P. Giannozzi et al., J. Phys.:Condens. Matter 21 395502 (2009);
          URL http://www.quantum-espresso.org", 
     in publications or presentations arising from this work. More details at
     http://www.quantum-espresso.org/quote.php

     Parallel version (MPI), running on     2 processors
     R & G space division:  proc/pool =    2

     Current dimensions of program PWSCF are:
     Max number of different atomic species (ntypx) = 10
     Max number of k-points (npk) =  40000
     Max angular momentum in pseudopotentials (lmaxx) =  3
     Reading input from CoLaO_U700_a-10.in
               file Co.pbe-nd-rrkjus.UPF: wavefunction(s)  4S 3D renormalized
               file O.pbe-rrkjus.UPF: wavefunction(s)  2S renormalized

     Subspace diagonalization in iterative solution of the eigenvalue problem:
     a serial algorithm will be used


     Parallelization info
     --------------------
     sticks:   dense  smooth     PW     G-vecs:    dense   smooth      PW
     Min        1112     444    131                34808     8786    1448
     Max        1113     445    132                34809     8787    1449
     Sum        2225     889    263                69617    17573    2897


     Title: 
     GGA + U, U = 7.000, alpha = -0.100                                         


     bravais-lattice index     =            5
     lattice parameter (alat)  =      10.3292  a.u.
     unit-cell volume          =     793.0599 (a.u.)^3
     number of atoms/cell      =           10
     number of atomic types    =            4
     number of electrons       =        76.00
     number of Kohn-Sham states=           46
     kinetic-energy cutoff     =      30.0000  Ry
     charge density cutoff     =     300.0000  Ry
     convergence threshold     =      1.0E-08
     mixing beta               =       0.2000
     number of iterations used =            8  plain     mixing
     Exchange-correlation      =  SLA  PW   PBE  PBE ( 1 4 3 4 0)
     EXX-fraction              =        0.00

     celldm(1)=  10.329242  celldm(2)=   0.000000  celldm(3)=   0.000000
     celldm(4)=   0.488100  celldm(5)=   0.000000  celldm(6)=   0.000000

     crystal axes: (cart. coord. in units of alat)
               a(1) = (   0.505915  -0.292090   0.811624 )  
               a(2) = (   0.000000   0.584180   0.811624 )  
               a(3) = (  -0.505915  -0.292090   0.811624 )  

     reciprocal axes: (cart. coord. in units 2 pi/alat)
               b(1) = (  0.988308 -0.570600  0.410699 )  
               b(2) = (  0.000000  1.141200  0.410699 )  
               b(3) = ( -0.988308 -0.570600  0.410699 )  


     PseudoPot. # 1 for Co read from file:
     /home/mcurnan/dft-course/Project1/example_LaCoO3/Co.pbe-nd-rrkjus.UPF
     MD5 check sum: 3e47a84addf5e975e0edeaeee2a73f59
     Pseudo is Ultrasoft + core correction, Zval =  9.0
     Generated by new atomic code, or converted to UPF format
     Using radial grid of  961 points,  6 beta functions with: 
                l(1) =   0
                l(2) =   0
                l(3) =   1
                l(4) =   1
                l(5) =   2
                l(6) =   2
     Q(r) pseudized with 0 coefficients 


     PseudoPot. # 2 for La read from file:
     /home/mcurnan/dft-course/Project1/example_LaCoO3/La.pbe-nsp-van.UPF
     MD5 check sum: b2f11743f52dde65f77d1302becd7929
     Pseudo is Ultrasoft + core correction, Zval = 11.0
     Generated by new atomic code, or converted to UPF format
     Using radial grid of  907 points,  6 beta functions with: 
                l(1) =   0
                l(2) =   0
                l(3) =   1
                l(4) =   1
                l(5) =   2
                l(6) =   2
     Q(r) pseudized with  6 coefficients,  rinner =    1.200   1.200   1.200
                                                       1.200   1.200

     PseudoPot. # 3 for La read from file:
     /home/mcurnan/dft-course/Project1/example_LaCoO3/La.pbe-nsp-van.UPF
     MD5 check sum: b2f11743f52dde65f77d1302becd7929
     Pseudo is Ultrasoft + core correction, Zval = 11.0
     Generated by new atomic code, or converted to UPF format
     Using radial grid of  907 points,  6 beta functions with: 
                l(1) =   0
                l(2) =   0
                l(3) =   1
                l(4) =   1
                l(5) =   2
                l(6) =   2
     Q(r) pseudized with  6 coefficients,  rinner =    1.200   1.200   1.200
                                                       1.200   1.200

     PseudoPot. # 4 for O  read from file:
     /home/mcurnan/dft-course/Project1/example_LaCoO3/O.pbe-rrkjus.UPF
     MD5 check sum: 390ba29e75625707450f3bd3f0eb6be9
     Pseudo is Ultrasoft, Zval =  6.0
     Generated by new atomic code, or converted to UPF format
     Using radial grid of 1269 points,  4 beta functions with: 
                l(1) =   0
                l(2) =   0
                l(3) =   1
                l(4) =   1
     Q(r) pseudized with 0 coefficients 


     atomic species   valence    mass     pseudopotential
        Co1            9.00     1.00000     Co( 1.00)
        La1           11.00     1.00000     La( 1.00)
        La2           11.00     1.00000     La( 1.00)
        O1             6.00     1.00000     O ( 1.00)
 -----
     simplified LDA+U calculation, Hubbard_lmax = 2
     atomic species  L   Hubbard U  Hubbard alpha
        Co1          2    7.000000    0.000000
        La1          2    0.000000   -0.100000
        La2          2    0.000000    0.000000
        O1           1    0.000000    0.000000
 -----

      3 Sym. Ops. (no inversion) found


                                    s                        frac. trans.

      isym =  1     identity                                     

 cryst.   s( 1) = (     1          0          0      )
                  (     0          1          0      )
                  (     0          0          1      )

 cart.    s( 1) = (  1.0000000  0.0000000  0.0000000 )
                  (  0.0000000  1.0000000  0.0000000 )
                  (  0.0000000  0.0000000  1.0000000 )


      isym =  2     120 deg rotation - cryst. axis [0,0,1]       

 cryst.   s( 2) = (     0          1          0      )
                  (     0          0          1      )
                  (     1          0          0      )

 cart.    s( 2) = ( -0.5000000 -0.8660254  0.0000000 )
                  (  0.8660254 -0.5000000  0.0000000 )
                  (  0.0000000  0.0000000  1.0000000 )


      isym =  3     120 deg rotation - cryst. axis [0,0,-1]      

 cryst.   s( 3) = (     0          0          1      )
                  (     1          0          0      )
                  (     0          1          0      )

 cart.    s( 3) = ( -0.5000000  0.8660254  0.0000000 )
                  ( -0.8660254 -0.5000000  0.0000000 )
                  (  0.0000000  0.0000000  1.0000000 )


     point group C_3 (3)    
     there are  3 classes
     the character table:

       E     C3    C3^2 
A      1.00  1.00  1.00
E      1.00 -0.50 -0.50
E*     1.00 -0.50 -0.50
     imaginary part
A      0.00  0.00  0.00
E      0.00  0.87 -0.87
E*     0.00 -0.87  0.87

     the symmetry operations in each class:
     E        1
     C3       2
     C3^2     3

   Cartesian axes

     site n.     atom                  positions (alat units)
         1           Co1 tau(   1) = (   0.0000000   0.0000000   1.8261537  )
         2           Co1 tau(   2) = (   0.0000000   0.0000000   0.6087179  )
         3           La1 tau(   3) = (   0.0000000   0.0000000   0.0000000  )
         4           La2 tau(   4) = (   0.0000000   0.0000000   1.2174358  )
         5           O1  tau(   5) = (   0.2831100  -0.0928263   1.6236536  )
         6           O1  tau(   6) = (  -0.2219449  -0.1987674   1.6236536  )
         7           O1  tau(   7) = (  -0.0611651   0.2915936   1.6236536  )
         8           O1  tau(   8) = (   0.2228050   0.3849164   1.2170300  )
         9           O1  tau(   9) = (   0.2219449  -0.3854130   1.2170300  )
        10           O1  tau(  10) = (  -0.4447499   0.0004966   1.2170300  )

   Crystallographic axes

     site n.     atom                  positions (cryst. coord.)
         1           Co1 tau(   1) = (  0.7500000  0.7500000  0.7500000  )
         2           Co1 tau(   2) = (  0.2500000  0.2500000  0.2500000  )
         3           La1 tau(   3) = (  0.0000000  0.0000000  0.0000000  )
         4           La2 tau(   4) = (  0.5000000  0.5000000  0.5000000  )
         5           O1  tau(   5) = (  0.9996000  0.5609000  0.4400000  )
         6           O1  tau(   6) = (  0.5609000  0.4400000  0.9996000  )
         7           O1  tau(   7) = (  0.4400000  0.9996000  0.5609000  )
         8           O1  tau(   8) = (  0.5004000  0.9391000  0.0600000  )
         9           O1  tau(   9) = (  0.9391000  0.0600000  0.5004000  )
        10           O1  tau(  10) = (  0.0600000  0.5004000  0.9391000  )

     number of k points=    14  gaussian smearing, width (Ry)=  0.0300
                       cart. coord. in units 2pi/alat
        k(    1) = (   0.0000000   0.0000000   0.0000000), wk =   0.0312500
        k(    2) = (  -0.2470771  -0.1426500   0.1026748), wk =   0.1875000
        k(    3) = (   0.4941541   0.2853000  -0.2053496), wk =   0.0937500
        k(    4) = (  -0.2470771   0.1426500   0.2053496), wk =   0.1875000
        k(    5) = (   0.4941541   0.5706001  -0.1026748), wk =   0.1875000
        k(    6) = (   0.2470771   0.4279500   0.0000000), wk =   0.1875000
        k(    7) = (   0.4941541  -0.2853000  -0.4106993), wk =   0.0937500
        k(    8) = (   0.0000000   0.0000000   0.3080244), wk =   0.0625000
        k(    9) = (   0.7412312   0.4279500   0.0000000), wk =   0.1875000
        k(   10) = (   0.4941541   0.2853000   0.1026748), wk =   0.1875000
        k(   11) = (   0.7412312  -0.4279500  -0.3080244), wk =   0.1875000
        k(   12) = (   0.4941541  -0.5706001  -0.2053496), wk =   0.1875000
        k(   13) = (   0.0000000   0.0000000  -0.6160489), wk =   0.0312500
        k(   14) = (   0.4941541  -0.5706001   0.1026748), wk =   0.1875000

                       cryst. coord.
        k(    1) = (   0.0000000   0.0000000   0.0000000), wk =   0.0312500
        k(    2) = (   0.0000000   0.0000000   0.2500000), wk =   0.1875000
        k(    3) = (   0.0000000   0.0000000  -0.5000000), wk =   0.0937500
        k(    4) = (   0.0000000   0.2500000   0.2500000), wk =   0.1875000
        k(    5) = (   0.0000000   0.2500000  -0.5000000), wk =   0.1875000
        k(    6) = (   0.0000000   0.2500000  -0.2500000), wk =   0.1875000
        k(    7) = (   0.0000000  -0.5000000  -0.5000000), wk =   0.0937500
        k(    8) = (   0.2500000   0.2500000   0.2500000), wk =   0.0625000
        k(    9) = (   0.2500000   0.2500000  -0.5000000), wk =   0.1875000
        k(   10) = (   0.2500000   0.2500000  -0.2500000), wk =   0.1875000
        k(   11) = (   0.2500000  -0.5000000  -0.5000000), wk =   0.1875000
        k(   12) = (   0.2500000  -0.5000000  -0.2500000), wk =   0.1875000
        k(   13) = (  -0.5000000  -0.5000000  -0.5000000), wk =   0.0312500
        k(   14) = (   0.5000000  -0.2500000   0.0000000), wk =   0.1875000

     Dense  grid:    69617 G-vectors     FFT dimensions: (  60,  60,  60)

     Smooth grid:    17573 G-vectors     FFT dimensions: (  40,  40,  40)

     Largest allocated arrays     est. size (Mb)     dimensions
        Kohn-Sham Wavefunctions         0.78 Mb     (   1117,   46)
        Atomic wavefunctions            1.06 Mb     (   1117,   62)
        NL pseudopotentials             2.05 Mb     (   1117,  120)
        Each V/rho on FFT grid          1.65 Mb     ( 108000)
        Each G-vector array             0.27 Mb     (  34808)
        G-vector shells                 0.04 Mb     (   4682)
     Largest temporary arrays     est. size (Mb)     dimensions
        Auxiliary wavefunctions         3.14 Mb     (   1117,  184)
        Each subspace H/S matrix        0.52 Mb     ( 184, 184)
        Each <psi_i|beta_j> matrix      0.08 Mb     (    120,   46)
        Arrays for rho mixing          13.18 Mb     ( 108000,   8)

     Check: negative/imaginary core charge=   -0.000028    0.000000

     The initial density is read from file :
     /home/mcurnan/dft-course/Project1/example_LaCoO3/700/La/alpha/CoLaO_U700.save/charge-density.dat

 --- in v_hubbard ---
Hubbard energy    0.6419
 -------
     Number of +U iterations with fixed ns =  0
     Starting occupations:
 --- enter write_ns ---
 LDA+U parameters:
U( 1)     =  7.00000000
alpha( 1) =  0.00000000
U( 2)     =  0.00000000
alpha( 2) = -0.10000000
U( 3)     =  0.00000000
alpha( 3) =  0.00000000
U( 4)     =  0.00000000
alpha( 4) =  0.00000000
atom    1   Tr[ns(na)] =   8.02205
    eigenvalues: 
  0.596  0.596  0.938  0.941  0.941
    eigenvectors:
  0.000  0.000  1.000  0.000  0.000
  0.334  0.321  0.000  0.004  0.341
  0.321  0.334  0.000  0.341  0.004
  0.288  0.057  0.000  0.515  0.140
  0.057  0.288  0.000  0.140  0.515
    occupations:
  0.938  0.000  0.000  0.000  0.000
  0.000  0.715  0.000 -0.060  0.152
  0.000  0.000  0.715  0.152  0.060
  0.000 -0.060  0.152  0.822  0.000
  0.000  0.152  0.060  0.000  0.822
atom    2   Tr[ns(na)] =   8.02143
    eigenvalues: 
  0.595  0.595  0.938  0.941  0.941
    eigenvectors:
  0.000  0.000  1.000  0.000  0.000
  0.638  0.017  0.000  0.223  0.122
  0.017  0.638  0.000  0.122  0.223
  0.015  0.330  0.000  0.470  0.185
  0.330  0.015  0.000  0.185  0.470
    occupations:
  0.938  0.000  0.000  0.000  0.000
  0.000  0.715  0.000  0.060  0.153
  0.000  0.000  0.715  0.153 -0.060
  0.000  0.060  0.153  0.822  0.000
  0.000  0.153 -0.060  0.000  0.822
atom    3   Tr[ns(na)] =   3.80283
    eigenvalues: 
  0.355  0.355  0.384  0.403  0.403
    eigenvectors:
  0.000  0.000  1.000  0.000  0.000
  0.781  0.140  0.000  0.012  0.068
  0.140  0.781  0.000  0.068  0.012
  0.013  0.067  0.000  0.780  0.140
  0.067  0.013  0.000  0.140  0.780
    occupations:
  0.384  0.000  0.000  0.000  0.000
  0.000  0.359  0.000  0.000  0.013
  0.000  0.000  0.359  0.013  0.000
  0.000  0.000  0.013  0.399  0.000
  0.000  0.013  0.000  0.000  0.399
atom    4   Tr[ns(na)] =   3.80283
    eigenvalues: 
  0.355  0.355  0.384  0.403  0.403
    eigenvectors:
  0.000  0.000  1.000  0.000  0.000
  0.781  0.140  0.000  0.012  0.068
  0.140  0.781  0.000  0.068  0.012
  0.013  0.067  0.000  0.780  0.140
  0.067  0.013  0.000  0.140  0.780
    occupations:
  0.384  0.000  0.000  0.000  0.000
  0.000  0.359  0.000  0.000  0.013
  0.000  0.000  0.359  0.013  0.000
  0.000  0.000  0.013  0.399  0.000
  0.000  0.013  0.000  0.000  0.399
atom    5   Tr[ns(na)] =   5.43358
    eigenvalues: 
  0.846  0.929  0.941
    eigenvectors:
  0.340  0.000  0.660
  0.496  0.250  0.255
  0.164  0.750  0.086
    occupations:
  0.909 -0.039  0.022
 -0.039  0.891  0.022
  0.022  0.022  0.917
atom    6   Tr[ns(na)] =   5.43358
    eigenvalues: 
  0.846  0.929  0.941
    eigenvectors:
  0.340  0.000  0.660
  0.494  0.250  0.256
  0.166  0.750  0.085
    occupations:
  0.909  0.039  0.022
  0.039  0.891 -0.022
  0.022 -0.022  0.917
atom    7   Tr[ns(na)] =   5.43358
    eigenvalues: 
  0.846  0.929  0.941
    eigenvectors:
  0.340  0.000  0.660
  0.000  1.000  0.000
  0.660  0.000  0.340
    occupations:
  0.909  0.000 -0.045
  0.000  0.929  0.000
 -0.045  0.000  0.879
atom    8   Tr[ns(na)] =   5.43358
    eigenvalues: 
  0.846  0.929  0.941
    eigenvectors:
  0.340  0.000  0.660
  0.496  0.250  0.255
  0.164  0.750  0.086
    occupations:
  0.909 -0.039  0.022
 -0.039  0.891  0.022
  0.022  0.022  0.917
atom    9   Tr[ns(na)] =   5.43358
    eigenvalues: 
  0.846  0.929  0.941
    eigenvectors:
  0.340  0.000  0.660
  0.494  0.250  0.256
  0.166  0.750  0.085
    occupations:
  0.909  0.039  0.022
  0.039  0.891 -0.022
  0.022 -0.022  0.917
atom   10   Tr[ns(na)] =   5.43358
    eigenvalues: 
  0.846  0.929  0.941
    eigenvectors:
  0.340  0.000  0.660
  0.000  1.000  0.000
  0.660  0.000  0.340
    occupations:
  0.909  0.000 -0.045
  0.000  0.929  0.000
 -0.045  0.000  0.879
N of occupied +U levels =  56.2506014
 --- exit write_ns ---
 LDA+U Projector read from file 
     Starting wfc from file

     total cpu time spent up to now is        7.5 secs

     per-process dynamical memory:    47.1 Mb

     Self-consistent Calculation

     iteration #  1     ecut=    30.00 Ry     beta=0.20
     Davidson diagonalization with overlap
     c_bands:  1 eigenvalues not converged
     c_bands:  1 eigenvalues not converged
     c_bands:  1 eigenvalues not converged
     c_bands:  1 eigenvalues not converged
     c_bands:  1 eigenvalues not converged
     c_bands:  1 eigenvalues not converged
     c_bands:  1 eigenvalues not converged
     c_bands:  1 eigenvalues not converged
     c_bands:  1 eigenvalues not converged
     c_bands:  1 eigenvalues not converged
     ethr =  1.00E-10,  avg # of iterations = 18.0
 --- enter write_ns ---
 LDA+U parameters:
U( 1)     =  7.00000000
alpha( 1) =  0.00000000
U( 2)     =  0.00000000
alpha( 2) = -0.10000000
U( 3)     =  0.00000000
alpha( 3) =  0.00000000
U( 4)     =  0.00000000
alpha( 4) =  0.00000000
atom    1   Tr[ns(na)] =   8.28688
    eigenvalues: 
  0.578  0.578  0.995  0.995  0.998
    eigenvectors:
  0.000  0.000  0.000  0.000  1.000
  0.331  0.323  0.004  0.342  0.000
  0.323  0.331  0.342  0.004  0.000
  0.289  0.056  0.514  0.140  0.000
  0.056  0.289  0.140  0.514  0.000
    occupations:
  0.998  0.000  0.000  0.000  0.000
  0.000  0.722  0.000 -0.073  0.184
  0.000  0.000  0.722  0.184  0.073
  0.000 -0.073  0.184  0.851  0.000
  0.000  0.184  0.073  0.000  0.851
atom    2   Tr[ns(na)] =   8.27697
    eigenvalues: 
  0.575  0.575  0.995  0.995  0.998
    eigenvectors:
  0.000  0.000  0.000  0.000  1.000
  0.634  0.020  0.223  0.123  0.000
  0.020  0.634  0.123  0.223  0.000
  0.013  0.333  0.469  0.185  0.000
  0.333  0.013  0.185  0.469  0.000
    occupations:
  0.998  0.000  0.000  0.000  0.000
  0.000  0.720  0.000  0.072  0.186
  0.000  0.000  0.720  0.186 -0.072
  0.000  0.072  0.186  0.850  0.000
  0.000  0.186 -0.072  0.000  0.850
atom    3   Tr[ns(na)] =   3.82531
    eigenvalues: 
  0.360  0.360  0.384  0.404  0.404
    eigenvectors:
  0.000  0.000  1.000  0.000  0.000
  0.776  0.141  0.000  0.012  0.071
  0.141  0.776  0.000  0.071  0.012
  0.013  0.069  0.000  0.776  0.141
  0.069  0.013  0.000  0.141  0.776
    occupations:
  0.384  0.000  0.000  0.000  0.000
  0.000  0.364  0.000  0.000  0.012
  0.000  0.000  0.364  0.012  0.000
  0.000  0.000  0.012  0.401  0.000
  0.000  0.012  0.000  0.000  0.401
atom    4   Tr[ns(na)] =   3.79043
    eigenvalues: 
  0.356  0.356  0.381  0.401  0.401
    eigenvectors:
  0.000  0.000  1.000  0.000  0.000
  0.774  0.142  0.000  0.013  0.072
  0.142  0.774  0.000  0.072  0.013
  0.014  0.071  0.000  0.774  0.141
  0.071  0.014  0.000  0.141  0.774
    occupations:
  0.381  0.000  0.000  0.000  0.000
  0.000  0.360  0.000  0.000  0.012
  0.000  0.000  0.360  0.012  0.000
  0.000  0.000  0.012  0.397  0.000
  0.000  0.012  0.000  0.000  0.397
atom    5   Tr[ns(na)] =   5.36399
    eigenvalues: 
  0.818  0.920  0.944
    eigenvectors:
  0.342  0.000  0.658
  0.494  0.250  0.256
  0.164  0.750  0.086
    occupations:
  0.901 -0.051  0.030
 -0.051  0.876  0.026
  0.030  0.026  0.906
atom    6   Tr[ns(na)] =   5.36399
    eigenvalues: 
  0.818  0.920  0.944
    eigenvectors:
  0.342  0.000  0.658
  0.493  0.250  0.257
  0.165  0.750  0.085
    occupations:
  0.901  0.051  0.030
  0.051  0.876 -0.026
  0.030 -0.026  0.905
atom    7   Tr[ns(na)] =   5.36399
    eigenvalues: 
  0.818  0.920  0.944
    eigenvectors:
  0.342  0.000  0.658
  0.000  1.000  0.000
  0.658  0.000  0.342
    occupations:
  0.901  0.000 -0.059
  0.000  0.920  0.000
 -0.059  0.000  0.861
atom    8   Tr[ns(na)] =   5.36403
    eigenvalues: 
  0.818  0.921  0.943
    eigenvectors:
  0.342  0.000  0.658
  0.494  0.250  0.256
  0.164  0.750  0.086
    occupations:
  0.900 -0.051  0.030
 -0.051  0.876  0.026
  0.030  0.026  0.906
atom    9   Tr[ns(na)] =   5.36403
    eigenvalues: 
  0.818  0.921  0.943
    eigenvectors:
  0.342  0.000  0.658
  0.493  0.250  0.257
  0.165  0.750  0.085
    occupations:
  0.900  0.051  0.030
  0.051  0.876 -0.026
  0.030 -0.026  0.906
atom   10   Tr[ns(na)] =   5.36403
    eigenvalues: 
  0.818  0.921  0.943
    eigenvectors:
  0.342  0.000  0.658
  0.000  1.000  0.000
  0.658  0.000  0.342
    occupations:
  0.900  0.000 -0.059
  0.000  0.921  0.000
 -0.059  0.000  0.861
N of occupied +U levels =  56.3636369
 --- exit write_ns ---
 --- in v_hubbard ---
Hubbard energy    0.6126
 -------

     total cpu time spent up to now is       40.7 secs

     total energy              =    -537.77107055 Ry
     Harris-Foulkes estimate   =    -537.79190530 Ry
     estimated scf accuracy    <       0.08742074 Ry

     iteration #  2     ecut=    30.00 Ry     beta=0.20
     Davidson diagonalization with overlap
     ethr =  1.15E-04,  avg # of iterations =  1.7
 --- enter write_ns ---
 LDA+U parameters:
U( 1)     =  7.00000000
alpha( 1) =  0.00000000
U( 2)     =  0.00000000
alpha( 2) = -0.10000000
U( 3)     =  0.00000000
alpha( 3) =  0.00000000
U( 4)     =  0.00000000
alpha( 4) =  0.00000000
atom    1   Tr[ns(na)] =   8.01902
    eigenvalues: 
  0.510  0.510  0.996  0.996  0.999
    eigenvectors:
  0.000  0.000  0.000  0.000  1.000
  0.334  0.321  0.003  0.342  0.000
  0.321  0.334  0.342  0.003  0.000
  0.290  0.055  0.517  0.138  0.000
  0.055  0.290  0.138  0.517  0.000
    occupations:
  0.999  0.000  0.000  0.000  0.000
  0.000  0.677  0.000 -0.087  0.214
  0.000  0.000  0.677  0.214  0.087
  0.000 -0.087  0.214  0.828  0.000
  0.000  0.214  0.087  0.000  0.828
atom    2   Tr[ns(na)] =   8.01842
    eigenvalues: 
  0.509  0.509  0.996  0.996  0.999
    eigenvectors:
  0.000  0.000  0.000  0.000  1.000
  0.638  0.018  0.225  0.120  0.000
  0.018  0.638  0.120  0.225  0.000
  0.016  0.329  0.471  0.184  0.000
  0.329  0.016  0.184  0.471  0.000
    occupations:
  0.999  0.000  0.000  0.000  0.000
  0.000  0.677  0.000  0.086  0.215
  0.000  0.000  0.677  0.215 -0.086
  0.000  0.086  0.215  0.828  0.000
  0.000  0.215 -0.086  0.000  0.828
atom    3   Tr[ns(na)] =   3.81590
    eigenvalues: 
  0.358  0.358  0.383  0.404  0.404
    eigenvectors:
  0.000  0.000  1.000  0.000  0.000
  0.783  0.139  0.000  0.011  0.067
  0.139  0.783  0.000  0.067  0.011
  0.012  0.066  0.000  0.782  0.140
  0.066  0.012  0.000  0.140  0.782
    occupations:
  0.383  0.000  0.000  0.000  0.000
  0.000  0.362  0.000  0.000  0.012
  0.000  0.000  0.362  0.012  0.000
  0.000  0.000  0.012  0.400  0.000
  0.000  0.012  0.000  0.000  0.400
atom    4   Tr[ns(na)] =   3.78365
    eigenvalues: 
  0.355  0.355  0.380  0.401  0.401
    eigenvectors:
  0.000  0.000  1.000  0.000  0.000
  0.780  0.140  0.000  0.012  0.069
  0.140  0.780  0.000  0.069  0.012
  0.013  0.068  0.000  0.779  0.141
  0.068  0.013  0.000  0.141  0.779
    occupations:
  0.380  0.000  0.000  0.000  0.000
  0.000  0.358  0.000  0.000  0.013
  0.000  0.000  0.358  0.013  0.000
  0.000  0.000  0.013  0.397  0.000
  0.000  0.013  0.000  0.000  0.397
atom    5   Tr[ns(na)] =   5.44909
    eigenvalues: 
  0.843  0.932  0.950
    eigenvectors:
  0.335  0.000  0.665
  0.498  0.252  0.251
  0.167  0.748  0.084
    occupations:
  0.914 -0.044  0.025
 -0.044  0.892  0.023
  0.025  0.023  0.919
atom    6   Tr[ns(na)] =   5.44909
    eigenvalues: 
  0.843  0.932  0.950
    eigenvectors:
  0.335  0.000  0.665
  0.500  0.248  0.252
  0.165  0.752  0.083
    occupations:
  0.914  0.044  0.025
  0.044  0.892 -0.023
  0.025 -0.023  0.919
atom    7   Tr[ns(na)] =   5.44909
    eigenvalues: 
  0.843  0.932  0.950
    eigenvectors:
  0.335  0.000  0.665
  0.000  1.000  0.000
  0.665  0.000  0.335
    occupations:
  0.914  0.000 -0.051
  0.000  0.932  0.000
 -0.051  0.000  0.879
atom    8   Tr[ns(na)] =   5.44915
    eigenvalues: 
  0.843  0.932  0.949
    eigenvectors:
  0.335  0.000  0.665
  0.498  0.252  0.251
  0.167  0.748  0.084
    occupations:
  0.914 -0.044  0.025
 -0.044  0.892  0.023
  0.025  0.023  0.919
atom    9   Tr[ns(na)] =   5.44915
    eigenvalues: 
  0.843  0.932  0.949
    eigenvectors:
  0.335  0.000  0.665
  0.500  0.248  0.252
  0.165  0.752  0.083
    occupations:
  0.914  0.044  0.025
  0.044  0.892 -0.023
  0.025 -0.023  0.919
atom   10   Tr[ns(na)] =   5.44915
    eigenvalues: 
  0.843  0.932  0.949
    eigenvectors:
  0.335  0.000  0.665
  0.000  1.000  0.000
  0.665  0.000  0.335
    occupations:
  0.914  0.000 -0.050
  0.000  0.932  0.000
 -0.050  0.000  0.878
N of occupied +U levels =  56.3317032
 --- exit write_ns ---
 --- in v_hubbard ---
Hubbard energy    0.6007
 -------

     total cpu time spent up to now is       52.0 secs

     total energy              =    -537.78997351 Ry
     Harris-Foulkes estimate   =    -537.78995629 Ry
     estimated scf accuracy    <       0.05165058 Ry

     iteration #  3     ecut=    30.00 Ry     beta=0.20
     Davidson diagonalization with overlap
     ethr =  6.80E-05,  avg # of iterations =  1.0
 --- enter write_ns ---
 LDA+U parameters:
U( 1)     =  7.00000000
alpha( 1) =  0.00000000
U( 2)     =  0.00000000
alpha( 2) = -0.10000000
U( 3)     =  0.00000000
alpha( 3) =  0.00000000
U( 4)     =  0.00000000
alpha( 4) =  0.00000000
atom    1   Tr[ns(na)] =   8.07037
    eigenvalues: 
  0.522  0.522  0.996  0.996  0.999
    eigenvectors:
  0.000  0.000  0.000  0.000  1.000
  0.335  0.321  0.003  0.341  0.000
  0.321  0.335  0.341  0.003  0.000
  0.289  0.055  0.517  0.139  0.000
  0.055  0.289  0.139  0.517  0.000
    occupations:
  0.999  0.000  0.000  0.000  0.000
  0.000  0.685  0.000 -0.084  0.209
  0.000  0.000  0.685  0.209  0.084
  0.000 -0.084  0.209  0.833  0.000
  0.000  0.209  0.084  0.000  0.833
atom    2   Tr[ns(na)] =   8.06794
    eigenvalues: 
  0.521  0.521  0.996  0.996  0.999
    eigenvectors:
  0.000  0.000  0.000  0.000  1.000
  0.638  0.018  0.224  0.120  0.000
  0.018  0.638  0.120  0.224  0.000
  0.016  0.329  0.471  0.184  0.000
  0.329  0.016  0.184  0.471  0.000
    occupations:
  0.999  0.000  0.000  0.000  0.000
  0.000  0.685  0.000  0.084  0.210
  0.000  0.000  0.685  0.210 -0.084
  0.000  0.084  0.210  0.833  0.000
  0.000  0.210 -0.084  0.000  0.833
atom    3   Tr[ns(na)] =   3.81629
    eigenvalues: 
  0.359  0.359  0.383  0.404  0.404
    eigenvectors:
  0.000  0.000  1.000  0.000  0.000
  0.783  0.139  0.000  0.011  0.067
  0.139  0.783  0.000  0.067  0.011
  0.012  0.066  0.000  0.782  0.140
  0.066  0.012  0.000  0.140  0.782
    occupations:
  0.383  0.000  0.000  0.000  0.000
  0.000  0.362  0.000  0.000  0.012
  0.000  0.000  0.362  0.012  0.000
  0.000  0.000  0.012  0.400  0.000
  0.000  0.012  0.000  0.000  0.400
atom    4   Tr[ns(na)] =   3.78452
    eigenvalues: 
  0.355  0.355  0.380  0.401  0.401
    eigenvectors:
  0.000  0.000  1.000  0.000  0.000
  0.780  0.140  0.000  0.012  0.068
  0.140  0.780  0.000  0.068  0.012
  0.013  0.067  0.000  0.780  0.140
  0.067  0.013  0.000  0.140  0.780
    occupations:
  0.380  0.000  0.000  0.000  0.000
  0.000  0.359  0.000  0.000  0.012
  0.000  0.000  0.359  0.012  0.000
  0.000  0.000  0.012  0.397  0.000
  0.000  0.012  0.000  0.000  0.397
atom    5   Tr[ns(na)] =   5.43305
    eigenvalues: 
  0.838  0.930  0.949
    eigenvectors:
  0.336  0.000  0.664
  0.497  0.251  0.252
  0.167  0.749  0.085
    occupations:
  0.911 -0.045  0.026
 -0.045  0.889  0.024
  0.026  0.024  0.916
atom    6   Tr[ns(na)] =   5.43305
    eigenvalues: 
  0.838  0.930  0.949
    eigenvectors:
  0.336  0.000  0.664
  0.499  0.249  0.253
  0.165  0.751  0.084
    occupations:
  0.911  0.046  0.026
  0.046  0.889 -0.024
  0.026 -0.024  0.916
atom    7   Tr[ns(na)] =   5.43305
    eigenvalues: 
  0.838  0.930  0.949
    eigenvectors:
  0.336  0.000  0.664
  0.000  1.000  0.000
  0.664  0.000  0.336
    occupations:
  0.911  0.000 -0.053
  0.000  0.930  0.000
 -0.053  0.000  0.875
atom    8   Tr[ns(na)] =   5.43312
    eigenvalues: 
  0.838  0.930  0.948
    eigenvectors:
  0.336  0.000  0.664
  0.497  0.252  0.252
  0.167  0.748  0.085
    occupations:
  0.911 -0.045  0.026
 -0.045  0.889  0.024
  0.026  0.024  0.917
atom    9   Tr[ns(na)] =   5.43312
    eigenvalues: 
  0.838  0.930  0.948
    eigenvectors:
  0.336  0.000  0.664
  0.499  0.249  0.253
  0.165  0.751  0.083
    occupations:
  0.911  0.045  0.026
  0.045  0.889 -0.024
  0.026 -0.024  0.917
atom   10   Tr[ns(na)] =   5.43312
    eigenvalues: 
  0.838  0.930  0.948
    eigenvectors:
  0.336  0.000  0.664
  0.000  1.000  0.000
  0.664  0.000  0.336
    occupations:
  0.911  0.000 -0.052
  0.000  0.930  0.000
 -0.052  0.000  0.875
N of occupied +U levels =  56.3376374
 --- exit write_ns ---
 --- in v_hubbard ---
Hubbard energy    0.4878
 -------

     total cpu time spent up to now is       62.7 secs

     total energy              =    -537.79943947 Ry
     Harris-Foulkes estimate   =    -537.79106742 Ry
     estimated scf accuracy    <       0.02258564 Ry

     iteration #  4     ecut=    30.00 Ry     beta=0.20
     Davidson diagonalization with overlap
     ethr =  2.97E-05,  avg # of iterations =  2.1
 --- enter write_ns ---
 LDA+U parameters:
U( 1)     =  7.00000000
alpha( 1) =  0.00000000
U( 2)     =  0.00000000
alpha( 2) = -0.10000000
U( 3)     =  0.00000000
alpha( 3) =  0.00000000
U( 4)     =  0.00000000
alpha( 4) =  0.00000000
atom    1   Tr[ns(na)] =   8.09160
    eigenvalues: 
  0.525  0.525  0.998  0.998  1.000
    eigenvectors:
  0.000  0.000  0.000  0.000  1.000
  0.340  0.318  0.002  0.339  0.000
  0.318  0.340  0.339  0.002  0.000
  0.287  0.055  0.520  0.138  0.000
  0.055  0.287  0.138  0.520  0.000
    occupations:
  1.000  0.000  0.000  0.000  0.000
  0.000  0.687  0.000 -0.085  0.207
  0.000  0.000  0.687  0.207  0.085
  0.000 -0.085  0.207  0.836  0.000
  0.000  0.207  0.085  0.000  0.836
atom    2   Tr[ns(na)] =   8.08719
    eigenvalues: 
  0.524  0.524  0.998  0.998  1.000
    eigenvectors:
  0.000  0.000  0.000  0.000  1.000
  0.640  0.018  0.224  0.118  0.000
  0.018  0.640  0.118  0.224  0.000
  0.016  0.326  0.475  0.184  0.000
  0.326  0.016  0.184  0.475  0.000
    occupations:
  1.000  0.000  0.000  0.000  0.000
  0.000  0.686  0.000  0.085  0.208
  0.000  0.000  0.686  0.208 -0.085
  0.000  0.085  0.208  0.836  0.000
  0.000  0.208 -0.085  0.000  0.836
atom    3   Tr[ns(na)] =   3.82454
    eigenvalues: 
  0.360  0.360  0.384  0.404  0.404
    eigenvectors:
  0.000  0.000  1.000  0.000  0.000
  0.786  0.138  0.000  0.011  0.065
  0.138  0.786  0.000  0.065  0.011
  0.012  0.064  0.000  0.784  0.140
  0.064  0.012  0.000  0.140  0.784
    occupations:
  0.384  0.000  0.000  0.000  0.000
  0.000  0.363  0.000  0.000  0.012
  0.000  0.000  0.363  0.012  0.000
  0.000  0.000  0.012  0.401  0.000
  0.000  0.012  0.000  0.000  0.401
atom    4   Tr[ns(na)] =   3.79831
    eigenvalues: 
  0.357  0.357  0.381  0.402  0.402
    eigenvectors:
  0.000  0.000  1.000  0.000  0.000
  0.785  0.138  0.000  0.011  0.066
  0.138  0.785  0.000  0.066  0.011
  0.012  0.065  0.000  0.783  0.140
  0.065  0.012  0.000  0.140  0.783
    occupations:
  0.381  0.000  0.000  0.000  0.000
  0.000  0.361  0.000  0.000  0.012
  0.000  0.000  0.361  0.012  0.000
  0.000  0.000  0.012  0.398  0.000
  0.000  0.012  0.000  0.000  0.398
atom    5   Tr[ns(na)] =   5.41982
    eigenvalues: 
  0.834  0.929  0.947
    eigenvectors:
  0.337  0.000  0.663
  0.496  0.251  0.252
  0.166  0.749  0.085
    occupations:
  0.909 -0.046  0.027
 -0.046  0.886  0.024
  0.027  0.024  0.914
atom    6   Tr[ns(na)] =   5.41982
    eigenvalues: 
  0.834  0.929  0.947
    eigenvectors:
  0.337  0.000  0.663
  0.498  0.249  0.254
  0.165  0.751  0.084
    occupations:
  0.909  0.046  0.027
  0.046  0.886 -0.024
  0.027 -0.024  0.915
atom    7   Tr[ns(na)] =   5.41982
    eigenvalues: 
  0.834  0.929  0.947
    eigenvectors:
  0.337  0.000  0.663
  0.000  1.000  0.000
  0.663  0.000  0.337
    occupations:
  0.909  0.000 -0.054
  0.000  0.929  0.000
 -0.054  0.000  0.872
atom    8   Tr[ns(na)] =   5.41978
    eigenvalues: 
  0.834  0.929  0.947
    eigenvectors:
  0.337  0.000  0.663
  0.496  0.251  0.252
  0.166  0.749  0.085
    occupations:
  0.909 -0.046  0.027
 -0.046  0.886  0.025
  0.027  0.025  0.915
atom    9   Tr[ns(na)] =   5.41978
    eigenvalues: 
  0.834  0.929  0.947
    eigenvectors:
  0.337  0.000  0.663
  0.498  0.249  0.254
  0.165  0.751  0.084
    occupations:
  0.909  0.046  0.027
  0.046  0.886 -0.025
  0.027 -0.025  0.915
atom   10   Tr[ns(na)] =   5.41978
    eigenvalues: 
  0.834  0.929  0.947
    eigenvectors:
  0.337  0.000  0.663
  0.000  1.000  0.000
  0.663  0.000  0.337
    occupations:
  0.909  0.000 -0.053
  0.000  0.929  0.000
 -0.053  0.000  0.872
N of occupied +U levels =  56.3204507
 --- exit write_ns ---
 --- in v_hubbard ---
Hubbard energy    0.4845
 -------

     total cpu time spent up to now is       74.3 secs

     total energy              =    -537.80134531 Ry
     Harris-Foulkes estimate   =    -537.80182039 Ry
     estimated scf accuracy    <       0.00342471 Ry

     iteration #  5     ecut=    30.00 Ry     beta=0.20
     Davidson diagonalization with overlap
     ethr =  4.51E-06,  avg # of iterations =  1.1
 --- enter write_ns ---
 LDA+U parameters:
U( 1)     =  7.00000000
alpha( 1) =  0.00000000
U( 2)     =  0.00000000
alpha( 2) = -0.10000000
U( 3)     =  0.00000000
alpha( 3) =  0.00000000
U( 4)     =  0.00000000
alpha( 4) =  0.00000000
atom    1   Tr[ns(na)] =   8.05921
    eigenvalues: 
  0.517  0.517  0.998  0.998  1.000
    eigenvectors:
  0.000  0.000  0.000  0.000  1.000
  0.340  0.318  0.002  0.339  0.000
  0.318  0.340  0.339  0.002  0.000
  0.288  0.054  0.520  0.138  0.000
  0.054  0.288  0.138  0.520  0.000
    occupations:
  1.000  0.000  0.000  0.000  0.000
  0.000  0.681  0.000 -0.087  0.211
  0.000  0.000  0.681  0.211  0.087
  0.000 -0.087  0.211  0.833  0.000
  0.000  0.211  0.087  0.000  0.833
atom    2   Tr[ns(na)] =   8.05546
    eigenvalues: 
  0.516  0.516  0.998  0.998  1.000
    eigenvectors:
  0.000  0.000  0.000  0.000  1.000
  0.640  0.018  0.225  0.117  0.000
  0.018  0.640  0.117  0.225  0.000
  0.017  0.325  0.475  0.184  0.000
  0.325  0.017  0.184  0.475  0.000
    occupations:
  1.000  0.000  0.000  0.000  0.000
  0.000  0.681  0.000  0.087  0.212
  0.000  0.000  0.681  0.212 -0.087
  0.000  0.087  0.212  0.833  0.000
  0.000  0.212 -0.087  0.000  0.833
atom    3   Tr[ns(na)] =   3.82316
    eigenvalues: 
  0.360  0.360  0.384  0.404  0.404
    eigenvectors:
  0.000  0.000  1.000  0.000  0.000
  0.786  0.138  0.000  0.011  0.065
  0.138  0.786  0.000  0.065  0.011
  0.012  0.065  0.000  0.784  0.140
  0.065  0.012  0.000  0.140  0.784
    occupations:
  0.384  0.000  0.000  0.000  0.000
  0.000  0.363  0.000  0.000  0.012
  0.000  0.000  0.363  0.012  0.000
  0.000  0.000  0.012  0.401  0.000
  0.000  0.012  0.000  0.000  0.401
atom    4   Tr[ns(na)] =   3.79711
    eigenvalues: 
  0.357  0.357  0.381  0.402  0.402
    eigenvectors:
  0.000  0.000  1.000  0.000  0.000
  0.784  0.138  0.000  0.011  0.066
  0.138  0.784  0.000  0.066  0.011
  0.012  0.066  0.000  0.782  0.140
  0.066  0.012  0.000  0.140  0.782
    occupations:
  0.381  0.000  0.000  0.000  0.000
  0.000  0.360  0.000  0.000  0.012
  0.000  0.000  0.360  0.012  0.000
  0.000  0.000  0.012  0.398  0.000
  0.000  0.012  0.000  0.000  0.398
atom    5   Tr[ns(na)] =   5.42980
    eigenvalues: 
  0.837  0.930  0.948
    eigenvectors:
  0.337  0.000  0.663
  0.497  0.251  0.252
  0.167  0.749  0.085
    occupations:
  0.911 -0.045  0.026
 -0.045  0.888  0.024
  0.026  0.024  0.916
atom    6   Tr[ns(na)] =   5.42980
    eigenvalues: 
  0.837  0.930  0.948
    eigenvectors:
  0.337  0.000  0.663
  0.498  0.249  0.253
  0.165  0.751  0.084
    occupations:
  0.911  0.045  0.026
  0.045  0.888 -0.024
  0.026 -0.024  0.916
atom    7   Tr[ns(na)] =   5.42980
    eigenvalues: 
  0.837  0.930  0.948
    eigenvectors:
  0.337  0.000  0.663
  0.000  1.000  0.000
  0.663  0.000  0.337
    occupations:
  0.911  0.000 -0.052
  0.000  0.930  0.000
 -0.052  0.000  0.874
atom    8   Tr[ns(na)] =   5.42983
    eigenvalues: 
  0.837  0.930  0.948
    eigenvectors:
  0.337  0.000  0.663
  0.497  0.251  0.252
  0.167  0.749  0.085
    occupations:
  0.910 -0.045  0.026
 -0.045  0.888  0.024
  0.026  0.024  0.916
atom    9   Tr[ns(na)] =   5.42983
    eigenvalues: 
  0.837  0.930  0.948
    eigenvectors:
  0.337  0.000  0.663
  0.498  0.249  0.253
  0.165  0.751  0.084
    occupations:
  0.910  0.045  0.026
  0.045  0.888 -0.024
  0.026 -0.024  0.916
atom   10   Tr[ns(na)] =   5.42983
    eigenvalues: 
  0.837  0.930  0.948
    eigenvectors:
  0.337  0.000  0.663
  0.000  1.000  0.000
  0.663  0.000  0.337
    occupations:
  0.910  0.000 -0.052
  0.000  0.930  0.000
 -0.052  0.000  0.874
N of occupied +U levels =  56.3138368
 --- exit write_ns ---
 --- in v_hubbard ---
Hubbard energy    0.4876
 -------

     total cpu time spent up to now is       85.2 secs

     total energy              =    -537.80173591 Ry
     Harris-Foulkes estimate   =    -537.80165305 Ry
     estimated scf accuracy    <       0.00028542 Ry

     iteration #  6     ecut=    30.00 Ry     beta=0.20
     Davidson diagonalization with overlap
     ethr =  3.76E-07,  avg # of iterations =  2.1
 --- enter write_ns ---
 LDA+U parameters:
U( 1)     =  7.00000000
alpha( 1) =  0.00000000
U( 2)     =  0.00000000
alpha( 2) = -0.10000000
U( 3)     =  0.00000000
alpha( 3) =  0.00000000
U( 4)     =  0.00000000
alpha( 4) =  0.00000000
atom    1   Tr[ns(na)] =   8.04951
    eigenvalues: 
  0.514  0.514  0.998  0.998  1.000
    eigenvectors:
  0.000  0.000  0.000  0.000  1.000
  0.341  0.317  0.002  0.340  0.000
  0.317  0.341  0.340  0.002  0.000
  0.288  0.054  0.521  0.137  0.000
  0.054  0.288  0.137  0.521  0.000
    occupations:
  1.000  0.000  0.000  0.000  0.000
  0.000  0.680  0.000 -0.089  0.212
  0.000  0.000  0.680  0.212  0.089
  0.000 -0.089  0.212  0.833  0.000
  0.000  0.212  0.089  0.000  0.833
atom    2   Tr[ns(na)] =   8.04831
    eigenvalues: 
  0.514  0.514  0.998  0.998  1.000
    eigenvectors:
  0.000  0.000  0.000  0.000  1.000
  0.641  0.017  0.226  0.116  0.000
  0.017  0.641  0.116  0.226  0.000
  0.018  0.324  0.475  0.183  0.000
  0.324  0.018  0.183  0.475  0.000
    occupations:
  1.000  0.000  0.000  0.000  0.000
  0.000  0.679  0.000  0.088  0.212
  0.000  0.000  0.679  0.212 -0.088
  0.000  0.088  0.212  0.833  0.000
  0.000  0.212 -0.088  0.000  0.833
atom    3   Tr[ns(na)] =   3.81638
    eigenvalues: 
  0.359  0.359  0.383  0.404  0.404
    eigenvectors:
  0.000  0.000  1.000  0.000  0.000
  0.784  0.139  0.000  0.011  0.067
  0.139  0.784  0.000  0.067  0.011
  0.012  0.066  0.000  0.782  0.140
  0.066  0.012  0.000  0.140  0.782
    occupations:
  0.383  0.000  0.000  0.000  0.000
  0.000  0.362  0.000  0.000  0.012
  0.000  0.000  0.362  0.012  0.000
  0.000  0.000  0.012  0.400  0.000
  0.000  0.012  0.000  0.000  0.400
atom    4   Tr[ns(na)] =   3.78749
    eigenvalues: 
  0.356  0.356  0.380  0.401  0.401
    eigenvectors:
  0.000  0.000  1.000  0.000  0.000
  0.781  0.139  0.000  0.012  0.068
  0.139  0.781  0.000  0.068  0.012
  0.013  0.067  0.000  0.780  0.140
  0.067  0.013  0.000  0.140  0.780
    occupations:
  0.380  0.000  0.000  0.000  0.000
  0.000  0.359  0.000  0.000  0.012
  0.000  0.000  0.359  0.012  0.000
  0.000  0.000  0.012  0.397  0.000
  0.000  0.012  0.000  0.000  0.397
atom    5   Tr[ns(na)] =   5.43394
    eigenvalues: 
  0.838  0.930  0.949
    eigenvectors:
  0.337  0.000  0.663
  0.496  0.252  0.252
  0.167  0.748  0.085
    occupations:
  0.911 -0.045  0.026
 -0.045  0.889  0.024
  0.026  0.024  0.917
atom    6   Tr[ns(na)] =   5.43394
    eigenvalues: 
  0.838  0.930  0.949
    eigenvectors:
  0.337  0.000  0.663
  0.498  0.248  0.253
  0.165  0.752  0.084
    occupations:
  0.911  0.045  0.026
  0.045  0.889 -0.024
  0.026 -0.024  0.917
atom    7   Tr[ns(na)] =   5.43394
    eigenvalues: 
  0.838  0.930  0.949
    eigenvectors:
  0.337  0.000  0.663
  0.000  1.000  0.000
  0.663  0.000  0.337
    occupations:
  0.911  0.000 -0.052
  0.000  0.930  0.000
 -0.052  0.000  0.875
atom    8   Tr[ns(na)] =   5.43404
    eigenvalues: 
  0.838  0.931  0.948
    eigenvectors:
  0.337  0.000  0.663
  0.496  0.252  0.252
  0.167  0.748  0.085
    occupations:
  0.911 -0.045  0.026
 -0.045  0.889  0.024
  0.026  0.024  0.917
atom    9   Tr[ns(na)] =   5.43404
    eigenvalues: 
  0.838  0.931  0.948
    eigenvectors:
  0.337  0.000  0.663
  0.499  0.248  0.253
  0.165  0.752  0.084
    occupations:
  0.911  0.045  0.026
  0.045  0.889 -0.024
  0.026 -0.024  0.917
atom   10   Tr[ns(na)] =   5.43404
    eigenvalues: 
  0.838  0.931  0.948
    eigenvectors:
  0.337  0.000  0.663
  0.000  1.000  0.000
  0.663  0.000  0.337
    occupations:
  0.911  0.000 -0.052
  0.000  0.931  0.000
 -0.052  0.000  0.875
N of occupied +U levels =  56.3056539
 --- exit write_ns ---
 --- in v_hubbard ---
Hubbard energy    0.4875
 -------

     total cpu time spent up to now is       98.6 secs

     total energy              =    -537.80192961 Ry
     Harris-Foulkes estimate   =    -537.80181331 Ry
     estimated scf accuracy    <       0.00006656 Ry

     iteration #  7     ecut=    30.00 Ry     beta=0.20
     Davidson diagonalization with overlap
     ethr =  8.76E-08,  avg # of iterations =  1.0
 --- enter write_ns ---
 LDA+U parameters:
U( 1)     =  7.00000000
alpha( 1) =  0.00000000
U( 2)     =  0.00000000
alpha( 2) = -0.10000000
U( 3)     =  0.00000000
alpha( 3) =  0.00000000
U( 4)     =  0.00000000
alpha( 4) =  0.00000000
atom    1   Tr[ns(na)] =   8.04762
    eigenvalues: 
  0.514  0.514  0.998  0.998  1.000
    eigenvectors:
  0.000  0.000  0.000  0.000  1.000
  0.341  0.317  0.002  0.340  0.000
  0.317  0.341  0.340  0.002  0.000
  0.288  0.053  0.521  0.137  0.000
  0.053  0.288  0.137  0.521  0.000
    occupations:
  1.000  0.000  0.000  0.000  0.000
  0.000  0.679  0.000 -0.089  0.212
  0.000  0.000  0.679  0.212  0.089
  0.000 -0.089  0.212  0.832  0.000
  0.000  0.212  0.089  0.000  0.832
atom    2   Tr[ns(na)] =   8.04530
    eigenvalues: 
  0.513  0.513  0.998  0.998  1.000
    eigenvectors:
  0.000  0.000  0.000  0.000  1.000
  0.641  0.017  0.226  0.116  0.000
  0.017  0.641  0.116  0.226  0.000
  0.018  0.324  0.475  0.183  0.000
  0.324  0.018  0.183  0.475  0.000
    occupations:
  1.000  0.000  0.000  0.000  0.000
  0.000  0.679  0.000  0.088  0.213
  0.000  0.000  0.679  0.213 -0.088
  0.000  0.088  0.213  0.832  0.000
  0.000  0.213 -0.088  0.000  0.832
atom    3   Tr[ns(na)] =   3.81684
    eigenvalues: 
  0.359  0.359  0.383  0.404  0.404
    eigenvectors:
  0.000  0.000  1.000  0.000  0.000
  0.784  0.139  0.000  0.011  0.066
  0.139  0.784  0.000  0.066  0.011
  0.012  0.066  0.000  0.782  0.140
  0.066  0.012  0.000  0.140  0.782
    occupations:
  0.383  0.000  0.000  0.000  0.000
  0.000  0.362  0.000  0.000  0.012
  0.000  0.000  0.362  0.012  0.000
  0.000  0.000  0.012  0.400  0.000
  0.000  0.012  0.000  0.000  0.400
atom    4   Tr[ns(na)] =   3.78803
    eigenvalues: 
  0.356  0.356  0.380  0.401  0.401
    eigenvectors:
  0.000  0.000  1.000  0.000  0.000
  0.781  0.139  0.000  0.012  0.068
  0.139  0.781  0.000  0.068  0.012
  0.012  0.067  0.000  0.780  0.140
  0.067  0.012  0.000  0.140  0.780
    occupations:
  0.380  0.000  0.000  0.000  0.000
  0.000  0.359  0.000  0.000  0.012
  0.000  0.000  0.359  0.012  0.000
  0.000  0.000  0.012  0.397  0.000
  0.000  0.012  0.000  0.000  0.397
atom    5   Tr[ns(na)] =   5.43459
    eigenvalues: 
  0.838  0.930  0.949
    eigenvectors:
  0.337  0.000  0.663
  0.496  0.251  0.252
  0.167  0.749  0.085
    occupations:
  0.911 -0.045  0.026
 -0.045  0.889  0.024
  0.026  0.024  0.917
atom    6   Tr[ns(na)] =   5.43459
    eigenvalues: 
  0.838  0.930  0.949
    eigenvectors:
  0.337  0.000  0.663
  0.498  0.249  0.253
  0.165  0.751  0.084
    occupations:
  0.911  0.045  0.026
  0.045  0.889 -0.024
  0.026 -0.024  0.917
atom    7   Tr[ns(na)] =   5.43459
    eigenvalues: 
  0.838  0.930  0.949
    eigenvectors:
  0.337  0.000  0.663
  0.000  1.000  0.000
  0.663  0.000  0.337
    occupations:
  0.911  0.000 -0.052
  0.000  0.930  0.000
 -0.052  0.000  0.875
atom    8   Tr[ns(na)] =   5.43468
    eigenvalues: 
  0.838  0.931  0.948
    eigenvectors:
  0.337  0.000  0.663
  0.497  0.252  0.252
  0.167  0.748  0.085
    occupations:
  0.911 -0.045  0.026
 -0.045  0.889  0.024
  0.026  0.024  0.917
atom    9   Tr[ns(na)] =   5.43468
    eigenvalues: 
  0.838  0.931  0.948
    eigenvectors:
  0.337  0.000  0.663
  0.498  0.248  0.253
  0.165  0.752  0.084
    occupations:
  0.911  0.045  0.026
  0.045  0.889 -0.024
  0.026 -0.024  0.917
atom   10   Tr[ns(na)] =   5.43468
    eigenvalues: 
  0.838  0.931  0.948
    eigenvectors:
  0.337  0.000  0.663
  0.000  1.000  0.000
  0.663  0.000  0.337
    occupations:
  0.911  0.000 -0.052
  0.000  0.931  0.000
 -0.052  0.000  0.875
N of occupied +U levels =  56.3055979
 --- exit write_ns ---
 --- in v_hubbard ---
Hubbard energy    0.4882
 -------

     total cpu time spent up to now is      110.2 secs

     total energy              =    -537.80199493 Ry
     Harris-Foulkes estimate   =    -537.80193215 Ry
     estimated scf accuracy    <       0.00007149 Ry

     iteration #  8     ecut=    30.00 Ry     beta=0.20
     Davidson diagonalization with overlap
     ethr =  8.76E-08,  avg # of iterations =  2.0
 --- enter write_ns ---
 LDA+U parameters:
U( 1)     =  7.00000000
alpha( 1) =  0.00000000
U( 2)     =  0.00000000
alpha( 2) = -0.10000000
U( 3)     =  0.00000000
alpha( 3) =  0.00000000
U( 4)     =  0.00000000
alpha( 4) =  0.00000000
atom    1   Tr[ns(na)] =   8.04387
    eigenvalues: 
  0.513  0.513  0.998  0.998  1.000
    eigenvectors:
  0.000  0.000  0.000  0.000  1.000
  0.341  0.317  0.002  0.340  0.000
  0.317  0.341  0.340  0.002  0.000
  0.289  0.053  0.521  0.137  0.000
  0.053  0.289  0.137  0.521  0.000
    occupations:
  1.000  0.000  0.000  0.000  0.000
  0.000  0.679  0.000 -0.089  0.212
  0.000  0.000  0.679  0.212  0.089
  0.000 -0.089  0.212  0.832  0.000
  0.000  0.212  0.089  0.000  0.832
atom    2   Tr[ns(na)] =   8.04180
    eigenvalues: 
  0.512  0.512  0.998  0.998  1.000
    eigenvectors:
  0.000  0.000  0.000  0.000  1.000
  0.642  0.017  0.227  0.115  0.000
  0.017  0.642  0.115  0.227  0.000
  0.019  0.323  0.475  0.183  0.000
  0.323  0.019  0.183  0.475  0.000
    occupations:
  1.000  0.000  0.000  0.000  0.000
  0.000  0.678  0.000  0.089  0.213
  0.000  0.000  0.678  0.213 -0.089
  0.000  0.089  0.213  0.832  0.000
  0.000  0.213 -0.089  0.000  0.832
atom    3   Tr[ns(na)] =   3.82083
    eigenvalues: 
  0.359  0.359  0.384  0.404  0.404
    eigenvectors:
  0.000  0.000  1.000  0.000  0.000
  0.784  0.138  0.000  0.011  0.066
  0.138  0.784  0.000  0.066  0.011
  0.012  0.065  0.000  0.783  0.140
  0.065  0.012  0.000  0.140  0.783
    occupations:
  0.384  0.000  0.000  0.000  0.000
  0.000  0.363  0.000  0.000  0.012
  0.000  0.000  0.363  0.012  0.000
  0.000  0.000  0.012  0.401  0.000
  0.000  0.012  0.000  0.000  0.401
atom    4   Tr[ns(na)] =   3.79268
    eigenvalues: 
  0.356  0.356  0.381  0.402  0.402
    eigenvectors:
  0.000  0.000  1.000  0.000  0.000
  0.782  0.139  0.000  0.011  0.067
  0.139  0.782  0.000  0.067  0.011
  0.012  0.066  0.000  0.781  0.140
  0.066  0.012  0.000  0.140  0.781
    occupations:
  0.381  0.000  0.000  0.000  0.000
  0.000  0.360  0.000  0.000  0.012
  0.000  0.000  0.360  0.012  0.000
  0.000  0.000  0.012  0.398  0.000
  0.000  0.012  0.000  0.000  0.398
atom    5   Tr[ns(na)] =   5.43473
    eigenvalues: 
  0.838  0.930  0.948
    eigenvectors:
  0.337  0.000  0.663
  0.497  0.252  0.252
  0.167  0.748  0.085
    occupations:
  0.911 -0.045  0.026
 -0.045  0.889  0.024
  0.026  0.024  0.917
atom    6   Tr[ns(na)] =   5.43473
    eigenvalues: 
  0.838  0.930  0.948
    eigenvectors:
  0.337  0.000  0.663
  0.498  0.248  0.253
  0.165  0.752  0.084
    occupations:
  0.911  0.045  0.026
  0.045  0.889 -0.024
  0.026 -0.024  0.917
atom    7   Tr[ns(na)] =   5.43473
    eigenvalues: 
  0.838  0.930  0.948
    eigenvectors:
  0.337  0.000  0.663
  0.000  1.000  0.000
  0.663  0.000  0.337
    occupations:
  0.911  0.000 -0.052
  0.000  0.930  0.000
 -0.052  0.000  0.875
atom    8   Tr[ns(na)] =   5.43473
    eigenvalues: 
  0.838  0.931  0.948
    eigenvectors:
  0.337  0.000  0.663
  0.497  0.252  0.252
  0.167  0.748  0.085
    occupations:
  0.911 -0.045  0.026
 -0.045  0.889  0.024
  0.026  0.024  0.917
atom    9   Tr[ns(na)] =   5.43473
    eigenvalues: 
  0.838  0.931  0.948
    eigenvectors:
  0.337  0.000  0.663
  0.499  0.248  0.253
  0.165  0.752  0.084
    occupations:
  0.911  0.045  0.026
  0.045  0.889 -0.024
  0.026 -0.024  0.917
atom   10   Tr[ns(na)] =   5.43473
    eigenvalues: 
  0.838  0.931  0.948
    eigenvectors:
  0.337  0.000  0.663
  0.000  1.000  0.000
  0.663  0.000  0.337
    occupations:
  0.911  0.000 -0.052
  0.000  0.931  0.000
 -0.052  0.000  0.875
N of occupied +U levels =  56.3075497
 --- exit write_ns ---
 --- in v_hubbard ---
Hubbard energy    0.4893
 -------

     total cpu time spent up to now is      123.7 secs

     total energy              =    -537.80204721 Ry
     Harris-Foulkes estimate   =    -537.80200837 Ry
     estimated scf accuracy    <       0.00008590 Ry

     iteration #  9     ecut=    30.00 Ry     beta=0.20
     Davidson diagonalization with overlap
     ethr =  8.76E-08,  avg # of iterations =  1.1
 --- enter write_ns ---
 LDA+U parameters:
U( 1)     =  7.00000000
alpha( 1) =  0.00000000
U( 2)     =  0.00000000
alpha( 2) = -0.10000000
U( 3)     =  0.00000000
alpha( 3) =  0.00000000
U( 4)     =  0.00000000
alpha( 4) =  0.00000000
atom    1   Tr[ns(na)] =   8.04874
    eigenvalues: 
  0.514  0.514  0.998  0.998  1.000
    eigenvectors:
  0.000  0.000  0.000  0.000  1.000
  0.341  0.317  0.002  0.340  0.000
  0.317  0.341  0.340  0.002  0.000
  0.289  0.053  0.522  0.137  0.000
  0.053  0.289  0.137  0.522  0.000
    occupations:
  1.000  0.000  0.000  0.000  0.000
  0.000  0.680  0.000 -0.089  0.212
  0.000  0.000  0.680  0.212  0.089
  0.000 -0.089  0.212  0.833  0.000
  0.000  0.212  0.089  0.000  0.833
atom    2   Tr[ns(na)] =   8.04530
    eigenvalues: 
  0.513  0.513  0.998  0.998  1.000
    eigenvectors:
  0.000  0.000  0.000  0.000  1.000
  0.642  0.016  0.227  0.115  0.000
  0.016  0.642  0.115  0.227  0.000
  0.019  0.323  0.475  0.183  0.000
  0.323  0.019  0.183  0.475  0.000
    occupations:
  1.000  0.000  0.000  0.000  0.000
  0.000  0.679  0.000  0.089  0.212
  0.000  0.000  0.679  0.212 -0.089
  0.000  0.089  0.212  0.832  0.000
  0.000  0.212 -0.089  0.000  0.832
atom    3   Tr[ns(na)] =   3.82117
    eigenvalues: 
  0.359  0.359  0.384  0.404  0.404
    eigenvectors:
  0.000  0.000  1.000  0.000  0.000
  0.784  0.138  0.000  0.011  0.066
  0.138  0.784  0.000  0.066  0.011
  0.012  0.065  0.000  0.783  0.140
  0.065  0.012  0.000  0.140  0.783
    occupations:
  0.384  0.000  0.000  0.000  0.000
  0.000  0.363  0.000  0.000  0.012
  0.000  0.000  0.363  0.012  0.000
  0.000  0.000  0.012  0.401  0.000
  0.000  0.012  0.000  0.000  0.401
atom    4   Tr[ns(na)] =   3.79292
    eigenvalues: 
  0.356  0.356  0.381  0.402  0.402
    eigenvectors:
  0.000  0.000  1.000  0.000  0.000
  0.782  0.139  0.000  0.011  0.067
  0.139  0.782  0.000  0.067  0.011
  0.012  0.066  0.000  0.781  0.140
  0.066  0.012  0.000  0.140  0.781
    occupations:
  0.381  0.000  0.000  0.000  0.000
  0.000  0.360  0.000  0.000  0.012
  0.000  0.000  0.360  0.012  0.000
  0.000  0.000  0.012  0.398  0.000
  0.000  0.012  0.000  0.000  0.398
atom    5   Tr[ns(na)] =   5.43331
    eigenvalues: 
  0.838  0.930  0.948
    eigenvectors:
  0.337  0.000  0.663
  0.497  0.251  0.252
  0.167  0.749  0.085
    occupations:
  0.911 -0.045  0.026
 -0.045  0.889  0.024
  0.026  0.024  0.916
atom    6   Tr[ns(na)] =   5.43331
    eigenvalues: 
  0.838  0.930  0.948
    eigenvectors:
  0.337  0.000  0.663
  0.498  0.249  0.253
  0.165  0.751  0.084
    occupations:
  0.911  0.045  0.026
  0.045  0.889 -0.024
  0.026 -0.024  0.917
atom    7   Tr[ns(na)] =   5.43331
    eigenvalues: 
  0.838  0.930  0.948
    eigenvectors:
  0.337  0.000  0.663
  0.000  1.000  0.000
  0.663  0.000  0.337
    occupations:
  0.911  0.000 -0.052
  0.000  0.930  0.000
 -0.052  0.000  0.875
atom    8   Tr[ns(na)] =   5.43332
    eigenvalues: 
  0.838  0.931  0.948
    eigenvectors:
  0.337  0.000  0.663
  0.497  0.251  0.252
  0.167  0.749  0.085
    occupations:
  0.911 -0.045  0.026
 -0.045  0.889  0.024
  0.026  0.024  0.917
atom    9   Tr[ns(na)] =   5.43332
    eigenvalues: 
  0.838  0.931  0.948
    eigenvectors:
  0.337  0.000  0.663
  0.498  0.249  0.253
  0.165  0.751  0.084
    occupations:
  0.911  0.045  0.026
  0.045  0.889 -0.024
  0.026 -0.024  0.917
atom   10   Tr[ns(na)] =   5.43332
    eigenvalues: 
  0.838  0.931  0.948
    eigenvectors:
  0.337  0.000  0.663
  0.000  1.000  0.000
  0.663  0.000  0.337
    occupations:
  0.911  0.000 -0.052
  0.000  0.931  0.000
 -0.052  0.000  0.875
N of occupied +U levels =  56.3080428
 --- exit write_ns ---
 --- in v_hubbard ---
Hubbard energy    0.4895
 -------

     total cpu time spent up to now is      135.0 secs

     total energy              =    -537.80208442 Ry
     Harris-Foulkes estimate   =    -537.80205356 Ry
     estimated scf accuracy    <       0.00000814 Ry

     iteration # 10     ecut=    30.00 Ry     beta=0.20
     Davidson diagonalization with overlap
     ethr =  1.07E-08,  avg # of iterations =  2.1
 --- enter write_ns ---
 LDA+U parameters:
U( 1)     =  7.00000000
alpha( 1) =  0.00000000
U( 2)     =  0.00000000
alpha( 2) = -0.10000000
U( 3)     =  0.00000000
alpha( 3) =  0.00000000
U( 4)     =  0.00000000
alpha( 4) =  0.00000000
atom    1   Tr[ns(na)] =   8.04979
    eigenvalues: 
  0.514  0.514  0.998  0.998  1.000
    eigenvectors:
  0.000  0.000  0.000  0.000  1.000
  0.342  0.316  0.002  0.340  0.000
  0.316  0.342  0.340  0.002  0.000
  0.289  0.053  0.522  0.136  0.000
  0.053  0.289  0.136  0.522  0.000
    occupations:
  1.000  0.000  0.000  0.000  0.000
  0.000  0.680  0.000 -0.090  0.211
  0.000  0.000  0.680  0.211  0.090
  0.000 -0.090  0.211  0.833  0.000
  0.000  0.211  0.090  0.000  0.833
atom    2   Tr[ns(na)] =   8.04629
    eigenvalues: 
  0.513  0.513  0.998  0.998  1.000
    eigenvectors:
  0.000  0.000  0.000  0.000  1.000
  0.643  0.016  0.227  0.114  0.000
  0.016  0.643  0.114  0.227  0.000
  0.020  0.322  0.475  0.183  0.000
  0.322  0.020  0.183  0.475  0.000
    occupations:
  1.000  0.000  0.000  0.000  0.000
  0.000  0.679  0.000  0.089  0.212
  0.000  0.000  0.679  0.212 -0.089
  0.000  0.089  0.212  0.833  0.000
  0.000  0.212 -0.089  0.000  0.833
atom    3   Tr[ns(na)] =   3.82018
    eigenvalues: 
  0.359  0.359  0.383  0.404  0.404
    eigenvectors:
  0.000  0.000  1.000  0.000  0.000
  0.784  0.138  0.000  0.011  0.066
  0.138  0.784  0.000  0.066  0.011
  0.012  0.065  0.000  0.783  0.140
  0.065  0.012  0.000  0.140  0.783
    occupations:
  0.383  0.000  0.000  0.000  0.000
  0.000  0.363  0.000  0.000  0.012
  0.000  0.000  0.363  0.012  0.000
  0.000  0.000  0.012  0.401  0.000
  0.000  0.012  0.000  0.000  0.401
atom    4   Tr[ns(na)] =   3.79232
    eigenvalues: 
  0.356  0.356  0.381  0.402  0.402
    eigenvectors:
  0.000  0.000  1.000  0.000  0.000
  0.782  0.139  0.000  0.012  0.067
  0.139  0.782  0.000  0.067  0.012
  0.012  0.067  0.000  0.781  0.140
  0.067  0.012  0.000  0.140  0.781
    occupations:
  0.381  0.000  0.000  0.000  0.000
  0.000  0.360  0.000  0.000  0.012
  0.000  0.000  0.360  0.012  0.000
  0.000  0.000  0.012  0.398  0.000
  0.000  0.012  0.000  0.000  0.398
atom    5   Tr[ns(na)] =   5.43312
    eigenvalues: 
  0.838  0.930  0.948
    eigenvectors:
  0.337  0.000  0.663
  0.497  0.251  0.252
  0.167  0.749  0.085
    occupations:
  0.911 -0.045  0.026
 -0.045  0.889  0.024
  0.026  0.024  0.916
atom    6   Tr[ns(na)] =   5.43312
    eigenvalues: 
  0.838  0.930  0.948
    eigenvectors:
  0.337  0.000  0.663
  0.498  0.249  0.253
  0.165  0.751  0.084
    occupations:
  0.911  0.045  0.026
  0.045  0.889 -0.024
  0.026 -0.024  0.917
atom    7   Tr[ns(na)] =   5.43312
    eigenvalues: 
  0.838  0.930  0.948
    eigenvectors:
  0.337  0.000  0.663
  0.000  1.000  0.000
  0.663  0.000  0.337
    occupations:
  0.911  0.000 -0.052
  0.000  0.930  0.000
 -0.052  0.000  0.875
atom    8   Tr[ns(na)] =   5.43316
    eigenvalues: 
  0.838  0.931  0.948
    eigenvectors:
  0.337  0.000  0.663
  0.497  0.251  0.252
  0.167  0.749  0.085
    occupations:
  0.911 -0.045  0.026
 -0.045  0.889  0.024
  0.026  0.024  0.917
atom    9   Tr[ns(na)] =   5.43316
    eigenvalues: 
  0.838  0.931  0.948
    eigenvectors:
  0.337  0.000  0.663
  0.498  0.249  0.253
  0.165  0.751  0.084
    occupations:
  0.911  0.045  0.026
  0.045  0.889 -0.024
  0.026 -0.024  0.917
atom   10   Tr[ns(na)] =   5.43316
    eigenvalues: 
  0.838  0.931  0.948
    eigenvectors:
  0.337  0.000  0.663
  0.000  1.000  0.000
  0.663  0.000  0.337
    occupations:
  0.911  0.000 -0.052
  0.000  0.931  0.000
 -0.052  0.000  0.875
N of occupied +U levels =  56.3074154
 --- exit write_ns ---
 --- in v_hubbard ---
Hubbard energy    0.4899
 -------

     total cpu time spent up to now is      148.5 secs

     total energy              =    -537.80210910 Ry
     Harris-Foulkes estimate   =    -537.80208712 Ry
     estimated scf accuracy    <       0.00000338 Ry

     iteration # 11     ecut=    30.00 Ry     beta=0.20
     Davidson diagonalization with overlap
     ethr =  4.45E-09,  avg # of iterations =  1.0
 --- enter write_ns ---
 LDA+U parameters:
U( 1)     =  7.00000000
alpha( 1) =  0.00000000
U( 2)     =  0.00000000
alpha( 2) = -0.10000000
U( 3)     =  0.00000000
alpha( 3) =  0.00000000
U( 4)     =  0.00000000
alpha( 4) =  0.00000000
atom    1   Tr[ns(na)] =   8.04964
    eigenvalues: 
  0.514  0.514  0.998  0.998  1.000
    eigenvectors:
  0.000  0.000  0.000  0.000  1.000
  0.342  0.316  0.002  0.340  0.000
  0.316  0.342  0.340  0.002  0.000
  0.289  0.052  0.522  0.136  0.000
  0.052  0.289  0.136  0.522  0.000
    occupations:
  1.000  0.000  0.000  0.000  0.000
  0.000  0.680  0.000 -0.090  0.211
  0.000  0.000  0.680  0.211  0.090
  0.000 -0.090  0.211  0.833  0.000
  0.000  0.211  0.090  0.000  0.833
atom    2   Tr[ns(na)] =   8.04641
    eigenvalues: 
  0.513  0.513  0.998  0.998  1.000
    eigenvectors:
  0.000  0.000  0.000  0.000  1.000
  0.643  0.016  0.228  0.114  0.000
  0.016  0.643  0.114  0.228  0.000
  0.020  0.322  0.475  0.183  0.000
  0.322  0.020  0.183  0.475  0.000
    occupations:
  1.000  0.000  0.000  0.000  0.000
  0.000  0.679  0.000  0.090  0.212
  0.000  0.000  0.679  0.212 -0.090
  0.000  0.090  0.212  0.833  0.000
  0.000  0.212 -0.090  0.000  0.833
atom    3   Tr[ns(na)] =   3.82016
    eigenvalues: 
  0.359  0.359  0.383  0.404  0.404
    eigenvectors:
  0.000  0.000  1.000  0.000  0.000
  0.784  0.138  0.000  0.011  0.066
  0.138  0.784  0.000  0.066  0.011
  0.012  0.065  0.000  0.783  0.140
  0.065  0.012  0.000  0.140  0.783
    occupations:
  0.383  0.000  0.000  0.000  0.000
  0.000  0.363  0.000  0.000  0.012
  0.000  0.000  0.363  0.012  0.000
  0.000  0.000  0.012  0.401  0.000
  0.000  0.012  0.000  0.000  0.401
atom    4   Tr[ns(na)] =   3.79227
    eigenvalues: 
  0.356  0.356  0.381  0.402  0.402
    eigenvectors:
  0.000  0.000  1.000  0.000  0.000
  0.782  0.139  0.000  0.012  0.067
  0.139  0.782  0.000  0.067  0.012
  0.012  0.067  0.000  0.781  0.140
  0.067  0.012  0.000  0.140  0.781
    occupations:
  0.381  0.000  0.000  0.000  0.000
  0.000  0.360  0.000  0.000  0.012
  0.000  0.000  0.360  0.012  0.000
  0.000  0.000  0.012  0.398  0.000
  0.000  0.012  0.000  0.000  0.398
atom    5   Tr[ns(na)] =   5.43313
    eigenvalues: 
  0.838  0.930  0.948
    eigenvectors:
  0.337  0.000  0.663
  0.497  0.251  0.252
  0.167  0.749  0.085
    occupations:
  0.911 -0.045  0.026
 -0.045  0.889  0.024
  0.026  0.024  0.916
atom    6   Tr[ns(na)] =   5.43313
    eigenvalues: 
  0.838  0.930  0.948
    eigenvectors:
  0.337  0.000  0.663
  0.498  0.249  0.253
  0.165  0.751  0.084
    occupations:
  0.911  0.045  0.026
  0.045  0.889 -0.024
  0.026 -0.024  0.917
atom    7   Tr[ns(na)] =   5.43313
    eigenvalues: 
  0.838  0.930  0.948
    eigenvectors:
  0.337  0.000  0.663
  0.000  1.000  0.000
  0.663  0.000  0.337
    occupations:
  0.911  0.000 -0.052
  0.000  0.930  0.000
 -0.052  0.000  0.875
atom    8   Tr[ns(na)] =   5.43316
    eigenvalues: 
  0.838  0.931  0.948
    eigenvectors:
  0.337  0.000  0.663
  0.497  0.251  0.252
  0.167  0.749  0.085
    occupations:
  0.911 -0.045  0.026
 -0.045  0.889  0.024
  0.026  0.024  0.917
atom    9   Tr[ns(na)] =   5.43316
    eigenvalues: 
  0.838  0.931  0.948
    eigenvectors:
  0.337  0.000  0.663
  0.498  0.249  0.253
  0.165  0.751  0.084
    occupations:
  0.911  0.045  0.026
  0.045  0.889 -0.024
  0.026 -0.024  0.917
atom   10   Tr[ns(na)] =   5.43316
    eigenvalues: 
  0.838  0.931  0.948
    eigenvectors:
  0.337  0.000  0.663
  0.000  1.000  0.000
  0.663  0.000  0.337
    occupations:
  0.911  0.000 -0.052
  0.000  0.931  0.000
 -0.052  0.000  0.875
N of occupied +U levels =  56.3073349
 --- exit write_ns ---
 --- in v_hubbard ---
Hubbard energy    0.4895
 -------

     total cpu time spent up to now is      160.2 secs

     total energy              =    -537.80212242 Ry
     Harris-Foulkes estimate   =    -537.80210946 Ry
     estimated scf accuracy    <       0.00000308 Ry

     iteration # 12     ecut=    30.00 Ry     beta=0.20
     Davidson diagonalization with overlap
     ethr =  4.05E-09,  avg # of iterations =  1.0
 --- enter write_ns ---
 LDA+U parameters:
U( 1)     =  7.00000000
alpha( 1) =  0.00000000
U( 2)     =  0.00000000
alpha( 2) = -0.10000000
U( 3)     =  0.00000000
alpha( 3) =  0.00000000
U( 4)     =  0.00000000
alpha( 4) =  0.00000000
atom    1   Tr[ns(na)] =   8.04910
    eigenvalues: 
  0.514  0.514  0.998  0.998  1.000
    eigenvectors:
  0.000  0.000  0.000  0.000  1.000
  0.343  0.316  0.002  0.340  0.000
  0.316  0.343  0.340  0.002  0.000
  0.290  0.052  0.522  0.136  0.000
  0.052  0.290  0.136  0.522  0.000
    occupations:
  1.000  0.000  0.000  0.000  0.000
  0.000  0.680  0.000 -0.090  0.211
  0.000  0.000  0.680  0.211  0.090
  0.000 -0.090  0.211  0.833  0.000
  0.000  0.211  0.090  0.000  0.833
atom    2   Tr[ns(na)] =   8.04581
    eigenvalues: 
  0.513  0.513  0.998  0.998  1.000
    eigenvectors:
  0.000  0.000  0.000  0.000  1.000
  0.643  0.015  0.228  0.113  0.000
  0.015  0.643  0.113  0.228  0.000
  0.021  0.321  0.475  0.183  0.000
  0.321  0.021  0.183  0.475  0.000
    occupations:
  1.000  0.000  0.000  0.000  0.000
  0.000  0.679  0.000  0.090  0.212
  0.000  0.000  0.679  0.212 -0.090
  0.000  0.090  0.212  0.832  0.000
  0.000  0.212 -0.090  0.000  0.832
atom    3   Tr[ns(na)] =   3.82016
    eigenvalues: 
  0.359  0.359  0.383  0.404  0.404
    eigenvectors:
  0.000  0.000  1.000  0.000  0.000
  0.784  0.138  0.000  0.011  0.066
  0.138  0.784  0.000  0.066  0.011
  0.012  0.065  0.000  0.783  0.140
  0.065  0.012  0.000  0.140  0.783
    occupations:
  0.383  0.000  0.000  0.000  0.000
  0.000  0.363  0.000  0.000  0.012
  0.000  0.000  0.363  0.012  0.000
  0.000  0.000  0.012  0.401  0.000
  0.000  0.012  0.000  0.000  0.401
atom    4   Tr[ns(na)] =   3.79198
    eigenvalues: 
  0.356  0.356  0.381  0.401  0.401
    eigenvectors:
  0.000  0.000  1.000  0.000  0.000
  0.782  0.139  0.000  0.012  0.067
  0.139  0.782  0.000  0.067  0.012
  0.012  0.066  0.000  0.781  0.140
  0.066  0.012  0.000  0.140  0.781
    occupations:
  0.381  0.000  0.000  0.000  0.000
  0.000  0.360  0.000  0.000  0.012
  0.000  0.000  0.360  0.012  0.000
  0.000  0.000  0.012  0.398  0.000
  0.000  0.012  0.000  0.000  0.398
atom    5   Tr[ns(na)] =   5.43334
    eigenvalues: 
  0.838  0.930  0.948
    eigenvectors:
  0.337  0.000  0.663
  0.497  0.251  0.252
  0.167  0.749  0.085
    occupations:
  0.911 -0.045  0.026
 -0.045  0.889  0.024
  0.026  0.024  0.916
atom    6   Tr[ns(na)] =   5.43334
    eigenvalues: 
  0.838  0.930  0.948
    eigenvectors:
  0.337  0.000  0.663
  0.498  0.249  0.253
  0.165  0.751  0.084
    occupations:
  0.911  0.045  0.026
  0.045  0.889 -0.024
  0.026 -0.024  0.917
atom    7   Tr[ns(na)] =   5.43334
    eigenvalues: 
  0.838  0.930  0.948
    eigenvectors:
  0.337  0.000  0.663
  0.000  1.000  0.000
  0.663  0.000  0.337
    occupations:
  0.911  0.000 -0.052
  0.000  0.930  0.000
 -0.052  0.000  0.875
atom    8   Tr[ns(na)] =   5.43338
    eigenvalues: 
  0.838  0.931  0.948
    eigenvectors:
  0.337  0.000  0.663
  0.497  0.251  0.252
  0.167  0.749  0.085
    occupations:
  0.911 -0.045  0.026
 -0.045  0.889  0.024
  0.026  0.024  0.917
atom    9   Tr[ns(na)] =   5.43338
    eigenvalues: 
  0.838  0.931  0.948
    eigenvectors:
  0.337  0.000  0.663
  0.498  0.249  0.253
  0.165  0.751  0.084
    occupations:
  0.911  0.045  0.026
  0.045  0.889 -0.024
  0.026 -0.024  0.917
atom   10   Tr[ns(na)] =   5.43338
    eigenvalues: 
  0.838  0.931  0.948
    eigenvectors:
  0.337  0.000  0.663
  0.000  1.000  0.000
  0.663  0.000  0.337
    occupations:
  0.911  0.000 -0.052
  0.000  0.931  0.000
 -0.052  0.000  0.875
N of occupied +U levels =  56.3072163
 --- exit write_ns ---
 --- in v_hubbard ---
Hubbard energy    0.4895
 -------

     total cpu time spent up to now is      172.5 secs

     total energy              =    -537.80213282 Ry
     Harris-Foulkes estimate   =    -537.80212379 Ry
     estimated scf accuracy    <       0.00000029 Ry

     iteration # 13     ecut=    30.00 Ry     beta=0.20
     Davidson diagonalization with overlap
     ethr =  3.78E-10,  avg # of iterations =  2.0
 --- enter write_ns ---
 LDA+U parameters:
U( 1)     =  7.00000000
alpha( 1) =  0.00000000
U( 2)     =  0.00000000
alpha( 2) = -0.10000000
U( 3)     =  0.00000000
alpha( 3) =  0.00000000
U( 4)     =  0.00000000
alpha( 4) =  0.00000000
atom    1   Tr[ns(na)] =   8.04888
    eigenvalues: 
  0.514  0.514  0.998  0.998  1.000
    eigenvectors:
  0.000  0.000  0.000  0.000  1.000
  0.342  0.316  0.002  0.340  0.000
  0.316  0.342  0.340  0.002  0.000
  0.290  0.052  0.522  0.136  0.000
  0.052  0.290  0.136  0.522  0.000
    occupations:
  1.000  0.000  0.000  0.000  0.000
  0.000  0.679  0.000 -0.090  0.211
  0.000  0.000  0.679  0.211  0.090
  0.000 -0.090  0.211  0.833  0.000
  0.000  0.211  0.090  0.000  0.833
atom    2   Tr[ns(na)] =   8.04562
    eigenvalues: 
  0.513  0.513  0.998  0.998  1.000
    eigenvectors:
  0.000  0.000  0.000  0.000  1.000
  0.643  0.015  0.228  0.113  0.000
  0.015  0.643  0.113  0.228  0.000
  0.021  0.321  0.476  0.183  0.000
  0.321  0.021  0.183  0.476  0.000
    occupations:
  1.000  0.000  0.000  0.000  0.000
  0.000  0.679  0.000  0.090  0.212
  0.000  0.000  0.679  0.212 -0.090
  0.000  0.090  0.212  0.832  0.000
  0.000  0.212 -0.090  0.000  0.832
atom    3   Tr[ns(na)] =   3.82028
    eigenvalues: 
  0.359  0.359  0.383  0.404  0.404
    eigenvectors:
  0.000  0.000  1.000  0.000  0.000
  0.784  0.138  0.000  0.011  0.066
  0.138  0.784  0.000  0.066  0.011
  0.012  0.065  0.000  0.783  0.140
  0.065  0.012  0.000  0.140  0.783
    occupations:
  0.383  0.000  0.000  0.000  0.000
  0.000  0.363  0.000  0.000  0.012
  0.000  0.000  0.363  0.012  0.000
  0.000  0.000  0.012  0.401  0.000
  0.000  0.012  0.000  0.000  0.401
atom    4   Tr[ns(na)] =   3.79211
    eigenvalues: 
  0.356  0.356  0.381  0.401  0.401
    eigenvectors:
  0.000  0.000  1.000  0.000  0.000
  0.782  0.139  0.000  0.012  0.067
  0.139  0.782  0.000  0.067  0.012
  0.012  0.066  0.000  0.781  0.140
  0.066  0.012  0.000  0.140  0.781
    occupations:
  0.381  0.000  0.000  0.000  0.000
  0.000  0.360  0.000  0.000  0.012
  0.000  0.000  0.360  0.012  0.000
  0.000  0.000  0.012  0.398  0.000
  0.000  0.012  0.000  0.000  0.398
atom    5   Tr[ns(na)] =   5.43338
    eigenvalues: 
  0.838  0.930  0.948
    eigenvectors:
  0.337  0.000  0.663
  0.497  0.251  0.252
  0.167  0.749  0.085
    occupations:
  0.911 -0.045  0.026
 -0.045  0.889  0.024
  0.026  0.024  0.917
atom    6   Tr[ns(na)] =   5.43338
    eigenvalues: 
  0.838  0.930  0.948
    eigenvectors:
  0.337  0.000  0.663
  0.498  0.249  0.253
  0.165  0.751  0.084
    occupations:
  0.911  0.045  0.026
  0.045  0.889 -0.024
  0.026 -0.024  0.917
atom    7   Tr[ns(na)] =   5.43338
    eigenvalues: 
  0.838  0.930  0.948
    eigenvectors:
  0.337  0.000  0.663
  0.000  1.000  0.000
  0.663  0.000  0.337
    occupations:
  0.911  0.000 -0.052
  0.000  0.930  0.000
 -0.052  0.000  0.875
atom    8   Tr[ns(na)] =   5.43341
    eigenvalues: 
  0.838  0.931  0.948
    eigenvectors:
  0.337  0.000  0.663
  0.497  0.251  0.252
  0.167  0.749  0.085
    occupations:
  0.911 -0.045  0.026
 -0.045  0.889  0.024
  0.026  0.024  0.917
atom    9   Tr[ns(na)] =   5.43341
    eigenvalues: 
  0.838  0.931  0.948
    eigenvectors:
  0.337  0.000  0.663
  0.498  0.249  0.253
  0.165  0.751  0.084
    occupations:
  0.911  0.045  0.026
  0.045  0.889 -0.024
  0.026 -0.024  0.917
atom   10   Tr[ns(na)] =   5.43341
    eigenvalues: 
  0.838  0.931  0.948
    eigenvectors:
  0.337  0.000  0.663
  0.000  1.000  0.000
  0.663  0.000  0.337
    occupations:
  0.911  0.000 -0.052
  0.000  0.931  0.000
 -0.052  0.000  0.875
N of occupied +U levels =  56.3072694
 --- exit write_ns ---
 --- in v_hubbard ---
Hubbard energy    0.4894
 -------

     total cpu time spent up to now is      184.5 secs

     total energy              =    -537.80213898 Ry
     Harris-Foulkes estimate   =    -537.80213287 Ry
     estimated scf accuracy    <       0.00000003 Ry

     iteration # 14     ecut=    30.00 Ry     beta=0.20
     Davidson diagonalization with overlap
     ethr =  4.31E-11,  avg # of iterations =  2.9
 --- enter write_ns ---
 LDA+U parameters:
U( 1)     =  7.00000000
alpha( 1) =  0.00000000
U( 2)     =  0.00000000
alpha( 2) = -0.10000000
U( 3)     =  0.00000000
alpha( 3) =  0.00000000
U( 4)     =  0.00000000
alpha( 4) =  0.00000000
atom    1   Tr[ns(na)] =   8.04891
    eigenvalues: 
  0.514  0.514  0.998  0.998  1.000
    eigenvectors:
  0.000  0.000  0.000  0.000  1.000
  0.343  0.316  0.002  0.340  0.000
  0.316  0.343  0.340  0.002  0.000
  0.290  0.052  0.522  0.136  0.000
  0.052  0.290  0.136  0.522  0.000
    occupations:
  1.000  0.000  0.000  0.000  0.000
  0.000  0.679  0.000 -0.090  0.211
  0.000  0.000  0.679  0.211  0.090
  0.000 -0.090  0.211  0.833  0.000
  0.000  0.211  0.090  0.000  0.833
atom    2   Tr[ns(na)] =   8.04565
    eigenvalues: 
  0.513  0.513  0.998  0.998  1.000
    eigenvectors:
  0.000  0.000  0.000  0.000  1.000
  0.643  0.015  0.228  0.113  0.000
  0.015  0.643  0.113  0.228  0.000
  0.021  0.321  0.476  0.183  0.000
  0.321  0.021  0.183  0.476  0.000
    occupations:
  1.000  0.000  0.000  0.000  0.000
  0.000  0.679  0.000  0.090  0.212
  0.000  0.000  0.679  0.212 -0.090
  0.000  0.090  0.212  0.832  0.000
  0.000  0.212 -0.090  0.000  0.832
atom    3   Tr[ns(na)] =   3.82035
    eigenvalues: 
  0.359  0.359  0.383  0.404  0.404
    eigenvectors:
  0.000  0.000  1.000  0.000  0.000
  0.784  0.138  0.000  0.011  0.066
  0.138  0.784  0.000  0.066  0.011
  0.012  0.065  0.000  0.783  0.140
  0.065  0.012  0.000  0.140  0.783
    occupations:
  0.383  0.000  0.000  0.000  0.000
  0.000  0.363  0.000  0.000  0.012
  0.000  0.000  0.363  0.012  0.000
  0.000  0.000  0.012  0.401  0.000
  0.000  0.012  0.000  0.000  0.401
atom    4   Tr[ns(na)] =   3.79231
    eigenvalues: 
  0.356  0.356  0.381  0.402  0.402
    eigenvectors:
  0.000  0.000  1.000  0.000  0.000
  0.782  0.139  0.000  0.012  0.067
  0.139  0.782  0.000  0.067  0.012
  0.012  0.066  0.000  0.781  0.140
  0.066  0.012  0.000  0.140  0.781
    occupations:
  0.381  0.000  0.000  0.000  0.000
  0.000  0.360  0.000  0.000  0.012
  0.000  0.000  0.360  0.012  0.000
  0.000  0.000  0.012  0.398  0.000
  0.000  0.012  0.000  0.000  0.398
atom    5   Tr[ns(na)] =   5.43334
    eigenvalues: 
  0.838  0.930  0.948
    eigenvectors:
  0.337  0.000  0.663
  0.497  0.251  0.252
  0.167  0.749  0.085
    occupations:
  0.911 -0.045  0.026
 -0.045  0.889  0.024
  0.026  0.024  0.917
atom    6   Tr[ns(na)] =   5.43334
    eigenvalues: 
  0.838  0.930  0.948
    eigenvectors:
  0.337  0.000  0.663
  0.498  0.249  0.253
  0.165  0.751  0.084
    occupations:
  0.911  0.045  0.026
  0.045  0.889 -0.024
  0.026 -0.024  0.917
atom    7   Tr[ns(na)] =   5.43334
    eigenvalues: 
  0.838  0.930  0.948
    eigenvectors:
  0.337  0.000  0.663
  0.000  1.000  0.000
  0.663  0.000  0.337
    occupations:
  0.911  0.000 -0.052
  0.000  0.930  0.000
 -0.052  0.000  0.875
atom    8   Tr[ns(na)] =   5.43338
    eigenvalues: 
  0.838  0.931  0.948
    eigenvectors:
  0.337  0.000  0.663
  0.497  0.251  0.252
  0.167  0.749  0.085
    occupations:
  0.911 -0.045  0.026
 -0.045  0.889  0.024
  0.026  0.024  0.917
atom    9   Tr[ns(na)] =   5.43338
    eigenvalues: 
  0.838  0.931  0.948
    eigenvectors:
  0.337  0.000  0.663
  0.498  0.249  0.253
  0.165  0.751  0.084
    occupations:
  0.911  0.045  0.026
  0.045  0.889 -0.024
  0.026 -0.024  0.917
atom   10   Tr[ns(na)] =   5.43338
    eigenvalues: 
  0.838  0.931  0.948
    eigenvectors:
  0.337  0.000  0.663
  0.000  1.000  0.000
  0.663  0.000  0.337
    occupations:
  0.911  0.000 -0.052
  0.000  0.931  0.000
 -0.052  0.000  0.875
N of occupied +U levels =  56.3073776
 --- exit write_ns ---
 --- in v_hubbard ---
Hubbard energy    0.4894
 -------

     total cpu time spent up to now is      198.9 secs

     total energy              =    -537.80214286 Ry
     Harris-Foulkes estimate   =    -537.80213899 Ry
     estimated scf accuracy    <       0.00000002 Ry

     iteration # 15     ecut=    30.00 Ry     beta=0.20
     Davidson diagonalization with overlap
     ethr =  2.52E-11,  avg # of iterations =  2.0
 --- enter write_ns ---
 LDA+U parameters:
U( 1)     =  7.00000000
alpha( 1) =  0.00000000
U( 2)     =  0.00000000
alpha( 2) = -0.10000000
U( 3)     =  0.00000000
alpha( 3) =  0.00000000
U( 4)     =  0.00000000
alpha( 4) =  0.00000000
atom    1   Tr[ns(na)] =   8.04890
    eigenvalues: 
  0.514  0.514  0.998  0.998  1.000
    eigenvectors:
  0.000  0.000  0.000  0.000  1.000
  0.343  0.316  0.002  0.340  0.000
  0.316  0.343  0.340  0.002  0.000
  0.290  0.052  0.522  0.136  0.000
  0.052  0.290  0.136  0.522  0.000
    occupations:
  1.000  0.000  0.000  0.000  0.000
  0.000  0.679  0.000 -0.090  0.211
  0.000  0.000  0.679  0.211  0.090
  0.000 -0.090  0.211  0.833  0.000
  0.000  0.211  0.090  0.000  0.833
atom    2   Tr[ns(na)] =   8.04564
    eigenvalues: 
  0.513  0.513  0.998  0.998  1.000
    eigenvectors:
  0.000  0.000  0.000  0.000  1.000
  0.643  0.015  0.228  0.113  0.000
  0.015  0.643  0.113  0.228  0.000
  0.021  0.321  0.475  0.183  0.000
  0.321  0.021  0.183  0.475  0.000
    occupations:
  1.000  0.000  0.000  0.000  0.000
  0.000  0.679  0.000  0.090  0.212
  0.000  0.000  0.679  0.212 -0.090
  0.000  0.090  0.212  0.832  0.000
  0.000  0.212 -0.090  0.000  0.832
atom    3   Tr[ns(na)] =   3.82029
    eigenvalues: 
  0.359  0.359  0.383  0.404  0.404
    eigenvectors:
  0.000  0.000  1.000  0.000  0.000
  0.784  0.138  0.000  0.011  0.066
  0.138  0.784  0.000  0.066  0.011
  0.012  0.065  0.000  0.783  0.140
  0.065  0.012  0.000  0.140  0.783
    occupations:
  0.383  0.000  0.000  0.000  0.000
  0.000  0.363  0.000  0.000  0.012
  0.000  0.000  0.363  0.012  0.000
  0.000  0.000  0.012  0.401  0.000
  0.000  0.012  0.000  0.000  0.401
atom    4   Tr[ns(na)] =   3.79224
    eigenvalues: 
  0.356  0.356  0.381  0.402  0.402
    eigenvectors:
  0.000  0.000  1.000  0.000  0.000
  0.782  0.139  0.000  0.012  0.067
  0.139  0.782  0.000  0.067  0.012
  0.012  0.066  0.000  0.781  0.140
  0.066  0.012  0.000  0.140  0.781
    occupations:
  0.381  0.000  0.000  0.000  0.000
  0.000  0.360  0.000  0.000  0.012
  0.000  0.000  0.360  0.012  0.000
  0.000  0.000  0.012  0.398  0.000
  0.000  0.012  0.000  0.000  0.398
atom    5   Tr[ns(na)] =   5.43336
    eigenvalues: 
  0.838  0.930  0.948
    eigenvectors:
  0.337  0.000  0.663
  0.497  0.251  0.252
  0.167  0.749  0.085
    occupations:
  0.911 -0.045  0.026
 -0.045  0.889  0.024
  0.026  0.024  0.917
atom    6   Tr[ns(na)] =   5.43336
    eigenvalues: 
  0.838  0.930  0.948
    eigenvectors:
  0.337  0.000  0.663
  0.498  0.249  0.253
  0.165  0.751  0.084
    occupations:
  0.911  0.045  0.026
  0.045  0.889 -0.024
  0.026 -0.024  0.917
atom    7   Tr[ns(na)] =   5.43336
    eigenvalues: 
  0.838  0.930  0.948
    eigenvectors:
  0.337  0.000  0.663
  0.000  1.000  0.000
  0.663  0.000  0.337
    occupations:
  0.911  0.000 -0.052
  0.000  0.930  0.000
 -0.052  0.000  0.875
atom    8   Tr[ns(na)] =   5.43339
    eigenvalues: 
  0.838  0.931  0.948
    eigenvectors:
  0.337  0.000  0.663
  0.497  0.251  0.252
  0.167  0.749  0.085
    occupations:
  0.911 -0.045  0.026
 -0.045  0.889  0.024
  0.026  0.024  0.917
atom    9   Tr[ns(na)] =   5.43339
    eigenvalues: 
  0.838  0.931  0.948
    eigenvectors:
  0.337  0.000  0.663
  0.498  0.249  0.253
  0.165  0.751  0.084
    occupations:
  0.911  0.045  0.026
  0.045  0.889 -0.024
  0.026 -0.024  0.917
atom   10   Tr[ns(na)] =   5.43339
    eigenvalues: 
  0.838  0.931  0.948
    eigenvectors:
  0.337  0.000  0.663
  0.000  1.000  0.000
  0.663  0.000  0.337
    occupations:
  0.911  0.000 -0.052
  0.000  0.931  0.000
 -0.052  0.000  0.875
N of occupied +U levels =  56.3073356
 --- exit write_ns ---
 --- in v_hubbard ---
Hubbard energy    0.4894
 -------

     total cpu time spent up to now is      211.4 secs

     End of self-consistent calculation

          k = 0.0000 0.0000 0.0000 (  2175 PWs)   bands (ev):

   -19.7821 -19.6015  -6.5627  -5.9084  -5.9084  -5.8586  -5.8586  -5.5232
    -3.9280  -3.3096  -3.3096  -3.2418  -3.0131  -3.0131   5.1426   5.8039
     5.8039   5.8611   6.4779   6.4779   7.2206   7.4957   7.4957   7.6922
     7.6922   7.6952   9.2861   9.6141   9.6141   9.9505   9.9505  10.1285
    10.4434  10.4434  10.5890  10.5890  10.6606  10.8723  11.8028  11.8028
    14.6860  14.6860  15.3915  15.3915  16.1586  16.7469

     occupation numbers 
     0.0313   0.0313   0.0313   0.0313   0.0313   0.0313   0.0313   0.0313
     0.0313   0.0313   0.0313   0.0313   0.0313   0.0313   0.0313   0.0313
     0.0313   0.0313   0.0313   0.0313   0.0313   0.0313   0.0313   0.0313
     0.0313   0.0313   0.0312   0.0312   0.0312   0.0312   0.0312   0.0312
     0.0312   0.0312   0.0311   0.0311   0.0310   0.0297   0.0018   0.0018
     0.0000   0.0000   0.0000   0.0000   0.0000   0.0000

          k =-0.2471-0.1427 0.1027 (  2181 PWs)   bands (ev):

   -19.7610 -19.6480  -6.7419  -6.3375  -5.9990  -5.8882  -5.6437  -5.5153
    -3.6861  -3.4323  -2.9514  -2.9061  -2.8853  -2.7629   5.3160   5.6794
     5.8549   5.9347   6.3915   6.3954   6.7523   6.9938   7.3800   7.4929
     7.5333   7.6791   9.2486   9.4248   9.6787   9.7913   9.8211   9.9245
    10.1528  10.3339  10.3798  10.5443  10.6550  10.7140  12.2430  12.3178
    14.2355  14.2463  15.7813  16.0365  16.9386  17.2347

     occupation numbers 
     0.1875   0.1875   0.1875   0.1875   0.1875   0.1875   0.1875   0.1875
     0.1875   0.1875   0.1875   0.1875   0.1875   0.1875   0.1875   0.1875
     0.1875   0.1875   0.1875   0.1875   0.1875   0.1875   0.1875   0.1875
     0.1875   0.1875   0.1875   0.1875   0.1875   0.1875   0.1875   0.1875
     0.1875   0.1875   0.1874   0.1870   0.1860   0.1849   0.0002   0.0001
     0.0000   0.0000   0.0000   0.0000   0.0000   0.0000

          k = 0.4942 0.2853-0.2053 (  2202 PWs)   bands (ev):

   -19.7421 -19.6930  -6.7587  -6.7281  -6.0007  -5.9937  -5.5517  -5.5471
    -3.4296  -3.4070  -2.8128  -2.8004  -2.5152  -2.4791   5.3991   5.4128
     6.0311   6.0437   6.1776   6.1912   6.7049   6.7111   7.2409   7.2528
     7.3725   7.3885   9.2695   9.2809   9.6469   9.6649   9.8943   9.9119
    10.0269  10.0437  10.3180  10.3318  10.4802  10.4984  13.2233  13.2718
    13.3065  13.3548  16.7846  16.8254  17.0803  17.1199

     occupation numbers 
     0.0938   0.0938   0.0938   0.0938   0.0938   0.0938   0.0938   0.0938
     0.0938   0.0938   0.0938   0.0938   0.0938   0.0938   0.0938   0.0938
     0.0938   0.0938   0.0938   0.0938   0.0938   0.0938   0.0938   0.0938
     0.0938   0.0938   0.0937   0.0937   0.0937   0.0937   0.0937   0.0937
     0.0937   0.0937   0.0937   0.0937   0.0936   0.0936   0.0000   0.0000
     0.0000   0.0000   0.0000   0.0000   0.0000   0.0000

          k =-0.2471 0.1427 0.2053 (  2195 PWs)   bands (ev):

   -19.7558 -19.6643  -6.8644  -6.2763  -6.1056  -5.8772  -5.6843  -5.5018
    -3.4726  -3.2746  -3.1291  -2.9185  -2.8529  -2.5504   5.2488   5.4944
     5.7562   5.9294   6.3854   6.6484   6.9069   7.0014   7.2546   7.4647
     7.6047   7.6502   8.6826   9.2734   9.6404   9.7910   9.9100   9.9186
    10.2204  10.3211  10.4996  10.5264  10.6003  10.6712  11.7431  12.6733
    13.5692  14.7060  15.9586  16.1648  16.9989  17.5146

     occupation numbers 
     0.1875   0.1875   0.1875   0.1875   0.1875   0.1875   0.1875   0.1875
     0.1875   0.1875   0.1875   0.1875   0.1875   0.1875   0.1875   0.1875
     0.1875   0.1875   0.1875   0.1875   0.1875   0.1875   0.1875   0.1875
     0.1875   0.1875   0.1875   0.1875   0.1875   0.1875   0.1875   0.1875
     0.1875   0.1875   0.1872   0.1871   0.1866   0.1857   0.0160   0.0000
     0.0000   0.0000   0.0000   0.0000   0.0000   0.0000

          k = 0.4942 0.5706-0.1027 (  2198 PWs)   bands (ev):

   -19.7515 -19.6965  -6.9708  -6.6720  -6.1498  -5.9176  -5.5453  -5.4143
    -3.3410  -3.2686  -2.8817  -2.7119  -2.5265  -2.3805   5.0558   5.6077
     5.7197   6.0641   6.1611   6.3436   6.4028   6.8601   7.2062   7.3415
     7.6626   7.8125   8.7206   9.0602   9.4054   9.6038   9.6250   9.9463
    10.1401  10.1945  10.2415  10.3481  10.5463  10.7274  12.2367  12.6771
    13.3669  14.2890  16.8741  17.0862  17.2779  17.9864

     occupation numbers 
     0.1875   0.1875   0.1875   0.1875   0.1875   0.1875   0.1875   0.1875
     0.1875   0.1875   0.1875   0.1875   0.1875   0.1875   0.1875   0.1875
     0.1875   0.1875   0.1875   0.1875   0.1875   0.1875   0.1875   0.1875
     0.1875   0.1875   0.1875   0.1875   0.1875   0.1875   0.1875   0.1875
     0.1875   0.1875   0.1875   0.1874   0.1870   0.1845   0.0002   0.0000
     0.0000   0.0000   0.0000   0.0000   0.0000   0.0000

          k = 0.2471 0.4280 0.0000 (  2203 PWs)   bands (ev):

   -19.7511 -19.6856  -6.8642  -6.6739  -6.0778  -6.0044  -5.4703  -5.3984
    -3.5912  -3.3024  -2.8024  -2.7052  -2.5772  -2.5680   5.2281   5.6276
     5.8586   5.9229   6.1854   6.4193   6.5253   6.6948   7.2011   7.3271
     7.3794   8.0138   8.8292   9.2342   9.5777   9.6736   9.7684   9.9911
    10.0883  10.1845  10.2264  10.3381  10.4222  10.8014  12.1410  13.2546
    13.3390  14.0838  16.4003  16.9675  17.3926  17.9019

     occupation numbers 
     0.1875   0.1875   0.1875   0.1875   0.1875   0.1875   0.1875   0.1875
     0.1875   0.1875   0.1875   0.1875   0.1875   0.1875   0.1875   0.1875
     0.1875   0.1875   0.1875   0.1875   0.1875   0.1875   0.1875   0.1875
     0.1875   0.1875   0.1875   0.1875   0.1875   0.1875   0.1875   0.1875
     0.1875   0.1875   0.1875   0.1875   0.1874   0.1820   0.0006   0.0000
     0.0000   0.0000   0.0000   0.0000   0.0000   0.0000

          k = 0.4942-0.2853-0.4107 (  2202 PWs)   bands (ev):

   -19.7627 -19.6985  -7.1745  -6.4603  -6.2460  -6.0203  -5.5582  -5.3199
    -3.2229  -3.1018  -3.0699  -2.6400  -2.4728  -2.2145   4.6347   5.5101
     5.5749   6.0130   6.2333   6.6959   6.7408   6.8995   7.1192   7.2283
     7.6273   8.1340   8.2831   8.5913   9.4032   9.6633   9.9187  10.0173
    10.0480  10.1085  10.1773  10.4594  10.5171  10.8254  11.7032  12.3397
    13.2708  14.7220  17.0129  17.2423  17.4802  17.5977

     occupation numbers 
     0.0938   0.0938   0.0938   0.0938   0.0938   0.0938   0.0938   0.0938
     0.0938   0.0938   0.0938   0.0938   0.0938   0.0938   0.0938   0.0938
     0.0938   0.0938   0.0938   0.0938   0.0938   0.0938   0.0938   0.0938
     0.0938   0.0938   0.0938   0.0938   0.0937   0.0937   0.0937   0.0937
     0.0937   0.0937   0.0937   0.0937   0.0936   0.0904   0.0102   0.0000
     0.0000   0.0000   0.0000   0.0000   0.0000   0.0000

          k = 0.0000 0.0000 0.3080 (  2187 PWs)   bands (ev):

   -19.7608 -19.6506  -6.6295  -6.0298  -5.9906  -5.9804  -5.8744  -5.8708
    -3.2468  -3.1921  -3.1680  -2.9686  -2.9048  -2.8841   5.5088   5.6177
     5.8540   5.8602   6.4248   6.4266   6.7225   7.3605   7.3624   7.5083
     7.5254   7.5299   9.3690   9.3701   9.4278   9.6579  10.0241  10.0278
    10.0502  10.0527  10.4100  10.5770  10.6418  10.6420  12.2131  12.2139
    14.1948  14.1976  15.8733  15.8813  16.8413  17.4481

     occupation numbers 
     0.0625   0.0625   0.0625   0.0625   0.0625   0.0625   0.0625   0.0625
     0.0625   0.0625   0.0625   0.0625   0.0625   0.0625   0.0625   0.0625
     0.0625   0.0625   0.0625   0.0625   0.0625   0.0625   0.0625   0.0625
     0.0625   0.0625   0.0625   0.0625   0.0625   0.0625   0.0625   0.0625
     0.0625   0.0625   0.0625   0.0623   0.0620   0.0620   0.0001   0.0001
     0.0000   0.0000   0.0000   0.0000   0.0000   0.0000

          k = 0.7412 0.4280 0.0000 (  2204 PWs)   bands (ev):

   -19.7510 -19.6882  -6.7503  -6.6388  -6.1647  -5.8605  -5.7263  -5.5786
    -3.2253  -3.1080  -3.0414  -2.6862  -2.6602  -2.5831   5.3034   5.6824
     5.7560   6.0760   6.0946   6.5420   6.5564   6.7118   7.2625   7.3251
     7.4372   7.8397   8.8149   9.3056   9.3580   9.6276   9.7966   9.9624
    10.1276  10.2062  10.3383  10.3474  10.3692  10.5283  12.1375  13.1741
    13.2546  14.1139  16.6515  16.6985  17.5618  17.7725

     occupation numbers 
     0.1875   0.1875   0.1875   0.1875   0.1875   0.1875   0.1875   0.1875
     0.1875   0.1875   0.1875   0.1875   0.1875   0.1875   0.1875   0.1875
     0.1875   0.1875   0.1875   0.1875   0.1875   0.1875   0.1875   0.1875
     0.1875   0.1875   0.1875   0.1875   0.1875   0.1875   0.1875   0.1875
     0.1875   0.1875   0.1875   0.1875   0.1874   0.1871   0.0006   0.0000
     0.0000   0.0000   0.0000   0.0000   0.0000   0.0000

          k = 0.4942 0.2853 0.1027 (  2211 PWs)   bands (ev):

   -19.7517 -19.6963  -6.9873  -6.5693  -6.3427  -5.7347  -5.6467  -5.3862
    -3.3560  -3.1676  -3.0554  -2.5990  -2.5631  -2.3710   5.0688   5.6185
     5.7268   5.9043   6.1564   6.4485   6.5622   6.7348   7.2003   7.2234
     7.7755   7.8225   8.6818   9.2129   9.2875   9.5438   9.7702   9.8462
    10.1508  10.2098  10.3516  10.4358  10.4954  10.5695  12.1928  12.6900
    13.4145  14.2707  16.8529  16.9089  17.5497  17.8971

     occupation numbers 
     0.1875   0.1875   0.1875   0.1875   0.1875   0.1875   0.1875   0.1875
     0.1875   0.1875   0.1875   0.1875   0.1875   0.1875   0.1875   0.1875
     0.1875   0.1875   0.1875   0.1875   0.1875   0.1875   0.1875   0.1875
     0.1875   0.1875   0.1875   0.1875   0.1875   0.1875   0.1875   0.1875
     0.1875   0.1875   0.1874   0.1874   0.1872   0.1868   0.0003   0.0000
     0.0000   0.0000   0.0000   0.0000   0.0000   0.0000

          k = 0.7412-0.4280-0.3080 (  2210 PWs)   bands (ev):

   -19.7528 -19.6978  -6.9241  -6.4821  -6.3205  -5.8202  -5.7950  -5.5197
    -3.0879  -3.0674  -2.9684  -2.7329  -2.6261  -2.4230   5.1086   5.6995
     5.7931   5.9294   6.1526   6.3954   6.5514   6.8092   7.2538   7.2631
     7.7373   7.8099   8.6431   9.1469   9.3367   9.4360   9.6150   9.9628
    10.0975  10.1767  10.2382  10.4098  10.5265  10.5840  12.1532  12.6447
    13.3637  14.2405  17.0315  17.0401  17.5178  17.8700

     occupation numbers 
     0.1875   0.1875   0.1875   0.1875   0.1875   0.1875   0.1875   0.1875
     0.1875   0.1875   0.1875   0.1875   0.1875   0.1875   0.1875   0.1875
     0.1875   0.1875   0.1875   0.1875   0.1875   0.1875   0.1875   0.1875
     0.1875   0.1875   0.1875   0.1875   0.1875   0.1875   0.1875   0.1875
     0.1875   0.1875   0.1875   0.1874   0.1871   0.1867   0.0005   0.0000
     0.0000   0.0000   0.0000   0.0000   0.0000   0.0000

          k = 0.4942-0.5706-0.2053 (  2206 PWs)   bands (ev):

   -19.7586 -19.7009  -6.9044  -6.8932  -6.0551  -6.0502  -5.4583  -5.4558
    -3.1663  -3.1503  -2.8384  -2.8109  -2.3778  -2.3732   5.3256   5.3361
     5.6897   5.6981   6.2779   6.2856   6.5827   6.5913   7.2158   7.2231
     8.0198   8.0254   8.7252   8.7395   9.3658   9.3693   9.8187   9.8276
    10.1108  10.1196  10.2540  10.2615  10.5955  10.6007  12.1943  12.2007
    13.9364  13.9483  17.3962  17.3995  17.8469  17.8499

     occupation numbers 
     0.1875   0.1875   0.1875   0.1875   0.1875   0.1875   0.1875   0.1875
     0.1875   0.1875   0.1875   0.1875   0.1875   0.1875   0.1875   0.1875
     0.1875   0.1875   0.1875   0.1875   0.1875   0.1875   0.1875   0.1875
     0.1875   0.1875   0.1875   0.1875   0.1875   0.1875   0.1875   0.1875
     0.1875   0.1875   0.1875   0.1875   0.1866   0.1866   0.0003   0.0003
     0.0000   0.0000   0.0000   0.0000   0.0000   0.0000

          k = 0.0000 0.0000-0.6160 (  2186 PWs)   bands (ev):

   -19.7446 -19.6955  -6.5510  -6.5152  -5.9872  -5.9872  -5.9614  -5.9614
    -2.9297  -2.9297  -2.8948  -2.8948  -2.7149  -2.6738   5.5921   5.6050
     6.0941   6.0941   6.1091   6.1091   6.7262   6.7358   7.3275   7.3275
     7.3401   7.3401   9.4645   9.4645   9.4781   9.4781   9.5312   9.5454
    10.1785  10.1981  10.3221  10.3221  10.3417  10.3417  13.1613  13.1613
    13.2091  13.2091  17.0676  17.0676  17.1099  17.1099

     occupation numbers 
     0.0313   0.0313   0.0313   0.0313   0.0313   0.0313   0.0313   0.0313
     0.0313   0.0313   0.0313   0.0313   0.0313   0.0313   0.0313   0.0313
     0.0313   0.0313   0.0313   0.0313   0.0313   0.0313   0.0313   0.0313
     0.0313   0.0313   0.0312   0.0312   0.0312   0.0312   0.0312   0.0312
     0.0312   0.0312   0.0312   0.0312   0.0312   0.0312   0.0000   0.0000
     0.0000   0.0000   0.0000   0.0000   0.0000   0.0000

          k = 0.4942-0.5706 0.1027 (  2198 PWs)   bands (ev):

   -19.7515 -19.6965  -6.9712  -6.6712  -6.1508  -5.9165  -5.5463  -5.4136
    -3.3417  -3.2686  -2.8819  -2.7109  -2.5271  -2.3802   5.0548   5.6107
     5.7160   6.0619   6.1640   6.3413   6.4072   6.8600   7.2091   7.3370
     7.6602   7.8169   8.7214   9.0594   9.4038   9.5991   9.6271   9.9448
    10.1419  10.1993  10.2362  10.3501  10.5501  10.7252  12.2365  12.6768
    13.3668  14.2887  16.8760  17.0833  17.2785  17.9869

     occupation numbers 
     0.1875   0.1875   0.1875   0.1875   0.1875   0.1875   0.1875   0.1875
     0.1875   0.1875   0.1875   0.1875   0.1875   0.1875   0.1875   0.1875
     0.1875   0.1875   0.1875   0.1875   0.1875   0.1875   0.1875   0.1875
     0.1875   0.1875   0.1875   0.1875   0.1875   0.1875   0.1875   0.1875
     0.1875   0.1875   0.1875   0.1874   0.1870   0.1846   0.0002   0.0000
     0.0000   0.0000   0.0000   0.0000   0.0000   0.0000

     the Fermi energy is    11.3475 ev

!    total energy              =    -537.80214977 Ry
     Harris-Foulkes estimate   =    -537.80214286 Ry
     estimated scf accuracy    <          1.9E-09 Ry

     The total energy is the sum of the following terms:

     one-electron contribution =     -32.85079343 Ry
     hartree contribution      =      83.62137493 Ry
     xc contribution           =    -199.61577671 Ry
     ewald contribution        =    -389.44315552 Ry
     Hubbard energy            =       0.48942306 Ry
     smearing contrib. (-TS)   =      -0.00322209 Ry

     convergence has been achieved in  15 iterations

     init_run     :      7.00s CPU      7.06s WALL (       1 calls)
     electrons    :    202.37s CPU    203.88s WALL (       1 calls)

     Called by init_run:
     wfcinit      :      0.00s CPU      0.00s WALL (       1 calls)
     potinit      :      0.26s CPU      0.28s WALL (       1 calls)

     Called by electrons:
     c_bands      :    130.99s CPU    131.66s WALL (      15 calls)
     sum_band     :     40.93s CPU     41.21s WALL (      15 calls)
     v_of_rho     :      3.89s CPU      3.91s WALL (      16 calls)
     v_h          :      0.20s CPU      0.20s WALL (      16 calls)
     v_xc         :      3.69s CPU      3.70s WALL (      16 calls)
     newd         :     27.25s CPU     27.38s WALL (      16 calls)
     mix_rho      :      0.39s CPU      0.40s WALL (      15 calls)

     Called by c_bands:
     init_us_2    :      1.40s CPU      1.41s WALL (     420 calls)
     cegterg      :    127.04s CPU    127.51s WALL (     210 calls)

     Called by sum_band:
     sum_band:bec :      0.16s CPU      0.16s WALL (     210 calls)
     addusdens    :     18.64s CPU     18.68s WALL (      15 calls)

     Called by *egterg:
     h_psi        :     94.81s CPU     95.21s WALL (     785 calls)
     s_psi        :      5.19s CPU      5.20s WALL (     785 calls)
     g_psi        :      0.47s CPU      0.50s WALL (     575 calls)
     cdiaghg      :      8.43s CPU      8.45s WALL (     771 calls)
     cegterg:over :      6.92s CPU      6.96s WALL (     575 calls)
     cegterg:upda :      3.75s CPU      3.74s WALL (     575 calls)
     cegterg:last :      2.70s CPU      2.71s WALL (     237 calls)

     Called by h_psi:
     h_psi:vloc   :     76.03s CPU     76.38s WALL (     785 calls)
     h_psi:vnl    :     11.47s CPU     11.49s WALL (     785 calls)
     add_vuspsi   :      5.21s CPU      5.21s WALL (     785 calls)
     vhpsi        :      7.12s CPU      7.16s WALL (     785 calls)

     General routines
     calbec       :     13.99s CPU     14.06s WALL (    1990 calls)
     fft          :      3.58s CPU      3.64s WALL (     251 calls)
     ffts         :      0.08s CPU      0.08s WALL (      31 calls)
     fftw         :     78.62s CPU     78.94s WALL (   59498 calls)
     interpolate  :      0.42s CPU      0.43s WALL (      31 calls)
     davcio       :      0.00s CPU      0.32s WALL (     434 calls)

     Parallel routines
     fft_scatter  :     22.40s CPU     22.80s WALL (   59780 calls)
     Hubbard U routines
     new_ns       :      1.32s CPU      1.46s WALL (      15 calls)
     vhpsi        :      7.12s CPU      7.16s WALL (     785 calls)

     PWSCF        :  3m29.82s CPU     3m31.41s WALL


   This run was terminated on:   5:30:30  13Nov2012            

=------------------------------------------------------------------------------=
