 
Job started on n9 at Tue Nov 13 11:48:34 EST 2012

     Program PWSCF v.5.0.1 starts on 13Nov2012 at 11:48:36 

     This program is part of the open-source Quantum ESPRESSO suite
     for quantum simulation of materials; please cite
         "P. Giannozzi et al., J. Phys.:Condens. Matter 21 395502 (2009);
          URL http://www.quantum-espresso.org", 
     in publications or presentations arising from this work. More details at
     http://www.quantum-espresso.org/quote.php

     Parallel version (MPI), running on     2 processors
     R & G space division:  proc/pool =    2

     Current dimensions of program PWSCF are:
     Max number of different atomic species (ntypx) = 10
     Max number of k-points (npk) =  40000
     Max angular momentum in pseudopotentials (lmaxx) =  3
     Reading input from CoLaO_U0_init.in
               file Co.pbe-nd-rrkjus.UPF: wavefunction(s)  4S 3D renormalized
               file O.pbe-rrkjus.UPF: wavefunction(s)  2S renormalized

     Subspace diagonalization in iterative solution of the eigenvalue problem:
     a serial algorithm will be used


     Parallelization info
     --------------------
     sticks:   dense  smooth     PW     G-vecs:    dense   smooth      PW
     Min        1112     444    131                34808     8786    1448
     Max        1113     445    132                34809     8787    1449
     Sum        2225     889    263                69617    17573    2897


     Title: 
     GGA + U, U = 1D-40, init                                                   


     bravais-lattice index     =            5
     lattice parameter (alat)  =      10.3292  a.u.
     unit-cell volume          =     793.0599 (a.u.)^3
     number of atoms/cell      =           10
     number of atomic types    =            4
     number of electrons       =        76.00
     number of Kohn-Sham states=           46
     kinetic-energy cutoff     =      30.0000  Ry
     charge density cutoff     =     300.0000  Ry
     convergence threshold     =      1.0E-08
     mixing beta               =       0.2000
     number of iterations used =            8  plain     mixing
     Exchange-correlation      =  SLA  PW   PBE  PBE ( 1 4 3 4 0)
     EXX-fraction              =        0.00

     celldm(1)=  10.329242  celldm(2)=   0.000000  celldm(3)=   0.000000
     celldm(4)=   0.488100  celldm(5)=   0.000000  celldm(6)=   0.000000

     crystal axes: (cart. coord. in units of alat)
               a(1) = (   0.505915  -0.292090   0.811624 )  
               a(2) = (   0.000000   0.584180   0.811624 )  
               a(3) = (  -0.505915  -0.292090   0.811624 )  

     reciprocal axes: (cart. coord. in units 2 pi/alat)
               b(1) = (  0.988308 -0.570600  0.410699 )  
               b(2) = (  0.000000  1.141200  0.410699 )  
               b(3) = ( -0.988308 -0.570600  0.410699 )  


     PseudoPot. # 1 for Co read from file:
     /home/mcurnan/dft-course/Project1/example_LaCoO3/Co.pbe-nd-rrkjus.UPF
     MD5 check sum: 3e47a84addf5e975e0edeaeee2a73f59
     Pseudo is Ultrasoft + core correction, Zval =  9.0
     Generated by new atomic code, or converted to UPF format
     Using radial grid of  961 points,  6 beta functions with: 
                l(1) =   0
                l(2) =   0
                l(3) =   1
                l(4) =   1
                l(5) =   2
                l(6) =   2
     Q(r) pseudized with 0 coefficients 


     PseudoPot. # 2 for La read from file:
     /home/mcurnan/dft-course/Project1/example_LaCoO3/La.pbe-nsp-van.UPF
     MD5 check sum: b2f11743f52dde65f77d1302becd7929
     Pseudo is Ultrasoft + core correction, Zval = 11.0
     Generated by new atomic code, or converted to UPF format
     Using radial grid of  907 points,  6 beta functions with: 
                l(1) =   0
                l(2) =   0
                l(3) =   1
                l(4) =   1
                l(5) =   2
                l(6) =   2
     Q(r) pseudized with  6 coefficients,  rinner =    1.200   1.200   1.200
                                                       1.200   1.200

     PseudoPot. # 3 for La read from file:
     /home/mcurnan/dft-course/Project1/example_LaCoO3/La.pbe-nsp-van.UPF
     MD5 check sum: b2f11743f52dde65f77d1302becd7929
     Pseudo is Ultrasoft + core correction, Zval = 11.0
     Generated by new atomic code, or converted to UPF format
     Using radial grid of  907 points,  6 beta functions with: 
                l(1) =   0
                l(2) =   0
                l(3) =   1
                l(4) =   1
                l(5) =   2
                l(6) =   2
     Q(r) pseudized with  6 coefficients,  rinner =    1.200   1.200   1.200
                                                       1.200   1.200

     PseudoPot. # 4 for O  read from file:
     /home/mcurnan/dft-course/Project1/example_LaCoO3/O.pbe-rrkjus.UPF
     MD5 check sum: 390ba29e75625707450f3bd3f0eb6be9
     Pseudo is Ultrasoft, Zval =  6.0
     Generated by new atomic code, or converted to UPF format
     Using radial grid of 1269 points,  4 beta functions with: 
                l(1) =   0
                l(2) =   0
                l(3) =   1
                l(4) =   1
     Q(r) pseudized with 0 coefficients 


     atomic species   valence    mass     pseudopotential
        Co1            9.00     1.00000     Co( 1.00)
        La1           11.00     1.00000     La( 1.00)
        La2           11.00     1.00000     La( 1.00)
        O1             6.00     1.00000     O ( 1.00)

     Starting magnetic structure 
     atomic species   magnetization
        Co1          1.000
        La1          0.000
        La2          0.000
        O1           0.000
 -----
     simplified LDA+U calculation, Hubbard_lmax = 2
     atomic species  L   Hubbard U  Hubbard alpha
        Co1          2    0.000000    0.000000
        La1          2    0.000000    0.000000
        La2          2    0.000000    0.000000
        O1           1    0.000000    0.000000
 -----

      3 Sym. Ops. (no inversion) found


                                    s                        frac. trans.

      isym =  1     identity                                     

 cryst.   s( 1) = (     1          0          0      )
                  (     0          1          0      )
                  (     0          0          1      )

 cart.    s( 1) = (  1.0000000  0.0000000  0.0000000 )
                  (  0.0000000  1.0000000  0.0000000 )
                  (  0.0000000  0.0000000  1.0000000 )


      isym =  2     120 deg rotation - cryst. axis [0,0,1]       

 cryst.   s( 2) = (     0          1          0      )
                  (     0          0          1      )
                  (     1          0          0      )

 cart.    s( 2) = ( -0.5000000 -0.8660254  0.0000000 )
                  (  0.8660254 -0.5000000  0.0000000 )
                  (  0.0000000  0.0000000  1.0000000 )


      isym =  3     120 deg rotation - cryst. axis [0,0,-1]      

 cryst.   s( 3) = (     0          0          1      )
                  (     1          0          0      )
                  (     0          1          0      )

 cart.    s( 3) = ( -0.5000000  0.8660254  0.0000000 )
                  ( -0.8660254 -0.5000000  0.0000000 )
                  (  0.0000000  0.0000000  1.0000000 )


     point group C_3 (3)    
     there are  3 classes
     the character table:

       E     C3    C3^2 
A      1.00  1.00  1.00
E      1.00 -0.50 -0.50
E*     1.00 -0.50 -0.50
     imaginary part
A      0.00  0.00  0.00
E      0.00  0.87 -0.87
E*     0.00 -0.87  0.87

     the symmetry operations in each class:
     E        1
     C3       2
     C3^2     3

   Cartesian axes

     site n.     atom                  positions (alat units)
         1           Co1 tau(   1) = (   0.0000000   0.0000000   1.8261537  )
         2           Co1 tau(   2) = (   0.0000000   0.0000000   0.6087179  )
         3           La1 tau(   3) = (   0.0000000   0.0000000   0.0000000  )
         4           La2 tau(   4) = (   0.0000000   0.0000000   1.2174358  )
         5           O1  tau(   5) = (   0.2831100  -0.0928263   1.6236536  )
         6           O1  tau(   6) = (  -0.2219449  -0.1987674   1.6236536  )
         7           O1  tau(   7) = (  -0.0611651   0.2915936   1.6236536  )
         8           O1  tau(   8) = (   0.2228050   0.3849164   1.2170300  )
         9           O1  tau(   9) = (   0.2219449  -0.3854130   1.2170300  )
        10           O1  tau(  10) = (  -0.4447499   0.0004966   1.2170300  )

   Crystallographic axes

     site n.     atom                  positions (cryst. coord.)
         1           Co1 tau(   1) = (  0.7500000  0.7500000  0.7500000  )
         2           Co1 tau(   2) = (  0.2500000  0.2500000  0.2500000  )
         3           La1 tau(   3) = (  0.0000000  0.0000000  0.0000000  )
         4           La2 tau(   4) = (  0.5000000  0.5000000  0.5000000  )
         5           O1  tau(   5) = (  0.9996000  0.5609000  0.4400000  )
         6           O1  tau(   6) = (  0.5609000  0.4400000  0.9996000  )
         7           O1  tau(   7) = (  0.4400000  0.9996000  0.5609000  )
         8           O1  tau(   8) = (  0.5004000  0.9391000  0.0600000  )
         9           O1  tau(   9) = (  0.9391000  0.0600000  0.5004000  )
        10           O1  tau(  10) = (  0.0600000  0.5004000  0.9391000  )

     number of k points=    28  gaussian smearing, width (Ry)=  0.0300
                       cart. coord. in units 2pi/alat
        k(    1) = (   0.0000000   0.0000000   0.0000000), wk =   0.0156250
        k(    2) = (  -0.2470771  -0.1426500   0.1026748), wk =   0.0937500
        k(    3) = (   0.4941541   0.2853000  -0.2053496), wk =   0.0468750
        k(    4) = (  -0.2470771   0.1426500   0.2053496), wk =   0.0937500
        k(    5) = (   0.4941541   0.5706001  -0.1026748), wk =   0.0937500
        k(    6) = (   0.2470771   0.4279500   0.0000000), wk =   0.0937500
        k(    7) = (   0.4941541  -0.2853000  -0.4106993), wk =   0.0468750
        k(    8) = (   0.0000000   0.0000000   0.3080244), wk =   0.0312500
        k(    9) = (   0.7412312   0.4279500   0.0000000), wk =   0.0937500
        k(   10) = (   0.4941541   0.2853000   0.1026748), wk =   0.0937500
        k(   11) = (   0.7412312  -0.4279500  -0.3080244), wk =   0.0937500
        k(   12) = (   0.4941541  -0.5706001  -0.2053496), wk =   0.0937500
        k(   13) = (   0.0000000   0.0000000  -0.6160489), wk =   0.0156250
        k(   14) = (   0.4941541  -0.5706001   0.1026748), wk =   0.0937500
        k(   15) = (   0.0000000   0.0000000   0.0000000), wk =   0.0156250
        k(   16) = (  -0.2470771  -0.1426500   0.1026748), wk =   0.0937500
        k(   17) = (   0.4941541   0.2853000  -0.2053496), wk =   0.0468750
        k(   18) = (  -0.2470771   0.1426500   0.2053496), wk =   0.0937500
        k(   19) = (   0.4941541   0.5706001  -0.1026748), wk =   0.0937500
        k(   20) = (   0.2470771   0.4279500   0.0000000), wk =   0.0937500
        k(   21) = (   0.4941541  -0.2853000  -0.4106993), wk =   0.0468750
        k(   22) = (   0.0000000   0.0000000   0.3080244), wk =   0.0312500
        k(   23) = (   0.7412312   0.4279500   0.0000000), wk =   0.0937500
        k(   24) = (   0.4941541   0.2853000   0.1026748), wk =   0.0937500
        k(   25) = (   0.7412312  -0.4279500  -0.3080244), wk =   0.0937500
        k(   26) = (   0.4941541  -0.5706001  -0.2053496), wk =   0.0937500
        k(   27) = (   0.0000000   0.0000000  -0.6160489), wk =   0.0156250
        k(   28) = (   0.4941541  -0.5706001   0.1026748), wk =   0.0937500

                       cryst. coord.
        k(    1) = (   0.0000000   0.0000000   0.0000000), wk =   0.0156250
        k(    2) = (   0.0000000   0.0000000   0.2500000), wk =   0.0937500
        k(    3) = (   0.0000000   0.0000000  -0.5000000), wk =   0.0468750
        k(    4) = (   0.0000000   0.2500000   0.2500000), wk =   0.0937500
        k(    5) = (   0.0000000   0.2500000  -0.5000000), wk =   0.0937500
        k(    6) = (   0.0000000   0.2500000  -0.2500000), wk =   0.0937500
        k(    7) = (   0.0000000  -0.5000000  -0.5000000), wk =   0.0468750
        k(    8) = (   0.2500000   0.2500000   0.2500000), wk =   0.0312500
        k(    9) = (   0.2500000   0.2500000  -0.5000000), wk =   0.0937500
        k(   10) = (   0.2500000   0.2500000  -0.2500000), wk =   0.0937500
        k(   11) = (   0.2500000  -0.5000000  -0.5000000), wk =   0.0937500
        k(   12) = (   0.2500000  -0.5000000  -0.2500000), wk =   0.0937500
        k(   13) = (  -0.5000000  -0.5000000  -0.5000000), wk =   0.0156250
        k(   14) = (   0.5000000  -0.2500000   0.0000000), wk =   0.0937500
        k(   15) = (   0.0000000   0.0000000   0.0000000), wk =   0.0156250
        k(   16) = (   0.0000000   0.0000000   0.2500000), wk =   0.0937500
        k(   17) = (   0.0000000   0.0000000  -0.5000000), wk =   0.0468750
        k(   18) = (   0.0000000   0.2500000   0.2500000), wk =   0.0937500
        k(   19) = (   0.0000000   0.2500000  -0.5000000), wk =   0.0937500
        k(   20) = (   0.0000000   0.2500000  -0.2500000), wk =   0.0937500
        k(   21) = (   0.0000000  -0.5000000  -0.5000000), wk =   0.0468750
        k(   22) = (   0.2500000   0.2500000   0.2500000), wk =   0.0312500
        k(   23) = (   0.2500000   0.2500000  -0.5000000), wk =   0.0937500
        k(   24) = (   0.2500000   0.2500000  -0.2500000), wk =   0.0937500
        k(   25) = (   0.2500000  -0.5000000  -0.5000000), wk =   0.0937500
        k(   26) = (   0.2500000  -0.5000000  -0.2500000), wk =   0.0937500
        k(   27) = (  -0.5000000  -0.5000000  -0.5000000), wk =   0.0156250
        k(   28) = (   0.5000000  -0.2500000   0.0000000), wk =   0.0937500

     Dense  grid:    69617 G-vectors     FFT dimensions: (  60,  60,  60)

     Smooth grid:    17573 G-vectors     FFT dimensions: (  40,  40,  40)

     Largest allocated arrays     est. size (Mb)     dimensions
        Kohn-Sham Wavefunctions         0.78 Mb     (   1117,   46)
        Atomic wavefunctions            1.06 Mb     (   1117,   62)
        NL pseudopotentials             2.05 Mb     (   1117,  120)
        Each V/rho on FFT grid          3.30 Mb     ( 108000,   2)
        Each G-vector array             0.27 Mb     (  34808)
        G-vector shells                 0.04 Mb     (   4682)
     Largest temporary arrays     est. size (Mb)     dimensions
        Auxiliary wavefunctions         3.14 Mb     (   1117,  184)
        Each subspace H/S matrix        0.52 Mb     ( 184, 184)
        Each <psi_i|beta_j> matrix      0.08 Mb     (    120,   46)
        Arrays for rho mixing          13.18 Mb     ( 108000,   8)

     Check: negative/imaginary core charge=   -0.000028    0.000000

     Initial potential from superposition of free atoms

     starting charge   75.93482, renormalised to   76.00000
 --- in v_hubbard ---
Hubbard energy    0.0000
 -------
     Number of +U iterations with fixed ns =  0
     Starting occupations:
 --- enter write_ns ---
 LDA+U parameters:
U( 1)     =  0.00000000
alpha( 1) =  0.00000000
U( 2)     =  0.00000000
alpha( 2) =  0.00000000
U( 3)     =  0.00000000
alpha( 3) =  0.00000000
U( 4)     =  0.00000000
alpha( 4) =  0.00000000
atom    1   Tr[ns(na)] (up, down, total) =   5.00000  2.00000  7.00000
   spin  1
    eigenvalues: 
  1.000  1.000  1.000  1.000  1.000
    eigenvectors:
  1.000  0.000  0.000  0.000  0.000
  0.000  1.000  0.000  0.000  0.000
  0.000  0.000  1.000  0.000  0.000
  0.000  0.000  0.000  1.000  0.000
  0.000  0.000  0.000  0.000  1.000
    occupations:
  1.000  0.000  0.000  0.000  0.000
  0.000  1.000  0.000  0.000  0.000
  0.000  0.000  1.000  0.000  0.000
  0.000  0.000  0.000  1.000  0.000
  0.000  0.000  0.000  0.000  1.000
   spin  2
    eigenvalues: 
  0.400  0.400  0.400  0.400  0.400
    eigenvectors:
  1.000  0.000  0.000  0.000  0.000
  0.000  1.000  0.000  0.000  0.000
  0.000  0.000  1.000  0.000  0.000
  0.000  0.000  0.000  1.000  0.000
  0.000  0.000  0.000  0.000  1.000
    occupations:
  0.400  0.000  0.000  0.000  0.000
  0.000  0.400  0.000  0.000  0.000
  0.000  0.000  0.400  0.000  0.000
  0.000  0.000  0.000  0.400  0.000
  0.000  0.000  0.000  0.000  0.400
atomic mag. moment =     3.000000
atom    2   Tr[ns(na)] (up, down, total) =   5.00000  2.00000  7.00000
   spin  1
    eigenvalues: 
  1.000  1.000  1.000  1.000  1.000
    eigenvectors:
  1.000  0.000  0.000  0.000  0.000
  0.000  1.000  0.000  0.000  0.000
  0.000  0.000  1.000  0.000  0.000
  0.000  0.000  0.000  1.000  0.000
  0.000  0.000  0.000  0.000  1.000
    occupations:
  1.000  0.000  0.000  0.000  0.000
  0.000  1.000  0.000  0.000  0.000
  0.000  0.000  1.000  0.000  0.000
  0.000  0.000  0.000  1.000  0.000
  0.000  0.000  0.000  0.000  1.000
   spin  2
    eigenvalues: 
  0.400  0.400  0.400  0.400  0.400
    eigenvectors:
  1.000  0.000  0.000  0.000  0.000
  0.000  1.000  0.000  0.000  0.000
  0.000  0.000  1.000  0.000  0.000
  0.000  0.000  0.000  1.000  0.000
  0.000  0.000  0.000  0.000  1.000
    occupations:
  0.400  0.000  0.000  0.000  0.000
  0.000  0.400  0.000  0.000  0.000
  0.000  0.000  0.400  0.000  0.000
  0.000  0.000  0.000  0.400  0.000
  0.000  0.000  0.000  0.000  0.400
atomic mag. moment =     3.000000
atom    3   Tr[ns(na)] (up, down, total) =   0.50000  0.50000  1.00000
   spin  1
    eigenvalues: 
  0.100  0.100  0.100  0.100  0.100
    eigenvectors:
  1.000  0.000  0.000  0.000  0.000
  0.000  1.000  0.000  0.000  0.000
  0.000  0.000  1.000  0.000  0.000
  0.000  0.000  0.000  1.000  0.000
  0.000  0.000  0.000  0.000  1.000
    occupations:
  0.100  0.000  0.000  0.000  0.000
  0.000  0.100  0.000  0.000  0.000
  0.000  0.000  0.100  0.000  0.000
  0.000  0.000  0.000  0.100  0.000
  0.000  0.000  0.000  0.000  0.100
   spin  2
    eigenvalues: 
  0.100  0.100  0.100  0.100  0.100
    eigenvectors:
  1.000  0.000  0.000  0.000  0.000
  0.000  1.000  0.000  0.000  0.000
  0.000  0.000  1.000  0.000  0.000
  0.000  0.000  0.000  1.000  0.000
  0.000  0.000  0.000  0.000  1.000
    occupations:
  0.100  0.000  0.000  0.000  0.000
  0.000  0.100  0.000  0.000  0.000
  0.000  0.000  0.100  0.000  0.000
  0.000  0.000  0.000  0.100  0.000
  0.000  0.000  0.000  0.000  0.100
atomic mag. moment =     0.000000
atom    4   Tr[ns(na)] (up, down, total) =   0.50000  0.50000  1.00000
   spin  1
    eigenvalues: 
  0.100  0.100  0.100  0.100  0.100
    eigenvectors:
  1.000  0.000  0.000  0.000  0.000
  0.000  1.000  0.000  0.000  0.000
  0.000  0.000  1.000  0.000  0.000
  0.000  0.000  0.000  1.000  0.000
  0.000  0.000  0.000  0.000  1.000
    occupations:
  0.100  0.000  0.000  0.000  0.000
  0.000  0.100  0.000  0.000  0.000
  0.000  0.000  0.100  0.000  0.000
  0.000  0.000  0.000  0.100  0.000
  0.000  0.000  0.000  0.000  0.100
   spin  2
    eigenvalues: 
  0.100  0.100  0.100  0.100  0.100
    eigenvectors:
  1.000  0.000  0.000  0.000  0.000
  0.000  1.000  0.000  0.000  0.000
  0.000  0.000  1.000  0.000  0.000
  0.000  0.000  0.000  1.000  0.000
  0.000  0.000  0.000  0.000  1.000
    occupations:
  0.100  0.000  0.000  0.000  0.000
  0.000  0.100  0.000  0.000  0.000
  0.000  0.000  0.100  0.000  0.000
  0.000  0.000  0.000  0.100  0.000
  0.000  0.000  0.000  0.000  0.100
atomic mag. moment =     0.000000
atom    5   Tr[ns(na)] (up, down, total) =   2.00000  2.00000  4.00000
   spin  1
    eigenvalues: 
  0.667  0.667  0.667
    eigenvectors:
  1.000  0.000  0.000
  0.000  1.000  0.000
  0.000  0.000  1.000
    occupations:
  0.667  0.000  0.000
  0.000  0.667  0.000
  0.000  0.000  0.667
   spin  2
    eigenvalues: 
  0.667  0.667  0.667
    eigenvectors:
  1.000  0.000  0.000
  0.000  1.000  0.000
  0.000  0.000  1.000
    occupations:
  0.667  0.000  0.000
  0.000  0.667  0.000
  0.000  0.000  0.667
atomic mag. moment =     0.000000
atom    6   Tr[ns(na)] (up, down, total) =   2.00000  2.00000  4.00000
   spin  1
    eigenvalues: 
  0.667  0.667  0.667
    eigenvectors:
  1.000  0.000  0.000
  0.000  1.000  0.000
  0.000  0.000  1.000
    occupations:
  0.667  0.000  0.000
  0.000  0.667  0.000
  0.000  0.000  0.667
   spin  2
    eigenvalues: 
  0.667  0.667  0.667
    eigenvectors:
  1.000  0.000  0.000
  0.000  1.000  0.000
  0.000  0.000  1.000
    occupations:
  0.667  0.000  0.000
  0.000  0.667  0.000
  0.000  0.000  0.667
atomic mag. moment =     0.000000
atom    7   Tr[ns(na)] (up, down, total) =   2.00000  2.00000  4.00000
   spin  1
    eigenvalues: 
  0.667  0.667  0.667
    eigenvectors:
  1.000  0.000  0.000
  0.000  1.000  0.000
  0.000  0.000  1.000
    occupations:
  0.667  0.000  0.000
  0.000  0.667  0.000
  0.000  0.000  0.667
   spin  2
    eigenvalues: 
  0.667  0.667  0.667
    eigenvectors:
  1.000  0.000  0.000
  0.000  1.000  0.000
  0.000  0.000  1.000
    occupations:
  0.667  0.000  0.000
  0.000  0.667  0.000
  0.000  0.000  0.667
atomic mag. moment =     0.000000
atom    8   Tr[ns(na)] (up, down, total) =   2.00000  2.00000  4.00000
   spin  1
    eigenvalues: 
  0.667  0.667  0.667
    eigenvectors:
  1.000  0.000  0.000
  0.000  1.000  0.000
  0.000  0.000  1.000
    occupations:
  0.667  0.000  0.000
  0.000  0.667  0.000
  0.000  0.000  0.667
   spin  2
    eigenvalues: 
  0.667  0.667  0.667
    eigenvectors:
  1.000  0.000  0.000
  0.000  1.000  0.000
  0.000  0.000  1.000
    occupations:
  0.667  0.000  0.000
  0.000  0.667  0.000
  0.000  0.000  0.667
atomic mag. moment =     0.000000
atom    9   Tr[ns(na)] (up, down, total) =   2.00000  2.00000  4.00000
   spin  1
    eigenvalues: 
  0.667  0.667  0.667
    eigenvectors:
  1.000  0.000  0.000
  0.000  1.000  0.000
  0.000  0.000  1.000
    occupations:
  0.667  0.000  0.000
  0.000  0.667  0.000
  0.000  0.000  0.667
   spin  2
    eigenvalues: 
  0.667  0.667  0.667
    eigenvectors:
  1.000  0.000  0.000
  0.000  1.000  0.000
  0.000  0.000  1.000
    occupations:
  0.667  0.000  0.000
  0.000  0.667  0.000
  0.000  0.000  0.667
atomic mag. moment =     0.000000
atom   10   Tr[ns(na)] (up, down, total) =   2.00000  2.00000  4.00000
   spin  1
    eigenvalues: 
  0.667  0.667  0.667
    eigenvectors:
  1.000  0.000  0.000
  0.000  1.000  0.000
  0.000  0.000  1.000
    occupations:
  0.667  0.000  0.000
  0.000  0.667  0.000
  0.000  0.000  0.667
   spin  2
    eigenvalues: 
  0.667  0.667  0.667
    eigenvectors:
  1.000  0.000  0.000
  0.000  1.000  0.000
  0.000  0.000  1.000
    occupations:
  0.667  0.000  0.000
  0.000  0.667  0.000
  0.000  0.000  0.667
atomic mag. moment =     0.000000
N of occupied +U levels =  40.0000000
 --- exit write_ns ---
 Atomic wfc used for LDA+U Projector are NOT orthogonalized
     Starting wfc are   62 randomized atomic wfcs

     total cpu time spent up to now is       17.8 secs

     per-process dynamical memory:    44.5 Mb

     Self-consistent Calculation

     iteration #  1     ecut=    30.00 Ry     beta=0.20
     Davidson diagonalization with overlap
     ethr =  1.00E-02,  avg # of iterations =  2.3
 --- enter write_ns ---
 LDA+U parameters:
U( 1)     =  0.00000000
alpha( 1) =  0.00000000
U( 2)     =  0.00000000
alpha( 2) =  0.00000000
U( 3)     =  0.00000000
alpha( 3) =  0.00000000
U( 4)     =  0.00000000
alpha( 4) =  0.00000000
atom    1   Tr[ns(na)] (up, down, total) =   4.99384  0.57566  5.56950
   spin  1
    eigenvalues: 
  0.997  0.998  0.998  1.000  1.000
    eigenvectors:
  1.000  0.000  0.000  0.000  0.000
  0.000  0.342  0.015  0.630  0.013
  0.000  0.015  0.342  0.013  0.630
  0.000  0.525  0.118  0.309  0.049
  0.000  0.118  0.525  0.049  0.309
    occupations:
  0.997  0.000  0.000  0.000  0.000
  0.000  1.000  0.000  0.001  0.000
  0.000  0.000  1.000  0.000 -0.001
  0.000  0.001  0.000  0.999  0.000
  0.000  0.000 -0.001  0.000  0.999
   spin  2
    eigenvalues: 
  0.075  0.075  0.076  0.175  0.175
    eigenvectors:
  0.000  0.000  1.000  0.000  0.000
  0.014  0.344  0.000  0.374  0.269
  0.344  0.014  0.000  0.269  0.374
  0.540  0.102  0.000  0.335  0.023
  0.102  0.540  0.000  0.023  0.335
    occupations:
  0.076  0.000  0.000  0.000  0.000
  0.000  0.139  0.000  0.027 -0.039
  0.000  0.000  0.139 -0.039 -0.027
  0.000  0.027 -0.039  0.111  0.000
  0.000 -0.039 -0.027  0.000  0.111
atomic mag. moment =     4.418185
atom    2   Tr[ns(na)] (up, down, total) =   4.99442  0.56545  5.55986
   spin  1
    eigenvalues: 
  0.997  0.998  0.998  1.001  1.001
    eigenvectors:
  1.000  0.000  0.000  0.000  0.000
  0.000  0.303  0.056  0.497  0.143
  0.000  0.056  0.303  0.143  0.497
  0.000  0.608  0.032  0.326  0.034
  0.000  0.032  0.608  0.034  0.326
    occupations:
  0.997  0.000  0.000  0.000  0.000
  0.000  1.000  0.000 -0.001  0.000
  0.000  0.000  1.000  0.000  0.001
  0.000 -0.001  0.000  0.999  0.000
  0.000  0.000  0.001  0.000  0.999
   spin  2
    eigenvalues: 
  0.074  0.074  0.074  0.172  0.172
    eigenvectors:
  0.000  0.000  1.000  0.000  0.000
  0.294  0.062  0.000  0.643  0.001
  0.062  0.294  0.000  0.001  0.643
  0.478  0.166  0.000  0.107  0.250
  0.166  0.478  0.000  0.250  0.107
    occupations:
  0.074  0.000  0.000  0.000  0.000
  0.000  0.137  0.000 -0.027 -0.038
  0.000  0.000  0.137 -0.038  0.027
  0.000 -0.027 -0.038  0.109  0.000
  0.000 -0.038  0.027  0.000  0.109
atomic mag. moment =     4.428969
atom    3   Tr[ns(na)] (up, down, total) =   2.11672  1.97547  4.09219
   spin  1
    eigenvalues: 
  0.369  0.369  0.380  0.500  0.500
    eigenvectors:
  0.000  0.000  1.000  0.000  0.000
  0.081  0.238  0.000  0.372  0.309
  0.238  0.081  0.000  0.309  0.372
  0.511  0.170  0.000  0.143  0.175
  0.170  0.511  0.000  0.175  0.143
    occupations:
  0.380  0.000  0.000  0.000  0.000
  0.000  0.458  0.000  0.000 -0.061
  0.000  0.000  0.458 -0.061  0.000
  0.000  0.000 -0.061  0.411  0.000
  0.000 -0.061  0.000  0.000  0.411
   spin  2
    eigenvalues: 
  0.344  0.352  0.352  0.464  0.464
    eigenvectors:
  1.000  0.000  0.000  0.000  0.000
  0.000  0.106  0.267  0.250  0.377
  0.000  0.267  0.106  0.377  0.250
  0.000  0.450  0.177  0.223  0.150
  0.000  0.177  0.450  0.150  0.223
    occupations:
  0.344  0.000  0.000  0.000  0.000
  0.000  0.422  0.000  0.000 -0.054
  0.000  0.000  0.422 -0.054  0.000
  0.000  0.000 -0.054  0.394  0.000
  0.000 -0.054  0.000  0.000  0.394
atomic mag. moment =     0.141254
atom    4   Tr[ns(na)] (up, down, total) =   2.11625  1.97564  4.09189
   spin  1
    eigenvalues: 
  0.369  0.369  0.379  0.499  0.499
    eigenvectors:
  0.000  0.000  1.000  0.000  0.000
  0.081  0.241  0.000  0.362  0.315
  0.241  0.081  0.000  0.315  0.362
  0.507  0.170  0.000  0.150  0.173
  0.170  0.507  0.000  0.173  0.150
    occupations:
  0.379  0.000  0.000  0.000  0.000
  0.000  0.457  0.000  0.000 -0.061
  0.000  0.000  0.457 -0.061  0.000
  0.000  0.000 -0.061  0.411  0.000
  0.000 -0.061  0.000  0.000  0.411
   spin  2
    eigenvalues: 
  0.344  0.352  0.352  0.464  0.464
    eigenvectors:
  1.000  0.000  0.000  0.000  0.000
  0.000  0.106  0.267  0.251  0.376
  0.000  0.267  0.106  0.376  0.251
  0.000  0.450  0.177  0.223  0.150
  0.000  0.177  0.450  0.150  0.223
    occupations:
  0.344  0.000  0.000  0.000  0.000
  0.000  0.422  0.000  0.000 -0.054
  0.000  0.000  0.422 -0.054  0.000
  0.000  0.000 -0.054  0.394  0.000
  0.000 -0.054  0.000  0.000  0.394
atomic mag. moment =     0.140605
atom    5   Tr[ns(na)] (up, down, total) =   2.93972  2.93085  5.87057
   spin  1
    eigenvalues: 
  0.977  0.980  0.983
    eigenvectors:
  0.225  0.000  0.775
  0.585  0.247  0.169
  0.190  0.753  0.056
    occupations:
  0.981 -0.002  0.001
 -0.002  0.979  0.001
  0.001  0.001  0.980
   spin  2
    eigenvalues: 
  0.974  0.977  0.980
    eigenvectors:
  0.268  0.000  0.732
  0.559  0.239  0.203
  0.174  0.761  0.065
    occupations:
  0.978 -0.002  0.001
 -0.002  0.976  0.001
  0.001  0.001  0.977
atomic mag. moment =     0.008862
atom    6   Tr[ns(na)] (up, down, total) =   2.93972  2.93085  5.87057
   spin  1
    eigenvalues: 
  0.977  0.980  0.983
    eigenvectors:
  0.225  0.000  0.775
  0.578  0.253  0.169
  0.197  0.747  0.056
    occupations:
  0.981  0.002  0.001
  0.002  0.979 -0.001
  0.001 -0.001  0.980
   spin  2
    eigenvalues: 
  0.974  0.977  0.980
    eigenvectors:
  0.268  0.000  0.732
  0.539  0.261  0.199
  0.193  0.739  0.069
    occupations:
  0.978  0.002  0.001
  0.002  0.976 -0.001
  0.001 -0.001  0.977
atomic mag. moment =     0.008862
atom    7   Tr[ns(na)] (up, down, total) =   2.93972  2.93085  5.87057
   spin  1
    eigenvalues: 
  0.977  0.980  0.983
    eigenvectors:
  0.225  0.000  0.775
  0.000  1.000  0.000
  0.775  0.000  0.225
    occupations:
  0.981  0.000 -0.003
  0.000  0.980  0.000
 -0.003  0.000  0.978
   spin  2
    eigenvalues: 
  0.974  0.977  0.980
    eigenvectors:
  0.268  0.000  0.732
  0.000  1.000  0.000
  0.732  0.000  0.268
    occupations:
  0.978  0.000 -0.003
  0.000  0.977  0.000
 -0.003  0.000  0.975
atomic mag. moment =     0.008862
atom    8   Tr[ns(na)] (up, down, total) =   2.93975  2.93081  5.87056
   spin  1
    eigenvalues: 
  0.977  0.980  0.983
    eigenvectors:
  0.225  0.000  0.775
  0.585  0.245  0.170
  0.190  0.755  0.055
    occupations:
  0.981 -0.002  0.001
 -0.002  0.979  0.001
  0.001  0.001  0.980
   spin  2
    eigenvalues: 
  0.974  0.977  0.980
    eigenvectors:
  0.269  0.000  0.731
  0.553  0.245  0.202
  0.178  0.755  0.067
    occupations:
  0.978 -0.002  0.001
 -0.002  0.976  0.001
  0.001  0.001  0.977
atomic mag. moment =     0.008939
atom    9   Tr[ns(na)] (up, down, total) =   2.93975  2.93081  5.87056
   spin  1
    eigenvalues: 
  0.977  0.980  0.983
    eigenvectors:
  0.225  0.000  0.775
  0.578  0.255  0.167
  0.197  0.745  0.058
    occupations:
  0.981  0.002  0.001
  0.002  0.979 -0.001
  0.001 -0.001  0.980
   spin  2
    eigenvalues: 
  0.974  0.977  0.980
    eigenvectors:
  0.269  0.000  0.731
  0.543  0.255  0.201
  0.188  0.745  0.068
    occupations:
  0.978  0.002  0.001
  0.002  0.976 -0.001
  0.001 -0.001  0.977
atomic mag. moment =     0.008939
atom   10   Tr[ns(na)] (up, down, total) =   2.93975  2.93081  5.87056
   spin  1
    eigenvalues: 
  0.977  0.980  0.983
    eigenvectors:
  0.225  0.000  0.775
  0.000  1.000  0.000
  0.775  0.000  0.225
    occupations:
  0.981  0.000 -0.003
  0.000  0.980  0.000
 -0.003  0.000  0.978
   spin  2
    eigenvalues: 
  0.974  0.977  0.980
    eigenvectors:
  0.269  0.000  0.731
  0.000  1.000  0.000
  0.731  0.000  0.269
    occupations:
  0.978  0.000 -0.003
  0.000  0.977  0.000
 -0.003  0.000  0.975
atomic mag. moment =     0.008939
N of occupied +U levels =  54.5368441
 --- exit write_ns ---
 --- in v_hubbard ---
Hubbard energy    0.0000
 -------

     total cpu time spent up to now is       42.5 secs

     total energy              =    -536.65026343 Ry
     Harris-Foulkes estimate   =    -539.70480761 Ry
     estimated scf accuracy    <       9.69732283 Ry

     total magnetization       =    10.19 Bohr mag/cell
     absolute magnetization    =    10.22 Bohr mag/cell

     iteration #  2     ecut=    30.00 Ry     beta=0.20
     Davidson diagonalization with overlap
     ethr =  1.00E-02,  avg # of iterations =  3.1
 --- enter write_ns ---
 LDA+U parameters:
U( 1)     =  0.00000000
alpha( 1) =  0.00000000
U( 2)     =  0.00000000
alpha( 2) =  0.00000000
U( 3)     =  0.00000000
alpha( 3) =  0.00000000
U( 4)     =  0.00000000
alpha( 4) =  0.00000000
atom    1   Tr[ns(na)] (up, down, total) =   4.98110  2.03431  7.01541
   spin  1
    eigenvalues: 
  0.996  0.996  0.996  0.997  0.997
    eigenvectors:
  0.000  0.000  1.000  0.000  0.000
  0.597  0.003  0.000  0.390  0.011
  0.003  0.597  0.000  0.011  0.390
  0.232  0.168  0.000  0.473  0.127
  0.168  0.232  0.000  0.127  0.473
    occupations:
  0.996  0.000  0.000  0.000  0.000
  0.000  0.996  0.000  0.000  0.000
  0.000  0.000  0.996  0.000  0.000
  0.000  0.000  0.000  0.996  0.000
  0.000  0.000  0.000  0.000  0.996
   spin  2
    eigenvalues: 
  0.352  0.352  0.439  0.439  0.453
    eigenvectors:
  0.000  0.000  0.000  0.000  1.000
  0.423  0.213  0.070  0.294  0.000
  0.213  0.423  0.294  0.070  0.000
  0.358  0.006  0.554  0.082  0.000
  0.006  0.358  0.082  0.554  0.000
    occupations:
  0.453  0.000  0.000  0.000  0.000
  0.000  0.383  0.000 -0.031  0.029
  0.000  0.000  0.383  0.029  0.031
  0.000 -0.031  0.029  0.407  0.000
  0.000  0.029  0.031  0.000  0.407
atomic mag. moment =     2.946794
atom    2   Tr[ns(na)] (up, down, total) =   4.98089  2.12437  7.10526
   spin  1
    eigenvalues: 
  0.996  0.996  0.996  0.997  0.997
    eigenvectors:
  0.000  0.000  1.000  0.000  0.000
  0.399  0.192  0.000  0.120  0.289
  0.192  0.399  0.000  0.289  0.120
  0.408  0.001  0.000  0.523  0.068
  0.001  0.408  0.000  0.068  0.523
    occupations:
  0.996  0.000  0.000  0.000  0.000
  0.000  0.996  0.000  0.000  0.000
  0.000  0.000  0.996  0.000  0.000
  0.000  0.000  0.000  0.996  0.000
  0.000  0.000  0.000  0.000  0.996
   spin  2
    eigenvalues: 
  0.350  0.350  0.470  0.470  0.485
    eigenvectors:
  0.000  0.000  0.000  0.000  1.000
  0.640  0.001  0.321  0.038  0.000
  0.001  0.640  0.038  0.321  0.000
  0.150  0.209  0.496  0.145  0.000
  0.209  0.150  0.145  0.496  0.000
    occupations:
  0.485  0.000  0.000  0.000  0.000
  0.000  0.393  0.000  0.039  0.042
  0.000  0.000  0.393  0.042 -0.039
  0.000  0.039  0.042  0.427  0.000
  0.000  0.042 -0.039  0.000  0.427
atomic mag. moment =     2.856515
atom    3   Tr[ns(na)] (up, down, total) =   1.79478  1.77561  3.57039
   spin  1
    eigenvalues: 
  0.332  0.332  0.365  0.383  0.383
    eigenvectors:
  0.000  0.000  1.000  0.000  0.000
  0.732  0.157  0.000  0.017  0.094
  0.157  0.732  0.000  0.094  0.017
  0.020  0.091  0.000  0.746  0.143
  0.091  0.020  0.000  0.143  0.746
    occupations:
  0.365  0.000  0.000  0.000  0.000
  0.000  0.337  0.000  0.000  0.016
  0.000  0.000  0.337  0.016  0.000
  0.000  0.000  0.016  0.378  0.000
  0.000  0.016  0.000  0.000  0.378
   spin  2
    eigenvalues: 
  0.325  0.325  0.363  0.381  0.381
    eigenvectors:
  0.000  0.000  1.000  0.000  0.000
  0.727  0.157  0.000  0.019  0.096
  0.157  0.727  0.000  0.096  0.019
  0.021  0.094  0.000  0.739  0.146
  0.094  0.021  0.000  0.146  0.739
    occupations:
  0.363  0.000  0.000  0.000  0.000
  0.000  0.331  0.000  0.000  0.018
  0.000  0.000  0.331  0.018  0.000
  0.000  0.000  0.018  0.375  0.000
  0.000  0.018  0.000  0.000  0.375
atomic mag. moment =     0.019167
atom    4   Tr[ns(na)] (up, down, total) =   1.79486  1.77565  3.57050
   spin  1
    eigenvalues: 
  0.332  0.332  0.365  0.383  0.383
    eigenvectors:
  0.000  0.000  1.000  0.000  0.000
  0.729  0.158  0.000  0.018  0.095
  0.158  0.729  0.000  0.095  0.018
  0.021  0.093  0.000  0.743  0.144
  0.093  0.021  0.000  0.144  0.743
    occupations:
  0.365  0.000  0.000  0.000  0.000
  0.000  0.338  0.000  0.000  0.016
  0.000  0.000  0.338  0.016  0.000
  0.000  0.000  0.016  0.377  0.000
  0.000  0.016  0.000  0.000  0.377
   spin  2
    eigenvalues: 
  0.325  0.325  0.363  0.381  0.381
    eigenvectors:
  0.000  0.000  1.000  0.000  0.000
  0.727  0.158  0.000  0.019  0.096
  0.158  0.727  0.000  0.096  0.019
  0.021  0.094  0.000  0.739  0.146
  0.094  0.021  0.000  0.146  0.739
    occupations:
  0.363  0.000  0.000  0.000  0.000
  0.000  0.331  0.000  0.000  0.018
  0.000  0.000  0.331  0.018  0.000
  0.000  0.000  0.018  0.375  0.000
  0.000  0.018  0.000  0.000  0.375
atomic mag. moment =     0.019213
atom    5   Tr[ns(na)] (up, down, total) =   2.88679  2.78805  5.67484
   spin  1
    eigenvalues: 
  0.957  0.965  0.966
    eigenvectors:
  0.194  0.804  0.002
  0.602  0.163  0.235
  0.204  0.033  0.763
    occupations:
  0.963 -0.003  0.002
 -0.003  0.960  0.003
  0.002  0.003  0.964
   spin  2
    eigenvalues: 
  0.906  0.941  0.941
    eigenvectors:
  0.322  0.675  0.004
  0.507  0.276  0.217
  0.171  0.049  0.779
    occupations:
  0.930 -0.014  0.008
 -0.014  0.923  0.011
  0.008  0.011  0.935
atomic mag. moment =     0.098736
atom    6   Tr[ns(na)] (up, down, total) =   2.88679  2.78805  5.67484
   spin  1
    eigenvalues: 
  0.957  0.965  0.966
    eigenvectors:
  0.194  0.804  0.002
  0.607  0.129  0.264
  0.199  0.067  0.734
    occupations:
  0.963  0.003  0.002
  0.003  0.960 -0.003
  0.002 -0.003  0.964
   spin  2
    eigenvalues: 
  0.906  0.941  0.941
    eigenvectors:
  0.322  0.675  0.004
  0.511  0.207  0.282
  0.168  0.118  0.714
    occupations:
  0.930  0.014  0.008
  0.014  0.923 -0.011
  0.008 -0.011  0.935
atomic mag. moment =     0.098736
atom    7   Tr[ns(na)] (up, down, total) =   2.88679  2.78805  5.67484
   spin  1
    eigenvalues: 
  0.957  0.965  0.966
    eigenvectors:
  0.194  0.804  0.002
  0.000  0.002  0.998
  0.806  0.194  0.000
    occupations:
  0.963  0.000 -0.003
  0.000  0.966  0.000
 -0.003  0.000  0.958
   spin  2
    eigenvalues: 
  0.906  0.941  0.941
    eigenvectors:
  0.322  0.675  0.004
  0.000  0.005  0.995
  0.678  0.320  0.001
    occupations:
  0.930  0.000 -0.017
  0.000  0.941  0.000
 -0.017  0.000  0.917
atomic mag. moment =     0.098736
atom    8   Tr[ns(na)] (up, down, total) =   2.88683  2.78803  5.67485
   spin  1
    eigenvalues: 
  0.957  0.965  0.966
    eigenvectors:
  0.197  0.802  0.001
  0.600  0.160  0.240
  0.203  0.038  0.759
    occupations:
  0.963 -0.003  0.002
 -0.003  0.960  0.003
  0.002  0.003  0.964
   spin  2
    eigenvalues: 
  0.905  0.941  0.941
    eigenvectors:
  0.322  0.674  0.004
  0.507  0.277  0.216
  0.172  0.048  0.780
    occupations:
  0.930 -0.014  0.008
 -0.014  0.923  0.011
  0.008  0.011  0.935
atomic mag. moment =     0.098796
atom    9   Tr[ns(na)] (up, down, total) =   2.88683  2.78803  5.67485
   spin  1
    eigenvalues: 
  0.957  0.965  0.966
    eigenvectors:
  0.197  0.802  0.001
  0.605  0.136  0.260
  0.199  0.062  0.740
    occupations:
  0.963  0.003  0.002
  0.003  0.960 -0.003
  0.002 -0.003  0.964
   spin  2
    eigenvalues: 
  0.905  0.941  0.941
    eigenvectors:
  0.322  0.674  0.004
  0.511  0.206  0.284
  0.168  0.120  0.713
    occupations:
  0.930  0.014  0.008
  0.014  0.923 -0.010
  0.008 -0.010  0.935
atomic mag. moment =     0.098796
atom   10   Tr[ns(na)] (up, down, total) =   2.88683  2.78803  5.67485
   spin  1
    eigenvalues: 
  0.957  0.965  0.966
    eigenvectors:
  0.197  0.802  0.001
  0.000  0.001  0.999
  0.803  0.197  0.000
    occupations:
  0.963  0.000 -0.003
  0.000  0.966  0.000
 -0.003  0.000  0.958
   spin  2
    eigenvalues: 
  0.905  0.941  0.941
    eigenvectors:
  0.322  0.674  0.004
  0.000  0.005  0.995
  0.678  0.320  0.002
    occupations:
  0.930  0.000 -0.017
  0.000  0.941  0.000
 -0.017  0.000  0.917
atomic mag. moment =     0.098796
N of occupied +U levels =  55.3106411
 --- exit write_ns ---
 --- in v_hubbard ---
Hubbard energy    0.0000
 -------

     total cpu time spent up to now is       68.0 secs

     total energy              =    -537.78397054 Ry
     Harris-Foulkes estimate   =    -537.77249893 Ry
     estimated scf accuracy    <       1.00317634 Ry

     total magnetization       =     8.00 Bohr mag/cell
     absolute magnetization    =     8.04 Bohr mag/cell

     iteration #  3     ecut=    30.00 Ry     beta=0.20
     Davidson diagonalization with overlap
     ethr =  1.32E-03,  avg # of iterations =  2.0
 --- enter write_ns ---
 LDA+U parameters:
U( 1)     =  0.00000000
alpha( 1) =  0.00000000
U( 2)     =  0.00000000
alpha( 2) =  0.00000000
U( 3)     =  0.00000000
alpha( 3) =  0.00000000
U( 4)     =  0.00000000
alpha( 4) =  0.00000000
atom    1   Tr[ns(na)] (up, down, total) =   4.96639  2.91979  7.88619
   spin  1
    eigenvalues: 
  0.991  0.991  0.995  0.995  0.995
    eigenvectors:
  0.000  0.000  0.000  0.000  1.000
  0.397  0.278  0.003  0.321  0.000
  0.278  0.397  0.321  0.003  0.000
  0.289  0.035  0.555  0.121  0.000
  0.035  0.289  0.121  0.555  0.000
    occupations:
  0.995  0.000  0.000  0.000  0.000
  0.000  0.992  0.000 -0.001  0.001
  0.000  0.000  0.992  0.001  0.001
  0.000 -0.001  0.001  0.993  0.000
  0.000  0.001  0.001  0.000  0.993
   spin  2
    eigenvalues: 
  0.470  0.470  0.659  0.659  0.662
    eigenvectors:
  0.000  0.000  0.000  0.000  1.000
  0.380  0.267  0.015  0.338  0.000
  0.267  0.380  0.338  0.015  0.000
  0.332  0.022  0.543  0.104  0.000
  0.022  0.332  0.104  0.543  0.000
    occupations:
  0.662  0.000  0.000  0.000  0.000
  0.000  0.537  0.000 -0.053  0.074
  0.000  0.000  0.537  0.074  0.053
  0.000 -0.053  0.074  0.592  0.000
  0.000  0.074  0.053  0.000  0.592
atomic mag. moment =     2.046596
atom    2   Tr[ns(na)] (up, down, total) =   4.96707  2.30119  7.26827
   spin  1
    eigenvalues: 
  0.991  0.991  0.995  0.995  0.995
    eigenvectors:
  0.000  0.000  0.000  0.000  1.000
  0.662  0.006  0.264  0.068  0.000
  0.006  0.662  0.068  0.264  0.000
  0.071  0.260  0.500  0.168  0.000
  0.260  0.071  0.168  0.500  0.000
    occupations:
  0.995  0.000  0.000  0.000  0.000
  0.000  0.992  0.000  0.001  0.002
  0.000  0.000  0.992  0.002 -0.001
  0.000  0.001  0.002  0.994  0.000
  0.000  0.002 -0.001  0.000  0.994
   spin  2
    eigenvalues: 
  0.438  0.438  0.475  0.475  0.476
    eigenvectors:
  0.000  0.000  0.000  0.000  1.000
  0.567  0.036  0.394  0.003  0.000
  0.036  0.567  0.003  0.394  0.000
  0.302  0.095  0.530  0.072  0.000
  0.095  0.302  0.072  0.530  0.000
    occupations:
  0.476  0.000  0.000  0.000  0.000
  0.000  0.453  0.000  0.018  0.005
  0.000  0.000  0.453  0.005 -0.018
  0.000  0.018  0.005  0.460  0.000
  0.000  0.005 -0.018  0.000  0.460
atomic mag. moment =     2.665884
atom    3   Tr[ns(na)] (up, down, total) =   1.91912  1.85116  3.77027
   spin  1
    eigenvalues: 
  0.356  0.356  0.390  0.408  0.408
    eigenvectors:
  0.000  0.000  1.000  0.000  0.000
  0.758  0.148  0.000  0.015  0.080
  0.148  0.758  0.000  0.080  0.015
  0.016  0.079  0.000  0.763  0.143
  0.079  0.016  0.000  0.143  0.763
    occupations:
  0.390  0.000  0.000  0.000  0.000
  0.000  0.361  0.000  0.000  0.015
  0.000  0.000  0.361  0.015  0.000
  0.000  0.000  0.015  0.404  0.000
  0.000  0.015  0.000  0.000  0.404
   spin  2
    eigenvalues: 
  0.342  0.342  0.379  0.394  0.394
    eigenvectors:
  0.000  0.000  1.000  0.000  0.000
  0.746  0.152  0.000  0.014  0.088
  0.152  0.746  0.000  0.088  0.014
  0.020  0.083  0.000  0.754  0.144
  0.083  0.020  0.000  0.144  0.754
    occupations:
  0.379  0.000  0.000  0.000  0.000
  0.000  0.347  0.000  0.000  0.016
  0.000  0.000  0.347  0.016  0.000
  0.000  0.000  0.016  0.389  0.000
  0.000  0.016  0.000  0.000  0.389
atomic mag. moment =     0.067961
atom    4   Tr[ns(na)] (up, down, total) =   1.91904  1.85124  3.77029
   spin  1
    eigenvalues: 
  0.356  0.356  0.389  0.408  0.408
    eigenvectors:
  0.000  0.000  1.000  0.000  0.000
  0.757  0.148  0.000  0.015  0.080
  0.148  0.757  0.000  0.080  0.015
  0.016  0.080  0.000  0.762  0.143
  0.080  0.016  0.000  0.143  0.762
    occupations:
  0.389  0.000  0.000  0.000  0.000
  0.000  0.361  0.000  0.000  0.015
  0.000  0.000  0.361  0.015  0.000
  0.000  0.000  0.015  0.403  0.000
  0.000  0.015  0.000  0.000  0.403
   spin  2
    eigenvalues: 
  0.342  0.342  0.379  0.394  0.394
    eigenvectors:
  0.000  0.000  1.000  0.000  0.000
  0.747  0.151  0.000  0.014  0.088
  0.151  0.747  0.000  0.088  0.014
  0.019  0.082  0.000  0.755  0.144
  0.082  0.019  0.000  0.144  0.755
    occupations:
  0.379  0.000  0.000  0.000  0.000
  0.000  0.347  0.000  0.000  0.016
  0.000  0.000  0.347  0.016  0.000
  0.000  0.000  0.016  0.389  0.000
  0.000  0.016  0.000  0.000  0.389
atomic mag. moment =     0.067803
atom    5   Tr[ns(na)] (up, down, total) =   2.82822  2.66009  5.48830
   spin  1
    eigenvalues: 
  0.927  0.950  0.951
    eigenvectors:
  0.316  0.684  0.000
  0.513  0.238  0.250
  0.172  0.078  0.750
    occupations:
  0.943 -0.009  0.005
 -0.009  0.938  0.007
  0.005  0.007  0.947
   spin  2
    eigenvalues: 
  0.855  0.901  0.904
    eigenvectors:
  0.342  0.657  0.001
  0.522  0.254  0.224
  0.136  0.089  0.775
    occupations:
  0.885 -0.019  0.010
 -0.019  0.878  0.014
  0.010  0.014  0.897
atomic mag. moment =     0.168129
atom    6   Tr[ns(na)] (up, down, total) =   2.82822  2.66009  5.48830
   spin  1
    eigenvalues: 
  0.927  0.950  0.951
    eigenvectors:
  0.316  0.684  0.000
  0.514  0.236  0.250
  0.171  0.080  0.750
    occupations:
  0.943  0.009  0.005
  0.009  0.938 -0.007
  0.005 -0.007  0.947
   spin  2
    eigenvalues: 
  0.855  0.901  0.904
    eigenvectors:
  0.342  0.657  0.001
  0.463  0.261  0.276
  0.195  0.082  0.723
    occupations:
  0.885  0.018  0.012
  0.018  0.881 -0.015
  0.012 -0.015  0.894
atomic mag. moment =     0.168129
atom    7   Tr[ns(na)] (up, down, total) =   2.82822  2.66009  5.48830
   spin  1
    eigenvalues: 
  0.927  0.950  0.951
    eigenvectors:
  0.316  0.684  0.000
  0.000  0.000  1.000
  0.684  0.316  0.000
    occupations:
  0.943  0.000 -0.011
  0.000  0.951  0.000
 -0.011  0.000  0.934
   spin  2
    eigenvalues: 
  0.855  0.901  0.904
    eigenvectors:
  0.342  0.657  0.001
  0.002  0.000  0.998
  0.656  0.343  0.001
    occupations:
  0.885  0.001 -0.022
  0.001  0.904  0.002
 -0.022  0.002  0.871
atomic mag. moment =     0.168129
atom    8   Tr[ns(na)] (up, down, total) =   2.82823  2.66006  5.48829
   spin  1
    eigenvalues: 
  0.927  0.950  0.951
    eigenvectors:
  0.316  0.684  0.000
  0.513  0.235  0.252
  0.171  0.080  0.748
    occupations:
  0.943 -0.009  0.005
 -0.009  0.939  0.007
  0.005  0.007  0.947
   spin  2
    eigenvalues: 
  0.855  0.901  0.904
    eigenvectors:
  0.342  0.657  0.001
  0.522  0.254  0.224
  0.136  0.089  0.775
    occupations:
  0.885 -0.019  0.010
 -0.019  0.878  0.014
  0.010  0.014  0.897
atomic mag. moment =     0.168175
atom    9   Tr[ns(na)] (up, down, total) =   2.82823  2.66006  5.48829
   spin  1
    eigenvalues: 
  0.927  0.950  0.951
    eigenvectors:
  0.316  0.684  0.000
  0.514  0.238  0.248
  0.171  0.078  0.752
    occupations:
  0.943  0.009  0.005
  0.009  0.938 -0.007
  0.005 -0.007  0.947
   spin  2
    eigenvalues: 
  0.855  0.901  0.904
    eigenvectors:
  0.342  0.657  0.001
  0.463  0.261  0.276
  0.195  0.082  0.723
    occupations:
  0.885  0.018  0.012
  0.018  0.881 -0.015
  0.012 -0.015  0.894
atomic mag. moment =     0.168175
atom   10   Tr[ns(na)] (up, down, total) =   2.82823  2.66006  5.48829
   spin  1
    eigenvalues: 
  0.927  0.950  0.951
    eigenvectors:
  0.316  0.684  0.000
  0.000  0.000  1.000
  0.684  0.316  0.000
    occupations:
  0.943  0.000 -0.011
  0.000  0.951  0.000
 -0.011  0.000  0.934
   spin  2
    eigenvalues: 
  0.855  0.901  0.904
    eigenvectors:
  0.342  0.657  0.001
  0.002  0.000  0.998
  0.656  0.343  0.001
    occupations:
  0.885  0.001 -0.022
  0.001  0.904  0.002
 -0.022  0.002  0.871
atomic mag. moment =     0.168175
N of occupied +U levels =  55.6247765
 --- exit write_ns ---
 --- in v_hubbard ---
Hubbard energy    0.0000
 -------

     total cpu time spent up to now is       89.8 secs

     total energy              =    -537.93649229 Ry
     Harris-Foulkes estimate   =    -537.90458383 Ry
     estimated scf accuracy    <       0.70568881 Ry

     total magnetization       =     7.54 Bohr mag/cell
     absolute magnetization    =     7.54 Bohr mag/cell

     iteration #  4     ecut=    30.00 Ry     beta=0.20
     Davidson diagonalization with overlap
     ethr =  9.29E-04,  avg # of iterations =  1.0
 --- enter write_ns ---
 LDA+U parameters:
U( 1)     =  0.00000000
alpha( 1) =  0.00000000
U( 2)     =  0.00000000
alpha( 2) =  0.00000000
U( 3)     =  0.00000000
alpha( 3) =  0.00000000
U( 4)     =  0.00000000
alpha( 4) =  0.00000000
atom    1   Tr[ns(na)] (up, down, total) =   4.95206  1.59348  6.54554
   spin  1
    eigenvalues: 
  0.981  0.981  0.997  0.997  0.997
    eigenvectors:
  0.000  0.000  0.000  0.000  1.000
  0.403  0.250  0.027  0.320  0.000
  0.250  0.403  0.320  0.027  0.000
  0.330  0.017  0.553  0.100  0.000
  0.017  0.330  0.100  0.553  0.000
    occupations:
  0.997  0.000  0.000  0.000  0.000
  0.000  0.986  0.000 -0.005  0.006
  0.000  0.000  0.986  0.006  0.005
  0.000 -0.005  0.006  0.991  0.000
  0.000  0.006  0.005  0.000  0.991
   spin  2
    eigenvalues: 
  0.267  0.267  0.278  0.391  0.391
    eigenvectors:
  0.000  0.000  1.000  0.000  0.000
  0.022  0.333  0.000  0.301  0.344
  0.333  0.022  0.000  0.344  0.301
  0.493  0.152  0.000  0.275  0.080
  0.152  0.493  0.000  0.080  0.275
    occupations:
  0.278  0.000  0.000  0.000  0.000
  0.000  0.347  0.000  0.015 -0.058
  0.000  0.000  0.347 -0.058 -0.015
  0.000  0.015 -0.058  0.311  0.000
  0.000 -0.058 -0.015  0.000  0.311
atomic mag. moment =     3.358575
atom    2   Tr[ns(na)] (up, down, total) =   4.96359  3.48090  8.44449
   spin  1
    eigenvalues: 
  0.989  0.989  0.995  0.995  0.995
    eigenvectors:
  0.000  0.000  0.000  0.000  1.000
  0.659  0.004  0.280  0.057  0.000
  0.004  0.659  0.057  0.280  0.000
  0.092  0.244  0.500  0.164  0.000
  0.244  0.092  0.164  0.500  0.000
    occupations:
  0.995  0.000  0.000  0.000  0.000
  0.000  0.991  0.000  0.002  0.002
  0.000  0.000  0.991  0.002 -0.002
  0.000  0.002  0.002  0.993  0.000
  0.000  0.002 -0.002  0.000  0.993
   spin  2
    eigenvalues: 
  0.476  0.476  0.842  0.842  0.844
    eigenvectors:
  0.000  0.000  0.000  0.000  1.000
  0.647  0.001  0.281  0.071  0.000
  0.001  0.647  0.071  0.281  0.000
  0.090  0.262  0.481  0.167  0.000
  0.262  0.090  0.167  0.481  0.000
    occupations:
  0.844  0.000  0.000  0.000  0.000
  0.000  0.605  0.000  0.095  0.147
  0.000  0.000  0.605  0.147 -0.095
  0.000  0.095  0.147  0.713  0.000
  0.000  0.147 -0.095  0.000  0.713
atomic mag. moment =     1.482689
atom    3   Tr[ns(na)] (up, down, total) =   1.91801  1.86568  3.78370
   spin  1
    eigenvalues: 
  0.356  0.356  0.389  0.408  0.408
    eigenvectors:
  0.000  0.000  1.000  0.000  0.000
  0.759  0.147  0.000  0.014  0.080
  0.147  0.759  0.000  0.080  0.014
  0.016  0.078  0.000  0.764  0.142
  0.078  0.016  0.000  0.142  0.764
    occupations:
  0.389  0.000  0.000  0.000  0.000
  0.000  0.361  0.000  0.000  0.015
  0.000  0.000  0.361  0.015  0.000
  0.000  0.000  0.015  0.403  0.000
  0.000  0.015  0.000  0.000  0.403
   spin  2
    eigenvalues: 
  0.345  0.345  0.381  0.397  0.397
    eigenvectors:
  0.000  0.000  1.000  0.000  0.000
  0.757  0.144  0.000  0.020  0.079
  0.144  0.757  0.000  0.079  0.020
  0.012  0.086  0.000  0.757  0.144
  0.086  0.012  0.000  0.144  0.757
    occupations:
  0.381  0.000  0.000  0.000  0.000
  0.000  0.350  0.000  0.001  0.016
  0.000  0.000  0.350  0.016 -0.001
  0.000  0.001  0.016  0.392  0.000
  0.000  0.016 -0.001  0.000  0.392
atomic mag. moment =     0.052329
atom    4   Tr[ns(na)] (up, down, total) =   1.91796  1.86573  3.78368
   spin  1
    eigenvalues: 
  0.356  0.356  0.389  0.408  0.408
    eigenvectors:
  0.000  0.000  1.000  0.000  0.000
  0.759  0.147  0.000  0.014  0.080
  0.147  0.759  0.000  0.080  0.014
  0.016  0.078  0.000  0.764  0.142
  0.078  0.016  0.000  0.142  0.764
    occupations:
  0.389  0.000  0.000  0.000  0.000
  0.000  0.361  0.000  0.000  0.015
  0.000  0.000  0.361  0.015  0.000
  0.000  0.000  0.015  0.403  0.000
  0.000  0.015  0.000  0.000  0.403
   spin  2
    eigenvalues: 
  0.345  0.345  0.381  0.397  0.397
    eigenvectors:
  0.000  0.000  1.000  0.000  0.000
  0.758  0.144  0.000  0.019  0.079
  0.144  0.758  0.000  0.079  0.019
  0.012  0.086  0.000  0.758  0.144
  0.086  0.012  0.000  0.144  0.758
    occupations:
  0.381  0.000  0.000  0.000  0.000
  0.000  0.350  0.000  0.001  0.016
  0.000  0.000  0.350  0.016 -0.001
  0.000  0.001  0.016  0.392  0.000
  0.000  0.016 -0.001  0.000  0.392
atomic mag. moment =     0.052229
atom    5   Tr[ns(na)] (up, down, total) =   2.81680  2.69399  5.51079
   spin  1
    eigenvalues: 
  0.915  0.950  0.951
    eigenvectors:
  0.332  0.666  0.001
  0.514  0.236  0.251
  0.154  0.098  0.748
    occupations:
  0.939 -0.015  0.008
 -0.015  0.932  0.010
  0.008  0.010  0.946
   spin  2
    eigenvalues: 
  0.862  0.915  0.917
    eigenvectors:
  0.334  0.657  0.009
  0.409  0.273  0.318
  0.258  0.070  0.672
    occupations:
  0.898 -0.019  0.016
 -0.019  0.894  0.018
  0.016  0.018  0.902
atomic mag. moment =     0.122811
atom    6   Tr[ns(na)] (up, down, total) =   2.81680  2.69399  5.51079
   spin  1
    eigenvalues: 
  0.915  0.950  0.951
    eigenvectors:
  0.332  0.666  0.001
  0.487  0.264  0.249
  0.180  0.070  0.750
    occupations:
  0.939  0.014  0.009
  0.014  0.933 -0.011
  0.009 -0.011  0.945
   spin  2
    eigenvalues: 
  0.862  0.915  0.917
    eigenvectors:
  0.334  0.657  0.009
  0.576  0.240  0.183
  0.090  0.103  0.808
    occupations:
  0.898  0.023  0.009
  0.023  0.885 -0.013
  0.009 -0.013  0.912
atomic mag. moment =     0.122811
atom    7   Tr[ns(na)] (up, down, total) =   2.81680  2.69399  5.51079
   spin  1
    eigenvalues: 
  0.915  0.950  0.951
    eigenvectors:
  0.332  0.666  0.001
  0.000  0.001  0.999
  0.667  0.333  0.000
    occupations:
  0.939  0.000 -0.017
  0.000  0.951  0.001
 -0.017  0.001  0.927
   spin  2
    eigenvalues: 
  0.862  0.915  0.917
    eigenvectors:
  0.334  0.657  0.009
  0.014  0.001  0.985
  0.652  0.342  0.006
    occupations:
  0.898 -0.004 -0.025
 -0.004  0.916 -0.005
 -0.025 -0.005  0.881
atomic mag. moment =     0.122811
atom    8   Tr[ns(na)] (up, down, total) =   2.81681  2.69396  5.51077
   spin  1
    eigenvalues: 
  0.915  0.950  0.951
    eigenvectors:
  0.332  0.666  0.002
  0.514  0.231  0.255
  0.154  0.103  0.744
    occupations:
  0.939 -0.015  0.008
 -0.015  0.932  0.010
  0.008  0.010  0.946
   spin  2
    eigenvalues: 
  0.862  0.915  0.917
    eigenvectors:
  0.334  0.657  0.010
  0.409  0.274  0.317
  0.258  0.069  0.673
    occupations:
  0.898 -0.019  0.016
 -0.019  0.894  0.018
  0.016  0.018  0.902
atomic mag. moment =     0.122850
atom    9   Tr[ns(na)] (up, down, total) =   2.81681  2.69396  5.51077
   spin  1
    eigenvalues: 
  0.915  0.950  0.951
    eigenvectors:
  0.332  0.666  0.002
  0.487  0.268  0.244
  0.180  0.066  0.754
    occupations:
  0.939  0.014  0.009
  0.014  0.933 -0.011
  0.009 -0.011  0.945
   spin  2
    eigenvalues: 
  0.862  0.915  0.917
    eigenvectors:
  0.334  0.657  0.010
  0.577  0.239  0.184
  0.090  0.104  0.806
    occupations:
  0.898  0.023  0.009
  0.023  0.885 -0.013
  0.009 -0.013  0.912
atomic mag. moment =     0.122850
atom   10   Tr[ns(na)] (up, down, total) =   2.81681  2.69396  5.51077
   spin  1
    eigenvalues: 
  0.915  0.950  0.951
    eigenvectors:
  0.332  0.666  0.002
  0.000  0.001  0.998
  0.667  0.333  0.000
    occupations:
  0.939  0.000 -0.017
  0.000  0.951  0.001
 -0.017  0.001  0.927
   spin  2
    eigenvalues: 
  0.862  0.915  0.917
    eigenvectors:
  0.334  0.657  0.010
  0.014  0.001  0.984
  0.652  0.342  0.006
    occupations:
  0.898 -0.004 -0.025
 -0.004  0.916 -0.005
 -0.025 -0.005  0.881
atomic mag. moment =     0.122850
N of occupied +U levels =  55.6220901
 --- exit write_ns ---

     negative rho (up, down):  0.000E+00 0.638E-05
 --- in v_hubbard ---
Hubbard energy    0.0000
 -------

     total cpu time spent up to now is      109.8 secs

     total energy              =    -538.06862866 Ry
     Harris-Foulkes estimate   =    -538.04787895 Ry
     estimated scf accuracy    <       2.02077489 Ry

     total magnetization       =     7.20 Bohr mag/cell
     absolute magnetization    =     7.20 Bohr mag/cell

     iteration #  5     ecut=    30.00 Ry     beta=0.20
     Davidson diagonalization with overlap
     ethr =  9.29E-04,  avg # of iterations =  1.0
 --- enter write_ns ---
 LDA+U parameters:
U( 1)     =  0.00000000
alpha( 1) =  0.00000000
U( 2)     =  0.00000000
alpha( 2) =  0.00000000
U( 3)     =  0.00000000
alpha( 3) =  0.00000000
U( 4)     =  0.00000000
alpha( 4) =  0.00000000
atom    1   Tr[ns(na)] (up, down, total) =   4.96824  2.34295  7.31119
   spin  1
    eigenvalues: 
  0.988  0.988  0.998  0.998  0.998
    eigenvectors:
  0.000  0.000  0.000  0.000  1.000
  0.407  0.250  0.025  0.318  0.000
  0.250  0.407  0.318  0.025  0.000
  0.326  0.017  0.556  0.102  0.000
  0.017  0.326  0.102  0.556  0.000
    occupations:
  0.998  0.000  0.000  0.000  0.000
  0.000  0.991  0.000 -0.003  0.004
  0.000  0.000  0.991  0.004  0.003
  0.000 -0.003  0.004  0.994  0.000
  0.000  0.004  0.003  0.000  0.994
   spin  2
    eigenvalues: 
  0.404  0.404  0.509  0.509  0.516
    eigenvectors:
  0.000  0.000  0.000  0.000  1.000
  0.429  0.214  0.065  0.291  0.000
  0.214  0.429  0.291  0.065  0.000
  0.349  0.007  0.558  0.086  0.000
  0.007  0.349  0.086  0.558  0.000
    occupations:
  0.516  0.000  0.000  0.000  0.000
  0.000  0.442  0.000 -0.037  0.034
  0.000  0.000  0.442  0.034  0.037
  0.000 -0.037  0.034  0.472  0.000
  0.000  0.034  0.037  0.000  0.472
atomic mag. moment =     2.625288
atom    2   Tr[ns(na)] (up, down, total) =   4.96916  2.49576  7.46492
   spin  1
    eigenvalues: 
  0.988  0.988  0.997  0.997  0.998
    eigenvectors:
  0.000  0.000  0.000  0.000  1.000
  0.655  0.003  0.295  0.047  0.000
  0.003  0.655  0.047  0.295  0.000
  0.112  0.230  0.499  0.159  0.000
  0.230  0.112  0.159  0.499  0.000
    occupations:
  0.998  0.000  0.000  0.000  0.000
  0.000  0.991  0.000  0.003  0.003
  0.000  0.000  0.991  0.003 -0.003
  0.000  0.003  0.003  0.994  0.000
  0.000  0.003 -0.003  0.000  0.994
   spin  2
    eigenvalues: 
  0.405  0.405  0.559  0.559  0.566
    eigenvectors:
  0.000  0.000  0.000  0.000  1.000
  0.646  0.001  0.311  0.042  0.000
  0.001  0.646  0.042  0.311  0.000
  0.139  0.214  0.499  0.148  0.000
  0.214  0.139  0.148  0.499  0.000
    occupations:
  0.566  0.000  0.000  0.000  0.000
  0.000  0.460  0.000  0.049  0.055
  0.000  0.000  0.460  0.055 -0.049
  0.000  0.049  0.055  0.505  0.000
  0.000  0.055 -0.049  0.000  0.505
atomic mag. moment =     2.473401
atom    3   Tr[ns(na)] (up, down, total) =   1.92034  1.87676  3.79709
   spin  1
    eigenvalues: 
  0.357  0.357  0.389  0.409  0.409
    eigenvectors:
  0.000  0.000  1.000  0.000  0.000
  0.763  0.146  0.000  0.014  0.077
  0.146  0.763  0.000  0.077  0.014
  0.015  0.076  0.000  0.767  0.142
  0.076  0.015  0.000  0.142  0.767
    occupations:
  0.389  0.000  0.000  0.000  0.000
  0.000  0.361  0.000  0.000  0.015
  0.000  0.000  0.361  0.015  0.000
  0.000  0.000  0.015  0.404  0.000
  0.000  0.015  0.000  0.000  0.404
   spin  2
    eigenvalues: 
  0.346  0.346  0.384  0.400  0.400
    eigenvectors:
  0.000  0.000  1.000  0.000  0.000
  0.751  0.149  0.000  0.016  0.084
  0.149  0.751  0.000  0.084  0.016
  0.017  0.084  0.000  0.756  0.144
  0.084  0.017  0.000  0.144  0.756
    occupations:
  0.384  0.000  0.000  0.000  0.000
  0.000  0.352  0.000  0.000  0.016
  0.000  0.000  0.352  0.016  0.000
  0.000  0.000  0.016  0.395  0.000
  0.000  0.016  0.000  0.000  0.395
atomic mag. moment =     0.043582
atom    4   Tr[ns(na)] (up, down, total) =   1.92031  1.87676  3.79707
   spin  1
    eigenvalues: 
  0.356  0.356  0.389  0.409  0.409
    eigenvectors:
  0.000  0.000  1.000  0.000  0.000
  0.763  0.146  0.000  0.014  0.077
  0.146  0.763  0.000  0.077  0.014
  0.015  0.076  0.000  0.767  0.142
  0.076  0.015  0.000  0.142  0.767
    occupations:
  0.389  0.000  0.000  0.000  0.000
  0.000  0.361  0.000  0.000  0.015
  0.000  0.000  0.361  0.015  0.000
  0.000  0.000  0.015  0.404  0.000
  0.000  0.015  0.000  0.000  0.404
   spin  2
    eigenvalues: 
  0.346  0.346  0.384  0.400  0.400
    eigenvectors:
  0.000  0.000  1.000  0.000  0.000
  0.752  0.148  0.000  0.016  0.084
  0.148  0.752  0.000  0.084  0.016
  0.016  0.084  0.000  0.756  0.144
  0.084  0.016  0.000  0.144  0.756
    occupations:
  0.384  0.000  0.000  0.000  0.000
  0.000  0.352  0.000  0.000  0.016
  0.000  0.000  0.352  0.016  0.000
  0.000  0.000  0.016  0.395  0.000
  0.000  0.016  0.000  0.000  0.395
atomic mag. moment =     0.043558
atom    5   Tr[ns(na)] (up, down, total) =   2.83901  2.70631  5.54532
   spin  1
    eigenvalues: 
  0.935  0.951  0.953
    eigenvectors:
  0.283  0.717  0.000
  0.539  0.210  0.251
  0.177  0.073  0.749
    occupations:
  0.947 -0.007  0.004
 -0.007  0.943  0.006
  0.004  0.006  0.950
   spin  2
    eigenvalues: 
  0.876  0.914  0.916
    eigenvectors:
  0.330  0.670  0.000
  0.495  0.252  0.252
  0.175  0.078  0.747
    occupations:
  0.902 -0.015  0.009
 -0.015  0.896  0.012
  0.009  0.012  0.909
atomic mag. moment =     0.132693
atom    6   Tr[ns(na)] (up, down, total) =   2.83901  2.70631  5.54532
   spin  1
    eigenvalues: 
  0.935  0.951  0.953
    eigenvectors:
  0.283  0.717  0.000
  0.536  0.215  0.249
  0.181  0.068  0.751
    occupations:
  0.947  0.007  0.004
  0.007  0.943 -0.006
  0.004 -0.006  0.949
   spin  2
    eigenvalues: 
  0.876  0.914  0.916
    eigenvectors:
  0.330  0.670  0.000
  0.509  0.243  0.248
  0.160  0.087  0.752
    occupations:
  0.902  0.016  0.009
  0.016  0.895 -0.012
  0.009 -0.012  0.910
atomic mag. moment =     0.132693
atom    7   Tr[ns(na)] (up, down, total) =   2.83901  2.70631  5.54532
   spin  1
    eigenvalues: 
  0.935  0.951  0.953
    eigenvectors:
  0.283  0.717  0.000
  0.000  0.000  1.000
  0.717  0.283  0.000
    occupations:
  0.947  0.000 -0.008
  0.000  0.953  0.000
 -0.008  0.000  0.939
   spin  2
    eigenvalues: 
  0.876  0.914  0.916
    eigenvectors:
  0.330  0.670  0.000
  0.000  0.000  1.000
  0.670  0.330  0.000
    occupations:
  0.902  0.000 -0.018
  0.000  0.916  0.000
 -0.018  0.000  0.889
atomic mag. moment =     0.132693
atom    8   Tr[ns(na)] (up, down, total) =   2.83902  2.70630  5.54532
   spin  1
    eigenvalues: 
  0.935  0.951  0.953
    eigenvectors:
  0.283  0.717  0.000
  0.539  0.209  0.251
  0.177  0.074  0.749
    occupations:
  0.947 -0.007  0.004
 -0.007  0.943  0.006
  0.004  0.006  0.950
   spin  2
    eigenvalues: 
  0.876  0.914  0.916
    eigenvectors:
  0.330  0.670  0.000
  0.495  0.252  0.252
  0.175  0.078  0.748
    occupations:
  0.902 -0.015  0.009
 -0.015  0.896  0.012
  0.009  0.012  0.909
atomic mag. moment =     0.132725
atom    9   Tr[ns(na)] (up, down, total) =   2.83902  2.70630  5.54532
   spin  1
    eigenvalues: 
  0.935  0.951  0.953
    eigenvectors:
  0.283  0.717  0.000
  0.536  0.216  0.249
  0.181  0.068  0.751
    occupations:
  0.947  0.007  0.004
  0.007  0.943 -0.006
  0.004 -0.006  0.949
   spin  2
    eigenvalues: 
  0.876  0.914  0.916
    eigenvectors:
  0.330  0.670  0.000
  0.510  0.243  0.248
  0.160  0.087  0.752
    occupations:
  0.902  0.016  0.009
  0.016  0.895 -0.012
  0.009 -0.012  0.910
atomic mag. moment =     0.132725
atom   10   Tr[ns(na)] (up, down, total) =   2.83902  2.70630  5.54532
   spin  1
    eigenvalues: 
  0.935  0.951  0.953
    eigenvectors:
  0.283  0.717  0.000
  0.000  0.000  1.000
  0.717  0.283  0.000
    occupations:
  0.947  0.000 -0.008
  0.000  0.953  0.000
 -0.008  0.000  0.939
   spin  2
    eigenvalues: 
  0.876  0.914  0.916
    eigenvectors:
  0.330  0.670  0.000
  0.000  0.000  1.000
  0.670  0.330  0.000
    occupations:
  0.902  0.000 -0.018
  0.000  0.916  0.000
 -0.018  0.000  0.889
atomic mag. moment =     0.132725
N of occupied +U levels =  55.6422013
 --- exit write_ns ---

     negative rho (up, down):  0.000E+00 0.123E-03
 --- in v_hubbard ---
Hubbard energy    0.0000
 -------

     total cpu time spent up to now is      130.2 secs

     total energy              =    -538.23515983 Ry
     Harris-Foulkes estimate   =    -538.11520007 Ry
     estimated scf accuracy    <       0.20480683 Ry

     total magnetization       =     7.53 Bohr mag/cell
     absolute magnetization    =     7.53 Bohr mag/cell

     iteration #  6     ecut=    30.00 Ry     beta=0.20
     Davidson diagonalization with overlap
     ethr =  2.69E-04,  avg # of iterations =  2.1
 --- enter write_ns ---
 LDA+U parameters:
U( 1)     =  0.00000000
alpha( 1) =  0.00000000
U( 2)     =  0.00000000
alpha( 2) =  0.00000000
U( 3)     =  0.00000000
alpha( 3) =  0.00000000
U( 4)     =  0.00000000
alpha( 4) =  0.00000000
atom    1   Tr[ns(na)] (up, down, total) =   4.86599  3.34476  8.21075
   spin  1
    eigenvalues: 
  0.936  0.936  0.998  0.998  0.998
    eigenvectors:
  0.000  0.000  0.000  0.000  1.000
  0.402  0.247  0.031  0.320  0.000
  0.247  0.402  0.320  0.031  0.000
  0.337  0.015  0.552  0.097  0.000
  0.015  0.337  0.097  0.552  0.000
    occupations:
  0.998  0.000  0.000  0.000  0.000
  0.000  0.958  0.000 -0.019  0.023
  0.000  0.000  0.958  0.023  0.019
  0.000 -0.019  0.023  0.976  0.000
  0.000  0.023  0.019  0.000  0.976
   spin  2
    eigenvalues: 
  0.495  0.495  0.777  0.789  0.789
    eigenvectors:
  0.000  0.000  1.000  0.000  0.000
  0.362  0.291  0.000  0.002  0.345
  0.291  0.362  0.000  0.345  0.002
  0.314  0.034  0.000  0.534  0.119
  0.034  0.314  0.000  0.119  0.534
    occupations:
  0.777  0.000  0.000  0.000  0.000
  0.000  0.597  0.000 -0.070  0.122
  0.000  0.000  0.597  0.122  0.070
  0.000 -0.070  0.122  0.687  0.000
  0.000  0.122  0.070  0.000  0.687
atomic mag. moment =     1.521225
atom    2   Tr[ns(na)] (up, down, total) =   4.84862  2.95708  7.80570
   spin  1
    eigenvalues: 
  0.927  0.927  0.998  0.998  0.998
    eigenvectors:
  0.000  0.000  0.000  0.000  1.000
  0.647  0.002  0.307  0.044  0.000
  0.002  0.647  0.044  0.307  0.000
  0.124  0.226  0.492  0.157  0.000
  0.226  0.124  0.157  0.492  0.000
    occupations:
  0.998  0.000  0.000  0.000  0.000
  0.000  0.952  0.000  0.022  0.026
  0.000  0.000  0.952  0.026 -0.022
  0.000  0.022  0.026  0.973  0.000
  0.000  0.026 -0.022  0.000  0.973
   spin  2
    eigenvalues: 
  0.474  0.474  0.662  0.674  0.674
    eigenvectors:
  0.000  0.000  1.000  0.000  0.000
  0.653  0.001  0.000  0.267  0.079
  0.001  0.653  0.000  0.079  0.267
  0.079  0.266  0.000  0.488  0.166
  0.266  0.079  0.000  0.166  0.488
    occupations:
  0.662  0.000  0.000  0.000  0.000
  0.000  0.543  0.000  0.049  0.081
  0.000  0.000  0.543  0.081 -0.049
  0.000  0.049  0.081  0.605  0.000
  0.000  0.081 -0.049  0.000  0.605
atomic mag. moment =     1.891537
atom    3   Tr[ns(na)] (up, down, total) =   1.96075  1.94868  3.90943
   spin  1
    eigenvalues: 
  0.367  0.367  0.396  0.415  0.415
    eigenvectors:
  0.000  0.000  1.000  0.000  0.000
  0.795  0.135  0.000  0.010  0.061
  0.135  0.795  0.000  0.061  0.010
  0.011  0.060  0.000  0.792  0.138
  0.060  0.011  0.000  0.138  0.792
    occupations:
  0.396  0.000  0.000  0.000  0.000
  0.000  0.370  0.000  0.000  0.012
  0.000  0.000  0.370  0.012  0.000
  0.000  0.000  0.012  0.412  0.000
  0.000  0.012  0.000  0.000  0.412
   spin  2
    eigenvalues: 
  0.363  0.363  0.397  0.413  0.413
    eigenvectors:
  0.000  0.000  1.000  0.000  0.000
  0.769  0.144  0.000  0.011  0.076
  0.144  0.769  0.000  0.076  0.011
  0.016  0.071  0.000  0.771  0.142
  0.071  0.016  0.000  0.142  0.771
    occupations:
  0.397  0.000  0.000  0.000  0.000
  0.000  0.367  0.000 -0.001  0.014
  0.000  0.000  0.367  0.014  0.001
  0.000 -0.001  0.014  0.409  0.000
  0.000  0.014  0.001  0.000  0.409
atomic mag. moment =     0.012077
atom    4   Tr[ns(na)] (up, down, total) =   1.96068  1.94870  3.90938
   spin  1
    eigenvalues: 
  0.367  0.367  0.396  0.415  0.415
    eigenvectors:
  0.000  0.000  1.000  0.000  0.000
  0.795  0.135  0.000  0.010  0.060
  0.135  0.795  0.000  0.060  0.010
  0.011  0.060  0.000  0.792  0.138
  0.060  0.011  0.000  0.138  0.792
    occupations:
  0.396  0.000  0.000  0.000  0.000
  0.000  0.370  0.000  0.000  0.012
  0.000  0.000  0.370  0.012  0.000
  0.000  0.000  0.012  0.412  0.000
  0.000  0.012  0.000  0.000  0.412
   spin  2
    eigenvalues: 
  0.363  0.363  0.397  0.413  0.413
    eigenvectors:
  0.000  0.000  1.000  0.000  0.000
  0.769  0.144  0.000  0.011  0.076
  0.144  0.769  0.000  0.076  0.011
  0.016  0.070  0.000  0.771  0.142
  0.070  0.016  0.000  0.142  0.771
    occupations:
  0.397  0.000  0.000  0.000  0.000
  0.000  0.367  0.000 -0.001  0.014
  0.000  0.000  0.367  0.014  0.001
  0.000 -0.001  0.014  0.409  0.000
  0.000  0.014  0.001  0.000  0.409
atomic mag. moment =     0.011984
atom    5   Tr[ns(na)] (up, down, total) =   2.73679  2.63304  5.36984
   spin  1
    eigenvalues: 
  0.849  0.943  0.945
    eigenvectors:
  0.355  0.000  0.645
  0.480  0.256  0.264
  0.165  0.744  0.091
    occupations:
  0.911 -0.040  0.023
 -0.040  0.898  0.026
  0.023  0.026  0.928
   spin  2
    eigenvalues: 
  0.842  0.894  0.897
    eigenvectors:
  0.344  0.656  0.001
  0.514  0.255  0.231
  0.143  0.089  0.768
    occupations:
  0.876 -0.022  0.011
 -0.022  0.868  0.015
  0.011  0.015  0.889
atomic mag. moment =     0.103748
atom    6   Tr[ns(na)] (up, down, total) =   2.73679  2.63304  5.36984
   spin  1
    eigenvalues: 
  0.849  0.943  0.945
    eigenvectors:
  0.355  0.000  0.645
  0.488  0.244  0.268
  0.157  0.756  0.087
    occupations:
  0.911  0.040  0.023
  0.040  0.898 -0.026
  0.023 -0.026  0.928
   spin  2
    eigenvalues: 
  0.842  0.894  0.897
    eigenvectors:
  0.344  0.656  0.001
  0.470  0.262  0.269
  0.187  0.083  0.731
    occupations:
  0.876  0.021  0.013
  0.021  0.870 -0.017
  0.013 -0.017  0.887
atomic mag. moment =     0.103748
atom    7   Tr[ns(na)] (up, down, total) =   2.73679  2.63304  5.36984
   spin  1
    eigenvalues: 
  0.849  0.943  0.945
    eigenvectors:
  0.355  0.000  0.645
  0.000  1.000  0.000
  0.645  0.000  0.355
    occupations:
  0.911  0.000 -0.046
  0.000  0.943  0.000
 -0.046  0.000  0.883
   spin  2
    eigenvalues: 
  0.842  0.894  0.897
    eigenvectors:
  0.344  0.656  0.001
  0.001  0.000  0.999
  0.655  0.344  0.000
    occupations:
  0.876  0.001 -0.025
  0.001  0.897  0.001
 -0.025  0.001  0.860
atomic mag. moment =     0.103748
atom    8   Tr[ns(na)] (up, down, total) =   2.73681  2.63305  5.36986
   spin  1
    eigenvalues: 
  0.849  0.943  0.945
    eigenvectors:
  0.355  0.000  0.645
  0.480  0.255  0.266
  0.165  0.745  0.090
    occupations:
  0.911 -0.040  0.023
 -0.040  0.898  0.026
  0.023  0.026  0.928
   spin  2
    eigenvalues: 
  0.842  0.894  0.897
    eigenvectors:
  0.344  0.656  0.001
  0.514  0.255  0.231
  0.143  0.089  0.769
    occupations:
  0.876 -0.022  0.011
 -0.022  0.868  0.015
  0.011  0.015  0.889
atomic mag. moment =     0.103761
atom    9   Tr[ns(na)] (up, down, total) =   2.73681  2.63305  5.36986
   spin  1
    eigenvalues: 
  0.849  0.943  0.945
    eigenvectors:
  0.355  0.000  0.645
  0.488  0.245  0.267
  0.157  0.755  0.088
    occupations:
  0.911  0.040  0.023
  0.040  0.898 -0.026
  0.023 -0.026  0.928
   spin  2
    eigenvalues: 
  0.842  0.894  0.897
    eigenvectors:
  0.344  0.656  0.001
  0.470  0.261  0.269
  0.187  0.083  0.730
    occupations:
  0.876  0.021  0.013
  0.021  0.870 -0.017
  0.013 -0.017  0.887
atomic mag. moment =     0.103761
atom   10   Tr[ns(na)] (up, down, total) =   2.73681  2.63305  5.36986
   spin  1
    eigenvalues: 
  0.849  0.943  0.945
    eigenvectors:
  0.355  0.000  0.645
  0.000  1.000  0.000
  0.645  0.000  0.355
    occupations:
  0.911  0.000 -0.046
  0.000  0.943  0.000
 -0.046  0.000  0.883
   spin  2
    eigenvalues: 
  0.842  0.894  0.897
    eigenvectors:
  0.344  0.656  0.001
  0.001  0.000  0.999
  0.655  0.344  0.000
    occupations:
  0.876  0.001 -0.025
  0.001  0.897  0.001
 -0.025  0.001  0.860
atomic mag. moment =     0.103761
N of occupied +U levels =  56.0543529
 --- exit write_ns ---

     negative rho (up, down):  0.000E+00 0.752E-04
 --- in v_hubbard ---
Hubbard energy    0.0000
 -------

     total cpu time spent up to now is      152.5 secs

     total energy              =    -538.33380190 Ry
     Harris-Foulkes estimate   =    -538.33348629 Ry
     estimated scf accuracy    <       0.33923909 Ry

     total magnetization       =     5.15 Bohr mag/cell
     absolute magnetization    =     5.22 Bohr mag/cell

     iteration #  7     ecut=    30.00 Ry     beta=0.20
     Davidson diagonalization with overlap
     ethr =  2.69E-04,  avg # of iterations =  1.0
 --- enter write_ns ---
 LDA+U parameters:
U( 1)     =  0.00000000
alpha( 1) =  0.00000000
U( 2)     =  0.00000000
alpha( 2) =  0.00000000
U( 3)     =  0.00000000
alpha( 3) =  0.00000000
U( 4)     =  0.00000000
alpha( 4) =  0.00000000
atom    1   Tr[ns(na)] (up, down, total) =   4.84461  3.27287  8.11748
   spin  1
    eigenvalues: 
  0.925  0.925  0.998  0.998  0.999
    eigenvectors:
  0.000  0.000  0.000  0.000  1.000
  0.403  0.246  0.033  0.319  0.000
  0.246  0.403  0.319  0.033  0.000
  0.337  0.014  0.552  0.097  0.000
  0.014  0.337  0.097  0.552  0.000
    occupations:
  0.999  0.000  0.000  0.000  0.000
  0.000  0.951  0.000 -0.023  0.027
  0.000  0.000  0.951  0.027  0.023
  0.000 -0.023  0.027  0.972  0.000
  0.000  0.027  0.023  0.000  0.972
   spin  2
    eigenvalues: 
  0.478  0.478  0.764  0.776  0.776
    eigenvectors:
  0.000  0.000  1.000  0.000  0.000
  0.363  0.290  0.000  0.003  0.344
  0.290  0.363  0.000  0.344  0.003
  0.314  0.033  0.000  0.535  0.118
  0.033  0.314  0.000  0.118  0.535
    occupations:
  0.764  0.000  0.000  0.000  0.000
  0.000  0.582  0.000 -0.072  0.122
  0.000  0.000  0.582  0.122  0.072
  0.000 -0.072  0.122  0.673  0.000
  0.000  0.122  0.072  0.000  0.673
atomic mag. moment =     1.571741
atom    2   Tr[ns(na)] (up, down, total) =   4.82774  2.94433  7.77207
   spin  1
    eigenvalues: 
  0.916  0.916  0.999  0.999  0.999
    eigenvectors:
  0.000  0.000  0.000  0.000  1.000
  0.647  0.002  0.308  0.043  0.000
  0.002  0.647  0.043  0.308  0.000
  0.126  0.225  0.493  0.156  0.000
  0.225  0.126  0.156  0.493  0.000
    occupations:
  0.999  0.000  0.000  0.000  0.000
  0.000  0.945  0.000  0.025  0.030
  0.000  0.000  0.945  0.030 -0.025
  0.000  0.025  0.030  0.970  0.000
  0.000  0.030 -0.025  0.000  0.970
   spin  2
    eigenvalues: 
  0.461  0.461  0.666  0.678  0.678
    eigenvectors:
  0.000  0.000  1.000  0.000  0.000
  0.653  0.001  0.000  0.267  0.078
  0.001  0.653  0.000  0.078  0.267
  0.080  0.266  0.000  0.488  0.166
  0.266  0.080  0.000  0.166  0.488
    occupations:
  0.666  0.000  0.000  0.000  0.000
  0.000  0.536  0.000  0.054  0.088
  0.000  0.000  0.536  0.088 -0.054
  0.000  0.054  0.088  0.603  0.000
  0.000  0.088 -0.054  0.000  0.603
atomic mag. moment =     1.883414
atom    3   Tr[ns(na)] (up, down, total) =   1.95591  1.94760  3.90351
   spin  1
    eigenvalues: 
  0.365  0.365  0.395  0.415  0.415
    eigenvectors:
  0.000  0.000  1.000  0.000  0.000
  0.791  0.136  0.000  0.011  0.062
  0.136  0.791  0.000  0.062  0.011
  0.011  0.062  0.000  0.788  0.139
  0.062  0.011  0.000  0.139  0.788
    occupations:
  0.395  0.000  0.000  0.000  0.000
  0.000  0.369  0.000  0.000  0.013
  0.000  0.000  0.369  0.013  0.000
  0.000  0.000  0.013  0.411  0.000
  0.000  0.013  0.000  0.000  0.411
   spin  2
    eigenvalues: 
  0.362  0.362  0.397  0.413  0.413
    eigenvectors:
  0.000  0.000  1.000  0.000  0.000
  0.767  0.145  0.000  0.012  0.077
  0.145  0.767  0.000  0.077  0.012
  0.016  0.073  0.000  0.769  0.142
  0.073  0.016  0.000  0.142  0.769
    occupations:
  0.397  0.000  0.000  0.000  0.000
  0.000  0.366  0.000  0.000  0.015
  0.000  0.000  0.366  0.015  0.000
  0.000  0.000  0.015  0.409  0.000
  0.000  0.015  0.000  0.000  0.409
atomic mag. moment =     0.008317
atom    4   Tr[ns(na)] (up, down, total) =   1.95587  1.94759  3.90346
   spin  1
    eigenvalues: 
  0.365  0.365  0.395  0.415  0.415
    eigenvectors:
  0.000  0.000  1.000  0.000  0.000
  0.791  0.136  0.000  0.011  0.062
  0.136  0.791  0.000  0.062  0.011
  0.011  0.062  0.000  0.789  0.138
  0.062  0.011  0.000  0.138  0.789
    occupations:
  0.395  0.000  0.000  0.000  0.000
  0.000  0.369  0.000  0.000  0.013
  0.000  0.000  0.369  0.013  0.000
  0.000  0.000  0.013  0.411  0.000
  0.000  0.013  0.000  0.000  0.411
   spin  2
    eigenvalues: 
  0.362  0.362  0.397  0.413  0.413
    eigenvectors:
  0.000  0.000  1.000  0.000  0.000
  0.766  0.145  0.000  0.012  0.077
  0.145  0.766  0.000  0.077  0.012
  0.016  0.072  0.000  0.769  0.143
  0.072  0.016  0.000  0.143  0.769
    occupations:
  0.397  0.000  0.000  0.000  0.000
  0.000  0.366  0.000  0.000  0.015
  0.000  0.000  0.366  0.015  0.000
  0.000  0.000  0.015  0.409  0.000
  0.000  0.015  0.000  0.000  0.409
atomic mag. moment =     0.008273
atom    5   Tr[ns(na)] (up, down, total) =   2.74450  2.64970  5.39420
   spin  1
    eigenvalues: 
  0.854  0.944  0.946
    eigenvectors:
  0.351  0.000  0.649
  0.484  0.254  0.263
  0.166  0.746  0.088
    occupations:
  0.914 -0.038  0.022
 -0.038  0.901  0.025
  0.022  0.025  0.929
   spin  2
    eigenvalues: 
  0.848  0.899  0.902
    eigenvectors:
  0.339  0.660  0.001
  0.513  0.250  0.237
  0.148  0.090  0.762
    occupations:
  0.882 -0.021  0.011
 -0.021  0.874  0.015
  0.011  0.015  0.894
atomic mag. moment =     0.094800
atom    6   Tr[ns(na)] (up, down, total) =   2.74450  2.64970  5.39420
   spin  1
    eigenvalues: 
  0.854  0.944  0.946
    eigenvectors:
  0.351  0.000  0.649
  0.490  0.246  0.263
  0.159  0.754  0.087
    occupations:
  0.914  0.038  0.022
  0.038  0.901 -0.025
  0.022 -0.025  0.930
   spin  2
    eigenvalues: 
  0.848  0.899  0.902
    eigenvectors:
  0.339  0.660  0.001
  0.477  0.260  0.263
  0.183  0.080  0.737
    occupations:
  0.882  0.020  0.013
  0.020  0.876 -0.016
  0.013 -0.016  0.892
atomic mag. moment =     0.094800
atom    7   Tr[ns(na)] (up, down, total) =   2.74450  2.64970  5.39420
   spin  1
    eigenvalues: 
  0.854  0.944  0.946
    eigenvectors:
  0.351  0.000  0.649
  0.000  1.000  0.000
  0.649  0.000  0.351
    occupations:
  0.914  0.000 -0.044
  0.000  0.944  0.000
 -0.044  0.000  0.886
   spin  2
    eigenvalues: 
  0.848  0.899  0.902
    eigenvectors:
  0.339  0.660  0.001
  0.001  0.000  0.999
  0.660  0.340  0.000
    occupations:
  0.882  0.001 -0.024
  0.001  0.902  0.001
 -0.024  0.001  0.866
atomic mag. moment =     0.094800
atom    8   Tr[ns(na)] (up, down, total) =   2.74452  2.64970  5.39422
   spin  1
    eigenvalues: 
  0.854  0.944  0.946
    eigenvectors:
  0.351  0.000  0.649
  0.484  0.253  0.263
  0.166  0.747  0.087
    occupations:
  0.914 -0.038  0.022
 -0.038  0.901  0.025
  0.022  0.025  0.930
   spin  2
    eigenvalues: 
  0.848  0.899  0.902
    eigenvectors:
  0.339  0.660  0.000
  0.513  0.250  0.236
  0.148  0.089  0.763
    occupations:
  0.882 -0.021  0.011
 -0.021  0.874  0.015
  0.011  0.015  0.894
atomic mag. moment =     0.094817
atom    9   Tr[ns(na)] (up, down, total) =   2.74452  2.64970  5.39422
   spin  1
    eigenvalues: 
  0.854  0.944  0.946
    eigenvectors:
  0.351  0.000  0.649
  0.490  0.247  0.263
  0.159  0.753  0.088
    occupations:
  0.914  0.038  0.022
  0.038  0.901 -0.025
  0.022 -0.025  0.930
   spin  2
    eigenvalues: 
  0.848  0.899  0.902
    eigenvectors:
  0.339  0.660  0.000
  0.477  0.259  0.264
  0.183  0.081  0.736
    occupations:
  0.882  0.020  0.013
  0.020  0.876 -0.016
  0.013 -0.016  0.892
atomic mag. moment =     0.094817
atom   10   Tr[ns(na)] (up, down, total) =   2.74452  2.64970  5.39422
   spin  1
    eigenvalues: 
  0.854  0.944  0.946
    eigenvectors:
  0.351  0.000  0.649
  0.000  1.000  0.000
  0.649  0.000  0.351
    occupations:
  0.914  0.000 -0.044
  0.000  0.944  0.000
 -0.044  0.000  0.886
   spin  2
    eigenvalues: 
  0.848  0.899  0.902
    eigenvectors:
  0.339  0.660  0.000
  0.001  0.000  0.999
  0.660  0.340  0.000
    occupations:
  0.882  0.001 -0.024
  0.001  0.902  0.001
 -0.024  0.001  0.866
atomic mag. moment =     0.094817
N of occupied +U levels =  56.0617638
 --- exit write_ns ---

[...]
     0.0937   0.0937   0.0937   0.0937   0.0937   0.0937   0.0937   0.0872
     0.0077   0.0000   0.0000   0.0000   0.0000   0.0000

          k = 0.4942-0.5706-0.2053 (  2206 PWs)   bands (ev):

   -19.6710 -19.6710  -6.8618  -6.8516  -6.0085  -6.0071  -5.3958  -5.3944
    -3.1168  -3.1164  -2.7748  -2.7740  -2.3494  -2.3469   5.9258   5.9523
     6.8070   6.8464   6.8998   6.9085   7.3628   7.3637   7.9007   7.9461
     8.7596   8.7661   8.8832   8.8886   9.4830   9.4984   9.9785   9.9959
    10.6434  10.6925  10.7978  10.8633  11.0792  11.1257  11.4321  11.4754
    13.3025  13.3424  17.4352  17.4354  17.8837  17.8860

     occupation numbers 
     0.0938   0.0938   0.0938   0.0938   0.0938   0.0938   0.0938   0.0938
     0.0938   0.0938   0.0938   0.0938   0.0938   0.0938   0.0938   0.0938
     0.0938   0.0938   0.0938   0.0938   0.0938   0.0938   0.0938   0.0938
     0.0938   0.0938   0.0938   0.0938   0.0938   0.0938   0.0937   0.0937
     0.0937   0.0937   0.0937   0.0937   0.0937   0.0937   0.0936   0.0935
     0.0000   0.0000   0.0000   0.0000   0.0000   0.0000

          k = 0.0000 0.0000-0.6160 (  2186 PWs)   bands (ev):

   -19.6730 -19.6729  -6.4910  -6.4776  -5.9086  -5.9086  -5.9046  -5.9046
    -2.8503  -2.8503  -2.8494  -2.8494  -2.6767  -2.6766   6.2870   6.2942
     6.9206   6.9206   6.9852   6.9852   7.6733   7.7026   7.8528   7.8528
     7.8902   7.8902   9.5496   9.5496   9.5821   9.5821   9.6794   9.7013
    10.6999  10.8680  10.8680  10.8727  11.0227  11.0227  12.4381  12.4381
    12.6176  12.6176  17.1235  17.1235  17.1237  17.1237

     occupation numbers 
     0.0156   0.0156   0.0156   0.0156   0.0156   0.0156   0.0156   0.0156
     0.0156   0.0156   0.0156   0.0156   0.0156   0.0156   0.0156   0.0156
     0.0156   0.0156   0.0156   0.0156   0.0156   0.0156   0.0156   0.0156
     0.0156   0.0156   0.0156   0.0156   0.0156   0.0156   0.0156   0.0156
     0.0156   0.0156   0.0156   0.0156   0.0156   0.0156   0.0048   0.0048
     0.0020   0.0020   0.0000   0.0000   0.0000   0.0000

          k = 0.4942-0.5706 0.1027 (  2198 PWs)   bands (ev):

   -19.6924 -19.6518  -6.9324  -6.6200  -6.1019  -5.8629  -5.4822  -5.3499
    -3.2648  -3.2168  -2.8395  -2.6701  -2.4907  -2.3501   5.8229   6.1369
     6.6253   6.7295   7.0793   7.2624   7.4091   7.6154   7.7149   7.8643
     8.1724   8.7337   8.9957   9.2172   9.5084   9.7446   9.8601  10.2919
    10.4031  10.7652  10.9034  10.9588  11.0974  11.1673  11.5275  11.9097
    12.7026  13.7027  16.9205  17.1185  17.3225  18.0295

     occupation numbers 
     0.0938   0.0938   0.0938   0.0938   0.0938   0.0938   0.0938   0.0938
     0.0938   0.0938   0.0938   0.0938   0.0938   0.0938   0.0938   0.0938
     0.0938   0.0938   0.0938   0.0938   0.0938   0.0938   0.0938   0.0938
     0.0938   0.0938   0.0938   0.0938   0.0938   0.0938   0.0938   0.0937
     0.0937   0.0937   0.0937   0.0937   0.0937   0.0937   0.0934   0.0852
     0.0074   0.0000   0.0000   0.0000   0.0000   0.0000

 ------ SPIN DOWN ----------


          k = 0.0000 0.0000 0.0000 (  2175 PWs)   bands (ev):

   -19.7596 -19.5865  -6.4384  -5.7164  -5.7164  -5.7040  -5.7040  -5.3651
    -3.7169  -3.2299  -3.1213  -3.1213  -2.9734  -2.9734   5.2446   7.2590
     7.2590   7.5825   7.5825   7.7759   8.0254   8.0254   8.0693   9.4350
     9.7447   9.7447  10.0608  10.1144  10.1144  10.5900  10.5900  10.7866
    11.2042  11.2042  11.2922  12.1404  12.1404  12.6830  13.0077  13.0077
    15.3555  15.3555  15.4991  15.4991  16.2202  16.8238

     occupation numbers 
     0.0156   0.0156   0.0156   0.0156   0.0156   0.0156   0.0156   0.0156
     0.0156   0.0156   0.0156   0.0156   0.0156   0.0156   0.0156   0.0156
     0.0156   0.0156   0.0156   0.0156   0.0156   0.0156   0.0156   0.0156
     0.0156   0.0156   0.0156   0.0156   0.0156   0.0156   0.0156   0.0156
     0.0156   0.0156   0.0156   0.0110   0.0110   0.0014   0.0001   0.0001
     0.0000   0.0000   0.0000   0.0000   0.0000   0.0000

          k =-0.2471-0.1427 0.1027 (  2181 PWs)   bands (ev):

   -19.7317 -19.6094  -6.6248  -6.1866  -5.8235  -5.7328  -5.4889  -5.3522
    -3.5327  -3.3395  -2.8623  -2.8415  -2.7738  -2.7012   5.6109   6.9505
     7.3258   7.3447   7.4650   7.6786   7.6822   8.0273   8.0472   8.8109
     8.8774   9.5186   9.7999   9.9986  10.0577  10.1851  10.5334  10.5436
    11.5332  11.5779  11.6302  12.3267  12.3675  12.4975  13.1551  13.2020
    14.9205  14.9333  15.8901  16.1312  17.0129  17.3158

     occupation numbers 
     0.0938   0.0938   0.0938   0.0938   0.0938   0.0938   0.0938   0.0938
     0.0938   0.0938   0.0938   0.0938   0.0938   0.0938   0.0938   0.0938
     0.0938   0.0938   0.0938   0.0938   0.0938   0.0938   0.0938   0.0938
     0.0938   0.0938   0.0938   0.0937   0.0937   0.0937   0.0937   0.0937
     0.0934   0.0931   0.0927   0.0427   0.0375   0.0225   0.0001   0.0001
     0.0000   0.0000   0.0000   0.0000   0.0000   0.0000

          k = 0.4942 0.2853-0.2053 (  2202 PWs)   bands (ev):

   -19.6681 -19.6681  -6.6288  -6.6174  -5.8464  -5.8450  -5.3955  -5.3931
    -3.3291  -3.3263  -2.7189  -2.7172  -2.4490  -2.4468   6.1630   6.1633
     7.4096   7.4452   7.4836   7.5274   7.8436   7.8773   8.1441   8.1720
     8.4021   8.4362   9.7131   9.7258  10.0261  10.0310  10.4455  10.4508
    11.9332  11.9933  12.0287  12.0868  12.1797  12.2291  13.9432  14.0131
    14.0458  14.1150  16.8906  16.8959  17.1871  17.1921

     occupation numbers 
     0.0469   0.0469   0.0469   0.0469   0.0469   0.0469   0.0469   0.0469
     0.0469   0.0469   0.0469   0.0469   0.0469   0.0469   0.0469   0.0469
     0.0469   0.0469   0.0469   0.0469   0.0469   0.0469   0.0469   0.0469
     0.0469   0.0469   0.0469   0.0469   0.0469   0.0469   0.0469   0.0469
     0.0419   0.0399   0.0385   0.0358   0.0307   0.0276   0.0000   0.0000
     0.0000   0.0000   0.0000   0.0000   0.0000   0.0000

          k =-0.2471 0.1427 0.2053 (  2195 PWs)   bands (ev):

   -19.7270 -19.6120  -6.7515  -6.1276  -5.9604  -5.7113  -5.5362  -5.3228
    -3.3574  -3.2197  -3.0362  -2.8218  -2.7408  -2.4950   5.6622   6.9837
     7.2555   7.2898   7.3839   7.5598   7.6515   8.0587   8.0814   8.8341
     9.1040   9.1072   9.4665   9.9600  10.1262  10.2571  10.3356  10.4584
    11.2248  11.8506  11.9583  12.0228  12.3849  12.5060  12.9307  13.4929
    14.2969  15.3932  16.0423  16.2517  17.0824  17.5806

     occupation numbers 
     0.0938   0.0938   0.0938   0.0938   0.0938   0.0938   0.0938   0.0938
     0.0938   0.0938   0.0938   0.0938   0.0938   0.0938   0.0938   0.0938
     0.0938   0.0938   0.0938   0.0938   0.0938   0.0938   0.0938   0.0938
     0.0938   0.0938   0.0938   0.0937   0.0937   0.0937   0.0937   0.0937
     0.0937   0.0879   0.0823   0.0775   0.0353   0.0217   0.0013   0.0000
     0.0000   0.0000   0.0000   0.0000   0.0000   0.0000

          k = 0.4942 0.5706-0.1027 (  2198 PWs)   bands (ev):

   -19.6870 -19.6466  -6.8567  -6.5477  -6.0278  -5.7827  -5.3813  -5.2430
    -3.2563  -3.2067  -2.8155  -2.6425  -2.4597  -2.3179   6.0219   6.4039
     7.0408   7.3045   7.3948   7.4705   7.7328   8.0004   8.1290   8.2655
     8.5418   9.0788   9.3367   9.5178   9.8564   9.9716  10.1320  10.5202
    11.6054  11.9914  12.0968  12.1849  12.3199  12.3372  13.1418  13.4996
    14.1198  14.9868  16.9581  17.1802  17.3683  18.0708

     occupation numbers 
     0.0938   0.0938   0.0938   0.0938   0.0938   0.0938   0.0938   0.0938
     0.0938   0.0938   0.0938   0.0938   0.0938   0.0938   0.0938   0.0938
     0.0938   0.0938   0.0938   0.0938   0.0938   0.0938   0.0938   0.0938
     0.0938   0.0938   0.0938   0.0938   0.0938   0.0937   0.0937   0.0937
     0.0930   0.0800   0.0706   0.0607   0.0435   0.0413   0.0002   0.0000
     0.0000   0.0000   0.0000   0.0000   0.0000   0.0000

          k = 0.2471 0.4280 0.0000 (  2203 PWs)   bands (ev):

   -19.6967 -19.6391  -6.7480  -6.5379  -5.9474  -5.8686  -5.3063  -5.2300
    -3.4623  -3.2508  -2.7379  -2.6452  -2.5036  -2.4874   5.9778   6.4238
     7.2576   7.3949   7.4419   7.5178   7.5700   7.9095   8.0204   8.3820
     8.6376   9.1066   9.5647   9.6789   9.9436   9.9488  10.2134  10.5329
    11.8673  11.8812  11.9492  12.1407  12.1612  12.4357  13.1086  13.9747
    14.0942  14.7938  16.5000  17.0496  17.4667  17.9718

     occupation numbers 
     0.0938   0.0938   0.0938   0.0938   0.0938   0.0938   0.0938   0.0938
     0.0938   0.0938   0.0938   0.0938   0.0938   0.0938   0.0938   0.0938
     0.0938   0.0938   0.0938   0.0938   0.0938   0.0938   0.0938   0.0938
     0.0938   0.0938   0.0938   0.0938   0.0937   0.0937   0.0937   0.0937
     0.0872   0.0866   0.0829   0.0659   0.0635   0.0292   0.0002   0.0000
     0.0000   0.0000   0.0000   0.0000   0.0000   0.0000

          k = 0.4942-0.2853-0.4107 (  2202 PWs)   bands (ev):

   -19.6939 -19.6372  -7.0680  -6.3618  -6.1451  -5.8397  -5.4132  -5.1423
    -3.1476  -3.0859  -2.9858  -2.5852  -2.4091  -2.1550   5.9423   6.5150
     6.6134   7.2199   7.2480   7.3248   8.0830   8.1540   8.2578   8.3689
     8.7149   8.8452   8.8650   9.5452   9.7796  10.1569  10.1813  10.6007
    11.2081  11.8866  12.0110  12.2344  12.3752  12.4467  12.8678  13.2596
    14.0460  15.4155  17.0881  17.3387  17.5675  17.6342

     occupation numbers 
     0.0469   0.0469   0.0469   0.0469   0.0469   0.0469   0.0469   0.0469
     0.0469   0.0469   0.0469   0.0469   0.0469   0.0469   0.0469   0.0469
     0.0469   0.0469   0.0469   0.0469   0.0469   0.0469   0.0469   0.0469
     0.0469   0.0469   0.0469   0.0469   0.0469   0.0469   0.0469   0.0469
     0.0469   0.0432   0.0392   0.0273   0.0183   0.0140   0.0011   0.0000
     0.0000   0.0000   0.0000   0.0000   0.0000   0.0000

          k = 0.0000 0.0000 0.3080 (  2187 PWs)   bands (ev):

   -19.7315 -19.6092  -6.5106  -5.8730  -5.8127  -5.8127  -5.7232  -5.7232
    -3.1452  -3.0335  -3.0335  -2.9249  -2.8310  -2.8310   5.6620   7.2059
     7.3272   7.3272   7.5513   7.5513   7.6917   8.0562   8.0562   9.0495
     9.0495   9.5814   9.5833   9.8560   9.8560  10.0649  10.2949  10.2949
    11.6466  11.6466  11.6648  12.3422  12.3422  12.5161  13.1342  13.1342
    14.8821  14.8821  15.9778  15.9778  16.9131  17.5380

     occupation numbers 
     0.0313   0.0313   0.0313   0.0313   0.0313   0.0313   0.0313   0.0313
     0.0313   0.0313   0.0313   0.0313   0.0313   0.0313   0.0313   0.0313
     0.0313   0.0313   0.0313   0.0313   0.0313   0.0313   0.0313   0.0313
     0.0313   0.0313   0.0313   0.0313   0.0313   0.0312   0.0312   0.0312
     0.0309   0.0309   0.0308   0.0136   0.0136   0.0069   0.0001   0.0001
     0.0000   0.0000   0.0000   0.0000   0.0000   0.0000

          k = 0.7412 0.4280 0.0000 (  2204 PWs)   bands (ev):

   -19.6964 -19.6389  -6.6319  -6.5013  -6.0419  -5.7182  -5.5536  -5.4195
    -3.1103  -3.0320  -2.9934  -2.6104  -2.5952  -2.5114   6.0242   6.6105
     7.2680   7.4295   7.4379   7.5359   7.5721   7.8620   8.2056   8.3596
     8.6813   8.9817   9.6371   9.6650   9.7637   9.8320  10.0346  10.3785
    11.8610  11.8862  12.0117  12.1553  12.2048  12.3996  13.1014  13.9003
    14.0179  14.8199  16.7618  16.7710  17.6377  17.8545

     occupation numbers 
     0.0938   0.0938   0.0938   0.0938   0.0938   0.0938   0.0938   0.0938
     0.0938   0.0938   0.0938   0.0938   0.0938   0.0938   0.0938   0.0938
     0.0938   0.0938   0.0938   0.0938   0.0938   0.0938   0.0938   0.0938
     0.0938   0.0938   0.0938   0.0938   0.0938   0.0938   0.0937   0.0937
     0.0875   0.0864   0.0784   0.0642   0.0583   0.0335   0.0002   0.0000
     0.0000   0.0000   0.0000   0.0000   0.0000   0.0000

          k = 0.4942 0.2853 0.1027 (  2211 PWs)   bands (ev):

   -19.6870 -19.6466  -6.8731  -6.4437  -6.2232  -5.5752  -5.5067  -5.2157
    -3.2699  -3.1189  -2.9681  -2.5404  -2.4927  -2.3093   6.0478   6.3772
     7.0073   7.3087   7.3373   7.4524   7.7292   8.0420   8.2036   8.2262
     8.5882   9.2053   9.3401   9.5721   9.7271   9.8292  10.1887  10.5352
    11.6033  12.0404  12.1378  12.2053  12.2653  12.2799  13.1054  13.5089
    14.1639  14.9716  16.9466  16.9836  17.6488  17.9857

     occupation numbers 
     0.0938   0.0938   0.0938   0.0938   0.0938   0.0938   0.0938   0.0938
     0.0938   0.0938   0.0938   0.0938   0.0938   0.0938   0.0938   0.0938
     0.0938   0.0938   0.0938   0.0938   0.0938   0.0938   0.0938   0.0938
     0.0938   0.0938   0.0938   0.0938   0.0938   0.0938   0.0937   0.0937
     0.0930   0.0760   0.0662   0.0582   0.0506   0.0487   0.0002   0.0000
     0.0000   0.0000   0.0000   0.0000   0.0000   0.0000

          k = 0.7412-0.4280-0.3080 (  2210 PWs)   bands (ev):

   -19.6868 -19.6464  -6.8087  -6.3498  -6.2006  -5.6855  -5.6385  -5.3487
    -3.0165  -2.9907  -2.9152  -2.6672  -2.5483  -2.3612   6.1111   6.5345
     7.0910   7.2921   7.3879   7.4058   7.7470   8.0867   8.2253   8.2662
     8.5850   9.1714   9.1880   9.6747   9.7091   9.7699   9.8328  10.3743
    11.6535  12.0448  12.1237  12.1914  12.3001  12.3530  13.0676  13.4682
    14.1161  14.9380  17.1199  17.1307  17.6160  17.9563

     occupation numbers 
     0.0938   0.0938   0.0938   0.0938   0.0938   0.0938   0.0938   0.0938
     0.0938   0.0938   0.0938   0.0938   0.0938   0.0938   0.0938   0.0938
     0.0938   0.0938   0.0938   0.0938   0.0938   0.0938   0.0938   0.0938
     0.0938   0.0938   0.0938   0.0938   0.0938   0.0938   0.0938   0.0937
     0.0925   0.0756   0.0677   0.0599   0.0461   0.0393   0.0003   0.0000
     0.0000   0.0000   0.0000   0.0000   0.0000   0.0000

          k = 0.4942-0.5706-0.2053 (  2206 PWs)   bands (ev):

   -19.6657 -19.6657  -6.7883  -6.7778  -5.9336  -5.9322  -5.2898  -5.2893
    -3.1093  -3.1088  -2.7496  -2.7488  -2.3161  -2.3133   6.2235   6.2513
     7.1726   7.1775   7.3430   7.3537   7.5755   7.5900   8.4234   8.4661
     8.9297   8.9319   9.2341   9.2347   9.7054   9.7126  10.2716  10.2752
    11.8590  11.8684  12.0310  12.0727  12.3463  12.3704  13.1283  13.1474
    14.6509  14.6661  17.4989  17.4995  17.9135  17.9157

     occupation numbers 
     0.0938   0.0938   0.0938   0.0938   0.0938   0.0938   0.0938   0.0938
     0.0938   0.0938   0.0938   0.0938   0.0938   0.0938   0.0938   0.0938
     0.0938   0.0938   0.0938   0.0938   0.0938   0.0938   0.0938   0.0938
     0.0938   0.0938   0.0938   0.0938   0.0938   0.0938   0.0937   0.0937
     0.0876   0.0872   0.0768   0.0730   0.0401   0.0371   0.0002   0.0001
     0.0000   0.0000   0.0000   0.0000   0.0000   0.0000

          k = 0.0000 0.0000-0.6160 (  2186 PWs)   bands (ev):

   -19.6676 -19.6676  -6.4131  -6.3987  -5.8254  -5.8254  -5.8230  -5.8230
    -2.8188  -2.8188  -2.8170  -2.8170  -2.6604  -2.6600   6.3768   6.3783
     7.4285   7.4285   7.4727   7.4727   7.9989   8.0256   8.3108   8.3108
     8.3448   8.3448   9.8165   9.8165   9.8189   9.8189   9.8622   9.8713
    12.0794  12.1084  12.1084  12.1370  12.1606  12.1606  13.8777  13.8777
    13.9827  13.9827  17.1807  17.1807  17.1853  17.1853

     occupation numbers 
     0.0156   0.0156   0.0156   0.0156   0.0156   0.0156   0.0156   0.0156
     0.0156   0.0156   0.0156   0.0156   0.0156   0.0156   0.0156   0.0156
     0.0156   0.0156   0.0156   0.0156   0.0156   0.0156   0.0156   0.0156
     0.0156   0.0156   0.0156   0.0156   0.0156   0.0156   0.0156   0.0156
     0.0121   0.0116   0.0116   0.0110   0.0106   0.0106   0.0000   0.0000
     0.0000   0.0000   0.0000   0.0000   0.0000   0.0000

          k = 0.4942-0.5706 0.1027 (  2198 PWs)   bands (ev):

   -19.6870 -19.6466  -6.8572  -6.5469  -6.0288  -5.7815  -5.3823  -5.2425
    -3.2570  -3.2066  -2.8156  -2.6415  -2.4605  -2.3175   6.0195   6.4075
     7.0368   7.3109   7.4143   7.4557   7.7216   8.0011   8.1035   8.2961
     8.5384   9.0860   9.3321   9.5151   9.8531   9.9747  10.1322  10.5209
    11.6027  12.0195  12.0715  12.1857  12.3230  12.3342  13.1391  13.4992
    14.1197  14.9881  16.9603  17.1777  17.3688  18.0706

     occupation numbers 
     0.0938   0.0938   0.0938   0.0938   0.0938   0.0938   0.0938   0.0938
     0.0938   0.0938   0.0938   0.0938   0.0938   0.0938   0.0938   0.0938
     0.0938   0.0938   0.0938   0.0938   0.0938   0.0938   0.0938   0.0938
     0.0938   0.0938   0.0938   0.0938   0.0938   0.0937   0.0937   0.0937
     0.0930   0.0777   0.0731   0.0606   0.0431   0.0417   0.0002   0.0000
     0.0000   0.0000   0.0000   0.0000   0.0000   0.0000

     the Fermi energy is    12.2940 ev

!    total energy              =    -538.35542515 Ry
     Harris-Foulkes estimate   =    -538.35541952 Ry
     estimated scf accuracy    <          6.8E-09 Ry

     The total energy is the sum of the following terms:

     one-electron contribution =     -32.74535118 Ry
     hartree contribution      =      83.52625252 Ry
     xc contribution           =    -199.65324734 Ry
     ewald contribution        =    -389.44315552 Ry
     Hubbard energy            =       0.00000000 Ry
     smearing contrib. (-TS)   =      -0.03992363 Ry

     total magnetization       =     3.54 Bohr mag/cell
     absolute magnetization    =     3.69 Bohr mag/cell

     convergence has been achieved in  34 iterations

     Writing output data file CoLaO_U0.save

     init_run     :     16.97s CPU     17.39s WALL (       1 calls)
     electrons    :    789.58s CPU    836.72s WALL (       1 calls)

     Called by init_run:
     wfcinit      :      8.33s CPU      8.66s WALL (       1 calls)
     potinit      :      1.71s CPU      1.72s WALL (       1 calls)

     Called by electrons:
     c_bands      :    510.67s CPU    549.52s WALL (      34 calls)
     sum_band     :    171.35s CPU    174.24s WALL (      34 calls)
     v_of_rho     :     26.12s CPU     26.50s WALL (      35 calls)
     v_h          :      0.51s CPU      0.56s WALL (      35 calls)
     v_xc         :     25.60s CPU     25.93s WALL (      35 calls)
     newd         :     78.65s CPU     79.08s WALL (      35 calls)
     mix_rho      :      2.15s CPU      3.42s WALL (      34 calls)

     Called by c_bands:
     init_us_2    :      7.01s CPU      7.06s WALL (    1960 calls)
     cegterg      :    492.73s CPU    496.69s WALL (     952 calls)

     Called by sum_band:
     sum_band:bec :      0.72s CPU      0.72s WALL (     952 calls)
     addusdens    :     69.98s CPU     70.34s WALL (      34 calls)

     Called by *egterg:
     h_psi        :    385.70s CPU    388.76s WALL (    2771 calls)
     s_psi        :     22.20s CPU     22.29s WALL (    2799 calls)
     g_psi        :      1.78s CPU      1.78s WALL (    1791 calls)
     cdiaghg      :     27.22s CPU     27.33s WALL (    2743 calls)
     cegterg:over :     22.34s CPU     22.51s WALL (    1791 calls)
     cegterg:upda :     14.05s CPU     14.17s WALL (    1791 calls)
     cegterg:last :      8.19s CPU      8.30s WALL (     952 calls)

     Called by h_psi:
     h_psi:vloc   :    313.78s CPU    316.36s WALL (    2771 calls)
     h_psi:vnl    :     45.59s CPU     45.88s WALL (    2771 calls)
     add_vuspsi   :     21.93s CPU     22.07s WALL (    2771 calls)
     vhpsi        :     25.28s CPU     25.44s WALL (    2771 calls)

     General routines
     calbec       :     51.45s CPU     51.81s WALL (    7474 calls)
     fft          :     11.15s CPU     11.27s WALL (    1075 calls)
     ffts         :      0.39s CPU      0.39s WALL (     138 calls)
     fftw         :    320.92s CPU    323.75s WALL (  240222 calls)
     interpolate  :      2.08s CPU      2.11s WALL (     138 calls)
     davcio       :      0.07s CPU     11.98s WALL (    6410 calls)

     Parallel routines
     fft_scatter  :     82.95s CPU     84.16s WALL (  241435 calls)
     Hubbard U routines
     new_ns       :      5.15s CPU      6.48s WALL (      34 calls)
     vhpsi        :     25.28s CPU     25.44s WALL (    2771 calls)

     PWSCF        : 13m27.28s CPU    14m15.07s WALL


   This run was terminated on:  12: 2:51  13Nov2012            

=------------------------------------------------------------------------------=
