   JOB DONE.
=------------------------------------------------------------------------------=

     Program PWSCF v.5.0.1 starts on 13Nov2012 at 12:10:19 

     This program is part of the open-source Quantum ESPRESSO suite
     for quantum simulation of materials; please cite
         "P. Giannozzi et al., J. Phys.:Condens. Matter 21 395502 (2009);
          URL http://www.quantum-espresso.org", 
     in publications or presentations arising from this work. More details at
     http://www.quantum-espresso.org/quote.php

     Parallel version (MPI), running on     2 processors
     R & G space division:  proc/pool =    2

     Current dimensions of program PWSCF are:
     Max number of different atomic species (ntypx) = 10
     Max number of k-points (npk) =  40000
     Max angular momentum in pseudopotentials (lmaxx) =  3
     Reading input from CoLaO_U0_a-10.in
               file Co.pbe-nd-rrkjus.UPF: wavefunction(s)  4S 3D renormalized
               file O.pbe-rrkjus.UPF: wavefunction(s)  2S renormalized

     Subspace diagonalization in iterative solution of the eigenvalue problem:
     a serial algorithm will be used


     Parallelization info
     --------------------
     sticks:   dense  smooth     PW     G-vecs:    dense   smooth      PW
     Min        1112     444    131                34808     8786    1448
     Max        1113     445    132                34809     8787    1449
     Sum        2225     889    263                69617    17573    2897


     Title: 
     GGA + U, U = 1D-40, alpha = -0.100                                         


     bravais-lattice index     =            5
     lattice parameter (alat)  =      10.3292  a.u.
     unit-cell volume          =     793.0599 (a.u.)^3
     number of atoms/cell      =           10
     number of atomic types    =            4
     number of electrons       =        76.00
     number of Kohn-Sham states=           46
     kinetic-energy cutoff     =      30.0000  Ry
     charge density cutoff     =     300.0000  Ry
     convergence threshold     =      1.0E-08
     mixing beta               =       0.2000
     number of iterations used =            8  plain     mixing
     Exchange-correlation      =  SLA  PW   PBE  PBE ( 1 4 3 4 0)
     EXX-fraction              =        0.00

     celldm(1)=  10.329242  celldm(2)=   0.000000  celldm(3)=   0.000000
     celldm(4)=   0.488100  celldm(5)=   0.000000  celldm(6)=   0.000000

     crystal axes: (cart. coord. in units of alat)
               a(1) = (   0.505915  -0.292090   0.811624 )  
               a(2) = (   0.000000   0.584180   0.811624 )  
               a(3) = (  -0.505915  -0.292090   0.811624 )  

     reciprocal axes: (cart. coord. in units 2 pi/alat)
               b(1) = (  0.988308 -0.570600  0.410699 )  
               b(2) = (  0.000000  1.141200  0.410699 )  
               b(3) = ( -0.988308 -0.570600  0.410699 )  


     PseudoPot. # 1 for Co read from file:
     /home/mcurnan/dft-course/Project1/example_LaCoO3/Co.pbe-nd-rrkjus.UPF
     MD5 check sum: 3e47a84addf5e975e0edeaeee2a73f59
     Pseudo is Ultrasoft + core correction, Zval =  9.0
     Generated by new atomic code, or converted to UPF format
     Using radial grid of  961 points,  6 beta functions with: 
                l(1) =   0
                l(2) =   0
                l(3) =   1
                l(4) =   1
                l(5) =   2
                l(6) =   2
     Q(r) pseudized with 0 coefficients 


     PseudoPot. # 2 for La read from file:
     /home/mcurnan/dft-course/Project1/example_LaCoO3/La.pbe-nsp-van.UPF
     MD5 check sum: b2f11743f52dde65f77d1302becd7929
     Pseudo is Ultrasoft + core correction, Zval = 11.0
     Generated by new atomic code, or converted to UPF format
     Using radial grid of  907 points,  6 beta functions with: 
                l(1) =   0
                l(2) =   0
                l(3) =   1
                l(4) =   1
                l(5) =   2
                l(6) =   2
     Q(r) pseudized with  6 coefficients,  rinner =    1.200   1.200   1.200
                                                       1.200   1.200

     PseudoPot. # 3 for La read from file:
     /home/mcurnan/dft-course/Project1/example_LaCoO3/La.pbe-nsp-van.UPF
     MD5 check sum: b2f11743f52dde65f77d1302becd7929
     Pseudo is Ultrasoft + core correction, Zval = 11.0
     Generated by new atomic code, or converted to UPF format
     Using radial grid of  907 points,  6 beta functions with: 
                l(1) =   0
                l(2) =   0
                l(3) =   1
                l(4) =   1
                l(5) =   2
                l(6) =   2
     Q(r) pseudized with  6 coefficients,  rinner =    1.200   1.200   1.200
                                                       1.200   1.200

     PseudoPot. # 4 for O  read from file:
     /home/mcurnan/dft-course/Project1/example_LaCoO3/O.pbe-rrkjus.UPF
     MD5 check sum: 390ba29e75625707450f3bd3f0eb6be9
     Pseudo is Ultrasoft, Zval =  6.0
     Generated by new atomic code, or converted to UPF format
     Using radial grid of 1269 points,  4 beta functions with: 
                l(1) =   0
                l(2) =   0
                l(3) =   1
                l(4) =   1
     Q(r) pseudized with 0 coefficients 


     atomic species   valence    mass     pseudopotential
        Co1            9.00     1.00000     Co( 1.00)
        La1           11.00     1.00000     La( 1.00)
        La2           11.00     1.00000     La( 1.00)
        O1             6.00     1.00000     O ( 1.00)

     Starting magnetic structure 
     atomic species   magnetization
        Co1          1.000
        La1          0.000
        La2          0.000
        O1           0.000
 -----
     simplified LDA+U calculation, Hubbard_lmax = 2
     atomic species  L   Hubbard U  Hubbard alpha
        Co1          2    0.000000    0.000000
        La1          2    0.000000   -0.100000
        La2          2    0.000000    0.000000
        O1           1    0.000000    0.000000
 -----

      3 Sym. Ops. (no inversion) found


                                    s                        frac. trans.

      isym =  1     identity                                     

 cryst.   s( 1) = (     1          0          0      )
                  (     0          1          0      )
                  (     0          0          1      )

 cart.    s( 1) = (  1.0000000  0.0000000  0.0000000 )
                  (  0.0000000  1.0000000  0.0000000 )
                  (  0.0000000  0.0000000  1.0000000 )


      isym =  2     120 deg rotation - cryst. axis [0,0,1]       

 cryst.   s( 2) = (     0          1          0      )
                  (     0          0          1      )
                  (     1          0          0      )

 cart.    s( 2) = ( -0.5000000 -0.8660254  0.0000000 )
                  (  0.8660254 -0.5000000  0.0000000 )
                  (  0.0000000  0.0000000  1.0000000 )


      isym =  3     120 deg rotation - cryst. axis [0,0,-1]      

 cryst.   s( 3) = (     0          0          1      )
                  (     1          0          0      )
                  (     0          1          0      )

 cart.    s( 3) = ( -0.5000000  0.8660254  0.0000000 )
                  ( -0.8660254 -0.5000000  0.0000000 )
                  (  0.0000000  0.0000000  1.0000000 )


     point group C_3 (3)    
     there are  3 classes
     the character table:

       E     C3    C3^2 
A      1.00  1.00  1.00
E      1.00 -0.50 -0.50
E*     1.00 -0.50 -0.50
     imaginary part
A      0.00  0.00  0.00
E      0.00  0.87 -0.87
E*     0.00 -0.87  0.87

     the symmetry operations in each class:
     E        1
     C3       2
     C3^2     3

   Cartesian axes

     site n.     atom                  positions (alat units)
         1           Co1 tau(   1) = (   0.0000000   0.0000000   1.8261537  )
         2           Co1 tau(   2) = (   0.0000000   0.0000000   0.6087179  )
         3           La1 tau(   3) = (   0.0000000   0.0000000   0.0000000  )
         4           La2 tau(   4) = (   0.0000000   0.0000000   1.2174358  )
         5           O1  tau(   5) = (   0.2831100  -0.0928263   1.6236536  )
         6           O1  tau(   6) = (  -0.2219449  -0.1987674   1.6236536  )
         7           O1  tau(   7) = (  -0.0611651   0.2915936   1.6236536  )
         8           O1  tau(   8) = (   0.2228050   0.3849164   1.2170300  )
         9           O1  tau(   9) = (   0.2219449  -0.3854130   1.2170300  )
        10           O1  tau(  10) = (  -0.4447499   0.0004966   1.2170300  )

   Crystallographic axes

     site n.     atom                  positions (cryst. coord.)
         1           Co1 tau(   1) = (  0.7500000  0.7500000  0.7500000  )
         2           Co1 tau(   2) = (  0.2500000  0.2500000  0.2500000  )
         3           La1 tau(   3) = (  0.0000000  0.0000000  0.0000000  )
         4           La2 tau(   4) = (  0.5000000  0.5000000  0.5000000  )
         5           O1  tau(   5) = (  0.9996000  0.5609000  0.4400000  )
         6           O1  tau(   6) = (  0.5609000  0.4400000  0.9996000  )
         7           O1  tau(   7) = (  0.4400000  0.9996000  0.5609000  )
         8           O1  tau(   8) = (  0.5004000  0.9391000  0.0600000  )
         9           O1  tau(   9) = (  0.9391000  0.0600000  0.5004000  )
        10           O1  tau(  10) = (  0.0600000  0.5004000  0.9391000  )

     number of k points=    28  gaussian smearing, width (Ry)=  0.0300
                       cart. coord. in units 2pi/alat
        k(    1) = (   0.0000000   0.0000000   0.0000000), wk =   0.0156250
        k(    2) = (  -0.2470771  -0.1426500   0.1026748), wk =   0.0937500
        k(    3) = (   0.4941541   0.2853000  -0.2053496), wk =   0.0468750
        k(    4) = (  -0.2470771   0.1426500   0.2053496), wk =   0.0937500
        k(    5) = (   0.4941541   0.5706001  -0.1026748), wk =   0.0937500
        k(    6) = (   0.2470771   0.4279500   0.0000000), wk =   0.0937500
        k(    7) = (   0.4941541  -0.2853000  -0.4106993), wk =   0.0468750
        k(    8) = (   0.0000000   0.0000000   0.3080244), wk =   0.0312500
        k(    9) = (   0.7412312   0.4279500   0.0000000), wk =   0.0937500
        k(   10) = (   0.4941541   0.2853000   0.1026748), wk =   0.0937500
        k(   11) = (   0.7412312  -0.4279500  -0.3080244), wk =   0.0937500
        k(   12) = (   0.4941541  -0.5706001  -0.2053496), wk =   0.0937500
        k(   13) = (   0.0000000   0.0000000  -0.6160489), wk =   0.0156250
        k(   14) = (   0.4941541  -0.5706001   0.1026748), wk =   0.0937500
        k(   15) = (   0.0000000   0.0000000   0.0000000), wk =   0.0156250
        k(   16) = (  -0.2470771  -0.1426500   0.1026748), wk =   0.0937500
        k(   17) = (   0.4941541   0.2853000  -0.2053496), wk =   0.0468750
        k(   18) = (  -0.2470771   0.1426500   0.2053496), wk =   0.0937500
        k(   19) = (   0.4941541   0.5706001  -0.1026748), wk =   0.0937500
        k(   20) = (   0.2470771   0.4279500   0.0000000), wk =   0.0937500
        k(   21) = (   0.4941541  -0.2853000  -0.4106993), wk =   0.0468750
        k(   22) = (   0.0000000   0.0000000   0.3080244), wk =   0.0312500
        k(   23) = (   0.7412312   0.4279500   0.0000000), wk =   0.0937500
        k(   24) = (   0.4941541   0.2853000   0.1026748), wk =   0.0937500
        k(   25) = (   0.7412312  -0.4279500  -0.3080244), wk =   0.0937500
        k(   26) = (   0.4941541  -0.5706001  -0.2053496), wk =   0.0937500
        k(   27) = (   0.0000000   0.0000000  -0.6160489), wk =   0.0156250
        k(   28) = (   0.4941541  -0.5706001   0.1026748), wk =   0.0937500

                       cryst. coord.
        k(    1) = (   0.0000000   0.0000000   0.0000000), wk =   0.0156250
        k(    2) = (   0.0000000   0.0000000   0.2500000), wk =   0.0937500
        k(    3) = (   0.0000000   0.0000000  -0.5000000), wk =   0.0468750
        k(    4) = (   0.0000000   0.2500000   0.2500000), wk =   0.0937500
        k(    5) = (   0.0000000   0.2500000  -0.5000000), wk =   0.0937500
        k(    6) = (   0.0000000   0.2500000  -0.2500000), wk =   0.0937500
        k(    7) = (   0.0000000  -0.5000000  -0.5000000), wk =   0.0468750
        k(    8) = (   0.2500000   0.2500000   0.2500000), wk =   0.0312500
        k(    9) = (   0.2500000   0.2500000  -0.5000000), wk =   0.0937500
        k(   10) = (   0.2500000   0.2500000  -0.2500000), wk =   0.0937500
        k(   11) = (   0.2500000  -0.5000000  -0.5000000), wk =   0.0937500
        k(   12) = (   0.2500000  -0.5000000  -0.2500000), wk =   0.0937500
        k(   13) = (  -0.5000000  -0.5000000  -0.5000000), wk =   0.0156250
        k(   14) = (   0.5000000  -0.2500000   0.0000000), wk =   0.0937500
        k(   15) = (   0.0000000   0.0000000   0.0000000), wk =   0.0156250
        k(   16) = (   0.0000000   0.0000000   0.2500000), wk =   0.0937500
        k(   17) = (   0.0000000   0.0000000  -0.5000000), wk =   0.0468750
        k(   18) = (   0.0000000   0.2500000   0.2500000), wk =   0.0937500
        k(   19) = (   0.0000000   0.2500000  -0.5000000), wk =   0.0937500
        k(   20) = (   0.0000000   0.2500000  -0.2500000), wk =   0.0937500
        k(   21) = (   0.0000000  -0.5000000  -0.5000000), wk =   0.0468750
        k(   22) = (   0.2500000   0.2500000   0.2500000), wk =   0.0312500
        k(   23) = (   0.2500000   0.2500000  -0.5000000), wk =   0.0937500
        k(   24) = (   0.2500000   0.2500000  -0.2500000), wk =   0.0937500
        k(   25) = (   0.2500000  -0.5000000  -0.5000000), wk =   0.0937500
        k(   26) = (   0.2500000  -0.5000000  -0.2500000), wk =   0.0937500
        k(   27) = (  -0.5000000  -0.5000000  -0.5000000), wk =   0.0156250
        k(   28) = (   0.5000000  -0.2500000   0.0000000), wk =   0.0937500

     Dense  grid:    69617 G-vectors     FFT dimensions: (  60,  60,  60)

     Smooth grid:    17573 G-vectors     FFT dimensions: (  40,  40,  40)

     Largest allocated arrays     est. size (Mb)     dimensions
        Kohn-Sham Wavefunctions         0.78 Mb     (   1117,   46)
        Atomic wavefunctions            1.06 Mb     (   1117,   62)
        NL pseudopotentials             2.05 Mb     (   1117,  120)
        Each V/rho on FFT grid          3.30 Mb     ( 108000,   2)
        Each G-vector array             0.27 Mb     (  34808)
        G-vector shells                 0.04 Mb     (   4682)
     Largest temporary arrays     est. size (Mb)     dimensions
        Auxiliary wavefunctions         3.14 Mb     (   1117,  184)
        Each subspace H/S matrix        0.52 Mb     ( 184, 184)
        Each <psi_i|beta_j> matrix      0.08 Mb     (    120,   46)
        Arrays for rho mixing          13.18 Mb     ( 108000,   8)

     Check: negative/imaginary core charge=   -0.000028    0.000000

     The initial density is read from file :
     /home/mcurnan/dft-course/Project1/example_LaCoO3/0/La/alpha/CoLaO_U0.save/charge-density.dat

 --- in v_hubbard ---
Hubbard energy   -0.0280
 -------
     Number of +U iterations with fixed ns =  0
     Starting occupations:
 --- enter write_ns ---
 LDA+U parameters:
U( 1)     =  0.00000000
alpha( 1) =  0.00000000
U( 2)     =  0.00000000
alpha( 2) = -0.10000000
U( 3)     =  0.00000000
alpha( 3) =  0.00000000
U( 4)     =  0.00000000
alpha( 4) =  0.00000000
atom    1   Tr[ns(na)] (up, down, total) =   4.56594  3.37373  7.93967
   spin  1
    eigenvalues: 
  0.785  0.785  0.999  0.999  0.999
    eigenvectors:
  0.000  0.000  0.000  0.000  1.000
  0.423  0.223  0.056  0.298  0.000
  0.223  0.423  0.298  0.056  0.000
  0.346  0.008  0.556  0.090  0.000
  0.008  0.346  0.090  0.556  0.000
    occupations:
  0.999  0.000  0.000  0.000  0.000
  0.000  0.861  0.000 -0.073  0.072
  0.000  0.000  0.861  0.072  0.073
  0.000 -0.073  0.072  0.923  0.000
  0.000  0.072  0.073  0.000  0.923
   spin  2
    eigenvalues: 
  0.474  0.474  0.773  0.826  0.826
    eigenvectors:
  0.000  0.000  1.000  0.000  0.000
  0.277  0.362  0.000  0.034  0.327
  0.362  0.277  0.000  0.327  0.034
  0.278  0.083  0.000  0.476  0.163
  0.083  0.278  0.000  0.163  0.476
    occupations:
  0.773  0.000  0.000  0.000  0.000
  0.000  0.601  0.000 -0.037  0.165
  0.000  0.000  0.601  0.165  0.037
  0.000 -0.037  0.165  0.699  0.000
  0.000  0.165  0.037  0.000  0.699
atomic mag. moment =     1.192216
atom    2   Tr[ns(na)] (up, down, total) =   4.67286  3.22479  7.89766
   spin  1
    eigenvalues: 
  0.838  0.838  0.999  0.999  0.999
    eigenvectors:
  0.000  0.000  0.000  0.000  1.000
  0.643  0.003  0.325  0.029  0.000
  0.003  0.643  0.029  0.325  0.000
  0.152  0.202  0.500  0.146  0.000
  0.202  0.152  0.146  0.500  0.000
    occupations:
  0.999  0.000  0.000  0.000  0.000
  0.000  0.895  0.000  0.054  0.054
  0.000  0.000  0.895  0.054 -0.054
  0.000  0.054  0.054  0.942  0.000
  0.000  0.054 -0.054  0.000  0.942
   spin  2
    eigenvalues: 
  0.459  0.459  0.730  0.788  0.788
    eigenvectors:
  0.000  0.000  1.000  0.000  0.000
  0.508  0.128  0.000  0.189  0.175
  0.128  0.508  0.000  0.175  0.189
  0.020  0.345  0.000  0.447  0.188
  0.345  0.020  0.000  0.188  0.447
    occupations:
  0.730  0.000  0.000  0.000  0.000
  0.000  0.579  0.000  0.036  0.154
  0.000  0.000  0.579  0.154 -0.036
  0.000  0.036  0.154  0.668  0.000
  0.000  0.154 -0.036  0.000  0.668
atomic mag. moment =     1.448071
atom    3   Tr[ns(na)] (up, down, total) =   1.91458  1.90025  3.81482
   spin  1
    eigenvalues: 
  0.357  0.357  0.387  0.407  0.407
    eigenvectors:
  0.000  0.000  1.000  0.000  0.000
  0.786  0.138  0.000  0.011  0.065
  0.138  0.786  0.000  0.065  0.011
  0.012  0.064  0.000  0.785  0.139
  0.064  0.012  0.000  0.139  0.785
    occupations:
  0.387  0.000  0.000  0.000  0.000
  0.000  0.361  0.000  0.000  0.013
  0.000  0.000  0.361  0.013  0.000
  0.000  0.000  0.013  0.403  0.000
  0.000  0.013  0.000  0.000  0.403
   spin  2
    eigenvalues: 
  0.353  0.353  0.387  0.404  0.404
    eigenvectors:
  0.000  0.000  1.000  0.000  0.000
  0.765  0.145  0.000  0.013  0.077
  0.145  0.765  0.000  0.077  0.013
  0.015  0.074  0.000  0.768  0.142
  0.074  0.015  0.000  0.142  0.768
    occupations:
  0.387  0.000  0.000  0.000  0.000
  0.000  0.358  0.000  0.000  0.015
  0.000  0.000  0.358  0.015  0.000
  0.000  0.000  0.015  0.399  0.000
  0.000  0.015  0.000  0.000  0.399
atomic mag. moment =     0.014329
atom    4   Tr[ns(na)] (up, down, total) =   1.91458  1.90025  3.81482
   spin  1
    eigenvalues: 
  0.357  0.357  0.387  0.407  0.407
    eigenvectors:
  0.000  0.000  1.000  0.000  0.000
  0.786  0.138  0.000  0.011  0.065
  0.138  0.786  0.000  0.065  0.011
  0.012  0.064  0.000  0.785  0.139
  0.064  0.012  0.000  0.139  0.785
    occupations:
  0.387  0.000  0.000  0.000  0.000
  0.000  0.361  0.000  0.000  0.013
  0.000  0.000  0.361  0.013  0.000
  0.000  0.000  0.013  0.403  0.000
  0.000  0.013  0.000  0.000  0.403
   spin  2
    eigenvalues: 
  0.353  0.353  0.387  0.404  0.404
    eigenvectors:
  0.000  0.000  1.000  0.000  0.000
  0.765  0.145  0.000  0.013  0.077
  0.145  0.765  0.000  0.077  0.013
  0.015  0.074  0.000  0.768  0.142
  0.074  0.015  0.000  0.142  0.768
    occupations:
  0.387  0.000  0.000  0.000  0.000
  0.000  0.358  0.000  0.000  0.015
  0.000  0.000  0.358  0.015  0.000
  0.000  0.000  0.015  0.399  0.000
  0.000  0.015  0.000  0.000  0.399
atomic mag. moment =     0.014329
atom    5   Tr[ns(na)] (up, down, total) =   2.74225  2.70308  5.44533
   spin  1
    eigenvalues: 
  0.844  0.947  0.951
    eigenvectors:
  0.337  0.000  0.663
  0.508  0.244  0.248
  0.155  0.756  0.089
    occupations:
  0.915 -0.044  0.025
 -0.044  0.896  0.029
  0.025  0.029  0.932
   spin  2
    eigenvalues: 
  0.864  0.920  0.920
    eigenvectors:
  0.333  0.053  0.613
  0.514  0.100  0.386
  0.153  0.847  0.000
    occupations:
  0.901 -0.023  0.013
 -0.023  0.891  0.016
  0.013  0.016  0.911
atomic mag. moment =     0.039174
atom    6   Tr[ns(na)] (up, down, total) =   2.74225  2.70308  5.44533
   spin  1
    eigenvalues: 
  0.844  0.947  0.951
    eigenvectors:
  0.337  0.000  0.663
  0.487  0.256  0.257
  0.176  0.744  0.080
    occupations:
  0.915  0.044  0.026
  0.044  0.898 -0.030
  0.026 -0.030  0.929
   spin  2
    eigenvalues: 
  0.864  0.920  0.920
    eigenvectors:
  0.333  0.053  0.613
  0.486  0.408  0.106
  0.181  0.539  0.280
    occupations:
  0.901  0.022  0.014
  0.022  0.893 -0.016
  0.014 -0.016  0.910
atomic mag. moment =     0.039174
atom    7   Tr[ns(na)] (up, down, total) =   2.74225  2.70308  5.44533
   spin  1
    eigenvalues: 
  0.844  0.947  0.951
    eigenvectors:
  0.337  0.000  0.663
  0.000  1.000  0.000
  0.663  0.000  0.337
    occupations:
  0.915  0.001 -0.051
  0.001  0.947  0.001
 -0.051  0.001  0.880
   spin  2
    eigenvalues: 
  0.864  0.920  0.920
    eigenvectors:
  0.333  0.053  0.613
  0.000  0.912  0.087
  0.666  0.035  0.299
    occupations:
  0.901  0.001 -0.026
  0.001  0.920  0.001
 -0.026  0.001  0.883
atomic mag. moment =     0.039174
atom    8   Tr[ns(na)] (up, down, total) =   2.74225  2.70308  5.44533
   spin  1
    eigenvalues: 
  0.844  0.947  0.951
    eigenvectors:
  0.337  0.000  0.663
  0.508  0.244  0.248
  0.155  0.756  0.089
    occupations:
  0.915 -0.044  0.025
 -0.044  0.896  0.029
  0.025  0.029  0.932
   spin  2
    eigenvalues: 
  0.864  0.920  0.920
    eigenvectors:
  0.333  0.053  0.613
  0.514  0.100  0.386
  0.153  0.847  0.000
    occupations:
  0.901 -0.023  0.013
 -0.023  0.891  0.016
  0.013  0.016  0.911
atomic mag. moment =     0.039174
atom    9   Tr[ns(na)] (up, down, total) =   2.74225  2.70308  5.44533
   spin  1
    eigenvalues: 
  0.844  0.947  0.951
    eigenvectors:
  0.337  0.000  0.663
  0.487  0.256  0.257
  0.176  0.744  0.080
    occupations:
  0.915  0.044  0.026
  0.044  0.898 -0.030
  0.026 -0.030  0.929
   spin  2
    eigenvalues: 
  0.864  0.920  0.920
    eigenvectors:
  0.333  0.053  0.613
  0.486  0.408  0.106
  0.181  0.539  0.280
    occupations:
  0.901  0.022  0.014
  0.022  0.893 -0.016
  0.014 -0.016  0.910
atomic mag. moment =     0.039174
atom   10   Tr[ns(na)] (up, down, total) =   2.74225  2.70308  5.44533
   spin  1
    eigenvalues: 
  0.844  0.947  0.951
    eigenvectors:
  0.337  0.000  0.663
  0.000  1.000  0.000
  0.663  0.000  0.337
    occupations:
  0.915  0.001 -0.051
  0.001  0.947  0.001
 -0.051  0.001  0.880
   spin  2
    eigenvalues: 
  0.864  0.920  0.920
    eigenvectors:
  0.333  0.053  0.613
  0.000  0.912  0.087
  0.666  0.035  0.299
    occupations:
  0.901  0.001 -0.026
  0.001  0.920  0.001
 -0.026  0.001  0.883
atomic mag. moment =     0.039174
N of occupied +U levels =  56.1389484
 --- exit write_ns ---
 LDA+U Projector read from file 
     Starting wfc from file

     total cpu time spent up to now is        9.4 secs

     per-process dynamical memory:    67.0 Mb

     Self-consistent Calculation

     iteration #  1     ecut=    30.00 Ry     beta=0.20
     Davidson diagonalization with overlap
     c_bands:  1 eigenvalues not converged
     c_bands:  1 eigenvalues not converged
     c_bands:  1 eigenvalues not converged
     c_bands:  1 eigenvalues not converged
     c_bands:  1 eigenvalues not converged
     c_bands:  1 eigenvalues not converged
     c_bands:  1 eigenvalues not converged
     c_bands:  1 eigenvalues not converged
     c_bands:  1 eigenvalues not converged
     c_bands:  1 eigenvalues not converged
     c_bands:  1 eigenvalues not converged
     c_bands:  1 eigenvalues not converged
     c_bands:  1 eigenvalues not converged
     c_bands:  1 eigenvalues not converged
     c_bands:  1 eigenvalues not converged
     c_bands:  1 eigenvalues not converged
     c_bands:  1 eigenvalues not converged
     c_bands:  1 eigenvalues not converged
     ethr =  1.00E-10,  avg # of iterations = 18.5
 --- enter write_ns ---
 LDA+U parameters:
U( 1)     =  0.00000000
alpha( 1) =  0.00000000
U( 2)     =  0.00000000
alpha( 2) = -0.10000000
U( 3)     =  0.00000000
alpha( 3) =  0.00000000
U( 4)     =  0.00000000
alpha( 4) =  0.00000000
atom    1   Tr[ns(na)] (up, down, total) =   4.56602  3.37394  7.93996
   spin  1
    eigenvalues: 
  0.785  0.785  0.999  0.999  0.999
    eigenvectors:
  0.000  0.000  0.000  0.000  1.000
  0.423  0.223  0.056  0.298  0.000
  0.223  0.423  0.298  0.056  0.000
  0.346  0.008  0.556  0.090  0.000
  0.008  0.346  0.090  0.556  0.000
    occupations:
  0.999  0.000  0.000  0.000  0.000
  0.000  0.861  0.000 -0.073  0.072
  0.000  0.000  0.861  0.072  0.073
  0.000 -0.073  0.072  0.923  0.000
  0.000  0.072  0.073  0.000  0.923
   spin  2
    eigenvalues: 
  0.474  0.474  0.773  0.826  0.826
    eigenvectors:
  0.000  0.000  1.000  0.000  0.000
  0.277  0.362  0.000  0.034  0.327
  0.362  0.277  0.000  0.327  0.034
  0.278  0.083  0.000  0.476  0.163
  0.083  0.278  0.000  0.163  0.476
    occupations:
  0.773  0.000  0.000  0.000  0.000
  0.000  0.601  0.000 -0.037  0.165
  0.000  0.000  0.601  0.165  0.037
  0.000 -0.037  0.165  0.699  0.000
  0.000  0.165  0.037  0.000  0.699
atomic mag. moment =     1.192085
atom    2   Tr[ns(na)] (up, down, total) =   4.67253  3.22301  7.89554
   spin  1
    eigenvalues: 
  0.838  0.838  0.999  0.999  0.999
    eigenvectors:
  0.000  0.000  0.000  0.000  1.000
  0.643  0.003  0.325  0.029  0.000
  0.003  0.643  0.029  0.325  0.000
  0.152  0.202  0.500  0.146  0.000
  0.202  0.152  0.146  0.500  0.000
    occupations:
  0.999  0.000  0.000  0.000  0.000
  0.000  0.895  0.000  0.055  0.054
  0.000  0.000  0.895  0.054 -0.055
  0.000  0.055  0.054  0.942  0.000
  0.000  0.054 -0.055  0.000  0.942
   spin  2
    eigenvalues: 
  0.459  0.459  0.729  0.788  0.788
    eigenvectors:
  0.000  0.000  1.000  0.000  0.000
  0.507  0.129  0.000  0.189  0.175
  0.129  0.507  0.000  0.175  0.189
  0.020  0.344  0.000  0.447  0.188
  0.344  0.020  0.000  0.188  0.447
    occupations:
  0.729  0.000  0.000  0.000  0.000
  0.000  0.579  0.000  0.036  0.154
  0.000  0.000  0.579  0.154 -0.036
  0.000  0.036  0.154  0.668  0.000
  0.000  0.154 -0.036  0.000  0.668
atomic mag. moment =     1.449516
atom    3   Tr[ns(na)] (up, down, total) =   1.93293  1.91870  3.85163
   spin  1
    eigenvalues: 
  0.361  0.361  0.390  0.411  0.411
    eigenvectors:
  0.000  0.000  1.000  0.000  0.000
  0.789  0.137  0.000  0.010  0.064
  0.137  0.789  0.000  0.064  0.010
  0.012  0.062  0.000  0.788  0.138
  0.062  0.012  0.000  0.138  0.788
    occupations:
  0.390  0.000  0.000  0.000  0.000
  0.000  0.365  0.000  0.000  0.013
  0.000  0.000  0.365  0.013  0.000
  0.000  0.000  0.013  0.407  0.000
  0.000  0.013  0.000  0.000  0.407
   spin  2
    eigenvalues: 
  0.357  0.357  0.390  0.407  0.407
    eigenvectors:
  0.000  0.000  1.000  0.000  0.000
  0.768  0.144  0.000  0.013  0.075
  0.144  0.768  0.000  0.075  0.013
  0.015  0.073  0.000  0.770  0.142
  0.073  0.015  0.000  0.142  0.770
    occupations:
  0.390  0.000  0.000  0.000  0.000
  0.000  0.361  0.000  0.000  0.014
  0.000  0.000  0.361  0.014  0.000
  0.000  0.000  0.014  0.403  0.000
  0.000  0.014  0.000  0.000  0.403
atomic mag. moment =     0.014230
atom    4   Tr[ns(na)] (up, down, total) =   1.91537  1.90108  3.81646
   spin  1
    eigenvalues: 
  0.357  0.357  0.387  0.407  0.407
    eigenvectors:
  0.000  0.000  1.000  0.000  0.000
  0.786  0.138  0.000  0.011  0.065
  0.138  0.786  0.000  0.065  0.011
  0.012  0.064  0.000  0.785  0.139
  0.064  0.012  0.000  0.139  0.785
    occupations:
  0.387  0.000  0.000  0.000  0.000
  0.000  0.361  0.000  0.000  0.013
  0.000  0.000  0.361  0.013  0.000
  0.000  0.000  0.013  0.403  0.000
  0.000  0.013  0.000  0.000  0.403
   spin  2
    eigenvalues: 
  0.353  0.353  0.387  0.404  0.404
    eigenvectors:
  0.000  0.000  1.000  0.000  0.000
  0.766  0.145  0.000  0.013  0.077
  0.145  0.766  0.000  0.077  0.013
  0.015  0.074  0.000  0.768  0.142
  0.074  0.015  0.000  0.142  0.768
    occupations:
  0.387  0.000  0.000  0.000  0.000
  0.000  0.358  0.000  0.000  0.014
  0.000  0.000  0.358  0.014  0.000
  0.000  0.000  0.014  0.399  0.000
  0.000  0.014  0.000  0.000  0.399
atomic mag. moment =     0.014290
atom    5   Tr[ns(na)] (up, down, total) =   2.74091  2.70198  5.44290
   spin  1
    eigenvalues: 
  0.844  0.947  0.951
    eigenvectors:
  0.337  0.000  0.663
  0.508  0.243  0.249
  0.156  0.756  0.088
    occupations:
  0.915 -0.044  0.025
 -0.044  0.895  0.028
  0.025  0.028  0.931
   spin  2
    eigenvalues: 
  0.864  0.919  0.919
    eigenvectors:
  0.333  0.001  0.665
  0.514  0.209  0.277
  0.153  0.790  0.058
    occupations:
  0.901 -0.023  0.013
 -0.023  0.891  0.015
  0.013  0.015  0.910
atomic mag. moment =     0.038932
atom    6   Tr[ns(na)] (up, down, total) =   2.74091  2.70198  5.44290
   spin  1
    eigenvalues: 
  0.844  0.947  0.951
    eigenvectors:
  0.337  0.000  0.663
  0.487  0.257  0.257
  0.176  0.743  0.080
    occupations:
  0.915  0.043  0.026
  0.043  0.897 -0.030
  0.026 -0.030  0.929
   spin  2
    eigenvalues: 
  0.864  0.919  0.919
    eigenvectors:
  0.333  0.001  0.665
  0.486  0.292  0.222
  0.181  0.706  0.113
    occupations:
  0.901  0.022  0.014
  0.022  0.892 -0.016
  0.014 -0.016  0.909
atomic mag. moment =     0.038932
atom    7   Tr[ns(na)] (up, down, total) =   2.74091  2.70198  5.44290
   spin  1
    eigenvalues: 
  0.844  0.947  0.951
    eigenvectors:
  0.337  0.000  0.663
  0.000  1.000  0.000
  0.663  0.000  0.337
    occupations:
  0.915  0.001 -0.051
  0.001  0.947  0.001
 -0.051  0.001  0.880
   spin  2
    eigenvalues: 
  0.864  0.919  0.919
    eigenvectors:
  0.333  0.001  0.665
  0.000  0.997  0.003
  0.666  0.002  0.331
    occupations:
  0.901  0.001 -0.026
  0.001  0.919  0.001
 -0.026  0.001  0.882
atomic mag. moment =     0.038932
atom    8   Tr[ns(na)] (up, down, total) =   2.74107  2.70205  5.44312
   spin  1
    eigenvalues: 
  0.844  0.947  0.950
    eigenvectors:
  0.337  0.000  0.663
  0.508  0.245  0.248
  0.156  0.755  0.089
    occupations:
  0.914 -0.044  0.025
 -0.044  0.895  0.029
  0.025  0.029  0.931
   spin  2
    eigenvalues: 
  0.864  0.919  0.919
    eigenvectors:
  0.334  0.664  0.003
  0.514  0.225  0.261
  0.153  0.111  0.736
    occupations:
  0.901 -0.023  0.012
 -0.023  0.891  0.016
  0.012  0.016  0.911
atomic mag. moment =     0.039017
atom    9   Tr[ns(na)] (up, down, total) =   2.74107  2.70205  5.44312
   spin  1
    eigenvalues: 
  0.844  0.947  0.950
    eigenvectors:
  0.337  0.000  0.663
  0.487  0.255  0.258
  0.176  0.744  0.079
    occupations:
  0.914  0.043  0.026
  0.043  0.898 -0.030
  0.026 -0.030  0.929
   spin  2
    eigenvalues: 
  0.864  0.919  0.919
    eigenvectors:
  0.334  0.664  0.003
  0.486  0.277  0.238
  0.181  0.060  0.760
    occupations:
  0.901  0.022  0.014
  0.022  0.892 -0.017
  0.014 -0.017  0.909
atomic mag. moment =     0.039017
atom   10   Tr[ns(na)] (up, down, total) =   2.74107  2.70205  5.44312
   spin  1
    eigenvalues: 
  0.844  0.947  0.950
    eigenvectors:
  0.337  0.000  0.663
  0.000  1.000  0.000
  0.663  0.000  0.337
    occupations:
  0.914  0.001 -0.050
  0.001  0.947  0.001
 -0.050  0.001  0.880
   spin  2
    eigenvalues: 
  0.864  0.919  0.919
    eigenvectors:
  0.334  0.664  0.003
  0.000  0.003  0.997
  0.666  0.334  0.000
    occupations:
  0.901  0.001 -0.026
  0.001  0.919  0.001
 -0.026  0.001  0.882
atomic mag. moment =     0.039017
N of occupied +U levels =  56.1616518
 --- exit write_ns ---
 --- in v_hubbard ---
Hubbard energy   -0.0281
 -------

     total cpu time spent up to now is      102.9 secs

     total energy              =    -538.38356902 Ry
     Harris-Foulkes estimate   =    -538.38359870 Ry
     estimated scf accuracy    <       0.00009773 Ry

     total magnetization       =     3.54 Bohr mag/cell
     absolute magnetization    =     3.69 Bohr mag/cell

     iteration #  2     ecut=    30.00 Ry     beta=0.20
     Davidson diagonalization with overlap
     ethr =  1.29E-07,  avg # of iterations =  1.2
 --- enter write_ns ---
 LDA+U parameters:
U( 1)     =  0.00000000
alpha( 1) =  0.00000000
U( 2)     =  0.00000000
alpha( 2) = -0.10000000
U( 3)     =  0.00000000
alpha( 3) =  0.00000000
U( 4)     =  0.00000000
alpha( 4) =  0.00000000
atom    1   Tr[ns(na)] (up, down, total) =   4.56427  3.36534  7.92960
   spin  1
    eigenvalues: 
  0.784  0.784  0.999  0.999  0.999
    eigenvectors:
  0.000  0.000  0.000  0.000  1.000
  0.423  0.223  0.056  0.298  0.000
  0.223  0.423  0.298  0.056  0.000
  0.346  0.008  0.556  0.090  0.000
  0.008  0.346  0.090  0.556  0.000
    occupations:
  0.999  0.000  0.000  0.000  0.000
  0.000  0.860  0.000 -0.073  0.072
  0.000  0.000  0.860  0.072  0.073
  0.000 -0.073  0.072  0.923  0.000
  0.000  0.072  0.073  0.000  0.923
   spin  2
    eigenvalues: 
  0.474  0.474  0.771  0.824  0.824
    eigenvectors:
  0.000  0.000  1.000  0.000  0.000
  0.277  0.362  0.000  0.034  0.327
  0.362  0.277  0.000  0.327  0.034
  0.278  0.083  0.000  0.476  0.163
  0.083  0.278  0.000  0.163  0.476
    occupations:
  0.771  0.000  0.000  0.000  0.000
  0.000  0.600  0.000 -0.036  0.164
  0.000  0.000  0.600  0.164  0.036
  0.000 -0.036  0.164  0.697  0.000
  0.000  0.164  0.036  0.000  0.697
atomic mag. moment =     1.198932
atom    2   Tr[ns(na)] (up, down, total) =   4.67421  3.23065  7.90486
   spin  1
    eigenvalues: 
  0.839  0.839  0.999  0.999  0.999
    eigenvectors:
  0.000  0.000  0.000  0.000  1.000
  0.643  0.003  0.325  0.029  0.000
  0.003  0.643  0.029  0.325  0.000
  0.152  0.202  0.500  0.146  0.000
  0.202  0.152  0.146  0.500  0.000
    occupations:
  0.999  0.000  0.000  0.000  0.000
  0.000  0.895  0.000  0.054  0.054
  0.000  0.000  0.895  0.054 -0.054
  0.000  0.054  0.054  0.942  0.000
  0.000  0.054 -0.054  0.000  0.942
   spin  2
    eigenvalues: 
  0.460  0.460  0.732  0.790  0.790
    eigenvectors:
  0.000  0.000  1.000  0.000  0.000
  0.511  0.125  0.000  0.190  0.175
  0.125  0.511  0.000  0.175  0.190
  0.019  0.346  0.000  0.447  0.188
  0.346  0.019  0.000  0.188  0.447
    occupations:
  0.732  0.000  0.000  0.000  0.000
  0.000  0.580  0.000  0.036  0.155
  0.000  0.000  0.580  0.155 -0.036
  0.000  0.036  0.155  0.669  0.000
  0.000  0.155 -0.036  0.000  0.669
atomic mag. moment =     1.443568
atom    3   Tr[ns(na)] (up, down, total) =   1.93096  1.91671  3.84767
   spin  1
    eigenvalues: 
  0.360  0.360  0.390  0.410  0.410
    eigenvectors:
  0.000  0.000  1.000  0.000  0.000
  0.788  0.137  0.000  0.011  0.064
  0.137  0.788  0.000  0.064  0.011
  0.012  0.063  0.000  0.787  0.139
  0.063  0.012  0.000  0.139  0.787
    occupations:
  0.390  0.000  0.000  0.000  0.000
  0.000  0.364  0.000  0.000  0.013
  0.000  0.000  0.364  0.013  0.000
  0.000  0.000  0.013  0.406  0.000
  0.000  0.013  0.000  0.000  0.406
   spin  2
    eigenvalues: 
  0.356  0.356  0.390  0.407  0.407
    eigenvectors:
  0.000  0.000  1.000  0.000  0.000
  0.768  0.144  0.000  0.013  0.076
  0.144  0.768  0.000  0.076  0.013
  0.015  0.073  0.000  0.770  0.142
  0.073  0.015  0.000  0.142  0.770
    occupations:
  0.390  0.000  0.000  0.000  0.000
  0.000  0.361  0.000  0.000  0.014
  0.000  0.000  0.361  0.014  0.000
  0.000  0.000  0.014  0.402  0.000
  0.000  0.014  0.000  0.000  0.402
atomic mag. moment =     0.014254
atom    4   Tr[ns(na)] (up, down, total) =   1.91465  1.90035  3.81500
   spin  1
    eigenvalues: 
  0.357  0.357  0.387  0.407  0.407
    eigenvectors:
  0.000  0.000  1.000  0.000  0.000
  0.786  0.138  0.000  0.011  0.065
  0.138  0.786  0.000  0.065  0.011
  0.012  0.064  0.000  0.785  0.139
  0.064  0.012  0.000  0.139  0.785
    occupations:
  0.387  0.000  0.000  0.000  0.000
  0.000  0.361  0.000  0.000  0.013
  0.000  0.000  0.361  0.013  0.000
  0.000  0.000  0.013  0.403  0.000
  0.000  0.013  0.000  0.000  0.403
   spin  2
    eigenvalues: 
  0.353  0.353  0.387  0.404  0.404
    eigenvectors:
  0.000  0.000  1.000  0.000  0.000
  0.765  0.145  0.000  0.013  0.077
  0.145  0.765  0.000  0.077  0.013
  0.015  0.075  0.000  0.768  0.142
  0.075  0.015  0.000  0.142  0.768
    occupations:
  0.387  0.000  0.000  0.000  0.000
  0.000  0.358  0.000  0.000  0.015
  0.000  0.000  0.358  0.015  0.000
  0.000  0.000  0.015  0.399  0.000
  0.000  0.015  0.000  0.000  0.399
atomic mag. moment =     0.014307
atom    5   Tr[ns(na)] (up, down, total) =   2.74139  2.70236  5.44375
   spin  1
    eigenvalues: 
  0.844  0.947  0.951
    eigenvectors:
  0.337  0.000  0.663
  0.508  0.243  0.249
  0.155  0.757  0.088
    occupations:
  0.915 -0.044  0.025
 -0.044  0.895  0.028
  0.025  0.028  0.931
   spin  2
    eigenvalues: 
  0.864  0.919  0.919
    eigenvectors:
  0.333  0.001  0.666
  0.513  0.213  0.275
  0.154  0.787  0.060
    occupations:
  0.901 -0.023  0.013
 -0.023  0.891  0.015
  0.013  0.015  0.911
atomic mag. moment =     0.039033
atom    6   Tr[ns(na)] (up, down, total) =   2.74139  2.70236  5.44375
   spin  1
    eigenvalues: 
  0.844  0.947  0.951
    eigenvectors:
  0.337  0.000  0.663
  0.487  0.257  0.257
  0.177  0.743  0.080
    occupations:
  0.915  0.043  0.026
  0.043  0.898 -0.030
  0.026 -0.030  0.929
   spin  2
    eigenvalues: 
  0.864  0.919  0.919
    eigenvectors:
  0.333  0.001  0.666
  0.487  0.289  0.224
  0.180  0.710  0.110
    occupations:
  0.901  0.022  0.014
  0.022  0.892 -0.016
  0.014 -0.016  0.909
atomic mag. moment =     0.039033
atom    7   Tr[ns(na)] (up, down, total) =   2.74139  2.70236  5.44375
   spin  1
    eigenvalues: 
  0.844  0.947  0.951
    eigenvectors:
  0.337  0.000  0.663
  0.000  1.000  0.000
  0.663  0.000  0.337
    occupations:
  0.915  0.001 -0.051
  0.001  0.947  0.001
 -0.051  0.001  0.880
   spin  2
    eigenvalues: 
  0.864  0.919  0.919
    eigenvectors:
  0.333  0.001  0.666
  0.000  0.997  0.003
  0.666  0.002  0.332
    occupations:
  0.901  0.001 -0.026
  0.001  0.919  0.001
 -0.026  0.001  0.882
atomic mag. moment =     0.039033
atom    8   Tr[ns(na)] (up, down, total) =   2.74145  2.70232  5.44377
   spin  1
    eigenvalues: 
  0.844  0.947  0.951
    eigenvectors:
  0.337  0.000  0.663
  0.508  0.244  0.248
  0.155  0.756  0.089
    occupations:
  0.915 -0.044  0.024
 -0.044  0.895  0.029
  0.024  0.029  0.931
   spin  2
    eigenvalues: 
  0.864  0.919  0.919
    eigenvectors:
  0.334  0.664  0.003
  0.513  0.226  0.262
  0.154  0.110  0.736
    occupations:
  0.901 -0.023  0.012
 -0.023  0.891  0.016
  0.012  0.016  0.911
atomic mag. moment =     0.039124
atom    9   Tr[ns(na)] (up, down, total) =   2.74145  2.70232  5.44377
   spin  1
    eigenvalues: 
  0.844  0.947  0.951
    eigenvectors:
  0.337  0.000  0.663
  0.487  0.256  0.258
  0.177  0.744  0.079
    occupations:
  0.915  0.043  0.026
  0.043  0.898 -0.030
  0.026 -0.030  0.929
   spin  2
    eigenvalues: 
  0.864  0.919  0.919
    eigenvectors:
  0.334  0.664  0.003
  0.487  0.276  0.237
  0.180  0.060  0.760
    occupations:
  0.901  0.022  0.014
  0.022  0.892 -0.016
  0.014 -0.016  0.909
atomic mag. moment =     0.039124
atom   10   Tr[ns(na)] (up, down, total) =   2.74145  2.70232  5.44377
   spin  1
    eigenvalues: 
  0.844  0.947  0.951
    eigenvectors:
  0.337  0.000  0.663
  0.000  1.000  0.000
  0.663  0.000  0.337
    occupations:
  0.915  0.001 -0.051
  0.001  0.947  0.001
 -0.051  0.001  0.880
   spin  2
    eigenvalues: 
  0.864  0.919  0.919
    eigenvectors:
  0.334  0.664  0.003
  0.000  0.002  0.997
  0.666  0.334  0.000
    occupations:
  0.901  0.001 -0.026
  0.001  0.919  0.001
 -0.026  0.001  0.882
atomic mag. moment =     0.039124
N of occupied +U levels =  56.1597143
 --- exit write_ns ---
 --- in v_hubbard ---
Hubbard energy   -0.0281
 -------

     total cpu time spent up to now is      132.0 secs

     total energy              =    -538.38355813 Ry
     Harris-Foulkes estimate   =    -538.38357787 Ry
     estimated scf accuracy    <       0.00017444 Ry

     total magnetization       =     3.54 Bohr mag/cell
     absolute magnetization    =     3.69 Bohr mag/cell

     iteration #  3     ecut=    30.00 Ry     beta=0.20
     Davidson diagonalization with overlap
     ethr =  1.29E-07,  avg # of iterations =  1.0
 --- enter write_ns ---
 LDA+U parameters:
U( 1)     =  0.00000000
alpha( 1) =  0.00000000
U( 2)     =  0.00000000
alpha( 2) = -0.10000000
U( 3)     =  0.00000000
alpha( 3) =  0.00000000
U( 4)     =  0.00000000
alpha( 4) =  0.00000000
atom    1   Tr[ns(na)] (up, down, total) =   4.56856  3.38505  7.95361
   spin  1
    eigenvalues: 
  0.786  0.786  0.999  0.999  0.999
    eigenvectors:
  0.000  0.000  0.000  0.000  1.000
  0.423  0.223  0.056  0.297  0.000
  0.223  0.423  0.297  0.056  0.000
  0.346  0.008  0.556  0.090  0.000
  0.008  0.346  0.090  0.556  0.000
    occupations:
  0.999  0.000  0.000  0.000  0.000
  0.000  0.861  0.000 -0.072  0.071
  0.000  0.000  0.861  0.071  0.072
  0.000 -0.072  0.071  0.924  0.000
  0.000  0.071  0.072  0.000  0.924
   spin  2
    eigenvalues: 
  0.475  0.475  0.777  0.829  0.829
    eigenvectors:
  0.000  0.000  1.000  0.000  0.000
  0.277  0.362  0.000  0.033  0.328
  0.362  0.277  0.000  0.328  0.033
  0.279  0.082  0.000  0.476  0.163
  0.082  0.279  0.000  0.163  0.476
    occupations:
  0.777  0.000  0.000  0.000  0.000
  0.000  0.603  0.000 -0.037  0.166
  0.000  0.000  0.603  0.166  0.037
  0.000 -0.037  0.166  0.701  0.000
  0.000  0.166  0.037  0.000  0.701
atomic mag. moment =     1.183503
atom    2   Tr[ns(na)] (up, down, total) =   4.67039  3.21095  7.88134
   spin  1
    eigenvalues: 
  0.837  0.837  0.999  0.999  0.999
    eigenvectors:
  0.000  0.000  0.000  0.000  1.000
  0.643  0.003  0.325  0.029  0.000
  0.003  0.643  0.029  0.325  0.000
  0.152  0.202  0.500  0.146  0.000
  0.202  0.152  0.146  0.500  0.000
    occupations:
  0.999  0.000  0.000  0.000  0.000
  0.000  0.894  0.000  0.055  0.055
  0.000  0.000  0.894  0.055 -0.055
  0.000  0.055  0.055  0.942  0.000
  0.000  0.055 -0.055  0.000  0.942
   spin  2
    eigenvalues: 
  0.459  0.459  0.726  0.784  0.784
    eigenvectors:
  0.000  0.000  1.000  0.000  0.000
  0.504  0.131  0.000  0.189  0.176
  0.131  0.504  0.000  0.176  0.189
  0.021  0.343  0.000  0.447  0.188
  0.343  0.021  0.000  0.188  0.447
    occupations:
  0.726  0.000  0.000  0.000  0.000
  0.000  0.577  0.000  0.035  0.153
  0.000  0.000  0.577  0.153 -0.035
  0.000  0.035  0.153  0.665  0.000
  0.000  0.153 -0.035  0.000  0.665
atomic mag. moment =     1.459447
atom    3   Tr[ns(na)] (up, down, total) =   1.93063  1.91639  3.84702
   spin  1
    eigenvalues: 
  0.360  0.360  0.390  0.410  0.410
    eigenvectors:
  0.000  0.000  1.000  0.000  0.000
  0.788  0.138  0.000  0.011  0.064
  0.138  0.788  0.000  0.064  0.011
  0.012  0.063  0.000  0.787  0.138
  0.063  0.012  0.000  0.138  0.787
    occupations:
  0.390  0.000  0.000  0.000  0.000
  0.000  0.364  0.000  0.000  0.013
  0.000  0.000  0.364  0.013  0.000
  0.000  0.000  0.013  0.406  0.000
  0.000  0.013  0.000  0.000  0.406
   spin  2
    eigenvalues: 
  0.356  0.356  0.390  0.407  0.407
    eigenvectors:
  0.000  0.000  1.000  0.000  0.000
  0.767  0.144  0.000  0.013  0.076
  0.144  0.767  0.000  0.076  0.013
  0.015  0.073  0.000  0.770  0.142
  0.073  0.015  0.000  0.142  0.770
    occupations:
  0.390  0.000  0.000  0.000  0.000
  0.000  0.361  0.000  0.000  0.014
  0.000  0.000  0.361  0.014  0.000
  0.000  0.000  0.014  0.402  0.000
  0.000  0.014  0.000  0.000  0.402
atomic mag. moment =     0.014241
atom    4   Tr[ns(na)] (up, down, total) =   1.91449  1.90019  3.81468
   spin  1
    eigenvalues: 
  0.357  0.357  0.387  0.407  0.407
    eigenvectors:
  0.000  0.000  1.000  0.000  0.000
  0.785  0.138  0.000  0.011  0.065
  0.138  0.785  0.000  0.065  0.011
  0.012  0.064  0.000  0.785  0.139
  0.064  0.012  0.000  0.139  0.785
    occupations:
  0.387  0.000  0.000  0.000  0.000
  0.000  0.361  0.000  0.000  0.013
  0.000  0.000  0.361  0.013  0.000
  0.000  0.000  0.013  0.403  0.000
  0.000  0.013  0.000  0.000  0.403
   spin  2
    eigenvalues: 
  0.353  0.353  0.387  0.404  0.404
    eigenvectors:
  0.000  0.000  1.000  0.000  0.000
  0.765  0.145  0.000  0.013  0.077
  0.145  0.765  0.000  0.077  0.013
  0.016  0.074  0.000  0.768  0.142
  0.074  0.016  0.000  0.142  0.768
    occupations:
  0.387  0.000  0.000  0.000  0.000
  0.000  0.357  0.000  0.000  0.015
  0.000  0.000  0.357  0.015  0.000
  0.000  0.000  0.015  0.399  0.000
  0.000  0.015  0.000  0.000  0.399
atomic mag. moment =     0.014295
atom    5   Tr[ns(na)] (up, down, total) =   2.74136  2.70243  5.44379
   spin  1
    eigenvalues: 
  0.844  0.947  0.951
    eigenvectors:
  0.337  0.000  0.663
  0.507  0.244  0.249
  0.156  0.756  0.088
    occupations:
  0.915 -0.044  0.025
 -0.044  0.896  0.028
  0.025  0.028  0.931
   spin  2
    eigenvalues: 
  0.864  0.919  0.919
    eigenvectors:
  0.333  0.002  0.665
  0.515  0.204  0.281
  0.151  0.794  0.054
    occupations:
  0.901 -0.023  0.012
 -0.023  0.891  0.015
  0.012  0.015  0.911
atomic mag. moment =     0.038924
atom    6   Tr[ns(na)] (up, down, total) =   2.74136  2.70243  5.44379
   spin  1
    eigenvalues: 
  0.844  0.947  0.951
    eigenvectors:
  0.337  0.000  0.663
  0.487  0.256  0.256
  0.176  0.744  0.081
    occupations:
  0.915  0.043  0.026
  0.043  0.898 -0.030
  0.026 -0.030  0.929
   spin  2
    eigenvalues: 
  0.864  0.919  0.919
    eigenvectors:
  0.333  0.002  0.665
  0.484  0.298  0.218
  0.183  0.700  0.117
    occupations:
  0.901  0.022  0.014
  0.022  0.892 -0.016
  0.014 -0.016  0.909
atomic mag. moment =     0.038924
atom    7   Tr[ns(na)] (up, down, total) =   2.74136  2.70243  5.44379
   spin  1
    eigenvalues: 
  0.844  0.947  0.951
    eigenvectors:
  0.337  0.000  0.663
  0.000  1.000  0.000
  0.663  0.000  0.337
    occupations:
  0.915  0.001 -0.051
  0.001  0.947  0.001
 -0.051  0.001  0.880
   spin  2
    eigenvalues: 
  0.864  0.919  0.919
    eigenvectors:
  0.333  0.002  0.665
  0.000  0.996  0.004
  0.666  0.003  0.331
    occupations:
  0.901  0.001 -0.026
  0.001  0.919  0.001
 -0.026  0.001  0.882
atomic mag. moment =     0.038924
atom    8   Tr[ns(na)] (up, down, total) =   2.74141  2.70240  5.44381
   spin  1
    eigenvalues: 
  0.844  0.947  0.951
    eigenvectors:
  0.337  0.000  0.663
  0.507  0.245  0.248
  0.156  0.755  0.089
    occupations:
  0.915 -0.044  0.025
 -0.044  0.895  0.029
  0.025  0.029  0.931
   spin  2
    eigenvalues: 
  0.864  0.919  0.919
    eigenvectors:
  0.333  0.662  0.005
  0.515  0.217  0.268
  0.151  0.121  0.728
    occupations:
  0.901 -0.023  0.012
 -0.023  0.891  0.016
  0.012  0.016  0.911
atomic mag. moment =     0.039015
atom    9   Tr[ns(na)] (up, down, total) =   2.74141  2.70240  5.44381
   spin  1
    eigenvalues: 
  0.844  0.947  0.951
    eigenvectors:
  0.337  0.000  0.663
  0.487  0.255  0.257
  0.176  0.744  0.080
    occupations:
  0.915  0.043  0.026
  0.043  0.898 -0.030
  0.026 -0.030  0.929
   spin  2
    eigenvalues: 
  0.864  0.919  0.919
    eigenvectors:
  0.333  0.662  0.005
  0.484  0.285  0.231
  0.182  0.053  0.765
    occupations:
  0.901  0.022  0.014
  0.022  0.892 -0.017
  0.014 -0.017  0.909
atomic mag. moment =     0.039015
atom   10   Tr[ns(na)] (up, down, total) =   2.74141  2.70240  5.44381
   spin  1
    eigenvalues: 
  0.844  0.947  0.951
    eigenvectors:
  0.337  0.000  0.663
  0.000  1.000  0.000
  0.663  0.000  0.337
    occupations:
  0.915  0.001 -0.051
  0.001  0.947  0.001
 -0.051  0.001  0.880
   spin  2
    eigenvalues: 
  0.864  0.919  0.919
    eigenvectors:
  0.333  0.662  0.005
  0.000  0.005  0.995
  0.666  0.333  0.000
    occupations:
  0.901  0.001 -0.026
  0.001  0.919  0.001
 -0.026  0.001  0.882
atomic mag. moment =     0.039015
N of occupied +U levels =  56.1594373
 --- exit write_ns ---
 --- in v_hubbard ---
Hubbard energy   -0.0282
 -------

     total cpu time spent up to now is      159.6 secs

     total energy              =    -538.38355370 Ry
     Harris-Foulkes estimate   =    -538.38358220 Ry
     estimated scf accuracy    <       0.00046297 Ry

     total magnetization       =     3.54 Bohr mag/cell
     absolute magnetization    =     3.69 Bohr mag/cell

     iteration #  4     ecut=    30.00 Ry     beta=0.20
     Davidson diagonalization with overlap
     ethr =  1.29E-07,  avg # of iterations =  1.0
 --- enter write_ns ---
 LDA+U parameters:
U( 1)     =  0.00000000
alpha( 1) =  0.00000000
U( 2)     =  0.00000000
alpha( 2) = -0.10000000
U( 3)     =  0.00000000
alpha( 3) =  0.00000000
U( 4)     =  0.00000000
alpha( 4) =  0.00000000
atom    1   Tr[ns(na)] (up, down, total) =   4.56612  3.37304  7.93916
   spin  1
    eigenvalues: 
  0.785  0.785  0.999  0.999  0.999
    eigenvectors:
  0.000  0.000  0.000  0.000  1.000
  0.423  0.223  0.056  0.298  0.000
  0.223  0.423  0.298  0.056  0.000
  0.346  0.008  0.557  0.090  0.000
  0.008  0.346  0.090  0.557  0.000
    occupations:
  0.999  0.000  0.000  0.000  0.000
  0.000  0.861  0.000 -0.073  0.072
  0.000  0.000  0.861  0.072  0.073
  0.000 -0.073  0.072  0.923  0.000
  0.000  0.072  0.073  0.000  0.923
   spin  2
    eigenvalues: 
  0.474  0.474  0.773  0.826  0.826
    eigenvectors:
  0.000  0.000  1.000  0.000  0.000
  0.277  0.362  0.000  0.034  0.327
  0.362  0.277  0.000  0.327  0.034
  0.278  0.083  0.000  0.476  0.163
  0.083  0.278  0.000  0.163  0.476
    occupations:
  0.773  0.000  0.000  0.000  0.000
  0.000  0.601  0.000 -0.037  0.165
  0.000  0.000  0.601  0.165  0.037
  0.000 -0.037  0.165  0.699  0.000
  0.000  0.165  0.037  0.000  0.699
atomic mag. moment =     1.193075
atom    2   Tr[ns(na)] (up, down, total) =   4.67307  3.22395  7.89702
   spin  1
    eigenvalues: 
  0.838  0.838  0.999  0.999  0.999
    eigenvectors:
  0.000  0.000  0.000  0.000  1.000
  0.643  0.003  0.325  0.029  0.000
  0.003  0.643  0.029  0.325  0.000
  0.152  0.202  0.500  0.146  0.000
  0.202  0.152  0.146  0.500  0.000
    occupations:
  0.999  0.000  0.000  0.000  0.000
  0.000  0.895  0.000  0.054  0.054
  0.000  0.000  0.895  0.054 -0.054
  0.000  0.054  0.054  0.942  0.000
  0.000  0.054 -0.054  0.000  0.942
   spin  2
    eigenvalues: 
  0.459  0.459  0.730  0.788  0.788
    eigenvectors:
  0.000  0.000  1.000  0.000  0.000
  0.508  0.127  0.000  0.189  0.175
  0.127  0.508  0.000  0.175  0.189
  0.020  0.345  0.000  0.447  0.188
  0.345  0.020  0.000  0.188  0.447
    occupations:
  0.730  0.000  0.000  0.000  0.000
  0.000  0.579  0.000  0.036  0.154
  0.000  0.000  0.579  0.154 -0.036
  0.000  0.036  0.154  0.668  0.000
  0.000  0.154 -0.036  0.000  0.668
atomic mag. moment =     1.449113
atom    3   Tr[ns(na)] (up, down, total) =   1.92897  1.91470  3.84367
   spin  1
    eigenvalues: 
  0.360  0.360  0.389  0.410  0.410
    eigenvectors:
  0.000  0.000  1.000  0.000  0.000
  0.788  0.137  0.000  0.011  0.064
  0.137  0.788  0.000  0.064  0.011
  0.012  0.063  0.000  0.787  0.138
  0.063  0.012  0.000  0.138  0.787
    occupations:
  0.389  0.000  0.000  0.000  0.000
  0.000  0.364  0.000  0.000  0.013
  0.000  0.000  0.364  0.013  0.000
  0.000  0.000  0.013  0.406  0.000
  0.000  0.013  0.000  0.000  0.406
   spin  2
    eigenvalues: 
  0.356  0.356  0.390  0.407  0.407
    eigenvectors:
  0.000  0.000  1.000  0.000  0.000
  0.767  0.144  0.000  0.013  0.076
  0.144  0.767  0.000  0.076  0.013
  0.015  0.074  0.000  0.769  0.142
  0.074  0.015  0.000  0.142  0.769
    occupations:
  0.390  0.000  0.000  0.000  0.000
  0.000  0.361  0.000  0.000  0.014
  0.000  0.000  0.361  0.014  0.000
  0.000  0.000  0.014  0.402  0.000
  0.000  0.014  0.000  0.000  0.402
atomic mag. moment =     0.014271
atom    4   Tr[ns(na)] (up, down, total) =   1.91411  1.89978  3.81389
   spin  1
    eigenvalues: 
  0.357  0.357  0.387  0.407  0.407
    eigenvectors:
  0.000  0.000  1.000  0.000  0.000
  0.785  0.138  0.000  0.011  0.065
  0.138  0.785  0.000  0.065  0.011
  0.012  0.064  0.000  0.785  0.139
  0.064  0.012  0.000  0.139  0.785
    occupations:
  0.387  0.000  0.000  0.000  0.000
  0.000  0.361  0.000  0.000  0.013
  0.000  0.000  0.361  0.013  0.000
  0.000  0.000  0.013  0.403  0.000
  0.000  0.013  0.000  0.000  0.403
   spin  2
    eigenvalues: 
  0.353  0.353  0.387  0.404  0.404
    eigenvectors:
  0.000  0.000  1.000  0.000  0.000
  0.764  0.145  0.000  0.013  0.077
  0.145  0.764  0.000  0.077  0.013
  0.016  0.075  0.000  0.767  0.142
  0.075  0.016  0.000  0.142  0.767
    occupations:
  0.387  0.000  0.000  0.000  0.000
  0.000  0.357  0.000  0.000  0.015
  0.000  0.000  0.357  0.015  0.000
  0.000  0.000  0.015  0.399  0.000
  0.000  0.015  0.000  0.000  0.399
atomic mag. moment =     0.014328
atom    5   Tr[ns(na)] (up, down, total) =   2.74158  2.70249  5.44407
   spin  1
    eigenvalues: 
  0.844  0.947  0.951
    eigenvectors:
  0.337  0.000  0.663
  0.508  0.243  0.249
  0.155  0.756  0.088
    occupations:
  0.915 -0.044  0.025
 -0.044  0.896  0.028
  0.025  0.028  0.931
   spin  2
    eigenvalues: 
  0.864  0.919  0.920
    eigenvectors:
  0.333  0.001  0.665
  0.514  0.209  0.278
  0.153  0.790  0.057
    occupations:
  0.901 -0.023  0.013
 -0.023  0.891  0.015
  0.013  0.015  0.911
atomic mag. moment =     0.039084
atom    6   Tr[ns(na)] (up, down, total) =   2.74158  2.70249  5.44407
   spin  1
    eigenvalues: 
  0.844  0.947  0.951
    eigenvectors:
  0.337  0.000  0.663
  0.487  0.257  0.257
  0.176  0.743  0.080
    occupations:
  0.915  0.043  0.026
  0.043  0.898 -0.030
  0.026 -0.030  0.929
   spin  2
    eigenvalues: 
  0.864  0.919  0.920
    eigenvectors:
  0.333  0.001  0.665
  0.486  0.293  0.221
  0.181  0.706  0.114
    occupations:
  0.901  0.022  0.014
  0.022  0.892 -0.016
  0.014 -0.016  0.909
atomic mag. moment =     0.039084
atom    7   Tr[ns(na)] (up, down, total) =   2.74158  2.70249  5.44407
   spin  1
    eigenvalues: 
  0.844  0.947  0.951
    eigenvectors:
  0.337  0.000  0.663
  0.000  1.000  0.000
  0.663  0.000  0.337
    occupations:
  0.915  0.001 -0.051
  0.001  0.947  0.001
 -0.051  0.001  0.880
   spin  2
    eigenvalues: 
  0.864  0.919  0.920
    eigenvectors:
  0.333  0.001  0.665
  0.000  0.996  0.003
  0.666  0.002  0.331
    occupations:
  0.901  0.001 -0.026
  0.001  0.919  0.001
 -0.026  0.001  0.882
atomic mag. moment =     0.039084
atom    8   Tr[ns(na)] (up, down, total) =   2.74163  2.70245  5.44408
   spin  1
    eigenvalues: 
  0.844  0.947  0.951
    eigenvectors:
  0.337  0.000  0.663
  0.508  0.244  0.248
  0.155  0.756  0.089
    occupations:
  0.915 -0.044  0.025
 -0.044  0.896  0.029
  0.025  0.029  0.931
   spin  2
    eigenvalues: 
  0.864  0.919  0.919
    eigenvectors:
  0.334  0.663  0.004
  0.514  0.220  0.266
  0.153  0.117  0.730
    occupations:
  0.901 -0.023  0.012
 -0.023  0.891  0.016
  0.012  0.016  0.911
atomic mag. moment =     0.039173
atom    9   Tr[ns(na)] (up, down, total) =   2.74163  2.70245  5.44408
   spin  1
    eigenvalues: 
  0.844  0.947  0.951
    eigenvectors:
  0.337  0.000  0.663
  0.487  0.256  0.257
  0.176  0.744  0.080
    occupations:
  0.915  0.043  0.026
  0.043  0.898 -0.030
  0.026 -0.030  0.929
   spin  2
    eigenvalues: 
  0.864  0.919  0.919
    eigenvectors:
  0.334  0.663  0.004
  0.486  0.282  0.232
  0.181  0.055  0.764
    occupations:
  0.901  0.022  0.014
  0.022  0.892 -0.017
  0.014 -0.017  0.909
atomic mag. moment =     0.039173
atom   10   Tr[ns(na)] (up, down, total) =   2.74163  2.70245  5.44408
   spin  1
    eigenvalues: 
  0.844  0.947  0.951
    eigenvectors:
  0.337  0.000  0.663
  0.000  1.000  0.000
  0.663  0.000  0.337
    occupations:
  0.915  0.001 -0.051
  0.001  0.947  0.001
 -0.051  0.001  0.880
   spin  2
    eigenvalues: 
  0.864  0.919  0.919
    eigenvectors:
  0.334  0.663  0.004
  0.000  0.004  0.996
  0.666  0.333  0.000
    occupations:
  0.901  0.001 -0.026
  0.001  0.919  0.001
 -0.026  0.001  0.882
atomic mag. moment =     0.039173
N of occupied +U levels =  56.1582040
 --- exit write_ns ---
 --- in v_hubbard ---
Hubbard energy   -0.0282
 -------

     total cpu time spent up to now is      186.3 secs

     total energy              =    -538.38356598 Ry
     Harris-Foulkes estimate   =    -538.38356650 Ry
     estimated scf accuracy    <       0.00000224 Ry

     total magnetization       =     3.54 Bohr mag/cell
     absolute magnetization    =     3.69 Bohr mag/cell

     iteration #  5     ecut=    30.00 Ry     beta=0.20
     Davidson diagonalization with overlap
     ethr =  2.95E-09,  avg # of iterations =  3.0
 --- enter write_ns ---
 LDA+U parameters:
U( 1)     =  0.00000000
alpha( 1) =  0.00000000
U( 2)     =  0.00000000
alpha( 2) = -0.10000000
U( 3)     =  0.00000000
alpha( 3) =  0.00000000
U( 4)     =  0.00000000
alpha( 4) =  0.00000000
atom    1   Tr[ns(na)] (up, down, total) =   4.56606  3.37277  7.93883
   spin  1
    eigenvalues: 
  0.785  0.785  0.999  0.999  0.999
    eigenvectors:
  0.000  0.000  0.000  0.000  1.000
  0.423  0.223  0.056  0.298  0.000
  0.223  0.423  0.298  0.056  0.000
  0.346  0.008  0.557  0.090  0.000
  0.008  0.346  0.090  0.557  0.000
    occupations:
  0.999  0.000  0.000  0.000  0.000
  0.000  0.861  0.000 -0.073  0.072
  0.000  0.000  0.861  0.072  0.073
  0.000 -0.073  0.072  0.923  0.000
  0.000  0.072  0.073  0.000  0.923
   spin  2
    eigenvalues: 
  0.474  0.474  0.773  0.826  0.826
    eigenvectors:
  0.000  0.000  1.000  0.000  0.000
  0.277  0.362  0.000  0.034  0.327
  0.362  0.277  0.000  0.327  0.034
  0.278  0.083  0.000  0.476  0.163
  0.083  0.278  0.000  0.163  0.476
    occupations:
  0.773  0.000  0.000  0.000  0.000
  0.000  0.601  0.000 -0.037  0.165
  0.000  0.000  0.601  0.165  0.037
  0.000 -0.037  0.165  0.699  0.000
  0.000  0.165  0.037  0.000  0.699
atomic mag. moment =     1.193297
atom    2   Tr[ns(na)] (up, down, total) =   4.67306  3.22368  7.89674
   spin  1
    eigenvalues: 
  0.838  0.838  0.999  0.999  0.999
    eigenvectors:
  0.000  0.000  0.000  0.000  1.000
  0.643  0.003  0.325  0.029  0.000
  0.003  0.643  0.029  0.325  0.000
  0.152  0.202  0.500  0.146  0.000
  0.202  0.152  0.146  0.500  0.000
    occupations:
  0.999  0.000  0.000  0.000  0.000
  0.000  0.895  0.000  0.054  0.054
  0.000  0.000  0.895  0.054 -0.054
  0.000  0.054  0.054  0.942  0.000
  0.000  0.054 -0.054  0.000  0.942
   spin  2
    eigenvalues: 
  0.459  0.459  0.730  0.788  0.788
    eigenvectors:
  0.000  0.000  1.000  0.000  0.000
  0.509  0.127  0.000  0.189  0.175
  0.127  0.509  0.000  0.175  0.189
  0.020  0.345  0.000  0.447  0.188
  0.345  0.020  0.000  0.188  0.447
    occupations:
  0.730  0.000  0.000  0.000  0.000
  0.000  0.579  0.000  0.036  0.154
  0.000  0.000  0.579  0.154 -0.036
  0.000  0.036  0.154  0.668  0.000
  0.000  0.154 -0.036  0.000  0.668
atomic mag. moment =     1.449376
atom    3   Tr[ns(na)] (up, down, total) =   1.92851  1.91426  3.84277
   spin  1
    eigenvalues: 
  0.360  0.360  0.389  0.410  0.410
    eigenvectors:
  0.000  0.000  1.000  0.000  0.000
  0.788  0.138  0.000  0.011  0.064
  0.138  0.788  0.000  0.064  0.011
  0.012  0.063  0.000  0.787  0.138
  0.063  0.012  0.000  0.138  0.787
    occupations:
  0.389  0.000  0.000  0.000  0.000
  0.000  0.364  0.000  0.000  0.013
  0.000  0.000  0.364  0.013  0.000
  0.000  0.000  0.013  0.406  0.000
  0.000  0.013  0.000  0.000  0.406
   spin  2
    eigenvalues: 
  0.356  0.356  0.389  0.406  0.406
    eigenvectors:
  0.000  0.000  1.000  0.000  0.000
  0.767  0.145  0.000  0.013  0.076
  0.145  0.767  0.000  0.076  0.013
  0.015  0.073  0.000  0.769  0.142
  0.073  0.015  0.000  0.142  0.769
    occupations:
  0.389  0.000  0.000  0.000  0.000
  0.000  0.360  0.000  0.000  0.014
  0.000  0.000  0.360  0.014  0.000
  0.000  0.000  0.014  0.402  0.000
  0.000  0.014  0.000  0.000  0.402
atomic mag. moment =     0.014254
atom    4   Tr[ns(na)] (up, down, total) =   1.91413  1.89981  3.81394
   spin  1
    eigenvalues: 
  0.357  0.357  0.387  0.407  0.407
    eigenvectors:
  0.000  0.000  1.000  0.000  0.000
  0.786  0.138  0.000  0.011  0.065
  0.138  0.786  0.000  0.065  0.011
  0.012  0.064  0.000  0.785  0.139
  0.064  0.012  0.000  0.139  0.785
    occupations:
  0.387  0.000  0.000  0.000  0.000
  0.000  0.361  0.000  0.000  0.013
  0.000  0.000  0.361  0.013  0.000
  0.000  0.000  0.013  0.403  0.000
  0.000  0.013  0.000  0.000  0.403
   spin  2
    eigenvalues: 
  0.353  0.353  0.387  0.404  0.404
    eigenvectors:
  0.000  0.000  1.000  0.000  0.000
  0.765  0.145  0.000  0.013  0.077
  0.145  0.765  0.000  0.077  0.013
  0.015  0.075  0.000  0.768  0.142
  0.075  0.015  0.000  0.142  0.768
    occupations:
  0.387  0.000  0.000  0.000  0.000
  0.000  0.357  0.000  0.000  0.015
  0.000  0.000  0.357  0.015  0.000
  0.000  0.000  0.015  0.399  0.000
  0.000  0.015  0.000  0.000  0.399
atomic mag. moment =     0.014318
atom    5   Tr[ns(na)] (up, down, total) =   2.74167  2.70259  5.44426
   spin  1
    eigenvalues: 
  0.844  0.947  0.951
    eigenvectors:
  0.337  0.000  0.663
  0.508  0.243  0.249
  0.155  0.756  0.088
    occupations:
  0.915 -0.044  0.025
 -0.044  0.896  0.028
  0.025  0.028  0.931
   spin  2
    eigenvalues: 
  0.864  0.919  0.920
    eigenvectors:
  0.333  0.001  0.665
  0.514  0.207  0.279
  0.153  0.791  0.056
    occupations:
  0.901 -0.023  0.013
 -0.023  0.891  0.015
  0.013  0.015  0.911
atomic mag. moment =     0.039077
atom    6   Tr[ns(na)] (up, down, total) =   2.74167  2.70259  5.44426
   spin  1
    eigenvalues: 
  0.844  0.947  0.951
    eigenvectors:
  0.337  0.000  0.663
  0.487  0.256  0.257
  0.176  0.743  0.080
    occupations:
  0.915  0.043  0.026
  0.043  0.898 -0.030
  0.026 -0.030  0.929
   spin  2
    eigenvalues: 
  0.864  0.919  0.920
    eigenvectors:
  0.333  0.001  0.665
  0.486  0.295  0.220
  0.181  0.704  0.115
    occupations:
  0.901  0.022  0.014
  0.022  0.892 -0.016
  0.014 -0.016  0.909
atomic mag. moment =     0.039077
atom    7   Tr[ns(na)] (up, down, total) =   2.74167  2.70259  5.44426
   spin  1
    eigenvalues: 
  0.844  0.947  0.951
    eigenvectors:
  0.337  0.000  0.663
  0.000  1.000  0.000
  0.663  0.000  0.337
    occupations:
  0.915  0.001 -0.051
  0.001  0.947  0.001
 -0.051  0.001  0.880
   spin  2
    eigenvalues: 
  0.864  0.919  0.920
    eigenvectors:
  0.333  0.001  0.665
  0.000  0.996  0.004
  0.666  0.003  0.331
    occupations:
  0.901  0.001 -0.026
  0.001  0.919  0.001
 -0.026  0.001  0.882
atomic mag. moment =     0.039077
atom    8   Tr[ns(na)] (up, down, total) =   2.74172  2.70255  5.44427
   spin  1
    eigenvalues: 
  0.844  0.947  0.951
    eigenvectors:
  0.337  0.000  0.663
  0.508  0.244  0.248
  0.155  0.756  0.089
    occupations:
  0.915 -0.044  0.025
 -0.044  0.896  0.029
  0.025  0.029  0.931
   spin  2
    eigenvalues: 
  0.864  0.919  0.920
    eigenvectors:
  0.334  0.662  0.004
  0.514  0.219  0.267
  0.153  0.119  0.728
    occupations:
  0.901 -0.023  0.012
 -0.023  0.891  0.016
  0.012  0.016  0.911
atomic mag. moment =     0.039165
atom    9   Tr[ns(na)] (up, down, total) =   2.74172  2.70255  5.44427
   spin  1
    eigenvalues: 
  0.844  0.947  0.951
    eigenvectors:
  0.337  0.000  0.663
  0.487  0.256  0.257
  0.176  0.744  0.080
    occupations:
  0.915  0.043  0.026
  0.043  0.898 -0.030
  0.026 -0.030  0.929
   spin  2
    eigenvalues: 
  0.864  0.919  0.920
    eigenvectors:
  0.334  0.662  0.004
  0.486  0.283  0.231
  0.181  0.054  0.765
    occupations:
  0.901  0.022  0.014
  0.022  0.892 -0.017
  0.014 -0.017  0.909
atomic mag. moment =     0.039165
atom   10   Tr[ns(na)] (up, down, total) =   2.74172  2.70255  5.44427
   spin  1
    eigenvalues: 
  0.844  0.947  0.951
    eigenvectors:
  0.337  0.000  0.663
  0.000  1.000  0.000
  0.663  0.000  0.337
    occupations:
  0.915  0.001 -0.051
  0.001  0.947  0.001
 -0.051  0.001  0.880
   spin  2
    eigenvalues: 
  0.864  0.919  0.920
    eigenvectors:
  0.334  0.662  0.004
  0.000  0.004  0.996
  0.666  0.333  0.000
    occupations:
  0.901  0.001 -0.026
  0.001  0.919  0.001
 -0.026  0.001  0.882
atomic mag. moment =     0.039165
N of occupied +U levels =  56.1578810
 --- exit write_ns ---
 --- in v_hubbard ---
Hubbard energy   -0.0282
 -------

     total cpu time spent up to now is      222.5 secs

     total energy              =    -538.38356622 Ry
     Harris-Foulkes estimate   =    -538.38356661 Ry
     estimated scf accuracy    <       0.00000106 Ry

     total magnetization       =     3.54 Bohr mag/cell
     absolute magnetization    =     3.69 Bohr mag/cell

     iteration #  6     ecut=    30.00 Ry     beta=0.20
     Davidson diagonalization with overlap
     ethr =  1.39E-09,  avg # of iterations =  2.0
 --- enter write_ns ---
 LDA+U parameters:
U( 1)     =  0.00000000
alpha( 1) =  0.00000000
U( 2)     =  0.00000000
alpha( 2) = -0.10000000
U( 3)     =  0.00000000
alpha( 3) =  0.00000000
U( 4)     =  0.00000000
alpha( 4) =  0.00000000
atom    1   Tr[ns(na)] (up, down, total) =   4.56610  3.37280  7.93890
   spin  1
    eigenvalues: 
  0.785  0.785  0.999  0.999  0.999
    eigenvectors:
  0.000  0.000  0.000  0.000  1.000
  0.423  0.223  0.056  0.298  0.000
  0.223  0.423  0.298  0.056  0.000
  0.346  0.008  0.556  0.090  0.000
  0.008  0.346  0.090  0.556  0.000
    occupations:
  0.999  0.000  0.000  0.000  0.000
  0.000  0.861  0.000 -0.073  0.072
  0.000  0.000  0.861  0.072  0.073
  0.000 -0.073  0.072  0.923  0.000
  0.000  0.072  0.073  0.000  0.923
   spin  2
    eigenvalues: 
  0.474  0.474  0.773  0.826  0.826
    eigenvectors:
  0.000  0.000  1.000  0.000  0.000
  0.277  0.362  0.000  0.034  0.327
  0.362  0.277  0.000  0.327  0.034
  0.278  0.083  0.000  0.476  0.163
  0.083  0.278  0.000  0.163  0.476
    occupations:
  0.773  0.000  0.000  0.000  0.000
  0.000  0.601  0.000 -0.037  0.165
  0.000  0.000  0.601  0.165  0.037
  0.000 -0.037  0.165  0.699  0.000
  0.000  0.165  0.037  0.000  0.699
atomic mag. moment =     1.193305
atom    2   Tr[ns(na)] (up, down, total) =   4.67308  3.22361  7.89670
   spin  1
    eigenvalues: 
  0.838  0.838  0.999  0.999  0.999
    eigenvectors:
  0.000  0.000  0.000  0.000  1.000
  0.643  0.003  0.325  0.029  0.000
  0.003  0.643  0.029  0.325  0.000
  0.152  0.202  0.500  0.146  0.000
  0.202  0.152  0.146  0.500  0.000
    occupations:
  0.999  0.000  0.000  0.000  0.000
  0.000  0.895  0.000  0.054  0.054
  0.000  0.000  0.895  0.054 -0.054
  0.000  0.054  0.054  0.942  0.000
  0.000  0.054 -0.054  0.000  0.942
   spin  2
    eigenvalues: 
  0.459  0.459  0.730  0.788  0.788
    eigenvectors:
  0.000  0.000  1.000  0.000  0.000
  0.507  0.129  0.000  0.189  0.175
  0.129  0.507  0.000  0.175  0.189
  0.020  0.344  0.000  0.447  0.188
  0.344  0.020  0.000  0.188  0.447
    occupations:
  0.730  0.000  0.000  0.000  0.000
  0.000  0.579  0.000  0.036  0.154
  0.000  0.000  0.579  0.154 -0.036
  0.000  0.036  0.154  0.668  0.000
  0.000  0.154 -0.036  0.000  0.668
atomic mag. moment =     1.449471
atom    3   Tr[ns(na)] (up, down, total) =   1.92869  1.91444  3.84313
   spin  1
    eigenvalues: 
  0.360  0.360  0.389  0.410  0.410
    eigenvectors:
  0.000  0.000  1.000  0.000  0.000
  0.788  0.138  0.000  0.011  0.064
  0.138  0.788  0.000  0.064  0.011
  0.012  0.063  0.000  0.787  0.138
  0.063  0.012  0.000  0.138  0.787
    occupations:
  0.389  0.000  0.000  0.000  0.000
  0.000  0.364  0.000  0.000  0.013
  0.000  0.000  0.364  0.013  0.000
  0.000  0.000  0.013  0.406  0.000
  0.000  0.013  0.000  0.000  0.406
   spin  2
    eigenvalues: 
  0.356  0.356  0.389  0.406  0.406
    eigenvectors:
  0.000  0.000  1.000  0.000  0.000
  0.767  0.144  0.000  0.013  0.076
  0.144  0.767  0.000  0.076  0.013
  0.015  0.073  0.000  0.769  0.142
  0.073  0.015  0.000  0.142  0.769
    occupations:
  0.389  0.000  0.000  0.000  0.000
  0.000  0.360  0.000  0.000  0.014
  0.000  0.000  0.360  0.014  0.000
  0.000  0.000  0.014  0.402  0.000
  0.000  0.014  0.000  0.000  0.402
atomic mag. moment =     0.014247
atom    4   Tr[ns(na)] (up, down, total) =   1.91450  1.90019  3.81470
   spin  1
    eigenvalues: 
  0.357  0.357  0.387  0.407  0.407
    eigenvectors:
  0.000  0.000  1.000  0.000  0.000
  0.786  0.138  0.000  0.011  0.065
  0.138  0.786  0.000  0.065  0.011
  0.012  0.064  0.000  0.785  0.139
  0.064  0.012  0.000  0.139  0.785
    occupations:
  0.387  0.000  0.000  0.000  0.000
  0.000  0.361  0.000  0.000  0.013
  0.000  0.000  0.361  0.013  0.000
  0.000  0.000  0.013  0.403  0.000
  0.000  0.013  0.000  0.000  0.403
   spin  2
    eigenvalues: 
  0.353  0.353  0.387  0.404  0.404
    eigenvectors:
  0.000  0.000  1.000  0.000  0.000
  0.765  0.145  0.000  0.013  0.077
  0.145  0.765  0.000  0.077  0.013
  0.015  0.075  0.000  0.768  0.142
  0.075  0.015  0.000  0.142  0.768
    occupations:
  0.387  0.000  0.000  0.000  0.000
  0.000  0.357  0.000  0.000  0.015
  0.000  0.000  0.357  0.015  0.000
  0.000  0.000  0.015  0.399  0.000
  0.000  0.015  0.000  0.000  0.399
atomic mag. moment =     0.014314
atom    5   Tr[ns(na)] (up, down, total) =   2.74159  2.70252  5.44411
   spin  1
    eigenvalues: 
  0.844  0.947  0.951
    eigenvectors:
  0.337  0.000  0.663
  0.508  0.243  0.249
  0.155  0.756  0.088
    occupations:
  0.915 -0.044  0.025
 -0.044  0.896  0.028
  0.025  0.028  0.931
   spin  2
    eigenvalues: 
  0.864  0.919  0.920
    eigenvectors:
  0.333  0.001  0.665
  0.514  0.207  0.280
  0.153  0.792  0.055
    occupations:
  0.901 -0.023  0.013
 -0.023  0.891  0.015
  0.013  0.015  0.911
atomic mag. moment =     0.039070
atom    6   Tr[ns(na)] (up, down, total) =   2.74159  2.70252  5.44411
   spin  1
    eigenvalues: 
  0.844  0.947  0.951
    eigenvectors:
  0.337  0.000  0.663
  0.487  0.256  0.257
  0.176  0.743  0.080
    occupations:
  0.915  0.043  0.026
  0.043  0.898 -0.030
  0.026 -0.030  0.929
   spin  2
    eigenvalues: 
  0.864  0.919  0.920
    eigenvectors:
  0.333  0.001  0.665
  0.486  0.295  0.219
  0.181  0.703  0.116
    occupations:
  0.901  0.022  0.014
  0.022  0.892 -0.016
  0.014 -0.016  0.909
atomic mag. moment =     0.039070
atom    7   Tr[ns(na)] (up, down, total) =   2.74159  2.70252  5.44411
   spin  1
    eigenvalues: 
  0.844  0.947  0.951
    eigenvectors:
  0.337  0.000  0.663
  0.000  1.000  0.000
  0.663  0.000  0.337
    occupations:
  0.915  0.001 -0.051
  0.001  0.947  0.001
 -0.051  0.001  0.880
   spin  2
    eigenvalues: 
  0.864  0.919  0.920
    eigenvectors:
  0.333  0.001  0.665
  0.000  0.996  0.004
  0.666  0.003  0.331
    occupations:
  0.901  0.001 -0.026
  0.001  0.919  0.001
 -0.026  0.001  0.882
atomic mag. moment =     0.039070
atom    8   Tr[ns(na)] (up, down, total) =   2.74165  2.70249  5.44414
   spin  1
    eigenvalues: 
  0.844  0.947  0.951
    eigenvectors:
  0.337  0.000  0.663
  0.508  0.244  0.248
  0.155  0.756  0.089
    occupations:
  0.915 -0.044  0.025
 -0.044  0.896  0.029
  0.025  0.029  0.931
   spin  2
    eigenvalues: 
  0.864  0.919  0.919
    eigenvectors:
  0.334  0.662  0.004
  0.514  0.219  0.267
  0.153  0.118  0.729
    occupations:
  0.901 -0.023  0.012
 -0.023  0.891  0.016
  0.012  0.016  0.911
atomic mag. moment =     0.039159
atom    9   Tr[ns(na)] (up, down, total) =   2.74165  2.70249  5.44414
   spin  1
    eigenvalues: 
  0.844  0.947  0.951
    eigenvectors:
  0.337  0.000  0.663
  0.487  0.256  0.257
  0.176  0.744  0.080
    occupations:
  0.915  0.043  0.026
  0.043  0.898 -0.030
  0.026 -0.030  0.929
   spin  2
    eigenvalues: 
  0.864  0.919  0.919
    eigenvectors:
  0.334  0.662  0.004
  0.486  0.283  0.231
  0.181  0.055  0.765
    occupations:
  0.901  0.022  0.014
  0.022  0.892 -0.017
  0.014 -0.017  0.909
atomic mag. moment =     0.039159
atom   10   Tr[ns(na)] (up, down, total) =   2.74165  2.70249  5.44414
   spin  1
    eigenvalues: 
  0.844  0.947  0.951
    eigenvectors:
  0.337  0.000  0.663
  0.000  1.000  0.000
  0.663  0.000  0.337
    occupations:
  0.915  0.001 -0.051
  0.001  0.947  0.001
 -0.051  0.001  0.880
   spin  2
    eigenvalues: 
  0.864  0.919  0.919
    eigenvectors:
  0.334  0.662  0.004
  0.000  0.004  0.996
  0.666  0.333  0.000
    occupations:
  0.901  0.001 -0.026
  0.001  0.919  0.001
 -0.026  0.001  0.882
atomic mag. moment =     0.039159
N of occupied +U levels =  56.1581905
 --- exit write_ns ---
 --- in v_hubbard ---
Hubbard energy   -0.0282
 -------

     total cpu time spent up to now is      256.2 secs

     total energy              =    -538.38356632 Ry
     Harris-Foulkes estimate   =    -538.38356643 Ry
     estimated scf accuracy    <       0.00000031 Ry

     total magnetization       =     3.54 Bohr mag/cell
     absolute magnetization    =     3.70 Bohr mag/cell

     iteration #  7     ecut=    30.00 Ry     beta=0.20
     Davidson diagonalization with overlap
     ethr =  4.09E-10,  avg # of iterations =  2.0
 --- enter write_ns ---
 LDA+U parameters:
U( 1)     =  0.00000000
alpha( 1) =  0.00000000
U( 2)     =  0.00000000
alpha( 2) = -0.10000000
U( 3)     =  0.00000000
alpha( 3) =  0.00000000
U( 4)     =  0.00000000
alpha( 4) =  0.00000000
atom    1   Tr[ns(na)] (up, down, total) =   4.56614  3.37278  7.93892
   spin  1
    eigenvalues: 
  0.785  0.785  0.999  0.999  0.999
    eigenvectors:
  0.000  0.000  0.000  0.000  1.000
  0.423  0.223  0.056  0.298  0.000
  0.223  0.423  0.298  0.056  0.000
  0.346  0.008  0.556  0.090  0.000
  0.008  0.346  0.090  0.556  0.000
    occupations:
  0.999  0.000  0.000  0.000  0.000
  0.000  0.861  0.000 -0.073  0.072
  0.000  0.000  0.861  0.072  0.073
  0.000 -0.073  0.072  0.923  0.000
  0.000  0.072  0.073  0.000  0.923
   spin  2
    eigenvalues: 
  0.474  0.474  0.773  0.826  0.826
    eigenvectors:
  0.000  0.000  1.000  0.000  0.000
  0.277  0.362  0.000  0.034  0.327
  0.362  0.277  0.000  0.327  0.034
  0.278  0.083  0.000  0.476  0.163
  0.083  0.278  0.000  0.163  0.476
    occupations:
  0.773  0.000  0.000  0.000  0.000
  0.000  0.601  0.000 -0.037  0.165
  0.000  0.000  0.601  0.165  0.037
  0.000 -0.037  0.165  0.699  0.000
  0.000  0.165  0.037  0.000  0.699
atomic mag. moment =     1.193361
atom    2   Tr[ns(na)] (up, down, total) =   4.67314  3.22361  7.89675
   spin  1
    eigenvalues: 
  0.838  0.838  0.999  0.999  0.999
    eigenvectors:
  0.000  0.000  0.000  0.000  1.000
  0.643  0.003  0.325  0.029  0.000
  0.003  0.643  0.029  0.325  0.000
  0.152  0.202  0.500  0.146  0.000
  0.202  0.152  0.146  0.500  0.000
    occupations:
  0.999  0.000  0.000  0.000  0.000
  0.000  0.895  0.000  0.054  0.054
  0.000  0.000  0.895  0.054 -0.054
  0.000  0.054  0.054  0.942  0.000
  0.000  0.054 -0.054  0.000  0.942
   spin  2
    eigenvalues: 
  0.459  0.459  0.730  0.788  0.788
    eigenvectors:
  0.000  0.000  1.000  0.000  0.000
  0.509  0.126  0.000  0.189  0.175
  0.126  0.509  0.000  0.175  0.189
  0.019  0.345  0.000  0.447  0.188
  0.345  0.019  0.000  0.188  0.447
    occupations:
  0.730  0.000  0.000  0.000  0.000
  0.000  0.579  0.000  0.036  0.154
  0.000  0.000  0.579  0.154 -0.036
  0.000  0.036  0.154  0.668  0.000
  0.000  0.154 -0.036  0.000  0.668
atomic mag. moment =     1.449529
atom    3   Tr[ns(na)] (up, down, total) =   1.92844  1.91420  3.84264
   spin  1
    eigenvalues: 
  0.360  0.360  0.389  0.410  0.410
    eigenvectors:
  0.000  0.000  1.000  0.000  0.000
  0.788  0.138  0.000  0.011  0.064
  0.138  0.788  0.000  0.064  0.011
  0.012  0.063  0.000  0.787  0.139
  0.063  0.012  0.000  0.139  0.787
    occupations:
  0.389  0.000  0.000  0.000  0.000
  0.000  0.364  0.000  0.000  0.013
  0.000  0.000  0.364  0.013  0.000
  0.000  0.000  0.013  0.406  0.000
  0.000  0.013  0.000  0.000  0.406
   spin  2
    eigenvalues: 
  0.356  0.356  0.389  0.406  0.406
    eigenvectors:
  0.000  0.000  1.000  0.000  0.000
  0.767  0.145  0.000  0.013  0.076
  0.145  0.767  0.000  0.076  0.013
  0.015  0.073  0.000  0.769  0.142
  0.073  0.015  0.000  0.142  0.769
    occupations:
  0.389  0.000  0.000  0.000  0.000
  0.000  0.360  0.000  0.000  0.014
  0.000  0.000  0.360  0.014  0.000
  0.000  0.000  0.014  0.402  0.000
  0.000  0.014  0.000  0.000  0.402
atomic mag. moment =     0.014247
atom    4   Tr[ns(na)] (up, down, total) =   1.91441  1.90009  3.81450
   spin  1
    eigenvalues: 
  0.357  0.357  0.387  0.407  0.407
    eigenvectors:
  0.000  0.000  1.000  0.000  0.000
  0.785  0.139  0.000  0.011  0.065
  0.139  0.785  0.000  0.065  0.011
  0.012  0.064  0.000  0.785  0.139
  0.064  0.012  0.000  0.139  0.785
    occupations:
  0.387  0.000  0.000  0.000  0.000
  0.000  0.361  0.000  0.000  0.013
  0.000  0.000  0.361  0.013  0.000
  0.000  0.000  0.013  0.403  0.000
  0.000  0.013  0.000  0.000  0.403
   spin  2
    eigenvalues: 
  0.353  0.353  0.387  0.404  0.404
    eigenvectors:
  0.000  0.000  1.000  0.000  0.000
  0.765  0.145  0.000  0.013  0.077
  0.145  0.765  0.000  0.077  0.013
  0.015  0.075  0.000  0.768  0.142
  0.075  0.015  0.000  0.142  0.768
    occupations:
  0.387  0.000  0.000  0.000  0.000
  0.000  0.357  0.000  0.000  0.015
  0.000  0.000  0.357  0.015  0.000
  0.000  0.000  0.015  0.399  0.000
  0.000  0.015  0.000  0.000  0.399
atomic mag. moment =     0.014316
atom    5   Tr[ns(na)] (up, down, total) =   2.74163  2.70255  5.44419
   spin  1
    eigenvalues: 
  0.844  0.947  0.951
    eigenvectors:
  0.337  0.000  0.663
  0.508  0.243  0.249
  0.155  0.756  0.088
    occupations:
  0.915 -0.044  0.025
 -0.044  0.896  0.028
  0.025  0.028  0.931
   spin  2
    eigenvalues: 
  0.864  0.919  0.920
    eigenvectors:
  0.333  0.001  0.665
  0.514  0.207  0.280
  0.153  0.792  0.055
    occupations:
  0.901 -0.023  0.013
 -0.023  0.891  0.015
  0.013  0.015  0.911
atomic mag. moment =     0.039082
atom    6   Tr[ns(na)] (up, down, total) =   2.74163  2.70255  5.44419
   spin  1
    eigenvalues: 
  0.844  0.947  0.951
    eigenvectors:
  0.337  0.000  0.663
  0.487  0.256  0.257
  0.176  0.743  0.080
    occupations:
  0.915  0.043  0.026
  0.043  0.898 -0.030
  0.026 -0.030  0.929
   spin  2
    eigenvalues: 
  0.864  0.919  0.920
    eigenvectors:
  0.333  0.001  0.665
  0.486  0.295  0.219
  0.181  0.703  0.116
    occupations:
  0.901  0.022  0.014
  0.022  0.892 -0.016
  0.014 -0.016  0.909
atomic mag. moment =     0.039082
atom    7   Tr[ns(na)] (up, down, total) =   2.74163  2.70255  5.44419
   spin  1
    eigenvalues: 
  0.844  0.947  0.951
    eigenvectors:
  0.337  0.000  0.663
  0.000  1.000  0.000
  0.663  0.000  0.337
    occupations:
  0.915  0.001 -0.051
  0.001  0.947  0.001
 -0.051  0.001  0.880
   spin  2
    eigenvalues: 
  0.864  0.919  0.920
    eigenvectors:
  0.333  0.001  0.665
  0.000  0.996  0.004
  0.666  0.003  0.331
    occupations:
  0.901  0.001 -0.026
  0.001  0.919  0.001
 -0.026  0.001  0.882
atomic mag. moment =     0.039082
atom    8   Tr[ns(na)] (up, down, total) =   2.74169  2.70251  5.44420
   spin  1
    eigenvalues: 
  0.844  0.947  0.951
    eigenvectors:
  0.337  0.000  0.663
  0.508  0.244  0.248
  0.155  0.756  0.089
    occupations:
  0.915 -0.044  0.025
 -0.044  0.896  0.029
  0.025  0.029  0.931
   spin  2
    eigenvalues: 
  0.864  0.919  0.920
    eigenvectors:
  0.334  0.662  0.004
  0.514  0.219  0.268
  0.153  0.119  0.728
    occupations:
  0.901 -0.023  0.012
 -0.023  0.891  0.016
  0.012  0.016  0.911
atomic mag. moment =     0.039172
atom    9   Tr[ns(na)] (up, down, total) =   2.74169  2.70251  5.44420
   spin  1
    eigenvalues: 
  0.844  0.947  0.951
    eigenvectors:
  0.337  0.000  0.663
  0.487  0.256  0.257
  0.176  0.744  0.080
    occupations:
  0.915  0.043  0.026
  0.043  0.898 -0.030
  0.026 -0.030  0.929
   spin  2
    eigenvalues: 
  0.864  0.919  0.920
    eigenvectors:
  0.334  0.662  0.004
  0.486  0.283  0.231
  0.181  0.054  0.765
    occupations:
  0.901  0.022  0.014
  0.022  0.892 -0.017
  0.014 -0.017  0.909
atomic mag. moment =     0.039172
[...]
     0.0937   0.0937   0.0937   0.0937   0.0937   0.0937   0.0937   0.0873
     0.0077   0.0000   0.0000   0.0000   0.0000   0.0000

          k = 0.4942-0.5706-0.2053 (  2206 PWs)   bands (ev):

   -19.6890 -19.6312  -6.8801  -6.8696  -6.0283  -6.0234  -5.4177  -5.4149
    -3.1128  -3.0965  -2.7813  -2.7538  -2.3437  -2.3393   5.9039   5.9300
     6.7890   6.8266   6.8743   6.8921   7.3307   7.3505   7.8839   7.9292
     8.7367   8.7522   8.8693   8.8748   9.4688   9.4842   9.9647   9.9822
    10.6276  10.6771  10.7829  10.8480  11.0636  11.1103  11.4163  11.4597
    13.2873  13.3272  17.4062  17.4091  17.8595  17.8628

     occupation numbers 
     0.0938   0.0938   0.0938   0.0938   0.0938   0.0938   0.0938   0.0938
     0.0938   0.0938   0.0938   0.0938   0.0938   0.0938   0.0938   0.0938
     0.0938   0.0938   0.0938   0.0938   0.0938   0.0938   0.0938   0.0938
     0.0938   0.0938   0.0938   0.0938   0.0938   0.0938   0.0937   0.0937
     0.0937   0.0937   0.0937   0.0937   0.0937   0.0937   0.0936   0.0935
     0.0000   0.0000   0.0000   0.0000   0.0000   0.0000

          k = 0.0000 0.0000-0.6160 (  2186 PWs)   bands (ev):

   -19.6829 -19.6335  -6.5245  -6.4894  -5.9403  -5.9403  -5.9144  -5.9144
    -2.8614  -2.8614  -2.8258  -2.8258  -2.6877  -2.6464   6.2609   6.2790
     6.9042   6.9042   6.9688   6.9688   7.6617   7.6911   7.8337   7.8337
     7.8741   7.8741   9.5326   9.5326   9.5654   9.5654   9.6672   9.6892
    10.6868  10.8525  10.8525  10.8595  11.0074  11.0074  12.4218  12.4218
    12.6014  12.6014  17.0734  17.0734  17.1158  17.1158

     occupation numbers 
     0.0156   0.0156   0.0156   0.0156   0.0156   0.0156   0.0156   0.0156
     0.0156   0.0156   0.0156   0.0156   0.0156   0.0156   0.0156   0.0156
     0.0156   0.0156   0.0156   0.0156   0.0156   0.0156   0.0156   0.0156
     0.0156   0.0156   0.0156   0.0156   0.0156   0.0156   0.0156   0.0156
     0.0156   0.0156   0.0156   0.0156   0.0156   0.0156   0.0049   0.0049
     0.0021   0.0021   0.0000   0.0000   0.0000   0.0000

          k = 0.4942-0.5706 0.1027 (  2198 PWs)   bands (ev):

   -19.6944 -19.6254  -6.9472  -6.6423  -6.1178  -5.8856  -5.5088  -5.3690
    -3.2560  -3.2044  -2.8315  -2.6628  -2.4843  -2.3424   5.7983   6.1173
     6.6107   6.7078   7.0615   7.2410   7.3912   7.5990   7.6959   7.8434
     8.1589   8.7191   8.9775   9.2021   9.4942   9.7301   9.8455  10.2780
    10.3884  10.7495  10.8880  10.9438  11.0823  11.1524  11.5124  11.8938
    12.6875  13.6873  16.8885  17.0898  17.2941  17.9996

     occupation numbers 
     0.0938   0.0938   0.0938   0.0938   0.0938   0.0938   0.0938   0.0938
     0.0938   0.0938   0.0938   0.0938   0.0938   0.0938   0.0938   0.0938
     0.0938   0.0938   0.0938   0.0938   0.0938   0.0938   0.0938   0.0938
     0.0938   0.0938   0.0938   0.0938   0.0938   0.0938   0.0938   0.0937
     0.0937   0.0937   0.0937   0.0937   0.0937   0.0937   0.0934   0.0853
     0.0074   0.0000   0.0000   0.0000   0.0000   0.0000

 ------ SPIN DOWN ----------


          k = 0.0000 0.0000 0.0000 (  2175 PWs)   bands (ev):

   -19.7483 -19.5679  -6.4506  -5.7512  -5.7512  -5.7199  -5.7199  -5.4040
    -3.7057  -3.2159  -3.1203  -3.1203  -2.9641  -2.9641   5.2330   7.2448
     7.2448   7.5697   7.5697   7.7649   8.0149   8.0149   8.0606   9.4240
     9.7332   9.7332  10.0457  10.0940  10.0940  10.5762  10.5762  10.7733
    11.1907  11.1907  11.2792  12.1270  12.1270  12.6701  12.9942  12.9942
    15.3369  15.3369  15.4622  15.4622  16.1770  16.7826

     occupation numbers 
     0.0156   0.0156   0.0156   0.0156   0.0156   0.0156   0.0156   0.0156
     0.0156   0.0156   0.0156   0.0156   0.0156   0.0156   0.0156   0.0156
     0.0156   0.0156   0.0156   0.0156   0.0156   0.0156   0.0156   0.0156
     0.0156   0.0156   0.0156   0.0156   0.0156   0.0156   0.0156   0.0156
     0.0156   0.0156   0.0156   0.0110   0.0110   0.0014   0.0001   0.0001
     0.0000   0.0000   0.0000   0.0000   0.0000   0.0000

          k =-0.2471-0.1427 0.1027 (  2181 PWs)   bands (ev):

   -19.7218 -19.5896  -6.6380  -6.2150  -5.8439  -5.7560  -5.5155  -5.3805
    -3.5239  -3.3298  -2.8578  -2.8321  -2.7718  -2.6895   5.5943   6.9323
     7.3101   7.3302   7.4500   7.6655   7.6705   8.0131   8.0347   8.7923
     8.8586   9.5061   9.7880   9.9834  10.0424  10.1699  10.5189  10.5294
    11.5193  11.5641  11.6168  12.3132  12.3540  12.4840  13.1414  13.1882
    14.9034  14.9182  15.8540  16.0957  16.9784  17.2829

     occupation numbers 
     0.0938   0.0938   0.0938   0.0938   0.0938   0.0938   0.0938   0.0938
     0.0938   0.0938   0.0938   0.0938   0.0938   0.0938   0.0938   0.0938
     0.0938   0.0938   0.0938   0.0938   0.0938   0.0938   0.0938   0.0938
     0.0938   0.0938   0.0938   0.0937   0.0937   0.0937   0.0937   0.0937
     0.0934   0.0931   0.0927   0.0426   0.0374   0.0225   0.0001   0.0001
     0.0000   0.0000   0.0000   0.0000   0.0000   0.0000

          k = 0.4942 0.2853-0.2053 (  2202 PWs)   bands (ev):

   -19.6780 -19.6286  -6.6598  -6.6290  -5.8698  -5.8627  -5.4193  -5.4147
    -3.3306  -3.3073  -2.7172  -2.7045  -2.4576  -2.4219   6.1321   6.1481
     7.3912   7.4267   7.4697   7.5135   7.8285   7.8628   8.1229   8.1558
     8.3863   8.4211   9.6984   9.7113  10.0123  10.0172  10.4307  10.4361
    11.9193  11.9795  12.0147  12.0728  12.1658  12.2153  13.9291  13.9986
    14.0319  14.1007  16.8431  16.8837  17.1413  17.1809

     occupation numbers 
     0.0469   0.0469   0.0469   0.0469   0.0469   0.0469   0.0469   0.0469
     0.0469   0.0469   0.0469   0.0469   0.0469   0.0469   0.0469   0.0469
     0.0469   0.0469   0.0469   0.0469   0.0469   0.0469   0.0469   0.0469
     0.0469   0.0469   0.0469   0.0469   0.0469   0.0469   0.0469   0.0469
     0.0419   0.0399   0.0385   0.0358   0.0306   0.0276   0.0000   0.0000
     0.0000   0.0000   0.0000   0.0000   0.0000   0.0000

          k =-0.2471 0.1427 0.2053 (  2195 PWs)   bands (ev):

   -19.7195 -19.5923  -6.7621  -6.1448  -5.9819  -5.7487  -5.5619  -5.3436
    -3.3492  -3.2068  -3.0300  -2.8160  -2.7356  -2.4870   5.6435   6.9682
     7.2416   7.2721   7.3652   7.5425   7.6372   8.0447   8.0681   8.8094
     9.0906   9.0929   9.4546   9.9442  10.1122  10.2432  10.3203  10.4439
    11.2119  11.8372  11.9450  12.0096  12.3715  12.4923  12.9168  13.4792
    14.2807  15.3785  16.0044  16.2175  17.0443  17.5570

     occupation numbers 
     0.0938   0.0938   0.0938   0.0938   0.0938   0.0938   0.0938   0.0938
     0.0938   0.0938   0.0938   0.0938   0.0938   0.0938   0.0938   0.0938
     0.0938   0.0938   0.0938   0.0938   0.0938   0.0938   0.0938   0.0938
     0.0938   0.0938   0.0938   0.0937   0.0937   0.0937   0.0937   0.0937
     0.0937   0.0879   0.0822   0.0774   0.0352   0.0217   0.0013   0.0000
     0.0000   0.0000   0.0000   0.0000   0.0000   0.0000

          k = 0.4942 0.5706-0.1027 (  2198 PWs)   bands (ev):

   -19.6891 -19.6201  -6.8713  -6.5696  -6.0433  -5.8053  -5.4080  -5.2620
    -3.2474  -3.1944  -2.8077  -2.6355  -2.4536  -2.3104   5.9971   6.3825
     7.0179   7.2886   7.3777   7.4512   7.7157   7.9849   8.1073   8.2443
     8.5276   9.0640   9.3216   9.5028   9.8431   9.9573  10.1174  10.5067
    11.5922  11.9774  12.0833  12.1712  12.3060  12.3228  13.1277  13.4848
    14.1059  14.9724  16.9263  17.1518  17.3399  18.0371

     occupation numbers 
     0.0938   0.0938   0.0938   0.0938   0.0938   0.0938   0.0938   0.0938
     0.0938   0.0938   0.0938   0.0938   0.0938   0.0938   0.0938   0.0938
     0.0938   0.0938   0.0938   0.0938   0.0938   0.0938   0.0938   0.0938
     0.0938   0.0938   0.0938   0.0938   0.0938   0.0937   0.0937   0.0937
     0.0929   0.0800   0.0705   0.0606   0.0435   0.0414   0.0002   0.0000
     0.0000   0.0000   0.0000   0.0000   0.0000   0.0000

          k = 0.2471 0.4280 0.0000 (  2203 PWs)   bands (ev):

   -19.6933 -19.6154  -6.7641  -6.5631  -5.9665  -5.8883  -5.3309  -5.2525
    -3.4532  -3.2386  -2.7311  -2.6402  -2.4938  -2.4811   5.9560   6.4003
     7.2393   7.3811   7.4232   7.5025   7.5541   7.8895   8.0020   8.3682
     8.6195   9.0907   9.5498   9.6653   9.9272   9.9342  10.1989  10.5201
    11.8532  11.8680  11.9343  12.1273  12.1479  12.4215  13.0949  13.9599
    14.0801  14.7791  16.4677  17.0207  17.4391  17.9441

     occupation numbers 
     0.0938   0.0938   0.0938   0.0938   0.0938   0.0938   0.0938   0.0938
     0.0938   0.0938   0.0938   0.0938   0.0938   0.0938   0.0938   0.0938
     0.0938   0.0938   0.0938   0.0938   0.0938   0.0938   0.0938   0.0938
     0.0938   0.0938   0.0938   0.0938   0.0937   0.0937   0.0937   0.0937
     0.0872   0.0866   0.0829   0.0658   0.0634   0.0292   0.0002   0.0000
     0.0000   0.0000   0.0000   0.0000   0.0000   0.0000

          k = 0.4942-0.2853-0.4107 (  2202 PWs)   bands (ev):

   -19.6985 -19.6136  -7.0756  -6.3702  -6.1533  -5.8858  -5.4396  -5.1581
    -3.1361  -3.0719  -2.9777  -2.5788  -2.4037  -2.1476   5.9152   6.4992
     6.5852   7.1956   7.2345   7.3001   8.0606   8.1341   8.2260   8.3543
     8.7010   8.8342   8.8542   9.5330   9.7669  10.1432  10.1660  10.5867
    11.1956  11.8732  11.9975  12.2208  12.3605  12.4334  12.8533  13.2442
    14.0325  15.4011  17.0540  17.3109  17.5273  17.6176

     occupation numbers 
     0.0469   0.0469   0.0469   0.0469   0.0469   0.0469   0.0469   0.0469
     0.0469   0.0469   0.0469   0.0469   0.0469   0.0469   0.0469   0.0469
     0.0469   0.0469   0.0469   0.0469   0.0469   0.0469   0.0469   0.0469
     0.0469   0.0469   0.0469   0.0469   0.0469   0.0469   0.0469   0.0469
     0.0469   0.0432   0.0392   0.0272   0.0183   0.0139   0.0011   0.0000
     0.0000   0.0000   0.0000   0.0000   0.0000   0.0000

          k = 0.0000 0.0000 0.3080 (  2187 PWs)   bands (ev):

   -19.7216 -19.5893  -6.5235  -5.9055  -5.8384  -5.8348  -5.7465  -5.7434
    -3.1392  -3.0453  -3.0152  -2.9114  -2.8367  -2.8100   5.6459   7.1908
     7.3107   7.3134   7.5353   7.5370   7.6806   8.0387   8.0466   9.0317
     9.0336   9.5700   9.5710   9.8373   9.8399  10.0515  10.2782  10.2816
    11.6326  11.6340  11.6518  12.3283  12.3289  12.5032  13.1195  13.1203
    14.8641  14.8675  15.9368  15.9459  16.8759  17.5047

     occupation numbers 
     0.0313   0.0313   0.0313   0.0313   0.0313   0.0313   0.0313   0.0313
     0.0313   0.0313   0.0313   0.0313   0.0313   0.0313   0.0313   0.0313
     0.0313   0.0313   0.0313   0.0313   0.0313   0.0313   0.0313   0.0313
     0.0313   0.0313   0.0313   0.0313   0.0313   0.0312   0.0312   0.0312
     0.0309   0.0309   0.0308   0.0135   0.0135   0.0069   0.0001   0.0001
     0.0000   0.0000   0.0000   0.0000   0.0000   0.0000

          k = 0.7412 0.4280 0.0000 (  2204 PWs)   bands (ev):

   -19.6931 -19.6152  -6.6488  -6.5258  -6.0617  -5.7398  -5.5711  -5.4439
    -3.1025  -3.0275  -2.9813  -2.6095  -2.5825  -2.5044   6.0027   6.5900
     7.2517   7.4127   7.4204   7.5179   7.5588   7.8400   8.1887   8.3458
     8.6639   8.9664   9.6226   9.6510   9.7467   9.8169  10.0197  10.3660
    11.8469  11.8733  11.9974  12.1414  12.1915  12.3859  13.0870  13.8855
    14.0035  14.8054  16.7259  16.7445  17.6097  17.8320

     occupation numbers 
     0.0938   0.0938   0.0938   0.0938   0.0938   0.0938   0.0938   0.0938
     0.0938   0.0938   0.0938   0.0938   0.0938   0.0938   0.0938   0.0938
     0.0938   0.0938   0.0938   0.0938   0.0938   0.0938   0.0938   0.0938
     0.0938   0.0938   0.0938   0.0938   0.0938   0.0938   0.0937   0.0937
     0.0875   0.0863   0.0784   0.0642   0.0582   0.0335   0.0002   0.0000
     0.0000   0.0000   0.0000   0.0000   0.0000   0.0000

          k = 0.4942 0.2853 0.1027 (  2211 PWs)   bands (ev):

   -19.6891 -19.6201  -6.8875  -6.4680  -6.2382  -5.5997  -5.5284  -5.2359
    -3.2598  -3.1084  -2.9598  -2.5352  -2.4850  -2.3017   6.0236   6.3553
     6.9836   7.2939   7.3152   7.4361   7.7124   8.0259   8.1814   8.2086
     8.5739   9.1903   9.3241   9.5565   9.7148   9.8152  10.1735  10.5217
    11.5901  12.0270  12.1241  12.1913  12.2513  12.2656  13.0916  13.4937
    14.1501  14.9573  16.9125  16.9582  17.6207  17.9555

     occupation numbers 
     0.0938   0.0938   0.0938   0.0938   0.0938   0.0938   0.0938   0.0938
     0.0938   0.0938   0.0938   0.0938   0.0938   0.0938   0.0938   0.0938
     0.0938   0.0938   0.0938   0.0938   0.0938   0.0938   0.0938   0.0938
     0.0938   0.0938   0.0938   0.0938   0.0938   0.0938   0.0937   0.0937
     0.0930   0.0759   0.0661   0.0582   0.0506   0.0487   0.0002   0.0000
     0.0000   0.0000   0.0000   0.0000   0.0000   0.0000

          k = 0.7412-0.4280-0.3080 (  2210 PWs)   bands (ev):

   -19.6889 -19.6199  -6.8235  -6.3745  -6.2151  -5.7080  -5.6627  -5.3669
    -3.0063  -2.9848  -2.9050  -2.6597  -2.5424  -2.3545   6.0873   6.5154
     7.0685   7.2768   7.3663   7.3890   7.7289   8.0713   8.2011   8.2489
     8.5706   9.1574   9.1725   9.6602   9.6934   9.7577   9.8178  10.3606
    11.6405  12.0310  12.1100  12.1779  12.2863  12.3391  13.0528  13.4530
    14.1021  14.9233  17.0889  17.1016  17.5882  17.9212

     occupation numbers 
     0.0938   0.0938   0.0938   0.0938   0.0938   0.0938   0.0938   0.0938
     0.0938   0.0938   0.0938   0.0938   0.0938   0.0938   0.0938   0.0938
     0.0938   0.0938   0.0938   0.0938   0.0938   0.0938   0.0938   0.0938
     0.0938   0.0938   0.0938   0.0938   0.0938   0.0938   0.0938   0.0937
     0.0925   0.0755   0.0677   0.0598   0.0461   0.0393   0.0003   0.0000
     0.0000   0.0000   0.0000   0.0000   0.0000   0.0000

          k = 0.4942-0.5706-0.2053 (  2206 PWs)   bands (ev):

   -19.6838 -19.6259  -6.8062  -6.7955  -5.9534  -5.9482  -5.3120  -5.3095
    -3.1052  -3.0889  -2.7563  -2.7291  -2.3107  -2.3060   6.1996   6.2276
     7.1450   7.1589   7.3238   7.3340   7.5543   7.5735   8.4065   8.4492
     8.9054   8.9198   9.2180   9.2214   9.6918   9.6990  10.2587  10.2625
    11.8455  11.8549  12.0171  12.0589  12.3319  12.3561  13.1137  13.1329
    14.6368  14.6521  17.4711  17.4727  17.8888  17.8929

     occupation numbers 
     0.0938   0.0938   0.0938   0.0938   0.0938   0.0938   0.0938   0.0938
     0.0938   0.0938   0.0938   0.0938   0.0938   0.0938   0.0938   0.0938
     0.0938   0.0938   0.0938   0.0938   0.0938   0.0938   0.0938   0.0938
     0.0938   0.0938   0.0938   0.0938   0.0938   0.0938   0.0937   0.0937
     0.0876   0.0871   0.0768   0.0730   0.0402   0.0371   0.0002   0.0001
     0.0000   0.0000   0.0000   0.0000   0.0000   0.0000

          k = 0.0000 0.0000-0.6160 (  2186 PWs)   bands (ev):

   -19.6776 -19.6282  -6.4463  -6.4105  -5.8577  -5.8577  -5.8317  -5.8317
    -2.8295  -2.8295  -2.7944  -2.7944  -2.6714  -2.6302   6.3487   6.3653
     7.4114   7.4114   7.4559   7.4559   7.9876   8.0145   8.2912   8.2912
     8.3289   8.3289   9.8003   9.8003   9.8032   9.8032   9.8502   9.8595
    12.0667  12.0943  12.0943  12.1243  12.1466  12.1466  13.8623  13.8623
    13.9676  13.9676  17.1337  17.1337  17.1751  17.1751

     occupation numbers 
     0.0156   0.0156   0.0156   0.0156   0.0156   0.0156   0.0156   0.0156
     0.0156   0.0156   0.0156   0.0156   0.0156   0.0156   0.0156   0.0156
     0.0156   0.0156   0.0156   0.0156   0.0156   0.0156   0.0156   0.0156
     0.0156   0.0156   0.0156   0.0156   0.0156   0.0156   0.0156   0.0156
     0.0120   0.0116   0.0116   0.0110   0.0106   0.0106   0.0000   0.0000
     0.0000   0.0000   0.0000   0.0000   0.0000   0.0000

          k = 0.4942-0.5706 0.1027 (  2198 PWs)   bands (ev):

   -19.6891 -19.6201  -6.8718  -6.5687  -6.0443  -5.8041  -5.4091  -5.2615
    -3.2481  -3.1943  -2.8078  -2.6345  -2.4543  -2.3100   5.9946   6.3861
     7.0138   7.2956   7.3976   7.4355   7.7045   7.9855   8.0819   8.2748
     8.5242   9.0713   9.3171   9.5000   9.8400   9.9604  10.1176  10.5074
    11.5895  12.0057  12.0580  12.1721  12.3084  12.3205  13.1250  13.4844
    14.1058  14.9737  16.9285  17.1493  17.3404  18.0381

     occupation numbers 
     0.0938   0.0938   0.0938   0.0938   0.0938   0.0938   0.0938   0.0938
     0.0938   0.0938   0.0938   0.0938   0.0938   0.0938   0.0938   0.0938
     0.0938   0.0938   0.0938   0.0938   0.0938   0.0938   0.0938   0.0938
     0.0938   0.0938   0.0938   0.0938   0.0938   0.0937   0.0937   0.0937
     0.0930   0.0777   0.0730   0.0605   0.0432   0.0416   0.0002   0.0000
     0.0000   0.0000   0.0000   0.0000   0.0000   0.0000

     the Fermi energy is    12.2800 ev

!    total energy              =    -538.38356640 Ry
     Harris-Foulkes estimate   =    -538.38356639 Ry
     estimated scf accuracy    <          8.4E-09 Ry

     The total energy is the sum of the following terms:

     one-electron contribution =     -32.71375102 Ry
     hartree contribution      =      83.48813980 Ry
     xc contribution           =    -199.64660914 Ry
     ewald contribution        =    -389.44315552 Ry
     Hubbard energy            =      -0.02824400 Ry
     smearing contrib. (-TS)   =      -0.03994653 Ry

     total magnetization       =     3.54 Bohr mag/cell
     absolute magnetization    =     3.70 Bohr mag/cell

     convergence has been achieved in   8 iterations

     init_run     :      8.80s CPU      8.92s WALL (       1 calls)
     electrons    :    310.82s CPU    312.55s WALL (       1 calls)

     Called by init_run:
     wfcinit      :      0.00s CPU      0.00s WALL (       1 calls)
     potinit      :      0.90s CPU      0.94s WALL (       1 calls)

     Called by electrons:
     c_bands      :    219.38s CPU    220.14s WALL (       8 calls)
     sum_band     :     56.94s CPU     57.38s WALL (       8 calls)
     v_of_rho     :      6.74s CPU      6.79s WALL (       9 calls)
     v_h          :      0.18s CPU      0.18s WALL (       9 calls)
     v_xc         :      6.56s CPU      6.61s WALL (       9 calls)
     newd         :     29.83s CPU     29.89s WALL (       9 calls)
     mix_rho      :      0.54s CPU      0.54s WALL (       8 calls)

     Called by c_bands:
     init_us_2    :      2.00s CPU      2.02s WALL (     448 calls)
     cegterg      :    214.00s CPU    214.38s WALL (     224 calls)

     Called by sum_band:
     sum_band:bec :      0.16s CPU      0.17s WALL (     224 calls)
     addusdens    :     22.21s CPU     22.24s WALL (       8 calls)

     Called by *egterg:
     h_psi        :    153.48s CPU    153.78s WALL (    1085 calls)
     s_psi        :      9.25s CPU      9.25s WALL (    1085 calls)
     g_psi        :      0.66s CPU      0.65s WALL (     861 calls)
     cdiaghg      :     19.78s CPU     19.81s WALL (    1057 calls)
     cegterg:over :     11.67s CPU     11.69s WALL (     861 calls)
     cegterg:upda :      9.09s CPU      9.10s WALL (     861 calls)
     cegterg:last :      4.64s CPU      4.65s WALL (     252 calls)

     Called by h_psi:
     h_psi:vloc   :    123.74s CPU    124.03s WALL (    1085 calls)
     h_psi:vnl    :     19.01s CPU     19.01s WALL (    1085 calls)
     add_vuspsi   :      9.38s CPU      9.39s WALL (    1085 calls)
     vhpsi        :     10.28s CPU     10.28s WALL (    1085 calls)

     General routines
     calbec       :     18.85s CPU     18.86s WALL (    2618 calls)
     fft          :      3.24s CPU      3.26s WALL (     267 calls)
     ffts         :      0.10s CPU      0.10s WALL (      34 calls)
     fftw         :    108.12s CPU    108.44s WALL (   68434 calls)
     interpolate  :      0.67s CPU      0.68s WALL (      34 calls)
     davcio       :      0.01s CPU      0.72s WALL (     476 calls)

     Parallel routines
     fft_scatter  :     29.39s CPU     29.66s WALL (   68735 calls)
     Hubbard U routines
     new_ns       :      1.74s CPU      2.07s WALL (       8 calls)
     vhpsi        :     10.28s CPU     10.28s WALL (    1085 calls)

     PWSCF        :  5m20.08s CPU     5m21.94s WALL


   This run was terminated on:  12:15:41  13Nov2012            

=------------------------------------------------------------------------------=
