   JOB DONE.
=------------------------------------------------------------------------------=

     Program PWSCF v.5.0.1 starts on 11Nov2012 at 15: 2:23 

     This program is part of the open-source Quantum ESPRESSO suite
     for quantum simulation of materials; please cite
         "P. Giannozzi et al., J. Phys.:Condens. Matter 21 395502 (2009);
          URL http://www.quantum-espresso.org", 
     in publications or presentations arising from this work. More details at
     http://www.quantum-espresso.org/quote.php

     Parallel version (MPI), running on     2 processors
     R & G space division:  proc/pool =    2

     Current dimensions of program PWSCF are:
     Max number of different atomic species (ntypx) = 10
     Max number of k-points (npk) =  40000
     Max angular momentum in pseudopotentials (lmaxx) =  3
     Reading input from CoLaO_U500_a0.in
               file Co.pbe-nd-rrkjus.UPF: wavefunction(s)  4S 3D renormalized
               file Co.pbe-nd-rrkjus.UPF: wavefunction(s)  4S 3D renormalized
               file O.pbe-rrkjus.UPF: wavefunction(s)  2S renormalized

     Subspace diagonalization in iterative solution of the eigenvalue problem:
     a serial algorithm will be used


     Parallelization info
     --------------------
     sticks:   dense  smooth     PW     G-vecs:    dense   smooth      PW
     Min        1112     444    131                34808     8786    1448
     Max        1113     445    132                34809     8787    1449
     Sum        2225     889    263                69617    17573    2897


     Title: 
     GGA + U, U = 5.000, alpha = 1D-40                                          


     bravais-lattice index     =            5
     lattice parameter (alat)  =      10.3292  a.u.
     unit-cell volume          =     793.0599 (a.u.)^3
     number of atoms/cell      =           10
     number of atomic types    =            4
     number of electrons       =        76.00
     number of Kohn-Sham states=           46
     kinetic-energy cutoff     =      30.0000  Ry
     charge density cutoff     =     300.0000  Ry
     convergence threshold     =      1.0E-08
     mixing beta               =       0.2000
     number of iterations used =            8  plain     mixing
     Exchange-correlation      =  SLA  PW   PBE  PBE ( 1 4 3 4 0)
     EXX-fraction              =        0.00

     celldm(1)=  10.329242  celldm(2)=   0.000000  celldm(3)=   0.000000
     celldm(4)=   0.488100  celldm(5)=   0.000000  celldm(6)=   0.000000

     crystal axes: (cart. coord. in units of alat)
               a(1) = (   0.505915  -0.292090   0.811624 )  
               a(2) = (   0.000000   0.584180   0.811624 )  
               a(3) = (  -0.505915  -0.292090   0.811624 )  

     reciprocal axes: (cart. coord. in units 2 pi/alat)
               b(1) = (  0.988308 -0.570600  0.410699 )  
               b(2) = (  0.000000  1.141200  0.410699 )  
               b(3) = ( -0.988308 -0.570600  0.410699 )  


     PseudoPot. # 1 for Co read from file:
     /home/mcurnan/dft-course/Project1/example_LaCoO3/Co.pbe-nd-rrkjus.UPF
     MD5 check sum: 3e47a84addf5e975e0edeaeee2a73f59
     Pseudo is Ultrasoft + core correction, Zval =  9.0
     Generated by new atomic code, or converted to UPF format
     Using radial grid of  961 points,  6 beta functions with: 
                l(1) =   0
                l(2) =   0
                l(3) =   1
                l(4) =   1
                l(5) =   2
                l(6) =   2
     Q(r) pseudized with 0 coefficients 


     PseudoPot. # 2 for Co read from file:
     /home/mcurnan/dft-course/Project1/example_LaCoO3/Co.pbe-nd-rrkjus.UPF
     MD5 check sum: 3e47a84addf5e975e0edeaeee2a73f59
     Pseudo is Ultrasoft + core correction, Zval =  9.0
     Generated by new atomic code, or converted to UPF format
     Using radial grid of  961 points,  6 beta functions with: 
                l(1) =   0
                l(2) =   0
                l(3) =   1
                l(4) =   1
                l(5) =   2
                l(6) =   2
     Q(r) pseudized with 0 coefficients 


     PseudoPot. # 3 for La read from file:
     /home/mcurnan/dft-course/Project1/example_LaCoO3/La.pbe-nsp-van.UPF
     MD5 check sum: b2f11743f52dde65f77d1302becd7929
     Pseudo is Ultrasoft + core correction, Zval = 11.0
     Generated by new atomic code, or converted to UPF format
     Using radial grid of  907 points,  6 beta functions with: 
                l(1) =   0
                l(2) =   0
                l(3) =   1
                l(4) =   1
                l(5) =   2
                l(6) =   2
     Q(r) pseudized with  6 coefficients,  rinner =    1.200   1.200   1.200
                                                       1.200   1.200

     PseudoPot. # 4 for O  read from file:
     /home/mcurnan/dft-course/Project1/example_LaCoO3/O.pbe-rrkjus.UPF
     MD5 check sum: 390ba29e75625707450f3bd3f0eb6be9
     Pseudo is Ultrasoft, Zval =  6.0
     Generated by new atomic code, or converted to UPF format
     Using radial grid of 1269 points,  4 beta functions with: 
                l(1) =   0
                l(2) =   0
                l(3) =   1
                l(4) =   1
     Q(r) pseudized with 0 coefficients 


     atomic species   valence    mass     pseudopotential
        Co1            9.00     1.00000     Co( 1.00)
        Co2            9.00     1.00000     Co( 1.00)
        La1           11.00     1.00000     La( 1.00)
        O1             6.00     1.00000     O ( 1.00)
 -----
     simplified LDA+U calculation, Hubbard_lmax = 2
     atomic species  L   Hubbard U  Hubbard alpha
        Co1          2    5.000000    0.000000
        Co2          2    5.000000    0.000000
        La1          2    0.000000    0.000000
        O1           1    0.000000    0.000000
 -----

      6 Sym. Ops., with inversion, found


                                    s                        frac. trans.

      isym =  1     identity                                     

 cryst.   s( 1) = (     1          0          0      )
                  (     0          1          0      )
                  (     0          0          1      )

 cart.    s( 1) = (  1.0000000  0.0000000  0.0000000 )
                  (  0.0000000  1.0000000  0.0000000 )
                  (  0.0000000  0.0000000  1.0000000 )


      isym =  2     120 deg rotation - cryst. axis [0,0,1]       

 cryst.   s( 2) = (     0          1          0      )
                  (     0          0          1      )
                  (     1          0          0      )

 cart.    s( 2) = ( -0.5000000 -0.8660254  0.0000000 )
                  (  0.8660254 -0.5000000  0.0000000 )
                  (  0.0000000  0.0000000  1.0000000 )


      isym =  3     120 deg rotation - cryst. axis [0,0,-1]      

 cryst.   s( 3) = (     0          0          1      )
                  (     1          0          0      )
                  (     0          1          0      )

 cart.    s( 3) = ( -0.5000000  0.8660254  0.0000000 )
                  ( -0.8660254 -0.5000000  0.0000000 )
                  (  0.0000000  0.0000000  1.0000000 )


      isym =  4     inversion                                    

 cryst.   s( 4) = (    -1          0          0      )
                  (     0         -1          0      )
                  (     0          0         -1      )

 cart.    s( 4) = ( -1.0000000  0.0000000  0.0000000 )
                  (  0.0000000 -1.0000000  0.0000000 )
                  (  0.0000000  0.0000000 -1.0000000 )


      isym =  5     inv. 180 deg rotation - cart. axis [0,1,0]   

 cryst.   s( 5) = (     0         -1          0      )
                  (     0          0         -1      )
                  (    -1          0          0      )

 cart.    s( 5) = (  0.5000000  0.8660254  0.0000000 )
                  ( -0.8660254  0.5000000  0.0000000 )
                  (  0.0000000  0.0000000 -1.0000000 )


      isym =  6     inv. 180 deg rotation - cart. axis [1,0,0]   

 cryst.   s( 6) = (     0          0         -1      )
                  (    -1          0          0      )
                  (     0         -1          0      )

 cart.    s( 6) = (  0.5000000 -0.8660254  0.0000000 )
                  (  0.8660254  0.5000000  0.0000000 )
                  (  0.0000000  0.0000000 -1.0000000 )


     point group S_6 (-3)   
     there are  6 classes
     the character table:

       E     C3    C3^2  i     S6^5  S6   
A_g    1.00  1.00  1.00  1.00  1.00  1.00
E_g    1.00 -0.50 -0.50  1.00 -0.50 -0.50
E_g*   1.00 -0.50 -0.50  1.00 -0.50 -0.50
A_u    1.00  1.00  1.00 -1.00 -1.00 -1.00
E_u    1.00 -0.50 -0.50 -1.00  0.50  0.50
E_u*   1.00 -0.50 -0.50 -1.00  0.50  0.50
     imaginary part
A_g    0.00  0.00  0.00  0.00  0.00  0.00
E_g    0.00  0.87 -0.87  0.00  0.87 -0.87
E_g*   0.00 -0.87  0.87  0.00 -0.87  0.87
A_u    0.00  0.00  0.00  0.00  0.00  0.00
E_u    0.00  0.87 -0.87  0.00 -0.87  0.87
E_u*   0.00 -0.87  0.87  0.00  0.87 -0.87

     the symmetry operations in each class:
     E        1
     C3       2
     C3^2     3
     i        4
     S6^5     5
     S6       6

   Cartesian axes

     site n.     atom                  positions (alat units)
         1           Co1 tau(   1) = (   0.0000000   0.0000000   0.0000000  )
         2           Co2 tau(   2) = (   0.0000000   0.0000000   1.2174358  )
         3           La1 tau(   3) = (   0.0000000   0.0000000   0.6087179  )
         4           La1 tau(   4) = (   0.0000000   0.0000000   1.8261537  )
         5           O1  tau(   5) = (  -0.2839701  -0.0933228   1.0141240  )
         6           O1  tau(   6) = (   0.0611651   0.2925867   1.0141240  )
         7           O1  tau(   7) = (   0.2228050  -0.1992639   1.0141240  )
         8           O1  tau(   8) = (  -0.0611651  -0.2925867   1.4207476  )
         9           O1  tau(   9) = (   0.2839701   0.0933228   1.4207476  )
        10           O1  tau(  10) = (  -0.2228050   0.1992639   1.4207476  )

   Crystallographic axes

     site n.     atom                  positions (cryst. coord.)
         1           Co1 tau(   1) = (  0.0000000  0.0000000  0.0000000  )
         2           Co2 tau(   2) = (  0.5000000  0.5000000  0.5000000  )
         3           La1 tau(   3) = (  0.2500000  0.2500000  0.2500000  )
         4           La1 tau(   4) = (  0.7500000  0.7500000  0.7500000  )
         5           O1  tau(   5) = (  0.1891000  0.3100000  0.7504000  )
         6           O1  tau(   6) = (  0.3100000  0.7504000  0.1891000  )
         7           O1  tau(   7) = (  0.7504000  0.1891000  0.3100000  )
         8           O1  tau(   8) = (  0.6900000  0.2496000  0.8109000  )
         9           O1  tau(   9) = (  0.8109000  0.6900000  0.2496000  )
        10           O1  tau(  10) = (  0.2496000  0.8109000  0.6900000  )

     number of k points=    14  gaussian smearing, width (Ry)=  0.0300
                       cart. coord. in units 2pi/alat
        k(    1) = (   0.0000000   0.0000000   0.0000000), wk =   0.0312500
        k(    2) = (  -0.2470771  -0.1426500   0.1026748), wk =   0.1875000
        k(    3) = (   0.4941541   0.2853000  -0.2053496), wk =   0.0937500
        k(    4) = (  -0.2470771   0.1426500   0.2053496), wk =   0.1875000
        k(    5) = (   0.4941541   0.5706001  -0.1026748), wk =   0.1875000
        k(    6) = (   0.2470771   0.4279500   0.0000000), wk =   0.1875000
        k(    7) = (   0.4941541  -0.2853000  -0.4106993), wk =   0.0937500
        k(    8) = (   0.0000000   0.0000000   0.3080244), wk =   0.0625000
        k(    9) = (   0.7412312   0.4279500   0.0000000), wk =   0.1875000
        k(   10) = (   0.4941541   0.2853000   0.1026748), wk =   0.1875000
        k(   11) = (   0.7412312  -0.4279500  -0.3080244), wk =   0.1875000
        k(   12) = (   0.4941541  -0.5706001  -0.2053496), wk =   0.1875000
        k(   13) = (   0.0000000   0.0000000  -0.6160489), wk =   0.0312500
        k(   14) = (   0.4941541  -0.5706001   0.1026748), wk =   0.1875000

                       cryst. coord.
        k(    1) = (   0.0000000   0.0000000   0.0000000), wk =   0.0312500
        k(    2) = (   0.0000000   0.0000000   0.2500000), wk =   0.1875000
        k(    3) = (   0.0000000   0.0000000  -0.5000000), wk =   0.0937500
        k(    4) = (   0.0000000   0.2500000   0.2500000), wk =   0.1875000
        k(    5) = (   0.0000000   0.2500000  -0.5000000), wk =   0.1875000
        k(    6) = (   0.0000000   0.2500000  -0.2500000), wk =   0.1875000
        k(    7) = (   0.0000000  -0.5000000  -0.5000000), wk =   0.0937500
        k(    8) = (   0.2500000   0.2500000   0.2500000), wk =   0.0625000
        k(    9) = (   0.2500000   0.2500000  -0.5000000), wk =   0.1875000
        k(   10) = (   0.2500000   0.2500000  -0.2500000), wk =   0.1875000
        k(   11) = (   0.2500000  -0.5000000  -0.5000000), wk =   0.1875000
        k(   12) = (   0.2500000  -0.5000000  -0.2500000), wk =   0.1875000
        k(   13) = (  -0.5000000  -0.5000000  -0.5000000), wk =   0.0312500
        k(   14) = (   0.5000000  -0.2500000   0.0000000), wk =   0.1875000

     Dense  grid:    69617 G-vectors     FFT dimensions: (  60,  60,  60)

     Smooth grid:    17573 G-vectors     FFT dimensions: (  40,  40,  40)

     Largest allocated arrays     est. size (Mb)     dimensions
        Kohn-Sham Wavefunctions         0.78 Mb     (   1117,   46)
        Atomic wavefunctions            1.06 Mb     (   1117,   62)
        NL pseudopotentials             2.05 Mb     (   1117,  120)
        Each V/rho on FFT grid          1.65 Mb     ( 108000)
        Each G-vector array             0.27 Mb     (  34808)
        G-vector shells                 0.04 Mb     (   4682)
     Largest temporary arrays     est. size (Mb)     dimensions
        Auxiliary wavefunctions         3.14 Mb     (   1117,  184)
        Each subspace H/S matrix        0.52 Mb     ( 184, 184)
        Each <psi_i|beta_j> matrix      0.08 Mb     (    120,   46)
        Arrays for rho mixing          13.18 Mb     ( 108000,   8)

     Check: negative/imaginary core charge=   -0.000028    0.000000

     The initial density is read from file :
     /home/mcurnan/dft-course/Project1/example_LaCoO3/500/Co/alpha/CoLaO_U500.save/charge-density.dat

 --- in v_hubbard ---
Hubbard energy    0.4785
 -------
     Number of +U iterations with fixed ns =  0
     Starting occupations:
 --- enter write_ns ---
 LDA+U parameters:
U( 1)     =  5.00000000
alpha( 1) =  0.00000000
U( 2)     =  5.00000000
alpha( 2) =  0.00000000
U( 3)     =  0.00000000
alpha( 3) =  0.00000000
U( 4)     =  0.00000000
alpha( 4) =  0.00000000
atom    1   Tr[ns(na)] =   8.02206
    eigenvalues: 
  0.596  0.596  0.938  0.941  0.941
    eigenvectors:
  0.000  0.000  1.000  0.000  0.000
  0.333  0.322  0.000  0.004  0.341
  0.322  0.333  0.000  0.341  0.004
  0.289  0.056  0.000  0.515  0.140
  0.056  0.289  0.000  0.140  0.515
    occupations:
  0.938  0.000  0.000  0.000  0.000
  0.000  0.715  0.000 -0.060  0.152
  0.000  0.000  0.715  0.152  0.060
  0.000 -0.060  0.152  0.822  0.000
  0.000  0.152  0.060  0.000  0.822
atom    2   Tr[ns(na)] =   8.02145
    eigenvalues: 
  0.595  0.595  0.938  0.941  0.941
    eigenvectors:
  0.000  0.000  1.000  0.000  0.000
  0.640  0.015  0.000  0.223  0.122
  0.015  0.640  0.000  0.122  0.223
  0.017  0.329  0.000  0.470  0.185
  0.329  0.017  0.000  0.185  0.470
    occupations:
  0.938  0.000  0.000  0.000  0.000
  0.000  0.715  0.000  0.060  0.153
  0.000  0.000  0.715  0.153 -0.060
  0.000  0.060  0.153  0.822  0.000
  0.000  0.153 -0.060  0.000  0.822
atom    3   Tr[ns(na)] =   3.80284
    eigenvalues: 
  0.355  0.355  0.384  0.403  0.403
    eigenvectors:
  0.000  0.000  1.000  0.000  0.000
  0.781  0.139  0.000  0.012  0.068
  0.139  0.781  0.000  0.068  0.012
  0.013  0.067  0.000  0.780  0.141
  0.067  0.013  0.000  0.141  0.780
    occupations:
  0.384  0.000  0.000  0.000  0.000
  0.000  0.359  0.000  0.000  0.013
  0.000  0.000  0.359  0.013  0.000
  0.000  0.000  0.013  0.399  0.000
  0.000  0.013  0.000  0.000  0.399
atom    4   Tr[ns(na)] =   3.80284
    eigenvalues: 
  0.355  0.355  0.384  0.403  0.403
    eigenvectors:
  0.000  0.000  1.000  0.000  0.000
  0.782  0.139  0.000  0.012  0.068
  0.139  0.782  0.000  0.068  0.012
  0.012  0.067  0.000  0.780  0.141
  0.067  0.012  0.000  0.141  0.780
    occupations:
  0.384  0.000  0.000  0.000  0.000
  0.000  0.359  0.000  0.000  0.013
  0.000  0.000  0.359  0.013  0.000
  0.000  0.000  0.013  0.399  0.000
  0.000  0.013  0.000  0.000  0.399
atom    5   Tr[ns(na)] =   5.43357
    eigenvalues: 
  0.846  0.929  0.941
    eigenvectors:
  0.340  0.000  0.660
  0.494  0.250  0.256
  0.166  0.750  0.085
    occupations:
  0.909  0.039  0.022
  0.039  0.891 -0.022
  0.022 -0.022  0.917
atom    6   Tr[ns(na)] =   5.43357
    eigenvalues: 
  0.846  0.929  0.941
    eigenvectors:
  0.340  0.000  0.660
  0.000  1.000  0.000
  0.660  0.000  0.340
    occupations:
  0.909  0.000 -0.045
  0.000  0.929  0.000
 -0.045  0.000  0.879
atom    7   Tr[ns(na)] =   5.43357
    eigenvalues: 
  0.846  0.929  0.941
    eigenvectors:
  0.340  0.000  0.660
  0.496  0.250  0.255
  0.164  0.750  0.086
    occupations:
  0.909 -0.039  0.022
 -0.039  0.891  0.022
  0.022  0.022  0.917
atom    8   Tr[ns(na)] =   5.43357
    eigenvalues: 
  0.846  0.929  0.941
    eigenvectors:
  0.340  0.000  0.660
  0.000  1.000  0.000
  0.660  0.000  0.340
    occupations:
  0.909  0.000 -0.045
  0.000  0.929  0.000
 -0.045  0.000  0.879
atom    9   Tr[ns(na)] =   5.43357
    eigenvalues: 
  0.846  0.929  0.941
    eigenvectors:
  0.340  0.000  0.660
  0.494  0.250  0.256
  0.166  0.750  0.085
    occupations:
  0.909  0.039  0.022
  0.039  0.891 -0.022
  0.022 -0.022  0.917
atom   10   Tr[ns(na)] =   5.43357
    eigenvalues: 
  0.846  0.929  0.941
    eigenvectors:
  0.340  0.000  0.660
  0.496  0.250  0.255
  0.164  0.750  0.086
    occupations:
  0.909 -0.039  0.022
 -0.039  0.891  0.022
  0.022  0.022  0.917
N of occupied +U levels =  56.2506062
 --- exit write_ns ---
 LDA+U Projector read from file 
     Starting wfc from file

     total cpu time spent up to now is        8.7 secs

     per-process dynamical memory:    46.9 Mb

     Self-consistent Calculation

     iteration #  1     ecut=    30.00 Ry     beta=0.20
     Davidson diagonalization with overlap
     c_bands:  1 eigenvalues not converged
     c_bands:  1 eigenvalues not converged
     c_bands:  1 eigenvalues not converged
     c_bands:  1 eigenvalues not converged
     c_bands:  1 eigenvalues not converged
     ethr =  1.00E-10,  avg # of iterations = 16.7
 --- enter write_ns ---
 LDA+U parameters:
U( 1)     =  5.00000000
alpha( 1) =  0.00000000
U( 2)     =  5.00000000
alpha( 2) =  0.00000000
U( 3)     =  0.00000000
alpha( 3) =  0.00000000
U( 4)     =  0.00000000
alpha( 4) =  0.00000000
atom    1   Tr[ns(na)] =   8.22050
    eigenvalues: 
  0.567  0.567  0.991  0.991  0.994
    eigenvectors:
  0.000  0.000  0.000  0.000  1.000
  0.330  0.325  0.004  0.342  0.000
  0.325  0.330  0.342  0.004  0.000
  0.289  0.057  0.514  0.140  0.000
  0.057  0.289  0.140  0.514  0.000
    occupations:
  0.994  0.000  0.000  0.000  0.000
  0.000  0.714  0.000 -0.073  0.188
  0.000  0.000  0.714  0.188  0.073
  0.000 -0.073  0.188  0.844  0.000
  0.000  0.188  0.073  0.000  0.844
atom    2   Tr[ns(na)] =   8.21106
    eigenvalues: 
  0.565  0.565  0.991  0.991  0.994
    eigenvectors:
  0.000  0.000  0.000  0.000  1.000
  0.635  0.019  0.222  0.124  0.000
  0.019  0.635  0.124  0.222  0.000
  0.013  0.333  0.469  0.185  0.000
  0.333  0.013  0.185  0.469  0.000
    occupations:
  0.994  0.000  0.000  0.000  0.000
  0.000  0.712  0.000  0.073  0.189
  0.000  0.000  0.712  0.189 -0.073
  0.000  0.073  0.189  0.844  0.000
  0.000  0.189 -0.073  0.000  0.844
atom    3   Tr[ns(na)] =   3.79206
    eigenvalues: 
  0.356  0.356  0.381  0.401  0.401
    eigenvectors:
  0.000  0.000  1.000  0.000  0.000
  0.776  0.141  0.000  0.012  0.071
  0.141  0.776  0.000  0.071  0.012
  0.013  0.070  0.000  0.775  0.142
  0.070  0.013  0.000  0.142  0.775
    occupations:
  0.381  0.000  0.000  0.000  0.000
  0.000  0.360  0.000  0.000  0.013
  0.000  0.000  0.360  0.013  0.000
  0.000  0.000  0.013  0.398  0.000
  0.000  0.013  0.000  0.000  0.398
atom    4   Tr[ns(na)] =   3.79206
    eigenvalues: 
  0.356  0.356  0.381  0.401  0.401
    eigenvectors:
  0.000  0.000  1.000  0.000  0.000
  0.776  0.141  0.000  0.012  0.071
  0.141  0.776  0.000  0.071  0.012
  0.013  0.070  0.000  0.775  0.142
  0.070  0.013  0.000  0.142  0.775
    occupations:
  0.381  0.000  0.000  0.000  0.000
  0.000  0.360  0.000  0.000  0.013
  0.000  0.000  0.360  0.013  0.000
  0.000  0.000  0.013  0.398  0.000
  0.000  0.013  0.000  0.000  0.398
atom    5   Tr[ns(na)] =   5.38528
    eigenvalues: 
  0.825  0.923  0.944
    eigenvectors:
  0.341  0.000  0.659
  0.494  0.250  0.256
  0.165  0.750  0.085
    occupations:
  0.904  0.049  0.028
  0.049  0.880 -0.025
  0.028 -0.025  0.909
atom    6   Tr[ns(na)] =   5.38528
    eigenvalues: 
  0.825  0.923  0.944
    eigenvectors:
  0.341  0.000  0.659
  0.000  1.000  0.000
  0.659  0.000  0.341
    occupations:
  0.904  0.000 -0.057
  0.000  0.923  0.000
 -0.057  0.000  0.866
atom    7   Tr[ns(na)] =   5.38528
    eigenvalues: 
  0.825  0.923  0.944
    eigenvectors:
  0.341  0.000  0.659
  0.495  0.250  0.255
  0.164  0.750  0.086
    occupations:
  0.904 -0.049  0.028
 -0.049  0.880  0.025
  0.028  0.025  0.909
atom    8   Tr[ns(na)] =   5.38528
    eigenvalues: 
  0.825  0.923  0.944
    eigenvectors:
  0.341  0.000  0.659
  0.000  1.000  0.000
  0.659  0.000  0.341
    occupations:
  0.904  0.000 -0.057
  0.000  0.923  0.000
 -0.057  0.000  0.866
atom    9   Tr[ns(na)] =   5.38528
    eigenvalues: 
  0.825  0.923  0.944
    eigenvectors:
  0.341  0.000  0.659
  0.494  0.250  0.256
  0.165  0.750  0.085
    occupations:
  0.904  0.049  0.028
  0.049  0.880 -0.025
  0.028 -0.025  0.909
atom   10   Tr[ns(na)] =   5.38528
    eigenvalues: 
  0.825  0.923  0.944
    eigenvectors:
  0.341  0.000  0.659
  0.495  0.250  0.255
  0.164  0.750  0.086
    occupations:
  0.904 -0.049  0.028
 -0.049  0.880  0.025
  0.028  0.025  0.909
N of occupied +U levels =  56.3273397
 --- exit write_ns ---
 --- in v_hubbard ---
Hubbard energy    0.4596
 -------

     total cpu time spent up to now is       54.4 secs

     total energy              =    -537.90569392 Ry
     Harris-Foulkes estimate   =    -537.91603231 Ry
     estimated scf accuracy    <       0.05037481 Ry

     iteration #  2     ecut=    30.00 Ry     beta=0.20
     Davidson diagonalization with overlap
     ethr =  6.63E-05,  avg # of iterations =  1.9
 --- enter write_ns ---
 LDA+U parameters:
U( 1)     =  5.00000000
alpha( 1) =  0.00000000
U( 2)     =  5.00000000
alpha( 2) =  0.00000000
U( 3)     =  0.00000000
alpha( 3) =  0.00000000
U( 4)     =  0.00000000
alpha( 4) =  0.00000000
atom    1   Tr[ns(na)] =   8.02424
    eigenvalues: 
  0.516  0.516  0.992  0.992  0.995
    eigenvectors:
  0.000  0.000  0.000  0.000  1.000
  0.332  0.323  0.003  0.341  0.000
  0.323  0.332  0.341  0.003  0.000
  0.289  0.056  0.516  0.139  0.000
  0.056  0.289  0.139  0.516  0.000
    occupations:
  0.995  0.000  0.000  0.000  0.000
  0.000  0.680  0.000 -0.083  0.210
  0.000  0.000  0.680  0.210  0.083
  0.000 -0.083  0.210  0.828  0.000
  0.000  0.210  0.083  0.000  0.828
atom    2   Tr[ns(na)] =   8.02675
    eigenvalues: 
  0.516  0.516  0.993  0.993  0.996
    eigenvectors:
  0.000  0.000  0.000  0.000  1.000
  0.639  0.016  0.223  0.121  0.000
  0.016  0.639  0.121  0.223  0.000
  0.016  0.329  0.471  0.185  0.000
  0.329  0.016  0.185  0.471  0.000
    occupations:
  0.996  0.000  0.000  0.000  0.000
  0.000  0.680  0.000  0.083  0.211
  0.000  0.000  0.680  0.211 -0.083
  0.000  0.083  0.211  0.828  0.000
  0.000  0.211 -0.083  0.000  0.828
atom    3   Tr[ns(na)] =   3.78799
    eigenvalues: 
  0.355  0.355  0.381  0.401  0.401
    eigenvectors:
  0.000  0.000  1.000  0.000  0.000
  0.781  0.139  0.000  0.012  0.068
  0.139  0.781  0.000  0.068  0.012
  0.013  0.067  0.000  0.779  0.141
  0.067  0.013  0.000  0.141  0.779
    occupations:
  0.381  0.000  0.000  0.000  0.000
  0.000  0.359  0.000  0.000  0.013
  0.000  0.000  0.359  0.013  0.000
  0.000  0.000  0.013  0.398  0.000
  0.000  0.013  0.000  0.000  0.398
atom    4   Tr[ns(na)] =   3.78799
    eigenvalues: 
  0.355  0.355  0.381  0.401  0.401
    eigenvectors:
  0.000  0.000  1.000  0.000  0.000
  0.781  0.139  0.000  0.012  0.068
  0.139  0.781  0.000  0.068  0.012
  0.013  0.067  0.000  0.779  0.141
  0.067  0.013  0.000  0.141  0.779
    occupations:
  0.381  0.000  0.000  0.000  0.000
  0.000  0.359  0.000  0.000  0.013
  0.000  0.000  0.359  0.013  0.000
  0.000  0.000  0.013  0.398  0.000
  0.000  0.013  0.000  0.000  0.398
atom    5   Tr[ns(na)] =   5.44588
    eigenvalues: 
  0.843  0.932  0.949
    eigenvectors:
  0.336  0.000  0.664
  0.499  0.248  0.253
  0.165  0.752  0.083
    occupations:
  0.913  0.043  0.025
  0.043  0.891 -0.023
  0.025 -0.023  0.918
atom    6   Tr[ns(na)] =   5.44588
    eigenvalues: 
  0.843  0.932  0.949
    eigenvectors:
  0.336  0.000  0.664
  0.000  1.000  0.000
  0.664  0.000  0.336
    occupations:
  0.913  0.000 -0.050
  0.000  0.932  0.000
 -0.050  0.000  0.878
atom    7   Tr[ns(na)] =   5.44588
    eigenvalues: 
  0.843  0.932  0.949
    eigenvectors:
  0.336  0.000  0.664
  0.497  0.252  0.251
  0.167  0.748  0.085
    occupations:
  0.913 -0.043  0.025
 -0.043  0.892  0.023
  0.025  0.023  0.918
atom    8   Tr[ns(na)] =   5.44588
    eigenvalues: 
  0.843  0.932  0.949
    eigenvectors:
  0.336  0.000  0.664
  0.000  1.000  0.000
  0.664  0.000  0.336
    occupations:
  0.913  0.000 -0.050
  0.000  0.932  0.000
 -0.050  0.000  0.878
atom    9   Tr[ns(na)] =   5.44588
    eigenvalues: 
  0.843  0.932  0.949
    eigenvectors:
  0.336  0.000  0.664
  0.499  0.248  0.253
  0.165  0.752  0.083
    occupations:
  0.913  0.043  0.025
  0.043  0.891 -0.023
  0.025 -0.023  0.918
atom   10   Tr[ns(na)] =   5.44588
    eigenvalues: 
  0.843  0.932  0.949
    eigenvectors:
  0.336  0.000  0.664
  0.497  0.252  0.251
  0.167  0.748  0.085
    occupations:
  0.913 -0.043  0.025
 -0.043  0.892  0.023
  0.025  0.023  0.918
N of occupied +U levels =  56.3022432
 --- exit write_ns ---
 --- in v_hubbard ---
Hubbard energy    0.4515
 -------

     total cpu time spent up to now is       69.8 secs

     total energy              =    -537.91566943 Ry
     Harris-Foulkes estimate   =    -537.91548760 Ry
     estimated scf accuracy    <       0.03162338 Ry

     iteration #  3     ecut=    30.00 Ry     beta=0.20
     Davidson diagonalization with overlap
     ethr =  4.16E-05,  avg # of iterations =  1.0
 --- enter write_ns ---
 LDA+U parameters:
U( 1)     =  5.00000000
alpha( 1) =  0.00000000
U( 2)     =  5.00000000
alpha( 2) =  0.00000000
U( 3)     =  0.00000000
alpha( 3) =  0.00000000
U( 4)     =  0.00000000
alpha( 4) =  0.00000000
atom    1   Tr[ns(na)] =   8.06635
    eigenvalues: 
  0.527  0.527  0.992  0.992  0.995
    eigenvectors:
  0.000  0.000  0.000  0.000  1.000
  0.333  0.323  0.004  0.341  0.000
  0.323  0.333  0.341  0.004  0.000
  0.288  0.056  0.516  0.140  0.000
  0.056  0.288  0.140  0.516  0.000
    occupations:
  0.995  0.000  0.000  0.000  0.000
  0.000  0.687  0.000 -0.082  0.206
  0.000  0.000  0.687  0.206  0.082
  0.000 -0.082  0.206  0.832  0.000
  0.000  0.206  0.082  0.000  0.832
atom    2   Tr[ns(na)] =   8.06276
    eigenvalues: 
  0.525  0.525  0.993  0.993  0.996
    eigenvectors:
  0.000  0.000  0.000  0.000  1.000
  0.639  0.017  0.223  0.122  0.000
  0.017  0.639  0.122  0.223  0.000
  0.015  0.329  0.471  0.185  0.000
  0.329  0.015  0.185  0.471  0.000
    occupations:
  0.996  0.000  0.000  0.000  0.000
  0.000  0.686  0.000  0.081  0.207
  0.000  0.000  0.686  0.207 -0.081
  0.000  0.081  0.207  0.832  0.000
  0.000  0.207 -0.081  0.000  0.832
atom    3   Tr[ns(na)] =   3.78867
    eigenvalues: 
  0.355  0.355  0.381  0.401  0.401
    eigenvectors:
  0.000  0.000  1.000  0.000  0.000
  0.781  0.139  0.000  0.012  0.068
  0.139  0.781  0.000  0.068  0.012
  0.013  0.067  0.000  0.779  0.141
  0.067  0.013  0.000  0.141  0.779
    occupations:
  0.381  0.000  0.000  0.000  0.000
  0.000  0.359  0.000  0.000  0.012
  0.000  0.000  0.359  0.012  0.000
  0.000  0.000  0.012  0.398  0.000
  0.000  0.012  0.000  0.000  0.398
atom    4   Tr[ns(na)] =   3.78867
    eigenvalues: 
  0.355  0.355  0.381  0.401  0.401
    eigenvectors:
  0.000  0.000  1.000  0.000  0.000
  0.781  0.139  0.000  0.012  0.068
  0.139  0.781  0.000  0.068  0.012
  0.013  0.067  0.000  0.779  0.141
  0.067  0.013  0.000  0.141  0.779
    occupations:
  0.381  0.000  0.000  0.000  0.000
  0.000  0.359  0.000  0.000  0.012
  0.000  0.000  0.359  0.012  0.000
  0.000  0.000  0.012  0.398  0.000
  0.000  0.012  0.000  0.000  0.398
atom    5   Tr[ns(na)] =   5.43350
    eigenvalues: 
  0.839  0.930  0.948
    eigenvectors:
  0.337  0.000  0.663
  0.498  0.249  0.253
  0.165  0.751  0.084
    occupations:
  0.911  0.045  0.026
  0.045  0.889 -0.024
  0.026 -0.024  0.916
atom    6   Tr[ns(na)] =   5.43350
    eigenvalues: 
  0.839  0.930  0.948
    eigenvectors:
  0.337  0.000  0.663
  0.000  1.000  0.000
  0.663  0.000  0.337
    occupations:
  0.911  0.000 -0.052
  0.000  0.930  0.000
 -0.052  0.000  0.876
atom    7   Tr[ns(na)] =   5.43350
    eigenvalues: 
  0.839  0.930  0.948
    eigenvectors:
  0.337  0.000  0.663
  0.497  0.251  0.252
  0.166  0.749  0.085
    occupations:
  0.911 -0.045  0.026
 -0.045  0.889  0.024
  0.026  0.024  0.916
atom    8   Tr[ns(na)] =   5.43350
    eigenvalues: 
  0.839  0.930  0.948
    eigenvectors:
  0.337  0.000  0.663
  0.000  1.000  0.000
  0.663  0.000  0.337
    occupations:
  0.911  0.000 -0.052
  0.000  0.930  0.000
 -0.052  0.000  0.876
atom    9   Tr[ns(na)] =   5.43350
    eigenvalues: 
  0.839  0.930  0.948
    eigenvectors:
  0.337  0.000  0.663
  0.498  0.249  0.253
  0.165  0.751  0.084
    occupations:
  0.911  0.045  0.026
  0.045  0.889 -0.024
  0.026 -0.024  0.916
atom   10   Tr[ns(na)] =   5.43350
    eigenvalues: 
  0.839  0.930  0.948
    eigenvectors:
  0.337  0.000  0.663
  0.497  0.251  0.252
  0.166  0.749  0.085
    occupations:
  0.911 -0.045  0.026
 -0.045  0.889  0.024
  0.026  0.024  0.916
N of occupied +U levels =  56.3074444
 --- exit write_ns ---
 --- in v_hubbard ---
Hubbard energy    0.3757
 -------

     total cpu time spent up to now is       83.8 secs

     total energy              =    -537.92133621 Ry
     Harris-Foulkes estimate   =    -537.91628825 Ry
     estimated scf accuracy    <       0.01509375 Ry

     iteration #  4     ecut=    30.00 Ry     beta=0.20
     Davidson diagonalization with overlap
     ethr =  1.99E-05,  avg # of iterations =  1.8
 --- enter write_ns ---
 LDA+U parameters:
U( 1)     =  5.00000000
alpha( 1) =  0.00000000
U( 2)     =  5.00000000
alpha( 2) =  0.00000000
U( 3)     =  0.00000000
alpha( 3) =  0.00000000
U( 4)     =  0.00000000
alpha( 4) =  0.00000000
atom    1   Tr[ns(na)] =   8.06591
    eigenvalues: 
  0.523  0.523  0.994  0.994  0.997
    eigenvectors:
  0.000  0.000  0.000  0.000  1.000
  0.338  0.321  0.003  0.338  0.000
  0.321  0.338  0.338  0.003  0.000
  0.285  0.056  0.519  0.139  0.000
  0.056  0.285  0.139  0.519  0.000
    occupations:
  0.997  0.000  0.000  0.000  0.000
  0.000  0.684  0.000 -0.083  0.207
  0.000  0.000  0.684  0.207  0.083
  0.000 -0.083  0.207  0.834  0.000
  0.000  0.207  0.083  0.000  0.834
atom    2   Tr[ns(na)] =   8.07985
    eigenvalues: 
  0.526  0.526  0.995  0.995  0.998
    eigenvectors:
  0.000  0.000  0.000  0.000  1.000
  0.640  0.018  0.222  0.119  0.000
  0.018  0.640  0.119  0.222  0.000
  0.015  0.326  0.475  0.184  0.000
  0.326  0.015  0.184  0.475  0.000
    occupations:
  0.998  0.000  0.000  0.000  0.000
  0.000  0.686  0.000  0.083  0.207
  0.000  0.000  0.686  0.207 -0.083
  0.000  0.083  0.207  0.835  0.000
  0.000  0.207 -0.083  0.000  0.835
atom    3   Tr[ns(na)] =   3.79766
    eigenvalues: 
  0.357  0.357  0.381  0.402  0.402
    eigenvectors:
  0.000  0.000  1.000  0.000  0.000
  0.784  0.138  0.000  0.011  0.066
  0.138  0.784  0.000  0.066  0.011
  0.012  0.065  0.000  0.782  0.140
  0.065  0.012  0.000  0.140  0.782
    occupations:
  0.381  0.000  0.000  0.000  0.000
  0.000  0.360  0.000  0.000  0.012
  0.000  0.000  0.360  0.012  0.000
  0.000  0.000  0.012  0.398  0.000
  0.000  0.012  0.000  0.000  0.398
atom    4   Tr[ns(na)] =   3.79766
    eigenvalues: 
  0.357  0.357  0.381  0.402  0.402
    eigenvectors:
  0.000  0.000  1.000  0.000  0.000
  0.784  0.138  0.000  0.011  0.066
  0.138  0.784  0.000  0.066  0.011
  0.012  0.065  0.000  0.782  0.141
  0.065  0.012  0.000  0.141  0.782
    occupations:
  0.381  0.000  0.000  0.000  0.000
  0.000  0.360  0.000  0.000  0.012
  0.000  0.000  0.360  0.012  0.000
  0.000  0.000  0.012  0.398  0.000
  0.000  0.012  0.000  0.000  0.398
atom    5   Tr[ns(na)] =   5.42606
    eigenvalues: 
  0.837  0.929  0.947
    eigenvectors:
  0.337  0.000  0.663
  0.500  0.246  0.254
  0.163  0.754  0.083
    occupations:
  0.910  0.045  0.026
  0.045  0.887 -0.024
  0.026 -0.024  0.916
atom    6   Tr[ns(na)] =   5.42606
    eigenvalues: 
  0.837  0.929  0.947
    eigenvectors:
  0.337  0.000  0.663
  0.000  1.000  0.000
  0.663  0.000  0.337
    occupations:
  0.910  0.000 -0.052
  0.000  0.929  0.000
 -0.052  0.000  0.874
atom    7   Tr[ns(na)] =   5.42606
    eigenvalues: 
  0.837  0.929  0.947
    eigenvectors:
  0.337  0.000  0.663
  0.494  0.254  0.252
  0.168  0.746  0.085
    occupations:
  0.910 -0.045  0.026
 -0.045  0.888  0.024
  0.026  0.024  0.915
atom    8   Tr[ns(na)] =   5.42606
    eigenvalues: 
  0.837  0.929  0.947
    eigenvectors:
  0.337  0.000  0.663
  0.000  1.000  0.000
  0.663  0.000  0.337
    occupations:
  0.910  0.000 -0.052
  0.000  0.929  0.000
 -0.052  0.000  0.874
atom    9   Tr[ns(na)] =   5.42606
    eigenvalues: 
  0.837  0.929  0.947
    eigenvectors:
  0.337  0.000  0.663
  0.500  0.246  0.254
  0.163  0.754  0.083
    occupations:
  0.910  0.045  0.026
  0.045  0.887 -0.024
  0.026 -0.024  0.916
atom   10   Tr[ns(na)] =   5.42606
    eigenvalues: 
  0.837  0.929  0.947
    eigenvectors:
  0.337  0.000  0.663
  0.494  0.254  0.252
  0.168  0.746  0.085
    occupations:
  0.910 -0.045  0.026
 -0.045  0.888  0.024
  0.026  0.024  0.915
N of occupied +U levels =  56.2974079
 --- exit write_ns ---
 --- in v_hubbard ---
Hubbard energy    0.3737
 -------

     total cpu time spent up to now is       98.5 secs

     total energy              =    -537.92257943 Ry
     Harris-Foulkes estimate   =    -537.92256722 Ry
     estimated scf accuracy    <       0.00123017 Ry

     iteration #  5     ecut=    30.00 Ry     beta=0.20
     Davidson diagonalization with overlap
     ethr =  1.62E-06,  avg # of iterations =  2.0
 --- enter write_ns ---
 LDA+U parameters:
U( 1)     =  5.00000000
alpha( 1) =  0.00000000
U( 2)     =  5.00000000
alpha( 2) =  0.00000000
U( 3)     =  0.00000000
alpha( 3) =  0.00000000
U( 4)     =  0.00000000
alpha( 4) =  0.00000000
atom    1   Tr[ns(na)] =   8.06327
    eigenvalues: 
  0.522  0.522  0.995  0.995  0.998
    eigenvectors:
  0.000  0.000  0.000  0.000  1.000
  0.338  0.321  0.003  0.338  0.000
  0.321  0.338  0.338  0.003  0.000
  0.286  0.056  0.519  0.139  0.000
  0.056  0.286  0.139  0.519  0.000
    occupations:
  0.998  0.000  0.000  0.000  0.000
  0.000  0.684  0.000 -0.084  0.208
  0.000  0.000  0.684  0.208  0.084
  0.000 -0.084  0.208  0.833  0.000
  0.000  0.208  0.084  0.000  0.833
atom    2   Tr[ns(na)] =   8.05901
    eigenvalues: 
  0.521  0.521  0.995  0.995  0.998
    eigenvectors:
  0.000  0.000  0.000  0.000  1.000
  0.641  0.018  0.222  0.119  0.000
  0.018  0.641  0.119  0.222  0.000
  0.015  0.326  0.474  0.184  0.000
  0.326  0.015  0.184  0.474  0.000
    occupations:
  0.998  0.000  0.000  0.000  0.000
  0.000  0.683  0.000  0.084  0.209
  0.000  0.000  0.683  0.209 -0.084
  0.000  0.084  0.209  0.833  0.000
  0.000  0.209 -0.084  0.000  0.833
atom    3   Tr[ns(na)] =   3.79756
    eigenvalues: 
  0.357  0.357  0.382  0.402  0.402
    eigenvectors:
  0.000  0.000  1.000  0.000  0.000
  0.784  0.138  0.000  0.011  0.067
  0.138  0.784  0.000  0.067  0.011
  0.012  0.066  0.000  0.782  0.141
  0.066  0.012  0.000  0.141  0.782
    occupations:
  0.382  0.000  0.000  0.000  0.000
  0.000  0.360  0.000  0.000  0.012
  0.000  0.000  0.360  0.012  0.000
  0.000  0.000  0.012  0.398  0.000
  0.000  0.012  0.000  0.000  0.398
atom    4   Tr[ns(na)] =   3.79756
    eigenvalues: 
  0.357  0.357  0.382  0.402  0.402
    eigenvectors:
  0.000  0.000  1.000  0.000  0.000
  0.784  0.138  0.000  0.011  0.067
  0.138  0.784  0.000  0.067  0.011
  0.012  0.066  0.000  0.782  0.140
  0.066  0.012  0.000  0.140  0.782
    occupations:
  0.382  0.000  0.000  0.000  0.000
  0.000  0.360  0.000  0.000  0.012
  0.000  0.000  0.360  0.012  0.000
  0.000  0.000  0.012  0.398  0.000
  0.000  0.012  0.000  0.000  0.398
atom    5   Tr[ns(na)] =   5.42951
    eigenvalues: 
  0.838  0.930  0.947
    eigenvectors:
  0.337  0.000  0.663
  0.498  0.249  0.253
  0.165  0.751  0.084
    occupations:
  0.910  0.045  0.026
  0.045  0.888 -0.024
  0.026 -0.024  0.916
atom    6   Tr[ns(na)] =   5.42951
    eigenvalues: 
  0.838  0.930  0.947
    eigenvectors:
  0.337  0.000  0.663
  0.000  1.000  0.000
  0.663  0.000  0.337
    occupations:
  0.910  0.000 -0.052
  0.000  0.930  0.000
 -0.052  0.000  0.875
atom    7   Tr[ns(na)] =   5.42951
    eigenvalues: 
  0.838  0.930  0.947
    eigenvectors:
  0.337  0.000  0.663
  0.497  0.251  0.252
  0.166  0.749  0.085
    occupations:
  0.910 -0.045  0.026
 -0.045  0.888  0.024
  0.026  0.024  0.916
atom    8   Tr[ns(na)] =   5.42951
    eigenvalues: 
  0.838  0.930  0.947
    eigenvectors:
  0.337  0.000  0.663
  0.000  1.000  0.000
  0.663  0.000  0.337
    occupations:
  0.910  0.000 -0.052
  0.000  0.930  0.000
 -0.052  0.000  0.875
atom    9   Tr[ns(na)] =   5.42951
    eigenvalues: 
  0.838  0.930  0.947
    eigenvectors:
  0.337  0.000  0.663
  0.498  0.249  0.253
  0.165  0.751  0.084
    occupations:
  0.910  0.045  0.026
  0.045  0.888 -0.024
  0.026 -0.024  0.916
atom   10   Tr[ns(na)] =   5.42951
    eigenvalues: 
  0.838  0.930  0.947
    eigenvectors:
  0.337  0.000  0.663
  0.497  0.251  0.252
  0.166  0.749  0.085
    occupations:
  0.910 -0.045  0.026
 -0.045  0.888  0.024
  0.026  0.024  0.916
N of occupied +U levels =  56.2944742
 --- exit write_ns ---
 --- in v_hubbard ---
Hubbard energy    0.3732
 -------

     total cpu time spent up to now is      113.3 secs

     total energy              =    -537.92274257 Ry
     Harris-Foulkes estimate   =    -537.92268793 Ry
     estimated scf accuracy    <       0.00033501 Ry

     iteration #  6     ecut=    30.00 Ry     beta=0.20
     Davidson diagonalization with overlap
     ethr =  4.41E-07,  avg # of iterations =  1.1
 --- enter write_ns ---
 LDA+U parameters:
U( 1)     =  5.00000000
alpha( 1) =  0.00000000
U( 2)     =  5.00000000
alpha( 2) =  0.00000000
U( 3)     =  0.00000000
alpha( 3) =  0.00000000
U( 4)     =  0.00000000
alpha( 4) =  0.00000000
atom    1   Tr[ns(na)] =   8.05067
    eigenvalues: 
  0.519  0.519  0.995  0.995  0.998
    eigenvectors:
  0.000  0.000  0.000  0.000  1.000
  0.338  0.321  0.003  0.339  0.000
  0.321  0.338  0.339  0.003  0.000
  0.286  0.055  0.520  0.139  0.000
  0.055  0.286  0.139  0.520  0.000
    occupations:
  0.998  0.000  0.000  0.000  0.000
  0.000  0.681  0.000 -0.085  0.209
  0.000  0.000  0.681  0.209  0.085
  0.000 -0.085  0.209  0.832  0.000
  0.000  0.209  0.085  0.000  0.832
atom    2   Tr[ns(na)] =   8.04927
    eigenvalues: 
  0.518  0.518  0.995  0.995  0.998
    eigenvectors:
  0.000  0.000  0.000  0.000  1.000
  0.641  0.018  0.222  0.119  0.000
  0.018  0.641  0.119  0.222  0.000
  0.016  0.326  0.475  0.184  0.000
  0.326  0.016  0.184  0.475  0.000
    occupations:
  0.998  0.000  0.000  0.000  0.000
  0.000  0.681  0.000  0.084  0.210
  0.000  0.000  0.681  0.210 -0.084
  0.000  0.084  0.210  0.832  0.000
  0.000  0.210 -0.084  0.000  0.832
atom    3   Tr[ns(na)] =   3.79578
    eigenvalues: 
  0.356  0.356  0.381  0.402  0.402
    eigenvectors:
  0.000  0.000  1.000  0.000  0.000
  0.783  0.138  0.000  0.011  0.067
  0.138  0.783  0.000  0.067  0.011
  0.012  0.066  0.000  0.781  0.141
  0.066  0.012  0.000  0.141  0.781
    occupations:
  0.381  0.000  0.000  0.000  0.000
  0.000  0.360  0.000  0.000  0.012
  0.000  0.000  0.360  0.012  0.000
  0.000  0.000  0.012  0.398  0.000
  0.000  0.012  0.000  0.000  0.398
atom    4   Tr[ns(na)] =   3.79578
    eigenvalues: 
  0.356  0.356  0.381  0.402  0.402
    eigenvectors:
  0.000  0.000  1.000  0.000  0.000
  0.783  0.138  0.000  0.011  0.067
  0.138  0.783  0.000  0.067  0.011
  0.012  0.066  0.000  0.781  0.141
  0.066  0.012  0.000  0.141  0.781
    occupations:
  0.381  0.000  0.000  0.000  0.000
  0.000  0.360  0.000  0.000  0.012
  0.000  0.000  0.360  0.012  0.000
  0.000  0.000  0.012  0.398  0.000
  0.000  0.012  0.000  0.000  0.398
atom    5   Tr[ns(na)] =   5.43330
    eigenvalues: 
  0.839  0.930  0.948
    eigenvectors:
  0.337  0.000  0.663
  0.498  0.249  0.253
  0.165  0.751  0.084
    occupations:
  0.911  0.045  0.026
  0.045  0.889 -0.024
  0.026 -0.024  0.917
atom    6   Tr[ns(na)] =   5.43330
    eigenvalues: 
  0.839  0.930  0.948
    eigenvectors:
  0.337  0.000  0.663
  0.000  1.000  0.000
  0.663  0.000  0.337
    occupations:
  0.911  0.000 -0.052
  0.000  0.930  0.000
 -0.052  0.000  0.875
atom    7   Tr[ns(na)] =   5.43330
    eigenvalues: 
  0.839  0.930  0.948
    eigenvectors:
  0.337  0.000  0.663
  0.497  0.251  0.252
  0.167  0.749  0.085
    occupations:
  0.911 -0.045  0.026
 -0.045  0.889  0.024
  0.026  0.024  0.916
atom    8   Tr[ns(na)] =   5.43330
    eigenvalues: 
  0.839  0.930  0.948
    eigenvectors:
  0.337  0.000  0.663
  0.000  1.000  0.000
  0.663  0.000  0.337
    occupations:
  0.911  0.000 -0.052
  0.000  0.930  0.000
 -0.052  0.000  0.875
atom    9   Tr[ns(na)] =   5.43330
    eigenvalues: 
  0.839  0.930  0.948
    eigenvectors:
  0.337  0.000  0.663
  0.498  0.249  0.253
  0.165  0.751  0.084
    occupations:
  0.911  0.045  0.026
  0.045  0.889 -0.024
  0.026 -0.024  0.917
atom   10   Tr[ns(na)] =   5.43330
    eigenvalues: 
  0.839  0.930  0.948
    eigenvectors:
  0.337  0.000  0.663
  0.497  0.251  0.252
  0.167  0.749  0.085
    occupations:
  0.911 -0.045  0.026
 -0.045  0.889  0.024
  0.026  0.024  0.916
N of occupied +U levels =  56.2912859
 --- exit write_ns ---
 --- in v_hubbard ---
Hubbard energy    0.3742
 -------

     total cpu time spent up to now is      126.7 secs

     total energy              =    -537.92284790 Ry
     Harris-Foulkes estimate   =    -537.92278059 Ry
     estimated scf accuracy    <       0.00009428 Ry

     iteration #  7     ecut=    30.00 Ry     beta=0.20
     Davidson diagonalization with overlap
     ethr =  1.24E-07,  avg # of iterations =  2.1
 --- enter write_ns ---
 LDA+U parameters:
U( 1)     =  5.00000000
alpha( 1) =  0.00000000
U( 2)     =  5.00000000
alpha( 2) =  0.00000000
U( 3)     =  0.00000000
alpha( 3) =  0.00000000
U( 4)     =  0.00000000
alpha( 4) =  0.00000000
atom    1   Tr[ns(na)] =   8.04722
    eigenvalues: 
  0.518  0.518  0.995  0.995  0.998
    eigenvectors:
  0.000  0.000  0.000  0.000  1.000
  0.338  0.320  0.003  0.339  0.000
  0.320  0.338  0.339  0.003  0.000
  0.287  0.055  0.519  0.139  0.000
  0.055  0.287  0.139  0.519  0.000
    occupations:
  0.998  0.000  0.000  0.000  0.000
  0.000  0.681  0.000 -0.085  0.210
  0.000  0.000  0.681  0.210  0.085
  0.000 -0.085  0.210  0.832  0.000
  0.000  0.210  0.085  0.000  0.832
atom    2   Tr[ns(na)] =   8.04465
    eigenvalues: 
  0.517  0.517  0.995  0.995  0.998
    eigenvectors:
  0.000  0.000  0.000  0.000  1.000
  0.641  0.017  0.223  0.119  0.000
  0.017  0.641  0.119  0.223  0.000
  0.016  0.325  0.474  0.184  0.000
  0.325  0.016  0.184  0.474  0.000
    occupations:
  0.998  0.000  0.000  0.000  0.000
  0.000  0.680  0.000  0.085  0.211
  0.000  0.000  0.680  0.211 -0.085
  0.000  0.085  0.211  0.832  0.000
  0.000  0.211 -0.085  0.000  0.832
atom    3   Tr[ns(na)] =   3.79071
    eigenvalues: 
  0.356  0.356  0.381  0.401  0.401
    eigenvectors:
  0.000  0.000  1.000  0.000  0.000
  0.782  0.139  0.000  0.012  0.068
  0.139  0.782  0.000  0.068  0.012
  0.012  0.067  0.000  0.780  0.141
  0.067  0.012  0.000  0.141  0.780
    occupations:
  0.381  0.000  0.000  0.000  0.000
  0.000  0.359  0.000  0.000  0.012
  0.000  0.000  0.359  0.012  0.000
  0.000  0.000  0.012  0.398  0.000
  0.000  0.012  0.000  0.000  0.398
atom    4   Tr[ns(na)] =   3.79071
    eigenvalues: 
  0.356  0.356  0.381  0.401  0.401
    eigenvectors:
  0.000  0.000  1.000  0.000  0.000
  0.782  0.139  0.000  0.012  0.068
  0.139  0.782  0.000  0.068  0.012
  0.012  0.067  0.000  0.780  0.141
  0.067  0.012  0.000  0.141  0.780
    occupations:
  0.381  0.000  0.000  0.000  0.000
  0.000  0.359  0.000  0.000  0.012
  0.000  0.000  0.359  0.012  0.000
  0.000  0.000  0.012  0.398  0.000
  0.000  0.012  0.000  0.000  0.398
atom    5   Tr[ns(na)] =   5.43557
    eigenvalues: 
  0.839  0.931  0.948
    eigenvectors:
  0.337  0.000  0.663
  0.498  0.249  0.253
  0.165  0.751  0.084
    occupations:
  0.911  0.045  0.026
  0.045  0.889 -0.024
  0.026 -0.024  0.917
atom    6   Tr[ns(na)] =   5.43557
    eigenvalues: 
  0.839  0.931  0.948
    eigenvectors:
  0.337  0.000  0.663
  0.000  1.000  0.000
  0.663  0.000  0.337
    occupations:
  0.911  0.000 -0.051
  0.000  0.931  0.000
 -0.051  0.000  0.876
atom    7   Tr[ns(na)] =   5.43557
    eigenvalues: 
  0.839  0.931  0.948
    eigenvectors:
  0.337  0.000  0.663
  0.497  0.251  0.252
  0.166  0.749  0.085
    occupations:
  0.911 -0.045  0.026
 -0.045  0.890  0.024
  0.026  0.024  0.917
atom    8   Tr[ns(na)] =   5.43557
    eigenvalues: 
  0.839  0.931  0.948
    eigenvectors:
  0.337  0.000  0.663
  0.000  1.000  0.000
  0.663  0.000  0.337
    occupations:
  0.911  0.000 -0.051
  0.000  0.931  0.000
 -0.051  0.000  0.876
atom    9   Tr[ns(na)] =   5.43557
    eigenvalues: 
  0.839  0.931  0.948
    eigenvectors:
  0.337  0.000  0.663
  0.498  0.249  0.253
  0.165  0.751  0.084
    occupations:
  0.911  0.045  0.026
  0.045  0.889 -0.024
  0.026 -0.024  0.917
atom   10   Tr[ns(na)] =   5.43557
    eigenvalues: 
  0.839  0.931  0.948
    eigenvectors:
  0.337  0.000  0.663
  0.497  0.251  0.252
  0.166  0.749  0.085
    occupations:
  0.911 -0.045  0.026
 -0.045  0.890  0.024
  0.026  0.024  0.917
N of occupied +U levels =  56.2866900
 --- exit write_ns ---
 --- in v_hubbard ---
Hubbard energy    0.3749
 -------

     total cpu time spent up to now is      142.0 secs

     total energy              =    -537.92291390 Ry
     Harris-Foulkes estimate   =    -537.92286917 Ry
     estimated scf accuracy    <       0.00008667 Ry

     iteration #  8     ecut=    30.00 Ry     beta=0.20
     Davidson diagonalization with overlap
     ethr =  1.14E-07,  avg # of iterations =  2.0
 --- enter write_ns ---
 LDA+U parameters:
U( 1)     =  5.00000000
alpha( 1) =  0.00000000
U( 2)     =  5.00000000
alpha( 2) =  0.00000000
U( 3)     =  0.00000000
alpha( 3) =  0.00000000
U( 4)     =  0.00000000
alpha( 4) =  0.00000000
atom    1   Tr[ns(na)] =   8.05334
    eigenvalues: 
  0.520  0.520  0.995  0.995  0.998
    eigenvectors:
  0.000  0.000  0.000  0.000  1.000
  0.339  0.319  0.003  0.339  0.000
  0.319  0.339  0.339  0.003  0.000
  0.287  0.055  0.520  0.139  0.000
  0.055  0.287  0.139  0.520  0.000
    occupations:
  0.998  0.000  0.000  0.000  0.000
  0.000  0.682  0.000 -0.085  0.209
  0.000  0.000  0.682  0.209  0.085
  0.000 -0.085  0.209  0.832  0.000
  0.000  0.209  0.085  0.000  0.832
atom    2   Tr[ns(na)] =   8.04937
    eigenvalues: 
  0.518  0.518  0.995  0.995  0.998
    eigenvectors:
  0.000  0.000  0.000  0.000  1.000
  0.641  0.017  0.223  0.119  0.000
  0.017  0.641  0.119  0.223  0.000
  0.017  0.325  0.474  0.184  0.000
  0.325  0.017  0.184  0.474  0.000
    occupations:
  0.998  0.000  0.000  0.000  0.000
  0.000  0.681  0.000  0.085  0.210
  0.000  0.000  0.681  0.210 -0.085
  0.000  0.085  0.210  0.832  0.000
  0.000  0.210 -0.085  0.000  0.832
atom    3   Tr[ns(na)] =   3.79550
    eigenvalues: 
  0.356  0.356  0.381  0.402  0.402
    eigenvectors:
  0.000  0.000  1.000  0.000  0.000
  0.783  0.139  0.000  0.012  0.067
  0.139  0.783  0.000  0.067  0.012
  0.012  0.066  0.000  0.780  0.141
  0.066  0.012  0.000  0.141  0.780
    occupations:
  0.381  0.000  0.000  0.000  0.000
  0.000  0.360  0.000  0.000  0.012
  0.000  0.000  0.360  0.012  0.000
  0.000  0.000  0.012  0.398  0.000
  0.000  0.012  0.000  0.000  0.398
atom    4   Tr[ns(na)] =   3.79550
    eigenvalues: 
  0.356  0.356  0.381  0.402  0.402
    eigenvectors:
  0.000  0.000  1.000  0.000  0.000
  0.783  0.139  0.000  0.012  0.067
  0.139  0.783  0.000  0.067  0.012
  0.012  0.066  0.000  0.780  0.141
  0.066  0.012  0.000  0.141  0.780
    occupations:
  0.381  0.000  0.000  0.000  0.000
  0.000  0.360  0.000  0.000  0.012
  0.000  0.000  0.360  0.012  0.000
  0.000  0.000  0.012  0.398  0.000
  0.000  0.012  0.000  0.000  0.398
atom    5   Tr[ns(na)] =   5.43279
    eigenvalues: 
  0.839  0.930  0.948
    eigenvectors:
  0.337  0.000  0.663
  0.498  0.249  0.253
  0.165  0.751  0.084
    occupations:
  0.911  0.045  0.026
  0.045  0.889 -0.024
  0.026 -0.024  0.916
atom    6   Tr[ns(na)] =   5.43279
    eigenvalues: 
  0.839  0.930  0.948
    eigenvectors:
  0.337  0.000  0.663
  0.000  1.000  0.000
  0.663  0.000  0.337
    occupations:
  0.911  0.000 -0.052
  0.000  0.930  0.000
 -0.052  0.000  0.875
atom    7   Tr[ns(na)] =   5.43279
    eigenvalues: 
  0.839  0.930  0.948
    eigenvectors:
  0.337  0.000  0.663
  0.497  0.251  0.252
  0.166  0.749  0.085
    occupations:
  0.911 -0.045  0.026
 -0.045  0.889  0.024
  0.026  0.024  0.916
atom    8   Tr[ns(na)] =   5.43279
    eigenvalues: 
  0.839  0.930  0.948
    eigenvectors:
  0.337  0.000  0.663
  0.000  1.000  0.000
  0.663  0.000  0.337
    occupations:
  0.911  0.000 -0.052
  0.000  0.930  0.000
 -0.052  0.000  0.875
atom    9   Tr[ns(na)] =   5.43279
    eigenvalues: 
  0.839  0.930  0.948
    eigenvectors:
  0.337  0.000  0.663
  0.498  0.249  0.253
  0.165  0.751  0.084
    occupations:
  0.911  0.045  0.026
  0.045  0.889 -0.024
  0.026 -0.024  0.916
atom   10   Tr[ns(na)] =   5.43279
    eigenvalues: 
  0.839  0.930  0.948
    eigenvectors:
  0.337  0.000  0.663
  0.497  0.251  0.252
  0.166  0.749  0.085
    occupations:
  0.911 -0.045  0.026
 -0.045  0.889  0.024
  0.026  0.024  0.916
N of occupied +U levels =  56.2904629
 --- exit write_ns ---
 --- in v_hubbard ---
Hubbard energy    0.3753
 -------

     total cpu time spent up to now is      162.6 secs

     total energy              =    -537.92296802 Ry
     Harris-Foulkes estimate   =    -537.92293474 Ry
     estimated scf accuracy    <       0.00002186 Ry

     iteration #  9     ecut=    30.00 Ry     beta=0.20
     Davidson diagonalization with overlap
     ethr =  2.88E-08,  avg # of iterations =  2.0
 --- enter write_ns ---
 LDA+U parameters:
U( 1)     =  5.00000000
alpha( 1) =  0.00000000
U( 2)     =  5.00000000
alpha( 2) =  0.00000000
U( 3)     =  0.00000000
alpha( 3) =  0.00000000
U( 4)     =  0.00000000
alpha( 4) =  0.00000000
atom    1   Tr[ns(na)] =   8.05186
    eigenvalues: 
  0.519  0.519  0.995  0.995  0.998
    eigenvectors:
  0.000  0.000  0.000  0.000  1.000
  0.339  0.320  0.003  0.339  0.000
  0.320  0.339  0.339  0.003  0.000
  0.287  0.055  0.520  0.139  0.000
  0.055  0.287  0.139  0.520  0.000
    occupations:
  0.998  0.000  0.000  0.000  0.000
  0.000  0.682  0.000 -0.085  0.209
  0.000  0.000  0.682  0.209  0.085
  0.000 -0.085  0.209  0.832  0.000
  0.000  0.209  0.085  0.000  0.832
atom    2   Tr[ns(na)] =   8.04893
    eigenvalues: 
  0.518  0.518  0.995  0.995  0.998
    eigenvectors:
  0.000  0.000  0.000  0.000  1.000
  0.641  0.017  0.223  0.118  0.000
  0.017  0.641  0.118  0.223  0.000
  0.017  0.325  0.474  0.184  0.000
  0.325  0.017  0.184  0.474  0.000
    occupations:
  0.998  0.000  0.000  0.000  0.000
  0.000  0.681  0.000  0.085  0.210
  0.000  0.000  0.681  0.210 -0.085
  0.000  0.085  0.210  0.832  0.000
  0.000  0.210 -0.085  0.000  0.832
atom    3   Tr[ns(na)] =   3.79381
    eigenvalues: 
  0.356  0.356  0.381  0.402  0.402
    eigenvectors:
  0.000  0.000  1.000  0.000  0.000
  0.782  0.139  0.000  0.012  0.067
  0.139  0.782  0.000  0.067  0.012
  0.012  0.067  0.000  0.780  0.141
  0.067  0.012  0.000  0.141  0.780
    occupations:
  0.381  0.000  0.000  0.000  0.000
  0.000  0.360  0.000  0.000  0.012
  0.000  0.000  0.360  0.012  0.000
  0.000  0.000  0.012  0.398  0.000
  0.000  0.012  0.000  0.000  0.398
atom    4   Tr[ns(na)] =   3.79381
    eigenvalues: 
  0.356  0.356  0.381  0.402  0.402
    eigenvectors:
  0.000  0.000  1.000  0.000  0.000
  0.782  0.139  0.000  0.012  0.067
  0.139  0.782  0.000  0.067  0.012
  0.012  0.067  0.000  0.780  0.141
  0.067  0.012  0.000  0.141  0.780
    occupations:
  0.381  0.000  0.000  0.000  0.000
  0.000  0.360  0.000  0.000  0.012
  0.000  0.000  0.360  0.012  0.000
  0.000  0.000  0.012  0.398  0.000
  0.000  0.012  0.000  0.000  0.398
atom    5   Tr[ns(na)] =   5.43343
    eigenvalues: 
  0.839  0.930  0.948
    eigenvectors:
  0.337  0.000  0.663
  0.498  0.249  0.253
  0.165  0.751  0.084
    occupations:
  0.911  0.045  0.026
  0.045  0.889 -0.024
  0.026 -0.024  0.917
atom    6   Tr[ns(na)] =   5.43343
    eigenvalues: 
  0.839  0.930  0.948
    eigenvectors:
  0.337  0.000  0.663
  0.000  1.000  0.000
  0.663  0.000  0.337
    occupations:
  0.911  0.000 -0.052
  0.000  0.930  0.000
 -0.052  0.000  0.875
atom    7   Tr[ns(na)] =   5.43343
    eigenvalues: 
  0.839  0.930  0.948
    eigenvectors:
  0.337  0.000  0.663
  0.497  0.251  0.252
  0.166  0.749  0.085
    occupations:
  0.911 -0.045  0.026
 -0.045  0.889  0.024
  0.026  0.024  0.916
atom    8   Tr[ns(na)] =   5.43343
    eigenvalues: 
  0.839  0.930  0.948
    eigenvectors:
  0.337  0.000  0.663
  0.000  1.000  0.000
  0.663  0.000  0.337
    occupations:
  0.911  0.000 -0.052
  0.000  0.930  0.000
 -0.052  0.000  0.875
atom    9   Tr[ns(na)] =   5.43343
    eigenvalues: 
  0.839  0.930  0.948
    eigenvectors:
  0.337  0.000  0.663
  0.498  0.249  0.253
  0.165  0.751  0.084
    occupations:
  0.911  0.045  0.026
  0.045  0.889 -0.024
  0.026 -0.024  0.917
atom   10   Tr[ns(na)] =   5.43343
    eigenvalues: 
  0.839  0.930  0.948
    eigenvectors:
  0.337  0.000  0.663
  0.497  0.251  0.252
  0.166  0.749  0.085
    occupations:
  0.911 -0.045  0.026
 -0.045  0.889  0.024
  0.026  0.024  0.916
N of occupied +U levels =  56.2890020
 --- exit write_ns ---
 --- in v_hubbard ---
Hubbard energy    0.3756
 -------

     total cpu time spent up to now is      189.5 secs

     total energy              =    -537.92299798 Ry
     Harris-Foulkes estimate   =    -537.92297049 Ry
     estimated scf accuracy    <       0.00000209 Ry

     iteration # 10     ecut=    30.00 Ry     beta=0.20
     Davidson diagonalization with overlap
     ethr =  2.75E-09,  avg # of iterations =  2.1
 --- enter write_ns ---
 LDA+U parameters:
U( 1)     =  5.00000000
alpha( 1) =  0.00000000
U( 2)     =  5.00000000
alpha( 2) =  0.00000000
U( 3)     =  0.00000000
alpha( 3) =  0.00000000
U( 4)     =  0.00000000
alpha( 4) =  0.00000000
atom    1   Tr[ns(na)] =   8.05216
    eigenvalues: 
  0.519  0.519  0.995  0.995  0.998
    eigenvectors:
  0.000  0.000  0.000  0.000  1.000
  0.339  0.319  0.003  0.339  0.000
  0.319  0.339  0.339  0.003  0.000
  0.287  0.055  0.520  0.138  0.000
  0.055  0.287  0.138  0.520  0.000
    occupations:
  0.998  0.000  0.000  0.000  0.000
  0.000  0.682  0.000 -0.085  0.209
  0.000  0.000  0.682  0.209  0.085
  0.000 -0.085  0.209  0.832  0.000
  0.000  0.209  0.085  0.000  0.832
atom    2   Tr[ns(na)] =   8.04917
    eigenvalues: 
  0.518  0.518  0.995  0.995  0.998
    eigenvectors:
  0.000  0.000  0.000  0.000  1.000
  0.641  0.017  0.224  0.118  0.000
  0.017  0.641  0.118  0.224  0.000
  0.017  0.325  0.474  0.184  0.000
  0.325  0.017  0.184  0.474  0.000
    occupations:
  0.998  0.000  0.000  0.000  0.000
  0.000  0.681  0.000  0.085  0.210
  0.000  0.000  0.681  0.210 -0.085
  0.000  0.085  0.210  0.832  0.000
  0.000  0.210 -0.085  0.000  0.832
atom    3   Tr[ns(na)] =   3.79339
    eigenvalues: 
  0.356  0.356  0.381  0.402  0.402
    eigenvectors:
  0.000  0.000  1.000  0.000  0.000
  0.782  0.139  0.000  0.012  0.067
  0.139  0.782  0.000  0.067  0.012
  0.012  0.067  0.000  0.780  0.141
  0.067  0.012  0.000  0.141  0.780
    occupations:
  0.381  0.000  0.000  0.000  0.000
  0.000  0.360  0.000  0.000  0.012
  0.000  0.000  0.360  0.012  0.000
  0.000  0.000  0.012  0.398  0.000
  0.000  0.012  0.000  0.000  0.398
atom    4   Tr[ns(na)] =   3.79339
    eigenvalues: 
  0.356  0.356  0.381  0.402  0.402
    eigenvectors:
  0.000  0.000  1.000  0.000  0.000
  0.782  0.139  0.000  0.012  0.067
  0.139  0.782  0.000  0.067  0.012
  0.012  0.067  0.000  0.780  0.141
  0.067  0.012  0.000  0.141  0.780
    occupations:
  0.381  0.000  0.000  0.000  0.000
  0.000  0.360  0.000  0.000  0.012
  0.000  0.000  0.360  0.012  0.000
  0.000  0.000  0.012  0.398  0.000
  0.000  0.012  0.000  0.000  0.398
atom    5   Tr[ns(na)] =   5.43342
    eigenvalues: 
  0.839  0.930  0.948
    eigenvectors:
  0.337  0.000  0.663
  0.498  0.249  0.253
  0.165  0.751  0.084
    occupations:
  0.911  0.045  0.026
  0.045  0.889 -0.024
  0.026 -0.024  0.917
atom    6   Tr[ns(na)] =   5.43342
    eigenvalues: 
  0.839  0.930  0.948
    eigenvectors:
  0.337  0.000  0.663
  0.000  1.000  0.000
  0.663  0.000  0.337
    occupations:
  0.911  0.000 -0.052
  0.000  0.930  0.000
 -0.052  0.000  0.875
atom    7   Tr[ns(na)] =   5.43342
    eigenvalues: 
  0.839  0.930  0.948
    eigenvectors:
  0.337  0.000  0.663
  0.497  0.251  0.252
  0.166  0.749  0.085
    occupations:
  0.911 -0.045  0.026
 -0.045  0.889  0.024
  0.026  0.024  0.916
atom    8   Tr[ns(na)] =   5.43342
    eigenvalues: 
  0.839  0.930  0.948
    eigenvectors:
  0.337  0.000  0.663
  0.000  1.000  0.000
  0.663  0.000  0.337
    occupations:
  0.911  0.000 -0.052
  0.000  0.930  0.000
 -0.052  0.000  0.875
atom    9   Tr[ns(na)] =   5.43342
    eigenvalues: 
  0.839  0.930  0.948
    eigenvectors:
  0.337  0.000  0.663
  0.498  0.249  0.253
  0.165  0.751  0.084
    occupations:
  0.911  0.045  0.026
  0.045  0.889 -0.024
  0.026 -0.024  0.917
atom   10   Tr[ns(na)] =   5.43342
    eigenvalues: 
  0.839  0.930  0.948
    eigenvectors:
  0.337  0.000  0.663
  0.497  0.251  0.252
  0.166  0.749  0.085
    occupations:
  0.911 -0.045  0.026
 -0.045  0.889  0.024
  0.026  0.024  0.916
N of occupied +U levels =  56.2886656
 --- exit write_ns ---
 --- in v_hubbard ---
Hubbard energy    0.3758
 -------

     total cpu time spent up to now is      215.0 secs

     total energy              =    -537.92301612 Ry
     Harris-Foulkes estimate   =    -537.92299843 Ry
     estimated scf accuracy    <       0.00000190 Ry

     iteration # 11     ecut=    30.00 Ry     beta=0.20
     Davidson diagonalization with overlap
     ethr =  2.50E-09,  avg # of iterations =  1.0
 --- enter write_ns ---
 LDA+U parameters:
U( 1)     =  5.00000000
alpha( 1) =  0.00000000
U( 2)     =  5.00000000
alpha( 2) =  0.00000000
U( 3)     =  0.00000000
alpha( 3) =  0.00000000
U( 4)     =  0.00000000
alpha( 4) =  0.00000000
atom    1   Tr[ns(na)] =   8.05128
    eigenvalues: 
  0.519  0.519  0.995  0.995  0.998
    eigenvectors:
  0.000  0.000  0.000  0.000  1.000
  0.338  0.320  0.003  0.339  0.000
  0.320  0.338  0.339  0.003  0.000
  0.287  0.055  0.520  0.138  0.000
  0.055  0.287  0.138  0.520  0.000
    occupations:
  0.998  0.000  0.000  0.000  0.000
  0.000  0.682  0.000 -0.086  0.209
  0.000  0.000  0.682  0.209  0.086
  0.000 -0.086  0.209  0.832  0.000
  0.000  0.209  0.086  0.000  0.832
atom    2   Tr[ns(na)] =   8.04849
    eigenvalues: 
  0.518  0.518  0.995  0.995  0.998
    eigenvectors:
  0.000  0.000  0.000  0.000  1.000
  0.642  0.017  0.224  0.118  0.000
  0.017  0.642  0.118  0.224  0.000
  0.017  0.324  0.474  0.184  0.000
  0.324  0.017  0.184  0.474  0.000
    occupations:
  0.998  0.000  0.000  0.000  0.000
  0.000  0.681  0.000  0.085  0.210
  0.000  0.000  0.681  0.210 -0.085
  0.000  0.085  0.210  0.832  0.000
  0.000  0.210 -0.085  0.000  0.832
atom    3   Tr[ns(na)] =   3.79318
    eigenvalues: 
  0.356  0.356  0.381  0.402  0.402
    eigenvectors:
  0.000  0.000  1.000  0.000  0.000
  0.782  0.139  0.000  0.012  0.067
  0.139  0.782  0.000  0.067  0.012
  0.012  0.067  0.000  0.780  0.141
  0.067  0.012  0.000  0.141  0.780
    occupations:
  0.381  0.000  0.000  0.000  0.000
  0.000  0.360  0.000  0.000  0.012
  0.000  0.000  0.360  0.012  0.000
  0.000  0.000  0.012  0.398  0.000
  0.000  0.012  0.000  0.000  0.398
atom    4   Tr[ns(na)] =   3.79318
    eigenvalues: 
  0.356  0.356  0.381  0.402  0.402
    eigenvectors:
  0.000  0.000  1.000  0.000  0.000
  0.782  0.139  0.000  0.012  0.067
  0.139  0.782  0.000  0.067  0.012
  0.012  0.067  0.000  0.780  0.141
  0.067  0.012  0.000  0.141  0.780
    occupations:
  0.381  0.000  0.000  0.000  0.000
  0.000  0.360  0.000  0.000  0.012
  0.000  0.000  0.360  0.012  0.000
  0.000  0.000  0.012  0.398  0.000
  0.000  0.012  0.000  0.000  0.398
atom    5   Tr[ns(na)] =   5.43371
    eigenvalues: 
  0.839  0.930  0.948
    eigenvectors:
  0.337  0.000  0.663
  0.498  0.249  0.253
  0.165  0.751  0.084
    occupations:
  0.911  0.045  0.026
  0.045  0.889 -0.024
  0.026 -0.024  0.917
atom    6   Tr[ns(na)] =   5.43371
    eigenvalues: 
  0.839  0.930  0.948
    eigenvectors:
  0.337  0.000  0.663
  0.000  1.000  0.000
  0.663  0.000  0.337
    occupations:
  0.911  0.000 -0.052
  0.000  0.930  0.000
 -0.052  0.000  0.875
atom    7   Tr[ns(na)] =   5.43371
    eigenvalues: 
  0.839  0.930  0.948
    eigenvectors:
  0.337  0.000  0.663
  0.497  0.251  0.252
  0.166  0.749  0.085
    occupations:
  0.911 -0.045  0.026
 -0.045  0.889  0.024
  0.026  0.024  0.917
atom    8   Tr[ns(na)] =   5.43371
    eigenvalues: 
  0.839  0.930  0.948
    eigenvectors:
  0.337  0.000  0.663
  0.000  1.000  0.000
  0.663  0.000  0.337
    occupations:
  0.911  0.000 -0.052
  0.000  0.930  0.000
 -0.052  0.000  0.875
atom    9   Tr[ns(na)] =   5.43371
    eigenvalues: 
  0.839  0.930  0.948
    eigenvectors:
  0.337  0.000  0.663
  0.498  0.249  0.253
  0.165  0.751  0.084
    occupations:
  0.911  0.045  0.026
  0.045  0.889 -0.024
  0.026 -0.024  0.917
atom   10   Tr[ns(na)] =   5.43371
    eigenvalues: 
  0.839  0.930  0.948
    eigenvectors:
  0.337  0.000  0.663
  0.497  0.251  0.252
  0.166  0.749  0.085
    occupations:
  0.911 -0.045  0.026
 -0.045  0.889  0.024
  0.026  0.024  0.917
N of occupied +U levels =  56.2883747
 --- exit write_ns ---
 --- in v_hubbard ---
Hubbard energy    0.3756
 -------

     total cpu time spent up to now is      236.1 secs

     total energy              =    -537.92302889 Ry
     Harris-Foulkes estimate   =    -537.92301640 Ry
     estimated scf accuracy    <       0.00000035 Ry

     iteration # 12     ecut=    30.00 Ry     beta=0.20
     Davidson diagonalization with overlap
     ethr =  4.60E-10,  avg # of iterations =  2.4
 --- enter write_ns ---
 LDA+U parameters:
U( 1)     =  5.00000000
alpha( 1) =  0.00000000
U( 2)     =  5.00000000
alpha( 2) =  0.00000000
U( 3)     =  0.00000000
alpha( 3) =  0.00000000
U( 4)     =  0.00000000
alpha( 4) =  0.00000000
atom    1   Tr[ns(na)] =   8.05170
    eigenvalues: 
  0.519  0.519  0.995  0.995  0.998
    eigenvectors:
  0.000  0.000  0.000  0.000  1.000
  0.339  0.319  0.003  0.339  0.000
  0.319  0.339  0.339  0.003  0.000
  0.287  0.055  0.520  0.138  0.000
  0.055  0.287  0.138  0.520  0.000
    occupations:
  0.998  0.000  0.000  0.000  0.000
  0.000  0.682  0.000 -0.086  0.209
  0.000  0.000  0.682  0.209  0.086
  0.000 -0.086  0.209  0.832  0.000
  0.000  0.209  0.086  0.000  0.832
atom    2   Tr[ns(na)] =   8.04881
    eigenvalues: 
  0.518  0.518  0.995  0.995  0.998
    eigenvectors:
  0.000  0.000  0.000  0.000  1.000
  0.642  0.017  0.224  0.118  0.000
  0.017  0.642  0.118  0.224  0.000
  0.017  0.324  0.474  0.184  0.000
  0.324  0.017  0.184  0.474  0.000
    occupations:
  0.998  0.000  0.000  0.000  0.000
  0.000  0.681  0.000  0.085  0.210
  0.000  0.000  0.681  0.210 -0.085
  0.000  0.085  0.210  0.832  0.000
  0.000  0.210 -0.085  0.000  0.832
atom    3   Tr[ns(na)] =   3.79369
    eigenvalues: 
  0.356  0.356  0.381  0.402  0.402
    eigenvectors:
  0.000  0.000  1.000  0.000  0.000
  0.782  0.139  0.000  0.012  0.067
  0.139  0.782  0.000  0.067  0.012
  0.012  0.067  0.000  0.780  0.141
  0.067  0.012  0.000  0.141  0.780
    occupations:
  0.381  0.000  0.000  0.000  0.000
  0.000  0.360  0.000  0.000  0.012
  0.000  0.000  0.360  0.012  0.000
  0.000  0.000  0.012  0.398  0.000
  0.000  0.012  0.000  0.000  0.398
atom    4   Tr[ns(na)] =   3.79369
    eigenvalues: 
  0.356  0.356  0.381  0.402  0.402
    eigenvectors:
  0.000  0.000  1.000  0.000  0.000
  0.783  0.138  0.000  0.012  0.067
  0.138  0.783  0.000  0.067  0.012
  0.012  0.067  0.000  0.780  0.141
  0.067  0.012  0.000  0.141  0.780
    occupations:
  0.381  0.000  0.000  0.000  0.000
  0.000  0.360  0.000  0.000  0.012
  0.000  0.000  0.360  0.012  0.000
  0.000  0.000  0.012  0.398  0.000
  0.000  0.012  0.000  0.000  0.398
atom    5   Tr[ns(na)] =   5.43349
    eigenvalues: 
  0.839  0.930  0.948
    eigenvectors:
  0.337  0.000  0.663
  0.498  0.249  0.253
  0.165  0.751  0.084
    occupations:
  0.911  0.045  0.026
  0.045  0.889 -0.024
  0.026 -0.024  0.917
atom    6   Tr[ns(na)] =   5.43349
    eigenvalues: 
  0.839  0.930  0.948
    eigenvectors:
  0.337  0.000  0.663
  0.000  1.000  0.000
  0.663  0.000  0.337
    occupations:
  0.911  0.000 -0.052
  0.000  0.930  0.000
 -0.052  0.000  0.875
atom    7   Tr[ns(na)] =   5.43349
    eigenvalues: 
  0.839  0.930  0.948
    eigenvectors:
  0.337  0.000  0.663
  0.497  0.251  0.252
  0.166  0.749  0.085
    occupations:
  0.911 -0.045  0.026
 -0.045  0.889  0.024
  0.026  0.024  0.916
atom    8   Tr[ns(na)] =   5.43349
    eigenvalues: 
  0.839  0.930  0.948
    eigenvectors:
  0.337  0.000  0.663
  0.000  1.000  0.000
  0.663  0.000  0.337
    occupations:
  0.911  0.000 -0.052
  0.000  0.930  0.000
 -0.052  0.000  0.875
atom    9   Tr[ns(na)] =   5.43349
    eigenvalues: 
  0.839  0.930  0.948
    eigenvectors:
  0.337  0.000  0.663
  0.498  0.249  0.253
  0.165  0.751  0.084
    occupations:
  0.911  0.045  0.026
  0.045  0.889 -0.024
  0.026 -0.024  0.917
atom   10   Tr[ns(na)] =   5.43349
    eigenvalues: 
  0.839  0.930  0.948
    eigenvectors:
  0.337  0.000  0.663
  0.497  0.251  0.252
  0.166  0.749  0.085
    occupations:
  0.911 -0.045  0.026
 -0.045  0.889  0.024
  0.026  0.024  0.916
N of occupied +U levels =  56.2888345
 --- exit write_ns ---
 --- in v_hubbard ---
Hubbard energy    0.3756
 -------

     total cpu time spent up to now is      264.2 secs

     total energy              =    -537.92303631 Ry
     Harris-Foulkes estimate   =    -537.92302916 Ry
     estimated scf accuracy    <       0.00000063 Ry

     iteration # 13     ecut=    30.00 Ry     beta=0.20
     Davidson diagonalization with overlap
     ethr =  4.60E-10,  avg # of iterations =  2.0
 --- enter write_ns ---
 LDA+U parameters:
U( 1)     =  5.00000000
alpha( 1) =  0.00000000
U( 2)     =  5.00000000
alpha( 2) =  0.00000000
U( 3)     =  0.00000000
alpha( 3) =  0.00000000
U( 4)     =  0.00000000
alpha( 4) =  0.00000000
atom    1   Tr[ns(na)] =   8.05137
    eigenvalues: 
  0.519  0.519  0.995  0.995  0.998
    eigenvectors:
  0.000  0.000  0.000  0.000  1.000
  0.339  0.319  0.003  0.339  0.000
  0.319  0.339  0.339  0.003  0.000
  0.287  0.055  0.520  0.138  0.000
  0.055  0.287  0.138  0.520  0.000
    occupations:
  0.998  0.000  0.000  0.000  0.000
  0.000  0.682  0.000 -0.086  0.209
  0.000  0.000  0.682  0.209  0.086
  0.000 -0.086  0.209  0.832  0.000
  0.000  0.209  0.086  0.000  0.832
atom    2   Tr[ns(na)] =   8.04849
    eigenvalues: 
  0.518  0.518  0.995  0.995  0.998
    eigenvectors:
  0.000  0.000  0.000  0.000  1.000
  0.642  0.016  0.224  0.118  0.000
  0.016  0.642  0.118  0.224  0.000
  0.018  0.324  0.475  0.184  0.000
  0.324  0.018  0.184  0.475  0.000
    occupations:
  0.998  0.000  0.000  0.000  0.000
  0.000  0.681  0.000  0.085  0.210
  0.000  0.000  0.681  0.210 -0.085
  0.000  0.085  0.210  0.832  0.000
  0.000  0.210 -0.085  0.000  0.832
atom    3   Tr[ns(na)] =   3.79339
    eigenvalues: 
  0.356  0.356  0.381  0.402  0.402
    eigenvectors:
  0.000  0.000  1.000  0.000  0.000
  0.782  0.139  0.000  0.012  0.067
  0.139  0.782  0.000  0.067  0.012
  0.012  0.067  0.000  0.780  0.141
  0.067  0.012  0.000  0.141  0.780
    occupations:
  0.381  0.000  0.000  0.000  0.000
  0.000  0.360  0.000  0.000  0.012
  0.000  0.000  0.360  0.012  0.000
  0.000  0.000  0.012  0.398  0.000
  0.000  0.012  0.000  0.000  0.398
atom    4   Tr[ns(na)] =   3.79339
    eigenvalues: 
  0.356  0.356  0.381  0.402  0.402
    eigenvectors:
  0.000  0.000  1.000  0.000  0.000
  0.782  0.139  0.000  0.012  0.067
  0.139  0.782  0.000  0.067  0.012
  0.012  0.067  0.000  0.780  0.141
  0.067  0.012  0.000  0.141  0.780
    occupations:
  0.381  0.000  0.000  0.000  0.000
  0.000  0.360  0.000  0.000  0.012
  0.000  0.000  0.360  0.012  0.000
  0.000  0.000  0.012  0.398  0.000
  0.000  0.012  0.000  0.000  0.398
atom    5   Tr[ns(na)] =   5.43366
    eigenvalues: 
  0.839  0.930  0.948
    eigenvectors:
  0.337  0.000  0.663
  0.498  0.249  0.253
  0.165  0.751  0.084
    occupations:
  0.911  0.045  0.026
  0.045  0.889 -0.024
  0.026 -0.024  0.917
atom    6   Tr[ns(na)] =   5.43366
    eigenvalues: 
  0.839  0.930  0.948
    eigenvectors:
  0.337  0.000  0.663
  0.000  1.000  0.000
  0.663  0.000  0.337
    occupations:
  0.911  0.000 -0.052
  0.000  0.930  0.000
 -0.052  0.000  0.875
atom    7   Tr[ns(na)] =   5.43366
    eigenvalues: 
  0.839  0.930  0.948
    eigenvectors:
  0.337  0.000  0.663
  0.497  0.251  0.252
  0.166  0.749  0.085
    occupations:
  0.911 -0.045  0.026
 -0.045  0.889  0.024
  0.026  0.024  0.917
atom    8   Tr[ns(na)] =   5.43366
    eigenvalues: 
  0.839  0.930  0.948
    eigenvectors:
  0.337  0.000  0.663
  0.000  1.000  0.000
  0.663  0.000  0.337
    occupations:
  0.911  0.000 -0.052
  0.000  0.930  0.000
 -0.052  0.000  0.875
atom    9   Tr[ns(na)] =   5.43366
    eigenvalues: 
  0.839  0.930  0.948
    eigenvectors:
  0.337  0.000  0.663
  0.498  0.249  0.253
  0.165  0.751  0.084
    occupations:
  0.911  0.045  0.026
  0.045  0.889 -0.024
  0.026 -0.024  0.917
atom   10   Tr[ns(na)] =   5.43366
    eigenvalues: 
  0.839  0.930  0.948
    eigenvectors:
  0.337  0.000  0.663
  0.497  0.251  0.252
  0.166  0.749  0.085
    occupations:
  0.911 -0.045  0.026
 -0.045  0.889  0.024
  0.026  0.024  0.917
N of occupied +U levels =  56.2885766
 --- exit write_ns ---
 --- in v_hubbard ---
Hubbard energy    0.3756
 -------

     total cpu time spent up to now is      288.2 secs

     End of self-consistent calculation

          k = 0.0000 0.0000 0.0000 (  2175 PWs)   bands (ev):

   -19.7938 -19.6205  -6.5510  -5.8698  -5.8698  -5.8247  -5.8247  -5.4855
    -3.8711  -3.2695  -3.2695  -3.2560  -3.0223  -3.0223   5.1712   6.5160
     6.5160   6.5713   6.7456   6.7456   7.5091   7.5091   7.7068   8.1991
     8.4480   8.4480   9.2947   9.6234   9.6234   9.9871   9.9871  10.1682
    10.4561  10.4561  10.6729  10.8336  10.8336  11.1592  11.8688  11.8688
    14.7159  14.7159  15.4310  15.4310  16.2013  16.7874

     occupation numbers 
     0.0313   0.0313   0.0313   0.0313   0.0313   0.0313   0.0313   0.0313
     0.0313   0.0313   0.0313   0.0313   0.0313   0.0313   0.0313   0.0313
     0.0313   0.0313   0.0313   0.0313   0.0313   0.0313   0.0313   0.0313
     0.0313   0.0313   0.0312   0.0312   0.0312   0.0312   0.0312   0.0312
     0.0312   0.0312   0.0312   0.0309   0.0309   0.0275   0.0031   0.0031
     0.0000   0.0000   0.0000   0.0000   0.0000   0.0000

          k =-0.2471-0.1427 0.1027 (  2181 PWs)   bands (ev):

   -19.7690 -19.6610  -6.7289  -6.3021  -5.9650  -5.8595  -5.6163  -5.4854
    -3.6492  -3.4171  -2.9463  -2.9088  -2.8710  -2.7672   5.5014   6.2383
     6.5551   6.6159   6.7270   6.7790   6.9333   7.4512   7.5722   7.6738
     7.8553   8.2135   9.4225   9.5625   9.7033   9.8919   9.9496  10.0221
    10.2400  10.3748  10.4003  10.8197  10.9339  10.9527  12.2725  12.3458
    14.2639  14.2748  15.8181  16.0718  16.9737  17.2678

     occupation numbers 
     0.1875   0.1875   0.1875   0.1875   0.1875   0.1875   0.1875   0.1875
     0.1875   0.1875   0.1875   0.1875   0.1875   0.1875   0.1875   0.1875
     0.1875   0.1875   0.1875   0.1875   0.1875   0.1875   0.1875   0.1875
     0.1875   0.1875   0.1875   0.1875   0.1875   0.1875   0.1875   0.1875
     0.1875   0.1875   0.1875   0.1858   0.1828   0.1821   0.0007   0.0003
     0.0000   0.0000   0.0000   0.0000   0.0000   0.0000

          k = 0.4942 0.2853-0.2053 (  2202 PWs)   bands (ev):

   -19.7231 -19.7231  -6.7280  -6.7160  -5.9713  -5.9697  -5.5274  -5.5246
    -3.4066  -3.4036  -2.8034  -2.8016  -2.5062  -2.5044   5.7966   5.8045
     6.6264   6.6414   6.8565   6.8729   7.0588   7.0714   7.3021   7.3172
     7.4563   7.4728   9.3586   9.3678   9.8076   9.8173  10.1572  10.1789
    10.2013  10.2169  10.4232  10.4437  10.7073  10.7278  13.2492  13.2944
    13.3327  13.3778  16.8332  16.8381  17.1291  17.1323

     occupation numbers 
     0.0938   0.0938   0.0938   0.0938   0.0938   0.0938   0.0938   0.0938
     0.0938   0.0938   0.0938   0.0938   0.0938   0.0938   0.0938   0.0938
     0.0938   0.0938   0.0938   0.0938   0.0938   0.0938   0.0938   0.0938
     0.0938   0.0938   0.0937   0.0937   0.0937   0.0937   0.0937   0.0937
     0.0937   0.0937   0.0937   0.0937   0.0935   0.0934   0.0000   0.0000
     0.0000   0.0000   0.0000   0.0000   0.0000   0.0000

          k =-0.2471 0.1427 0.2053 (  2195 PWs)   bands (ev):

   -19.7611 -19.6739  -6.8542  -6.2488  -6.0774  -5.8373  -5.6590  -5.4740
    -3.4494  -3.2740  -3.1187  -2.9097  -2.8397  -2.5588   5.5422   5.9493
     6.3750   6.6369   6.7018   7.0984   7.1144   7.3417   7.4460   7.7222
     7.8766   8.4065   8.7257   9.2883   9.7424   9.8407   9.9783   9.9922
    10.2525  10.5470  10.6522  10.7508  10.8400  10.8929  11.8030  12.6979
    13.5960  14.7345  15.9957  16.1979  17.0372  17.5386

     occupation numbers 
     0.1875   0.1875   0.1875   0.1875   0.1875   0.1875   0.1875   0.1875
     0.1875   0.1875   0.1875   0.1875   0.1875   0.1875   0.1875   0.1875
     0.1875   0.1875   0.1875   0.1875   0.1875   0.1875   0.1875   0.1875
     0.1875   0.1875   0.1875   0.1875   0.1875   0.1875   0.1875   0.1875
     0.1875   0.1874   0.1872   0.1866   0.1854   0.1842   0.0275   0.0000
     0.0000   0.0000   0.0000   0.0000   0.0000   0.0000

          k = 0.4942 0.5706-0.1027 (  2198 PWs)   bands (ev):

   -19.7329 -19.7177  -6.9563  -6.6487  -6.1325  -5.8944  -5.5179  -5.3922
    -3.3282  -3.2661  -2.8828  -2.7132  -2.5300  -2.3862   5.6328   5.9228
     6.0866   6.6609   6.7601   6.8298   6.9046   7.2224   7.3279   7.3808
     7.8667   8.1391   8.8280   9.1494   9.4745   9.7235   9.7461  10.0799
    10.2730  10.4347  10.4959  10.5883  10.7547  10.9265  12.2661  12.7030
    13.3906  14.3157  16.9060  17.1150  17.3076  18.0157

     occupation numbers 
     0.1875   0.1875   0.1875   0.1875   0.1875   0.1875   0.1875   0.1875
     0.1875   0.1875   0.1875   0.1875   0.1875   0.1875   0.1875   0.1875
     0.1875   0.1875   0.1875   0.1875   0.1875   0.1875   0.1875   0.1875
     0.1875   0.1875   0.1875   0.1875   0.1875   0.1875   0.1875   0.1875
     0.1875   0.1875   0.1875   0.1874   0.1866   0.1831   0.0007   0.0000
     0.0000   0.0000   0.0000   0.0000   0.0000   0.0000

          k = 0.2471 0.4280 0.0000 (  2203 PWs)   bands (ev):

   -19.7453 -19.7001  -6.8481  -6.6451  -6.0558  -5.9832  -5.4447  -5.3750
    -3.5619  -3.3028  -2.8046  -2.7088  -2.5783  -2.5672   5.7921   5.8314
     6.3900   6.5944   6.7117   6.7514   7.0778   7.1482   7.2758   7.4665
     7.5083   8.3776   8.8774   9.3060   9.6920   9.7261   9.9639  10.1924
    10.2918  10.2966  10.5065  10.5508  10.5687  11.0054  12.1747  13.2804
    13.3619  14.1108  16.4342  16.9956  17.4208  17.9266

     occupation numbers 
     0.1875   0.1875   0.1875   0.1875   0.1875   0.1875   0.1875   0.1875
     0.1875   0.1875   0.1875   0.1875   0.1875   0.1875   0.1875   0.1875
     0.1875   0.1875   0.1875   0.1875   0.1875   0.1875   0.1875   0.1875
     0.1875   0.1875   0.1875   0.1875   0.1875   0.1875   0.1875   0.1875
     0.1875   0.1875   0.1874   0.1874   0.1874   0.1794   0.0018   0.0000
     0.0000   0.0000   0.0000   0.0000   0.0000   0.0000

          k = 0.4942-0.2853-0.4107 (  2202 PWs)   bands (ev):

   -19.7280 -19.7270  -7.1671  -6.4527  -6.2385  -5.9728  -5.5330  -5.3006
    -3.2144  -3.1156  -3.0615  -2.6474  -2.4791  -2.2217   5.3127   5.7144
     5.9453   6.6608   6.7327   7.1149   7.1435   7.2530   7.3700   7.3802
     8.1643   8.2988   8.4426   8.6033   9.4135   9.6747  10.0297  10.0625
    10.2762  10.3220  10.4769  10.6557  10.7378  11.0475  11.7581  12.3728
    13.2938  14.7495  17.0460  17.2687  17.5199  17.6142

     occupation numbers 
     0.0938   0.0938   0.0938   0.0938   0.0938   0.0938   0.0938   0.0938
     0.0938   0.0938   0.0938   0.0938   0.0938   0.0938   0.0938   0.0938
     0.0938   0.0938   0.0938   0.0938   0.0938   0.0938   0.0938   0.0938
     0.0938   0.0938   0.0938   0.0938   0.0937   0.0937   0.0937   0.0937
     0.0937   0.0937   0.0937   0.0936   0.0934   0.0883   0.0174   0.0001
     0.0000   0.0000   0.0000   0.0000   0.0000   0.0000

          k = 0.0000 0.0000 0.3080 (  2187 PWs)   bands (ev):

   -19.7687 -19.6628  -6.6172  -5.9916  -5.9501  -5.9501  -5.8464  -5.8464
    -3.2295  -3.1521  -3.1521  -2.9737  -2.8991  -2.8991   5.5944   6.2652
     6.5617   6.5617   6.8021   6.8021   7.0298   7.4469   7.4469   7.9423
     7.9423   8.1291   9.4371   9.4522   9.4522   9.6876  10.0906  10.0906
    10.1704  10.1704  10.4962  10.8966  10.8975  10.8975  12.2443  12.2443
    14.2253  14.2253  15.9136  15.9136  16.8795  17.4816

     occupation numbers 
     0.0625   0.0625   0.0625   0.0625   0.0625   0.0625   0.0625   0.0625
     0.0625   0.0625   0.0625   0.0625   0.0625   0.0625   0.0625   0.0625
     0.0625   0.0625   0.0625   0.0625   0.0625   0.0625   0.0625   0.0625
     0.0625   0.0625   0.0625   0.0625   0.0625   0.0625   0.0625   0.0625
     0.0625   0.0625   0.0625   0.0614   0.0613   0.0613   0.0003   0.0003
     0.0000   0.0000   0.0000   0.0000   0.0000   0.0000

          k = 0.7412 0.4280 0.0000 (  2204 PWs)   bands (ev):

   -19.7445 -19.7024  -6.7337  -6.6099  -6.1450  -5.8365  -5.6987  -5.5531
    -3.2044  -3.1032  -3.0472  -2.6794  -2.6663  -2.5874   5.8237   6.0151
     6.2544   6.6964   6.7798   6.8326   7.0056   7.1313   7.3287   7.4142
     7.6676   8.2124   8.8556   9.4123   9.4426   9.6600   9.8191  10.1824
    10.2559  10.3731  10.5700  10.6167  10.6978  10.7050  12.1727  13.2006
    13.2779  14.1395  16.6862  16.7271  17.5908  17.7952

     occupation numbers 
     0.1875   0.1875   0.1875   0.1875   0.1875   0.1875   0.1875   0.1875
     0.1875   0.1875   0.1875   0.1875   0.1875   0.1875   0.1875   0.1875
     0.1875   0.1875   0.1875   0.1875   0.1875   0.1875   0.1875   0.1875
     0.1875   0.1875   0.1875   0.1875   0.1875   0.1875   0.1875   0.1875
     0.1875   0.1875   0.1874   0.1873   0.1870   0.1869   0.0018   0.0000
     0.0000   0.0000   0.0000   0.0000   0.0000   0.0000

          k = 0.4942 0.2853 0.1027 (  2211 PWs)   bands (ev):

   -19.7340 -19.7166  -6.9728  -6.5445  -6.3256  -5.7068  -5.6255  -5.3645
    -3.3427  -3.1700  -3.0481  -2.6026  -2.5665  -2.3779   5.6580   5.9718
     5.9899   6.5347   6.8045   6.9429   6.9979   7.1226   7.2741   7.3638
     7.9134   8.1799   8.8060   9.3012   9.3444   9.6132   9.9236   9.9355
    10.3430  10.4627  10.6086  10.6647  10.7094  10.7427  12.2218  12.7167
    13.4378  14.2972  16.8864  16.9357  17.5788  17.9278

     occupation numbers 
     0.1875   0.1875   0.1875   0.1875   0.1875   0.1875   0.1875   0.1875
     0.1875   0.1875   0.1875   0.1875   0.1875   0.1875   0.1875   0.1875
     0.1875   0.1875   0.1875   0.1875   0.1875   0.1875   0.1875   0.1875
     0.1875   0.1875   0.1875   0.1875   0.1875   0.1875   0.1875   0.1875
     0.1875   0.1875   0.1873   0.1871   0.1869   0.1867   0.0012   0.0000
     0.0000   0.0000   0.0000   0.0000   0.0000   0.0000

          k = 0.7412-0.4280-0.3080 (  2210 PWs)   bands (ev):

   -19.7337 -19.7185  -6.9092  -6.4554  -6.3038  -5.7977  -5.7681  -5.4962
    -3.0808  -3.0652  -2.9700  -2.7348  -2.6271  -2.4284   5.7429   5.9898
     6.1209   6.5449   6.8061   6.8293   7.1160   7.1454   7.2995   7.4088
     7.8917   8.1704   8.7291   9.2349   9.4114   9.4696   9.6347  10.0671
    10.2805  10.4406  10.5453  10.6468  10.7756  10.7884  12.1822  12.6705
    13.3870  14.2673  17.0608  17.0707  17.5469  17.9028

     occupation numbers 
     0.1875   0.1875   0.1875   0.1875   0.1875   0.1875   0.1875   0.1875
     0.1875   0.1875   0.1875   0.1875   0.1875   0.1875   0.1875   0.1875
     0.1875   0.1875   0.1875   0.1875   0.1875   0.1875   0.1875   0.1875
     0.1875   0.1875   0.1875   0.1875   0.1875   0.1875   0.1875   0.1875
     0.1875   0.1875   0.1874   0.1872   0.1864   0.1862   0.0017   0.0000
     0.0000   0.0000   0.0000   0.0000   0.0000   0.0000

          k = 0.4942-0.5706-0.2053 (  2206 PWs)   bands (ev):

   -19.7280 -19.7280  -6.8868  -6.8757  -6.0359  -6.0345  -5.4344  -5.4337
    -3.1602  -3.1599  -2.8225  -2.8217  -2.3832  -2.3806   5.8860   5.8960
     6.0486   6.0505   6.8071   6.8077   7.0461   7.0570   7.3149   7.3154
     8.3086   8.3095   8.7744   8.7776   9.4457   9.4463   9.9530   9.9585
    10.3213  10.3295  10.4783  10.4874  10.8296  10.8362  12.2272  12.2329
    13.9617  13.9730  17.4261  17.4266  17.8705  17.8729

     occupation numbers 
     0.1875   0.1875   0.1875   0.1875   0.1875   0.1875   0.1875   0.1875
     0.1875   0.1875   0.1875   0.1875   0.1875   0.1875   0.1875   0.1875
     0.1875   0.1875   0.1875   0.1875   0.1875   0.1875   0.1875   0.1875
     0.1875   0.1875   0.1875   0.1875   0.1875   0.1875   0.1875   0.1875
     0.1875   0.1875   0.1875   0.1875   0.1856   0.1855   0.0011   0.0010
     0.0000   0.0000   0.0000   0.0000   0.0000   0.0000

          k = 0.0000 0.0000-0.6160 (  2186 PWs)   bands (ev):

   -19.7246 -19.7246  -6.5174  -6.5023  -5.9497  -5.9497  -5.9471  -5.9471
    -2.9062  -2.9062  -2.9044  -2.9044  -2.7037  -2.7035   6.0298   6.0374
     6.7345   6.7345   6.7517   6.7517   7.0173   7.0333   7.4303   7.4303
     7.4451   7.4451   9.5383   9.5383   9.5485   9.5485   9.6138   9.6265
    10.4362  10.4580  10.5660  10.5660  10.5876  10.5876  13.1885  13.1885
    13.2330  13.2330  17.1171  17.1171  17.1189  17.1189

     occupation numbers 
     0.0313   0.0313   0.0313   0.0313   0.0313   0.0313   0.0313   0.0313
     0.0313   0.0313   0.0313   0.0313   0.0313   0.0313   0.0313   0.0313
     0.0313   0.0313   0.0313   0.0313   0.0313   0.0313   0.0313   0.0313
     0.0313   0.0313   0.0312   0.0312   0.0312   0.0312   0.0312   0.0312
     0.0312   0.0312   0.0312   0.0312   0.0312   0.0312   0.0000   0.0000
     0.0000   0.0000   0.0000   0.0000   0.0000   0.0000

          k = 0.4942-0.5706 0.1027 (  2198 PWs)   bands (ev):

   -19.7329 -19.7177  -6.9567  -6.6479  -6.1335  -5.8933  -5.5189  -5.3916
    -3.3289  -3.2660  -2.8829  -2.7122  -2.5306  -2.3858   5.6300   5.9277
     6.0832   6.6637   6.7580   6.8208   6.9182   7.2208   7.3279   7.3751
     7.8711   8.1400   8.8275   9.1491   9.4723   9.7219   9.7466  10.0783
    10.2773  10.4292  10.4974  10.5877  10.7636  10.9219  12.2660  12.7027
    13.3905  14.3154  16.9079  17.1122  17.3082  18.0162

     occupation numbers 
     0.1875   0.1875   0.1875   0.1875   0.1875   0.1875   0.1875   0.1875
     0.1875   0.1875   0.1875   0.1875   0.1875   0.1875   0.1875   0.1875
     0.1875   0.1875   0.1875   0.1875   0.1875   0.1875   0.1875   0.1875
     0.1875   0.1875   0.1875   0.1875   0.1875   0.1875   0.1875   0.1875
     0.1875   0.1875   0.1875   0.1874   0.1865   0.1833   0.0007   0.0000
     0.0000   0.0000   0.0000   0.0000   0.0000   0.0000

     the Fermi energy is    11.4996 ev

!    total energy              =    -537.92305012 Ry
     Harris-Foulkes estimate   =    -537.92303639 Ry
     estimated scf accuracy    <          7.4E-09 Ry

     The total energy is the sum of the following terms:

     one-electron contribution =     -32.89128105 Ry
     hartree contribution      =      83.66039587 Ry
     xc contribution           =    -199.61896831 Ry
     ewald contribution        =    -389.44315552 Ry
     Hubbard energy            =       0.37558768 Ry
     smearing contrib. (-TS)   =      -0.00562879 Ry

     convergence has been achieved in  13 iterations

     init_run     :      7.51s CPU      7.69s WALL (       1 calls)
     electrons    :    276.97s CPU    279.47s WALL (       1 calls)

     Called by init_run:
     wfcinit      :      0.00s CPU      0.00s WALL (       1 calls)
     potinit      :      0.28s CPU      0.39s WALL (       1 calls)

     Called by electrons:
     c_bands      :    177.73s CPU    178.59s WALL (      13 calls)
     sum_band     :     55.44s CPU     55.87s WALL (      13 calls)
     v_of_rho     :      4.21s CPU      4.24s WALL (      14 calls)
     v_h          :      0.29s CPU      0.30s WALL (      14 calls)
     v_xc         :      3.91s CPU      3.94s WALL (      14 calls)
     newd         :     40.32s CPU     40.51s WALL (      14 calls)
     mix_rho      :      0.62s CPU      0.62s WALL (      13 calls)

     Called by c_bands:
     init_us_2    :      1.76s CPU      1.75s WALL (     364 calls)
     cegterg      :    173.07s CPU    173.53s WALL (     182 calls)

     Called by sum_band:
     sum_band:bec :      0.14s CPU      0.14s WALL (     182 calls)
     addusdens    :     23.32s CPU     23.33s WALL (      13 calls)

     Called by *egterg:
     h_psi        :    133.41s CPU    133.82s WALL (     715 calls)
     s_psi        :      7.37s CPU      7.37s WALL (     715 calls)
     g_psi        :      0.50s CPU      0.48s WALL (     533 calls)
     cdiaghg      :      9.36s CPU      9.37s WALL (     701 calls)
     cegterg:over :      8.07s CPU      8.10s WALL (     533 calls)
     cegterg:upda :      5.53s CPU      5.55s WALL (     533 calls)
     cegterg:last :      3.94s CPU      3.94s WALL (     208 calls)

     Called by h_psi:
     h_psi:vloc   :    109.50s CPU    109.84s WALL (     715 calls)
     h_psi:vnl    :     14.91s CPU     14.97s WALL (     715 calls)
     add_vuspsi   :      7.54s CPU      7.58s WALL (     715 calls)
     vhpsi        :      8.61s CPU      8.61s WALL (     715 calls)

     General routines
     calbec       :     15.03s CPU     15.07s WALL (    1794 calls)
     fft          :      3.27s CPU      3.28s WALL (     219 calls)
     ffts         :      0.10s CPU      0.10s WALL (      27 calls)
     fftw         :     96.55s CPU     96.72s WALL (   52698 calls)
     interpolate  :      0.60s CPU      0.60s WALL (      27 calls)
     davcio       :      0.01s CPU      0.67s WALL (     378 calls)

     Parallel routines
     fft_scatter  :     31.52s CPU     31.64s WALL (   52944 calls)
     Hubbard U routines
     new_ns       :      1.48s CPU      1.80s WALL (      13 calls)
     vhpsi        :      8.61s CPU      8.61s WALL (     715 calls)

     PWSCF        :  4m44.95s CPU     4m48.20s WALL


   This run was terminated on:  15: 7:11  11Nov2012            

=------------------------------------------------------------------------------=
