   JOB DONE.
=------------------------------------------------------------------------------=

     Program PWSCF v.5.0.1 starts on 11Nov2012 at 14:53: 1 

     This program is part of the open-source Quantum ESPRESSO suite
     for quantum simulation of materials; please cite
         "P. Giannozzi et al., J. Phys.:Condens. Matter 21 395502 (2009);
          URL http://www.quantum-espresso.org", 
     in publications or presentations arising from this work. More details at
     http://www.quantum-espresso.org/quote.php

     Parallel version (MPI), running on     2 processors
     R & G space division:  proc/pool =    2

     Current dimensions of program PWSCF are:
     Max number of different atomic species (ntypx) = 10
     Max number of k-points (npk) =  40000
     Max angular momentum in pseudopotentials (lmaxx) =  3
     Reading input from CoLaO_U500_a-10.in
               file Co.pbe-nd-rrkjus.UPF: wavefunction(s)  4S 3D renormalized
               file Co.pbe-nd-rrkjus.UPF: wavefunction(s)  4S 3D renormalized
               file O.pbe-rrkjus.UPF: wavefunction(s)  2S renormalized

     Subspace diagonalization in iterative solution of the eigenvalue problem:
     a serial algorithm will be used


     Parallelization info
     --------------------
     sticks:   dense  smooth     PW     G-vecs:    dense   smooth      PW
     Min        1112     444    131                34808     8786    1448
     Max        1113     445    132                34809     8787    1449
     Sum        2225     889    263                69617    17573    2897


     Title: 
     GGA + U, U = 5.000, alpha = -0.100                                         


     bravais-lattice index     =            5
     lattice parameter (alat)  =      10.3292  a.u.
     unit-cell volume          =     793.0599 (a.u.)^3
     number of atoms/cell      =           10
     number of atomic types    =            4
     number of electrons       =        76.00
     number of Kohn-Sham states=           46
     kinetic-energy cutoff     =      30.0000  Ry
     charge density cutoff     =     300.0000  Ry
     convergence threshold     =      1.0E-08
     mixing beta               =       0.2000
     number of iterations used =            8  plain     mixing
     Exchange-correlation      =  SLA  PW   PBE  PBE ( 1 4 3 4 0)
     EXX-fraction              =        0.00

     celldm(1)=  10.329242  celldm(2)=   0.000000  celldm(3)=   0.000000
     celldm(4)=   0.488100  celldm(5)=   0.000000  celldm(6)=   0.000000

     crystal axes: (cart. coord. in units of alat)
               a(1) = (   0.505915  -0.292090   0.811624 )  
               a(2) = (   0.000000   0.584180   0.811624 )  
               a(3) = (  -0.505915  -0.292090   0.811624 )  

     reciprocal axes: (cart. coord. in units 2 pi/alat)
               b(1) = (  0.988308 -0.570600  0.410699 )  
               b(2) = (  0.000000  1.141200  0.410699 )  
               b(3) = ( -0.988308 -0.570600  0.410699 )  


     PseudoPot. # 1 for Co read from file:
     /home/mcurnan/dft-course/Project1/example_LaCoO3/Co.pbe-nd-rrkjus.UPF
     MD5 check sum: 3e47a84addf5e975e0edeaeee2a73f59
     Pseudo is Ultrasoft + core correction, Zval =  9.0
     Generated by new atomic code, or converted to UPF format
     Using radial grid of  961 points,  6 beta functions with: 
                l(1) =   0
                l(2) =   0
                l(3) =   1
                l(4) =   1
                l(5) =   2
                l(6) =   2
     Q(r) pseudized with 0 coefficients 


     PseudoPot. # 2 for Co read from file:
     /home/mcurnan/dft-course/Project1/example_LaCoO3/Co.pbe-nd-rrkjus.UPF
     MD5 check sum: 3e47a84addf5e975e0edeaeee2a73f59
     Pseudo is Ultrasoft + core correction, Zval =  9.0
     Generated by new atomic code, or converted to UPF format
     Using radial grid of  961 points,  6 beta functions with: 
                l(1) =   0
                l(2) =   0
                l(3) =   1
                l(4) =   1
                l(5) =   2
                l(6) =   2
     Q(r) pseudized with 0 coefficients 


     PseudoPot. # 3 for La read from file:
     /home/mcurnan/dft-course/Project1/example_LaCoO3/La.pbe-nsp-van.UPF
     MD5 check sum: b2f11743f52dde65f77d1302becd7929
     Pseudo is Ultrasoft + core correction, Zval = 11.0
     Generated by new atomic code, or converted to UPF format
     Using radial grid of  907 points,  6 beta functions with: 
                l(1) =   0
                l(2) =   0
                l(3) =   1
                l(4) =   1
                l(5) =   2
                l(6) =   2
     Q(r) pseudized with  6 coefficients,  rinner =    1.200   1.200   1.200
                                                       1.200   1.200

     PseudoPot. # 4 for O  read from file:
     /home/mcurnan/dft-course/Project1/example_LaCoO3/O.pbe-rrkjus.UPF
     MD5 check sum: 390ba29e75625707450f3bd3f0eb6be9
     Pseudo is Ultrasoft, Zval =  6.0
     Generated by new atomic code, or converted to UPF format
     Using radial grid of 1269 points,  4 beta functions with: 
                l(1) =   0
                l(2) =   0
                l(3) =   1
                l(4) =   1
     Q(r) pseudized with 0 coefficients 


     atomic species   valence    mass     pseudopotential
        Co1            9.00     1.00000     Co( 1.00)
        Co2            9.00     1.00000     Co( 1.00)
        La1           11.00     1.00000     La( 1.00)
        O1             6.00     1.00000     O ( 1.00)
 -----
     simplified LDA+U calculation, Hubbard_lmax = 2
     atomic species  L   Hubbard U  Hubbard alpha
        Co1          2    5.000000   -0.100000
        Co2          2    5.000000    0.000000
        La1          2    0.000000    0.000000
        O1           1    0.000000    0.000000
 -----

      6 Sym. Ops., with inversion, found


                                    s                        frac. trans.

      isym =  1     identity                                     

 cryst.   s( 1) = (     1          0          0      )
                  (     0          1          0      )
                  (     0          0          1      )

 cart.    s( 1) = (  1.0000000  0.0000000  0.0000000 )
                  (  0.0000000  1.0000000  0.0000000 )
                  (  0.0000000  0.0000000  1.0000000 )


      isym =  2     120 deg rotation - cryst. axis [0,0,1]       

 cryst.   s( 2) = (     0          1          0      )
                  (     0          0          1      )
                  (     1          0          0      )

 cart.    s( 2) = ( -0.5000000 -0.8660254  0.0000000 )
                  (  0.8660254 -0.5000000  0.0000000 )
                  (  0.0000000  0.0000000  1.0000000 )


      isym =  3     120 deg rotation - cryst. axis [0,0,-1]      

 cryst.   s( 3) = (     0          0          1      )
                  (     1          0          0      )
                  (     0          1          0      )

 cart.    s( 3) = ( -0.5000000  0.8660254  0.0000000 )
                  ( -0.8660254 -0.5000000  0.0000000 )
                  (  0.0000000  0.0000000  1.0000000 )


      isym =  4     inversion                                    

 cryst.   s( 4) = (    -1          0          0      )
                  (     0         -1          0      )
                  (     0          0         -1      )

 cart.    s( 4) = ( -1.0000000  0.0000000  0.0000000 )
                  (  0.0000000 -1.0000000  0.0000000 )
                  (  0.0000000  0.0000000 -1.0000000 )


      isym =  5     inv. 180 deg rotation - cart. axis [0,1,0]   

 cryst.   s( 5) = (     0         -1          0      )
                  (     0          0         -1      )
                  (    -1          0          0      )

 cart.    s( 5) = (  0.5000000  0.8660254  0.0000000 )
                  ( -0.8660254  0.5000000  0.0000000 )
                  (  0.0000000  0.0000000 -1.0000000 )


      isym =  6     inv. 180 deg rotation - cart. axis [1,0,0]   

 cryst.   s( 6) = (     0          0         -1      )
                  (    -1          0          0      )
                  (     0         -1          0      )

 cart.    s( 6) = (  0.5000000 -0.8660254  0.0000000 )
                  (  0.8660254  0.5000000  0.0000000 )
                  (  0.0000000  0.0000000 -1.0000000 )


     point group S_6 (-3)   
     there are  6 classes
     the character table:

       E     C3    C3^2  i     S6^5  S6   
A_g    1.00  1.00  1.00  1.00  1.00  1.00
E_g    1.00 -0.50 -0.50  1.00 -0.50 -0.50
E_g*   1.00 -0.50 -0.50  1.00 -0.50 -0.50
A_u    1.00  1.00  1.00 -1.00 -1.00 -1.00
E_u    1.00 -0.50 -0.50 -1.00  0.50  0.50
E_u*   1.00 -0.50 -0.50 -1.00  0.50  0.50
     imaginary part
A_g    0.00  0.00  0.00  0.00  0.00  0.00
E_g    0.00  0.87 -0.87  0.00  0.87 -0.87
E_g*   0.00 -0.87  0.87  0.00 -0.87  0.87
A_u    0.00  0.00  0.00  0.00  0.00  0.00
E_u    0.00  0.87 -0.87  0.00 -0.87  0.87
E_u*   0.00 -0.87  0.87  0.00  0.87 -0.87

     the symmetry operations in each class:
     E        1
     C3       2
     C3^2     3
     i        4
     S6^5     5
     S6       6

   Cartesian axes

     site n.     atom                  positions (alat units)
         1           Co1 tau(   1) = (   0.0000000   0.0000000   0.0000000  )
         2           Co2 tau(   2) = (   0.0000000   0.0000000   1.2174358  )
         3           La1 tau(   3) = (   0.0000000   0.0000000   0.6087179  )
         4           La1 tau(   4) = (   0.0000000   0.0000000   1.8261537  )
         5           O1  tau(   5) = (  -0.2839701  -0.0933228   1.0141240  )
         6           O1  tau(   6) = (   0.0611651   0.2925867   1.0141240  )
         7           O1  tau(   7) = (   0.2228050  -0.1992639   1.0141240  )
         8           O1  tau(   8) = (  -0.0611651  -0.2925867   1.4207476  )
         9           O1  tau(   9) = (   0.2839701   0.0933228   1.4207476  )
        10           O1  tau(  10) = (  -0.2228050   0.1992639   1.4207476  )

   Crystallographic axes

     site n.     atom                  positions (cryst. coord.)
         1           Co1 tau(   1) = (  0.0000000  0.0000000  0.0000000  )
         2           Co2 tau(   2) = (  0.5000000  0.5000000  0.5000000  )
         3           La1 tau(   3) = (  0.2500000  0.2500000  0.2500000  )
         4           La1 tau(   4) = (  0.7500000  0.7500000  0.7500000  )
         5           O1  tau(   5) = (  0.1891000  0.3100000  0.7504000  )
         6           O1  tau(   6) = (  0.3100000  0.7504000  0.1891000  )
         7           O1  tau(   7) = (  0.7504000  0.1891000  0.3100000  )
         8           O1  tau(   8) = (  0.6900000  0.2496000  0.8109000  )
         9           O1  tau(   9) = (  0.8109000  0.6900000  0.2496000  )
        10           O1  tau(  10) = (  0.2496000  0.8109000  0.6900000  )

     number of k points=    14  gaussian smearing, width (Ry)=  0.0300
                       cart. coord. in units 2pi/alat
        k(    1) = (   0.0000000   0.0000000   0.0000000), wk =   0.0312500
        k(    2) = (  -0.2470771  -0.1426500   0.1026748), wk =   0.1875000
        k(    3) = (   0.4941541   0.2853000  -0.2053496), wk =   0.0937500
        k(    4) = (  -0.2470771   0.1426500   0.2053496), wk =   0.1875000
        k(    5) = (   0.4941541   0.5706001  -0.1026748), wk =   0.1875000
        k(    6) = (   0.2470771   0.4279500   0.0000000), wk =   0.1875000
        k(    7) = (   0.4941541  -0.2853000  -0.4106993), wk =   0.0937500
        k(    8) = (   0.0000000   0.0000000   0.3080244), wk =   0.0625000
        k(    9) = (   0.7412312   0.4279500   0.0000000), wk =   0.1875000
        k(   10) = (   0.4941541   0.2853000   0.1026748), wk =   0.1875000
        k(   11) = (   0.7412312  -0.4279500  -0.3080244), wk =   0.1875000
        k(   12) = (   0.4941541  -0.5706001  -0.2053496), wk =   0.1875000
        k(   13) = (   0.0000000   0.0000000  -0.6160489), wk =   0.0312500
        k(   14) = (   0.4941541  -0.5706001   0.1026748), wk =   0.1875000

                       cryst. coord.
        k(    1) = (   0.0000000   0.0000000   0.0000000), wk =   0.0312500
        k(    2) = (   0.0000000   0.0000000   0.2500000), wk =   0.1875000
        k(    3) = (   0.0000000   0.0000000  -0.5000000), wk =   0.0937500
        k(    4) = (   0.0000000   0.2500000   0.2500000), wk =   0.1875000
        k(    5) = (   0.0000000   0.2500000  -0.5000000), wk =   0.1875000
        k(    6) = (   0.0000000   0.2500000  -0.2500000), wk =   0.1875000
        k(    7) = (   0.0000000  -0.5000000  -0.5000000), wk =   0.0937500
        k(    8) = (   0.2500000   0.2500000   0.2500000), wk =   0.0625000
        k(    9) = (   0.2500000   0.2500000  -0.5000000), wk =   0.1875000
        k(   10) = (   0.2500000   0.2500000  -0.2500000), wk =   0.1875000
        k(   11) = (   0.2500000  -0.5000000  -0.5000000), wk =   0.1875000
        k(   12) = (   0.2500000  -0.5000000  -0.2500000), wk =   0.1875000
        k(   13) = (  -0.5000000  -0.5000000  -0.5000000), wk =   0.0312500
        k(   14) = (   0.5000000  -0.2500000   0.0000000), wk =   0.1875000

     Dense  grid:    69617 G-vectors     FFT dimensions: (  60,  60,  60)

     Smooth grid:    17573 G-vectors     FFT dimensions: (  40,  40,  40)

     Largest allocated arrays     est. size (Mb)     dimensions
        Kohn-Sham Wavefunctions         0.78 Mb     (   1117,   46)
        Atomic wavefunctions            1.06 Mb     (   1117,   62)
        NL pseudopotentials             2.05 Mb     (   1117,  120)
        Each V/rho on FFT grid          1.65 Mb     ( 108000)
        Each G-vector array             0.27 Mb     (  34808)
        G-vector shells                 0.04 Mb     (   4682)
     Largest temporary arrays     est. size (Mb)     dimensions
        Auxiliary wavefunctions         3.14 Mb     (   1117,  184)
        Each subspace H/S matrix        0.52 Mb     ( 184, 184)
        Each <psi_i|beta_j> matrix      0.08 Mb     (    120,   46)
        Arrays for rho mixing          13.18 Mb     ( 108000,   8)

     Check: negative/imaginary core charge=   -0.000028    0.000000

     The initial density is read from file :
     /home/mcurnan/dft-course/Project1/example_LaCoO3/500/Co/alpha/CoLaO_U500.save/charge-density.dat

 --- in v_hubbard ---
Hubbard energy    0.4195
 -------
     Number of +U iterations with fixed ns =  0
     Starting occupations:
 --- enter write_ns ---
 LDA+U parameters:
U( 1)     =  5.00000000
alpha( 1) = -0.10000000
U( 2)     =  5.00000000
alpha( 2) =  0.00000000
U( 3)     =  0.00000000
alpha( 3) =  0.00000000
U( 4)     =  0.00000000
alpha( 4) =  0.00000000
atom    1   Tr[ns(na)] =   8.02206
    eigenvalues: 
  0.596  0.596  0.938  0.941  0.941
    eigenvectors:
  0.000  0.000  1.000  0.000  0.000
  0.333  0.322  0.000  0.004  0.341
  0.322  0.333  0.000  0.341  0.004
  0.289  0.056  0.000  0.515  0.140
  0.056  0.289  0.000  0.140  0.515
    occupations:
  0.938  0.000  0.000  0.000  0.000
  0.000  0.715  0.000 -0.060  0.152
  0.000  0.000  0.715  0.152  0.060
  0.000 -0.060  0.152  0.822  0.000
  0.000  0.152  0.060  0.000  0.822
atom    2   Tr[ns(na)] =   8.02145
    eigenvalues: 
  0.595  0.595  0.938  0.941  0.941
    eigenvectors:
  0.000  0.000  1.000  0.000  0.000
  0.640  0.015  0.000  0.223  0.122
  0.015  0.640  0.000  0.122  0.223
  0.017  0.329  0.000  0.470  0.185
  0.329  0.017  0.000  0.185  0.470
    occupations:
  0.938  0.000  0.000  0.000  0.000
  0.000  0.715  0.000  0.060  0.153
  0.000  0.000  0.715  0.153 -0.060
  0.000  0.060  0.153  0.822  0.000
  0.000  0.153 -0.060  0.000  0.822
atom    3   Tr[ns(na)] =   3.80284
    eigenvalues: 
  0.355  0.355  0.384  0.403  0.403
    eigenvectors:
  0.000  0.000  1.000  0.000  0.000
  0.781  0.139  0.000  0.012  0.068
  0.139  0.781  0.000  0.068  0.012
  0.013  0.067  0.000  0.780  0.141
  0.067  0.013  0.000  0.141  0.780
    occupations:
  0.384  0.000  0.000  0.000  0.000
  0.000  0.359  0.000  0.000  0.013
  0.000  0.000  0.359  0.013  0.000
  0.000  0.000  0.013  0.399  0.000
  0.000  0.013  0.000  0.000  0.399
atom    4   Tr[ns(na)] =   3.80284
    eigenvalues: 
  0.355  0.355  0.384  0.403  0.403
    eigenvectors:
  0.000  0.000  1.000  0.000  0.000
  0.782  0.139  0.000  0.012  0.068
  0.139  0.782  0.000  0.068  0.012
  0.012  0.067  0.000  0.780  0.141
  0.067  0.012  0.000  0.141  0.780
    occupations:
  0.384  0.000  0.000  0.000  0.000
  0.000  0.359  0.000  0.000  0.013
  0.000  0.000  0.359  0.013  0.000
  0.000  0.000  0.013  0.399  0.000
  0.000  0.013  0.000  0.000  0.399
atom    5   Tr[ns(na)] =   5.43357
    eigenvalues: 
  0.846  0.929  0.941
    eigenvectors:
  0.340  0.000  0.660
  0.494  0.250  0.256
  0.166  0.750  0.085
    occupations:
  0.909  0.039  0.022
  0.039  0.891 -0.022
  0.022 -0.022  0.917
atom    6   Tr[ns(na)] =   5.43357
    eigenvalues: 
  0.846  0.929  0.941
    eigenvectors:
  0.340  0.000  0.660
  0.000  1.000  0.000
  0.660  0.000  0.340
    occupations:
  0.909  0.000 -0.045
  0.000  0.929  0.000
 -0.045  0.000  0.879
atom    7   Tr[ns(na)] =   5.43357
    eigenvalues: 
  0.846  0.929  0.941
    eigenvectors:
  0.340  0.000  0.660
  0.496  0.250  0.255
  0.164  0.750  0.086
    occupations:
  0.909 -0.039  0.022
 -0.039  0.891  0.022
  0.022  0.022  0.917
atom    8   Tr[ns(na)] =   5.43357
    eigenvalues: 
  0.846  0.929  0.941
    eigenvectors:
  0.340  0.000  0.660
  0.000  1.000  0.000
  0.660  0.000  0.340
    occupations:
  0.909  0.000 -0.045
  0.000  0.929  0.000
 -0.045  0.000  0.879
atom    9   Tr[ns(na)] =   5.43357
    eigenvalues: 
  0.846  0.929  0.941
    eigenvectors:
  0.340  0.000  0.660
  0.494  0.250  0.256
  0.166  0.750  0.085
    occupations:
  0.909  0.039  0.022
  0.039  0.891 -0.022
  0.022 -0.022  0.917
atom   10   Tr[ns(na)] =   5.43357
    eigenvalues: 
  0.846  0.929  0.941
    eigenvectors:
  0.340  0.000  0.660
  0.496  0.250  0.255
  0.164  0.750  0.086
    occupations:
  0.909 -0.039  0.022
 -0.039  0.891  0.022
  0.022  0.022  0.917
N of occupied +U levels =  56.2506062
 --- exit write_ns ---
 LDA+U Projector read from file 
     Starting wfc from file

     total cpu time spent up to now is        9.3 secs

     per-process dynamical memory:    46.9 Mb

     Self-consistent Calculation

     iteration #  1     ecut=    30.00 Ry     beta=0.20
     Davidson diagonalization with overlap
     c_bands:  1 eigenvalues not converged
     c_bands:  1 eigenvalues not converged
     c_bands:  1 eigenvalues not converged
     c_bands:  1 eigenvalues not converged
     ethr =  1.00E-10,  avg # of iterations = 16.6
 --- enter write_ns ---
 LDA+U parameters:
U( 1)     =  5.00000000
alpha( 1) = -0.10000000
U( 2)     =  5.00000000
alpha( 2) =  0.00000000
U( 3)     =  0.00000000
alpha( 3) =  0.00000000
U( 4)     =  0.00000000
alpha( 4) =  0.00000000
atom    1   Tr[ns(na)] =   8.26025
    eigenvalues: 
  0.576  0.576  0.991  0.991  0.994
    eigenvectors:
  0.000  0.000  0.000  0.000  1.000
  0.330  0.324  0.004  0.342  0.000
  0.324  0.330  0.342  0.004  0.000
  0.289  0.057  0.514  0.140  0.000
  0.057  0.289  0.140  0.514  0.000
    occupations:
  0.994  0.000  0.000  0.000  0.000
  0.000  0.720  0.000 -0.072  0.184
  0.000  0.000  0.720  0.184  0.072
  0.000 -0.072  0.184  0.848  0.000
  0.000  0.184  0.072  0.000  0.848
atom    2   Tr[ns(na)] =   8.20811
    eigenvalues: 
  0.565  0.565  0.991  0.991  0.994
    eigenvectors:
  0.000  0.000  0.000  0.000  1.000
  0.634  0.020  0.221  0.125  0.000
  0.020  0.634  0.125  0.221  0.000
  0.012  0.334  0.469  0.186  0.000
  0.334  0.012  0.186  0.469  0.000
    occupations:
  0.994  0.000  0.000  0.000  0.000
  0.000  0.712  0.000  0.072  0.189
  0.000  0.000  0.712  0.189 -0.072
  0.000  0.072  0.189  0.843  0.000
  0.000  0.189 -0.072  0.000  0.843
atom    3   Tr[ns(na)] =   3.79133
    eigenvalues: 
  0.356  0.356  0.381  0.401  0.401
    eigenvectors:
  0.000  0.000  1.000  0.000  0.000
  0.775  0.141  0.000  0.012  0.071
  0.141  0.775  0.000  0.071  0.012
  0.014  0.070  0.000  0.774  0.142
  0.070  0.014  0.000  0.142  0.774
    occupations:
  0.381  0.000  0.000  0.000  0.000
  0.000  0.360  0.000  0.000  0.013
  0.000  0.000  0.360  0.013  0.000
  0.000  0.000  0.013  0.397  0.000
  0.000  0.013  0.000  0.000  0.397
atom    4   Tr[ns(na)] =   3.79133
    eigenvalues: 
  0.356  0.356  0.381  0.401  0.401
    eigenvectors:
  0.000  0.000  1.000  0.000  0.000
  0.775  0.141  0.000  0.012  0.071
  0.141  0.775  0.000  0.071  0.012
  0.014  0.070  0.000  0.774  0.142
  0.070  0.014  0.000  0.142  0.774
    occupations:
  0.381  0.000  0.000  0.000  0.000
  0.000  0.360  0.000  0.000  0.013
  0.000  0.000  0.360  0.013  0.000
  0.000  0.000  0.013  0.397  0.000
  0.000  0.013  0.000  0.000  0.397
atom    5   Tr[ns(na)] =   5.37999
    eigenvalues: 
  0.823  0.923  0.944
    eigenvectors:
  0.341  0.000  0.659
  0.489  0.255  0.256
  0.169  0.745  0.085
    occupations:
  0.903  0.049  0.029
  0.049  0.880 -0.025
  0.029 -0.025  0.908
atom    6   Tr[ns(na)] =   5.37999
    eigenvalues: 
  0.823  0.923  0.944
    eigenvectors:
  0.341  0.000  0.659
  0.000  1.000  0.000
  0.659  0.000  0.341
    occupations:
  0.903  0.000 -0.057
  0.000  0.923  0.001
 -0.057  0.001  0.865
atom    7   Tr[ns(na)] =   5.37999
    eigenvalues: 
  0.823  0.923  0.944
    eigenvectors:
  0.341  0.000  0.659
  0.499  0.245  0.256
  0.160  0.755  0.085
    occupations:
  0.903 -0.050  0.028
 -0.050  0.879  0.025
  0.028  0.025  0.909
atom    8   Tr[ns(na)] =   5.37999
    eigenvalues: 
  0.823  0.923  0.944
    eigenvectors:
  0.341  0.000  0.659
  0.000  1.000  0.000
  0.659  0.000  0.341
    occupations:
  0.903  0.000 -0.057
  0.000  0.923  0.001
 -0.057  0.001  0.865
atom    9   Tr[ns(na)] =   5.37999
    eigenvalues: 
  0.823  0.923  0.944
    eigenvectors:
  0.341  0.000  0.659
  0.489  0.255  0.256
  0.169  0.745  0.085
    occupations:
  0.903  0.049  0.029
  0.049  0.880 -0.025
  0.029 -0.025  0.908
atom   10   Tr[ns(na)] =   5.37999
    eigenvalues: 
  0.823  0.923  0.944
    eigenvectors:
  0.341  0.000  0.659
  0.499  0.245  0.256
  0.160  0.755  0.085
    occupations:
  0.903 -0.050  0.028
 -0.050  0.879  0.025
  0.028  0.025  0.909
N of occupied +U levels =  56.3309299
 --- exit write_ns ---
 --- in v_hubbard ---
Hubbard energy    0.4001
 -------

     total cpu time spent up to now is       55.6 secs

     total energy              =    -537.96309362 Ry
     Harris-Foulkes estimate   =    -537.97659800 Ry
     estimated scf accuracy    <       0.05858173 Ry

     iteration #  2     ecut=    30.00 Ry     beta=0.20
     Davidson diagonalization with overlap
     ethr =  7.71E-05,  avg # of iterations =  2.0
 --- enter write_ns ---
 LDA+U parameters:
U( 1)     =  5.00000000
alpha( 1) = -0.10000000
U( 2)     =  5.00000000
alpha( 2) =  0.00000000
U( 3)     =  0.00000000
alpha( 3) =  0.00000000
U( 4)     =  0.00000000
alpha( 4) =  0.00000000
atom    1   Tr[ns(na)] =   8.01497
    eigenvalues: 
  0.515  0.515  0.991  0.991  0.995
    eigenvectors:
  0.000  0.000  0.000  0.000  1.000
  0.332  0.323  0.004  0.341  0.000
  0.323  0.332  0.341  0.004  0.000
  0.289  0.056  0.516  0.140  0.000
  0.056  0.289  0.140  0.516  0.000
    occupations:
  0.995  0.000  0.000  0.000  0.000
  0.000  0.679  0.000 -0.083  0.211
  0.000  0.000  0.679  0.211  0.083
  0.000 -0.083  0.211  0.827  0.000
  0.000  0.211  0.083  0.000  0.827
atom    2   Tr[ns(na)] =   8.03787
    eigenvalues: 
  0.518  0.518  0.993  0.993  0.996
    eigenvectors:
  0.000  0.000  0.000  0.000  1.000
  0.639  0.017  0.224  0.121  0.000
  0.017  0.639  0.121  0.224  0.000
  0.016  0.329  0.471  0.185  0.000
  0.329  0.016  0.185  0.471  0.000
    occupations:
  0.996  0.000  0.000  0.000  0.000
  0.000  0.682  0.000  0.083  0.210
  0.000  0.000  0.682  0.210 -0.083
  0.000  0.083  0.210  0.829  0.000
  0.000  0.210 -0.083  0.000  0.829
atom    3   Tr[ns(na)] =   3.78686
    eigenvalues: 
  0.355  0.355  0.381  0.401  0.401
    eigenvectors:
  0.000  0.000  1.000  0.000  0.000
  0.781  0.139  0.000  0.012  0.068
  0.139  0.781  0.000  0.068  0.012
  0.012  0.067  0.000  0.779  0.141
  0.067  0.012  0.000  0.141  0.779
    occupations:
  0.381  0.000  0.000  0.000  0.000
  0.000  0.359  0.000  0.000  0.013
  0.000  0.000  0.359  0.013  0.000
  0.000  0.000  0.013  0.398  0.000
  0.000  0.013  0.000  0.000  0.398
atom    4   Tr[ns(na)] =   3.78686
    eigenvalues: 
  0.355  0.355  0.381  0.401  0.401
    eigenvectors:
  0.000  0.000  1.000  0.000  0.000
  0.781  0.139  0.000  0.012  0.068
  0.139  0.781  0.000  0.068  0.012
  0.012  0.067  0.000  0.779  0.141
  0.067  0.012  0.000  0.141  0.779
    occupations:
  0.381  0.000  0.000  0.000  0.000
  0.000  0.359  0.000  0.000  0.013
  0.000  0.000  0.359  0.013  0.000
  0.000  0.000  0.013  0.398  0.000
  0.000  0.013  0.000  0.000  0.398
atom    5   Tr[ns(na)] =   5.44640
    eigenvalues: 
  0.843  0.932  0.949
    eigenvectors:
  0.336  0.000  0.664
  0.502  0.245  0.253
  0.162  0.755  0.083
    occupations:
  0.913  0.044  0.025
  0.044  0.891 -0.023
  0.025 -0.023  0.919
atom    6   Tr[ns(na)] =   5.44640
    eigenvalues: 
  0.843  0.932  0.949
    eigenvectors:
  0.336  0.000  0.664
  0.000  1.000  0.000
  0.664  0.000  0.336
    occupations:
  0.913  0.000 -0.050
  0.000  0.932  0.000
 -0.050  0.000  0.878
atom    7   Tr[ns(na)] =   5.44640
    eigenvalues: 
  0.843  0.932  0.949
    eigenvectors:
  0.336  0.000  0.664
  0.494  0.255  0.251
  0.170  0.745  0.085
    occupations:
  0.913 -0.043  0.025
 -0.043  0.892  0.023
  0.025  0.023  0.918
atom    8   Tr[ns(na)] =   5.44640
    eigenvalues: 
  0.843  0.932  0.949
    eigenvectors:
  0.336  0.000  0.664
  0.000  1.000  0.000
  0.664  0.000  0.336
    occupations:
  0.913  0.000 -0.050
  0.000  0.932  0.000
 -0.050  0.000  0.878
atom    9   Tr[ns(na)] =   5.44640
    eigenvalues: 
  0.843  0.932  0.949
    eigenvectors:
  0.336  0.000  0.664
  0.502  0.245  0.253
  0.162  0.755  0.083
    occupations:
  0.913  0.044  0.025
  0.044  0.891 -0.023
  0.025 -0.023  0.919
atom   10   Tr[ns(na)] =   5.44640
    eigenvalues: 
  0.843  0.932  0.949
    eigenvectors:
  0.336  0.000  0.664
  0.494  0.255  0.251
  0.170  0.745  0.085
    occupations:
  0.913 -0.043  0.025
 -0.043  0.892  0.023
  0.025  0.023  0.918
N of occupied +U levels =  56.3049416
 --- exit write_ns ---
 --- in v_hubbard ---
Hubbard energy    0.3920
 -------

     total cpu time spent up to now is       72.4 secs

     total energy              =    -537.97479833 Ry
     Harris-Foulkes estimate   =    -537.97525908 Ry
     estimated scf accuracy    <       0.03487039 Ry

     iteration #  3     ecut=    30.00 Ry     beta=0.20
     Davidson diagonalization with overlap
     ethr =  4.59E-05,  avg # of iterations =  1.0
 --- enter write_ns ---
 LDA+U parameters:
U( 1)     =  5.00000000
alpha( 1) = -0.10000000
U( 2)     =  5.00000000
alpha( 2) =  0.00000000
U( 3)     =  0.00000000
alpha( 3) =  0.00000000
U( 4)     =  0.00000000
alpha( 4) =  0.00000000
atom    1   Tr[ns(na)] =   8.08194
    eigenvalues: 
  0.530  0.530  0.992  0.992  0.995
    eigenvectors:
  0.000  0.000  0.000  0.000  1.000
  0.333  0.323  0.004  0.341  0.000
  0.323  0.333  0.341  0.004  0.000
  0.288  0.056  0.516  0.140  0.000
  0.056  0.288  0.140  0.516  0.000
    occupations:
  0.995  0.000  0.000  0.000  0.000
  0.000  0.689  0.000 -0.081  0.204
  0.000  0.000  0.689  0.204  0.081
  0.000 -0.081  0.204  0.833  0.000
  0.000  0.204  0.081  0.000  0.833
atom    2   Tr[ns(na)] =   8.05890
    eigenvalues: 
  0.524  0.524  0.993  0.993  0.996
    eigenvectors:
  0.000  0.000  0.000  0.000  1.000
  0.638  0.018  0.222  0.122  0.000
  0.018  0.638  0.122  0.222  0.000
  0.015  0.329  0.471  0.185  0.000
  0.329  0.015  0.185  0.471  0.000
    occupations:
  0.996  0.000  0.000  0.000  0.000
  0.000  0.686  0.000  0.081  0.207
  0.000  0.000  0.686  0.207 -0.081
  0.000  0.081  0.207  0.831  0.000
  0.000  0.207 -0.081  0.000  0.831
atom    3   Tr[ns(na)] =   3.78763
    eigenvalues: 
  0.355  0.355  0.381  0.401  0.401
    eigenvectors:
  0.000  0.000  1.000  0.000  0.000
  0.781  0.139  0.000  0.012  0.068
  0.139  0.781  0.000  0.068  0.012
  0.013  0.067  0.000  0.779  0.141
  0.067  0.013  0.000  0.141  0.779
    occupations:
  0.381  0.000  0.000  0.000  0.000
  0.000  0.359  0.000  0.000  0.012
  0.000  0.000  0.359  0.012  0.000
  0.000  0.000  0.012  0.397  0.000
  0.000  0.012  0.000  0.000  0.397
atom    4   Tr[ns(na)] =   3.78763
    eigenvalues: 
  0.355  0.355  0.381  0.401  0.401
    eigenvectors:
  0.000  0.000  1.000  0.000  0.000
  0.781  0.139  0.000  0.012  0.068
  0.139  0.781  0.000  0.068  0.012
  0.013  0.067  0.000  0.779  0.141
  0.067  0.013  0.000  0.141  0.779
    occupations:
  0.381  0.000  0.000  0.000  0.000
  0.000  0.359  0.000  0.000  0.012
  0.000  0.000  0.359  0.012  0.000
  0.000  0.000  0.012  0.397  0.000
  0.000  0.012  0.000  0.000  0.397
atom    5   Tr[ns(na)] =   5.43249
    eigenvalues: 
  0.838  0.930  0.948
    eigenvectors:
  0.337  0.000  0.663
  0.496  0.251  0.253
  0.167  0.749  0.084
    occupations:
  0.911  0.045  0.026
  0.045  0.889 -0.024
  0.026 -0.024  0.916
atom    6   Tr[ns(na)] =   5.43249
    eigenvalues: 
  0.838  0.930  0.948
    eigenvectors:
  0.337  0.000  0.663
  0.000  1.000  0.000
  0.663  0.000  0.337
    occupations:
  0.911  0.000 -0.052
  0.000  0.930  0.000
 -0.052  0.000  0.875
atom    7   Tr[ns(na)] =   5.43249
    eigenvalues: 
  0.838  0.930  0.948
    eigenvectors:
  0.337  0.000  0.663
  0.499  0.249  0.252
  0.164  0.751  0.085
    occupations:
  0.911 -0.045  0.026
 -0.045  0.889  0.024
  0.026  0.024  0.916
atom    8   Tr[ns(na)] =   5.43249
    eigenvalues: 
  0.838  0.930  0.948
    eigenvectors:
  0.337  0.000  0.663
  0.000  1.000  0.000
  0.663  0.000  0.337
    occupations:
  0.911  0.000 -0.052
  0.000  0.930  0.000
 -0.052  0.000  0.875
atom    9   Tr[ns(na)] =   5.43249
    eigenvalues: 
  0.838  0.930  0.948
    eigenvectors:
  0.337  0.000  0.663
  0.496  0.251  0.253
  0.167  0.749  0.084
    occupations:
  0.911  0.045  0.026
  0.045  0.889 -0.024
  0.026 -0.024  0.916
atom   10   Tr[ns(na)] =   5.43249
    eigenvalues: 
  0.838  0.930  0.948
    eigenvectors:
  0.337  0.000  0.663
  0.499  0.249  0.252
  0.164  0.751  0.085
    occupations:
  0.911 -0.045  0.026
 -0.045  0.889  0.024
  0.026  0.024  0.916
N of occupied +U levels =  56.3110145
 --- exit write_ns ---
 --- in v_hubbard ---
Hubbard energy    0.3563
 -------

     total cpu time spent up to now is       88.8 secs

     total energy              =    -537.97985749 Ry
     Harris-Foulkes estimate   =    -537.97566065 Ry
     estimated scf accuracy    <       0.01503250 Ry

     iteration #  4     ecut=    30.00 Ry     beta=0.20
     Davidson diagonalization with overlap
     ethr =  1.98E-05,  avg # of iterations =  1.0
 --- enter write_ns ---
 LDA+U parameters:
U( 1)     =  5.00000000
alpha( 1) = -0.10000000
U( 2)     =  5.00000000
alpha( 2) =  0.00000000
U( 3)     =  0.00000000
alpha( 3) =  0.00000000
U( 4)     =  0.00000000
alpha( 4) =  0.00000000
atom    1   Tr[ns(na)] =   8.05593
    eigenvalues: 
  0.524  0.524  0.993  0.993  0.996
    eigenvectors:
  0.000  0.000  0.000  0.000  1.000
  0.335  0.322  0.004  0.339  0.000
  0.322  0.335  0.339  0.004  0.000
  0.286  0.057  0.517  0.140  0.000
  0.057  0.286  0.140  0.517  0.000
    occupations:
  0.996  0.000  0.000  0.000  0.000
  0.000  0.684  0.000 -0.082  0.207
  0.000  0.000  0.684  0.207  0.082
  0.000 -0.082  0.207  0.832  0.000
  0.000  0.207  0.082  0.000  0.832
atom    2   Tr[ns(na)] =   8.10446
    eigenvalues: 
  0.533  0.533  0.995  0.995  0.997
    eigenvectors:
  0.000  0.000  0.000  0.000  1.000
  0.639  0.018  0.223  0.120  0.000
  0.018  0.639  0.120  0.223  0.000
  0.015  0.327  0.473  0.184  0.000
  0.327  0.015  0.184  0.473  0.000
    occupations:
  0.997  0.000  0.000  0.000  0.000
  0.000  0.691  0.000  0.081  0.204
  0.000  0.000  0.691  0.204 -0.081
  0.000  0.081  0.204  0.836  0.000
  0.000  0.204 -0.081  0.000  0.836
atom    3   Tr[ns(na)] =   3.79249
    eigenvalues: 
  0.356  0.356  0.381  0.401  0.401
    eigenvectors:
  0.000  0.000  1.000  0.000  0.000
  0.783  0.138  0.000  0.012  0.067
  0.138  0.783  0.000  0.067  0.012
  0.012  0.066  0.000  0.781  0.141
  0.066  0.012  0.000  0.141  0.781
    occupations:
  0.381  0.000  0.000  0.000  0.000
  0.000  0.360  0.000  0.000  0.012
  0.000  0.000  0.360  0.012  0.000
  0.000  0.000  0.012  0.398  0.000
  0.000  0.012  0.000  0.000  0.398
atom    4   Tr[ns(na)] =   3.79249
    eigenvalues: 
  0.356  0.356  0.381  0.401  0.401
    eigenvectors:
  0.000  0.000  1.000  0.000  0.000
  0.783  0.138  0.000  0.012  0.067
  0.138  0.783  0.000  0.067  0.012
  0.012  0.066  0.000  0.781  0.141
  0.066  0.012  0.000  0.141  0.781
    occupations:
  0.381  0.000  0.000  0.000  0.000
  0.000  0.360  0.000  0.000  0.012
  0.000  0.000  0.360  0.012  0.000
  0.000  0.000  0.012  0.398  0.000
  0.000  0.012  0.000  0.000  0.398
atom    5   Tr[ns(na)] =   5.42691
    eigenvalues: 
  0.837  0.929  0.947
    eigenvectors:
  0.337  0.000  0.663
  0.504  0.242  0.255
  0.159  0.758  0.083
    occupations:
  0.910  0.046  0.026
  0.046  0.887 -0.024
  0.026 -0.024  0.916
atom    6   Tr[ns(na)] =   5.42691
    eigenvalues: 
  0.837  0.929  0.947
    eigenvectors:
  0.337  0.000  0.663
  0.000  1.000  0.000
  0.663  0.000  0.337
    occupations:
  0.910 -0.001 -0.052
 -0.001  0.929 -0.001
 -0.052 -0.001  0.874
atom    7   Tr[ns(na)] =   5.42691
    eigenvalues: 
  0.837  0.929  0.947
    eigenvectors:
  0.337  0.000  0.663
  0.490  0.258  0.251
  0.173  0.741  0.086
    occupations:
  0.910 -0.045  0.027
 -0.045  0.888  0.024
  0.027  0.024  0.915
atom    8   Tr[ns(na)] =   5.42691
    eigenvalues: 
  0.837  0.929  0.947
    eigenvectors:
  0.337  0.000  0.663
  0.000  1.000  0.000
  0.663  0.000  0.337
    occupations:
  0.910 -0.001 -0.052
 -0.001  0.929 -0.001
 -0.052 -0.001  0.874
atom    9   Tr[ns(na)] =   5.42691
    eigenvalues: 
  0.837  0.929  0.947
    eigenvectors:
  0.337  0.000  0.663
  0.504  0.242  0.255
  0.159  0.758  0.083
    occupations:
  0.910  0.046  0.026
  0.046  0.887 -0.024
  0.026 -0.024  0.916
atom   10   Tr[ns(na)] =   5.42691
    eigenvalues: 
  0.837  0.929  0.947
    eigenvectors:
  0.337  0.000  0.663
  0.490  0.258  0.251
  0.173  0.741  0.086
    occupations:
  0.910 -0.045  0.027
 -0.045  0.888  0.024
  0.027  0.024  0.915
N of occupied +U levels =  56.3068048
 --- exit write_ns ---
 --- in v_hubbard ---
Hubbard energy    0.3139
 -------

     total cpu time spent up to now is      105.2 secs

     total energy              =    -537.98136579 Ry
     Harris-Foulkes estimate   =    -537.98051674 Ry
     estimated scf accuracy    <       0.00604534 Ry

     iteration #  5     ecut=    30.00 Ry     beta=0.20
     Davidson diagonalization with overlap
     ethr =  7.95E-06,  avg # of iterations =  1.1
 --- enter write_ns ---
 LDA+U parameters:
U( 1)     =  5.00000000
alpha( 1) = -0.10000000
U( 2)     =  5.00000000
alpha( 2) =  0.00000000
U( 3)     =  0.00000000
alpha( 3) =  0.00000000
U( 4)     =  0.00000000
alpha( 4) =  0.00000000
atom    1   Tr[ns(na)] =   8.07786
    eigenvalues: 
  0.526  0.526  0.995  0.995  0.997
    eigenvectors:
  0.000  0.000  0.000  0.000  1.000
  0.338  0.320  0.003  0.338  0.000
  0.320  0.338  0.338  0.003  0.000
  0.286  0.056  0.520  0.139  0.000
  0.056  0.286  0.139  0.520  0.000
    occupations:
  0.997  0.000  0.000  0.000  0.000
  0.000  0.686  0.000 -0.083  0.206
  0.000  0.000  0.686  0.206  0.083
  0.000 -0.083  0.206  0.835  0.000
  0.000  0.206  0.083  0.000  0.835
atom    2   Tr[ns(na)] =   8.06055
    eigenvalues: 
  0.521  0.521  0.995  0.995  0.998
    eigenvectors:
  0.000  0.000  0.000  0.000  1.000
  0.640  0.019  0.221  0.120  0.000
  0.019  0.640  0.120  0.221  0.000
  0.015  0.326  0.475  0.184  0.000
  0.326  0.015  0.184  0.475  0.000
    occupations:
  0.998  0.000  0.000  0.000  0.000
  0.000  0.683  0.000  0.083  0.209
  0.000  0.000  0.683  0.209 -0.083
  0.000  0.083  0.209  0.833  0.000
  0.000  0.209 -0.083  0.000  0.833
atom    3   Tr[ns(na)] =   3.79693
    eigenvalues: 
  0.357  0.357  0.381  0.402  0.402
    eigenvectors:
  0.000  0.000  1.000  0.000  0.000
  0.784  0.138  0.000  0.011  0.066
  0.138  0.784  0.000  0.066  0.011
  0.012  0.066  0.000  0.782  0.141
  0.066  0.012  0.000  0.141  0.782
    occupations:
  0.381  0.000  0.000  0.000  0.000
  0.000  0.360  0.000  0.000  0.012
  0.000  0.000  0.360  0.012  0.000
  0.000  0.000  0.012  0.398  0.000
  0.000  0.012  0.000  0.000  0.398
atom    4   Tr[ns(na)] =   3.79693
    eigenvalues: 
  0.357  0.357  0.381  0.402  0.402
    eigenvectors:
  0.000  0.000  1.000  0.000  0.000
  0.784  0.138  0.000  0.011  0.066
  0.138  0.784  0.000  0.066  0.011
  0.012  0.066  0.000  0.782  0.140
  0.066  0.012  0.000  0.140  0.782
    occupations:
  0.381  0.000  0.000  0.000  0.000
  0.000  0.360  0.000  0.000  0.012
  0.000  0.000  0.360  0.012  0.000
  0.000  0.000  0.012  0.398  0.000
  0.000  0.012  0.000  0.000  0.398
atom    5   Tr[ns(na)] =   5.42781
    eigenvalues: 
  0.837  0.930  0.947
    eigenvectors:
  0.337  0.000  0.663
  0.496  0.250  0.253
  0.167  0.750  0.084
    occupations:
  0.910  0.045  0.026
  0.045  0.888 -0.024
  0.026 -0.024  0.916
atom    6   Tr[ns(na)] =   5.42781
    eigenvalues: 
  0.837  0.930  0.947
    eigenvectors:
  0.337  0.000  0.663
  0.000  1.000  0.000
  0.663  0.000  0.337
    occupations:
  0.910  0.000 -0.052
  0.000  0.930  0.000
 -0.052  0.000  0.874
atom    7   Tr[ns(na)] =   5.42781
    eigenvalues: 
  0.837  0.930  0.947
    eigenvectors:
  0.337  0.000  0.663
  0.498  0.250  0.252
  0.165  0.750  0.085
    occupations:
  0.910 -0.045  0.026
 -0.045  0.888  0.024
  0.026  0.024  0.916
atom    8   Tr[ns(na)] =   5.42781
    eigenvalues: 
  0.837  0.930  0.947
    eigenvectors:
  0.337  0.000  0.663
  0.000  1.000  0.000
  0.663  0.000  0.337
    occupations:
  0.910  0.000 -0.052
  0.000  0.930  0.000
 -0.052  0.000  0.874
atom    9   Tr[ns(na)] =   5.42781
    eigenvalues: 
  0.837  0.930  0.947
    eigenvectors:
  0.337  0.000  0.663
  0.496  0.250  0.253
  0.167  0.750  0.084
    occupations:
  0.910  0.045  0.026
  0.045  0.888 -0.024
  0.026 -0.024  0.916
atom   10   Tr[ns(na)] =   5.42781
    eigenvalues: 
  0.837  0.930  0.947
    eigenvectors:
  0.337  0.000  0.663
  0.498  0.250  0.252
  0.165  0.750  0.085
    occupations:
  0.910 -0.045  0.026
 -0.045  0.888  0.024
  0.026  0.024  0.916
N of occupied +U levels =  56.2991089
 --- exit write_ns ---
 --- in v_hubbard ---
Hubbard energy    0.3141
 -------

     total cpu time spent up to now is      120.2 secs

     total energy              =    -537.98195550 Ry
     Harris-Foulkes estimate   =    -537.98190338 Ry
     estimated scf accuracy    <       0.00039942 Ry

     iteration #  6     ecut=    30.00 Ry     beta=0.20
     Davidson diagonalization with overlap
     ethr =  5.26E-07,  avg # of iterations =  2.1
 --- enter write_ns ---
 LDA+U parameters:
U( 1)     =  5.00000000
alpha( 1) = -0.10000000
U( 2)     =  5.00000000
alpha( 2) =  0.00000000
U( 3)     =  0.00000000
alpha( 3) =  0.00000000
U( 4)     =  0.00000000
alpha( 4) =  0.00000000
atom    1   Tr[ns(na)] =   8.06649
    eigenvalues: 
  0.523  0.523  0.995  0.995  0.998
    eigenvectors:
  0.000  0.000  0.000  0.000  1.000
  0.338  0.320  0.003  0.339  0.000
  0.320  0.338  0.339  0.003  0.000
  0.286  0.055  0.519  0.139  0.000
  0.055  0.286  0.139  0.519  0.000
    occupations:
  0.998  0.000  0.000  0.000  0.000
  0.000  0.684  0.000 -0.084  0.207
  0.000  0.000  0.684  0.207  0.084
  0.000 -0.084  0.207  0.834  0.000
  0.000  0.207  0.084  0.000  0.834
atom    2   Tr[ns(na)] =   8.05017
    eigenvalues: 
  0.518  0.518  0.995  0.995  0.998
    eigenvectors:
  0.000  0.000  0.000  0.000  1.000
  0.641  0.018  0.222  0.120  0.000
  0.018  0.641  0.120  0.222  0.000
  0.016  0.326  0.475  0.184  0.000
  0.326  0.016  0.184  0.475  0.000
    occupations:
  0.998  0.000  0.000  0.000  0.000
  0.000  0.681  0.000  0.084  0.210
  0.000  0.000  0.681  0.210 -0.084
  0.000  0.084  0.210  0.832  0.000
  0.000  0.210 -0.084  0.000  0.832
atom    3   Tr[ns(na)] =   3.79534
    eigenvalues: 
  0.356  0.356  0.381  0.402  0.402
    eigenvectors:
  0.000  0.000  1.000  0.000  0.000
  0.784  0.138  0.000  0.011  0.067
  0.138  0.784  0.000  0.067  0.011
  0.012  0.066  0.000  0.781  0.141
  0.066  0.012  0.000  0.141  0.781
    occupations:
  0.381  0.000  0.000  0.000  0.000
  0.000  0.360  0.000  0.000  0.012
  0.000  0.000  0.360  0.012  0.000
  0.000  0.000  0.012  0.398  0.000
  0.000  0.012  0.000  0.000  0.398
atom    4   Tr[ns(na)] =   3.79534
    eigenvalues: 
  0.356  0.356  0.381  0.402  0.402
    eigenvectors:
  0.000  0.000  1.000  0.000  0.000
  0.783  0.138  0.000  0.011  0.067
  0.138  0.783  0.000  0.067  0.011
  0.012  0.066  0.000  0.781  0.141
  0.066  0.012  0.000  0.141  0.781
    occupations:
  0.381  0.000  0.000  0.000  0.000
  0.000  0.360  0.000  0.000  0.012
  0.000  0.000  0.360  0.012  0.000
  0.000  0.000  0.012  0.398  0.000
  0.000  0.012  0.000  0.000  0.398
atom    5   Tr[ns(na)] =   5.43146
    eigenvalues: 
  0.838  0.930  0.948
    eigenvectors:
  0.337  0.000  0.663
  0.497  0.250  0.253
  0.167  0.750  0.084
    occupations:
  0.911  0.045  0.026
  0.045  0.889 -0.024
  0.026 -0.024  0.916
atom    6   Tr[ns(na)] =   5.43146
    eigenvalues: 
  0.838  0.930  0.948
    eigenvectors:
  0.337  0.000  0.663
  0.000  1.000  0.000
  0.663  0.000  0.337
    occupations:
  0.911  0.000 -0.052
  0.000  0.930  0.000
 -0.052  0.000  0.875
atom    7   Tr[ns(na)] =   5.43146
    eigenvalues: 
  0.838  0.930  0.948
    eigenvectors:
  0.337  0.000  0.663
  0.498  0.250  0.252
  0.165  0.750  0.085
    occupations:
  0.911 -0.045  0.026
 -0.045  0.889  0.024
  0.026  0.024  0.916
atom    8   Tr[ns(na)] =   5.43146
    eigenvalues: 
  0.838  0.930  0.948
    eigenvectors:
  0.337  0.000  0.663
  0.000  1.000  0.000
  0.663  0.000  0.337
    occupations:
  0.911  0.000 -0.052
  0.000  0.930  0.000
 -0.052  0.000  0.875
atom    9   Tr[ns(na)] =   5.43146
    eigenvalues: 
  0.838  0.930  0.948
    eigenvectors:
  0.337  0.000  0.663
  0.497  0.250  0.253
  0.167  0.750  0.084
    occupations:
  0.911  0.045  0.026
  0.045  0.889 -0.024
  0.026 -0.024  0.916
atom   10   Tr[ns(na)] =   5.43146
    eigenvalues: 
  0.838  0.930  0.948
    eigenvectors:
  0.337  0.000  0.663
  0.498  0.250  0.252
  0.165  0.750  0.085
    occupations:
  0.911 -0.045  0.026
 -0.045  0.889  0.024
  0.026  0.024  0.916
N of occupied +U levels =  56.2960814
 --- exit write_ns ---
 --- in v_hubbard ---
Hubbard energy    0.3146
 -------

     total cpu time spent up to now is      136.3 secs

     total energy              =    -537.98206655 Ry
     Harris-Foulkes estimate   =    -537.98200949 Ry
     estimated scf accuracy    <       0.00009537 Ry

     iteration #  7     ecut=    30.00 Ry     beta=0.20
     Davidson diagonalization with overlap
     ethr =  1.25E-07,  avg # of iterations =  2.0
 --- enter write_ns ---
 LDA+U parameters:
U( 1)     =  5.00000000
alpha( 1) = -0.10000000
U( 2)     =  5.00000000
alpha( 2) =  0.00000000
U( 3)     =  0.00000000
alpha( 3) =  0.00000000
U( 4)     =  0.00000000
alpha( 4) =  0.00000000
atom    1   Tr[ns(na)] =   8.06010
    eigenvalues: 
  0.521  0.521  0.995  0.995  0.998
    eigenvectors:
  0.000  0.000  0.000  0.000  1.000
  0.338  0.320  0.003  0.339  0.000
  0.320  0.338  0.339  0.003  0.000
  0.287  0.055  0.519  0.139  0.000
  0.055  0.287  0.139  0.519  0.000
    occupations:
  0.998  0.000  0.000  0.000  0.000
  0.000  0.683  0.000 -0.085  0.208
  0.000  0.000  0.683  0.208  0.085
  0.000 -0.085  0.208  0.833  0.000
  0.000  0.208  0.085  0.000  0.833
atom    2   Tr[ns(na)] =   8.04554
    eigenvalues: 
  0.517  0.517  0.995  0.995  0.998
    eigenvectors:
  0.000  0.000  0.000  0.000  1.000
  0.641  0.018  0.223  0.119  0.000
  0.018  0.641  0.119  0.223  0.000
  0.016  0.326  0.474  0.184  0.000
  0.326  0.016  0.184  0.474  0.000
    occupations:
  0.998  0.000  0.000  0.000  0.000
  0.000  0.680  0.000  0.085  0.210
  0.000  0.000  0.680  0.210 -0.085
  0.000  0.085  0.210  0.832  0.000
  0.000  0.210 -0.085  0.000  0.832
atom    3   Tr[ns(na)] =   3.79023
    eigenvalues: 
  0.356  0.356  0.381  0.401  0.401
    eigenvectors:
  0.000  0.000  1.000  0.000  0.000
  0.782  0.139  0.000  0.012  0.068
  0.139  0.782  0.000  0.068  0.012
  0.012  0.067  0.000  0.780  0.141
  0.067  0.012  0.000  0.141  0.780
    occupations:
  0.381  0.000  0.000  0.000  0.000
  0.000  0.359  0.000  0.000  0.012
  0.000  0.000  0.359  0.012  0.000
  0.000  0.000  0.012  0.398  0.000
  0.000  0.012  0.000  0.000  0.398
atom    4   Tr[ns(na)] =   3.79023
    eigenvalues: 
  0.356  0.356  0.381  0.401  0.401
    eigenvectors:
  0.000  0.000  1.000  0.000  0.000
  0.782  0.139  0.000  0.012  0.067
  0.139  0.782  0.000  0.067  0.012
  0.012  0.067  0.000  0.780  0.141
  0.067  0.012  0.000  0.141  0.780
    occupations:
  0.381  0.000  0.000  0.000  0.000
  0.000  0.359  0.000  0.000  0.012
  0.000  0.000  0.359  0.012  0.000
  0.000  0.000  0.012  0.398  0.000
  0.000  0.012  0.000  0.000  0.398
atom    5   Tr[ns(na)] =   5.43418
    eigenvalues: 
  0.839  0.930  0.948
    eigenvectors:
  0.337  0.000  0.663
  0.497  0.250  0.253
  0.166  0.750  0.084
    occupations:
  0.911  0.045  0.026
  0.045  0.889 -0.024
  0.026 -0.024  0.917
atom    6   Tr[ns(na)] =   5.43418
    eigenvalues: 
  0.839  0.930  0.948
    eigenvectors:
  0.337  0.000  0.663
  0.000  1.000  0.000
  0.663  0.000  0.337
    occupations:
  0.911  0.000 -0.052
  0.000  0.930  0.000
 -0.052  0.000  0.876
atom    7   Tr[ns(na)] =   5.43418
    eigenvalues: 
  0.839  0.930  0.948
    eigenvectors:
  0.337  0.000  0.663
  0.498  0.250  0.252
  0.165  0.750  0.085
    occupations:
  0.911 -0.045  0.026
 -0.045  0.889  0.024
  0.026  0.024  0.917
atom    8   Tr[ns(na)] =   5.43418
    eigenvalues: 
  0.839  0.930  0.948
    eigenvectors:
  0.337  0.000  0.663
  0.000  1.000  0.000
  0.663  0.000  0.337
    occupations:
  0.911  0.000 -0.052
  0.000  0.930  0.000
 -0.052  0.000  0.876
atom    9   Tr[ns(na)] =   5.43418
    eigenvalues: 
  0.839  0.930  0.948
    eigenvectors:
  0.337  0.000  0.663
  0.497  0.250  0.253
  0.166  0.750  0.084
    occupations:
  0.911  0.045  0.026
  0.045  0.889 -0.024
  0.026 -0.024  0.917
atom   10   Tr[ns(na)] =   5.43418
    eigenvalues: 
  0.839  0.930  0.948
    eigenvectors:
  0.337  0.000  0.663
  0.498  0.250  0.252
  0.165  0.750  0.085
    occupations:
  0.911 -0.045  0.026
 -0.045  0.889  0.024
  0.026  0.024  0.917
N of occupied +U levels =  56.2911764
 --- exit write_ns ---
 --- in v_hubbard ---
Hubbard energy    0.3158
 -------

     total cpu time spent up to now is      154.8 secs

     total energy              =    -537.98215462 Ry
     Harris-Foulkes estimate   =    -537.98209220 Ry
     estimated scf accuracy    <       0.00008988 Ry

     iteration #  8     ecut=    30.00 Ry     beta=0.20
     Davidson diagonalization with overlap
     ethr =  1.18E-07,  avg # of iterations =  1.0
 --- enter write_ns ---
 LDA+U parameters:
U( 1)     =  5.00000000
alpha( 1) = -0.10000000
U( 2)     =  5.00000000
alpha( 2) =  0.00000000
U( 3)     =  0.00000000
alpha( 3) =  0.00000000
U( 4)     =  0.00000000
alpha( 4) =  0.00000000
atom    1   Tr[ns(na)] =   8.06346
    eigenvalues: 
  0.522  0.522  0.995  0.995  0.998
    eigenvectors:
  0.000  0.000  0.000  0.000  1.000
  0.338  0.320  0.003  0.339  0.000
  0.320  0.338  0.339  0.003  0.000
  0.287  0.055  0.519  0.139  0.000
  0.055  0.287  0.139  0.519  0.000
    occupations:
  0.998  0.000  0.000  0.000  0.000
  0.000  0.684  0.000 -0.084  0.208
  0.000  0.000  0.684  0.208  0.084
  0.000 -0.084  0.208  0.833  0.000
  0.000  0.208  0.084  0.000  0.833
atom    2   Tr[ns(na)] =   8.04687
    eigenvalues: 
  0.517  0.517  0.995  0.995  0.998
    eigenvectors:
  0.000  0.000  0.000  0.000  1.000
  0.641  0.017  0.223  0.119  0.000
  0.017  0.641  0.119  0.223  0.000
  0.016  0.326  0.474  0.184  0.000
  0.326  0.016  0.184  0.474  0.000
    occupations:
  0.998  0.000  0.000  0.000  0.000
  0.000  0.681  0.000  0.085  0.210
  0.000  0.000  0.681  0.210 -0.085
  0.000  0.085  0.210  0.832  0.000
  0.000  0.210 -0.085  0.000  0.832
atom    3   Tr[ns(na)] =   3.79173
    eigenvalues: 
  0.356  0.356  0.381  0.401  0.401
    eigenvectors:
  0.000  0.000  1.000  0.000  0.000
  0.782  0.139  0.000  0.012  0.067
  0.139  0.782  0.000  0.067  0.012
  0.012  0.066  0.000  0.780  0.141
  0.066  0.012  0.000  0.141  0.780
    occupations:
  0.381  0.000  0.000  0.000  0.000
  0.000  0.360  0.000  0.000  0.012
  0.000  0.000  0.360  0.012  0.000
  0.000  0.000  0.012  0.398  0.000
  0.000  0.012  0.000  0.000  0.398
atom    4   Tr[ns(na)] =   3.79173
    eigenvalues: 
  0.356  0.356  0.381  0.401  0.401
    eigenvectors:
  0.000  0.000  1.000  0.000  0.000
  0.783  0.139  0.000  0.012  0.067
  0.139  0.783  0.000  0.067  0.012
  0.012  0.066  0.000  0.780  0.141
  0.066  0.012  0.000  0.141  0.780
    occupations:
  0.381  0.000  0.000  0.000  0.000
  0.000  0.360  0.000  0.000  0.012
  0.000  0.000  0.360  0.012  0.000
  0.000  0.000  0.012  0.398  0.000
  0.000  0.012  0.000  0.000  0.398
atom    5   Tr[ns(na)] =   5.43312
    eigenvalues: 
  0.838  0.930  0.948
    eigenvectors:
  0.337  0.000  0.663
  0.496  0.250  0.253
  0.167  0.750  0.084
    occupations:
  0.911  0.045  0.026
  0.045  0.889 -0.024
  0.026 -0.024  0.916
atom    6   Tr[ns(na)] =   5.43312
    eigenvalues: 
  0.838  0.930  0.948
    eigenvectors:
  0.337  0.000  0.663
  0.000  1.000  0.000
  0.663  0.000  0.337
    occupations:
  0.911  0.000 -0.052
  0.000  0.930  0.000
 -0.052  0.000  0.875
atom    7   Tr[ns(na)] =   5.43312
    eigenvalues: 
  0.838  0.930  0.948
    eigenvectors:
  0.337  0.000  0.663
  0.498  0.250  0.252
  0.165  0.750  0.085
    occupations:
  0.911 -0.045  0.026
 -0.045  0.889  0.024
  0.026  0.024  0.917
atom    8   Tr[ns(na)] =   5.43312
    eigenvalues: 
  0.838  0.930  0.948
    eigenvectors:
  0.337  0.000  0.663
  0.000  1.000  0.000
  0.663  0.000  0.337
    occupations:
  0.911  0.000 -0.052
  0.000  0.930  0.000
 -0.052  0.000  0.875
atom    9   Tr[ns(na)] =   5.43312
    eigenvalues: 
  0.838  0.930  0.948
    eigenvectors:
  0.337  0.000  0.663
  0.496  0.250  0.253
  0.167  0.750  0.084
    occupations:
  0.911  0.045  0.026
  0.045  0.889 -0.024
  0.026 -0.024  0.916
atom   10   Tr[ns(na)] =   5.43312
    eigenvalues: 
  0.838  0.930  0.948
    eigenvectors:
  0.337  0.000  0.663
  0.498  0.250  0.252
  0.165  0.750  0.085
    occupations:
  0.911 -0.045  0.026
 -0.045  0.889  0.024
  0.026  0.024  0.917
N of occupied +U levels =  56.2925334
 --- exit write_ns ---
 --- in v_hubbard ---
Hubbard energy    0.3160
 -------

     total cpu time spent up to now is      170.3 secs

     total energy              =    -537.98219298 Ry
     Harris-Foulkes estimate   =    -537.98215836 Ry
     estimated scf accuracy    <       0.00002473 Ry

     iteration #  9     ecut=    30.00 Ry     beta=0.20
     Davidson diagonalization with overlap
     ethr =  3.25E-08,  avg # of iterations =  2.0
 --- enter write_ns ---
 LDA+U parameters:
U( 1)     =  5.00000000
alpha( 1) = -0.10000000
U( 2)     =  5.00000000
alpha( 2) =  0.00000000
U( 3)     =  0.00000000
alpha( 3) =  0.00000000
U( 4)     =  0.00000000
alpha( 4) =  0.00000000
atom    1   Tr[ns(na)] =   8.06542
    eigenvalues: 
  0.523  0.523  0.995  0.995  0.998
    eigenvectors:
  0.000  0.000  0.000  0.000  1.000
  0.338  0.320  0.003  0.339  0.000
  0.320  0.338  0.339  0.003  0.000
  0.287  0.055  0.520  0.139  0.000
  0.055  0.287  0.139  0.520  0.000
    occupations:
  0.998  0.000  0.000  0.000  0.000
  0.000  0.684  0.000 -0.085  0.207
  0.000  0.000  0.684  0.207  0.085
  0.000 -0.085  0.207  0.833  0.000
  0.000  0.207  0.085  0.000  0.833
atom    2   Tr[ns(na)] =   8.04939
    eigenvalues: 
  0.518  0.518  0.995  0.995  0.998
    eigenvectors:
  0.000  0.000  0.000  0.000  1.000
  0.641  0.017  0.223  0.119  0.000
  0.017  0.641  0.119  0.223  0.000
  0.017  0.325  0.474  0.184  0.000
  0.325  0.017  0.184  0.474  0.000
    occupations:
  0.998  0.000  0.000  0.000  0.000
  0.000  0.681  0.000  0.085  0.210
  0.000  0.000  0.681  0.210 -0.085
  0.000  0.085  0.210  0.832  0.000
  0.000  0.210 -0.085  0.000  0.832
atom    3   Tr[ns(na)] =   3.79308
    eigenvalues: 
  0.356  0.356  0.381  0.402  0.402
    eigenvectors:
  0.000  0.000  1.000  0.000  0.000
  0.782  0.139  0.000  0.012  0.067
  0.139  0.782  0.000  0.067  0.012
  0.012  0.067  0.000  0.780  0.141
  0.067  0.012  0.000  0.141  0.780
    occupations:
  0.381  0.000  0.000  0.000  0.000
  0.000  0.360  0.000  0.000  0.012
  0.000  0.000  0.360  0.012  0.000
  0.000  0.000  0.012  0.398  0.000
  0.000  0.012  0.000  0.000  0.398
atom    4   Tr[ns(na)] =   3.79308
    eigenvalues: 
  0.356  0.356  0.381  0.402  0.402
    eigenvectors:
  0.000  0.000  1.000  0.000  0.000
  0.782  0.139  0.000  0.012  0.067
  0.139  0.782  0.000  0.067  0.012
  0.012  0.067  0.000  0.780  0.141
  0.067  0.012  0.000  0.141  0.780
    occupations:
  0.381  0.000  0.000  0.000  0.000
  0.000  0.360  0.000  0.000  0.012
  0.000  0.000  0.360  0.012  0.000
  0.000  0.000  0.012  0.398  0.000
  0.000  0.012  0.000  0.000  0.398
atom    5   Tr[ns(na)] =   5.43206
    eigenvalues: 
  0.838  0.930  0.948
    eigenvectors:
  0.337  0.000  0.663
  0.496  0.250  0.253
  0.167  0.750  0.084
    occupations:
  0.911  0.045  0.026
  0.045  0.889 -0.024
  0.026 -0.024  0.916
atom    6   Tr[ns(na)] =   5.43206
    eigenvalues: 
  0.838  0.930  0.948
    eigenvectors:
  0.337  0.000  0.663
  0.000  1.000  0.000
  0.663  0.000  0.337
    occupations:
  0.911  0.000 -0.052
  0.000  0.930  0.000
 -0.052  0.000  0.875
atom    7   Tr[ns(na)] =   5.43206
    eigenvalues: 
  0.838  0.930  0.948
    eigenvectors:
  0.337  0.000  0.663
  0.498  0.250  0.252
  0.165  0.750  0.085
    occupations:
  0.911 -0.045  0.026
 -0.045  0.889  0.024
  0.026  0.024  0.916
atom    8   Tr[ns(na)] =   5.43206
    eigenvalues: 
  0.838  0.930  0.948
    eigenvectors:
  0.337  0.000  0.663
  0.000  1.000  0.000
  0.663  0.000  0.337
    occupations:
  0.911  0.000 -0.052
  0.000  0.930  0.000
 -0.052  0.000  0.875
atom    9   Tr[ns(na)] =   5.43206
    eigenvalues: 
  0.838  0.930  0.948
    eigenvectors:
  0.337  0.000  0.663
  0.496  0.250  0.253
  0.167  0.750  0.084
    occupations:
  0.911  0.045  0.026
  0.045  0.889 -0.024
  0.026 -0.024  0.916
atom   10   Tr[ns(na)] =   5.43206
    eigenvalues: 
  0.838  0.930  0.948
    eigenvectors:
  0.337  0.000  0.663
  0.498  0.250  0.252
  0.165  0.750  0.085
    occupations:
  0.911 -0.045  0.026
 -0.045  0.889  0.024
  0.026  0.024  0.916
N of occupied +U levels =  56.2933123
 --- exit write_ns ---
 --- in v_hubbard ---
Hubbard energy    0.3164
 -------

     total cpu time spent up to now is      184.4 secs

     total energy              =    -537.98222482 Ry
     Harris-Foulkes estimate   =    -537.98219633 Ry
     estimated scf accuracy    <       0.00000241 Ry

     iteration # 10     ecut=    30.00 Ry     beta=0.20
     Davidson diagonalization with overlap
     ethr =  3.17E-09,  avg # of iterations =  2.1
 --- enter write_ns ---
 LDA+U parameters:
U( 1)     =  5.00000000
alpha( 1) = -0.10000000
U( 2)     =  5.00000000
alpha( 2) =  0.00000000
U( 3)     =  0.00000000
alpha( 3) =  0.00000000
U( 4)     =  0.00000000
alpha( 4) =  0.00000000
atom    1   Tr[ns(na)] =   8.06602
    eigenvalues: 
  0.523  0.523  0.995  0.995  0.998
    eigenvectors:
  0.000  0.000  0.000  0.000  1.000
  0.338  0.320  0.003  0.339  0.000
  0.320  0.338  0.339  0.003  0.000
  0.287  0.055  0.519  0.139  0.000
  0.055  0.287  0.139  0.519  0.000
    occupations:
  0.998  0.000  0.000  0.000  0.000
  0.000  0.684  0.000 -0.085  0.207
  0.000  0.000  0.684  0.207  0.085
  0.000 -0.085  0.207  0.833  0.000
  0.000  0.207  0.085  0.000  0.833
atom    2   Tr[ns(na)] =   8.04970
    eigenvalues: 
  0.518  0.518  0.995  0.995  0.998
    eigenvectors:
  0.000  0.000  0.000  0.000  1.000
  0.641  0.017  0.223  0.118  0.000
  0.017  0.641  0.118  0.223  0.000
  0.017  0.325  0.474  0.184  0.000
  0.325  0.017  0.184  0.474  0.000
    occupations:
  0.998  0.000  0.000  0.000  0.000
  0.000  0.681  0.000  0.085  0.210
  0.000  0.000  0.681  0.210 -0.085
  0.000  0.085  0.210  0.832  0.000
  0.000  0.210 -0.085  0.000  0.832
atom    3   Tr[ns(na)] =   3.79243
    eigenvalues: 
  0.356  0.356  0.381  0.402  0.402
    eigenvectors:
  0.000  0.000  1.000  0.000  0.000
  0.782  0.139  0.000  0.012  0.067
  0.139  0.782  0.000  0.067  0.012
  0.012  0.067  0.000  0.780  0.141
  0.067  0.012  0.000  0.141  0.780
    occupations:
  0.381  0.000  0.000  0.000  0.000
  0.000  0.360  0.000  0.000  0.012
  0.000  0.000  0.360  0.012  0.000
  0.000  0.000  0.012  0.398  0.000
  0.000  0.012  0.000  0.000  0.398
atom    4   Tr[ns(na)] =   3.79243
    eigenvalues: 
  0.356  0.356  0.381  0.402  0.402
    eigenvectors:
  0.000  0.000  1.000  0.000  0.000
  0.782  0.139  0.000  0.012  0.067
  0.139  0.782  0.000  0.067  0.012
  0.012  0.067  0.000  0.780  0.141
  0.067  0.012  0.000  0.141  0.780
    occupations:
  0.381  0.000  0.000  0.000  0.000
  0.000  0.360  0.000  0.000  0.012
  0.000  0.000  0.360  0.012  0.000
  0.000  0.000  0.012  0.398  0.000
  0.000  0.012  0.000  0.000  0.398
atom    5   Tr[ns(na)] =   5.43205
    eigenvalues: 
  0.838  0.930  0.948
    eigenvectors:
  0.337  0.000  0.663
  0.496  0.250  0.253
  0.167  0.750  0.084
    occupations:
  0.911  0.045  0.026
  0.045  0.889 -0.024
  0.026 -0.024  0.916
atom    6   Tr[ns(na)] =   5.43205
    eigenvalues: 
  0.838  0.930  0.948
    eigenvectors:
  0.337  0.000  0.663
  0.000  1.000  0.000
  0.663  0.000  0.337
    occupations:
  0.911  0.000 -0.052
  0.000  0.930  0.000
 -0.052  0.000  0.875
atom    7   Tr[ns(na)] =   5.43205
    eigenvalues: 
  0.838  0.930  0.948
    eigenvectors:
  0.337  0.000  0.663
  0.498  0.250  0.252
  0.165  0.750  0.085
    occupations:
  0.911 -0.045  0.026
 -0.045  0.889  0.024
  0.026  0.024  0.916
atom    8   Tr[ns(na)] =   5.43205
    eigenvalues: 
  0.838  0.930  0.948
    eigenvectors:
  0.337  0.000  0.663
  0.000  1.000  0.000
  0.663  0.000  0.337
    occupations:
  0.911  0.000 -0.052
  0.000  0.930  0.000
 -0.052  0.000  0.875
atom    9   Tr[ns(na)] =   5.43205
    eigenvalues: 
  0.838  0.930  0.948
    eigenvectors:
  0.337  0.000  0.663
  0.496  0.250  0.253
  0.167  0.750  0.084
    occupations:
  0.911  0.045  0.026
  0.045  0.889 -0.024
  0.026 -0.024  0.916
atom   10   Tr[ns(na)] =   5.43205
    eigenvalues: 
  0.838  0.930  0.948
    eigenvectors:
  0.337  0.000  0.663
  0.498  0.250  0.252
  0.165  0.750  0.085
    occupations:
  0.911 -0.045  0.026
 -0.045  0.889  0.024
  0.026  0.024  0.916
N of occupied +U levels =  56.2928955
 --- exit write_ns ---
 --- in v_hubbard ---
Hubbard energy    0.3165
 -------

     total cpu time spent up to now is      200.2 secs

     total energy              =    -537.98224218 Ry
     Harris-Foulkes estimate   =    -537.98222537 Ry
     estimated scf accuracy    <       0.00000276 Ry

     iteration # 11     ecut=    30.00 Ry     beta=0.20
     Davidson diagonalization with overlap
     ethr =  3.17E-09,  avg # of iterations =  1.2
 --- enter write_ns ---
 LDA+U parameters:
U( 1)     =  5.00000000
alpha( 1) = -0.10000000
U( 2)     =  5.00000000
alpha( 2) =  0.00000000
U( 3)     =  0.00000000
alpha( 3) =  0.00000000
U( 4)     =  0.00000000
alpha( 4) =  0.00000000
atom    1   Tr[ns(na)] =   8.06465
    eigenvalues: 
  0.522  0.522  0.995  0.995  0.998
    eigenvectors:
  0.000  0.000  0.000  0.000  1.000
  0.339  0.320  0.003  0.339  0.000
  0.320  0.339  0.339  0.003  0.000
  0.287  0.055  0.520  0.138  0.000
  0.055  0.287  0.138  0.520  0.000
    occupations:
  0.998  0.000  0.000  0.000  0.000
  0.000  0.684  0.000 -0.085  0.207
  0.000  0.000  0.684  0.207  0.085
  0.000 -0.085  0.207  0.833  0.000
  0.000  0.207  0.085  0.000  0.833
atom    2   Tr[ns(na)] =   8.04863
    eigenvalues: 
  0.518  0.518  0.995  0.995  0.998
    eigenvectors:
  0.000  0.000  0.000  0.000  1.000
  0.642  0.017  0.223  0.118  0.000
  0.017  0.642  0.118  0.223  0.000
  0.017  0.325  0.474  0.184  0.000
  0.325  0.017  0.184  0.474  0.000
    occupations:
  0.998  0.000  0.000  0.000  0.000
  0.000  0.681  0.000  0.085  0.210
  0.000  0.000  0.681  0.210 -0.085
  0.000  0.085  0.210  0.832  0.000
  0.000  0.210 -0.085  0.000  0.832
atom    3   Tr[ns(na)] =   3.79254
    eigenvalues: 
  0.356  0.356  0.381  0.402  0.402
    eigenvectors:
  0.000  0.000  1.000  0.000  0.000
  0.782  0.139  0.000  0.012  0.067
  0.139  0.782  0.000  0.067  0.012
  0.012  0.067  0.000  0.780  0.141
  0.067  0.012  0.000  0.141  0.780
    occupations:
  0.381  0.000  0.000  0.000  0.000
  0.000  0.360  0.000  0.000  0.012
  0.000  0.000  0.360  0.012  0.000
  0.000  0.000  0.012  0.398  0.000
  0.000  0.012  0.000  0.000  0.398
atom    4   Tr[ns(na)] =   3.79254
    eigenvalues: 
  0.356  0.356  0.381  0.402  0.402
    eigenvectors:
  0.000  0.000  1.000  0.000  0.000
  0.782  0.139  0.000  0.012  0.067
  0.139  0.782  0.000  0.067  0.012
  0.012  0.067  0.000  0.780  0.141
  0.067  0.012  0.000  0.141  0.780
    occupations:
  0.381  0.000  0.000  0.000  0.000
  0.000  0.360  0.000  0.000  0.012
  0.000  0.000  0.360  0.012  0.000
  0.000  0.000  0.012  0.398  0.000
  0.000  0.012  0.000  0.000  0.398
atom    5   Tr[ns(na)] =   5.43239
    eigenvalues: 
  0.838  0.930  0.948
    eigenvectors:
  0.337  0.000  0.663
  0.496  0.250  0.253
  0.167  0.750  0.084
    occupations:
  0.911  0.045  0.026
  0.045  0.889 -0.024
  0.026 -0.024  0.916
atom    6   Tr[ns(na)] =   5.43239
    eigenvalues: 
  0.838  0.930  0.948
    eigenvectors:
  0.337  0.000  0.663
  0.000  1.000  0.000
  0.663  0.000  0.337
    occupations:
  0.911  0.000 -0.052
  0.000  0.930  0.000
 -0.052  0.000  0.875
atom    7   Tr[ns(na)] =   5.43239
    eigenvalues: 
  0.838  0.930  0.948
    eigenvectors:
  0.337  0.000  0.663
  0.498  0.250  0.252
  0.165  0.750  0.085
    occupations:
  0.911 -0.045  0.026
 -0.045  0.889  0.024
  0.026  0.024  0.916
atom    8   Tr[ns(na)] =   5.43239
    eigenvalues: 
  0.838  0.930  0.948
    eigenvectors:
  0.337  0.000  0.663
  0.000  1.000  0.000
  0.663  0.000  0.337
    occupations:
  0.911  0.000 -0.052
  0.000  0.930  0.000
 -0.052  0.000  0.875
atom    9   Tr[ns(na)] =   5.43239
    eigenvalues: 
  0.838  0.930  0.948
    eigenvectors:
  0.337  0.000  0.663
  0.496  0.250  0.253
  0.167  0.750  0.084
    occupations:
  0.911  0.045  0.026
  0.045  0.889 -0.024
  0.026 -0.024  0.916
atom   10   Tr[ns(na)] =   5.43239
    eigenvalues: 
  0.838  0.930  0.948
    eigenvectors:
  0.337  0.000  0.663
  0.498  0.250  0.252
  0.165  0.750  0.085
    occupations:
  0.911 -0.045  0.026
 -0.045  0.889  0.024
  0.026  0.024  0.916
N of occupied +U levels =  56.2927180
 --- exit write_ns ---
 --- in v_hubbard ---
Hubbard energy    0.3166
 -------

     total cpu time spent up to now is      214.3 secs

     total energy              =    -537.98225499 Ry
     Harris-Foulkes estimate   =    -537.98224264 Ry
     estimated scf accuracy    <       0.00000030 Ry

     iteration # 12     ecut=    30.00 Ry     beta=0.20
     Davidson diagonalization with overlap
     ethr =  3.95E-10,  avg # of iterations =  1.2
 --- enter write_ns ---
 LDA+U parameters:
U( 1)     =  5.00000000
alpha( 1) = -0.10000000
U( 2)     =  5.00000000
alpha( 2) =  0.00000000
U( 3)     =  0.00000000
alpha( 3) =  0.00000000
U( 4)     =  0.00000000
alpha( 4) =  0.00000000
atom    1   Tr[ns(na)] =   8.06500
    eigenvalues: 
  0.523  0.523  0.995  0.995  0.998
    eigenvectors:
  0.000  0.000  0.000  0.000  1.000
  0.339  0.319  0.003  0.339  0.000
  0.319  0.339  0.339  0.003  0.000
  0.287  0.055  0.520  0.138  0.000
  0.055  0.287  0.138  0.520  0.000
    occupations:
  0.998  0.000  0.000  0.000  0.000
  0.000  0.684  0.000 -0.085  0.207
  0.000  0.000  0.684  0.207  0.085
  0.000 -0.085  0.207  0.833  0.000
  0.000  0.207  0.085  0.000  0.833
atom    2   Tr[ns(na)] =   8.04903
    eigenvalues: 
  0.518  0.518  0.995  0.995  0.998
    eigenvectors:
  0.000  0.000  0.000  0.000  1.000
  0.641  0.017  0.224  0.118  0.000
  0.017  0.641  0.118  0.224  0.000
  0.017  0.325  0.474  0.184  0.000
  0.325  0.017  0.184  0.474  0.000
    occupations:
  0.998  0.000  0.000  0.000  0.000
  0.000  0.681  0.000  0.085  0.210
  0.000  0.000  0.681  0.210 -0.085
  0.000  0.085  0.210  0.832  0.000
  0.000  0.210 -0.085  0.000  0.832
atom    3   Tr[ns(na)] =   3.79258
    eigenvalues: 
  0.356  0.356  0.381  0.402  0.402
    eigenvectors:
  0.000  0.000  1.000  0.000  0.000
  0.782  0.139  0.000  0.012  0.067
  0.139  0.782  0.000  0.067  0.012
  0.012  0.066  0.000  0.780  0.141
  0.066  0.012  0.000  0.141  0.780
    occupations:
  0.381  0.000  0.000  0.000  0.000
  0.000  0.360  0.000  0.000  0.012
  0.000  0.000  0.360  0.012  0.000
  0.000  0.000  0.012  0.398  0.000
  0.000  0.012  0.000  0.000  0.398
atom    4   Tr[ns(na)] =   3.79258
    eigenvalues: 
  0.356  0.356  0.381  0.402  0.402
    eigenvectors:
  0.000  0.000  1.000  0.000  0.000
  0.782  0.139  0.000  0.012  0.067
  0.139  0.782  0.000  0.067  0.012
  0.012  0.067  0.000  0.780  0.141
  0.067  0.012  0.000  0.141  0.780
    occupations:
  0.381  0.000  0.000  0.000  0.000
  0.000  0.360  0.000  0.000  0.012
  0.000  0.000  0.360  0.012  0.000
  0.000  0.000  0.012  0.398  0.000
  0.000  0.012  0.000  0.000  0.398
atom    5   Tr[ns(na)] =   5.43227
    eigenvalues: 
  0.838  0.930  0.948
    eigenvectors:
  0.337  0.000  0.663
  0.496  0.250  0.253
  0.167  0.750  0.084
    occupations:
  0.911  0.045  0.026
  0.045  0.889 -0.024
  0.026 -0.024  0.916
atom    6   Tr[ns(na)] =   5.43227
    eigenvalues: 
  0.838  0.930  0.948
    eigenvectors:
  0.337  0.000  0.663
  0.000  1.000  0.000
  0.663  0.000  0.337
    occupations:
  0.911  0.000 -0.052
  0.000  0.930  0.000
 -0.052  0.000  0.875
atom    7   Tr[ns(na)] =   5.43227
    eigenvalues: 
  0.838  0.930  0.948
    eigenvectors:
  0.337  0.000  0.663
  0.498  0.250  0.252
  0.165  0.750  0.085
    occupations:
  0.911 -0.045  0.026
 -0.045  0.889  0.024
  0.026  0.024  0.916
atom    8   Tr[ns(na)] =   5.43227
    eigenvalues: 
  0.838  0.930  0.948
    eigenvectors:
  0.337  0.000  0.663
  0.000  1.000  0.000
  0.663  0.000  0.337
    occupations:
  0.911  0.000 -0.052
  0.000  0.930  0.000
 -0.052  0.000  0.875
atom    9   Tr[ns(na)] =   5.43227
    eigenvalues: 
  0.838  0.930  0.948
    eigenvectors:
  0.337  0.000  0.663
  0.496  0.250  0.253
  0.167  0.750  0.084
    occupations:
  0.911  0.045  0.026
  0.045  0.889 -0.024
  0.026 -0.024  0.916
atom   10   Tr[ns(na)] =   5.43227
    eigenvalues: 
  0.838  0.930  0.948
    eigenvectors:
  0.337  0.000  0.663
  0.498  0.250  0.252
  0.165  0.750  0.085
    occupations:
  0.911 -0.045  0.026
 -0.045  0.889  0.024
  0.026  0.024  0.916
N of occupied +U levels =  56.2928289
 --- exit write_ns ---
 --- in v_hubbard ---
Hubbard energy    0.3164
 -------

     total cpu time spent up to now is      227.7 secs

     total energy              =    -537.98226249 Ry
     Harris-Foulkes estimate   =    -537.98225505 Ry
     estimated scf accuracy    <       0.00000021 Ry

     iteration # 13     ecut=    30.00 Ry     beta=0.20
     Davidson diagonalization with overlap
     ethr =  2.71E-10,  avg # of iterations =  1.2
 --- enter write_ns ---
 LDA+U parameters:
U( 1)     =  5.00000000
alpha( 1) = -0.10000000
U( 2)     =  5.00000000
alpha( 2) =  0.00000000
U( 3)     =  0.00000000
alpha( 3) =  0.00000000
U( 4)     =  0.00000000
alpha( 4) =  0.00000000
atom    1   Tr[ns(na)] =   8.06482
    eigenvalues: 
  0.522  0.522  0.995  0.995  0.998
    eigenvectors:
  0.000  0.000  0.000  0.000  1.000
  0.339  0.319  0.003  0.339  0.000
  0.319  0.339  0.339  0.003  0.000
  0.287  0.055  0.520  0.138  0.000
  0.055  0.287  0.138  0.520  0.000
    occupations:
  0.998  0.000  0.000  0.000  0.000
  0.000  0.684  0.000 -0.085  0.207
  0.000  0.000  0.684  0.207  0.085
  0.000 -0.085  0.207  0.833  0.000
  0.000  0.207  0.085  0.000  0.833
atom    2   Tr[ns(na)] =   8.04887
    eigenvalues: 
  0.518  0.518  0.995  0.995  0.998
    eigenvectors:
  0.000  0.000  0.000  0.000  1.000
  0.642  0.017  0.224  0.118  0.000
  0.017  0.642  0.118  0.224  0.000
  0.017  0.325  0.474  0.184  0.000
  0.325  0.017  0.184  0.474  0.000
    occupations:
  0.998  0.000  0.000  0.000  0.000
  0.000  0.681  0.000  0.085  0.210
  0.000  0.000  0.681  0.210 -0.085
  0.000  0.085  0.210  0.832  0.000
  0.000  0.210 -0.085  0.000  0.832
atom    3   Tr[ns(na)] =   3.79268
    eigenvalues: 
  0.356  0.356  0.381  0.402  0.402
    eigenvectors:
  0.000  0.000  1.000  0.000  0.000
  0.782  0.139  0.000  0.012  0.067
  0.139  0.782  0.000  0.067  0.012
  0.012  0.066  0.000  0.780  0.141
  0.066  0.012  0.000  0.141  0.780
    occupations:
  0.381  0.000  0.000  0.000  0.000
  0.000  0.360  0.000  0.000  0.012
  0.000  0.000  0.360  0.012  0.000
  0.000  0.000  0.012  0.398  0.000
  0.000  0.012  0.000  0.000  0.398
atom    4   Tr[ns(na)] =   3.79268
    eigenvalues: 
  0.356  0.356  0.381  0.402  0.402
    eigenvectors:
  0.000  0.000  1.000  0.000  0.000
  0.783  0.138  0.000  0.012  0.067
  0.138  0.783  0.000  0.067  0.012
  0.012  0.067  0.000  0.780  0.141
  0.067  0.012  0.000  0.141  0.780
    occupations:
  0.381  0.000  0.000  0.000  0.000
  0.000  0.360  0.000  0.000  0.012
  0.000  0.000  0.360  0.012  0.000
  0.000  0.000  0.012  0.398  0.000
  0.000  0.012  0.000  0.000  0.398
atom    5   Tr[ns(na)] =   5.43230
    eigenvalues: 
  0.838  0.930  0.948
    eigenvectors:
  0.337  0.000  0.663
  0.496  0.250  0.253
  0.167  0.750  0.084
    occupations:
  0.911  0.045  0.026
  0.045  0.889 -0.024
  0.026 -0.024  0.916
atom    6   Tr[ns(na)] =   5.43230
    eigenvalues: 
  0.838  0.930  0.948
    eigenvectors:
  0.337  0.000  0.663
  0.000  1.000  0.000
  0.663  0.000  0.337
    occupations:
  0.911  0.000 -0.052
  0.000  0.930  0.000
 -0.052  0.000  0.875
atom    7   Tr[ns(na)] =   5.43230
    eigenvalues: 
  0.838  0.930  0.948
    eigenvectors:
  0.337  0.000  0.663
  0.498  0.250  0.252
  0.165  0.750  0.085
    occupations:
  0.911 -0.045  0.026
 -0.045  0.889  0.024
  0.026  0.024  0.916
atom    8   Tr[ns(na)] =   5.43230
    eigenvalues: 
  0.838  0.930  0.948
    eigenvectors:
  0.337  0.000  0.663
  0.000  1.000  0.000
  0.663  0.000  0.337
    occupations:
  0.911  0.000 -0.052
  0.000  0.930  0.000
 -0.052  0.000  0.875
atom    9   Tr[ns(na)] =   5.43230
    eigenvalues: 
  0.838  0.930  0.948
    eigenvectors:
  0.337  0.000  0.663
  0.496  0.250  0.253
  0.167  0.750  0.084
    occupations:
  0.911  0.045  0.026
  0.045  0.889 -0.024
  0.026 -0.024  0.916
atom   10   Tr[ns(na)] =   5.43230
    eigenvalues: 
  0.838  0.930  0.948
    eigenvectors:
  0.337  0.000  0.663
  0.498  0.250  0.252
  0.165  0.750  0.085
    occupations:
  0.911 -0.045  0.026
 -0.045  0.889  0.024
  0.026  0.024  0.916
N of occupied +U levels =  56.2928750
 --- exit write_ns ---
 --- in v_hubbard ---
Hubbard energy    0.3164
 -------

     total cpu time spent up to now is      240.7 secs

     End of self-consistent calculation

          k = 0.0000 0.0000 0.0000 (  2175 PWs)   bands (ev):

   -19.7982 -19.6250  -6.5545  -5.8838  -5.8838  -5.8290  -5.8290  -5.4898
    -3.8781  -3.2781  -3.2781  -3.2601  -3.0266  -3.0266   5.1727   6.4966
     6.4966   6.5527   6.7236   6.7236   7.5075   7.5075   7.7051   8.1843
     8.4331   8.4331   9.2900   9.6186   9.6186   9.9809   9.9809  10.1635
    10.4515  10.4515  10.6685  10.8292  10.8292  11.1603  11.8617  11.8617
    14.7164  14.7164  15.4268  15.4268  16.1986  16.7843

     occupation numbers 
     0.0313   0.0313   0.0313   0.0313   0.0313   0.0313   0.0313   0.0313
     0.0313   0.0313   0.0313   0.0313   0.0313   0.0313   0.0313   0.0313
     0.0313   0.0313   0.0313   0.0313   0.0313   0.0313   0.0313   0.0313
     0.0313   0.0313   0.0312   0.0312   0.0312   0.0312   0.0312   0.0312
     0.0312   0.0312   0.0312   0.0309   0.0309   0.0274   0.0032   0.0032
     0.0000   0.0000   0.0000   0.0000   0.0000   0.0000

          k =-0.2471-0.1427 0.1027 (  2181 PWs)   bands (ev):

   -19.7736 -19.6659  -6.7325  -6.3070  -5.9754  -5.8692  -5.6248  -5.4940
    -3.6553  -3.4226  -2.9525  -2.9142  -2.8766  -2.7718   5.5008   6.2207
     6.5371   6.5978   6.7162   6.7601   6.9196   7.4456   7.5651   7.6604
     7.8404   8.2011   9.4168   9.5572   9.6986   9.8865   9.9437  10.0169
    10.2356  10.3693  10.3945  10.8194  10.9337  10.9523  12.2656  12.3391
    14.2631  14.2740  15.8142  16.0677  16.9708  17.2646

     occupation numbers 
     0.1875   0.1875   0.1875   0.1875   0.1875   0.1875   0.1875   0.1875
     0.1875   0.1875   0.1875   0.1875   0.1875   0.1875   0.1875   0.1875
     0.1875   0.1875   0.1875   0.1875   0.1875   0.1875   0.1875   0.1875
     0.1875   0.1875   0.1875   0.1875   0.1875   0.1875   0.1875   0.1875
     0.1875   0.1875   0.1875   0.1857   0.1827   0.1819   0.0007   0.0003
     0.0000   0.0000   0.0000   0.0000   0.0000   0.0000

          k = 0.4942 0.2853-0.2053 (  2202 PWs)   bands (ev):

   -19.7285 -19.7276  -6.7313  -6.7204  -5.9846  -5.9756  -5.5398  -5.5316
    -3.4130  -3.4080  -2.8105  -2.8060  -2.5106  -2.5088   5.7816   5.8023
     6.6013   6.6381   6.8286   6.8694   7.0414   7.0685   7.2766   7.3149
     7.4291   7.4705   9.3545   9.3591   9.8034   9.8123  10.1537  10.1773
    10.1972  10.2131  10.4195  10.4405  10.7037  10.7273  13.2465  13.2902
    13.3299  13.3735  16.8295  16.8342  17.1263  17.1286

     occupation numbers 
     0.0938   0.0938   0.0938   0.0938   0.0938   0.0938   0.0938   0.0938
     0.0938   0.0938   0.0938   0.0938   0.0938   0.0938   0.0938   0.0938
     0.0938   0.0938   0.0938   0.0938   0.0938   0.0938   0.0938   0.0938
     0.0938   0.0938   0.0937   0.0937   0.0937   0.0937   0.0937   0.0937
     0.0937   0.0937   0.0937   0.0937   0.0935   0.0934   0.0000   0.0000
     0.0000   0.0000   0.0000   0.0000   0.0000   0.0000

          k =-0.2471 0.1427 0.2053 (  2195 PWs)   bands (ev):

   -19.7656 -19.6791  -6.8595  -6.2555  -6.0834  -5.8456  -5.6662  -5.4866
    -3.4550  -3.2788  -3.1247  -2.9150  -2.8452  -2.5641   5.5403   5.9294
     6.3599   6.6184   6.6800   7.0858   7.1021   7.3380   7.4415   7.7092
     7.8626   8.3918   8.7212   9.2819   9.7383   9.8358   9.9724   9.9878
    10.2474  10.5433  10.6482  10.7477  10.8391  10.8934  11.7949  12.6924
    13.5930  14.7350  15.9916  16.1938  17.0343  17.5359

     occupation numbers 
     0.1875   0.1875   0.1875   0.1875   0.1875   0.1875   0.1875   0.1875
     0.1875   0.1875   0.1875   0.1875   0.1875   0.1875   0.1875   0.1875
     0.1875   0.1875   0.1875   0.1875   0.1875   0.1875   0.1875   0.1875
     0.1875   0.1875   0.1875   0.1875   0.1875   0.1875   0.1875   0.1875
     0.1875   0.1874   0.1872   0.1866   0.1853   0.1840   0.0281   0.0000
     0.0000   0.0000   0.0000   0.0000   0.0000   0.0000

          k = 0.4942 0.5706-0.1027 (  2198 PWs)   bands (ev):

   -19.7377 -19.7230  -6.9624  -6.6532  -6.1397  -5.9027  -5.5269  -5.4037
    -3.3331  -3.2711  -2.8882  -2.7184  -2.5346  -2.3909   5.6202   5.9069
     6.0780   6.6419   6.7456   6.8226   6.8816   7.2068   7.3160   7.3764
     7.8604   8.1260   8.8231   9.1441   9.4689   9.7175   9.7405  10.0756
    10.2682  10.4328  10.4948  10.5866  10.7520  10.9251  12.2588  12.6973
    13.3873  14.3151  16.9021  17.1110  17.3038  18.0118

     occupation numbers 
     0.1875   0.1875   0.1875   0.1875   0.1875   0.1875   0.1875   0.1875
     0.1875   0.1875   0.1875   0.1875   0.1875   0.1875   0.1875   0.1875
     0.1875   0.1875   0.1875   0.1875   0.1875   0.1875   0.1875   0.1875
     0.1875   0.1875   0.1875   0.1875   0.1875   0.1875   0.1875   0.1875
     0.1875   0.1875   0.1875   0.1873   0.1866   0.1830   0.0008   0.0000
     0.0000   0.0000   0.0000   0.0000   0.0000   0.0000

          k = 0.2471 0.4280 0.0000 (  2203 PWs)   bands (ev):

   -19.7501 -19.7052  -6.8527  -6.6514  -6.0607  -5.9925  -5.4545  -5.3869
    -3.5677  -3.3076  -2.8097  -2.7135  -2.5831  -2.5726   5.7870   5.8160
     6.3771   6.5768   6.6998   6.7357   7.0638   7.1362   7.2651   7.4473
     7.4982   8.3691   8.8713   9.3008   9.6864   9.7212   9.9600  10.1885
    10.2873  10.2924  10.5046  10.5491  10.5661  11.0042  12.1671  13.2771
    13.3582  14.1096  16.4304  16.9913  17.4174  17.9226

     occupation numbers 
     0.1875   0.1875   0.1875   0.1875   0.1875   0.1875   0.1875   0.1875
     0.1875   0.1875   0.1875   0.1875   0.1875   0.1875   0.1875   0.1875
     0.1875   0.1875   0.1875   0.1875   0.1875   0.1875   0.1875   0.1875
     0.1875   0.1875   0.1875   0.1875   0.1875   0.1875   0.1875   0.1875
     0.1875   0.1875   0.1874   0.1874   0.1874   0.1792   0.0019   0.0000
     0.0000   0.0000   0.0000   0.0000   0.0000   0.0000

          k = 0.4942-0.2853-0.4107 (  2202 PWs)   bands (ev):

   -19.7328 -19.7324  -7.1751  -6.4569  -6.2427  -5.9841  -5.5373  -5.3155
    -3.2195  -3.1199  -3.0669  -2.6519  -2.4836  -2.2266   5.2912   5.7069
     5.9311   6.6385   6.7152   7.0970   7.1415   7.2510   7.3534   7.3652
     8.1603   8.2975   8.4281   8.5990   9.4090   9.6706  10.0252  10.0584
    10.2715  10.3176  10.4742  10.6530  10.7363  11.0461  11.7492  12.3653
    13.2899  14.7501  17.0421  17.2642  17.5165  17.6110

     occupation numbers 
     0.0938   0.0938   0.0938   0.0938   0.0938   0.0938   0.0938   0.0938
     0.0938   0.0938   0.0938   0.0938   0.0938   0.0938   0.0938   0.0938
     0.0938   0.0938   0.0938   0.0938   0.0938   0.0938   0.0938   0.0938
     0.0938   0.0938   0.0938   0.0938   0.0937   0.0937   0.0937   0.0937
     0.0937   0.0937   0.0937   0.0936   0.0934   0.0882   0.0178   0.0001
     0.0000   0.0000   0.0000   0.0000   0.0000   0.0000

          k = 0.0000 0.0000 0.3080 (  2187 PWs)   bands (ev):

   -19.7732 -19.6677  -6.6207  -5.9959  -5.9597  -5.9597  -5.8554  -5.8554
    -3.2348  -3.1590  -3.1590  -2.9783  -2.9044  -2.9044   5.5956   6.2458
     6.5431   6.5431   6.7826   6.7826   7.0255   7.4407   7.4407   7.9273
     7.9273   8.1173   9.4322   9.4470   9.4470   9.6835  10.0850  10.0850
    10.1650  10.1650  10.4922  10.8968  10.8968  10.8975  12.2372  12.2372
    14.2244  14.2244  15.9096  15.9096  16.8770  17.4783

     occupation numbers 
     0.0625   0.0625   0.0625   0.0625   0.0625   0.0625   0.0625   0.0625
     0.0625   0.0625   0.0625   0.0625   0.0625   0.0625   0.0625   0.0625
     0.0625   0.0625   0.0625   0.0625   0.0625   0.0625   0.0625   0.0625
     0.0625   0.0625   0.0625   0.0625   0.0625   0.0625   0.0625   0.0625
     0.0625   0.0625   0.0625   0.0613   0.0613   0.0613   0.0003   0.0003
     0.0000   0.0000   0.0000   0.0000   0.0000   0.0000

          k = 0.7412 0.4280 0.0000 (  2204 PWs)   bands (ev):

   -19.7493 -19.7076  -6.7382  -6.6162  -6.1519  -5.8432  -5.7104  -5.5627
    -3.2107  -3.1085  -3.0520  -2.6841  -2.6713  -2.5928   5.8170   5.9967
     6.2434   6.6797   6.7640   6.8201   6.9942   7.1213   7.3130   7.4030
     7.6509   8.2042   8.8502   9.4072   9.4381   9.6550   9.8138  10.1778
    10.2519  10.3701  10.5671  10.6152  10.6961  10.7041  12.1648  13.1973
    13.2738  14.1384  16.6826  16.7230  17.5879  17.7912

     occupation numbers 
     0.1875   0.1875   0.1875   0.1875   0.1875   0.1875   0.1875   0.1875
     0.1875   0.1875   0.1875   0.1875   0.1875   0.1875   0.1875   0.1875
     0.1875   0.1875   0.1875   0.1875   0.1875   0.1875   0.1875   0.1875
     0.1875   0.1875   0.1875   0.1875   0.1875   0.1875   0.1875   0.1875
     0.1875   0.1875   0.1874   0.1873   0.1870   0.1869   0.0019   0.0000
     0.0000   0.0000   0.0000   0.0000   0.0000   0.0000

          k = 0.4942 0.2853 0.1027 (  2211 PWs)   bands (ev):

   -19.7388 -19.7219  -6.9790  -6.5497  -6.3316  -5.7169  -5.6315  -5.3776
    -3.3480  -3.1747  -3.0538  -2.6071  -2.5712  -2.3829   5.6429   5.9582
     5.9825   6.5174   6.7890   6.9239   6.9867   7.1096   7.2664   7.3501
     7.9059   8.1688   8.8007   9.2963   9.3377   9.6083   9.9185   9.9309
    10.3388  10.4611  10.6072  10.6621  10.7075  10.7408  12.2143  12.7107
    13.4346  14.2966  16.8825  16.9320  17.5752  17.9239

     occupation numbers 
     0.1875   0.1875   0.1875   0.1875   0.1875   0.1875   0.1875   0.1875
     0.1875   0.1875   0.1875   0.1875   0.1875   0.1875   0.1875   0.1875
     0.1875   0.1875   0.1875   0.1875   0.1875   0.1875   0.1875   0.1875
     0.1875   0.1875   0.1875   0.1875   0.1875   0.1875   0.1875   0.1875
     0.1875   0.1875   0.1873   0.1871   0.1869   0.1867   0.0012   0.0000
     0.0000   0.0000   0.0000   0.0000   0.0000   0.0000

          k = 0.7412-0.4280-0.3080 (  2210 PWs)   bands (ev):

   -19.7384 -19.7238  -6.9158  -6.4608  -6.3098  -5.8032  -5.7779  -5.5087
    -3.0864  -3.0705  -2.9748  -2.7395  -2.6322  -2.4334   5.7263   5.9802
     6.1093   6.5256   6.7937   6.8146   7.0961   7.1350   7.2929   7.3955
     7.8846   8.1590   8.7243   9.2305   9.4050   9.4641   9.6289  10.0622
    10.2765  10.4393  10.5438  10.6449  10.7741  10.7870  12.1744  12.6644
    13.3835  14.2667  17.0569  17.0669  17.5433  17.8993

     occupation numbers 
     0.1875   0.1875   0.1875   0.1875   0.1875   0.1875   0.1875   0.1875
     0.1875   0.1875   0.1875   0.1875   0.1875   0.1875   0.1875   0.1875
     0.1875   0.1875   0.1875   0.1875   0.1875   0.1875   0.1875   0.1875
     0.1875   0.1875   0.1875   0.1875   0.1875   0.1875   0.1875   0.1875
     0.1875   0.1875   0.1874   0.1872   0.1863   0.1862   0.0018   0.0000
     0.0000   0.0000   0.0000   0.0000   0.0000   0.0000

          k = 0.4942-0.5706-0.2053 (  2206 PWs)   bands (ev):

   -19.7331 -19.7331  -6.8907  -6.8853  -6.0409  -6.0390  -5.4477  -5.4441
    -3.1650  -3.1646  -2.8273  -2.8268  -2.3878  -2.3855   5.8663   5.8913
     6.0311   6.0348   6.7953   6.7972   7.0240   7.0485   7.2997   7.3014
     8.3028   8.3031   8.7702   8.7721   9.4399   9.4418   9.9484   9.9543
    10.3175  10.3269  10.4740  10.4853  10.8270  10.8362  12.2209  12.2237
    13.9596  13.9721  17.4221  17.4224  17.8667  17.8690

     occupation numbers 
     0.1875   0.1875   0.1875   0.1875   0.1875   0.1875   0.1875   0.1875
     0.1875   0.1875   0.1875   0.1875   0.1875   0.1875   0.1875   0.1875
     0.1875   0.1875   0.1875   0.1875   0.1875   0.1875   0.1875   0.1875
     0.1875   0.1875   0.1875   0.1875   0.1875   0.1875   0.1875   0.1875
     0.1875   0.1875   0.1875   0.1875   0.1856   0.1854   0.0011   0.0011
     0.0000   0.0000   0.0000   0.0000   0.0000   0.0000

          k = 0.0000 0.0000-0.6160 (  2186 PWs)   bands (ev):

   -19.7301 -19.7291  -6.5206  -6.5067  -5.9615  -5.9615  -5.9539  -5.9539
    -2.9135  -2.9135  -2.9088  -2.9088  -2.7080  -2.7078   6.0142   6.0352
     6.7064   6.7064   6.7483   6.7483   7.0038   7.0304   7.4031   7.4031
     7.4429   7.4429   9.5341   9.5341   9.5419   9.5419   9.6095   9.6215
    10.4325  10.4587  10.5625  10.5625  10.5866  10.5866  13.1858  13.1858
    13.2280  13.2280  17.1138  17.1138  17.1151  17.1151

     occupation numbers 
     0.0313   0.0313   0.0313   0.0313   0.0313   0.0313   0.0313   0.0313
     0.0313   0.0313   0.0313   0.0313   0.0313   0.0313   0.0313   0.0313
     0.0313   0.0313   0.0313   0.0313   0.0313   0.0313   0.0313   0.0313
     0.0313   0.0313   0.0312   0.0312   0.0312   0.0312   0.0312   0.0312
     0.0312   0.0312   0.0312   0.0312   0.0312   0.0312   0.0000   0.0000
     0.0000   0.0000   0.0000   0.0000   0.0000   0.0000

          k = 0.4942-0.5706 0.1027 (  2198 PWs)   bands (ev):

   -19.7376 -19.7230  -6.9634  -6.6539  -6.1383  -5.8980  -5.5292  -5.4060
    -3.3344  -3.2709  -2.8876  -2.7169  -2.5353  -2.3910   5.6137   5.9218
     6.0701   6.6471   6.7407   6.7994   6.9128   7.2032   7.3140   7.3676
     7.8645   8.1300   8.8225   9.1428   9.4669   9.7169   9.7416  10.0740
    10.2730  10.4249  10.4967  10.5854  10.7633  10.9194  12.2588  12.6967
    13.3870  14.3150  16.9038  17.1082  17.3044  18.0127

     occupation numbers 
     0.1875   0.1875   0.1875   0.1875   0.1875   0.1875   0.1875   0.1875
     0.1875   0.1875   0.1875   0.1875   0.1875   0.1875   0.1875   0.1875
     0.1875   0.1875   0.1875   0.1875   0.1875   0.1875   0.1875   0.1875
     0.1875   0.1875   0.1875   0.1875   0.1875   0.1875   0.1875   0.1875
     0.1875   0.1875   0.1874   0.1873   0.1865   0.1832   0.0008   0.0000
     0.0000   0.0000   0.0000   0.0000   0.0000   0.0000

     the Fermi energy is    11.4956 ev

!    total energy              =    -537.98227633 Ry
     Harris-Foulkes estimate   =    -537.98226256 Ry
     estimated scf accuracy    <          5.0E-09 Ry

     The total energy is the sum of the following terms:

     one-electron contribution =     -32.90667627 Ry
     hartree contribution      =      83.67874015 Ry
     xc contribution           =    -199.62179854 Ry
     ewald contribution        =    -389.44315552 Ry
     Hubbard energy            =       0.31635718 Ry
     smearing contrib. (-TS)   =      -0.00574334 Ry

     convergence has been achieved in  13 iterations

     init_run     :      8.37s CPU      8.49s WALL (       1 calls)
     electrons    :    228.85s CPU    231.37s WALL (       1 calls)

     Called by init_run:
     wfcinit      :      0.00s CPU      0.00s WALL (       1 calls)
     potinit      :      0.33s CPU      0.38s WALL (       1 calls)

     Called by electrons:
     c_bands      :    155.36s CPU    156.24s WALL (      13 calls)
     sum_band     :     48.50s CPU     48.94s WALL (      13 calls)
     v_of_rho     :      3.34s CPU      3.35s WALL (      14 calls)
     v_h          :      0.18s CPU      0.19s WALL (      14 calls)
     v_xc         :      3.16s CPU      3.16s WALL (      14 calls)
     newd         :     23.40s CPU     23.47s WALL (      14 calls)
     mix_rho      :      0.52s CPU      0.52s WALL (      13 calls)

     Called by c_bands:
     init_us_2    :      1.19s CPU      1.19s WALL (     364 calls)
     cegterg      :    152.02s CPU    152.34s WALL (     182 calls)

     Called by sum_band:
     sum_band:bec :      0.13s CPU      0.14s WALL (     182 calls)
     addusdens    :     15.75s CPU     15.76s WALL (      13 calls)

     Called by *egterg:
     h_psi        :    126.10s CPU    126.38s WALL (     665 calls)
     s_psi        :      4.37s CPU      4.38s WALL (     665 calls)
     g_psi        :      0.43s CPU      0.42s WALL (     483 calls)
     cdiaghg      :      7.47s CPU      7.50s WALL (     651 calls)
     cegterg:over :      5.27s CPU      5.30s WALL (     483 calls)
     cegterg:upda :      3.06s CPU      3.05s WALL (     483 calls)
     cegterg:last :      2.38s CPU      2.38s WALL (     208 calls)

     Called by h_psi:
     h_psi:vloc   :    108.17s CPU    108.38s WALL (     665 calls)
     h_psi:vnl    :      9.04s CPU      9.07s WALL (     665 calls)
     add_vuspsi   :      4.38s CPU      4.39s WALL (     665 calls)
     vhpsi        :      8.77s CPU      8.79s WALL (     665 calls)

     General routines
     calbec       :     10.90s CPU     10.92s WALL (    1694 calls)
     fft          :      2.79s CPU      2.82s WALL (     219 calls)
     ffts         :      0.07s CPU      0.07s WALL (      27 calls)
     fftw         :     91.04s CPU     91.16s WALL (   50924 calls)
     interpolate  :      0.38s CPU      0.38s WALL (      27 calls)
     davcio       :      0.00s CPU      0.81s WALL (     378 calls)

     Parallel routines
     fft_scatter  :     23.14s CPU     23.33s WALL (   51170 calls)
     Hubbard U routines
     new_ns       :      1.18s CPU      1.54s WALL (      13 calls)
     vhpsi        :      8.77s CPU      8.79s WALL (     665 calls)

     PWSCF        :  3m57.67s CPU     4m 0.66s WALL


   This run was terminated on:  14:57: 2  11Nov2012            

=------------------------------------------------------------------------------=
