   JOB DONE.
=------------------------------------------------------------------------------=

     Program PWSCF v.5.0.1 starts on 11Nov2012 at 14:57: 6 

     This program is part of the open-source Quantum ESPRESSO suite
     for quantum simulation of materials; please cite
         "P. Giannozzi et al., J. Phys.:Condens. Matter 21 395502 (2009);
          URL http://www.quantum-espresso.org", 
     in publications or presentations arising from this work. More details at
     http://www.quantum-espresso.org/quote.php

     Parallel version (MPI), running on     2 processors
     R & G space division:  proc/pool =    2

     Current dimensions of program PWSCF are:
     Max number of different atomic species (ntypx) = 10
     Max number of k-points (npk) =  40000
     Max angular momentum in pseudopotentials (lmaxx) =  3
     Reading input from CoLaO_U500_a-5.in
               file Co.pbe-nd-rrkjus.UPF: wavefunction(s)  4S 3D renormalized
               file Co.pbe-nd-rrkjus.UPF: wavefunction(s)  4S 3D renormalized
               file O.pbe-rrkjus.UPF: wavefunction(s)  2S renormalized

     Subspace diagonalization in iterative solution of the eigenvalue problem:
     a serial algorithm will be used


     Parallelization info
     --------------------
     sticks:   dense  smooth     PW     G-vecs:    dense   smooth      PW
     Min        1112     444    131                34808     8786    1448
     Max        1113     445    132                34809     8787    1449
     Sum        2225     889    263                69617    17573    2897


     Title: 
     GGA + U, U = 5.000, alpha = -0.050                                         


     bravais-lattice index     =            5
     lattice parameter (alat)  =      10.3292  a.u.
     unit-cell volume          =     793.0599 (a.u.)^3
     number of atoms/cell      =           10
     number of atomic types    =            4
     number of electrons       =        76.00
     number of Kohn-Sham states=           46
     kinetic-energy cutoff     =      30.0000  Ry
     charge density cutoff     =     300.0000  Ry
     convergence threshold     =      1.0E-08
     mixing beta               =       0.2000
     number of iterations used =            8  plain     mixing
     Exchange-correlation      =  SLA  PW   PBE  PBE ( 1 4 3 4 0)
     EXX-fraction              =        0.00

     celldm(1)=  10.329242  celldm(2)=   0.000000  celldm(3)=   0.000000
     celldm(4)=   0.488100  celldm(5)=   0.000000  celldm(6)=   0.000000

     crystal axes: (cart. coord. in units of alat)
               a(1) = (   0.505915  -0.292090   0.811624 )  
               a(2) = (   0.000000   0.584180   0.811624 )  
               a(3) = (  -0.505915  -0.292090   0.811624 )  

     reciprocal axes: (cart. coord. in units 2 pi/alat)
               b(1) = (  0.988308 -0.570600  0.410699 )  
               b(2) = (  0.000000  1.141200  0.410699 )  
               b(3) = ( -0.988308 -0.570600  0.410699 )  


     PseudoPot. # 1 for Co read from file:
     /home/mcurnan/dft-course/Project1/example_LaCoO3/Co.pbe-nd-rrkjus.UPF
     MD5 check sum: 3e47a84addf5e975e0edeaeee2a73f59
     Pseudo is Ultrasoft + core correction, Zval =  9.0
     Generated by new atomic code, or converted to UPF format
     Using radial grid of  961 points,  6 beta functions with: 
                l(1) =   0
                l(2) =   0
                l(3) =   1
                l(4) =   1
                l(5) =   2
                l(6) =   2
     Q(r) pseudized with 0 coefficients 


     PseudoPot. # 2 for Co read from file:
     /home/mcurnan/dft-course/Project1/example_LaCoO3/Co.pbe-nd-rrkjus.UPF
     MD5 check sum: 3e47a84addf5e975e0edeaeee2a73f59
     Pseudo is Ultrasoft + core correction, Zval =  9.0
     Generated by new atomic code, or converted to UPF format
     Using radial grid of  961 points,  6 beta functions with: 
                l(1) =   0
                l(2) =   0
                l(3) =   1
                l(4) =   1
                l(5) =   2
                l(6) =   2
     Q(r) pseudized with 0 coefficients 


     PseudoPot. # 3 for La read from file:
     /home/mcurnan/dft-course/Project1/example_LaCoO3/La.pbe-nsp-van.UPF
     MD5 check sum: b2f11743f52dde65f77d1302becd7929
     Pseudo is Ultrasoft + core correction, Zval = 11.0
     Generated by new atomic code, or converted to UPF format
     Using radial grid of  907 points,  6 beta functions with: 
                l(1) =   0
                l(2) =   0
                l(3) =   1
                l(4) =   1
                l(5) =   2
                l(6) =   2
     Q(r) pseudized with  6 coefficients,  rinner =    1.200   1.200   1.200
                                                       1.200   1.200

     PseudoPot. # 4 for O  read from file:
     /home/mcurnan/dft-course/Project1/example_LaCoO3/O.pbe-rrkjus.UPF
     MD5 check sum: 390ba29e75625707450f3bd3f0eb6be9
     Pseudo is Ultrasoft, Zval =  6.0
     Generated by new atomic code, or converted to UPF format
     Using radial grid of 1269 points,  4 beta functions with: 
                l(1) =   0
                l(2) =   0
                l(3) =   1
                l(4) =   1
     Q(r) pseudized with 0 coefficients 


     atomic species   valence    mass     pseudopotential
        Co1            9.00     1.00000     Co( 1.00)
        Co2            9.00     1.00000     Co( 1.00)
        La1           11.00     1.00000     La( 1.00)
        O1             6.00     1.00000     O ( 1.00)
 -----
     simplified LDA+U calculation, Hubbard_lmax = 2
     atomic species  L   Hubbard U  Hubbard alpha
        Co1          2    5.000000   -0.050000
        Co2          2    5.000000    0.000000
        La1          2    0.000000    0.000000
        O1           1    0.000000    0.000000
 -----

      6 Sym. Ops., with inversion, found


                                    s                        frac. trans.

      isym =  1     identity                                     

 cryst.   s( 1) = (     1          0          0      )
                  (     0          1          0      )
                  (     0          0          1      )

 cart.    s( 1) = (  1.0000000  0.0000000  0.0000000 )
                  (  0.0000000  1.0000000  0.0000000 )
                  (  0.0000000  0.0000000  1.0000000 )


      isym =  2     120 deg rotation - cryst. axis [0,0,1]       

 cryst.   s( 2) = (     0          1          0      )
                  (     0          0          1      )
                  (     1          0          0      )

 cart.    s( 2) = ( -0.5000000 -0.8660254  0.0000000 )
                  (  0.8660254 -0.5000000  0.0000000 )
                  (  0.0000000  0.0000000  1.0000000 )


      isym =  3     120 deg rotation - cryst. axis [0,0,-1]      

 cryst.   s( 3) = (     0          0          1      )
                  (     1          0          0      )
                  (     0          1          0      )

 cart.    s( 3) = ( -0.5000000  0.8660254  0.0000000 )
                  ( -0.8660254 -0.5000000  0.0000000 )
                  (  0.0000000  0.0000000  1.0000000 )


      isym =  4     inversion                                    

 cryst.   s( 4) = (    -1          0          0      )
                  (     0         -1          0      )
                  (     0          0         -1      )

 cart.    s( 4) = ( -1.0000000  0.0000000  0.0000000 )
                  (  0.0000000 -1.0000000  0.0000000 )
                  (  0.0000000  0.0000000 -1.0000000 )


      isym =  5     inv. 180 deg rotation - cart. axis [0,1,0]   

 cryst.   s( 5) = (     0         -1          0      )
                  (     0          0         -1      )
                  (    -1          0          0      )

 cart.    s( 5) = (  0.5000000  0.8660254  0.0000000 )
                  ( -0.8660254  0.5000000  0.0000000 )
                  (  0.0000000  0.0000000 -1.0000000 )


      isym =  6     inv. 180 deg rotation - cart. axis [1,0,0]   

 cryst.   s( 6) = (     0          0         -1      )
                  (    -1          0          0      )
                  (     0         -1          0      )

 cart.    s( 6) = (  0.5000000 -0.8660254  0.0000000 )
                  (  0.8660254  0.5000000  0.0000000 )
                  (  0.0000000  0.0000000 -1.0000000 )


     point group S_6 (-3)   
     there are  6 classes
     the character table:

       E     C3    C3^2  i     S6^5  S6   
A_g    1.00  1.00  1.00  1.00  1.00  1.00
E_g    1.00 -0.50 -0.50  1.00 -0.50 -0.50
E_g*   1.00 -0.50 -0.50  1.00 -0.50 -0.50
A_u    1.00  1.00  1.00 -1.00 -1.00 -1.00
E_u    1.00 -0.50 -0.50 -1.00  0.50  0.50
E_u*   1.00 -0.50 -0.50 -1.00  0.50  0.50
     imaginary part
A_g    0.00  0.00  0.00  0.00  0.00  0.00
E_g    0.00  0.87 -0.87  0.00  0.87 -0.87
E_g*   0.00 -0.87  0.87  0.00 -0.87  0.87
A_u    0.00  0.00  0.00  0.00  0.00  0.00
E_u    0.00  0.87 -0.87  0.00 -0.87  0.87
E_u*   0.00 -0.87  0.87  0.00  0.87 -0.87

     the symmetry operations in each class:
     E        1
     C3       2
     C3^2     3
     i        4
     S6^5     5
     S6       6

   Cartesian axes

     site n.     atom                  positions (alat units)
         1           Co1 tau(   1) = (   0.0000000   0.0000000   0.0000000  )
         2           Co2 tau(   2) = (   0.0000000   0.0000000   1.2174358  )
         3           La1 tau(   3) = (   0.0000000   0.0000000   0.6087179  )
         4           La1 tau(   4) = (   0.0000000   0.0000000   1.8261537  )
         5           O1  tau(   5) = (  -0.2839701  -0.0933228   1.0141240  )
         6           O1  tau(   6) = (   0.0611651   0.2925867   1.0141240  )
         7           O1  tau(   7) = (   0.2228050  -0.1992639   1.0141240  )
         8           O1  tau(   8) = (  -0.0611651  -0.2925867   1.4207476  )
         9           O1  tau(   9) = (   0.2839701   0.0933228   1.4207476  )
        10           O1  tau(  10) = (  -0.2228050   0.1992639   1.4207476  )

   Crystallographic axes

     site n.     atom                  positions (cryst. coord.)
         1           Co1 tau(   1) = (  0.0000000  0.0000000  0.0000000  )
         2           Co2 tau(   2) = (  0.5000000  0.5000000  0.5000000  )
         3           La1 tau(   3) = (  0.2500000  0.2500000  0.2500000  )
         4           La1 tau(   4) = (  0.7500000  0.7500000  0.7500000  )
         5           O1  tau(   5) = (  0.1891000  0.3100000  0.7504000  )
         6           O1  tau(   6) = (  0.3100000  0.7504000  0.1891000  )
         7           O1  tau(   7) = (  0.7504000  0.1891000  0.3100000  )
         8           O1  tau(   8) = (  0.6900000  0.2496000  0.8109000  )
         9           O1  tau(   9) = (  0.8109000  0.6900000  0.2496000  )
        10           O1  tau(  10) = (  0.2496000  0.8109000  0.6900000  )

     number of k points=    14  gaussian smearing, width (Ry)=  0.0300
                       cart. coord. in units 2pi/alat
        k(    1) = (   0.0000000   0.0000000   0.0000000), wk =   0.0312500
        k(    2) = (  -0.2470771  -0.1426500   0.1026748), wk =   0.1875000
        k(    3) = (   0.4941541   0.2853000  -0.2053496), wk =   0.0937500
        k(    4) = (  -0.2470771   0.1426500   0.2053496), wk =   0.1875000
        k(    5) = (   0.4941541   0.5706001  -0.1026748), wk =   0.1875000
        k(    6) = (   0.2470771   0.4279500   0.0000000), wk =   0.1875000
        k(    7) = (   0.4941541  -0.2853000  -0.4106993), wk =   0.0937500
        k(    8) = (   0.0000000   0.0000000   0.3080244), wk =   0.0625000
        k(    9) = (   0.7412312   0.4279500   0.0000000), wk =   0.1875000
        k(   10) = (   0.4941541   0.2853000   0.1026748), wk =   0.1875000
        k(   11) = (   0.7412312  -0.4279500  -0.3080244), wk =   0.1875000
        k(   12) = (   0.4941541  -0.5706001  -0.2053496), wk =   0.1875000
        k(   13) = (   0.0000000   0.0000000  -0.6160489), wk =   0.0312500
        k(   14) = (   0.4941541  -0.5706001   0.1026748), wk =   0.1875000

                       cryst. coord.
        k(    1) = (   0.0000000   0.0000000   0.0000000), wk =   0.0312500
        k(    2) = (   0.0000000   0.0000000   0.2500000), wk =   0.1875000
        k(    3) = (   0.0000000   0.0000000  -0.5000000), wk =   0.0937500
        k(    4) = (   0.0000000   0.2500000   0.2500000), wk =   0.1875000
        k(    5) = (   0.0000000   0.2500000  -0.5000000), wk =   0.1875000
        k(    6) = (   0.0000000   0.2500000  -0.2500000), wk =   0.1875000
        k(    7) = (   0.0000000  -0.5000000  -0.5000000), wk =   0.0937500
        k(    8) = (   0.2500000   0.2500000   0.2500000), wk =   0.0625000
        k(    9) = (   0.2500000   0.2500000  -0.5000000), wk =   0.1875000
        k(   10) = (   0.2500000   0.2500000  -0.2500000), wk =   0.1875000
        k(   11) = (   0.2500000  -0.5000000  -0.5000000), wk =   0.1875000
        k(   12) = (   0.2500000  -0.5000000  -0.2500000), wk =   0.1875000
        k(   13) = (  -0.5000000  -0.5000000  -0.5000000), wk =   0.0312500
        k(   14) = (   0.5000000  -0.2500000   0.0000000), wk =   0.1875000

     Dense  grid:    69617 G-vectors     FFT dimensions: (  60,  60,  60)

     Smooth grid:    17573 G-vectors     FFT dimensions: (  40,  40,  40)

     Largest allocated arrays     est. size (Mb)     dimensions
        Kohn-Sham Wavefunctions         0.78 Mb     (   1117,   46)
        Atomic wavefunctions            1.06 Mb     (   1117,   62)
        NL pseudopotentials             2.05 Mb     (   1117,  120)
        Each V/rho on FFT grid          1.65 Mb     ( 108000)
        Each G-vector array             0.27 Mb     (  34808)
        G-vector shells                 0.04 Mb     (   4682)
     Largest temporary arrays     est. size (Mb)     dimensions
        Auxiliary wavefunctions         3.14 Mb     (   1117,  184)
        Each subspace H/S matrix        0.52 Mb     ( 184, 184)
        Each <psi_i|beta_j> matrix      0.08 Mb     (    120,   46)
        Arrays for rho mixing          13.18 Mb     ( 108000,   8)

     Check: negative/imaginary core charge=   -0.000028    0.000000

     The initial density is read from file :
     /home/mcurnan/dft-course/Project1/example_LaCoO3/500/Co/alpha/CoLaO_U500.save/charge-density.dat

 --- in v_hubbard ---
Hubbard energy    0.4490
 -------
     Number of +U iterations with fixed ns =  0
     Starting occupations:
 --- enter write_ns ---
 LDA+U parameters:
U( 1)     =  5.00000000
alpha( 1) = -0.05000000
U( 2)     =  5.00000000
alpha( 2) =  0.00000000
U( 3)     =  0.00000000
alpha( 3) =  0.00000000
U( 4)     =  0.00000000
alpha( 4) =  0.00000000
atom    1   Tr[ns(na)] =   8.02206
    eigenvalues: 
  0.596  0.596  0.938  0.941  0.941
    eigenvectors:
  0.000  0.000  1.000  0.000  0.000
  0.333  0.322  0.000  0.004  0.341
  0.322  0.333  0.000  0.341  0.004
  0.289  0.056  0.000  0.515  0.140
  0.056  0.289  0.000  0.140  0.515
    occupations:
  0.938  0.000  0.000  0.000  0.000
  0.000  0.715  0.000 -0.060  0.152
  0.000  0.000  0.715  0.152  0.060
  0.000 -0.060  0.152  0.822  0.000
  0.000  0.152  0.060  0.000  0.822
atom    2   Tr[ns(na)] =   8.02145
    eigenvalues: 
  0.595  0.595  0.938  0.941  0.941
    eigenvectors:
  0.000  0.000  1.000  0.000  0.000
  0.640  0.015  0.000  0.223  0.122
  0.015  0.640  0.000  0.122  0.223
  0.017  0.329  0.000  0.470  0.185
  0.329  0.017  0.000  0.185  0.470
    occupations:
  0.938  0.000  0.000  0.000  0.000
  0.000  0.715  0.000  0.060  0.153
  0.000  0.000  0.715  0.153 -0.060
  0.000  0.060  0.153  0.822  0.000
  0.000  0.153 -0.060  0.000  0.822
atom    3   Tr[ns(na)] =   3.80284
    eigenvalues: 
  0.355  0.355  0.384  0.403  0.403
    eigenvectors:
  0.000  0.000  1.000  0.000  0.000
  0.781  0.139  0.000  0.012  0.068
  0.139  0.781  0.000  0.068  0.012
  0.013  0.067  0.000  0.780  0.141
  0.067  0.013  0.000  0.141  0.780
    occupations:
  0.384  0.000  0.000  0.000  0.000
  0.000  0.359  0.000  0.000  0.013
  0.000  0.000  0.359  0.013  0.000
  0.000  0.000  0.013  0.399  0.000
  0.000  0.013  0.000  0.000  0.399
atom    4   Tr[ns(na)] =   3.80284
    eigenvalues: 
  0.355  0.355  0.384  0.403  0.403
    eigenvectors:
  0.000  0.000  1.000  0.000  0.000
  0.782  0.139  0.000  0.012  0.068
  0.139  0.782  0.000  0.068  0.012
  0.012  0.067  0.000  0.780  0.141
  0.067  0.012  0.000  0.141  0.780
    occupations:
  0.384  0.000  0.000  0.000  0.000
  0.000  0.359  0.000  0.000  0.013
  0.000  0.000  0.359  0.013  0.000
  0.000  0.000  0.013  0.399  0.000
  0.000  0.013  0.000  0.000  0.399
atom    5   Tr[ns(na)] =   5.43357
    eigenvalues: 
  0.846  0.929  0.941
    eigenvectors:
  0.340  0.000  0.660
  0.494  0.250  0.256
  0.166  0.750  0.085
    occupations:
  0.909  0.039  0.022
  0.039  0.891 -0.022
  0.022 -0.022  0.917
atom    6   Tr[ns(na)] =   5.43357
    eigenvalues: 
  0.846  0.929  0.941
    eigenvectors:
  0.340  0.000  0.660
  0.000  1.000  0.000
  0.660  0.000  0.340
    occupations:
  0.909  0.000 -0.045
  0.000  0.929  0.000
 -0.045  0.000  0.879
atom    7   Tr[ns(na)] =   5.43357
    eigenvalues: 
  0.846  0.929  0.941
    eigenvectors:
  0.340  0.000  0.660
  0.496  0.250  0.255
  0.164  0.750  0.086
    occupations:
  0.909 -0.039  0.022
 -0.039  0.891  0.022
  0.022  0.022  0.917
atom    8   Tr[ns(na)] =   5.43357
    eigenvalues: 
  0.846  0.929  0.941
    eigenvectors:
  0.340  0.000  0.660
  0.000  1.000  0.000
  0.660  0.000  0.340
    occupations:
  0.909  0.000 -0.045
  0.000  0.929  0.000
 -0.045  0.000  0.879
atom    9   Tr[ns(na)] =   5.43357
    eigenvalues: 
  0.846  0.929  0.941
    eigenvectors:
  0.340  0.000  0.660
  0.494  0.250  0.256
  0.166  0.750  0.085
    occupations:
  0.909  0.039  0.022
  0.039  0.891 -0.022
  0.022 -0.022  0.917
atom   10   Tr[ns(na)] =   5.43357
    eigenvalues: 
  0.846  0.929  0.941
    eigenvectors:
  0.340  0.000  0.660
  0.496  0.250  0.255
  0.164  0.750  0.086
    occupations:
  0.909 -0.039  0.022
 -0.039  0.891  0.022
  0.022  0.022  0.917
N of occupied +U levels =  56.2506062
 --- exit write_ns ---
 LDA+U Projector read from file 
     Starting wfc from file

     total cpu time spent up to now is        8.5 secs

     per-process dynamical memory:    46.9 Mb

     Self-consistent Calculation

     iteration #  1     ecut=    30.00 Ry     beta=0.20
     Davidson diagonalization with overlap
     c_bands:  1 eigenvalues not converged
     c_bands:  1 eigenvalues not converged
     c_bands:  1 eigenvalues not converged
     c_bands:  1 eigenvalues not converged
     ethr =  1.00E-10,  avg # of iterations = 16.6
 --- enter write_ns ---
 LDA+U parameters:
U( 1)     =  5.00000000
alpha( 1) = -0.05000000
U( 2)     =  5.00000000
alpha( 2) =  0.00000000
U( 3)     =  0.00000000
alpha( 3) =  0.00000000
U( 4)     =  0.00000000
alpha( 4) =  0.00000000
atom    1   Tr[ns(na)] =   8.24039
    eigenvalues: 
  0.572  0.572  0.991  0.991  0.994
    eigenvectors:
  0.000  0.000  0.000  0.000  1.000
  0.330  0.324  0.004  0.342  0.000
  0.324  0.330  0.342  0.004  0.000
  0.289  0.057  0.514  0.141  0.000
  0.057  0.289  0.141  0.514  0.000
    occupations:
  0.994  0.000  0.000  0.000  0.000
  0.000  0.717  0.000 -0.072  0.186
  0.000  0.000  0.717  0.186  0.072
  0.000 -0.072  0.186  0.846  0.000
  0.000  0.186  0.072  0.000  0.846
atom    2   Tr[ns(na)] =   8.20957
    eigenvalues: 
  0.565  0.565  0.991  0.991  0.994
    eigenvectors:
  0.000  0.000  0.000  0.000  1.000
  0.635  0.019  0.221  0.125  0.000
  0.019  0.635  0.125  0.221  0.000
  0.013  0.333  0.469  0.185  0.000
  0.333  0.013  0.185  0.469  0.000
    occupations:
  0.994  0.000  0.000  0.000  0.000
  0.000  0.712  0.000  0.072  0.189
  0.000  0.000  0.712  0.189 -0.072
  0.000  0.072  0.189  0.843  0.000
  0.000  0.189 -0.072  0.000  0.843
atom    3   Tr[ns(na)] =   3.79169
    eigenvalues: 
  0.356  0.356  0.381  0.401  0.401
    eigenvectors:
  0.000  0.000  1.000  0.000  0.000
  0.775  0.141  0.000  0.012  0.071
  0.141  0.775  0.000  0.071  0.012
  0.013  0.070  0.000  0.775  0.142
  0.070  0.013  0.000  0.142  0.775
    occupations:
  0.381  0.000  0.000  0.000  0.000
  0.000  0.360  0.000  0.000  0.013
  0.000  0.000  0.360  0.013  0.000
  0.000  0.000  0.013  0.398  0.000
  0.000  0.013  0.000  0.000  0.398
atom    4   Tr[ns(na)] =   3.79169
    eigenvalues: 
  0.356  0.356  0.381  0.401  0.401
    eigenvectors:
  0.000  0.000  1.000  0.000  0.000
  0.776  0.141  0.000  0.012  0.071
  0.141  0.776  0.000  0.071  0.012
  0.013  0.070  0.000  0.775  0.142
  0.070  0.013  0.000  0.142  0.775
    occupations:
  0.381  0.000  0.000  0.000  0.000
  0.000  0.360  0.000  0.000  0.013
  0.000  0.000  0.360  0.013  0.000
  0.000  0.000  0.013  0.398  0.000
  0.000  0.013  0.000  0.000  0.398
atom    5   Tr[ns(na)] =   5.38264
    eigenvalues: 
  0.824  0.923  0.944
    eigenvectors:
  0.341  0.000  0.659
  0.492  0.252  0.256
  0.167  0.748  0.085
    occupations:
  0.903  0.049  0.029
  0.049  0.880 -0.025
  0.029 -0.025  0.908
atom    6   Tr[ns(na)] =   5.38264
    eigenvalues: 
  0.824  0.923  0.944
    eigenvectors:
  0.341  0.000  0.659
  0.000  1.000  0.000
  0.659  0.000  0.341
    occupations:
  0.903  0.000 -0.057
  0.000  0.923  0.000
 -0.057  0.000  0.865
atom    7   Tr[ns(na)] =   5.38264
    eigenvalues: 
  0.824  0.923  0.944
    eigenvectors:
  0.341  0.000  0.659
  0.497  0.248  0.256
  0.162  0.752  0.085
    occupations:
  0.903 -0.049  0.028
 -0.049  0.879  0.025
  0.028  0.025  0.909
atom    8   Tr[ns(na)] =   5.38264
    eigenvalues: 
  0.824  0.923  0.944
    eigenvectors:
  0.341  0.000  0.659
  0.000  1.000  0.000
  0.659  0.000  0.341
    occupations:
  0.903  0.000 -0.057
  0.000  0.923  0.000
 -0.057  0.000  0.865
atom    9   Tr[ns(na)] =   5.38264
    eigenvalues: 
  0.824  0.923  0.944
    eigenvectors:
  0.341  0.000  0.659
  0.492  0.252  0.256
  0.167  0.748  0.085
    occupations:
  0.903  0.049  0.029
  0.049  0.880 -0.025
  0.029 -0.025  0.908
atom   10   Tr[ns(na)] =   5.38264
    eigenvalues: 
  0.824  0.923  0.944
    eigenvectors:
  0.341  0.000  0.659
  0.497  0.248  0.256
  0.162  0.752  0.085
    occupations:
  0.903 -0.049  0.028
 -0.049  0.879  0.025
  0.028  0.025  0.909
N of occupied +U levels =  56.3291750
 --- exit write_ns ---
 --- in v_hubbard ---
Hubbard energy    0.4299
 -------

     total cpu time spent up to now is       57.4 secs

     total energy              =    -537.93444710 Ry
     Harris-Foulkes estimate   =    -537.94627863 Ry
     estimated scf accuracy    <       0.05418372 Ry

     iteration #  2     ecut=    30.00 Ry     beta=0.20
     Davidson diagonalization with overlap
     ethr =  7.13E-05,  avg # of iterations =  2.0
 --- enter write_ns ---
 LDA+U parameters:
U( 1)     =  5.00000000
alpha( 1) = -0.05000000
U( 2)     =  5.00000000
alpha( 2) =  0.00000000
U( 3)     =  0.00000000
alpha( 3) =  0.00000000
U( 4)     =  0.00000000
alpha( 4) =  0.00000000
atom    1   Tr[ns(na)] =   8.01961
    eigenvalues: 
  0.516  0.516  0.992  0.992  0.995
    eigenvectors:
  0.000  0.000  0.000  0.000  1.000
  0.332  0.323  0.004  0.341  0.000
  0.323  0.332  0.341  0.004  0.000
  0.289  0.056  0.516  0.140  0.000
  0.056  0.289  0.140  0.516  0.000
    occupations:
  0.995  0.000  0.000  0.000  0.000
  0.000  0.680  0.000 -0.083  0.210
  0.000  0.000  0.680  0.210  0.083
  0.000 -0.083  0.210  0.828  0.000
  0.000  0.210  0.083  0.000  0.828
atom    2   Tr[ns(na)] =   8.03231
    eigenvalues: 
  0.517  0.517  0.993  0.993  0.996
    eigenvectors:
  0.000  0.000  0.000  0.000  1.000
  0.639  0.017  0.223  0.121  0.000
  0.017  0.639  0.121  0.223  0.000
  0.016  0.329  0.471  0.185  0.000
  0.329  0.016  0.185  0.471  0.000
    occupations:
  0.996  0.000  0.000  0.000  0.000
  0.000  0.681  0.000  0.083  0.210
  0.000  0.000  0.681  0.210 -0.083
  0.000  0.083  0.210  0.829  0.000
  0.000  0.210 -0.083  0.000  0.829
atom    3   Tr[ns(na)] =   3.78739
    eigenvalues: 
  0.355  0.355  0.381  0.401  0.401
    eigenvectors:
  0.000  0.000  1.000  0.000  0.000
  0.781  0.139  0.000  0.012  0.068
  0.139  0.781  0.000  0.068  0.012
  0.012  0.067  0.000  0.779  0.141
  0.067  0.012  0.000  0.141  0.779
    occupations:
  0.381  0.000  0.000  0.000  0.000
  0.000  0.359  0.000  0.000  0.013
  0.000  0.000  0.359  0.013  0.000
  0.000  0.000  0.013  0.398  0.000
  0.000  0.013  0.000  0.000  0.398
atom    4   Tr[ns(na)] =   3.78739
    eigenvalues: 
  0.355  0.355  0.381  0.401  0.401
    eigenvectors:
  0.000  0.000  1.000  0.000  0.000
  0.781  0.139  0.000  0.012  0.068
  0.139  0.781  0.000  0.068  0.012
  0.013  0.067  0.000  0.779  0.141
  0.067  0.013  0.000  0.141  0.779
    occupations:
  0.381  0.000  0.000  0.000  0.000
  0.000  0.359  0.000  0.000  0.013
  0.000  0.000  0.359  0.013  0.000
  0.000  0.000  0.013  0.398  0.000
  0.000  0.013  0.000  0.000  0.398
atom    5   Tr[ns(na)] =   5.44616
    eigenvalues: 
  0.843  0.932  0.949
    eigenvectors:
  0.336  0.000  0.664
  0.501  0.247  0.253
  0.164  0.753  0.083
    occupations:
  0.913  0.044  0.025
  0.044  0.891 -0.023
  0.025 -0.023  0.919
atom    6   Tr[ns(na)] =   5.44616
    eigenvalues: 
  0.843  0.932  0.949
    eigenvectors:
  0.336  0.000  0.664
  0.000  1.000  0.000
  0.664  0.000  0.336
    occupations:
  0.913  0.000 -0.050
  0.000  0.932  0.000
 -0.050  0.000  0.878
atom    7   Tr[ns(na)] =   5.44616
    eigenvalues: 
  0.843  0.932  0.949
    eigenvectors:
  0.336  0.000  0.664
  0.496  0.253  0.251
  0.168  0.747  0.085
    occupations:
  0.913 -0.043  0.025
 -0.043  0.892  0.023
  0.025  0.023  0.918
atom    8   Tr[ns(na)] =   5.44616
    eigenvalues: 
  0.843  0.932  0.949
    eigenvectors:
  0.336  0.000  0.664
  0.000  1.000  0.000
  0.664  0.000  0.336
    occupations:
  0.913  0.000 -0.050
  0.000  0.932  0.000
 -0.050  0.000  0.878
atom    9   Tr[ns(na)] =   5.44616
    eigenvalues: 
  0.843  0.932  0.949
    eigenvectors:
  0.336  0.000  0.664
  0.501  0.247  0.253
  0.164  0.753  0.083
    occupations:
  0.913  0.044  0.025
  0.044  0.891 -0.023
  0.025 -0.023  0.919
atom   10   Tr[ns(na)] =   5.44616
    eigenvalues: 
  0.843  0.932  0.949
    eigenvectors:
  0.336  0.000  0.664
  0.496  0.253  0.251
  0.168  0.747  0.085
    occupations:
  0.913 -0.043  0.025
 -0.043  0.892  0.023
  0.025  0.023  0.918
N of occupied +U levels =  56.3036456
 --- exit write_ns ---
 --- in v_hubbard ---
Hubbard energy    0.4218
 -------

     total cpu time spent up to now is       78.7 secs

     total energy              =    -537.94524331 Ry
     Harris-Foulkes estimate   =    -537.94535080 Ry
     estimated scf accuracy    <       0.03309417 Ry

     iteration #  3     ecut=    30.00 Ry     beta=0.20
     Davidson diagonalization with overlap
     ethr =  4.35E-05,  avg # of iterations =  1.0
 --- enter write_ns ---
 LDA+U parameters:
U( 1)     =  5.00000000
alpha( 1) = -0.05000000
U( 2)     =  5.00000000
alpha( 2) =  0.00000000
U( 3)     =  0.00000000
alpha( 3) =  0.00000000
U( 4)     =  0.00000000
alpha( 4) =  0.00000000
atom    1   Tr[ns(na)] =   8.07442
    eigenvalues: 
  0.529  0.529  0.992  0.992  0.995
    eigenvectors:
  0.000  0.000  0.000  0.000  1.000
  0.333  0.323  0.004  0.341  0.000
  0.323  0.333  0.341  0.004  0.000
  0.288  0.056  0.516  0.140  0.000
  0.056  0.288  0.140  0.516  0.000
    occupations:
  0.995  0.000  0.000  0.000  0.000
  0.000  0.688  0.000 -0.081  0.205
  0.000  0.000  0.688  0.205  0.081
  0.000 -0.081  0.205  0.833  0.000
  0.000  0.205  0.081  0.000  0.833
atom    2   Tr[ns(na)] =   8.06095
    eigenvalues: 
  0.525  0.525  0.993  0.993  0.996
    eigenvectors:
  0.000  0.000  0.000  0.000  1.000
  0.638  0.017  0.222  0.122  0.000
  0.017  0.638  0.122  0.222  0.000
  0.015  0.329  0.471  0.185  0.000
  0.329  0.015  0.185  0.471  0.000
    occupations:
  0.996  0.000  0.000  0.000  0.000
  0.000  0.686  0.000  0.081  0.207
  0.000  0.000  0.686  0.207 -0.081
  0.000  0.081  0.207  0.832  0.000
  0.000  0.207 -0.081  0.000  0.832
atom    3   Tr[ns(na)] =   3.78812
    eigenvalues: 
  0.355  0.355  0.381  0.401  0.401
    eigenvectors:
  0.000  0.000  1.000  0.000  0.000
  0.781  0.139  0.000  0.012  0.068
  0.139  0.781  0.000  0.068  0.012
  0.013  0.067  0.000  0.779  0.141
  0.067  0.013  0.000  0.141  0.779
    occupations:
  0.381  0.000  0.000  0.000  0.000
  0.000  0.359  0.000  0.000  0.012
  0.000  0.000  0.359  0.012  0.000
  0.000  0.000  0.012  0.398  0.000
  0.000  0.012  0.000  0.000  0.398
atom    4   Tr[ns(na)] =   3.78812
    eigenvalues: 
  0.355  0.355  0.381  0.401  0.401
    eigenvectors:
  0.000  0.000  1.000  0.000  0.000
  0.781  0.139  0.000  0.012  0.068
  0.139  0.781  0.000  0.068  0.012
  0.013  0.067  0.000  0.779  0.141
  0.067  0.013  0.000  0.141  0.779
    occupations:
  0.381  0.000  0.000  0.000  0.000
  0.000  0.359  0.000  0.000  0.012
  0.000  0.000  0.359  0.012  0.000
  0.000  0.000  0.012  0.398  0.000
  0.000  0.012  0.000  0.000  0.398
atom    5   Tr[ns(na)] =   5.43295
    eigenvalues: 
  0.838  0.930  0.948
    eigenvectors:
  0.337  0.000  0.663
  0.497  0.250  0.253
  0.166  0.750  0.084
    occupations:
  0.911  0.045  0.026
  0.045  0.889 -0.024
  0.026 -0.024  0.916
atom    6   Tr[ns(na)] =   5.43295
    eigenvalues: 
  0.838  0.930  0.948
    eigenvectors:
  0.337  0.000  0.663
  0.000  1.000  0.000
  0.663  0.000  0.337
    occupations:
  0.911  0.000 -0.052
  0.000  0.930  0.000
 -0.052  0.000  0.875
atom    7   Tr[ns(na)] =   5.43295
    eigenvalues: 
  0.838  0.930  0.948
    eigenvectors:
  0.337  0.000  0.663
  0.498  0.250  0.252
  0.165  0.750  0.085
    occupations:
  0.911 -0.045  0.026
 -0.045  0.889  0.024
  0.026  0.024  0.916
atom    8   Tr[ns(na)] =   5.43295
    eigenvalues: 
  0.838  0.930  0.948
    eigenvectors:
  0.337  0.000  0.663
  0.000  1.000  0.000
  0.663  0.000  0.337
    occupations:
  0.911  0.000 -0.052
  0.000  0.930  0.000
 -0.052  0.000  0.875
atom    9   Tr[ns(na)] =   5.43295
    eigenvalues: 
  0.838  0.930  0.948
    eigenvectors:
  0.337  0.000  0.663
  0.497  0.250  0.253
  0.166  0.750  0.084
    occupations:
  0.911  0.045  0.026
  0.045  0.889 -0.024
  0.026 -0.024  0.916
atom   10   Tr[ns(na)] =   5.43295
    eigenvalues: 
  0.838  0.930  0.948
    eigenvectors:
  0.337  0.000  0.663
  0.498  0.250  0.252
  0.165  0.750  0.085
    occupations:
  0.911 -0.045  0.026
 -0.045  0.889  0.024
  0.026  0.024  0.916
N of occupied +U levels =  56.3092882
 --- exit write_ns ---
 --- in v_hubbard ---
Hubbard energy    0.3662
 -------

     total cpu time spent up to now is       97.6 secs

     total energy              =    -537.95106326 Ry
     Harris-Foulkes estimate   =    -537.94596025 Ry
     estimated scf accuracy    <       0.01503107 Ry

     iteration #  4     ecut=    30.00 Ry     beta=0.20
     Davidson diagonalization with overlap
     ethr =  1.98E-05,  avg # of iterations =  1.2
 --- enter write_ns ---
 LDA+U parameters:
U( 1)     =  5.00000000
alpha( 1) = -0.05000000
U( 2)     =  5.00000000
alpha( 2) =  0.00000000
U( 3)     =  0.00000000
alpha( 3) =  0.00000000
U( 4)     =  0.00000000
alpha( 4) =  0.00000000
atom    1   Tr[ns(na)] =   8.05288
    eigenvalues: 
  0.522  0.522  0.993  0.993  0.996
    eigenvectors:
  0.000  0.000  0.000  0.000  1.000
  0.336  0.322  0.003  0.339  0.000
  0.322  0.336  0.339  0.003  0.000
  0.286  0.056  0.518  0.140  0.000
  0.056  0.286  0.140  0.518  0.000
    occupations:
  0.996  0.000  0.000  0.000  0.000
  0.000  0.683  0.000 -0.083  0.208
  0.000  0.000  0.683  0.208  0.083
  0.000 -0.083  0.208  0.832  0.000
  0.000  0.208  0.083  0.000  0.832
atom    2   Tr[ns(na)] =   8.10200
    eigenvalues: 
  0.531  0.531  0.995  0.995  0.998
    eigenvectors:
  0.000  0.000  0.000  0.000  1.000
  0.640  0.018  0.222  0.120  0.000
  0.018  0.640  0.120  0.222  0.000
  0.016  0.326  0.474  0.184  0.000
  0.326  0.016  0.184  0.474  0.000
    occupations:
  0.998  0.000  0.000  0.000  0.000
  0.000  0.690  0.000  0.082  0.204
  0.000  0.000  0.690  0.204 -0.082
  0.000  0.082  0.204  0.837  0.000
  0.000  0.204 -0.082  0.000  0.837
atom    3   Tr[ns(na)] =   3.79515
    eigenvalues: 
  0.356  0.356  0.381  0.402  0.402
    eigenvectors:
  0.000  0.000  1.000  0.000  0.000
  0.784  0.138  0.000  0.012  0.067
  0.138  0.784  0.000  0.067  0.012
  0.012  0.066  0.000  0.781  0.140
  0.066  0.012  0.000  0.140  0.781
    occupations:
  0.381  0.000  0.000  0.000  0.000
  0.000  0.360  0.000  0.000  0.012
  0.000  0.000  0.360  0.012  0.000
  0.000  0.000  0.012  0.398  0.000
  0.000  0.012  0.000  0.000  0.398
atom    4   Tr[ns(na)] =   3.79515
    eigenvalues: 
  0.356  0.356  0.381  0.402  0.402
    eigenvectors:
  0.000  0.000  1.000  0.000  0.000
  0.784  0.138  0.000  0.012  0.067
  0.138  0.784  0.000  0.067  0.012
  0.012  0.066  0.000  0.781  0.141
  0.066  0.012  0.000  0.141  0.781
    occupations:
  0.381  0.000  0.000  0.000  0.000
  0.000  0.360  0.000  0.000  0.012
  0.000  0.000  0.360  0.012  0.000
  0.000  0.000  0.012  0.398  0.000
  0.000  0.012  0.000  0.000  0.398
atom    5   Tr[ns(na)] =   5.42619
    eigenvalues: 
  0.837  0.929  0.947
    eigenvectors:
  0.337  0.000  0.663
  0.504  0.242  0.254
  0.159  0.758  0.083
    occupations:
  0.910  0.046  0.026
  0.046  0.887 -0.024
  0.026 -0.024  0.916
atom    6   Tr[ns(na)] =   5.42619
    eigenvalues: 
  0.837  0.929  0.947
    eigenvectors:
  0.337  0.000  0.663
  0.000  1.000  0.000
  0.663  0.000  0.337
    occupations:
  0.910 -0.001 -0.052
 -0.001  0.929 -0.001
 -0.052 -0.001  0.874
atom    7   Tr[ns(na)] =   5.42619
    eigenvalues: 
  0.837  0.929  0.947
    eigenvectors:
  0.337  0.000  0.663
  0.490  0.259  0.251
  0.173  0.741  0.086
    occupations:
  0.910 -0.045  0.027
 -0.045  0.888  0.024
  0.027  0.024  0.915
atom    8   Tr[ns(na)] =   5.42619
    eigenvalues: 
  0.837  0.929  0.947
    eigenvectors:
  0.337  0.000  0.663
  0.000  1.000  0.000
  0.663  0.000  0.337
    occupations:
  0.910 -0.001 -0.052
 -0.001  0.929 -0.001
 -0.052 -0.001  0.874
atom    9   Tr[ns(na)] =   5.42619
    eigenvalues: 
  0.837  0.929  0.947
    eigenvectors:
  0.337  0.000  0.663
  0.504  0.242  0.254
  0.159  0.758  0.083
    occupations:
  0.910  0.046  0.026
  0.046  0.887 -0.024
  0.026 -0.024  0.916
atom   10   Tr[ns(na)] =   5.42619
    eigenvalues: 
  0.837  0.929  0.947
    eigenvectors:
  0.337  0.000  0.663
  0.490  0.259  0.251
  0.173  0.741  0.086
    occupations:
  0.910 -0.045  0.027
 -0.045  0.888  0.024
  0.027  0.024  0.915
N of occupied +U levels =  56.3023240
 --- exit write_ns ---
 --- in v_hubbard ---
Hubbard energy    0.3439
 -------

     total cpu time spent up to now is      114.3 secs

     total energy              =    -537.95195381 Ry
     Harris-Foulkes estimate   =    -537.95202775 Ry
     estimated scf accuracy    <       0.00351083 Ry

     iteration #  5     ecut=    30.00 Ry     beta=0.20
     Davidson diagonalization with overlap
     ethr =  4.62E-06,  avg # of iterations =  1.6
 --- enter write_ns ---
 LDA+U parameters:
U( 1)     =  5.00000000
alpha( 1) = -0.05000000
U( 2)     =  5.00000000
alpha( 2) =  0.00000000
U( 3)     =  0.00000000
alpha( 3) =  0.00000000
U( 4)     =  0.00000000
alpha( 4) =  0.00000000
atom    1   Tr[ns(na)] =   8.07069
    eigenvalues: 
  0.524  0.524  0.995  0.995  0.997
    eigenvectors:
  0.000  0.000  0.000  0.000  1.000
  0.338  0.320  0.003  0.338  0.000
  0.320  0.338  0.338  0.003  0.000
  0.286  0.056  0.519  0.139  0.000
  0.056  0.286  0.139  0.519  0.000
    occupations:
  0.997  0.000  0.000  0.000  0.000
  0.000  0.685  0.000 -0.083  0.207
  0.000  0.000  0.685  0.207  0.083
  0.000 -0.083  0.207  0.834  0.000
  0.000  0.207  0.083  0.000  0.834
atom    2   Tr[ns(na)] =   8.06069
    eigenvalues: 
  0.521  0.521  0.995  0.995  0.998
    eigenvectors:
  0.000  0.000  0.000  0.000  1.000
  0.641  0.018  0.222  0.120  0.000
  0.018  0.641  0.120  0.222  0.000
  0.015  0.326  0.475  0.184  0.000
  0.326  0.015  0.184  0.475  0.000
    occupations:
  0.998  0.000  0.000  0.000  0.000
  0.000  0.683  0.000  0.083  0.209
  0.000  0.000  0.683  0.209 -0.083
  0.000  0.083  0.209  0.833  0.000
  0.000  0.209 -0.083  0.000  0.833
atom    3   Tr[ns(na)] =   3.79745
    eigenvalues: 
  0.357  0.357  0.382  0.402  0.402
    eigenvectors:
  0.000  0.000  1.000  0.000  0.000
  0.784  0.139  0.000  0.011  0.066
  0.139  0.784  0.000  0.066  0.011
  0.012  0.066  0.000  0.782  0.141
  0.066  0.012  0.000  0.141  0.782
    occupations:
  0.382  0.000  0.000  0.000  0.000
  0.000  0.360  0.000  0.000  0.012
  0.000  0.000  0.360  0.012  0.000
  0.000  0.000  0.012  0.398  0.000
  0.000  0.012  0.000  0.000  0.398
atom    4   Tr[ns(na)] =   3.79745
    eigenvalues: 
  0.357  0.357  0.382  0.402  0.402
    eigenvectors:
  0.000  0.000  1.000  0.000  0.000
  0.784  0.138  0.000  0.011  0.066
  0.138  0.784  0.000  0.066  0.011
  0.012  0.066  0.000  0.782  0.141
  0.066  0.012  0.000  0.141  0.782
    occupations:
  0.382  0.000  0.000  0.000  0.000
  0.000  0.360  0.000  0.000  0.012
  0.000  0.000  0.360  0.012  0.000
  0.000  0.000  0.012  0.398  0.000
  0.000  0.012  0.000  0.000  0.398
atom    5   Tr[ns(na)] =   5.42848
    eigenvalues: 
  0.837  0.930  0.947
    eigenvectors:
  0.337  0.000  0.663
  0.497  0.250  0.253
  0.166  0.750  0.084
    occupations:
  0.910  0.045  0.026
  0.045  0.888 -0.024
  0.026 -0.024  0.916
atom    6   Tr[ns(na)] =   5.42848
    eigenvalues: 
  0.837  0.930  0.947
    eigenvectors:
  0.337  0.000  0.663
  0.000  1.000  0.000
  0.663  0.000  0.337
    occupations:
  0.910  0.000 -0.052
  0.000  0.930  0.000
 -0.052  0.000  0.874
atom    7   Tr[ns(na)] =   5.42848
    eigenvalues: 
  0.837  0.930  0.947
    eigenvectors:
  0.337  0.000  0.663
  0.497  0.250  0.252
  0.166  0.750  0.085
    occupations:
  0.910 -0.045  0.026
 -0.045  0.888  0.024
  0.026  0.024  0.916
atom    8   Tr[ns(na)] =   5.42848
    eigenvalues: 
  0.837  0.930  0.947
    eigenvectors:
  0.337  0.000  0.663
  0.000  1.000  0.000
  0.663  0.000  0.337
    occupations:
  0.910  0.000 -0.052
  0.000  0.930  0.000
 -0.052  0.000  0.874
atom    9   Tr[ns(na)] =   5.42848
    eigenvalues: 
  0.837  0.930  0.947
    eigenvectors:
  0.337  0.000  0.663
  0.497  0.250  0.253
  0.166  0.750  0.084
    occupations:
  0.910  0.045  0.026
  0.045  0.888 -0.024
  0.026 -0.024  0.916
atom   10   Tr[ns(na)] =   5.42848
    eigenvalues: 
  0.837  0.930  0.947
    eigenvectors:
  0.337  0.000  0.663
  0.497  0.250  0.252
  0.166  0.750  0.085
    occupations:
  0.910 -0.045  0.026
 -0.045  0.888  0.024
  0.026  0.024  0.916
N of occupied +U levels =  56.2971457
 --- exit write_ns ---
 --- in v_hubbard ---
Hubbard energy    0.3437
 -------

     total cpu time spent up to now is      131.5 secs

     total energy              =    -537.95233855 Ry
     Harris-Foulkes estimate   =    -537.95228846 Ry
     estimated scf accuracy    <       0.00037974 Ry

     iteration #  6     ecut=    30.00 Ry     beta=0.20
     Davidson diagonalization with overlap
     ethr =  5.00E-07,  avg # of iterations =  1.9
 --- enter write_ns ---
 LDA+U parameters:
U( 1)     =  5.00000000
alpha( 1) = -0.05000000
U( 2)     =  5.00000000
alpha( 2) =  0.00000000
U( 3)     =  0.00000000
alpha( 3) =  0.00000000
U( 4)     =  0.00000000
alpha( 4) =  0.00000000
atom    1   Tr[ns(na)] =   8.05859
    eigenvalues: 
  0.521  0.521  0.995  0.995  0.998
    eigenvectors:
  0.000  0.000  0.000  0.000  1.000
  0.339  0.320  0.003  0.339  0.000
  0.320  0.339  0.339  0.003  0.000
  0.286  0.056  0.519  0.139  0.000
  0.056  0.286  0.139  0.519  0.000
    occupations:
  0.998  0.000  0.000  0.000  0.000
  0.000  0.683  0.000 -0.084  0.208
  0.000  0.000  0.683  0.208  0.084
  0.000 -0.084  0.208  0.833  0.000
  0.000  0.208  0.084  0.000  0.833
atom    2   Tr[ns(na)] =   8.05024
    eigenvalues: 
  0.518  0.518  0.995  0.995  0.998
    eigenvectors:
  0.000  0.000  0.000  0.000  1.000
  0.641  0.018  0.222  0.119  0.000
  0.018  0.641  0.119  0.222  0.000
  0.016  0.326  0.474  0.184  0.000
  0.326  0.016  0.184  0.474  0.000
    occupations:
  0.998  0.000  0.000  0.000  0.000
  0.000  0.681  0.000  0.084  0.210
  0.000  0.000  0.681  0.210 -0.084
  0.000  0.084  0.210  0.832  0.000
  0.000  0.210 -0.084  0.000  0.832
atom    3   Tr[ns(na)] =   3.79575
    eigenvalues: 
  0.356  0.356  0.381  0.402  0.402
    eigenvectors:
  0.000  0.000  1.000  0.000  0.000
  0.783  0.139  0.000  0.011  0.067
  0.139  0.783  0.000  0.067  0.011
  0.012  0.066  0.000  0.781  0.141
  0.066  0.012  0.000  0.141  0.781
    occupations:
  0.381  0.000  0.000  0.000  0.000
  0.000  0.360  0.000  0.000  0.012
  0.000  0.000  0.360  0.012  0.000
  0.000  0.000  0.012  0.398  0.000
  0.000  0.012  0.000  0.000  0.398
atom    4   Tr[ns(na)] =   3.79575
    eigenvalues: 
  0.356  0.356  0.381  0.402  0.402
    eigenvectors:
  0.000  0.000  1.000  0.000  0.000
  0.783  0.138  0.000  0.011  0.067
  0.138  0.783  0.000  0.067  0.011
  0.012  0.066  0.000  0.781  0.140
  0.066  0.012  0.000  0.140  0.781
    occupations:
  0.381  0.000  0.000  0.000  0.000
  0.000  0.360  0.000  0.000  0.012
  0.000  0.000  0.360  0.012  0.000
  0.000  0.000  0.012  0.398  0.000
  0.000  0.012  0.000  0.000  0.398
atom    5   Tr[ns(na)] =   5.43226
    eigenvalues: 
  0.838  0.930  0.948
    eigenvectors:
  0.337  0.000  0.663
  0.498  0.249  0.253
  0.166  0.751  0.084
    occupations:
  0.911  0.045  0.026
  0.045  0.889 -0.024
  0.026 -0.024  0.916
atom    6   Tr[ns(na)] =   5.43226
    eigenvalues: 
  0.838  0.930  0.948
    eigenvectors:
  0.337  0.000  0.663
  0.000  1.000  0.000
  0.663  0.000  0.337
    occupations:
  0.911  0.000 -0.052
  0.000  0.930  0.000
 -0.052  0.000  0.875
atom    7   Tr[ns(na)] =   5.43226
    eigenvalues: 
  0.838  0.930  0.948
    eigenvectors:
  0.337  0.000  0.663
  0.497  0.251  0.252
  0.166  0.749  0.085
    occupations:
  0.911 -0.045  0.026
 -0.045  0.889  0.024
  0.026  0.024  0.916
atom    8   Tr[ns(na)] =   5.43226
    eigenvalues: 
  0.838  0.930  0.948
    eigenvectors:
  0.337  0.000  0.663
  0.000  1.000  0.000
  0.663  0.000  0.337
    occupations:
  0.911  0.000 -0.052
  0.000  0.930  0.000
 -0.052  0.000  0.875
atom    9   Tr[ns(na)] =   5.43226
    eigenvalues: 
  0.838  0.930  0.948
    eigenvectors:
  0.337  0.000  0.663
  0.498  0.249  0.253
  0.166  0.751  0.084
    occupations:
  0.911  0.045  0.026
  0.045  0.889 -0.024
  0.026 -0.024  0.916
atom   10   Tr[ns(na)] =   5.43226
    eigenvalues: 
  0.838  0.930  0.948
    eigenvectors:
  0.337  0.000  0.663
  0.497  0.251  0.252
  0.166  0.749  0.085
    occupations:
  0.911 -0.045  0.026
 -0.045  0.889  0.024
  0.026  0.024  0.916
N of occupied +U levels =  56.2938814
 --- exit write_ns ---
 --- in v_hubbard ---
Hubbard energy    0.3446
 -------

     total cpu time spent up to now is      147.6 secs

     total energy              =    -537.95244007 Ry
     Harris-Foulkes estimate   =    -537.95238310 Ry
     estimated scf accuracy    <       0.00009717 Ry

     iteration #  7     ecut=    30.00 Ry     beta=0.20
     Davidson diagonalization with overlap
     ethr =  1.28E-07,  avg # of iterations =  2.1
 --- enter write_ns ---
 LDA+U parameters:
U( 1)     =  5.00000000
alpha( 1) = -0.05000000
U( 2)     =  5.00000000
alpha( 2) =  0.00000000
U( 3)     =  0.00000000
alpha( 3) =  0.00000000
U( 4)     =  0.00000000
alpha( 4) =  0.00000000
atom    1   Tr[ns(na)] =   8.05444
    eigenvalues: 
  0.520  0.520  0.995  0.995  0.998
    eigenvectors:
  0.000  0.000  0.000  0.000  1.000
  0.338  0.320  0.003  0.339  0.000
  0.320  0.338  0.339  0.003  0.000
  0.287  0.055  0.519  0.139  0.000
  0.055  0.287  0.139  0.519  0.000
    occupations:
  0.998  0.000  0.000  0.000  0.000
  0.000  0.682  0.000 -0.085  0.209
  0.000  0.000  0.682  0.209  0.085
  0.000 -0.085  0.209  0.833  0.000
  0.000  0.209  0.085  0.000  0.833
atom    2   Tr[ns(na)] =   8.04349
    eigenvalues: 
  0.517  0.517  0.995  0.995  0.998
    eigenvectors:
  0.000  0.000  0.000  0.000  1.000
  0.641  0.017  0.223  0.119  0.000
  0.017  0.641  0.119  0.223  0.000
  0.016  0.325  0.474  0.184  0.000
  0.325  0.016  0.184  0.474  0.000
    occupations:
  0.998  0.000  0.000  0.000  0.000
  0.000  0.680  0.000  0.085  0.211
  0.000  0.000  0.680  0.211 -0.085
  0.000  0.085  0.211  0.832  0.000
  0.000  0.211 -0.085  0.000  0.832
atom    3   Tr[ns(na)] =   3.78987
    eigenvalues: 
  0.356  0.356  0.381  0.401  0.401
    eigenvectors:
  0.000  0.000  1.000  0.000  0.000
  0.782  0.139  0.000  0.012  0.068
  0.139  0.782  0.000  0.068  0.012
  0.012  0.067  0.000  0.780  0.141
  0.067  0.012  0.000  0.141  0.780
    occupations:
  0.381  0.000  0.000  0.000  0.000
  0.000  0.359  0.000  0.000  0.012
  0.000  0.000  0.359  0.012  0.000
  0.000  0.000  0.012  0.398  0.000
  0.000  0.012  0.000  0.000  0.398
atom    4   Tr[ns(na)] =   3.78987
    eigenvalues: 
  0.356  0.356  0.381  0.401  0.401
    eigenvectors:
  0.000  0.000  1.000  0.000  0.000
  0.782  0.139  0.000  0.012  0.068
  0.139  0.782  0.000  0.068  0.012
  0.012  0.067  0.000  0.780  0.141
  0.067  0.012  0.000  0.141  0.780
    occupations:
  0.381  0.000  0.000  0.000  0.000
  0.000  0.359  0.000  0.000  0.012
  0.000  0.000  0.359  0.012  0.000
  0.000  0.000  0.012  0.398  0.000
  0.000  0.012  0.000  0.000  0.398
atom    5   Tr[ns(na)] =   5.43513
    eigenvalues: 
  0.839  0.930  0.948
    eigenvectors:
  0.337  0.000  0.663
  0.497  0.250  0.253
  0.166  0.750  0.084
    occupations:
  0.911  0.045  0.026
  0.045  0.889 -0.024
  0.026 -0.024  0.917
atom    6   Tr[ns(na)] =   5.43513
    eigenvalues: 
  0.839  0.930  0.948
    eigenvectors:
  0.337  0.000  0.663
  0.000  1.000  0.000
  0.663  0.000  0.337
    occupations:
  0.911  0.000 -0.052
  0.000  0.930  0.000
 -0.052  0.000  0.876
atom    7   Tr[ns(na)] =   5.43513
    eigenvalues: 
  0.839  0.930  0.948
    eigenvectors:
  0.337  0.000  0.663
  0.498  0.250  0.252
  0.166  0.750  0.085
    occupations:
  0.911 -0.045  0.026
 -0.045  0.889  0.024
  0.026  0.024  0.917
atom    8   Tr[ns(na)] =   5.43513
    eigenvalues: 
  0.839  0.930  0.948
    eigenvectors:
  0.337  0.000  0.663
  0.000  1.000  0.000
  0.663  0.000  0.337
    occupations:
  0.911  0.000 -0.052
  0.000  0.930  0.000
 -0.052  0.000  0.876
atom    9   Tr[ns(na)] =   5.43513
    eigenvalues: 
  0.839  0.930  0.948
    eigenvectors:
  0.337  0.000  0.663
  0.497  0.250  0.253
  0.166  0.750  0.084
    occupations:
  0.911  0.045  0.026
  0.045  0.889 -0.024
  0.026 -0.024  0.917
atom   10   Tr[ns(na)] =   5.43513
    eigenvalues: 
  0.839  0.930  0.948
    eigenvectors:
  0.337  0.000  0.663
  0.498  0.250  0.252
  0.166  0.750  0.085
    occupations:
  0.911 -0.045  0.026
 -0.045  0.889  0.024
  0.026  0.024  0.917
N of occupied +U levels =  56.2884535
 --- exit write_ns ---
 --- in v_hubbard ---
Hubbard energy    0.3449
 -------

     total cpu time spent up to now is      168.5 secs

     total energy              =    -537.95252662 Ry
     Harris-Foulkes estimate   =    -537.95247047 Ry
     estimated scf accuracy    <       0.00010612 Ry

     iteration #  8     ecut=    30.00 Ry     beta=0.20
     Davidson diagonalization with overlap
     ethr =  1.28E-07,  avg # of iterations =  1.0
 --- enter write_ns ---
 LDA+U parameters:
U( 1)     =  5.00000000
alpha( 1) = -0.05000000
U( 2)     =  5.00000000
alpha( 2) =  0.00000000
U( 3)     =  0.00000000
alpha( 3) =  0.00000000
U( 4)     =  0.00000000
alpha( 4) =  0.00000000
atom    1   Tr[ns(na)] =   8.05563
    eigenvalues: 
  0.520  0.520  0.995  0.995  0.998
    eigenvectors:
  0.000  0.000  0.000  0.000  1.000
  0.338  0.320  0.003  0.339  0.000
  0.320  0.338  0.339  0.003  0.000
  0.287  0.055  0.519  0.139  0.000
  0.055  0.287  0.139  0.519  0.000
    occupations:
  0.998  0.000  0.000  0.000  0.000
  0.000  0.682  0.000 -0.085  0.209
  0.000  0.000  0.682  0.209  0.085
  0.000 -0.085  0.209  0.833  0.000
  0.000  0.209  0.085  0.000  0.833
atom    2   Tr[ns(na)] =   8.04734
    eigenvalues: 
  0.517  0.517  0.995  0.995  0.998
    eigenvectors:
  0.000  0.000  0.000  0.000  1.000
  0.641  0.017  0.223  0.119  0.000
  0.017  0.641  0.119  0.223  0.000
  0.016  0.325  0.474  0.184  0.000
  0.325  0.016  0.184  0.474  0.000
    occupations:
  0.998  0.000  0.000  0.000  0.000
  0.000  0.681  0.000  0.085  0.210
  0.000  0.000  0.681  0.210 -0.085
  0.000  0.085  0.210  0.832  0.000
  0.000  0.210 -0.085  0.000  0.832
atom    3   Tr[ns(na)] =   3.79181
    eigenvalues: 
  0.356  0.356  0.381  0.401  0.401
    eigenvectors:
  0.000  0.000  1.000  0.000  0.000
  0.782  0.139  0.000  0.012  0.067
  0.139  0.782  0.000  0.067  0.012
  0.012  0.066  0.000  0.781  0.141
  0.066  0.012  0.000  0.141  0.781
    occupations:
  0.381  0.000  0.000  0.000  0.000
  0.000  0.360  0.000  0.000  0.012
  0.000  0.000  0.360  0.012  0.000
  0.000  0.000  0.012  0.398  0.000
  0.000  0.012  0.000  0.000  0.398
atom    4   Tr[ns(na)] =   3.79181
    eigenvalues: 
  0.356  0.356  0.381  0.401  0.401
    eigenvectors:
  0.000  0.000  1.000  0.000  0.000
  0.782  0.139  0.000  0.012  0.067
  0.139  0.782  0.000  0.067  0.012
  0.012  0.066  0.000  0.780  0.141
  0.066  0.012  0.000  0.141  0.780
    occupations:
  0.381  0.000  0.000  0.000  0.000
  0.000  0.360  0.000  0.000  0.012
  0.000  0.000  0.360  0.012  0.000
  0.000  0.000  0.012  0.398  0.000
  0.000  0.012  0.000  0.000  0.398
atom    5   Tr[ns(na)] =   5.43393
    eigenvalues: 
  0.839  0.930  0.948
    eigenvectors:
  0.337  0.000  0.663
  0.497  0.249  0.253
  0.166  0.751  0.084
    occupations:
  0.911  0.045  0.026
  0.045  0.889 -0.024
  0.026 -0.024  0.917
atom    6   Tr[ns(na)] =   5.43393
    eigenvalues: 
  0.839  0.930  0.948
    eigenvectors:
  0.337  0.000  0.663
  0.000  1.000  0.000
  0.663  0.000  0.337
    occupations:
  0.911  0.000 -0.052
  0.000  0.930  0.000
 -0.052  0.000  0.876
atom    7   Tr[ns(na)] =   5.43393
    eigenvalues: 
  0.839  0.930  0.948
    eigenvectors:
  0.337  0.000  0.663
  0.497  0.251  0.252
  0.166  0.749  0.085
    occupations:
  0.911 -0.045  0.026
 -0.045  0.889  0.024
  0.026  0.024  0.917
atom    8   Tr[ns(na)] =   5.43393
    eigenvalues: 
  0.839  0.930  0.948
    eigenvectors:
  0.337  0.000  0.663
  0.000  1.000  0.000
  0.663  0.000  0.337
    occupations:
  0.911  0.000 -0.052
  0.000  0.930  0.000
 -0.052  0.000  0.876
atom    9   Tr[ns(na)] =   5.43393
    eigenvalues: 
  0.839  0.930  0.948
    eigenvectors:
  0.337  0.000  0.663
  0.497  0.249  0.253
  0.166  0.751  0.084
    occupations:
  0.911  0.045  0.026
  0.045  0.889 -0.024
  0.026 -0.024  0.917
atom   10   Tr[ns(na)] =   5.43393
    eigenvalues: 
  0.839  0.930  0.948
    eigenvectors:
  0.337  0.000  0.663
  0.497  0.251  0.252
  0.166  0.749  0.085
    occupations:
  0.911 -0.045  0.026
 -0.045  0.889  0.024
  0.026  0.024  0.917
N of occupied +U levels =  56.2901636
 --- exit write_ns ---
 --- in v_hubbard ---
Hubbard energy    0.3457
 -------

     total cpu time spent up to now is      187.5 secs

     total energy              =    -537.95256720 Ry
     Harris-Foulkes estimate   =    -537.95253169 Ry
     estimated scf accuracy    <       0.00003084 Ry

     iteration #  9     ecut=    30.00 Ry     beta=0.20
     Davidson diagonalization with overlap
     ethr =  4.06E-08,  avg # of iterations =  2.0
 --- enter write_ns ---
 LDA+U parameters:
U( 1)     =  5.00000000
alpha( 1) = -0.05000000
U( 2)     =  5.00000000
alpha( 2) =  0.00000000
U( 3)     =  0.00000000
alpha( 3) =  0.00000000
U( 4)     =  0.00000000
alpha( 4) =  0.00000000
atom    1   Tr[ns(na)] =   8.05841
    eigenvalues: 
  0.521  0.521  0.995  0.995  0.998
    eigenvectors:
  0.000  0.000  0.000  0.000  1.000
  0.338  0.320  0.003  0.339  0.000
  0.320  0.338  0.339  0.003  0.000
  0.287  0.055  0.520  0.138  0.000
  0.055  0.287  0.138  0.520  0.000
    occupations:
  0.998  0.000  0.000  0.000  0.000
  0.000  0.683  0.000 -0.085  0.208
  0.000  0.000  0.683  0.208  0.085
  0.000 -0.085  0.208  0.833  0.000
  0.000  0.208  0.085  0.000  0.833
atom    2   Tr[ns(na)] =   8.04951
    eigenvalues: 
  0.518  0.518  0.995  0.995  0.998
    eigenvectors:
  0.000  0.000  0.000  0.000  1.000
  0.641  0.017  0.223  0.118  0.000
  0.017  0.641  0.118  0.223  0.000
  0.016  0.325  0.474  0.184  0.000
  0.325  0.016  0.184  0.474  0.000
    occupations:
  0.998  0.000  0.000  0.000  0.000
  0.000  0.681  0.000  0.085  0.210
  0.000  0.000  0.681  0.210 -0.085
  0.000  0.085  0.210  0.832  0.000
  0.000  0.210 -0.085  0.000  0.832
atom    3   Tr[ns(na)] =   3.79389
    eigenvalues: 
  0.356  0.356  0.381  0.402  0.402
    eigenvectors:
  0.000  0.000  1.000  0.000  0.000
  0.783  0.138  0.000  0.012  0.067
  0.138  0.783  0.000  0.067  0.012
  0.012  0.067  0.000  0.780  0.141
  0.067  0.012  0.000  0.141  0.780
    occupations:
  0.381  0.000  0.000  0.000  0.000
  0.000  0.360  0.000  0.000  0.012
  0.000  0.000  0.360  0.012  0.000
  0.000  0.000  0.012  0.398  0.000
  0.000  0.012  0.000  0.000  0.398
atom    4   Tr[ns(na)] =   3.79389
    eigenvalues: 
  0.356  0.356  0.381  0.402  0.402
    eigenvectors:
  0.000  0.000  1.000  0.000  0.000
  0.783  0.138  0.000  0.012  0.067
  0.138  0.783  0.000  0.067  0.012
  0.012  0.067  0.000  0.780  0.141
  0.067  0.012  0.000  0.141  0.780
    occupations:
  0.381  0.000  0.000  0.000  0.000
  0.000  0.360  0.000  0.000  0.012
  0.000  0.000  0.360  0.012  0.000
  0.000  0.000  0.012  0.398  0.000
  0.000  0.012  0.000  0.000  0.398
atom    5   Tr[ns(na)] =   5.43263
    eigenvalues: 
  0.838  0.930  0.948
    eigenvectors:
  0.337  0.000  0.663
  0.497  0.249  0.253
  0.166  0.751  0.084
    occupations:
  0.911  0.045  0.026
  0.045  0.889 -0.024
  0.026 -0.024  0.916
atom    6   Tr[ns(na)] =   5.43263
    eigenvalues: 
  0.838  0.930  0.948
    eigenvectors:
  0.337  0.000  0.663
  0.000  1.000  0.000
  0.663  0.000  0.337
    occupations:
  0.911  0.000 -0.052
  0.000  0.930  0.000
 -0.052  0.000  0.875
atom    7   Tr[ns(na)] =   5.43263
    eigenvalues: 
  0.838  0.930  0.948
    eigenvectors:
  0.337  0.000  0.663
  0.497  0.251  0.252
  0.166  0.749  0.085
    occupations:
  0.911 -0.045  0.026
 -0.045  0.889  0.024
  0.026  0.024  0.916
atom    8   Tr[ns(na)] =   5.43263
    eigenvalues: 
  0.838  0.930  0.948
    eigenvectors:
  0.337  0.000  0.663
  0.000  1.000  0.000
  0.663  0.000  0.337
    occupations:
  0.911  0.000 -0.052
  0.000  0.930  0.000
 -0.052  0.000  0.875
atom    9   Tr[ns(na)] =   5.43263
    eigenvalues: 
  0.838  0.930  0.948
    eigenvectors:
  0.337  0.000  0.663
  0.497  0.249  0.253
  0.166  0.751  0.084
    occupations:
  0.911  0.045  0.026
  0.045  0.889 -0.024
  0.026 -0.024  0.916
atom   10   Tr[ns(na)] =   5.43263
    eigenvalues: 
  0.838  0.930  0.948
    eigenvectors:
  0.337  0.000  0.663
  0.497  0.251  0.252
  0.166  0.749  0.085
    occupations:
  0.911 -0.045  0.026
 -0.045  0.889  0.024
  0.026  0.024  0.916
N of occupied +U levels =  56.2914761
 --- exit write_ns ---
 --- in v_hubbard ---
Hubbard energy    0.3458
 -------

     total cpu time spent up to now is      209.1 secs

     total energy              =    -537.95259974 Ry
     Harris-Foulkes estimate   =    -537.95257224 Ry
     estimated scf accuracy    <       0.00000435 Ry

     iteration # 10     ecut=    30.00 Ry     beta=0.20
     Davidson diagonalization with overlap
     ethr =  5.73E-09,  avg # of iterations =  1.6
 --- enter write_ns ---
 LDA+U parameters:
U( 1)     =  5.00000000
alpha( 1) = -0.05000000
U( 2)     =  5.00000000
alpha( 2) =  0.00000000
U( 3)     =  0.00000000
alpha( 3) =  0.00000000
U( 4)     =  0.00000000
alpha( 4) =  0.00000000
atom    1   Tr[ns(na)] =   8.05901
    eigenvalues: 
  0.521  0.521  0.995  0.995  0.998
    eigenvectors:
  0.000  0.000  0.000  0.000  1.000
  0.339  0.320  0.003  0.339  0.000
  0.320  0.339  0.339  0.003  0.000
  0.287  0.055  0.520  0.139  0.000
  0.055  0.287  0.139  0.520  0.000
    occupations:
  0.998  0.000  0.000  0.000  0.000
  0.000  0.683  0.000 -0.085  0.208
  0.000  0.000  0.683  0.208  0.085
  0.000 -0.085  0.208  0.833  0.000
  0.000  0.208  0.085  0.000  0.833
atom    2   Tr[ns(na)] =   8.04983
    eigenvalues: 
  0.518  0.518  0.995  0.995  0.998
    eigenvectors:
  0.000  0.000  0.000  0.000  1.000
  0.641  0.017  0.223  0.118  0.000
  0.017  0.641  0.118  0.223  0.000
  0.017  0.325  0.474  0.184  0.000
  0.325  0.017  0.184  0.474  0.000
    occupations:
  0.998  0.000  0.000  0.000  0.000
  0.000  0.681  0.000  0.085  0.210
  0.000  0.000  0.681  0.210 -0.085
  0.000  0.085  0.210  0.832  0.000
  0.000  0.210 -0.085  0.000  0.832
atom    3   Tr[ns(na)] =   3.79339
    eigenvalues: 
  0.356  0.356  0.381  0.402  0.402
    eigenvectors:
  0.000  0.000  1.000  0.000  0.000
  0.783  0.138  0.000  0.012  0.067
  0.138  0.783  0.000  0.067  0.012
  0.012  0.067  0.000  0.780  0.141
  0.067  0.012  0.000  0.141  0.780
    occupations:
  0.381  0.000  0.000  0.000  0.000
  0.000  0.360  0.000  0.000  0.012
  0.000  0.000  0.360  0.012  0.000
  0.000  0.000  0.012  0.398  0.000
  0.000  0.012  0.000  0.000  0.398
atom    4   Tr[ns(na)] =   3.79339
    eigenvalues: 
  0.356  0.356  0.381  0.402  0.402
    eigenvectors:
  0.000  0.000  1.000  0.000  0.000
  0.782  0.139  0.000  0.012  0.067
  0.139  0.782  0.000  0.067  0.012
  0.012  0.067  0.000  0.780  0.141
  0.067  0.012  0.000  0.141  0.780
    occupations:
  0.381  0.000  0.000  0.000  0.000
  0.000  0.360  0.000  0.000  0.012
  0.000  0.000  0.360  0.012  0.000
  0.000  0.000  0.012  0.398  0.000
  0.000  0.012  0.000  0.000  0.398
atom    5   Tr[ns(na)] =   5.43259
    eigenvalues: 
  0.838  0.930  0.948
    eigenvectors:
  0.337  0.000  0.663
  0.497  0.249  0.253
  0.166  0.751  0.084
    occupations:
  0.911  0.045  0.026
  0.045  0.889 -0.024
  0.026 -0.024  0.916
atom    6   Tr[ns(na)] =   5.43259
    eigenvalues: 
  0.838  0.930  0.948
    eigenvectors:
  0.337  0.000  0.663
  0.000  1.000  0.000
  0.663  0.000  0.337
    occupations:
  0.911  0.000 -0.052
  0.000  0.930  0.000
 -0.052  0.000  0.875
atom    7   Tr[ns(na)] =   5.43259
    eigenvalues: 
  0.838  0.930  0.948
    eigenvectors:
  0.337  0.000  0.663
  0.497  0.251  0.252
  0.166  0.749  0.085
    occupations:
  0.911 -0.045  0.026
 -0.045  0.889  0.024
  0.026  0.024  0.916
atom    8   Tr[ns(na)] =   5.43259
    eigenvalues: 
  0.838  0.930  0.948
    eigenvectors:
  0.337  0.000  0.663
  0.000  1.000  0.000
  0.663  0.000  0.337
    occupations:
  0.911  0.000 -0.052
  0.000  0.930  0.000
 -0.052  0.000  0.875
atom    9   Tr[ns(na)] =   5.43259
    eigenvalues: 
  0.838  0.930  0.948
    eigenvectors:
  0.337  0.000  0.663
  0.497  0.249  0.253
  0.166  0.751  0.084
    occupations:
  0.911  0.045  0.026
  0.045  0.889 -0.024
  0.026 -0.024  0.916
atom   10   Tr[ns(na)] =   5.43259
    eigenvalues: 
  0.838  0.930  0.948
    eigenvectors:
  0.337  0.000  0.663
  0.497  0.251  0.252
  0.166  0.749  0.085
    occupations:
  0.911 -0.045  0.026
 -0.045  0.889  0.024
  0.026  0.024  0.916
N of occupied +U levels =  56.2911728
 --- exit write_ns ---
 --- in v_hubbard ---
Hubbard energy    0.3461
 -------

     total cpu time spent up to now is      225.9 secs

     total energy              =    -537.95261612 Ry
     Harris-Foulkes estimate   =    -537.95260008 Ry
     estimated scf accuracy    <       0.00000330 Ry

     iteration # 11     ecut=    30.00 Ry     beta=0.20
     Davidson diagonalization with overlap
     ethr =  4.34E-09,  avg # of iterations =  2.0
 --- enter write_ns ---
 LDA+U parameters:
U( 1)     =  5.00000000
alpha( 1) = -0.05000000
U( 2)     =  5.00000000
alpha( 2) =  0.00000000
U( 3)     =  0.00000000
alpha( 3) =  0.00000000
U( 4)     =  0.00000000
alpha( 4) =  0.00000000
atom    1   Tr[ns(na)] =   8.05791
    eigenvalues: 
  0.521  0.521  0.995  0.995  0.998
    eigenvectors:
  0.000  0.000  0.000  0.000  1.000
  0.339  0.320  0.003  0.339  0.000
  0.320  0.339  0.339  0.003  0.000
  0.287  0.055  0.520  0.138  0.000
  0.055  0.287  0.138  0.520  0.000
    occupations:
  0.998  0.000  0.000  0.000  0.000
  0.000  0.683  0.000 -0.085  0.208
  0.000  0.000  0.683  0.208  0.085
  0.000 -0.085  0.208  0.833  0.000
  0.000  0.208  0.085  0.000  0.833
atom    2   Tr[ns(na)] =   8.04814
    eigenvalues: 
  0.518  0.518  0.995  0.995  0.998
    eigenvectors:
  0.000  0.000  0.000  0.000  1.000
  0.642  0.017  0.224  0.118  0.000
  0.017  0.642  0.118  0.224  0.000
  0.017  0.325  0.474  0.184  0.000
  0.325  0.017  0.184  0.474  0.000
    occupations:
  0.998  0.000  0.000  0.000  0.000
  0.000  0.681  0.000  0.085  0.210
  0.000  0.000  0.681  0.210 -0.085
  0.000  0.085  0.210  0.832  0.000
  0.000  0.210 -0.085  0.000  0.832
atom    3   Tr[ns(na)] =   3.79258
    eigenvalues: 
  0.356  0.356  0.381  0.402  0.402
    eigenvectors:
  0.000  0.000  1.000  0.000  0.000
  0.782  0.139  0.000  0.012  0.067
  0.139  0.782  0.000  0.067  0.012
  0.012  0.067  0.000  0.780  0.141
  0.067  0.012  0.000  0.141  0.780
    occupations:
  0.381  0.000  0.000  0.000  0.000
  0.000  0.360  0.000  0.000  0.012
  0.000  0.000  0.360  0.012  0.000
  0.000  0.000  0.012  0.398  0.000
  0.000  0.012  0.000  0.000  0.398
atom    4   Tr[ns(na)] =   3.79258
    eigenvalues: 
  0.356  0.356  0.381  0.402  0.402
    eigenvectors:
  0.000  0.000  1.000  0.000  0.000
  0.783  0.138  0.000  0.012  0.067
  0.138  0.783  0.000  0.067  0.012
  0.012  0.067  0.000  0.780  0.141
  0.067  0.012  0.000  0.141  0.780
    occupations:
  0.381  0.000  0.000  0.000  0.000
  0.000  0.360  0.000  0.000  0.012
  0.000  0.000  0.360  0.012  0.000
  0.000  0.000  0.012  0.398  0.000
  0.000  0.012  0.000  0.000  0.398
atom    5   Tr[ns(na)] =   5.43319
    eigenvalues: 
  0.838  0.930  0.948
    eigenvectors:
  0.337  0.000  0.663
  0.497  0.250  0.253
  0.166  0.750  0.084
    occupations:
  0.911  0.045  0.026
  0.045  0.889 -0.024
  0.026 -0.024  0.916
atom    6   Tr[ns(na)] =   5.43319
    eigenvalues: 
  0.838  0.930  0.948
    eigenvectors:
  0.337  0.000  0.663
  0.000  1.000  0.000
  0.663  0.000  0.337
    occupations:
  0.911  0.000 -0.052
  0.000  0.930  0.000
 -0.052  0.000  0.875
atom    7   Tr[ns(na)] =   5.43319
    eigenvalues: 
  0.838  0.930  0.948
    eigenvectors:
  0.337  0.000  0.663
  0.497  0.250  0.252
  0.166  0.750  0.085
    occupations:
  0.911 -0.045  0.026
 -0.045  0.889  0.024
  0.026  0.024  0.917
atom    8   Tr[ns(na)] =   5.43319
    eigenvalues: 
  0.838  0.930  0.948
    eigenvectors:
  0.337  0.000  0.663
  0.000  1.000  0.000
  0.663  0.000  0.337
    occupations:
  0.911  0.000 -0.052
  0.000  0.930  0.000
 -0.052  0.000  0.875
atom    9   Tr[ns(na)] =   5.43319
    eigenvalues: 
  0.838  0.930  0.948
    eigenvectors:
  0.337  0.000  0.663
  0.497  0.250  0.253
  0.166  0.750  0.084
    occupations:
  0.911  0.045  0.026
  0.045  0.889 -0.024
  0.026 -0.024  0.916
atom   10   Tr[ns(na)] =   5.43319
    eigenvalues: 
  0.838  0.930  0.948
    eigenvectors:
  0.337  0.000  0.663
  0.497  0.250  0.252
  0.166  0.750  0.085
    occupations:
  0.911 -0.045  0.026
 -0.045  0.889  0.024
  0.026  0.024  0.917
N of occupied +U levels =  56.2903489
 --- exit write_ns ---
 --- in v_hubbard ---
Hubbard energy    0.3462
 -------

     total cpu time spent up to now is      242.9 secs

     total energy              =    -537.95262931 Ry
     Harris-Foulkes estimate   =    -537.95261722 Ry
     estimated scf accuracy    <       0.00000104 Ry

     iteration # 12     ecut=    30.00 Ry     beta=0.20
     Davidson diagonalization with overlap
     ethr =  1.37E-09,  avg # of iterations =  2.0
 --- enter write_ns ---
 LDA+U parameters:
U( 1)     =  5.00000000
alpha( 1) = -0.05000000
U( 2)     =  5.00000000
alpha( 2) =  0.00000000
U( 3)     =  0.00000000
alpha( 3) =  0.00000000
U( 4)     =  0.00000000
alpha( 4) =  0.00000000
atom    1   Tr[ns(na)] =   8.05818
    eigenvalues: 
  0.521  0.521  0.995  0.995  0.998
    eigenvectors:
  0.000  0.000  0.000  0.000  1.000
  0.339  0.319  0.003  0.339  0.000
  0.319  0.339  0.339  0.003  0.000
  0.287  0.055  0.520  0.138  0.000
  0.055  0.287  0.138  0.520  0.000
    occupations:
  0.998  0.000  0.000  0.000  0.000
  0.000  0.683  0.000 -0.085  0.208
  0.000  0.000  0.683  0.208  0.085
  0.000 -0.085  0.208  0.833  0.000
  0.000  0.208  0.085  0.000  0.833
atom    2   Tr[ns(na)] =   8.04879
    eigenvalues: 
  0.518  0.518  0.995  0.995  0.998
    eigenvectors:
  0.000  0.000  0.000  0.000  1.000
  0.642  0.017  0.224  0.118  0.000
  0.017  0.642  0.118  0.224  0.000
  0.017  0.325  0.474  0.184  0.000
  0.325  0.017  0.184  0.474  0.000
    occupations:
  0.998  0.000  0.000  0.000  0.000
  0.000  0.681  0.000  0.085  0.210
  0.000  0.000  0.681  0.210 -0.085
  0.000  0.085  0.210  0.832  0.000
  0.000  0.210 -0.085  0.000  0.832
atom    3   Tr[ns(na)] =   3.79291
    eigenvalues: 
  0.356  0.356  0.381  0.402  0.402
    eigenvectors:
  0.000  0.000  1.000  0.000  0.000
  0.783  0.139  0.000  0.012  0.067
  0.139  0.783  0.000  0.067  0.012
  0.012  0.067  0.000  0.780  0.141
  0.067  0.012  0.000  0.141  0.780
    occupations:
  0.381  0.000  0.000  0.000  0.000
  0.000  0.360  0.000  0.000  0.012
  0.000  0.000  0.360  0.012  0.000
  0.000  0.000  0.012  0.398  0.000
  0.000  0.012  0.000  0.000  0.398
atom    4   Tr[ns(na)] =   3.79291
    eigenvalues: 
  0.356  0.356  0.381  0.402  0.402
    eigenvectors:
  0.000  0.000  1.000  0.000  0.000
  0.782  0.139  0.000  0.012  0.067
  0.139  0.782  0.000  0.067  0.012
  0.012  0.067  0.000  0.780  0.141
  0.067  0.012  0.000  0.141  0.780
    occupations:
  0.381  0.000  0.000  0.000  0.000
  0.000  0.360  0.000  0.000  0.012
  0.000  0.000  0.360  0.012  0.000
  0.000  0.000  0.012  0.398  0.000
  0.000  0.012  0.000  0.000  0.398
atom    5   Tr[ns(na)] =   5.43298
    eigenvalues: 
  0.838  0.930  0.948
    eigenvectors:
  0.337  0.000  0.663
  0.497  0.250  0.253
  0.166  0.750  0.084
    occupations:
  0.911  0.045  0.026
  0.045  0.889 -0.024
  0.026 -0.024  0.916
atom    6   Tr[ns(na)] =   5.43298
    eigenvalues: 
  0.838  0.930  0.948
    eigenvectors:
  0.337  0.000  0.663
  0.000  1.000  0.000
  0.663  0.000  0.337
    occupations:
  0.911  0.000 -0.052
  0.000  0.930  0.000
 -0.052  0.000  0.875
atom    7   Tr[ns(na)] =   5.43298
    eigenvalues: 
  0.838  0.930  0.948
    eigenvectors:
  0.337  0.000  0.663
  0.497  0.250  0.252
  0.166  0.750  0.085
    occupations:
  0.911 -0.045  0.026
 -0.045  0.889  0.024
  0.026  0.024  0.916
atom    8   Tr[ns(na)] =   5.43298
    eigenvalues: 
  0.838  0.930  0.948
    eigenvectors:
  0.337  0.000  0.663
  0.000  1.000  0.000
  0.663  0.000  0.337
    occupations:
  0.911  0.000 -0.052
  0.000  0.930  0.000
 -0.052  0.000  0.875
atom    9   Tr[ns(na)] =   5.43298
    eigenvalues: 
  0.838  0.930  0.948
    eigenvectors:
  0.337  0.000  0.663
  0.497  0.250  0.253
  0.166  0.750  0.084
    occupations:
  0.911  0.045  0.026
  0.045  0.889 -0.024
  0.026 -0.024  0.916
atom   10   Tr[ns(na)] =   5.43298
    eigenvalues: 
  0.838  0.930  0.948
    eigenvectors:
  0.337  0.000  0.663
  0.497  0.250  0.252
  0.166  0.750  0.085
    occupations:
  0.911 -0.045  0.026
 -0.045  0.889  0.024
  0.026  0.024  0.916
N of occupied +U levels =  56.2906507
 --- exit write_ns ---
 --- in v_hubbard ---
Hubbard energy    0.3460
 -------

     total cpu time spent up to now is      260.3 secs

     total energy              =    -537.95263704 Ry
     Harris-Foulkes estimate   =    -537.95262946 Ry
     estimated scf accuracy    <       0.00000021 Ry

     iteration # 13     ecut=    30.00 Ry     beta=0.20
     Davidson diagonalization with overlap
     ethr =  2.74E-10,  avg # of iterations =  2.0
 --- enter write_ns ---
 LDA+U parameters:
U( 1)     =  5.00000000
alpha( 1) = -0.05000000
U( 2)     =  5.00000000
alpha( 2) =  0.00000000
U( 3)     =  0.00000000
alpha( 3) =  0.00000000
U( 4)     =  0.00000000
alpha( 4) =  0.00000000
atom    1   Tr[ns(na)] =   8.05811
    eigenvalues: 
  0.521  0.521  0.995  0.995  0.998
    eigenvectors:
  0.000  0.000  0.000  0.000  1.000
  0.339  0.319  0.003  0.339  0.000
  0.319  0.339  0.339  0.003  0.000
  0.287  0.055  0.520  0.138  0.000
  0.055  0.287  0.138  0.520  0.000
    occupations:
  0.998  0.000  0.000  0.000  0.000
  0.000  0.683  0.000 -0.085  0.208
  0.000  0.000  0.683  0.208  0.085
  0.000 -0.085  0.208  0.833  0.000
  0.000  0.208  0.085  0.000  0.833
atom    2   Tr[ns(na)] =   8.04878
    eigenvalues: 
  0.518  0.518  0.995  0.995  0.998
    eigenvectors:
  0.000  0.000  0.000  0.000  1.000
  0.642  0.016  0.224  0.118  0.000
  0.016  0.642  0.118  0.224  0.000
  0.017  0.324  0.474  0.184  0.000
  0.324  0.017  0.184  0.474  0.000
    occupations:
  0.998  0.000  0.000  0.000  0.000
  0.000  0.681  0.000  0.085  0.210
  0.000  0.000  0.681  0.210 -0.085
  0.000  0.085  0.210  0.832  0.000
  0.000  0.210 -0.085  0.000  0.832
atom    3   Tr[ns(na)] =   3.79318
    eigenvalues: 
  0.356  0.356  0.381  0.402  0.402
    eigenvectors:
  0.000  0.000  1.000  0.000  0.000
  0.783  0.139  0.000  0.012  0.067
  0.139  0.783  0.000  0.067  0.012
  0.012  0.067  0.000  0.780  0.141
  0.067  0.012  0.000  0.141  0.780
    occupations:
  0.381  0.000  0.000  0.000  0.000
  0.000  0.360  0.000  0.000  0.012
  0.000  0.000  0.360  0.012  0.000
  0.000  0.000  0.012  0.398  0.000
  0.000  0.012  0.000  0.000  0.398
atom    4   Tr[ns(na)] =   3.79318
    eigenvalues: 
  0.356  0.356  0.381  0.402  0.402
    eigenvectors:
  0.000  0.000  1.000  0.000  0.000
  0.782  0.139  0.000  0.012  0.067
  0.139  0.782  0.000  0.067  0.012
  0.012  0.066  0.000  0.780  0.141
  0.066  0.012  0.000  0.141  0.780
    occupations:
  0.381  0.000  0.000  0.000  0.000
  0.000  0.360  0.000  0.000  0.012
  0.000  0.000  0.360  0.012  0.000
  0.000  0.000  0.012  0.398  0.000
  0.000  0.012  0.000  0.000  0.398
atom    5   Tr[ns(na)] =   5.43293
    eigenvalues: 
  0.838  0.930  0.948
    eigenvectors:
  0.337  0.000  0.663
  0.497  0.250  0.253
  0.166  0.750  0.084
    occupations:
  0.911  0.045  0.026
  0.045  0.889 -0.024
  0.026 -0.024  0.916
atom    6   Tr[ns(na)] =   5.43293
    eigenvalues: 
  0.838  0.930  0.948
    eigenvectors:
  0.337  0.000  0.663
  0.000  1.000  0.000
  0.663  0.000  0.337
    occupations:
  0.911  0.000 -0.052
  0.000  0.930  0.000
 -0.052  0.000  0.875
atom    7   Tr[ns(na)] =   5.43293
    eigenvalues: 
  0.838  0.930  0.948
    eigenvectors:
  0.337  0.000  0.663
  0.497  0.250  0.252
  0.166  0.750  0.085
    occupations:
  0.911 -0.045  0.026
 -0.045  0.889  0.024
  0.026  0.024  0.916
atom    8   Tr[ns(na)] =   5.43293
    eigenvalues: 
  0.838  0.930  0.948
    eigenvectors:
  0.337  0.000  0.663
  0.000  1.000  0.000
  0.663  0.000  0.337
    occupations:
  0.911  0.000 -0.052
  0.000  0.930  0.000
 -0.052  0.000  0.875
atom    9   Tr[ns(na)] =   5.43293
    eigenvalues: 
  0.838  0.930  0.948
    eigenvectors:
  0.337  0.000  0.663
  0.497  0.250  0.253
  0.166  0.750  0.084
    occupations:
  0.911  0.045  0.026
  0.045  0.889 -0.024
  0.026 -0.024  0.916
atom   10   Tr[ns(na)] =   5.43293
    eigenvalues: 
  0.838  0.930  0.948
    eigenvectors:
  0.337  0.000  0.663
  0.497  0.250  0.252
  0.166  0.750  0.085
    occupations:
  0.911 -0.045  0.026
 -0.045  0.889  0.024
  0.026  0.024  0.916
N of occupied +U levels =  56.2908461
 --- exit write_ns ---
 --- in v_hubbard ---
Hubbard energy    0.3460
 -------

     total cpu time spent up to now is      279.6 secs

     total energy              =    -537.95264211 Ry
     Harris-Foulkes estimate   =    -537.95263717 Ry
     estimated scf accuracy    <       0.00000010 Ry

     iteration # 14     ecut=    30.00 Ry     beta=0.20
     Davidson diagonalization with overlap
     ethr =  1.37E-10,  avg # of iterations =  1.0
 --- enter write_ns ---
 LDA+U parameters:
U( 1)     =  5.00000000
alpha( 1) = -0.05000000
U( 2)     =  5.00000000
alpha( 2) =  0.00000000
U( 3)     =  0.00000000
alpha( 3) =  0.00000000
U( 4)     =  0.00000000
alpha( 4) =  0.00000000
atom    1   Tr[ns(na)] =   8.05816
    eigenvalues: 
  0.521  0.521  0.995  0.995  0.998
    eigenvectors:
  0.000  0.000  0.000  0.000  1.000
  0.339  0.319  0.003  0.339  0.000
  0.319  0.339  0.339  0.003  0.000
  0.287  0.055  0.520  0.138  0.000
  0.055  0.287  0.138  0.520  0.000
    occupations:
  0.998  0.000  0.000  0.000  0.000
  0.000  0.683  0.000 -0.085  0.208
  0.000  0.000  0.683  0.208  0.085
  0.000 -0.085  0.208  0.833  0.000
  0.000  0.208  0.085  0.000  0.833
atom    2   Tr[ns(na)] =   8.04879
    eigenvalues: 
  0.518  0.518  0.995  0.995  0.998
    eigenvectors:
  0.000  0.000  0.000  0.000  1.000
  0.642  0.017  0.224  0.118  0.000
  0.017  0.642  0.118  0.224  0.000
  0.017  0.324  0.474  0.184  0.000
  0.324  0.017  0.184  0.474  0.000
    occupations:
  0.998  0.000  0.000  0.000  0.000
  0.000  0.681  0.000  0.085  0.210
  0.000  0.000  0.681  0.210 -0.085
  0.000  0.085  0.210  0.832  0.000
  0.000  0.210 -0.085  0.000  0.832
atom    3   Tr[ns(na)] =   3.79314
    eigenvalues: 
  0.356  0.356  0.381  0.402  0.402
    eigenvectors:
  0.000  0.000  1.000  0.000  0.000
  0.782  0.139  0.000  0.012  0.067
  0.139  0.782  0.000  0.067  0.012
  0.012  0.067  0.000  0.780  0.141
  0.067  0.012  0.000  0.141  0.780
    occupations:
  0.381  0.000  0.000  0.000  0.000
  0.000  0.360  0.000  0.000  0.012
  0.000  0.000  0.360  0.012  0.000
  0.000  0.000  0.012  0.398  0.000
  0.000  0.012  0.000  0.000  0.398
atom    4   Tr[ns(na)] =   3.79314
    eigenvalues: 
  0.356  0.356  0.381  0.402  0.402
    eigenvectors:
  0.000  0.000  1.000  0.000  0.000
  0.782  0.139  0.000  0.012  0.067
  0.139  0.782  0.000  0.067  0.012
  0.012  0.067  0.000  0.780  0.141
  0.067  0.012  0.000  0.141  0.780
    occupations:
  0.381  0.000  0.000  0.000  0.000
  0.000  0.360  0.000  0.000  0.012
  0.000  0.000  0.360  0.012  0.000
  0.000  0.000  0.012  0.398  0.000
  0.000  0.012  0.000  0.000  0.398
atom    5   Tr[ns(na)] =   5.43293
    eigenvalues: 
  0.838  0.930  0.948
    eigenvectors:
  0.337  0.000  0.663
  0.497  0.250  0.253
  0.166  0.750  0.084
    occupations:
  0.911  0.045  0.026
  0.045  0.889 -0.024
  0.026 -0.024  0.916
atom    6   Tr[ns(na)] =   5.43293
    eigenvalues: 
  0.838  0.930  0.948
    eigenvectors:
  0.337  0.000  0.663
  0.000  1.000  0.000
  0.663  0.000  0.337
    occupations:
  0.911  0.000 -0.052
  0.000  0.930  0.000
 -0.052  0.000  0.875
atom    7   Tr[ns(na)] =   5.43293
    eigenvalues: 
  0.838  0.930  0.948
    eigenvectors:
  0.337  0.000  0.663
  0.497  0.250  0.252
  0.166  0.750  0.085
    occupations:
  0.911 -0.045  0.026
 -0.045  0.889  0.024
  0.026  0.024  0.916
atom    8   Tr[ns(na)] =   5.43293
    eigenvalues: 
  0.838  0.930  0.948
    eigenvectors:
  0.337  0.000  0.663
  0.000  1.000  0.000
  0.663  0.000  0.337
    occupations:
  0.911  0.000 -0.052
  0.000  0.930  0.000
 -0.052  0.000  0.875
atom    9   Tr[ns(na)] =   5.43293
    eigenvalues: 
  0.838  0.930  0.948
    eigenvectors:
  0.337  0.000  0.663
  0.497  0.250  0.253
  0.166  0.750  0.084
    occupations:
  0.911  0.045  0.026
  0.045  0.889 -0.024
  0.026 -0.024  0.916
atom   10   Tr[ns(na)] =   5.43293
    eigenvalues: 
  0.838  0.930  0.948
    eigenvectors:
  0.337  0.000  0.663
  0.497  0.250  0.252
  0.166  0.750  0.085
    occupations:
  0.911 -0.045  0.026
 -0.045  0.889  0.024
  0.026  0.024  0.916
N of occupied +U levels =  56.2908235
 --- exit write_ns ---
 --- in v_hubbard ---
Hubbard energy    0.3460
 -------

     total cpu time spent up to now is      292.9 secs

     total energy              =    -537.95264524 Ry
     Harris-Foulkes estimate   =    -537.95264211 Ry
     estimated scf accuracy    <       0.00000006 Ry

     iteration # 15     ecut=    30.00 Ry     beta=0.20
     Davidson diagonalization with overlap
     ethr =  8.21E-11,  avg # of iterations =  2.0
 --- enter write_ns ---
 LDA+U parameters:
U( 1)     =  5.00000000
alpha( 1) = -0.05000000
U( 2)     =  5.00000000
alpha( 2) =  0.00000000
U( 3)     =  0.00000000
alpha( 3) =  0.00000000
U( 4)     =  0.00000000
alpha( 4) =  0.00000000
atom    1   Tr[ns(na)] =   8.05811
    eigenvalues: 
  0.521  0.521  0.995  0.995  0.998
    eigenvectors:
  0.000  0.000  0.000  0.000  1.000
  0.339  0.320  0.003  0.339  0.000
  0.320  0.339  0.339  0.003  0.000
  0.287  0.055  0.520  0.138  0.000
  0.055  0.287  0.138  0.520  0.000
    occupations:
  0.998  0.000  0.000  0.000  0.000
  0.000  0.683  0.000 -0.085  0.208
  0.000  0.000  0.683  0.208  0.085
  0.000 -0.085  0.208  0.833  0.000
  0.000  0.208  0.085  0.000  0.833
atom    2   Tr[ns(na)] =   8.04868
    eigenvalues: 
  0.518  0.518  0.995  0.995  0.998
    eigenvectors:
  0.000  0.000  0.000  0.000  1.000
  0.642  0.017  0.224  0.118  0.000
  0.017  0.642  0.118  0.224  0.000
  0.017  0.324  0.475  0.184  0.000
  0.324  0.017  0.184  0.475  0.000
    occupations:
  0.998  0.000  0.000  0.000  0.000
  0.000  0.681  0.000  0.085  0.210
  0.000  0.000  0.681  0.210 -0.085
  0.000  0.085  0.210  0.832  0.000
  0.000  0.210 -0.085  0.000  0.832
atom    3   Tr[ns(na)] =   3.79300
    eigenvalues: 
  0.356  0.356  0.381  0.402  0.402
    eigenvectors:
  0.000  0.000  1.000  0.000  0.000
  0.782  0.139  0.000  0.012  0.067
  0.139  0.782  0.000  0.067  0.012
  0.012  0.067  0.000  0.780  0.141
  0.067  0.012  0.000  0.141  0.780
    occupations:
  0.381  0.000  0.000  0.000  0.000
  0.000  0.360  0.000  0.000  0.012
  0.000  0.000  0.360  0.012  0.000
  0.000  0.000  0.012  0.398  0.000
  0.000  0.012  0.000  0.000  0.398
atom    4   Tr[ns(na)] =   3.79300
    eigenvalues: 
  0.356  0.356  0.381  0.402  0.402
    eigenvectors:
  0.000  0.000  1.000  0.000  0.000
  0.783  0.138  0.000  0.012  0.067
  0.138  0.783  0.000  0.067  0.012
  0.012  0.067  0.000  0.781  0.140
  0.067  0.012  0.000  0.140  0.781
    occupations:
  0.381  0.000  0.000  0.000  0.000
  0.000  0.360  0.000  0.000  0.012
  0.000  0.000  0.360  0.012  0.000
  0.000  0.000  0.012  0.398  0.000
  0.000  0.012  0.000  0.000  0.398
atom    5   Tr[ns(na)] =   5.43299
    eigenvalues: 
  0.838  0.930  0.948
    eigenvectors:
  0.337  0.000  0.663
  0.497  0.250  0.253
  0.166  0.750  0.084
    occupations:
  0.911  0.045  0.026
  0.045  0.889 -0.024
  0.026 -0.024  0.916
atom    6   Tr[ns(na)] =   5.43299
    eigenvalues: 
  0.838  0.930  0.948
    eigenvectors:
  0.337  0.000  0.663
  0.000  1.000  0.000
  0.663  0.000  0.337
    occupations:
  0.911  0.000 -0.052
  0.000  0.930  0.000
 -0.052  0.000  0.875
atom    7   Tr[ns(na)] =   5.43299
    eigenvalues: 
  0.838  0.930  0.948
    eigenvectors:
  0.337  0.000  0.663
  0.497  0.250  0.252
  0.166  0.750  0.085
    occupations:
  0.911 -0.045  0.026
 -0.045  0.889  0.024
  0.026  0.024  0.916
atom    8   Tr[ns(na)] =   5.43299
    eigenvalues: 
  0.838  0.930  0.948
    eigenvectors:
  0.337  0.000  0.663
  0.000  1.000  0.000
  0.663  0.000  0.337
    occupations:
  0.911  0.000 -0.052
  0.000  0.930  0.000
 -0.052  0.000  0.875
atom    9   Tr[ns(na)] =   5.43299
    eigenvalues: 
  0.838  0.930  0.948
    eigenvectors:
  0.337  0.000  0.663
  0.497  0.250  0.253
  0.166  0.750  0.084
    occupations:
  0.911  0.045  0.026
  0.045  0.889 -0.024
  0.026 -0.024  0.916
atom   10   Tr[ns(na)] =   5.43299
    eigenvalues: 
  0.838  0.930  0.948
    eigenvectors:
  0.337  0.000  0.663
  0.497  0.250  0.252
  0.166  0.750  0.085
    occupations:
  0.911 -0.045  0.026
 -0.045  0.889  0.024
  0.026  0.024  0.916
N of occupied +U levels =  56.2907218
 --- exit write_ns ---
 --- in v_hubbard ---
Hubbard energy    0.3460
 -------

     total cpu time spent up to now is      311.5 secs

     End of self-consistent calculation

          k = 0.0000 0.0000 0.0000 (  2175 PWs)   bands (ev):

   -19.7958 -19.6226  -6.5528  -5.8769  -5.8769  -5.8270  -5.8270  -5.4877
    -3.8745  -3.2737  -3.2737  -3.2579  -3.0243  -3.0243   5.1719   6.5063
     6.5063   6.5620   6.7345   6.7345   7.5082   7.5082   7.7059   8.1917
     8.4406   8.4406   9.2922   9.6209   9.6209   9.9839   9.9839  10.1658
    10.4537  10.4537  10.6706  10.8314  10.8314  11.1597  11.8652  11.8652
    14.7161  14.7161  15.4289  15.4289  16.2000  16.7859

     occupation numbers 
     0.0313   0.0313   0.0313   0.0313   0.0313   0.0313   0.0313   0.0313
     0.0313   0.0313   0.0313   0.0313   0.0313   0.0313   0.0313   0.0313
     0.0313   0.0313   0.0313   0.0313   0.0313   0.0313   0.0313   0.0313
     0.0313   0.0313   0.0312   0.0312   0.0312   0.0312   0.0312   0.0312
     0.0312   0.0312   0.0312   0.0309   0.0309   0.0275   0.0032   0.0032
     0.0000   0.0000   0.0000   0.0000   0.0000   0.0000

          k =-0.2471-0.1427 0.1027 (  2181 PWs)   bands (ev):

   -19.7711 -19.6632  -6.7308  -6.3046  -5.9702  -5.8644  -5.6206  -5.4899
    -3.6521  -3.4197  -2.9493  -2.9114  -2.8738  -2.7694   5.5010   6.2295
     6.5461   6.6069   6.7216   6.7695   6.9263   7.4483   7.5686   7.6670
     7.8477   8.2073   9.4196   9.5598   9.7008   9.8891   9.9466  10.0194
    10.2377  10.3720  10.3973  10.8196  10.9338  10.9525  12.2690  12.3423
    14.2634  14.2743  15.8162  16.0698  16.9723  17.2662

     occupation numbers 
     0.1875   0.1875   0.1875   0.1875   0.1875   0.1875   0.1875   0.1875
     0.1875   0.1875   0.1875   0.1875   0.1875   0.1875   0.1875   0.1875
     0.1875   0.1875   0.1875   0.1875   0.1875   0.1875   0.1875   0.1875
     0.1875   0.1875   0.1875   0.1875   0.1875   0.1875   0.1875   0.1875
     0.1875   0.1875   0.1875   0.1857   0.1827   0.1820   0.0007   0.0003
     0.0000   0.0000   0.0000   0.0000   0.0000   0.0000

          k = 0.4942 0.2853-0.2053 (  2202 PWs)   bands (ev):

   -19.7256 -19.7252  -6.7297  -6.7183  -5.9772  -5.9735  -5.5323  -5.5296
    -3.4097  -3.4057  -2.8069  -2.8037  -2.5083  -2.5065   5.7892   5.8033
     6.6138   6.6397   6.8426   6.8711   7.0500   7.0699   7.2893   7.3160
     7.4426   7.4715   9.3565   9.3633   9.8054   9.8147  10.1554  10.1781
    10.1992  10.2150  10.4213  10.4420  10.7055  10.7275  13.2477  13.2922
    13.3312  13.3756  16.8314  16.8362  17.1278  17.1305

     occupation numbers 
     0.0938   0.0938   0.0938   0.0938   0.0938   0.0938   0.0938   0.0938
     0.0938   0.0938   0.0938   0.0938   0.0938   0.0938   0.0938   0.0938
     0.0938   0.0938   0.0938   0.0938   0.0938   0.0938   0.0938   0.0938
     0.0938   0.0938   0.0937   0.0937   0.0937   0.0937   0.0937   0.0937
     0.0937   0.0937   0.0937   0.0937   0.0935   0.0934   0.0000   0.0000
     0.0000   0.0000   0.0000   0.0000   0.0000   0.0000

          k =-0.2471 0.1427 0.2053 (  2195 PWs)   bands (ev):

   -19.7632 -19.6763  -6.8569  -6.2522  -6.0805  -5.8415  -5.6627  -5.4804
    -3.4521  -3.2763  -3.1216  -2.9122  -2.8424  -2.5613   5.5412   5.9393
     6.3674   6.6277   6.6908   7.0922   7.1080   7.3398   7.4437   7.7156
     7.8695   8.3992   8.7234   9.2850   9.7403   9.8382   9.9752   9.9899
    10.2498  10.5451  10.6502  10.7492  10.8396  10.8931  11.7989  12.6951
    13.5944  14.7347  15.9937  16.1959  17.0358  17.5373

     occupation numbers 
     0.1875   0.1875   0.1875   0.1875   0.1875   0.1875   0.1875   0.1875
     0.1875   0.1875   0.1875   0.1875   0.1875   0.1875   0.1875   0.1875
     0.1875   0.1875   0.1875   0.1875   0.1875   0.1875   0.1875   0.1875
     0.1875   0.1875   0.1875   0.1875   0.1875   0.1875   0.1875   0.1875
     0.1875   0.1874   0.1872   0.1866   0.1854   0.1841   0.0278   0.0000
     0.0000   0.0000   0.0000   0.0000   0.0000   0.0000

          k = 0.4942 0.5706-0.1027 (  2198 PWs)   bands (ev):

   -19.7351 -19.7202  -6.9594  -6.6510  -6.1362  -5.8986  -5.5225  -5.3981
    -3.3305  -3.2685  -2.8854  -2.7157  -2.5323  -2.3884   5.6265   5.9148
     6.0822   6.6515   6.7528   6.8262   6.8931   7.2146   7.3218   7.3785
     7.8635   8.1325   8.8255   9.1467   9.4716   9.7204   9.7432  10.0777
    10.2705  10.4338  10.4953  10.5874  10.7533  10.9258  12.2624  12.7001
    13.3889  14.3153  16.9041  17.1130  17.3058  18.0138

     occupation numbers 
     0.1875   0.1875   0.1875   0.1875   0.1875   0.1875   0.1875   0.1875
     0.1875   0.1875   0.1875   0.1875   0.1875   0.1875   0.1875   0.1875
     0.1875   0.1875   0.1875   0.1875   0.1875   0.1875   0.1875   0.1875
     0.1875   0.1875   0.1875   0.1875   0.1875   0.1875   0.1875   0.1875
     0.1875   0.1875   0.1875   0.1873   0.1866   0.1830   0.0008   0.0000
     0.0000   0.0000   0.0000   0.0000   0.0000   0.0000

          k = 0.2471 0.4280 0.0000 (  2203 PWs)   bands (ev):

   -19.7476 -19.7025  -6.8505  -6.6483  -6.0583  -5.9879  -5.4497  -5.3811
    -3.5647  -3.3051  -2.8071  -2.7111  -2.5806  -2.5698   5.7896   5.8237
     6.3836   6.5857   6.7058   6.7435   7.0707   7.1422   7.2704   7.4572
     7.5028   8.3733   8.8743   9.3033   9.6892   9.7236   9.9619  10.1904
    10.2895  10.2944  10.5056  10.5499  10.5674  11.0047  12.1708  13.2787
    13.3600  14.1101  16.4324  16.9935  17.4192  17.9246

     occupation numbers 
     0.1875   0.1875   0.1875   0.1875   0.1875   0.1875   0.1875   0.1875
     0.1875   0.1875   0.1875   0.1875   0.1875   0.1875   0.1875   0.1875
     0.1875   0.1875   0.1875   0.1875   0.1875   0.1875   0.1875   0.1875
     0.1875   0.1875   0.1875   0.1875   0.1875   0.1875   0.1875   0.1875
     0.1875   0.1875   0.1874   0.1874   0.1874   0.1793   0.0018   0.0000
     0.0000   0.0000   0.0000   0.0000   0.0000   0.0000

          k = 0.4942-0.2853-0.4107 (  2202 PWs)   bands (ev):

   -19.7300 -19.7297  -7.1711  -6.4548  -6.2406  -5.9785  -5.5352  -5.3082
    -3.2168  -3.1176  -3.0641  -2.6496  -2.4812  -2.2241   5.3019   5.7107
     5.9381   6.6496   6.7239   7.1060   7.1424   7.2519   7.3617   7.3724
     8.1622   8.2981   8.4353   8.6011   9.4111   9.6726  10.0273  10.0603
    10.2739  10.3198  10.4756  10.6543  10.7371  11.0468  11.7535  12.3690
    13.2917  14.7497  17.0441  17.2665  17.5183  17.6127

     occupation numbers 
     0.0938   0.0938   0.0938   0.0938   0.0938   0.0938   0.0938   0.0938
     0.0938   0.0938   0.0938   0.0938   0.0938   0.0938   0.0938   0.0938
     0.0938   0.0938   0.0938   0.0938   0.0938   0.0938   0.0938   0.0938
     0.0938   0.0938   0.0938   0.0938   0.0937   0.0937   0.0937   0.0937
     0.0937   0.0937   0.0937   0.0936   0.0934   0.0882   0.0176   0.0001
     0.0000   0.0000   0.0000   0.0000   0.0000   0.0000

          k = 0.0000 0.0000 0.3080 (  2187 PWs)   bands (ev):

   -19.7708 -19.6651  -6.6190  -5.9938  -5.9550  -5.9550  -5.8511  -5.8511
    -3.2321  -3.1554  -3.1554  -2.9759  -2.9017  -2.9017   5.5949   6.2555
     6.5525   6.5525   6.7923   6.7923   7.0276   7.4437   7.4437   7.9347
     7.9347   8.1232   9.4346   9.4495   9.4495   9.6855  10.0877  10.0877
    10.1676  10.1676  10.4941  10.8971  10.8971  10.8971  12.2407  12.2407
    14.2248  14.2248  15.9117  15.9117  16.8783  17.4800

     occupation numbers 
     0.0625   0.0625   0.0625   0.0625   0.0625   0.0625   0.0625   0.0625
     0.0625   0.0625   0.0625   0.0625   0.0625   0.0625   0.0625   0.0625
     0.0625   0.0625   0.0625   0.0625   0.0625   0.0625   0.0625   0.0625
     0.0625   0.0625   0.0625   0.0625   0.0625   0.0625   0.0625   0.0625
     0.0625   0.0625   0.0625   0.0613   0.0613   0.0613   0.0003   0.0003
     0.0000   0.0000   0.0000   0.0000   0.0000   0.0000

          k = 0.7412 0.4280 0.0000 (  2204 PWs)   bands (ev):

   -19.7467 -19.7048  -6.7360  -6.6131  -6.1485  -5.8399  -5.7046  -5.5580
    -3.2075  -3.1057  -3.0495  -2.6817  -2.6687  -2.5900   5.8204   6.0059
     6.2489   6.6880   6.7720   6.8263   6.9997   7.1263   7.3210   7.4082
     7.6591   8.2083   8.8528   9.4097   9.4403   9.6574   9.8164  10.1801
    10.2538  10.3716  10.5685  10.6160  10.6970  10.7044  12.1687  13.1989
    13.2758  14.1389  16.6844  16.7251  17.5894  17.7932

     occupation numbers 
     0.1875   0.1875   0.1875   0.1875   0.1875   0.1875   0.1875   0.1875
     0.1875   0.1875   0.1875   0.1875   0.1875   0.1875   0.1875   0.1875
     0.1875   0.1875   0.1875   0.1875   0.1875   0.1875   0.1875   0.1875
     0.1875   0.1875   0.1875   0.1875   0.1875   0.1875   0.1875   0.1875
     0.1875   0.1875   0.1874   0.1873   0.1870   0.1869   0.0019   0.0000
     0.0000   0.0000   0.0000   0.0000   0.0000   0.0000

          k = 0.4942 0.2853 0.1027 (  2211 PWs)   bands (ev):

   -19.7363 -19.7191  -6.9760  -6.5472  -6.3286  -5.7119  -5.6286  -5.3711
    -3.3452  -3.1722  -3.0508  -2.6047  -2.5688  -2.3803   5.6505   5.9653
     5.9859   6.5261   6.7968   6.9334   6.9922   7.1161   7.2703   7.3567
     7.9096   8.1743   8.8033   9.2987   9.3410   9.6107   9.9210   9.9332
    10.3408  10.4619  10.6079  10.6634  10.7084  10.7417  12.2180  12.7136
    13.4361  14.2969  16.8845  16.9339  17.5770  17.9259

     occupation numbers 
     0.1875   0.1875   0.1875   0.1875   0.1875   0.1875   0.1875   0.1875
     0.1875   0.1875   0.1875   0.1875   0.1875   0.1875   0.1875   0.1875
     0.1875   0.1875   0.1875   0.1875   0.1875   0.1875   0.1875   0.1875
     0.1875   0.1875   0.1875   0.1875   0.1875   0.1875   0.1875   0.1875
     0.1875   0.1875   0.1873   0.1871   0.1869   0.1867   0.0012   0.0000
     0.0000   0.0000   0.0000   0.0000   0.0000   0.0000

          k = 0.7412-0.4280-0.3080 (  2210 PWs)   bands (ev):

   -19.7359 -19.7210  -6.9126  -6.4582  -6.3068  -5.8005  -5.7732  -5.5026
    -3.0835  -3.0678  -2.9723  -2.7370  -2.6296  -2.4308   5.7346   5.9850
     6.1149   6.5353   6.7999   6.8218   7.1063   7.1398   7.2962   7.4020
     7.8881   8.1646   8.7266   9.2326   9.4081   9.4668   9.6317  10.0646
    10.2784  10.4400  10.5445  10.6458  10.7748  10.7876  12.1783  12.6673
    13.3852  14.2669  17.0589  17.0688  17.5452  17.9011

     occupation numbers 
     0.1875   0.1875   0.1875   0.1875   0.1875   0.1875   0.1875   0.1875
     0.1875   0.1875   0.1875   0.1875   0.1875   0.1875   0.1875   0.1875
     0.1875   0.1875   0.1875   0.1875   0.1875   0.1875   0.1875   0.1875
     0.1875   0.1875   0.1875   0.1875   0.1875   0.1875   0.1875   0.1875
     0.1875   0.1875   0.1874   0.1872   0.1863   0.1862   0.0017   0.0000
     0.0000   0.0000   0.0000   0.0000   0.0000   0.0000

          k = 0.4942-0.5706-0.2053 (  2206 PWs)   bands (ev):

   -19.7304 -19.7304  -6.8888  -6.8805  -6.0384  -6.0368  -5.4408  -5.4394
    -3.1624  -3.1621  -2.8248  -2.8242  -2.3854  -2.3830   5.8761   5.8937
     6.0398   6.0425   6.8014   6.8021   7.0351   7.0528   7.3072   7.3082
     8.3057   8.3063   8.7722   8.7748   9.4427   9.4440   9.9506   9.9563
    10.3194  10.3282  10.4762  10.4864  10.8283  10.8362  12.2240  12.2282
    13.9606  13.9725  17.4241  17.4245  17.8687  17.8710

     occupation numbers 
     0.1875   0.1875   0.1875   0.1875   0.1875   0.1875   0.1875   0.1875
     0.1875   0.1875   0.1875   0.1875   0.1875   0.1875   0.1875   0.1875
     0.1875   0.1875   0.1875   0.1875   0.1875   0.1875   0.1875   0.1875
     0.1875   0.1875   0.1875   0.1875   0.1875   0.1875   0.1875   0.1875
     0.1875   0.1875   0.1875   0.1875   0.1856   0.1854   0.0011   0.0011
     0.0000   0.0000   0.0000   0.0000   0.0000   0.0000

          k = 0.0000 0.0000-0.6160 (  2186 PWs)   bands (ev):

   -19.7272 -19.7267  -6.5191  -6.5046  -5.9544  -5.9544  -5.9519  -5.9519
    -2.9097  -2.9097  -2.9065  -2.9065  -2.7058  -2.7056   6.0221   6.0362
     6.7205   6.7205   6.7500   6.7500   7.0105   7.0318   7.4166   7.4166
     7.4439   7.4439   9.5361   9.5361   9.5451   9.5451   9.6116   9.6239
    10.4343  10.4583  10.5642  10.5642  10.5871  10.5871  13.1871  13.1871
    13.2304  13.2304  17.1155  17.1155  17.1171  17.1171

     occupation numbers 
     0.0313   0.0313   0.0313   0.0313   0.0313   0.0313   0.0313   0.0313
     0.0313   0.0313   0.0313   0.0313   0.0313   0.0313   0.0313   0.0313
     0.0313   0.0313   0.0313   0.0313   0.0313   0.0313   0.0313   0.0313
     0.0313   0.0313   0.0312   0.0312   0.0312   0.0312   0.0312   0.0312
     0.0312   0.0312   0.0312   0.0312   0.0312   0.0312   0.0000   0.0000
     0.0000   0.0000   0.0000   0.0000   0.0000   0.0000

          k = 0.4942-0.5706 0.1027 (  2198 PWs)   bands (ev):

   -19.7351 -19.7202  -6.9601  -6.6510  -6.1359  -5.8958  -5.5242  -5.3989
    -3.3315  -3.2684  -2.8852  -2.7144  -2.5329  -2.3883   5.6219   5.9248
     6.0765   6.6555   6.7493   6.8101   6.9154   7.2119   7.3211   7.3710
     7.8677   8.1349   8.8249   9.1459   9.4695   9.7194   9.7441  10.0761
    10.2751  10.4271  10.4971  10.5865  10.7634  10.9206  12.2623  12.6997
    13.3887  14.3151  16.9059  17.1102  17.3063  18.0145

     occupation numbers 
     0.1875   0.1875   0.1875   0.1875   0.1875   0.1875   0.1875   0.1875
     0.1875   0.1875   0.1875   0.1875   0.1875   0.1875   0.1875   0.1875
     0.1875   0.1875   0.1875   0.1875   0.1875   0.1875   0.1875   0.1875
     0.1875   0.1875   0.1875   0.1875   0.1875   0.1875   0.1875   0.1875
     0.1875   0.1875   0.1875   0.1874   0.1865   0.1832   0.0008   0.0000
     0.0000   0.0000   0.0000   0.0000   0.0000   0.0000

     the Fermi energy is    11.4976 ev

!    total energy              =    -537.95265085 Ry
     Harris-Foulkes estimate   =    -537.95264525 Ry
     estimated scf accuracy    <          1.1E-09 Ry

     The total energy is the sum of the following terms:

     one-electron contribution =     -32.89925356 Ry
     hartree contribution      =      83.66985379 Ry
     xc contribution           =    -199.62040926 Ry
     ewald contribution        =    -389.44315552 Ry
     Hubbard energy            =       0.34600070 Ry
     smearing contrib. (-TS)   =      -0.00568700 Ry

     convergence has been achieved in  15 iterations

     init_run     :      7.88s CPU      7.98s WALL (       1 calls)
     electrons    :    300.38s CPU    303.02s WALL (       1 calls)

     Called by init_run:
     wfcinit      :      0.00s CPU      0.00s WALL (       1 calls)
     potinit      :      0.32s CPU      0.34s WALL (       1 calls)

     Called by electrons:
     c_bands      :    191.52s CPU    192.55s WALL (      15 calls)
     sum_band     :     61.67s CPU     62.14s WALL (      15 calls)
     v_of_rho     :      4.74s CPU      4.75s WALL (      16 calls)
     v_h          :      0.31s CPU      0.32s WALL (      16 calls)
     v_xc         :      4.42s CPU      4.44s WALL (      16 calls)
     newd         :     43.46s CPU     43.51s WALL (      16 calls)
     mix_rho      :      0.65s CPU      0.65s WALL (      15 calls)

     Called by c_bands:
     init_us_2    :      2.01s CPU      2.02s WALL (     420 calls)
     cegterg      :    186.27s CPU    186.87s WALL (     210 calls)

     Called by sum_band:
     sum_band:bec :      0.15s CPU      0.16s WALL (     210 calls)
     addusdens    :     25.21s CPU     25.22s WALL (      15 calls)

     Called by *egterg:
     h_psi        :    145.28s CPU    145.80s WALL (     772 calls)
     s_psi        :      7.63s CPU      7.66s WALL (     772 calls)
     g_psi        :      0.51s CPU      0.51s WALL (     562 calls)
     cdiaghg      :      9.51s CPU      9.52s WALL (     758 calls)
     cegterg:over :      8.29s CPU      8.33s WALL (     562 calls)
     cegterg:upda :      5.43s CPU      5.43s WALL (     562 calls)
     cegterg:last :      3.94s CPU      3.94s WALL (     236 calls)

     Called by h_psi:
     h_psi:vloc   :    120.22s CPU    120.68s WALL (     772 calls)
     h_psi:vnl    :     15.70s CPU     15.73s WALL (     772 calls)
     add_vuspsi   :      7.81s CPU      7.83s WALL (     772 calls)
     vhpsi        :      8.96s CPU      8.96s WALL (     772 calls)

     General routines
     calbec       :     16.54s CPU     16.57s WALL (    1964 calls)
     fft          :      3.64s CPU      3.68s WALL (     251 calls)
     ffts         :      0.10s CPU      0.15s WALL (      31 calls)
     fftw         :    107.20s CPU    107.75s WALL (   58762 calls)
     interpolate  :      0.66s CPU      0.73s WALL (      31 calls)
     davcio       :      0.01s CPU      0.76s WALL (     434 calls)

     Parallel routines
     fft_scatter  :     36.18s CPU     36.65s WALL (   59044 calls)
     Hubbard U routines
     new_ns       :      1.79s CPU      2.15s WALL (      15 calls)
     vhpsi        :      8.96s CPU      8.96s WALL (     772 calls)

     PWSCF        :  5m 8.70s CPU     5m11.53s WALL


   This run was terminated on:  15: 2:17  11Nov2012            

=------------------------------------------------------------------------------=
