 
Job started on n9 at Sun Nov 11 14:37:38 EST 2012

     Program PWSCF v.5.0.1 starts on 11Nov2012 at 14:37:40 

     This program is part of the open-source Quantum ESPRESSO suite
     for quantum simulation of materials; please cite
         "P. Giannozzi et al., J. Phys.:Condens. Matter 21 395502 (2009);
          URL http://www.quantum-espresso.org", 
     in publications or presentations arising from this work. More details at
     http://www.quantum-espresso.org/quote.php

     Parallel version (MPI), running on     2 processors
     R & G space division:  proc/pool =    2

     Current dimensions of program PWSCF are:
     Max number of different atomic species (ntypx) = 10
     Max number of k-points (npk) =  40000
     Max angular momentum in pseudopotentials (lmaxx) =  3
     Reading input from CoLaO_U200_init.in
               file Co.pbe-nd-rrkjus.UPF: wavefunction(s)  4S 3D renormalized
               file O.pbe-rrkjus.UPF: wavefunction(s)  2S renormalized
               file O.pbe-rrkjus.UPF: wavefunction(s)  2S renormalized

     Subspace diagonalization in iterative solution of the eigenvalue problem:
     a serial algorithm will be used


     Parallelization info
     --------------------
     sticks:   dense  smooth     PW     G-vecs:    dense   smooth      PW
     Min        1112     444    131                34808     8786    1448
     Max        1113     445    132                34809     8787    1449
     Sum        2225     889    263                69617    17573    2897


     Title: 
     GGA + U, U = 2.000, init                                                   


     bravais-lattice index     =            5
     lattice parameter (alat)  =      10.3292  a.u.
     unit-cell volume          =     793.0599 (a.u.)^3
     number of atoms/cell      =           10
     number of atomic types    =            4
     number of electrons       =        76.00
     number of Kohn-Sham states=           46
     kinetic-energy cutoff     =      30.0000  Ry
     charge density cutoff     =     300.0000  Ry
     convergence threshold     =      1.0E-08
     mixing beta               =       0.2000
     number of iterations used =            8  plain     mixing
     Exchange-correlation      =  SLA  PW   PBE  PBE ( 1 4 3 4 0)
     EXX-fraction              =        0.00

     celldm(1)=  10.329242  celldm(2)=   0.000000  celldm(3)=   0.000000
     celldm(4)=   0.488100  celldm(5)=   0.000000  celldm(6)=   0.000000

     crystal axes: (cart. coord. in units of alat)
               a(1) = (   0.505915  -0.292090   0.811624 )  
               a(2) = (   0.000000   0.584180   0.811624 )  
               a(3) = (  -0.505915  -0.292090   0.811624 )  

     reciprocal axes: (cart. coord. in units 2 pi/alat)
               b(1) = (  0.988308 -0.570600  0.410699 )  
               b(2) = (  0.000000  1.141200  0.410699 )  
               b(3) = ( -0.988308 -0.570600  0.410699 )  


     PseudoPot. # 1 for Co read from file:
     /home/mcurnan/dft-course/Project1/example_LaCoO3/Co.pbe-nd-rrkjus.UPF
     MD5 check sum: 3e47a84addf5e975e0edeaeee2a73f59
     Pseudo is Ultrasoft + core correction, Zval =  9.0
     Generated by new atomic code, or converted to UPF format
     Using radial grid of  961 points,  6 beta functions with: 
                l(1) =   0
                l(2) =   0
                l(3) =   1
                l(4) =   1
                l(5) =   2
                l(6) =   2
     Q(r) pseudized with 0 coefficients 


     PseudoPot. # 2 for La read from file:
     /home/mcurnan/dft-course/Project1/example_LaCoO3/La.pbe-nsp-van.UPF
     MD5 check sum: b2f11743f52dde65f77d1302becd7929
     Pseudo is Ultrasoft + core correction, Zval = 11.0
     Generated by new atomic code, or converted to UPF format
     Using radial grid of  907 points,  6 beta functions with: 
                l(1) =   0
                l(2) =   0
                l(3) =   1
                l(4) =   1
                l(5) =   2
                l(6) =   2
     Q(r) pseudized with  6 coefficients,  rinner =    1.200   1.200   1.200
                                                       1.200   1.200

     PseudoPot. # 3 for O  read from file:
     /home/mcurnan/dft-course/Project1/example_LaCoO3/O.pbe-rrkjus.UPF
     MD5 check sum: 390ba29e75625707450f3bd3f0eb6be9
     Pseudo is Ultrasoft, Zval =  6.0
     Generated by new atomic code, or converted to UPF format
     Using radial grid of 1269 points,  4 beta functions with: 
                l(1) =   0
                l(2) =   0
                l(3) =   1
                l(4) =   1
     Q(r) pseudized with 0 coefficients 


     PseudoPot. # 4 for O  read from file:
     /home/mcurnan/dft-course/Project1/example_LaCoO3/O.pbe-rrkjus.UPF
     MD5 check sum: 390ba29e75625707450f3bd3f0eb6be9
     Pseudo is Ultrasoft, Zval =  6.0
     Generated by new atomic code, or converted to UPF format
     Using radial grid of 1269 points,  4 beta functions with: 
                l(1) =   0
                l(2) =   0
                l(3) =   1
                l(4) =   1
     Q(r) pseudized with 0 coefficients 


     atomic species   valence    mass     pseudopotential
        Co1            9.00     1.00000     Co( 1.00)
        La1           11.00     1.00000     La( 1.00)
        O1             6.00     1.00000     O ( 1.00)
        O2             6.00     1.00000     O ( 1.00)
 -----
     simplified LDA+U calculation, Hubbard_lmax = 2
     atomic species  L   Hubbard U  Hubbard alpha
        Co1          2    0.000000    0.000000
        La1          2    0.000000    0.000000
        O1           1    0.000000    0.000000
        O2           1    0.000000    0.000000
 -----

     No symmetry found


                                    s                        frac. trans.

      isym =  1     identity                                     

 cryst.   s( 1) = (     1          0          0      )
                  (     0          1          0      )
                  (     0          0          1      )

 cart.    s( 1) = (  1.0000000  0.0000000  0.0000000 )
                  (  0.0000000  1.0000000  0.0000000 )
                  (  0.0000000  0.0000000  1.0000000 )


     point group C_1 (1)    
     there are  1 classes
     the character table:

       E    
A      1.00

     the symmetry operations in each class:
     E        1

   Cartesian axes

     site n.     atom                  positions (alat units)
         1           Co1 tau(   1) = (   0.2228050  -0.1992639   1.0141240  )
         2           Co1 tau(   2) = (  -0.2831100   0.0928263   1.4199360  )
         3           La1 tau(   3) = (  -0.2831100   0.0928263   0.8112181  )
         4           La1 tau(   4) = (   0.2228050   0.3849164   1.2170300  )
         5           O1  tau(   5) = (   0.0000000   0.0000000   0.0000000  )
         6           O2  tau(   6) = (   0.0008601   0.1861491   1.6232478  )
         7           O2  tau(   7) = (   0.1616398   0.0923297   0.8116239  )
         8           O2  tau(   8) = (  -0.0603051  -0.1064377   1.2166242  )
         9           O2  tau(   9) = (   0.4447499  -0.0004966   1.2166242  )
        10           O2  tau(  10) = (  -0.2219449   0.3854130   1.2166242  )

   Crystallographic axes

     site n.     atom                  positions (cryst. coord.)
         1           Co1 tau(   1) = (  0.7504000  0.1891000  0.3100000  )
         2           Co1 tau(   2) = (  0.2504000  0.6891000  0.8100000  )
         3           La1 tau(   3) = (  0.0004000  0.4391000  0.5600000  )
         4           La1 tau(   4) = (  0.5004000  0.9391000  0.0600000  )
         5           O1  tau(   5) = (  0.0000000  0.0000000  0.0000000  )
         6           O2  tau(   6) = (  0.5613000  0.8791000  0.5596000  )
         7           O2  tau(   7) = (  0.4404000  0.4387000  0.1209000  )
         8           O2  tau(   8) = (  0.5008000  0.3782000  0.6200000  )
         9           O2  tau(   9) = (  0.9395000  0.4991000  0.0604000  )
        10           O2  tau(  10) = (  0.0604000  0.9395000  0.4991000  )

     number of k points=    36  gaussian smearing, width (Ry)=  0.0300
                       cart. coord. in units 2pi/alat
        k(    1) = (   0.0000000   0.0000000   0.0000000), wk =   0.0312500
        k(    2) = (  -0.2470771  -0.1426500   0.1026748), wk =   0.0625000
        k(    3) = (   0.4941541   0.2853000  -0.2053496), wk =   0.0312500
        k(    4) = (  -0.2470771   0.1426500   0.2053496), wk =   0.0625000
        k(    5) = (   0.4941541   0.5706001  -0.1026748), wk =   0.0625000
        k(    6) = (   0.2470771   0.4279500   0.0000000), wk =   0.0625000
        k(    7) = (   0.4941541  -0.2853000  -0.4106993), wk =   0.0312500
        k(    8) = (   0.0000000   0.0000000   0.3080244), wk =   0.0625000
        k(    9) = (   0.7412312   0.4279500   0.0000000), wk =   0.0625000
        k(   10) = (   0.4941541   0.2853000   0.1026748), wk =   0.0625000
        k(   11) = (   0.7412312  -0.4279500  -0.3080244), wk =   0.0625000
        k(   12) = (   0.4941541  -0.5706001  -0.2053496), wk =   0.0625000
        k(   13) = (   0.0000000   0.0000000  -0.6160489), wk =   0.0312500
        k(   14) = (  -0.2470771   0.1426500  -0.1026748), wk =   0.0625000
        k(   15) = (   0.0000000   0.2853000   0.1026748), wk =   0.0625000
        k(   16) = (   0.4941541  -0.2853000   0.2053496), wk =   0.0312500
        k(   17) = (   0.0000000  -0.5706001  -0.2053496), wk =   0.0312500
        k(   18) = (  -0.2470771  -0.1426500  -0.2053496), wk =   0.0625000
        k(   19) = (   0.0000000  -0.2853000   0.2053496), wk =   0.0625000
        k(   20) = (   0.4941541  -0.5706001   0.1026748), wk =   0.0625000
        k(   21) = (  -0.7412312   0.1426500  -0.1026748), wk =   0.0625000
        k(   22) = (   0.2470771  -0.7132501  -0.1026748), wk =   0.0625000
        k(   23) = (  -0.7412312  -0.1426500   0.1026748), wk =   0.0625000
        k(   24) = (   0.2470771   0.7132501   0.1026748), wk =   0.0625000
        k(   25) = (   0.2470771  -0.4279500   0.0000000), wk =   0.0625000
        k(   26) = (  -0.4941541   0.0000000   0.0000000), wk =   0.0625000
        k(   27) = (   0.4941541   0.2853000   0.4106993), wk =   0.0312500
        k(   28) = (   0.0000000   0.5706001  -0.4106993), wk =   0.0312500
        k(   29) = (   0.7412312  -0.4279500   0.0000000), wk =   0.0625000
        k(   30) = (   0.0000000  -0.8559001   0.0000000), wk =   0.0625000
        k(   31) = (   0.4941541  -0.2853000  -0.1026748), wk =   0.0625000
        k(   32) = (   0.0000000  -0.5706001   0.1026748), wk =   0.0625000
        k(   33) = (   0.7412312   0.4279500   0.3080244), wk =   0.0625000
        k(   34) = (   0.0000000   0.8559001  -0.3080244), wk =   0.0625000
        k(   35) = (   0.2470771   0.7132501  -0.2053496), wk =   0.0625000
        k(   36) = (  -0.7412312  -0.1426500  -0.2053496), wk =   0.0625000

                       cryst. coord.
        k(    1) = (   0.0000000   0.0000000   0.0000000), wk =   0.0312500
        k(    2) = (   0.0000000   0.0000000   0.2500000), wk =   0.0625000
        k(    3) = (   0.0000000   0.0000000  -0.5000000), wk =   0.0312500
        k(    4) = (   0.0000000   0.2500000   0.2500000), wk =   0.0625000
        k(    5) = (   0.0000000   0.2500000  -0.5000000), wk =   0.0625000
        k(    6) = (   0.0000000   0.2500000  -0.2500000), wk =   0.0625000
        k(    7) = (   0.0000000  -0.5000000  -0.5000000), wk =   0.0312500
        k(    8) = (   0.2500000   0.2500000   0.2500000), wk =   0.0625000
        k(    9) = (   0.2500000   0.2500000  -0.5000000), wk =   0.0625000
        k(   10) = (   0.2500000   0.2500000  -0.2500000), wk =   0.0625000
        k(   11) = (   0.2500000  -0.5000000  -0.5000000), wk =   0.0625000
        k(   12) = (   0.2500000  -0.5000000  -0.2500000), wk =   0.0625000
        k(   13) = (  -0.5000000  -0.5000000  -0.5000000), wk =   0.0312500
        k(   14) = (  -0.2500000   0.0000000   0.0000000), wk =   0.0625000
        k(   15) = (   0.0000000   0.2500000   0.0000000), wk =   0.0625000
        k(   16) = (   0.5000000   0.0000000   0.0000000), wk =   0.0312500
        k(   17) = (   0.0000000  -0.5000000   0.0000000), wk =   0.0312500
        k(   18) = (  -0.2500000  -0.2500000   0.0000000), wk =   0.0625000
        k(   19) = (   0.2500000   0.0000000   0.2500000), wk =   0.0625000
        k(   20) = (   0.5000000  -0.2500000   0.0000000), wk =   0.0625000
        k(   21) = (  -0.5000000   0.0000000   0.2500000), wk =   0.0625000
        k(   22) = (   0.2500000  -0.5000000   0.0000000), wk =   0.0625000
        k(   23) = (  -0.2500000   0.0000000   0.5000000), wk =   0.0625000
        k(   24) = (   0.0000000   0.5000000  -0.2500000), wk =   0.0625000
        k(   25) = (   0.2500000  -0.2500000   0.0000000), wk =   0.0625000
        k(   26) = (  -0.2500000   0.0000000   0.2500000), wk =   0.0625000
        k(   27) = (   0.5000000   0.5000000   0.0000000), wk =   0.0312500
        k(   28) = (  -0.5000000   0.0000000  -0.5000000), wk =   0.0312500
        k(   29) = (   0.5000000  -0.2500000  -0.2500000), wk =   0.0625000
        k(   30) = (   0.2500000  -0.5000000   0.2500000), wk =   0.0625000
        k(   31) = (   0.2500000  -0.2500000  -0.2500000), wk =   0.0625000
        k(   32) = (   0.2500000  -0.2500000   0.2500000), wk =   0.0625000
        k(   33) = (   0.5000000   0.5000000  -0.2500000), wk =   0.0625000
        k(   34) = (  -0.5000000   0.2500000  -0.5000000), wk =   0.0625000
        k(   35) = (  -0.2500000   0.2500000  -0.5000000), wk =   0.0625000
        k(   36) = (  -0.5000000  -0.2500000   0.2500000), wk =   0.0625000

     Dense  grid:    69617 G-vectors     FFT dimensions: (  60,  60,  60)

     Smooth grid:    17573 G-vectors     FFT dimensions: (  40,  40,  40)

     Largest allocated arrays     est. size (Mb)     dimensions
        Kohn-Sham Wavefunctions         0.79 Mb     (   1119,   46)
        Atomic wavefunctions            1.06 Mb     (   1119,   62)
        NL pseudopotentials             2.05 Mb     (   1119,  120)
        Each V/rho on FFT grid          1.65 Mb     ( 108000)
        Each G-vector array             0.27 Mb     (  34808)
        G-vector shells                 0.04 Mb     (   4682)
     Largest temporary arrays     est. size (Mb)     dimensions
        Auxiliary wavefunctions         3.14 Mb     (   1119,  184)
        Each subspace H/S matrix        0.52 Mb     ( 184, 184)
        Each <psi_i|beta_j> matrix      0.08 Mb     (    120,   46)
        Arrays for rho mixing          13.18 Mb     ( 108000,   8)

     Check: negative/imaginary core charge=   -0.000028    0.000000

     Initial potential from superposition of free atoms

     starting charge   75.93482, renormalised to   76.00000
 --- in v_hubbard ---
Hubbard energy    0.0000
 -------
     Number of +U iterations with fixed ns =  0
     Starting occupations:
 --- enter write_ns ---
 LDA+U parameters:
U( 1)     =  0.00000000
alpha( 1) =  0.00000000
U( 2)     =  0.00000000
alpha( 2) =  0.00000000
U( 3)     =  0.00000000
alpha( 3) =  0.00000000
U( 4)     =  0.00000000
alpha( 4) =  0.00000000
atom    1   Tr[ns(na)] =   7.00000
    eigenvalues: 
  0.700  0.700  0.700  0.700  0.700
    eigenvectors:
  1.000  0.000  0.000  0.000  0.000
  0.000  1.000  0.000  0.000  0.000
  0.000  0.000  1.000  0.000  0.000
  0.000  0.000  0.000  1.000  0.000
  0.000  0.000  0.000  0.000  1.000
    occupations:
  0.700  0.000  0.000  0.000  0.000
  0.000  0.700  0.000  0.000  0.000
  0.000  0.000  0.700  0.000  0.000
  0.000  0.000  0.000  0.700  0.000
  0.000  0.000  0.000  0.000  0.700
atom    2   Tr[ns(na)] =   7.00000
    eigenvalues: 
  0.700  0.700  0.700  0.700  0.700
    eigenvectors:
  1.000  0.000  0.000  0.000  0.000
  0.000  1.000  0.000  0.000  0.000
  0.000  0.000  1.000  0.000  0.000
  0.000  0.000  0.000  1.000  0.000
  0.000  0.000  0.000  0.000  1.000
    occupations:
  0.700  0.000  0.000  0.000  0.000
  0.000  0.700  0.000  0.000  0.000
  0.000  0.000  0.700  0.000  0.000
  0.000  0.000  0.000  0.700  0.000
  0.000  0.000  0.000  0.000  0.700
atom    3   Tr[ns(na)] =   1.00000
    eigenvalues: 
  0.100  0.100  0.100  0.100  0.100
    eigenvectors:
  1.000  0.000  0.000  0.000  0.000
  0.000  1.000  0.000  0.000  0.000
  0.000  0.000  1.000  0.000  0.000
  0.000  0.000  0.000  1.000  0.000
  0.000  0.000  0.000  0.000  1.000
    occupations:
  0.100  0.000  0.000  0.000  0.000
  0.000  0.100  0.000  0.000  0.000
  0.000  0.000  0.100  0.000  0.000
  0.000  0.000  0.000  0.100  0.000
  0.000  0.000  0.000  0.000  0.100
atom    4   Tr[ns(na)] =   1.00000
    eigenvalues: 
  0.100  0.100  0.100  0.100  0.100
    eigenvectors:
  1.000  0.000  0.000  0.000  0.000
  0.000  1.000  0.000  0.000  0.000
  0.000  0.000  1.000  0.000  0.000
  0.000  0.000  0.000  1.000  0.000
  0.000  0.000  0.000  0.000  1.000
    occupations:
  0.100  0.000  0.000  0.000  0.000
  0.000  0.100  0.000  0.000  0.000
  0.000  0.000  0.100  0.000  0.000
  0.000  0.000  0.000  0.100  0.000
  0.000  0.000  0.000  0.000  0.100
atom    5   Tr[ns(na)] =   4.00000
    eigenvalues: 
  0.667  0.667  0.667
    eigenvectors:
  1.000  0.000  0.000
  0.000  1.000  0.000
  0.000  0.000  1.000
    occupations:
  0.667  0.000  0.000
  0.000  0.667  0.000
  0.000  0.000  0.667
atom    6   Tr[ns(na)] =   4.00000
    eigenvalues: 
  0.667  0.667  0.667
    eigenvectors:
  1.000  0.000  0.000
  0.000  1.000  0.000
  0.000  0.000  1.000
    occupations:
  0.667  0.000  0.000
  0.000  0.667  0.000
  0.000  0.000  0.667
atom    7   Tr[ns(na)] =   4.00000
    eigenvalues: 
  0.667  0.667  0.667
    eigenvectors:
  1.000  0.000  0.000
  0.000  1.000  0.000
  0.000  0.000  1.000
    occupations:
  0.667  0.000  0.000
  0.000  0.667  0.000
  0.000  0.000  0.667
atom    8   Tr[ns(na)] =   4.00000
    eigenvalues: 
  0.667  0.667  0.667
    eigenvectors:
  1.000  0.000  0.000
  0.000  1.000  0.000
  0.000  0.000  1.000
    occupations:
  0.667  0.000  0.000
  0.000  0.667  0.000
  0.000  0.000  0.667
atom    9   Tr[ns(na)] =   4.00000
    eigenvalues: 
  0.667  0.667  0.667
    eigenvectors:
  1.000  0.000  0.000
  0.000  1.000  0.000
  0.000  0.000  1.000
    occupations:
  0.667  0.000  0.000
  0.000  0.667  0.000
  0.000  0.000  0.667
atom   10   Tr[ns(na)] =   4.00000
    eigenvalues: 
  0.667  0.667  0.667
    eigenvectors:
  1.000  0.000  0.000
  0.000  1.000  0.000
  0.000  0.000  1.000
    occupations:
  0.667  0.000  0.000
  0.000  0.667  0.000
  0.000  0.000  0.667
N of occupied +U levels =  40.0000000
 --- exit write_ns ---
 Atomic wfc used for LDA+U Projector are NOT orthogonalized
     Starting wfc are   62 randomized atomic wfcs

     total cpu time spent up to now is       21.9 secs

     per-process dynamical memory:    35.1 Mb

     Self-consistent Calculation

     iteration #  1     ecut=    30.00 Ry     beta=0.20
     Davidson diagonalization with overlap
     ethr =  1.00E-02,  avg # of iterations =  2.0
 --- enter write_ns ---
 LDA+U parameters:
U( 1)     =  0.00000000
alpha( 1) =  0.00000000
U( 2)     =  0.00000000
alpha( 2) =  0.00000000
U( 3)     =  0.00000000
alpha( 3) =  0.00000000
U( 4)     =  0.00000000
alpha( 4) =  0.00000000
atom    1   Tr[ns(na)] =   6.58567
    eigenvalues: 
  0.281  0.281  0.908  0.911  0.911
    eigenvectors:
  0.000  0.000  1.000  0.000  0.000
  0.109  0.539  0.000  0.160  0.191
  0.540  0.109  0.000  0.191  0.160
  0.348  0.003  0.000  0.061  0.588
  0.003  0.348  0.000  0.588  0.061
    occupations:
  0.908  0.000  0.000  0.000  0.000
  0.000  0.503  0.000 -0.149  0.261
  0.000  0.000  0.503  0.261  0.149
  0.000 -0.149  0.261  0.690  0.000
  0.000  0.261  0.149  0.000  0.690
atom    2   Tr[ns(na)] =   6.57651
    eigenvalues: 
  0.279  0.279  0.908  0.911  0.911
    eigenvectors:
  0.000  0.000  1.000  0.000  0.000
  0.100  0.549  0.000  0.321  0.031
  0.549  0.100  0.000  0.031  0.321
  0.347  0.004  0.000  0.344  0.305
  0.004  0.347  0.000  0.305  0.344
    occupations:
  0.908  0.000  0.000  0.000  0.000
  0.000  0.501  0.000  0.149  0.262
  0.000  0.000  0.501  0.262 -0.149
  0.000  0.149  0.262  0.689  0.000
  0.000  0.262 -0.149  0.000  0.689
atom    3   Tr[ns(na)] =   3.61192
    eigenvalues: 
  0.345  0.345  0.365  0.376  0.376
    eigenvectors:
  0.000  0.000  1.000  0.000  0.000
  0.073  0.926  0.000  0.000  0.002
  0.926  0.073  0.000  0.002  0.000
  0.001  0.000  0.000  0.866  0.132
  0.000  0.001  0.000  0.132  0.866
    occupations:
  0.365  0.000  0.000  0.000  0.000
  0.000  0.345  0.000  0.000  0.001
  0.000  0.000  0.345  0.001  0.000
  0.000  0.000  0.001  0.376  0.000
  0.000  0.001  0.000  0.000  0.376
atom    4   Tr[ns(na)] =   3.61183
    eigenvalues: 
  0.345  0.345  0.365  0.376  0.376
    eigenvectors:
  0.000  0.000  1.000  0.000  0.000
  0.375  0.624  0.000  0.000  0.001
  0.624  0.375  0.000  0.001  0.000
  0.001  0.000  0.000  0.731  0.268
  0.000  0.001  0.000  0.267  0.731
    occupations:
  0.365  0.000  0.000  0.000  0.000
  0.000  0.345  0.000  0.000  0.001
  0.000  0.000  0.345  0.001  0.000
  0.000  0.000  0.001  0.376  0.000
  0.000  0.001  0.000  0.000  0.376
atom    5   Tr[ns(na)] =   5.82372
    eigenvalues: 
  0.954  0.977  0.981
    eigenvectors:
  0.318  0.000  0.682
  0.513  0.248  0.239
  0.168  0.752  0.079
    occupations:
  0.972 -0.011  0.006
 -0.011  0.966  0.007
  0.006  0.007  0.974
atom    6   Tr[ns(na)] =   5.82371
    eigenvalues: 
  0.954  0.977  0.981
    eigenvectors:
  0.318  0.000  0.682
  0.509  0.251  0.240
  0.173  0.749  0.078
    occupations:
  0.972  0.011  0.006
  0.011  0.966 -0.007
  0.006 -0.007  0.974
atom    7   Tr[ns(na)] =   5.82380
    eigenvalues: 
  0.954  0.977  0.981
    eigenvectors:
  0.318  0.000  0.682
  0.000  1.000  0.000
  0.682  0.000  0.318
    occupations:
  0.972  0.000 -0.013
  0.000  0.977  0.000
 -0.013  0.000  0.962
atom    8   Tr[ns(na)] =   5.82375
    eigenvalues: 
  0.954  0.977  0.981
    eigenvectors:
  0.319  0.000  0.681
  0.513  0.250  0.237
  0.168  0.750  0.082
    occupations:
  0.972 -0.011  0.006
 -0.011  0.966  0.007
  0.006  0.007  0.974
atom    9   Tr[ns(na)] =   5.82369
    eigenvalues: 
  0.954  0.977  0.981
    eigenvectors:
  0.318  0.000  0.682
  0.509  0.251  0.239
  0.173  0.749  0.078
    occupations:
  0.972  0.011  0.006
  0.011  0.966 -0.007
  0.006 -0.007  0.974
atom   10   Tr[ns(na)] =   5.82378
    eigenvalues: 
  0.954  0.977  0.981
    eigenvectors:
  0.318  0.000  0.682
  0.000  1.000  0.000
  0.682  0.000  0.318
    occupations:
  0.972  0.000 -0.013
  0.000  0.977  0.000
 -0.013  0.000  0.962
N of occupied +U levels =  55.3283780
 --- exit write_ns ---
 --- in v_hubbard ---
Hubbard energy    0.0000
 -------

     total cpu time spent up to now is       59.7 secs

     total energy              =    -537.25464471 Ry
     Harris-Foulkes estimate   =    -539.67272965 Ry
     estimated scf accuracy    <       7.40212672 Ry

     iteration #  2     ecut=    30.00 Ry     beta=0.20
     Davidson diagonalization with overlap
     ethr =  9.74E-03,  avg # of iterations =  2.2
 --- enter write_ns ---
 LDA+U parameters:
U( 1)     =  0.00000000
alpha( 1) =  0.00000000
U( 2)     =  0.00000000
alpha( 2) =  0.00000000
U( 3)     =  0.00000000
alpha( 3) =  0.00000000
U( 4)     =  0.00000000
alpha( 4) =  0.00000000
atom    1   Tr[ns(na)] =   8.18773
    eigenvalues: 
  0.621  0.622  0.950  0.950  0.950
    eigenvectors:
  0.000  0.000  0.993  0.007  0.000
  0.573  0.079  0.001  0.139  0.207
  0.079  0.573  0.001  0.206  0.141
  0.000  0.348  0.004  0.565  0.083
  0.348  0.000  0.001  0.082  0.569
    occupations:
  0.950  0.000  0.000  0.000  0.000
  0.000  0.736  0.000 -0.050  0.149
  0.000  0.000  0.736  0.148  0.050
  0.000 -0.050  0.148  0.836  0.000
  0.000  0.149  0.050  0.000  0.836
atom    2   Tr[ns(na)] =   8.25065
    eigenvalues: 
  0.627  0.627  0.957  0.957  0.957
    eigenvectors:
  0.000  0.000  0.995  0.002  0.003
  0.006  0.646  0.001  0.345  0.002
  0.646  0.006  0.001  0.002  0.345
  0.289  0.059  0.003  0.039  0.610
  0.059  0.289  0.001  0.611  0.040
    occupations:
  0.957  0.000  0.000  0.000  0.000
  0.000  0.742  0.000  0.051  0.149
  0.000  0.000  0.742  0.149 -0.051
  0.000  0.051  0.149  0.842  0.000
  0.000  0.149 -0.051  0.000  0.842
atom    3   Tr[ns(na)] =   3.54681
    eigenvalues: 
  0.330  0.330  0.360  0.377  0.377
    eigenvectors:
  0.000  0.000  1.000  0.000  0.000
  0.119  0.772  0.000  0.000  0.109
  0.772  0.119  0.000  0.108  0.000
  0.094  0.015  0.000  0.890  0.002
  0.015  0.094  0.000  0.002  0.890
    occupations:
  0.360  0.000  0.000  0.000  0.000
  0.000  0.335  0.000  0.000  0.015
  0.000  0.000  0.335  0.014  0.000
  0.000  0.000  0.014  0.372  0.000
  0.000  0.015  0.000  0.000  0.372
atom    4   Tr[ns(na)] =   3.54658
    eigenvalues: 
  0.330  0.330  0.360  0.377  0.377
    eigenvectors:
  0.000  0.000  1.000  0.000  0.000
  0.891  0.000  0.000  0.019  0.090
  0.000  0.891  0.000  0.090  0.019
  0.000  0.108  0.000  0.740  0.152
  0.108  0.000  0.000  0.152  0.740
    occupations:
  0.360  0.000  0.000  0.000  0.000
  0.000  0.335  0.000  0.000  0.014
  0.000  0.000  0.335  0.014  0.000
  0.000  0.000  0.014  0.372  0.000
  0.000  0.014  0.000  0.000  0.372
atom    5   Tr[ns(na)] =   5.42954
    eigenvalues: 
  0.831  0.933  0.951
    eigenvectors:
  0.345  0.000  0.655
  0.489  0.253  0.258
  0.165  0.747  0.087
    occupations:
  0.910 -0.050  0.029
 -0.050  0.888  0.026
  0.029  0.026  0.917
atom    6   Tr[ns(na)] =   5.42951
    eigenvalues: 
  0.831  0.932  0.951
    eigenvectors:
  0.346  0.000  0.654
  0.492  0.247  0.260
  0.162  0.753  0.085
    occupations:
  0.910  0.050  0.029
  0.050  0.887 -0.026
  0.029 -0.026  0.918
atom    7   Tr[ns(na)] =   5.42953
    eigenvalues: 
  0.831  0.933  0.951
    eigenvectors:
  0.346  0.000  0.654
  0.000  1.000  0.000
  0.654  0.000  0.346
    occupations:
  0.910  0.000 -0.057
  0.000  0.932  0.000
 -0.057  0.000  0.873
atom    8   Tr[ns(na)] =   5.42960
    eigenvalues: 
  0.831  0.933  0.951
    eigenvectors:
  0.346  0.000  0.654
  0.489  0.253  0.258
  0.165  0.747  0.087
    occupations:
  0.910 -0.050  0.029
 -0.050  0.888  0.026
  0.029  0.026  0.917
atom    9   Tr[ns(na)] =   5.42950
    eigenvalues: 
  0.831  0.933  0.951
    eigenvectors:
  0.346  0.000  0.654
  0.492  0.248  0.260
  0.162  0.752  0.086
    occupations:
  0.910  0.050  0.029
  0.050  0.887 -0.026
  0.029 -0.026  0.918
atom   10   Tr[ns(na)] =   5.42946
    eigenvalues: 
  0.831  0.932  0.951
    eigenvectors:
  0.346  0.000  0.654
  0.000  1.000  0.000
  0.654  0.000  0.346
    occupations:
  0.910  0.000 -0.057
  0.000  0.932  0.000
 -0.057  0.000  0.872
N of occupied +U levels =  56.1089010
 --- exit write_ns ---
 --- in v_hubbard ---
Hubbard energy    0.0000
 -------

     total cpu time spent up to now is       95.2 secs

     total energy              =    -538.29782700 Ry
     Harris-Foulkes estimate   =    -538.37561696 Ry
     estimated scf accuracy    <       0.35375301 Ry

     iteration #  3     ecut=    30.00 Ry     beta=0.20
     Davidson diagonalization with overlap
     ethr =  4.65E-04,  avg # of iterations =  2.0
 --- enter write_ns ---
 LDA+U parameters:
U( 1)     =  0.00000000
alpha( 1) =  0.00000000
U( 2)     =  0.00000000
alpha( 2) =  0.00000000
U( 3)     =  0.00000000
alpha( 3) =  0.00000000
U( 4)     =  0.00000000
alpha( 4) =  0.00000000
atom    1   Tr[ns(na)] =   8.12601
    eigenvalues: 
  0.588  0.588  0.962  0.962  0.963
    eigenvectors:
  0.000  0.000  0.000  0.000  1.000
  0.075  0.579  0.139  0.207  0.000
  0.579  0.075  0.207  0.139  0.000
  0.346  0.001  0.597  0.057  0.000
  0.001  0.346  0.057  0.597  0.000
    occupations:
  0.963  0.000  0.000  0.000  0.000
  0.000  0.717  0.000 -0.067  0.165
  0.000  0.000  0.717  0.165  0.067
  0.000 -0.067  0.165  0.833  0.000
  0.000  0.165  0.067  0.000  0.833
atom    2   Tr[ns(na)] =   7.84082
    eigenvalues: 
  0.561  0.561  0.931  0.933  0.933
    eigenvectors:
  0.000  0.000  1.000  0.000  0.000
  0.329  0.325  0.000  0.016  0.330
  0.325  0.329  0.000  0.330  0.016
  0.063  0.283  0.000  0.644  0.010
  0.283  0.063  0.000  0.010  0.644
    occupations:
  0.931  0.000  0.000  0.000  0.000
  0.000  0.690  0.000  0.059  0.167
  0.000  0.000  0.690  0.167 -0.059
  0.000  0.059  0.167  0.805  0.000
  0.000  0.167 -0.059  0.000  0.805
atom    3   Tr[ns(na)] =   3.68269
    eigenvalues: 
  0.343  0.343  0.372  0.391  0.391
    eigenvectors:
  0.000  0.000  1.000  0.000  0.000
  0.363  0.546  0.000  0.016  0.075
  0.546  0.363  0.000  0.075  0.016
  0.053  0.038  0.000  0.739  0.170
  0.038  0.053  0.000  0.170  0.739
    occupations:
  0.372  0.000  0.000  0.000  0.000
  0.000  0.348  0.000  0.000  0.014
  0.000  0.000  0.348  0.014  0.000
  0.000  0.000  0.014  0.387  0.000
  0.000  0.014  0.000  0.000  0.387
atom    4   Tr[ns(na)] =   3.68273
    eigenvalues: 
  0.343  0.343  0.372  0.391  0.391
    eigenvectors:
  0.000  0.000  1.000  0.000  0.000
  0.434  0.474  0.000  0.036  0.056
  0.474  0.434  0.000  0.056  0.036
  0.046  0.045  0.000  0.541  0.368
  0.045  0.046  0.000  0.368  0.541
    occupations:
  0.372  0.000  0.000  0.000  0.000
  0.000  0.348  0.000  0.000  0.014
  0.000  0.000  0.348  0.014  0.000
  0.000  0.000  0.014  0.387  0.000
  0.000  0.014  0.000  0.000  0.387
atom    5   Tr[ns(na)] =   5.47246
    eigenvalues: 
  0.850  0.937  0.950
    eigenvectors:
  0.338  0.000  0.662
  0.505  0.240  0.256
  0.157  0.760  0.083
    occupations:
  0.916 -0.041  0.023
 -0.041  0.896  0.023
  0.023  0.023  0.924
atom    6   Tr[ns(na)] =   5.47250
    eigenvalues: 
  0.850  0.937  0.950
    eigenvectors:
  0.338  0.000  0.662
  0.488  0.260  0.253
  0.174  0.740  0.086
    occupations:
  0.916  0.041  0.024
  0.041  0.898 -0.023
  0.024 -0.023  0.923
atom    7   Tr[ns(na)] =   5.47245
    eigenvalues: 
  0.850  0.937  0.950
    eigenvectors:
  0.338  0.000  0.662
  0.000  1.000  0.000
  0.661  0.000  0.338
    occupations:
  0.916  0.001 -0.047
  0.001  0.937  0.001
 -0.047  0.001  0.884
atom    8   Tr[ns(na)] =   5.47249
    eigenvalues: 
  0.850  0.937  0.950
    eigenvectors:
  0.338  0.000  0.662
  0.505  0.240  0.256
  0.157  0.760  0.083
    occupations:
  0.916 -0.041  0.023
 -0.041  0.896  0.023
  0.023  0.023  0.924
atom    9   Tr[ns(na)] =   5.47251
    eigenvalues: 
  0.850  0.937  0.950
    eigenvectors:
  0.338  0.000  0.662
  0.488  0.260  0.253
  0.174  0.740  0.086
    occupations:
  0.916  0.041  0.024
  0.041  0.898 -0.023
  0.024 -0.023  0.923
atom   10   Tr[ns(na)] =   5.47247
    eigenvalues: 
  0.850  0.937  0.950
    eigenvectors:
  0.338  0.000  0.662
  0.000  1.000  0.000
  0.661  0.000  0.338
    occupations:
  0.916  0.001 -0.047
  0.001  0.937  0.001
 -0.047  0.001  0.884
N of occupied +U levels =  56.1671344
 --- exit write_ns ---
 --- in v_hubbard ---
Hubbard energy    0.0000
 -------

     total cpu time spent up to now is      139.2 secs

     total energy              =    -538.31748584 Ry
     Harris-Foulkes estimate   =    -538.35220736 Ry
     estimated scf accuracy    <       0.16529177 Ry

     iteration #  4     ecut=    30.00 Ry     beta=0.20
     Davidson diagonalization with overlap
     ethr =  2.17E-04,  avg # of iterations =  2.0
 --- enter write_ns ---
 LDA+U parameters:
U( 1)     =  0.00000000
alpha( 1) =  0.00000000
U( 2)     =  0.00000000
alpha( 2) =  0.00000000
U( 3)     =  0.00000000
alpha( 3) =  0.00000000
U( 4)     =  0.00000000
alpha( 4) =  0.00000000
atom    1   Tr[ns(na)] =   7.22589
    eigenvalues: 
  0.557  0.557  0.829  0.835  0.835
    eigenvectors:
  0.000  0.000  1.000  0.000  0.000
  0.031  0.623  0.000  0.077  0.268
  0.623  0.031  0.000  0.268  0.077
  0.345  0.000  0.000  0.357  0.297
  0.000  0.345  0.000  0.297  0.357
    occupations:
  0.829  0.000  0.000  0.000  0.000
  0.000  0.653  0.000 -0.033  0.128
  0.000  0.000  0.653  0.128  0.033
  0.000 -0.033  0.128  0.739  0.000
  0.000  0.128  0.033  0.000  0.739
atom    2   Tr[ns(na)] =   8.74541
    eigenvalues: 
  0.705  0.705  0.987  0.987  0.989
    eigenvectors:
  0.000  0.000  0.000  0.000  1.000
  0.650  0.004  0.075  0.271  0.000
  0.004  0.650  0.271  0.075  0.000
  0.049  0.297  0.654  0.000  0.000
  0.297  0.049  0.000  0.654  0.000
    occupations:
  0.989  0.000  0.000  0.000  0.000
  0.000  0.802  0.000  0.060  0.121
  0.000  0.000  0.802  0.120 -0.060
  0.000  0.060  0.120  0.889  0.000
  0.000  0.121 -0.060  0.000  0.889
atom    3   Tr[ns(na)] =   3.75326
    eigenvalues: 
  0.351  0.351  0.379  0.398  0.398
    eigenvectors:
  0.000  0.000  1.000  0.000  0.000
  0.282  0.635  0.000  0.001  0.082
  0.635  0.282  0.000  0.082  0.001
  0.060  0.023  0.000  0.913  0.004
  0.023  0.060  0.000  0.004  0.913
    occupations:
  0.379  0.000  0.000  0.000  0.000
  0.000  0.355  0.000  0.000  0.013
  0.000  0.000  0.355  0.013  0.000
  0.000  0.000  0.013  0.394  0.000
  0.000  0.013  0.000  0.000  0.394
atom    4   Tr[ns(na)] =   3.75323
    eigenvalues: 
  0.351  0.351  0.379  0.398  0.398
    eigenvectors:
  0.000  0.000  1.000  0.000  0.000
  0.591  0.326  0.000  0.017  0.067
  0.326  0.591  0.000  0.066  0.017
  0.032  0.051  0.000  0.752  0.164
  0.051  0.032  0.000  0.164  0.752
    occupations:
  0.379  0.000  0.000  0.000  0.000
  0.000  0.355  0.000  0.000  0.013
  0.000  0.000  0.355  0.013  0.000
  0.000  0.000  0.013  0.394  0.000
  0.000  0.013  0.000  0.000  0.394
atom    5   Tr[ns(na)] =   5.44649
    eigenvalues: 
  0.849  0.932  0.942
    eigenvectors:
  0.341  0.000  0.659
  0.466  0.293  0.241
  0.193  0.707  0.100
    occupations:
  0.910 -0.037  0.024
 -0.037  0.896  0.023
  0.024  0.023  0.917
atom    6   Tr[ns(na)] =   5.44645
    eigenvalues: 
  0.849  0.932  0.942
    eigenvectors:
  0.341  0.000  0.659
  0.521  0.209  0.270
  0.138  0.791  0.071
    occupations:
  0.910  0.039  0.020
  0.039  0.892 -0.021
  0.020 -0.021  0.921
atom    7   Tr[ns(na)] =   5.44653
    eigenvalues: 
  0.849  0.932  0.942
    eigenvectors:
  0.341  0.000  0.659
  0.002  0.998  0.001
  0.657  0.002  0.340
    occupations:
  0.910 -0.002 -0.044
 -0.002  0.932 -0.002
 -0.044 -0.002  0.881
atom    8   Tr[ns(na)] =   5.44651
    eigenvalues: 
  0.849  0.932  0.942
    eigenvectors:
  0.341  0.000  0.659
  0.466  0.293  0.241
  0.193  0.707  0.100
    occupations:
  0.910 -0.037  0.024
 -0.037  0.896  0.023
  0.024  0.023  0.917
atom    9   Tr[ns(na)] =   5.44646
    eigenvalues: 
  0.849  0.932  0.942
    eigenvectors:
  0.341  0.000  0.659
  0.521  0.209  0.270
  0.138  0.791  0.071
    occupations:
  0.910  0.039  0.020
  0.039  0.892 -0.021
  0.020 -0.021  0.921
atom   10   Tr[ns(na)] =   5.44653
    eigenvalues: 
  0.849  0.932  0.942
    eigenvectors:
  0.341  0.000  0.659
  0.002  0.998  0.001
  0.657  0.002  0.340
    occupations:
  0.910 -0.002 -0.044
 -0.002  0.932 -0.002
 -0.044 -0.002  0.881
N of occupied +U levels =  56.1567624
 --- exit write_ns ---
 --- in v_hubbard ---
Hubbard energy    0.0000
 -------

     total cpu time spent up to now is      179.8 secs

     total energy              =    -538.28960188 Ry
     Harris-Foulkes estimate   =    -538.37695123 Ry
     estimated scf accuracy    <       1.25469903 Ry

     iteration #  5     ecut=    30.00 Ry     beta=0.20
     Davidson diagonalization with overlap
     ethr =  2.17E-04,  avg # of iterations =  1.0
 --- enter write_ns ---
 LDA+U parameters:
U( 1)     =  0.00000000
alpha( 1) =  0.00000000
U( 2)     =  0.00000000
alpha( 2) =  0.00000000
U( 3)     =  0.00000000
alpha( 3) =  0.00000000
U( 4)     =  0.00000000
alpha( 4) =  0.00000000
atom    1   Tr[ns(na)] =   8.13764
    eigenvalues: 
  0.607  0.607  0.950  0.952  0.952
    eigenvectors:
  0.000  0.000  1.000  0.000  0.000
  0.117  0.538  0.000  0.007  0.338
  0.538  0.117  0.000  0.338  0.007
  0.163  0.182  0.000  0.496  0.159
  0.182  0.163  0.000  0.159  0.496
    occupations:
  0.950  0.000  0.000  0.000  0.000
  0.000  0.726  0.000 -0.060  0.152
  0.000  0.000  0.726  0.152  0.060
  0.000 -0.060  0.152  0.833  0.000
  0.000  0.152  0.060  0.000  0.833
atom    2   Tr[ns(na)] =   8.05092
    eigenvalues: 
  0.599  0.599  0.941  0.944  0.944
    eigenvectors:
  0.000  0.000  1.000  0.000  0.000
  0.580  0.075  0.000  0.005  0.340
  0.075  0.580  0.000  0.340  0.005
  0.145  0.200  0.000  0.618  0.037
  0.200  0.145  0.000  0.037  0.618
    occupations:
  0.941  0.000  0.000  0.000  0.000
  0.000  0.718  0.000  0.058  0.153
  0.000  0.000  0.718  0.153 -0.058
  0.000  0.058  0.153  0.825  0.000
  0.000  0.153 -0.058  0.000  0.825
atom    3   Tr[ns(na)] =   3.81922
    eigenvalues: 
  0.359  0.359  0.384  0.404  0.404
    eigenvectors:
  0.000  0.000  1.000  0.000  0.000
  0.113  0.813  0.000  0.000  0.074
  0.813  0.113  0.000  0.074  0.000
  0.064  0.010  0.000  0.926  0.000
  0.010  0.064  0.000  0.000  0.926
    occupations:
  0.384  0.000  0.000  0.000  0.000
  0.000  0.362  0.000  0.000  0.012
  0.000  0.000  0.362  0.012  0.000
  0.000  0.000  0.012  0.400  0.000
  0.000  0.012  0.000  0.000  0.400
atom    4   Tr[ns(na)] =   3.81922
    eigenvalues: 
  0.359  0.359  0.384  0.404  0.404
    eigenvectors:
  0.000  0.000  1.000  0.000  0.000
  0.148  0.778  0.000  0.007  0.067
  0.778  0.148  0.000  0.067  0.007
  0.061  0.012  0.000  0.838  0.088
  0.012  0.062  0.000  0.088  0.838
    occupations:
  0.384  0.000  0.000  0.000  0.000
  0.000  0.362  0.000  0.000  0.012
  0.000  0.000  0.362  0.012  0.000
  0.000  0.000  0.012  0.400  0.000
  0.000  0.012  0.000  0.000  0.400
atom    5   Tr[ns(na)] =   5.40745
    eigenvalues: 
  0.838  0.927  0.939
    eigenvectors:
  0.342  0.000  0.658
  0.496  0.247  0.257
  0.162  0.753  0.085
    occupations:
  0.905 -0.042  0.024
 -0.042  0.886  0.023
  0.024  0.023  0.913
atom    6   Tr[ns(na)] =   5.40739
    eigenvalues: 
  0.838  0.927  0.939
    eigenvectors:
  0.342  0.000  0.658
  0.490  0.253  0.257
  0.167  0.747  0.086
    occupations:
  0.905  0.042  0.024
  0.042  0.886 -0.024
  0.024 -0.024  0.913
atom    7   Tr[ns(na)] =   5.40754
    eigenvalues: 
  0.838  0.927  0.939
    eigenvectors:
  0.342  0.000  0.658
  0.000  1.000  0.000
  0.658  0.000  0.342
    occupations:
  0.905  0.000 -0.048
  0.000  0.927  0.000
 -0.048  0.000  0.873
atom    8   Tr[ns(na)] =   5.40744
    eigenvalues: 
  0.838  0.927  0.939
    eigenvectors:
  0.342  0.000  0.658
  0.496  0.246  0.258
  0.162  0.754  0.085
    occupations:
  0.905 -0.042  0.024
 -0.042  0.886  0.023
  0.024  0.023  0.913
atom    9   Tr[ns(na)] =   5.40738
    eigenvalues: 
  0.838  0.927  0.939
    eigenvectors:
  0.342  0.000  0.658
  0.490  0.253  0.257
  0.167  0.747  0.086
    occupations:
  0.905  0.042  0.024
  0.042  0.886 -0.024
  0.024 -0.024  0.913
atom   10   Tr[ns(na)] =   5.40751
    eigenvalues: 
  0.838  0.927  0.939
    eigenvectors:
  0.342  0.000  0.658
  0.000  1.000  0.000
  0.658  0.000  0.342
    occupations:
  0.905  0.000 -0.048
  0.000  0.927  0.000
 -0.048  0.000  0.873
N of occupied +U levels =  56.2717108
 --- exit write_ns ---
 --- in v_hubbard ---
Hubbard energy    0.0000
 -------

     total cpu time spent up to now is      227.3 secs

     total energy              =    -538.31886116 Ry
     Harris-Foulkes estimate   =    -538.33683190 Ry
     estimated scf accuracy    <       0.04336122 Ry

     iteration #  6     ecut=    30.00 Ry     beta=0.20
     Davidson diagonalization with overlap
     ethr =  5.71E-05,  avg # of iterations =  3.2
 --- enter write_ns ---
 LDA+U parameters:
U( 1)     =  0.00000000
alpha( 1) =  0.00000000
U( 2)     =  0.00000000
alpha( 2) =  0.00000000
U( 3)     =  0.00000000
alpha( 3) =  0.00000000
U( 4)     =  0.00000000
alpha( 4) =  0.00000000
atom    1   Tr[ns(na)] =   7.76776
    eigenvalues: 
  0.541  0.541  0.932  0.935  0.935
    eigenvectors:
  0.000  0.000  1.000  0.000  0.000
  0.011  0.645  0.000  0.314  0.030
  0.645  0.011  0.000  0.030  0.314
  0.255  0.089  0.000  0.007  0.649
  0.089  0.255  0.000  0.649  0.007
    occupations:
  0.932  0.000  0.000  0.000  0.000
  0.000  0.677  0.000 -0.074  0.172
  0.000  0.000  0.677  0.172  0.074
  0.000 -0.074  0.172  0.799  0.000
  0.000  0.172  0.074  0.000  0.799
atom    2   Tr[ns(na)] =   7.76842
    eigenvalues: 
  0.540  0.540  0.933  0.936  0.936
    eigenvectors:
  0.000  0.000  1.000  0.000  0.000
  0.051  0.605  0.000  0.341  0.003
  0.604  0.051  0.000  0.003  0.341
  0.340  0.005  0.000  0.150  0.505
  0.005  0.340  0.000  0.505  0.151
    occupations:
  0.933  0.000  0.000  0.000  0.000
  0.000  0.676  0.000  0.073  0.173
  0.000  0.000  0.676  0.173 -0.073
  0.000  0.073  0.173  0.799  0.000
  0.000  0.173 -0.073  0.000  0.799
atom    3   Tr[ns(na)] =   3.76036
    eigenvalues: 
  0.350  0.350  0.380  0.400  0.400
    eigenvectors:
  0.000  0.000  1.000  0.000  0.000
  0.127  0.794  0.000  0.062  0.017
  0.794  0.127  0.000  0.017  0.062
  0.068  0.011  0.000  0.189  0.732
  0.011  0.068  0.000  0.732  0.189
    occupations:
  0.380  0.000  0.000  0.000  0.000
  0.000  0.354  0.000  0.000  0.013
  0.000  0.000  0.354  0.013  0.000
  0.000  0.000  0.013  0.396  0.000
  0.000  0.013  0.000  0.000  0.396
atom    4   Tr[ns(na)] =   3.76036
    eigenvalues: 
  0.350  0.350  0.380  0.400  0.400
    eigenvectors:
  0.000  0.000  1.000  0.000  0.000
  0.062  0.859  0.000  0.069  0.010
  0.858  0.062  0.000  0.010  0.069
  0.073  0.006  0.000  0.115  0.806
  0.006  0.073  0.000  0.806  0.115
    occupations:
  0.380  0.000  0.000  0.000  0.000
  0.000  0.354  0.000  0.000  0.013
  0.000  0.000  0.354  0.013  0.000
  0.000  0.000  0.013  0.396  0.000
  0.000  0.013  0.000  0.000  0.396
atom    5   Tr[ns(na)] =   5.51818
    eigenvalues: 
  0.870  0.940  0.949
    eigenvectors:
  0.332  0.000  0.668
  0.502  0.249  0.249
  0.166  0.750  0.084
    occupations:
  0.923 -0.032  0.018
 -0.032  0.907  0.019
  0.018  0.019  0.929
atom    6   Tr[ns(na)] =   5.51833
    eigenvalues: 
  0.870  0.940  0.949
    eigenvectors:
  0.332  0.000  0.668
  0.500  0.250  0.250
  0.168  0.750  0.083
    occupations:
  0.923  0.032  0.018
  0.032  0.907 -0.019
  0.018 -0.019  0.929
atom    7   Tr[ns(na)] =   5.51807
    eigenvalues: 
  0.870  0.940  0.949
    eigenvectors:
  0.332  0.000  0.668
  0.000  1.000  0.000
  0.668  0.000  0.332
    occupations:
  0.922  0.000 -0.037
  0.000  0.940  0.000
 -0.037  0.000  0.896
atom    8   Tr[ns(na)] =   5.51823
    eigenvalues: 
  0.870  0.940  0.949
    eigenvectors:
  0.332  0.000  0.668
  0.502  0.250  0.249
  0.166  0.750  0.084
    occupations:
  0.923 -0.032  0.018
 -0.032  0.907  0.019
  0.018  0.019  0.929
atom    9   Tr[ns(na)] =   5.51833
    eigenvalues: 
  0.870  0.940  0.949
    eigenvectors:
  0.332  0.000  0.668
  0.500  0.250  0.250
  0.168  0.750  0.083
    occupations:
  0.923  0.032  0.018
  0.032  0.907 -0.019
  0.018 -0.019  0.929
atom   10   Tr[ns(na)] =   5.51812
    eigenvalues: 
  0.870  0.940  0.949
    eigenvectors:
  0.332  0.000  0.668
  0.000  1.000  0.000
  0.668  0.000  0.332
    occupations:
  0.923  0.000 -0.037
  0.000  0.940  0.000
 -0.037  0.000  0.896
N of occupied +U levels =  56.1661558
 --- exit write_ns ---
 --- in v_hubbard ---
Hubbard energy    0.0000
 -------

     total cpu time spent up to now is      297.5 secs

     total energy              =    -538.31558654 Ry
     Harris-Foulkes estimate   =    -538.35791914 Ry
     estimated scf accuracy    <       0.17820828 Ry

     iteration #  7     ecut=    30.00 Ry     beta=0.20
     Davidson diagonalization with overlap
     ethr =  5.71E-05,  avg # of iterations =  2.3
 --- enter write_ns ---
 LDA+U parameters:
U( 1)     =  0.00000000
alpha( 1) =  0.00000000
U( 2)     =  0.00000000
alpha( 2) =  0.00000000
U( 3)     =  0.00000000
alpha( 3) =  0.00000000
U( 4)     =  0.00000000
alpha( 4) =  0.00000000
atom    1   Tr[ns(na)] =   7.99080
    eigenvalues: 
  0.590  0.590  0.936  0.940  0.940
    eigenvectors:
  0.000  0.000  1.000  0.000  0.000
  0.159  0.497  0.000  0.290  0.055
  0.497  0.159  0.000  0.055  0.289
  0.135  0.210  0.000  0.001  0.655
  0.210  0.135  0.000  0.655  0.001
    occupations:
  0.936  0.000  0.000  0.000  0.000
  0.000  0.711  0.000 -0.062  0.154
  0.000  0.000  0.711  0.154  0.062
  0.000 -0.062  0.154  0.819  0.000
  0.000  0.154  0.062  0.000  0.819
atom    2   Tr[ns(na)] =   7.99125
    eigenvalues: 
  0.589  0.589  0.937  0.940  0.940
    eigenvectors:
  0.000  0.000  1.000  0.000  0.000
  0.217  0.438  0.000  0.342  0.003
  0.438  0.217  0.000  0.003  0.342
  0.326  0.019  0.000  0.132  0.523
  0.019  0.326  0.000  0.523  0.132
    occupations:
  0.937  0.000  0.000  0.000  0.000
  0.000  0.710  0.000  0.061  0.155
  0.000  0.000  0.710  0.155 -0.061
  0.000  0.061  0.155  0.819  0.000
  0.000  0.155 -0.061  0.000  0.819
atom    3   Tr[ns(na)] =   3.80053
    eigenvalues: 
  0.355  0.355  0.384  0.403  0.403
    eigenvectors:
  0.000  0.000  1.000  0.000  0.000
  0.249  0.675  0.000  0.013  0.063
  0.675  0.249  0.000  0.063  0.013
  0.055  0.021  0.000  0.761  0.163
  0.021  0.055  0.000  0.163  0.761
    occupations:
  0.384  0.000  0.000  0.000  0.000
  0.000  0.359  0.000  0.000  0.013
  0.000  0.000  0.359  0.013  0.000
  0.000  0.000  0.013  0.399  0.000
  0.000  0.013  0.000  0.000  0.399
atom    4   Tr[ns(na)] =   3.80049
    eigenvalues: 
  0.355  0.355  0.384  0.403  0.403
    eigenvectors:
  0.000  0.000  1.000  0.000  0.000
  0.673  0.251  0.000  0.016  0.060
  0.251  0.673  0.000  0.060  0.016
  0.020  0.056  0.000  0.719  0.205
  0.056  0.020  0.000  0.205  0.719
    occupations:
  0.384  0.000  0.000  0.000  0.000
  0.000  0.359  0.000  0.000  0.013
  0.000  0.000  0.359  0.013  0.000
  0.000  0.000  0.013  0.399  0.000
  0.000  0.013  0.000  0.000  0.399
atom    5   Tr[ns(na)] =   5.44365
    eigenvalues: 
  0.849  0.931  0.942
    eigenvectors:
  0.339  0.000  0.661
  0.496  0.250  0.254
  0.164  0.750  0.085
    occupations:
  0.910 -0.038  0.022
 -0.038  0.893  0.022
  0.022  0.022  0.918
atom    6   Tr[ns(na)] =   5.44374
    eigenvalues: 
  0.849  0.931  0.942
    eigenvectors:
  0.339  0.000  0.661
  0.495  0.250  0.255
  0.166  0.750  0.084
    occupations:
  0.910  0.038  0.022
  0.038  0.893 -0.022
  0.022 -0.022  0.918
atom    7   Tr[ns(na)] =   5.44361
    eigenvalues: 
  0.849  0.931  0.942
    eigenvectors:
  0.339  0.000  0.661
  0.000  1.000  0.000
  0.661  0.000  0.339
    occupations:
  0.910  0.000 -0.044
  0.000  0.931  0.000
 -0.044  0.000  0.881
atom    8   Tr[ns(na)] =   5.44367
    eigenvalues: 
  0.849  0.931  0.942
    eigenvectors:
  0.339  0.000  0.661
  0.496  0.250  0.254
  0.164  0.750  0.085
    occupations:
  0.910 -0.038  0.022
 -0.038  0.893  0.022
  0.022  0.022  0.918
atom    9   Tr[ns(na)] =   5.44374
    eigenvalues: 
  0.849  0.931  0.942
    eigenvectors:
  0.339  0.000  0.661
  0.495  0.250  0.255
  0.166  0.750  0.084
    occupations:
  0.910  0.038  0.022
  0.038  0.893 -0.022
  0.022 -0.022  0.918
atom   10   Tr[ns(na)] =   5.44364
    eigenvalues: 
  0.849  0.931  0.942
    eigenvectors:
  0.339  0.000  0.661
  0.000  1.000  0.000
  0.661  0.000  0.339
    occupations:
  0.910  0.000 -0.044
  0.000  0.931  0.000
 -0.044  0.000  0.881
N of occupied +U levels =  56.2451280
 --- exit write_ns ---
 --- in v_hubbard ---
Hubbard energy    0.0000
 -------

     total cpu time spent up to now is      347.4 secs

     total energy              =    -538.33247623 Ry
     Harris-Foulkes estimate   =    -538.33218910 Ry
     estimated scf accuracy    <       0.00276761 Ry

     iteration #  8     ecut=    30.00 Ry     beta=0.20
     Davidson diagonalization with overlap
     ethr =  3.64E-06,  avg # of iterations =  6.6
 --- enter write_ns ---
 LDA+U parameters:
U( 1)     =  0.00000000
alpha( 1) =  0.00000000
U( 2)     =  0.00000000
alpha( 2) =  0.00000000
U( 3)     =  0.00000000
alpha( 3) =  0.00000000
U( 4)     =  0.00000000
alpha( 4) =  0.00000000
atom    1   Tr[ns(na)] =   7.99848
    eigenvalues: 
  0.591  0.591  0.937  0.940  0.940
    eigenvectors:
  0.000  0.000  1.000  0.000  0.000
  0.241  0.414  0.000  0.163  0.182
  0.414  0.241  0.000  0.182  0.163
  0.091  0.254  0.000  0.116  0.539
  0.254  0.091  0.000  0.539  0.116
    occupations:
  0.937  0.000  0.000  0.000  0.000
  0.000  0.711  0.000 -0.061  0.154
  0.000  0.000  0.711  0.154  0.061
  0.000 -0.061  0.154  0.820  0.000
  0.000  0.154  0.061  0.000  0.820
atom    2   Tr[ns(na)] =   7.99772
    eigenvalues: 
  0.590  0.590  0.938  0.941  0.941
    eigenvectors:
  0.000  0.000  1.000  0.000  0.000
  0.371  0.284  0.000  0.342  0.003
  0.284  0.371  0.000  0.003  0.342
  0.272  0.073  0.000  0.053  0.602
  0.073  0.272  0.000  0.602  0.053
    occupations:
  0.938  0.000  0.000  0.000  0.000
  0.000  0.711  0.000  0.061  0.155
  0.000  0.000  0.711  0.155 -0.061
  0.000  0.061  0.155  0.820  0.000
  0.000  0.155 -0.061  0.000  0.820
atom    3   Tr[ns(na)] =   3.79974
    eigenvalues: 
  0.355  0.355  0.384  0.403  0.403
    eigenvectors:
  0.000  0.000  1.000  0.000  0.000
  0.108  0.813  0.000  0.013  0.065
  0.813  0.108  0.000  0.065  0.013
  0.069  0.010  0.000  0.760  0.161
  0.010  0.069  0.000  0.161  0.760
    occupations:
  0.384  0.000  0.000  0.000  0.000
  0.000  0.359  0.000  0.000  0.013
  0.000  0.000  0.359  0.013  0.000
  0.000  0.000  0.013  0.399  0.000
  0.000  0.013  0.000  0.000  0.399
atom    4   Tr[ns(na)] =   3.79975
    eigenvalues: 
  0.355  0.355  0.384  0.403  0.403
    eigenvectors:
  0.000  0.000  1.000  0.000  0.000
  0.173  0.748  0.000  0.013  0.065
  0.749  0.173  0.000  0.065  0.013
  0.063  0.015  0.000  0.762  0.160
  0.015  0.063  0.000  0.160  0.762
    occupations:
  0.384  0.000  0.000  0.000  0.000
  0.000  0.359  0.000  0.000  0.013
  0.000  0.000  0.359  0.013  0.000
  0.000  0.000  0.013  0.399  0.000
  0.000  0.013  0.000  0.000  0.399
atom    5   Tr[ns(na)] =   5.44161
    eigenvalues: 
  0.849  0.931  0.942
    eigenvectors:
  0.339  0.000  0.661
  0.496  0.250  0.254
  0.164  0.750  0.085
    occupations:
  0.910 -0.038  0.022
 -0.038  0.893  0.022
  0.022  0.022  0.918
atom    6   Tr[ns(na)] =   5.44163
    eigenvalues: 
  0.849  0.931  0.942
    eigenvectors:
  0.340  0.000  0.660
  0.495  0.250  0.255
  0.166  0.750  0.084
    occupations:
  0.910  0.038  0.022
  0.038  0.893 -0.022
  0.022 -0.022  0.918
atom    7   Tr[ns(na)] =   5.44162
    eigenvalues: 
  0.849  0.931  0.942
    eigenvectors:
  0.340  0.000  0.660
  0.000  1.000  0.000
  0.660  0.000  0.340
    occupations:
  0.910  0.000 -0.044
  0.000  0.931  0.000
 -0.044  0.000  0.880
atom    8   Tr[ns(na)] =   5.44162
    eigenvalues: 
  0.849  0.931  0.942
    eigenvectors:
  0.339  0.000  0.661
  0.496  0.250  0.254
  0.164  0.750  0.085
    occupations:
  0.910 -0.038  0.022
 -0.038  0.893  0.022
  0.022  0.022  0.918
atom    9   Tr[ns(na)] =   5.44162
    eigenvalues: 
  0.849  0.931  0.942
    eigenvectors:
  0.340  0.000  0.660
  0.495  0.250  0.255
  0.166  0.750  0.084
    occupations:
  0.910  0.038  0.022
  0.038  0.893 -0.022
  0.022 -0.022  0.918
atom   10   Tr[ns(na)] =   5.44161
    eigenvalues: 
  0.849  0.931  0.942
    eigenvectors:
  0.340  0.000  0.660
  0.000  1.000  0.000
  0.660  0.000  0.340
    occupations:
  0.910  0.000 -0.044
  0.000  0.931  0.000
 -0.044  0.000  0.880
N of occupied +U levels =  56.2453942
 --- exit write_ns ---
 --- in v_hubbard ---
Hubbard energy    0.0000
 -------

     total cpu time spent up to now is      388.7 secs

     total energy              =    -538.33247652 Ry
     Harris-Foulkes estimate   =    -538.33264918 Ry
     estimated scf accuracy    <       0.00171102 Ry

     iteration #  9     ecut=    30.00 Ry     beta=0.20
     Davidson diagonalization with overlap
     ethr =  2.25E-06,  avg # of iterations =  1.6
 --- enter write_ns ---
 LDA+U parameters:
U( 1)     =  0.00000000
alpha( 1) =  0.00000000
U( 2)     =  0.00000000
alpha( 2) =  0.00000000
U( 3)     =  0.00000000
alpha( 3) =  0.00000000
U( 4)     =  0.00000000
alpha( 4) =  0.00000000
atom    1   Tr[ns(na)] =   8.01985
    eigenvalues: 
  0.595  0.595  0.938  0.941  0.941
    eigenvectors:
  0.000  0.000  1.000  0.000  0.000
  0.101  0.554  0.000  0.009  0.336
  0.554  0.101  0.000  0.336  0.009
  0.345  0.000  0.000  0.626  0.029
  0.000  0.345  0.000  0.029  0.626
    occupations:
  0.938  0.000  0.000  0.000  0.000
  0.000  0.715  0.000 -0.060  0.153
  0.000  0.000  0.715  0.153  0.060
  0.000 -0.060  0.153  0.821  0.000
  0.000  0.153  0.060  0.000  0.821
atom    2   Tr[ns(na)] =   8.01934
    eigenvalues: 
  0.595  0.595  0.938  0.941  0.941
    eigenvectors:
  0.000  0.000  1.000  0.000  0.000
  0.088  0.567  0.000  0.003  0.342
  0.567  0.088  0.000  0.342  0.003
  0.345  0.000  0.000  0.519  0.136
  0.000  0.345  0.000  0.136  0.519
    occupations:
  0.938  0.000  0.000  0.000  0.000
  0.000  0.714  0.000  0.060  0.153
  0.000  0.000  0.714  0.153 -0.060
  0.000  0.060  0.153  0.821  0.000
  0.000  0.153 -0.060  0.000  0.821
atom    3   Tr[ns(na)] =   3.79872
    eigenvalues: 
  0.355  0.355  0.384  0.403  0.403
    eigenvectors:
  0.000  0.000  1.000  0.000  0.000
  0.086  0.834  0.000  0.006  0.074
  0.834  0.086  0.000  0.074  0.006
  0.072  0.008  0.000  0.847  0.073
  0.008  0.072  0.000  0.073  0.847
    occupations:
  0.384  0.000  0.000  0.000  0.000
  0.000  0.359  0.000  0.000  0.013
  0.000  0.000  0.359  0.013  0.000
  0.000  0.000  0.013  0.399  0.000
  0.000  0.013  0.000  0.000  0.399
atom    4   Tr[ns(na)] =   3.79873
    eigenvalues: 
  0.355  0.355  0.384  0.403  0.403
    eigenvectors:
  0.000  0.000  1.000  0.000  0.000
  0.140  0.781  0.000  0.008  0.071
  0.781  0.140  0.000  0.071  0.008
  0.067  0.013  0.000  0.820  0.100
  0.013  0.067  0.000  0.100  0.820
    occupations:
  0.384  0.000  0.000  0.000  0.000
  0.000  0.359  0.000  0.000  0.013
  0.000  0.000  0.359  0.013  0.000
  0.000  0.000  0.013  0.399  0.000
  0.000  0.013  0.000  0.000  0.399
atom    5   Tr[ns(na)] =   5.43527
    eigenvalues: 
  0.847  0.930  0.941
    eigenvectors:
  0.340  0.000  0.660
  0.496  0.250  0.255
  0.164  0.750  0.085
    occupations:
  0.909 -0.039  0.022
 -0.039  0.891  0.022
  0.022  0.022  0.917
atom    6   Tr[ns(na)] =   5.43527
    eigenvalues: 
  0.847  0.930  0.941
    eigenvectors:
  0.340  0.000  0.660
  0.494  0.250  0.256
  0.166  0.750  0.085
    occupations:
  0.909  0.039  0.022
  0.039  0.892 -0.022
  0.022 -0.022  0.917
atom    7   Tr[ns(na)] =   5.43529
    eigenvalues: 
  0.847  0.930  0.941
    eigenvectors:
  0.340  0.000  0.660
  0.000  1.000  0.000
  0.660  0.000  0.340
    occupations:
  0.909  0.000 -0.045
  0.000  0.930  0.000
 -0.045  0.000  0.879
atom    8   Tr[ns(na)] =   5.43528
    eigenvalues: 
  0.847  0.930  0.941
    eigenvectors:
  0.340  0.000  0.660
  0.496  0.250  0.255
  0.164  0.750  0.085
    occupations:
  0.909 -0.039  0.022
 -0.039  0.891  0.022
  0.022  0.022  0.917
atom    9   Tr[ns(na)] =   5.43527
    eigenvalues: 
  0.847  0.930  0.941
    eigenvectors:
  0.340  0.000  0.660
  0.494  0.250  0.256
  0.166  0.750  0.085
    occupations:
  0.909  0.039  0.022
  0.039  0.892 -0.022
  0.022 -0.022  0.917
atom   10   Tr[ns(na)] =   5.43529
    eigenvalues: 
  0.847  0.930  0.941
    eigenvectors:
  0.340  0.000  0.660
  0.000  1.000  0.000
  0.660  0.000  0.340
    occupations:
  0.909  0.000 -0.045
  0.000  0.930  0.000
 -0.045  0.000  0.879
N of occupied +U levels =  56.2483179
 --- exit write_ns ---
 --- in v_hubbard ---
Hubbard energy    0.0000
 -------

     total cpu time spent up to now is      419.5 secs

     total energy              =    -538.33276683 Ry
     Harris-Foulkes estimate   =    -538.33263859 Ry
     estimated scf accuracy    <       0.00007541 Ry

     iteration # 10     ecut=    30.00 Ry     beta=0.20
     Davidson diagonalization with overlap
     ethr =  9.92E-08,  avg # of iterations =  3.2
 --- enter write_ns ---
 LDA+U parameters:
U( 1)     =  0.00000000
alpha( 1) =  0.00000000
U( 2)     =  0.00000000
alpha( 2) =  0.00000000
U( 3)     =  0.00000000
alpha( 3) =  0.00000000
U( 4)     =  0.00000000
alpha( 4) =  0.00000000
atom    1   Tr[ns(na)] =   8.02052
    eigenvalues: 
  0.595  0.595  0.938  0.941  0.941
    eigenvectors:
  0.000  0.000  1.000  0.000  0.000
  0.000  0.654  0.000  0.022  0.324
  0.654  0.000  0.000  0.324  0.022
  0.303  0.042  0.000  0.428  0.227
  0.042  0.303  0.000  0.227  0.428
    occupations:
  0.938  0.000  0.000  0.000  0.000
  0.000  0.715  0.000 -0.060  0.153
  0.000  0.000  0.715  0.153  0.060
  0.000 -0.060  0.153  0.822  0.000
  0.000  0.153  0.060  0.000  0.822
atom    2   Tr[ns(na)] =   8.01989
    eigenvalues: 
  0.595  0.595  0.938  0.941  0.941
    eigenvectors:
  0.000  0.000  1.000  0.000  0.000
  0.276  0.378  0.000  0.016  0.329
  0.378  0.276  0.000  0.329  0.016
  0.308  0.037  0.000  0.639  0.016
  0.037  0.308  0.000  0.016  0.639
    occupations:
  0.938  0.000  0.000  0.000  0.000
  0.000  0.714  0.000  0.060  0.153
  0.000  0.000  0.714  0.153 -0.060
  0.000  0.060  0.153  0.822  0.000
  0.000  0.153 -0.060  0.000  0.822
atom    3   Tr[ns(na)] =   3.80300
    eigenvalues: 
  0.355  0.355  0.384  0.403  0.403
    eigenvectors:
  0.000  0.000  1.000  0.000  0.000
  0.012  0.909  0.000  0.061  0.019
  0.909  0.012  0.000  0.019  0.061
  0.078  0.001  0.000  0.224  0.696
  0.001  0.078  0.000  0.696  0.224
    occupations:
  0.384  0.000  0.000  0.000  0.000
  0.000  0.359  0.000  0.000  0.013
  0.000  0.000  0.359  0.013  0.000
  0.000  0.000  0.013  0.399  0.000
  0.000  0.013  0.000  0.000  0.399
atom    4   Tr[ns(na)] =   3.80300
    eigenvalues: 
  0.355  0.355  0.384  0.403  0.403
    eigenvectors:
  0.000  0.000  1.000  0.000  0.000
  0.696  0.225  0.000  0.078  0.001
  0.225  0.696  0.000  0.001  0.078
  0.020  0.059  0.000  0.011  0.909
  0.059  0.020  0.000  0.909  0.011
    occupations:
  0.384  0.000  0.000  0.000  0.000
  0.000  0.359  0.000  0.000  0.013
  0.000  0.000  0.359  0.013  0.000
  0.000  0.000  0.013  0.399  0.000
  0.000  0.013  0.000  0.000  0.399
atom    5   Tr[ns(na)] =   5.43399
    eigenvalues: 
  0.846  0.929  0.941
    eigenvectors:
  0.340  0.000  0.660
  0.496  0.250  0.255
  0.164  0.750  0.085
    occupations:
  0.909 -0.039  0.022
 -0.039  0.891  0.022
  0.022  0.022  0.917
atom    6   Tr[ns(na)] =   5.43400
    eigenvalues: 
  0.846  0.929  0.941
    eigenvectors:
  0.340  0.000  0.660
  0.494  0.250  0.256
  0.166  0.750  0.085
    occupations:
  0.909  0.039  0.022
  0.039  0.891 -0.022
  0.022 -0.022  0.917
atom    7   Tr[ns(na)] =   5.43401
    eigenvalues: 
  0.846  0.929  0.941
    eigenvectors:
  0.340  0.000  0.660
  0.000  1.000  0.000
  0.660  0.000  0.340
    occupations:
  0.909  0.000 -0.045
  0.000  0.929  0.000
 -0.045  0.000  0.879
atom    8   Tr[ns(na)] =   5.43400
    eigenvalues: 
  0.846  0.929  0.941
    eigenvectors:
  0.340  0.000  0.660
  0.496  0.250  0.255
  0.164  0.750  0.085
    occupations:
  0.909 -0.039  0.022
 -0.039  0.891  0.022
  0.022  0.022  0.917
atom    9   Tr[ns(na)] =   5.43400
    eigenvalues: 
  0.846  0.929  0.941
    eigenvectors:
  0.340  0.000  0.660
  0.494  0.250  0.256
  0.166  0.750  0.085
    occupations:
  0.909  0.039  0.022
  0.039  0.891 -0.022
  0.022 -0.022  0.917
atom   10   Tr[ns(na)] =   5.43401
    eigenvalues: 
  0.846  0.929  0.941
    eigenvectors:
  0.340  0.000  0.660
  0.000  1.000  0.000
  0.660  0.000  0.340
    occupations:
  0.909  0.000 -0.045
  0.000  0.929  0.000
 -0.045  0.000  0.879
N of occupied +U levels =  56.2504244
 --- exit write_ns ---
 --- in v_hubbard ---
Hubbard energy    0.0000
 -------

     total cpu time spent up to now is      462.6 secs

     total energy              =    -538.33288400 Ry
     Harris-Foulkes estimate   =    -538.33278877 Ry
     estimated scf accuracy    <       0.00000923 Ry

     iteration # 11     ecut=    30.00 Ry     beta=0.20
     Davidson diagonalization with overlap
     ethr =  1.21E-08,  avg # of iterations =  2.0
 --- enter write_ns ---
 LDA+U parameters:
U( 1)     =  0.00000000
alpha( 1) =  0.00000000
U( 2)     =  0.00000000
alpha( 2) =  0.00000000
U( 3)     =  0.00000000
alpha( 3) =  0.00000000
U( 4)     =  0.00000000
alpha( 4) =  0.00000000
atom    1   Tr[ns(na)] =   8.02233
    eigenvalues: 
  0.596  0.596  0.938  0.941  0.941
    eigenvectors:
  0.000  0.000  1.000  0.000  0.000
  0.093  0.562  0.000  0.223  0.122
  0.562  0.093  0.000  0.122  0.223
  0.180  0.165  0.000  0.043  0.611
  0.165  0.180  0.000  0.611  0.043
    occupations:
  0.938  0.000  0.000  0.000  0.000
  0.000  0.715  0.000 -0.060  0.152
  0.000  0.000  0.715  0.152  0.060
  0.000 -0.060  0.152  0.822  0.000
  0.000  0.152  0.060  0.000  0.822
atom    2   Tr[ns(na)] =   8.02190
    eigenvalues: 
  0.595  0.595  0.938  0.941  0.941
    eigenvectors:
  0.000  0.000  1.000  0.000  0.000
  0.374  0.281  0.000  0.136  0.209
  0.281  0.374  0.000  0.209  0.136
  0.271  0.074  0.000  0.595  0.060
  0.074  0.271  0.000  0.060  0.595
    occupations:
  0.938  0.000  0.000  0.000  0.000
  0.000  0.715  0.000  0.060  0.153
  0.000  0.000  0.715  0.153 -0.060
  0.000  0.060  0.153  0.822  0.000
  0.000  0.153 -0.060  0.000  0.822
atom    3   Tr[ns(na)] =   3.80251
    eigenvalues: 
  0.355  0.355  0.384  0.403  0.403
    eigenvectors:
  0.000  0.000  1.000  0.000  0.000
  0.005  0.915  0.000  0.060  0.019
  0.915  0.005  0.000  0.019  0.060
  0.079  0.001  0.000  0.229  0.692
  0.001  0.079  0.000  0.692  0.229
    occupations:
  0.384  0.000  0.000  0.000  0.000
  0.000  0.359  0.000  0.000  0.013
  0.000  0.000  0.359  0.013  0.000
  0.000  0.000  0.013  0.399  0.000
  0.000  0.013  0.000  0.000  0.399
atom    4   Tr[ns(na)] =   3.80251
    eigenvalues: 
  0.355  0.355  0.384  0.403  0.403
    eigenvectors:
  0.000  0.000  1.000  0.000  0.000
  0.701  0.220  0.000  0.074  0.005
  0.220  0.701  0.000  0.005  0.074
  0.020  0.060  0.000  0.055  0.866
  0.060  0.020  0.000  0.866  0.055
    occupations:
  0.384  0.000  0.000  0.000  0.000
  0.000  0.359  0.000  0.000  0.013
  0.000  0.000  0.359  0.013  0.000
  0.000  0.000  0.013  0.399  0.000
  0.000  0.013  0.000  0.000  0.399
atom    5   Tr[ns(na)] =   5.43353
    eigenvalues: 
  0.846  0.929  0.941
    eigenvectors:
  0.340  0.000  0.660
  0.496  0.250  0.255
  0.164  0.750  0.086
    occupations:
  0.909 -0.039  0.022
 -0.039  0.891  0.022
  0.022  0.022  0.917
atom    6   Tr[ns(na)] =   5.43355
    eigenvalues: 
  0.846  0.929  0.941
    eigenvectors:
  0.340  0.000  0.660
  0.494  0.250  0.256
  0.166  0.750  0.085
    occupations:
  0.909  0.039  0.022
  0.039  0.891 -0.022
  0.022 -0.022  0.917
atom    7   Tr[ns(na)] =   5.43354
    eigenvalues: 
  0.846  0.929  0.941
    eigenvectors:
  0.340  0.000  0.660
  0.000  1.000  0.000
  0.660  0.000  0.340
    occupations:
  0.909  0.000 -0.045
  0.000  0.929  0.000
 -0.045  0.000  0.879
atom    8   Tr[ns(na)] =   5.43353
    eigenvalues: 
  0.846  0.929  0.941
    eigenvectors:
  0.340  0.000  0.660
  0.496  0.250  0.255
  0.164  0.750  0.086
    occupations:
  0.909 -0.039  0.022
 -0.039  0.891  0.022
  0.022  0.022  0.917
atom    9   Tr[ns(na)] =   5.43354
    eigenvalues: 
  0.846  0.929  0.941
    eigenvectors:
  0.340  0.000  0.660
  0.494  0.250  0.256
  0.166  0.750  0.085
    occupations:
  0.909  0.039  0.022
  0.039  0.891 -0.022
  0.022 -0.022  0.917
atom   10   Tr[ns(na)] =   5.43353
    eigenvalues: 
  0.846  0.929  0.941
    eigenvectors:
  0.340  0.000  0.660
  0.000  1.000  0.000
  0.660  0.000  0.340
    occupations:
  0.909  0.000 -0.045
  0.000  0.929  0.000
 -0.045  0.000  0.879
N of occupied +U levels =  56.2504603
 --- exit write_ns ---
 --- in v_hubbard ---
Hubbard energy    0.0000
 -------

     total cpu time spent up to now is      496.6 secs

     total energy              =    -538.33294697 Ry
     Harris-Foulkes estimate   =    -538.33288547 Ry
     estimated scf accuracy    <       0.00000154 Ry

     iteration # 12     ecut=    30.00 Ry     beta=0.20
     Davidson diagonalization with overlap
     ethr =  2.02E-09,  avg # of iterations =  2.0
 --- enter write_ns ---
 LDA+U parameters:
U( 1)     =  0.00000000
alpha( 1) =  0.00000000
U( 2)     =  0.00000000
alpha( 2) =  0.00000000
U( 3)     =  0.00000000
alpha( 3) =  0.00000000
U( 4)     =  0.00000000
alpha( 4) =  0.00000000
atom    1   Tr[ns(na)] =   8.02146
    eigenvalues: 
  0.596  0.596  0.938  0.941  0.941
    eigenvectors:
  0.000  0.000  1.000  0.000  0.000
  0.121  0.533  0.000  0.270  0.075
  0.533  0.121  0.000  0.075  0.270
  0.160  0.185  0.000  0.008  0.647
  0.185  0.160  0.000  0.647  0.008
    occupations:
  0.938  0.000  0.000  0.000  0.000
  0.000  0.715  0.000 -0.060  0.153
  0.000  0.000  0.715  0.153  0.060
  0.000 -0.060  0.153  0.822  0.000
  0.000  0.153  0.060  0.000  0.822
atom    2   Tr[ns(na)] =   8.02071
    eigenvalues: 
  0.595  0.595  0.938  0.941  0.941
    eigenvectors:
  0.000  0.000  1.000  0.000  0.000
  0.379  0.276  0.000  0.160  0.185
  0.276  0.379  0.000  0.185  0.160
  0.268  0.077  0.000  0.567  0.088
  0.077  0.268  0.000  0.088  0.567
    occupations:
  0.938  0.000  0.000  0.000  0.000
  0.000  0.714  0.000  0.060  0.153
  0.000  0.000  0.714  0.153 -0.060
  0.000  0.060  0.153  0.822  0.000
  0.000  0.153 -0.060  0.000  0.822
atom    3   Tr[ns(na)] =   3.80276
    eigenvalues: 
  0.355  0.355  0.384  0.403  0.403
    eigenvectors:
  0.000  0.000  1.000  0.000  0.000
  0.029  0.891  0.000  0.076  0.003
  0.891  0.029  0.000  0.003  0.076
  0.077  0.003  0.000  0.032  0.889
  0.003  0.077  0.000  0.889  0.032
    occupations:
  0.384  0.000  0.000  0.000  0.000
  0.000  0.359  0.000  0.000  0.013
  0.000  0.000  0.359  0.013  0.000
  0.000  0.000  0.013  0.399  0.000
  0.000  0.013  0.000  0.000  0.399
atom    4   Tr[ns(na)] =   3.80276
    eigenvalues: 
  0.355  0.355  0.384  0.403  0.403
    eigenvectors:
  0.000  0.000  1.000  0.000  0.000
  0.707  0.214  0.000  0.046  0.033
  0.214  0.707  0.000  0.033  0.046
  0.019  0.060  0.000  0.373  0.547
  0.060  0.019  0.000  0.547  0.373
    occupations:
  0.384  0.000  0.000  0.000  0.000
  0.000  0.359  0.000  0.000  0.013
  0.000  0.000  0.359  0.013  0.000
  0.000  0.000  0.013  0.399  0.000
  0.000  0.013  0.000  0.000  0.399
atom    5   Tr[ns(na)] =   5.43379
    eigenvalues: 
  0.846  0.929  0.941
    eigenvectors:
  0.340  0.000  0.660
  0.496  0.250  0.255
  0.164  0.750  0.086
    occupations:
  0.909 -0.039  0.022
 -0.039  0.891  0.022
  0.022  0.022  0.917
atom    6   Tr[ns(na)] =   5.43380
    eigenvalues: 
  0.846  0.929  0.941
    eigenvectors:
  0.340  0.000  0.660
  0.494  0.250  0.256
  0.166  0.750  0.085
    occupations:
  0.909  0.039  0.022
  0.039  0.891 -0.022
  0.022 -0.022  0.917
atom    7   Tr[ns(na)] =   5.43380
    eigenvalues: 
  0.846  0.929  0.941
    eigenvectors:
  0.340  0.000  0.660
  0.000  1.000  0.000
  0.660  0.000  0.340
    occupations:
  0.909  0.000 -0.045
  0.000  0.929  0.000
 -0.045  0.000  0.879
atom    8   Tr[ns(na)] =   5.43379
    eigenvalues: 
  0.846  0.929  0.941
    eigenvectors:
  0.340  0.000  0.660
  0.496  0.250  0.255
  0.164  0.750  0.086
    occupations:
  0.909 -0.039  0.022
 -0.039  0.891  0.022
  0.022  0.022  0.917
atom    9   Tr[ns(na)] =   5.43380
    eigenvalues: 
  0.846  0.929  0.941
    eigenvectors:
  0.340  0.000  0.660
  0.494  0.250  0.256
  0.166  0.750  0.085
    occupations:
  0.909  0.039  0.022
  0.039  0.891 -0.022
  0.022 -0.022  0.917
atom   10   Tr[ns(na)] =   5.43379
    eigenvalues: 
  0.846  0.929  0.941
    eigenvectors:
  0.340  0.000  0.660
  0.000  1.000  0.000
  0.660  0.000  0.340
    occupations:
  0.909  0.000 -0.045
  0.000  0.929  0.000
 -0.045  0.000  0.879
N of occupied +U levels =  56.2504437
 --- exit write_ns ---
 --- in v_hubbard ---
Hubbard energy    0.0000
 -------

     total cpu time spent up to now is      528.4 secs

     total energy              =    -538.33298766 Ry
     Harris-Foulkes estimate   =    -538.33294742 Ry
     estimated scf accuracy    <       0.00000119 Ry

     iteration # 13     ecut=    30.00 Ry     beta=0.20
     Davidson diagonalization with overlap
     ethr =  1.56E-09,  avg # of iterations =  2.0
 --- enter write_ns ---
 LDA+U parameters:
U( 1)     =  0.00000000
alpha( 1) =  0.00000000
U( 2)     =  0.00000000
alpha( 2) =  0.00000000
U( 3)     =  0.00000000
alpha( 3) =  0.00000000
U( 4)     =  0.00000000
alpha( 4) =  0.00000000
atom    1   Tr[ns(na)] =   8.02231
    eigenvalues: 
  0.596  0.596  0.938  0.941  0.941
    eigenvectors:
  0.000  0.000  1.000  0.000  0.000
  0.077  0.578  0.000  0.145  0.200
  0.578  0.077  0.000  0.200  0.145
  0.193  0.153  0.000  0.145  0.510
  0.153  0.193  0.000  0.510  0.145
    occupations:
  0.938  0.000  0.000  0.000  0.000
  0.000  0.715  0.000 -0.060  0.152
  0.000  0.000  0.715  0.152  0.060
  0.000 -0.060  0.152  0.822  0.000
  0.000  0.152  0.060  0.000  0.822
atom    2   Tr[ns(na)] =   8.02176
    eigenvalues: 
  0.595  0.595  0.938  0.941  0.941
    eigenvectors:
  0.000  0.000  1.000  0.000  0.000
  0.357  0.298  0.000  0.004  0.341
  0.298  0.357  0.000  0.341  0.004
  0.278  0.067  0.000  0.610  0.045
  0.067  0.278  0.000  0.045  0.610
    occupations:
  0.938  0.000  0.000  0.000  0.000
  0.000  0.715  0.000  0.060  0.153
  0.000  0.000  0.715  0.153 -0.060
  0.000  0.060  0.153  0.822  0.000
  0.000  0.153 -0.060  0.000  0.822
atom    3   Tr[ns(na)] =   3.80292
    eigenvalues: 
  0.355  0.355  0.384  0.403  0.403
    eigenvectors:
  0.000  0.000  1.000  0.000  0.000
  0.030  0.891  0.000  0.039  0.041
  0.891  0.030  0.000  0.041  0.039
  0.077  0.003  0.000  0.480  0.441
  0.003  0.077  0.000  0.441  0.480
    occupations:
  0.384  0.000  0.000  0.000  0.000
  0.000  0.359  0.000  0.000  0.013
  0.000  0.000  0.359  0.013  0.000
  0.000  0.000  0.013  0.399  0.000
  0.000  0.013  0.000  0.000  0.399
atom    4   Tr[ns(na)] =   3.80292
    eigenvalues: 
  0.355  0.355  0.384  0.403  0.403
    eigenvectors:
  0.000  0.000  1.000  0.000  0.000
  0.715  0.205  0.000  0.013  0.066
  0.205  0.715  0.000  0.066  0.013
  0.018  0.061  0.000  0.765  0.156
  0.061  0.018  0.000  0.156  0.765
    occupations:
  0.384  0.000  0.000  0.000  0.000
  0.000  0.359  0.000  0.000  0.013
  0.000  0.000  0.359  0.013  0.000
  0.000  0.000  0.013  0.399  0.000
  0.000  0.013  0.000  0.000  0.399
atom    5   Tr[ns(na)] =   5.43346
    eigenvalues: 
  0.846  0.929  0.941
    eigenvectors:
  0.340  0.000  0.660
  0.496  0.250  0.255
  0.164  0.750  0.086
    occupations:
  0.909 -0.039  0.022
 -0.039  0.891  0.022
  0.022  0.022  0.917
atom    6   Tr[ns(na)] =   5.43347
    eigenvalues: 
  0.846  0.929  0.941
    eigenvectors:
  0.340  0.000  0.660
  0.494  0.250  0.256
  0.166  0.750  0.085
    occupations:
  0.909  0.039  0.022
  0.039  0.891 -0.022
  0.022 -0.022  0.917
atom    7   Tr[ns(na)] =   5.43347
    eigenvalues: 
  0.846  0.929  0.941
    eigenvectors:
  0.340  0.000  0.660
  0.000  1.000  0.000
  0.660  0.000  0.340
    occupations:
  0.909  0.000 -0.045
  0.000  0.929  0.000
 -0.045  0.000  0.879
atom    8   Tr[ns(na)] =   5.43346
    eigenvalues: 
  0.846  0.929  0.941
    eigenvectors:
  0.340  0.000  0.660
  0.496  0.250  0.255
  0.164  0.750  0.086
    occupations:
  0.909 -0.039  0.022
 -0.039  0.891  0.022
  0.022  0.022  0.917
atom    9   Tr[ns(na)] =   5.43347
    eigenvalues: 
  0.846  0.929  0.941
    eigenvectors:
  0.340  0.000  0.660
  0.494  0.250  0.256
  0.166  0.750  0.085
    occupations:
  0.909  0.039  0.022
  0.039  0.891 -0.022
  0.022 -0.022  0.917
atom   10   Tr[ns(na)] =   5.43347
    eigenvalues: 
  0.846  0.929  0.941
    eigenvectors:
  0.340  0.000  0.660
  0.000  1.000  0.000
  0.660  0.000  0.340
    occupations:
  0.909  0.000 -0.045
  0.000  0.929  0.000
 -0.045  0.000  0.879
N of occupied +U levels =  56.2507039
 --- exit write_ns ---
 --- in v_hubbard ---
Hubbard energy    0.0000
 -------

     total cpu time spent up to now is      562.7 secs

     total energy              =    -538.33301379 Ry
     Harris-Foulkes estimate   =    -538.33298795 Ry
     estimated scf accuracy    <       0.00000024 Ry

     iteration # 14     ecut=    30.00 Ry     beta=0.20
     Davidson diagonalization with overlap
     ethr =  3.19E-10,  avg # of iterations =  1.0
 --- enter write_ns ---
 LDA+U parameters:
U( 1)     =  0.00000000
alpha( 1) =  0.00000000
U( 2)     =  0.00000000
alpha( 2) =  0.00000000
U( 3)     =  0.00000000
alpha( 3) =  0.00000000
U( 4)     =  0.00000000
alpha( 4) =  0.00000000
atom    1   Tr[ns(na)] =   8.02220
    eigenvalues: 
  0.596  0.596  0.938  0.941  0.941
    eigenvectors:
  0.000  0.000  1.000  0.000  0.000
  0.055  0.600  0.000  0.128  0.217
  0.600  0.055  0.000  0.217  0.128
  0.212  0.134  0.000  0.172  0.483
  0.134  0.212  0.000  0.483  0.172
    occupations:
  0.938  0.000  0.000  0.000  0.000
  0.000  0.715  0.000 -0.060  0.152
  0.000  0.000  0.715  0.152  0.060
  0.000 -0.060  0.152  0.822  0.000
  0.000  0.152  0.060  0.000  0.822
atom    2   Tr[ns(na)] =   8.02147
    eigenvalues: 
  0.595  0.595  0.938  0.941  0.941
    eigenvectors:
  0.000  0.000  1.000  0.000  0.000
  0.334  0.321  0.000  0.009  0.337
  0.321  0.334  0.000  0.337  0.009
  0.287  0.058  0.000  0.625  0.030
  0.058  0.287  0.000  0.030  0.625
    occupations:
  0.938  0.000  0.000  0.000  0.000
  0.000  0.715  0.000  0.060  0.153
  0.000  0.000  0.715  0.153 -0.060
  0.000  0.060  0.153  0.822  0.000
  0.000  0.153 -0.060  0.000  0.822
atom    3   Tr[ns(na)] =   3.80292
    eigenvalues: 
  0.355  0.355  0.384  0.403  0.403
    eigenvectors:
  0.000  0.000  1.000  0.000  0.000
  0.039  0.882  0.000  0.043  0.036
  0.882  0.039  0.000  0.036  0.043
  0.076  0.004  0.000  0.430  0.490
  0.004  0.076  0.000  0.490  0.430
    occupations:
  0.384  0.000  0.000  0.000  0.000
  0.000  0.359  0.000  0.000  0.013
  0.000  0.000  0.359  0.013  0.000
  0.000  0.000  0.013  0.399  0.000
  0.000  0.013  0.000  0.000  0.399
atom    4   Tr[ns(na)] =   3.80292
    eigenvalues: 
  0.355  0.355  0.384  0.403  0.403
    eigenvectors:
  0.000  0.000  1.000  0.000  0.000
  0.717  0.204  0.000  0.023  0.056
  0.204  0.717  0.000  0.056  0.023
  0.018  0.061  0.000  0.644  0.277
  0.061  0.018  0.000  0.277  0.644
    occupations:
  0.384  0.000  0.000  0.000  0.000
  0.000  0.359  0.000  0.000  0.013
  0.000  0.000  0.359  0.013  0.000
  0.000  0.000  0.013  0.399  0.000
  0.000  0.013  0.000  0.000  0.399
atom    5   Tr[ns(na)] =   5.43352
    eigenvalues: 
  0.846  0.929  0.941
    eigenvectors:
  0.340  0.000  0.660
  0.496  0.250  0.255
  0.164  0.750  0.085
    occupations:
  0.909 -0.039  0.022
 -0.039  0.891  0.022
  0.022  0.022  0.917
atom    6   Tr[ns(na)] =   5.43353
    eigenvalues: 
  0.846  0.929  0.941
    eigenvectors:
  0.340  0.000  0.660
  0.494  0.250  0.256
  0.166  0.750  0.085
    occupations:
  0.909  0.039  0.022
  0.039  0.891 -0.022
  0.022 -0.022  0.917
atom    7   Tr[ns(na)] =   5.43353
    eigenvalues: 
  0.846  0.929  0.941
    eigenvectors:
  0.340  0.000  0.660
  0.000  1.000  0.000
  0.660  0.000  0.340
    occupations:
  0.909  0.000 -0.045
  0.000  0.929  0.000
 -0.045  0.000  0.879
atom    8   Tr[ns(na)] =   5.43352
    eigenvalues: 
  0.846  0.929  0.941
    eigenvectors:
  0.340  0.000  0.660
  0.496  0.250  0.255
  0.164  0.750  0.086
    occupations:
  0.909 -0.039  0.022
 -0.039  0.891  0.022
  0.022  0.022  0.917
atom    9   Tr[ns(na)] =   5.43353
    eigenvalues: 
  0.846  0.929  0.941
    eigenvectors:
  0.340  0.000  0.660
  0.494  0.250  0.256
  0.166  0.750  0.085
    occupations:
  0.909  0.039  0.022
  0.039  0.891 -0.022
  0.022 -0.022  0.917
atom   10   Tr[ns(na)] =   5.43353
    eigenvalues: 
  0.846  0.929  0.941
    eigenvectors:
  0.340  0.000  0.660
  0.000  1.000  0.000
  0.660  0.000  0.340
    occupations:
  0.909  0.000 -0.045
  0.000  0.929  0.000
 -0.045  0.000  0.879
N of occupied +U levels =  56.2506540
 --- exit write_ns ---
 --- in v_hubbard ---
Hubbard energy    0.0000
 -------

     total cpu time spent up to now is      589.4 secs

     total energy              =    -538.33303046 Ry
     Harris-Foulkes estimate   =    -538.33301381 Ry
     estimated scf accuracy    <       0.00000004 Ry

     iteration # 15     ecut=    30.00 Ry     beta=0.20
     Davidson diagonalization with overlap
     ethr =  5.56E-11,  avg # of iterations =  2.8
 --- enter write_ns ---
 LDA+U parameters:
U( 1)     =  0.00000000
alpha( 1) =  0.00000000
U( 2)     =  0.00000000
alpha( 2) =  0.00000000
U( 3)     =  0.00000000
alpha( 3) =  0.00000000
U( 4)     =  0.00000000
alpha( 4) =  0.00000000
atom    1   Tr[ns(na)] =   8.02189
    eigenvalues: 
  0.596  0.596  0.938  0.941  0.941
    eigenvectors:
  0.000  0.000  1.000  0.000  0.000
  0.048  0.607  0.000  0.165  0.180
  0.607  0.048  0.000  0.180  0.165
  0.218  0.127  0.000  0.114  0.541
  0.127  0.218  0.000  0.541  0.114
    occupations:
  0.938  0.000  0.000  0.000  0.000
  0.000  0.715  0.000 -0.060  0.152
  0.000  0.000  0.715  0.152  0.060
  0.000 -0.060  0.152  0.822  0.000
  0.000  0.152  0.060  0.000  0.822
atom    2   Tr[ns(na)] =   8.02129
    eigenvalues: 
  0.595  0.595  0.938  0.941  0.941
    eigenvectors:
  0.000  0.000  1.000  0.000  0.000
  0.319  0.335  0.000  0.023  0.322
  0.335  0.319  0.000  0.322  0.023
  0.293  0.052  0.000  0.647  0.008
  0.052  0.293  0.000  0.008  0.647
    occupations:
  0.938  0.000  0.000  0.000  0.000
  0.000  0.715  0.000  0.060  0.153
  0.000  0.000  0.715  0.153 -0.060
  0.000  0.060  0.153  0.822  0.000
  0.000  0.153 -0.060  0.000  0.822
atom    3   Tr[ns(na)] =   3.80282
    eigenvalues: 
  0.355  0.355  0.384  0.403  0.403
    eigenvectors:
  0.000  0.000  1.000  0.000  0.000
  0.067  0.854  0.000  0.062  0.018
  0.854  0.067  0.000  0.018  0.062
  0.073  0.006  0.000  0.210  0.711
  0.006  0.073  0.000  0.711  0.210
    occupations:
  0.384  0.000  0.000  0.000  0.000
  0.000  0.359  0.000  0.000  0.013
  0.000  0.000  0.359  0.013  0.000
  0.000  0.000  0.013  0.399  0.000
  0.000  0.013  0.000  0.000  0.399
atom    4   Tr[ns(na)] =   3.80281
    eigenvalues: 
  0.355  0.355  0.384  0.403  0.403
    eigenvectors:
  0.000  0.000  1.000  0.000  0.000
  0.727  0.194  0.000  0.051  0.028
  0.194  0.727  0.000  0.028  0.051
  0.017  0.062  0.000  0.322  0.598
  0.062  0.017  0.000  0.598  0.322
    occupations:
  0.384  0.000  0.000  0.000  0.000
  0.000  0.359  0.000  0.000  0.013
  0.000  0.000  0.359  0.013  0.000
  0.000  0.000  0.013  0.399  0.000
  0.000  0.013  0.000  0.000  0.399
atom    5   Tr[ns(na)] =   5.43361
    eigenvalues: 
  0.846  0.929  0.941
    eigenvectors:
  0.340  0.000  0.660
  0.496  0.250  0.255
  0.164  0.750  0.085
    occupations:
  0.909 -0.039  0.022
 -0.039  0.891  0.022
  0.022  0.022  0.917
atom    6   Tr[ns(na)] =   5.43363
    eigenvalues: 
  0.846  0.929  0.941
    eigenvectors:
  0.340  0.000  0.660
  0.494  0.250  0.256
  0.166  0.750  0.085
    occupations:
  0.909  0.039  0.022
  0.039  0.891 -0.022
  0.022 -0.022  0.917
atom    7   Tr[ns(na)] =   5.43363
    eigenvalues: 
  0.846  0.929  0.941
    eigenvectors:
  0.340  0.000  0.660
  0.000  1.000  0.000
  0.660  0.000  0.340
    occupations:
  0.909  0.000 -0.045
  0.000  0.929  0.000
 -0.045  0.000  0.879
atom    8   Tr[ns(na)] =   5.43362
    eigenvalues: 
  0.846  0.929  0.941
    eigenvectors:
  0.340  0.000  0.660
  0.496  0.250  0.255
  0.164  0.750  0.085
    occupations:
  0.909 -0.039  0.022
 -0.039  0.891  0.022
  0.022  0.022  0.917
atom    9   Tr[ns(na)] =   5.43362
    eigenvalues: 
  0.846  0.929  0.941
    eigenvectors:
  0.340  0.000  0.660
  0.494  0.250  0.256
  0.166  0.750  0.085
    occupations:
  0.909  0.039  0.022
  0.039  0.891 -0.022
  0.022 -0.022  0.917
atom   10   Tr[ns(na)] =   5.43362
    eigenvalues: 
  0.846  0.929  0.941
[...]
     0.0625   0.0624   0.0622   0.0622   0.0575   0.0545   0.0240   0.0001
     0.0000   0.0000   0.0000   0.0000   0.0000   0.0000

          k = 0.4942-0.5706 0.1027 (  2198 PWs)   bands (ev):

   -19.7265 -19.6954  -6.9656  -6.6481  -6.1389  -5.8874  -5.5177  -5.3941
    -3.3037  -3.2510  -2.8745  -2.7083  -2.5281  -2.3856   5.9065   6.2399
     6.6046   6.9725   7.1873   7.3413   7.4458   7.6203   7.6626   7.8653
     8.1602   8.7819   9.0330   9.2981   9.6174   9.8086   9.9234  10.3594
    10.5891  11.0494  11.1713  11.2437  11.3769  11.4431  12.3197  12.7443
    13.4292  14.3643  16.9041  17.1122  17.3087  18.0145

     occupation numbers 
     0.0625   0.0625   0.0625   0.0625   0.0625   0.0625   0.0625   0.0625
     0.0625   0.0625   0.0625   0.0625   0.0625   0.0625   0.0625   0.0625
     0.0625   0.0625   0.0625   0.0625   0.0625   0.0625   0.0625   0.0625
     0.0625   0.0625   0.0625   0.0625   0.0625   0.0625   0.0625   0.0625
     0.0625   0.0624   0.0621   0.0617   0.0601   0.0587   0.0042   0.0001
     0.0000   0.0000   0.0000   0.0000   0.0000   0.0000

          k =-0.7412 0.1427-0.1027 (  2198 PWs)   bands (ev):

   -19.7265 -19.6954  -6.9651  -6.6490  -6.1377  -5.8885  -5.5167  -5.3948
    -3.3029  -3.2511  -2.8744  -2.7093  -2.5274  -2.3860   5.9085   6.2362
     6.6087   6.9717   7.1830   7.3426   7.4353   7.6333   7.6782   7.8476
     8.1608   8.7768   9.0370   9.2990   9.6199   9.8077   9.9238  10.3576
    10.5895  11.0532  11.1660  11.2448  11.3732  11.4468  12.3200  12.7445
    13.4293  14.3645  16.9023  17.1151  17.3081  18.0143

     occupation numbers 
     0.0625   0.0625   0.0625   0.0625   0.0625   0.0625   0.0625   0.0625
     0.0625   0.0625   0.0625   0.0625   0.0625   0.0625   0.0625   0.0625
     0.0625   0.0625   0.0625   0.0625   0.0625   0.0625   0.0625   0.0625
     0.0625   0.0625   0.0625   0.0625   0.0625   0.0625   0.0625   0.0625
     0.0625   0.0624   0.0621   0.0617   0.0602   0.0586   0.0042   0.0001
     0.0000   0.0000   0.0000   0.0000   0.0000   0.0000

          k = 0.2471-0.7133-0.1027 (  2198 PWs)   bands (ev):

   -19.7265 -19.6954  -6.9656  -6.6482  -6.1392  -5.8871  -5.5156  -5.3965
    -3.3028  -3.2509  -2.8750  -2.7079  -2.5276  -2.3864   5.9076   6.2359
     6.6069   6.9734   7.1852   7.3397   7.4343   7.6317   7.6808   7.8496
     8.1603   8.7766   9.0399   9.3010   9.6126   9.8129   9.9202  10.3590
    10.5896  11.0552  11.1650  11.2371  11.3785  11.4485  12.3198  12.7446
    13.4293  14.3645  16.9045  17.1117  17.3080  18.0128

     occupation numbers 
     0.0625   0.0625   0.0625   0.0625   0.0625   0.0625   0.0625   0.0625
     0.0625   0.0625   0.0625   0.0625   0.0625   0.0625   0.0625   0.0625
     0.0625   0.0625   0.0625   0.0625   0.0625   0.0625   0.0625   0.0625
     0.0625   0.0625   0.0625   0.0625   0.0625   0.0625   0.0625   0.0625
     0.0625   0.0624   0.0621   0.0617   0.0601   0.0585   0.0042   0.0001
     0.0000   0.0000   0.0000   0.0000   0.0000   0.0000

          k =-0.7412-0.1427 0.1027 (  2198 PWs)   bands (ev):

   -19.7265 -19.6954  -6.9660  -6.6474  -6.1402  -5.8861  -5.5166  -5.3958
    -3.3035  -3.2508  -2.8751  -2.7069  -2.5282  -2.3861   5.9056   6.2396
     6.6027   6.9744   7.1893   7.3385   7.4443   7.6191   7.6654   7.8671
     8.1598   8.7816   9.0358   9.3000   9.6103   9.8137   9.9198  10.3608
    10.5892  11.0515  11.1703  11.2360  11.3823  11.4447  12.3196  12.7444
    13.4292  14.3643  16.9063  17.1089  17.3085  18.0132

     occupation numbers 
     0.0625   0.0625   0.0625   0.0625   0.0625   0.0625   0.0625   0.0625
     0.0625   0.0625   0.0625   0.0625   0.0625   0.0625   0.0625   0.0625
     0.0625   0.0625   0.0625   0.0625   0.0625   0.0625   0.0625   0.0625
     0.0625   0.0625   0.0625   0.0625   0.0625   0.0625   0.0625   0.0625
     0.0625   0.0624   0.0621   0.0618   0.0600   0.0586   0.0042   0.0001
     0.0000   0.0000   0.0000   0.0000   0.0000   0.0000

          k = 0.2471 0.7133 0.1027 (  2198 PWs)   bands (ev):

   -19.7277 -19.6961  -6.9500  -6.6526  -6.1254  -5.9160  -5.5280  -5.3795
    -3.3023  -3.2504  -2.8768  -2.7041  -2.5267  -2.3818   5.8881   6.2587
     6.5855   6.9644   7.1812   7.3226   7.4572   7.6227   7.6581   7.8697
     8.1801   8.7738   9.0458   9.3076   9.6074   9.8159   9.9260  10.3516
    10.5840  11.0554  11.1697  11.2378  11.3785  11.4529  12.3181  12.7435
    13.4349  14.3614  16.9041  17.1093  17.3079  18.0141

     occupation numbers 
     0.0625   0.0625   0.0625   0.0625   0.0625   0.0625   0.0625   0.0625
     0.0625   0.0625   0.0625   0.0625   0.0625   0.0625   0.0625   0.0625
     0.0625   0.0625   0.0625   0.0625   0.0625   0.0625   0.0625   0.0625
     0.0625   0.0625   0.0625   0.0625   0.0625   0.0625   0.0625   0.0625
     0.0625   0.0624   0.0621   0.0617   0.0601   0.0584   0.0043   0.0001
     0.0000   0.0000   0.0000   0.0000   0.0000   0.0000

          k = 0.2471-0.4280 0.0000 (  2203 PWs)   bands (ev):

   -19.7378 -19.6845  -6.8499  -6.6479  -6.0455  -5.9904  -5.4530  -5.3720
    -3.5165  -3.2903  -2.8006  -2.7062  -2.5682  -2.5595   5.8879   6.2862
     6.8413   7.0801   7.1755   7.2580   7.4217   7.5017   7.5644   7.9371
     8.1697   8.9252   9.1380   9.3982   9.7681   9.7923  10.0665  10.3634
    10.8988  10.9277  11.0064  11.1921  11.2183  11.5437  12.2420  13.3256
    13.4009  14.1571  16.4339  16.9921  17.4203  17.9248

     occupation numbers 
     0.0625   0.0625   0.0625   0.0625   0.0625   0.0625   0.0625   0.0625
     0.0625   0.0625   0.0625   0.0625   0.0625   0.0625   0.0625   0.0625
     0.0625   0.0625   0.0625   0.0625   0.0625   0.0625   0.0625   0.0625
     0.0625   0.0625   0.0625   0.0625   0.0625   0.0625   0.0625   0.0625
     0.0625   0.0625   0.0624   0.0620   0.0619   0.0552   0.0069   0.0000
     0.0000   0.0000   0.0000   0.0000   0.0000   0.0000

          k =-0.4942 0.0000 0.0000 (  2203 PWs)   bands (ev):

   -19.7378 -19.6845  -6.8499  -6.6480  -6.0454  -5.9904  -5.4530  -5.3721
    -3.5166  -3.2903  -2.8006  -2.7062  -2.5678  -2.5599   5.8879   6.2862
     6.8414   7.0809   7.1725   7.2600   7.4218   7.5022   7.5644   7.9366
     8.1698   8.9252   9.1380   9.3982   9.7688   9.7915  10.0666  10.3633
    10.8988  10.9275  11.0064  11.1921  11.2185  11.5437  12.2420  13.3256
    13.4009  14.1571  16.4339  16.9921  17.4202  17.9239

     occupation numbers 
     0.0625   0.0625   0.0625   0.0625   0.0625   0.0625   0.0625   0.0625
     0.0625   0.0625   0.0625   0.0625   0.0625   0.0625   0.0625   0.0625
     0.0625   0.0625   0.0625   0.0625   0.0625   0.0625   0.0625   0.0625
     0.0625   0.0625   0.0625   0.0625   0.0625   0.0625   0.0625   0.0625
     0.0625   0.0625   0.0624   0.0620   0.0619   0.0552   0.0069   0.0000
     0.0000   0.0000   0.0000   0.0000   0.0000   0.0000

          k = 0.4942 0.2853 0.4107 (  2202 PWs)   bands (ev):

   -19.7284 -19.6924  -7.1768  -6.4601  -6.2481  -5.9614  -5.5297  -5.3049
    -3.1919  -3.1191  -3.0425  -2.6517  -2.4814  -2.2243   5.8167   6.1278
     6.2438   6.8700   7.1752   7.2847   7.5717   7.6703   8.1773   8.2392
     8.2490   8.3167   8.6285   9.4187   9.6866   9.8629  10.0441  10.0833
    10.4437  10.9493  11.1155  11.2789  11.4108  11.5765  11.9019  12.4318
    13.3304  14.8003  17.0410  17.2637  17.5194  17.6107

     occupation numbers 
     0.0313   0.0313   0.0313   0.0313   0.0313   0.0313   0.0313   0.0313
     0.0313   0.0313   0.0313   0.0313   0.0313   0.0313   0.0313   0.0313
     0.0313   0.0313   0.0313   0.0313   0.0313   0.0313   0.0313   0.0313
     0.0313   0.0313   0.0313   0.0313   0.0312   0.0312   0.0312   0.0312
     0.0312   0.0312   0.0311   0.0307   0.0297   0.0269   0.0150   0.0009
     0.0000   0.0000   0.0000   0.0000   0.0000   0.0000

          k = 0.0000 0.5706-0.4107 (  2202 PWs)   bands (ev):

   -19.7284 -19.6924  -7.1768  -6.4602  -6.2479  -5.9614  -5.5298  -5.3049
    -3.1919  -3.1191  -3.0425  -2.6517  -2.4814  -2.2243   5.8167   6.1278
     6.2438   6.8700   7.1752   7.2847   7.5711   7.6709   8.1775   8.2391
     8.2491   8.3164   8.6285   9.4187   9.6865   9.8629  10.0443  10.0831
    10.4437  10.9493  11.1157  11.2786  11.4111  11.5765  11.9018  12.4318
    13.3304  14.8003  17.0410  17.2638  17.5194  17.6107

     occupation numbers 
     0.0313   0.0313   0.0313   0.0313   0.0313   0.0313   0.0313   0.0313
     0.0313   0.0313   0.0313   0.0313   0.0313   0.0313   0.0313   0.0313
     0.0313   0.0313   0.0313   0.0313   0.0313   0.0313   0.0313   0.0313
     0.0313   0.0313   0.0313   0.0313   0.0312   0.0312   0.0312   0.0312
     0.0312   0.0312   0.0311   0.0307   0.0297   0.0269   0.0150   0.0009
     0.0000   0.0000   0.0000   0.0000   0.0000   0.0000

          k = 0.7412-0.4280 0.0000 (  2204 PWs)   bands (ev):

   -19.7372 -19.6853  -6.7428  -6.5976  -6.1549  -5.8412  -5.6914  -5.5441
    -3.1723  -3.0889  -3.0428  -2.6783  -2.6569  -2.5816   5.9459   6.4878
     6.8270   7.1032   7.1774   7.2811   7.4008   7.4923   7.6925   7.8734
     8.2092   8.8200   9.1709   9.4946   9.5826   9.6896   9.8517  10.2267
    10.8890  11.0059  11.0348  11.2552  11.2800  11.4216  12.2441  13.2459
    13.3137  14.1873  16.6887  16.7210  17.5887  17.7924

     occupation numbers 
     0.0625   0.0625   0.0625   0.0625   0.0625   0.0625   0.0625   0.0625
     0.0625   0.0625   0.0625   0.0625   0.0625   0.0625   0.0625   0.0625
     0.0625   0.0625   0.0625   0.0625   0.0625   0.0625   0.0625   0.0625
     0.0625   0.0625   0.0625   0.0625   0.0625   0.0625   0.0625   0.0625
     0.0625   0.0624   0.0624   0.0616   0.0614   0.0592   0.0068   0.0000
     0.0000   0.0000   0.0000   0.0000   0.0000   0.0000

          k = 0.0000-0.8559 0.0000 (  2204 PWs)   bands (ev):

   -19.7373 -19.6852  -6.7360  -6.6107  -6.1468  -5.8348  -5.6864  -5.5583
    -3.1743  -3.0887  -3.0429  -2.6738  -2.6546  -2.5852   5.9265   6.5011
     6.8129   7.1098   7.1901   7.2917   7.3937   7.4912   7.6948   7.8877
     8.2213   8.8022   9.1592   9.4735   9.5838   9.6933   9.8514  10.2330
    10.8933  11.0095  11.0390  11.2603  11.2780  11.4153  12.2439  13.2482
    13.3167  14.1828  16.6863  16.7226  17.5909  17.7929

     occupation numbers 
     0.0625   0.0625   0.0625   0.0625   0.0625   0.0625   0.0625   0.0625
     0.0625   0.0625   0.0625   0.0625   0.0625   0.0625   0.0625   0.0625
     0.0625   0.0625   0.0625   0.0625   0.0625   0.0625   0.0625   0.0625
     0.0625   0.0625   0.0625   0.0625   0.0625   0.0625   0.0625   0.0625
     0.0625   0.0624   0.0624   0.0616   0.0614   0.0593   0.0068   0.0000
     0.0000   0.0000   0.0000   0.0000   0.0000   0.0000

          k = 0.4942-0.2853-0.1027 (  2211 PWs)   bands (ev):

   -19.7281 -19.6957  -6.9662  -6.5506  -6.3248  -5.7175  -5.6344  -5.3559
    -3.3160  -3.1623  -3.0292  -2.6004  -2.5609  -2.3750   5.9231   6.2287
     6.5445   6.9582   7.2095   7.2209   7.4697   7.6326   7.7490   7.8432
     8.2159   8.8458   9.0482   9.3979   9.4680   9.6893  10.0114  10.3413
    10.6104  11.1192  11.2552  11.2640  11.3094  11.3384  12.2727  12.7587
    13.4812  14.3432  16.8834  16.9337  17.5798  17.9256

     occupation numbers 
     0.0625   0.0625   0.0625   0.0625   0.0625   0.0625   0.0625   0.0625
     0.0625   0.0625   0.0625   0.0625   0.0625   0.0625   0.0625   0.0625
     0.0625   0.0625   0.0625   0.0625   0.0625   0.0625   0.0625   0.0625
     0.0625   0.0625   0.0625   0.0625   0.0625   0.0625   0.0625   0.0625
     0.0625   0.0623   0.0616   0.0615   0.0611   0.0607   0.0057   0.0001
     0.0000   0.0000   0.0000   0.0000   0.0000   0.0000

          k = 0.0000-0.5706 0.1027 (  2211 PWs)   bands (ev):

   -19.7269 -19.6950  -6.9812  -6.5463  -6.3267  -5.7024  -5.6238  -5.3695
    -3.3163  -3.1625  -3.0297  -2.6032  -2.5611  -2.3791   5.9402   6.2080
     6.5630   6.9648   7.2208   7.2282   7.4698   7.6296   7.7525   7.8366
     8.1969   8.8564   9.0377   9.4028   9.4779   9.6625  10.0062  10.3521
    10.6170  11.1172  11.2522  11.2614  11.3121  11.3352  12.2740  12.7594
    13.4756  14.3461  16.8842  16.9332  17.5790  17.9261

     occupation numbers 
     0.0625   0.0625   0.0625   0.0625   0.0625   0.0625   0.0625   0.0625
     0.0625   0.0625   0.0625   0.0625   0.0625   0.0625   0.0625   0.0625
     0.0625   0.0625   0.0625   0.0625   0.0625   0.0625   0.0625   0.0625
     0.0625   0.0625   0.0625   0.0625   0.0625   0.0625   0.0625   0.0625
     0.0625   0.0623   0.0616   0.0616   0.0611   0.0608   0.0057   0.0001
     0.0000   0.0000   0.0000   0.0000   0.0000   0.0000

          k = 0.7412 0.4280 0.3080 (  2210 PWs)   bands (ev):

   -19.7266 -19.6955  -6.9181  -6.4549  -6.3053  -5.7960  -5.7620  -5.4971
    -3.0682  -3.0499  -2.9616  -2.7302  -2.6222  -2.4288   6.0080   6.3498
     6.6247   6.9436   7.2084   7.2766   7.5022   7.6504   7.7912   7.8637
     8.1718   8.8601   8.9060   9.4606   9.5116   9.5186   9.6615  10.2050
    10.6997  11.1277  11.2277  11.2522  11.3688  11.4017  12.2327  12.7107
    13.4241  14.3158  17.0585  17.0675  17.5474  17.9018

     occupation numbers 
     0.0625   0.0625   0.0625   0.0625   0.0625   0.0625   0.0625   0.0625
     0.0625   0.0625   0.0625   0.0625   0.0625   0.0625   0.0625   0.0625
     0.0625   0.0625   0.0625   0.0625   0.0625   0.0625   0.0625   0.0625
     0.0625   0.0625   0.0625   0.0625   0.0625   0.0625   0.0625   0.0625
     0.0625   0.0622   0.0618   0.0616   0.0603   0.0596   0.0073   0.0001
     0.0000   0.0000   0.0000   0.0000   0.0000   0.0000

          k = 0.0000 0.8559-0.3080 (  2210 PWs)   bands (ev):

   -19.7266 -19.6955  -6.9181  -6.4548  -6.3054  -5.7959  -5.7620  -5.4972
    -3.0682  -3.0499  -2.9616  -2.7302  -2.6222  -2.4288   6.0080   6.3497
     6.6248   6.9435   7.2083   7.2766   7.5020   7.6506   7.7936   7.8609
     8.1722   8.8607   8.9056   9.4603   9.5111   9.5193   9.6616  10.2050
    10.6997  11.1279  11.2265  11.2533  11.3686  11.4019  12.2327  12.7107
    13.4241  14.3158  17.0586  17.0674  17.5474  17.9018

     occupation numbers 
     0.0625   0.0625   0.0625   0.0625   0.0625   0.0625   0.0625   0.0625
     0.0625   0.0625   0.0625   0.0625   0.0625   0.0625   0.0625   0.0625
     0.0625   0.0625   0.0625   0.0625   0.0625   0.0625   0.0625   0.0625
     0.0625   0.0625   0.0625   0.0625   0.0625   0.0625   0.0625   0.0625
     0.0625   0.0622   0.0618   0.0616   0.0603   0.0596   0.0073   0.0001
     0.0000   0.0000   0.0000   0.0000   0.0000   0.0000

          k = 0.2471 0.7133-0.2053 (  2206 PWs)   bands (ev):

   -19.7119 -19.7114  -6.8911  -6.8723  -6.0603  -6.0278  -5.4424  -5.4227
    -3.1497  -3.1491  -2.8154  -2.8101  -2.3827  -2.3794   6.0682   6.0973
     6.7385   6.7559   7.0823   7.0876   7.3802   7.3971   7.8916   7.9333
     8.7835   8.8001   8.8795   8.9008   9.5328   9.5464  10.0780  10.0881
    10.9023  10.9029  11.1200  11.1291  11.4262  11.4369  12.2889  12.2920
    14.0069  14.0174  17.4247  17.4278  17.8665  17.8677

     occupation numbers 
     0.0625   0.0625   0.0625   0.0625   0.0625   0.0625   0.0625   0.0625
     0.0625   0.0625   0.0625   0.0625   0.0625   0.0625   0.0625   0.0625
     0.0625   0.0625   0.0625   0.0625   0.0625   0.0625   0.0625   0.0625
     0.0625   0.0625   0.0625   0.0625   0.0625   0.0625   0.0625   0.0625
     0.0625   0.0625   0.0623   0.0622   0.0591   0.0588   0.0052   0.0051
     0.0000   0.0000   0.0000   0.0000   0.0000   0.0000

          k =-0.7412-0.1427-0.2053 (  2206 PWs)   bands (ev):

   -19.7108 -19.7106  -6.9088  -6.8738  -6.0307  -6.0290  -5.4541  -5.4218
    -3.1515  -3.1494  -2.8114  -2.8101  -2.3926  -2.3788   6.0669   6.0901
     6.7551   6.7586   7.0812   7.1241   7.3983   7.4017   7.8843   7.9176
     8.7765   8.7830   8.8813   8.8861   9.5238   9.5270  10.0937  10.0949
    10.9095  10.9115  11.1208  11.1256  11.4250  11.4284  12.2889  12.2941
    14.0058  14.0164  17.4249  17.4258  17.8676  17.8702

     occupation numbers 
     0.0625   0.0625   0.0625   0.0625   0.0625   0.0625   0.0625   0.0625
     0.0625   0.0625   0.0625   0.0625   0.0625   0.0625   0.0625   0.0625
     0.0625   0.0625   0.0625   0.0625   0.0625   0.0625   0.0625   0.0625
     0.0625   0.0625   0.0625   0.0625   0.0625   0.0625   0.0625   0.0625
     0.0625   0.0625   0.0623   0.0622   0.0591   0.0590   0.0052   0.0050
     0.0000   0.0000   0.0000   0.0000   0.0000   0.0000

     the Fermi energy is    11.8882 ev

!    total energy              =    -538.09625849 Ry
     Harris-Foulkes estimate   =    -538.09623759 Ry
     estimated scf accuracy    <          8.8E-09 Ry

     The total energy is the sum of the following terms:

     one-electron contribution =     -32.91208589 Ry
     hartree contribution      =      83.65165773 Ry
     xc contribution           =    -199.59503527 Ry
     ewald contribution        =    -389.44315552 Ry
     Hubbard energy            =       0.22415267 Ry
     smearing contrib. (-TS)   =      -0.02179221 Ry

     convergence has been achieved in  10 iterations

     init_run     :      7.45s CPU      7.99s WALL (       1 calls)
     electrons    :    375.95s CPU    382.88s WALL (       1 calls)

     Called by init_run:
     wfcinit      :      0.00s CPU      0.00s WALL (       1 calls)
     potinit      :      0.32s CPU      0.58s WALL (       1 calls)

     Called by electrons:
     c_bands      :    289.52s CPU    292.53s WALL (      10 calls)
     sum_band     :     62.72s CPU     64.07s WALL (      10 calls)
     v_of_rho     :      3.02s CPU      3.12s WALL (      11 calls)
     v_h          :      0.18s CPU      0.18s WALL (      11 calls)
     v_xc         :      2.84s CPU      2.93s WALL (      11 calls)
     newd         :     22.34s CPU     23.44s WALL (      11 calls)
     mix_rho      :      0.31s CPU      0.31s WALL (      10 calls)

     Called by c_bands:
     init_us_2    :      2.94s CPU      2.97s WALL (     720 calls)
     cegterg      :    281.38s CPU    283.22s WALL (     360 calls)

     Called by sum_band:
     sum_band:bec :      0.27s CPU      0.28s WALL (     360 calls)
     addusdens    :     13.15s CPU     13.17s WALL (      10 calls)

     Called by *egterg:
     h_psi        :    203.79s CPU    205.18s WALL (    1472 calls)
     s_psi        :     11.75s CPU     11.78s WALL (    1472 calls)
     g_psi        :      0.89s CPU      0.88s WALL (    1112 calls)
     cdiaghg      :     26.19s CPU     26.30s WALL (    1436 calls)
     cegterg:over :     13.94s CPU     14.05s WALL (    1112 calls)
     cegterg:upda :      9.76s CPU      9.83s WALL (    1112 calls)
     cegterg:last :      6.68s CPU      6.74s WALL (     413 calls)

     Called by h_psi:
     h_psi:vloc   :    166.06s CPU    167.20s WALL (    1472 calls)
     h_psi:vnl    :     23.86s CPU     24.00s WALL (    1472 calls)
     add_vuspsi   :     11.75s CPU     11.81s WALL (    1472 calls)
     vhpsi        :     13.30s CPU     13.41s WALL (    1472 calls)

     General routines
     calbec       :     24.99s CPU     25.20s WALL (    3664 calls)
     fft          :      2.10s CPU      2.17s WALL (     171 calls)
     ffts         :      0.06s CPU      0.06s WALL (      21 calls)
     fftw         :    154.09s CPU    155.64s WALL (  101090 calls)
     interpolate  :      0.36s CPU      0.37s WALL (      21 calls)
     davcio       :      0.01s CPU      0.98s WALL (     756 calls)

     Parallel routines
     fft_scatter  :     41.55s CPU     42.00s WALL (  101282 calls)
     Hubbard U routines
     new_ns       :      2.55s CPU      2.99s WALL (      10 calls)
     vhpsi        :     13.30s CPU     13.41s WALL (    1472 calls)

     PWSCF        :  6m23.94s CPU     6m33.15s WALL


   This run was terminated on:  15:37:35  11Nov2012            

=------------------------------------------------------------------------------=
   JOB DONE.
=------------------------------------------------------------------------------=
 
Job Ended on n9 at Sun Nov 11 15:37:41 EST 2012
 
