 
Job started on n18 at Sun Nov 11 07:43:20 EST 2012

     Program PWSCF v.5.0.1 starts on 11Nov2012 at  7:43:22 

     This program is part of the open-source Quantum ESPRESSO suite
     for quantum simulation of materials; please cite
         "P. Giannozzi et al., J. Phys.:Condens. Matter 21 395502 (2009);
          URL http://www.quantum-espresso.org", 
     in publications or presentations arising from this work. More details at
     http://www.quantum-espresso.org/quote.php

     Parallel version (MPI), running on     2 processors
     R & G space division:  proc/pool =    2

     Current dimensions of program PWSCF are:
     Max number of different atomic species (ntypx) = 10
     Max number of k-points (npk) =  40000
     Max angular momentum in pseudopotentials (lmaxx) =  3
     Reading input from CoLaO_U0_init.in
               file Co.pbe-nd-rrkjus.UPF: wavefunction(s)  4S 3D renormalized
               file Co.pbe-nd-rrkjus.UPF: wavefunction(s)  4S 3D renormalized
               file O.pbe-rrkjus.UPF: wavefunction(s)  2S renormalized

     Subspace diagonalization in iterative solution of the eigenvalue problem:
     a serial algorithm will be used


     Parallelization info
     --------------------
     sticks:   dense  smooth     PW     G-vecs:    dense   smooth      PW
     Min        1112     444    131                34808     8786    1448
     Max        1113     445    132                34809     8787    1449
     Sum        2225     889    263                69617    17573    2897


     Title: 
     GGA + U, U = 1D-40, init                                                   


     bravais-lattice index     =            5
     lattice parameter (alat)  =      10.3292  a.u.
     unit-cell volume          =     793.0599 (a.u.)^3
     number of atoms/cell      =           10
     number of atomic types    =            4
     number of electrons       =        76.00
     number of Kohn-Sham states=           46
     kinetic-energy cutoff     =      30.0000  Ry
     charge density cutoff     =     300.0000  Ry
     convergence threshold     =      1.0E-08
     mixing beta               =       0.2000
     number of iterations used =            8  plain     mixing
     Exchange-correlation      =  SLA  PW   PBE  PBE ( 1 4 3 4 0)
     EXX-fraction              =        0.00

     celldm(1)=  10.329242  celldm(2)=   0.000000  celldm(3)=   0.000000
     celldm(4)=   0.488100  celldm(5)=   0.000000  celldm(6)=   0.000000

     crystal axes: (cart. coord. in units of alat)
               a(1) = (   0.505915  -0.292090   0.811624 )  
               a(2) = (   0.000000   0.584180   0.811624 )  
               a(3) = (  -0.505915  -0.292090   0.811624 )  

     reciprocal axes: (cart. coord. in units 2 pi/alat)
               b(1) = (  0.988308 -0.570600  0.410699 )  
               b(2) = (  0.000000  1.141200  0.410699 )  
               b(3) = ( -0.988308 -0.570600  0.410699 )  


     PseudoPot. # 1 for Co read from file:
     /home/mcurnan/dft-course/Project1/example_LaCoO3/Co.pbe-nd-rrkjus.UPF
     MD5 check sum: 3e47a84addf5e975e0edeaeee2a73f59
     Pseudo is Ultrasoft + core correction, Zval =  9.0
     Generated by new atomic code, or converted to UPF format
     Using radial grid of  961 points,  6 beta functions with: 
                l(1) =   0
                l(2) =   0
                l(3) =   1
                l(4) =   1
                l(5) =   2
                l(6) =   2
     Q(r) pseudized with 0 coefficients 


     PseudoPot. # 2 for Co read from file:
     /home/mcurnan/dft-course/Project1/example_LaCoO3/Co.pbe-nd-rrkjus.UPF
     MD5 check sum: 3e47a84addf5e975e0edeaeee2a73f59
     Pseudo is Ultrasoft + core correction, Zval =  9.0
     Generated by new atomic code, or converted to UPF format
     Using radial grid of  961 points,  6 beta functions with: 
                l(1) =   0
                l(2) =   0
                l(3) =   1
                l(4) =   1
                l(5) =   2
                l(6) =   2
     Q(r) pseudized with 0 coefficients 


     PseudoPot. # 3 for La read from file:
     /home/mcurnan/dft-course/Project1/example_LaCoO3/La.pbe-nsp-van.UPF
     MD5 check sum: b2f11743f52dde65f77d1302becd7929
     Pseudo is Ultrasoft + core correction, Zval = 11.0
     Generated by new atomic code, or converted to UPF format
     Using radial grid of  907 points,  6 beta functions with: 
                l(1) =   0
                l(2) =   0
                l(3) =   1
                l(4) =   1
                l(5) =   2
                l(6) =   2
     Q(r) pseudized with  6 coefficients,  rinner =    1.200   1.200   1.200
                                                       1.200   1.200

     PseudoPot. # 4 for O  read from file:
     /home/mcurnan/dft-course/Project1/example_LaCoO3/O.pbe-rrkjus.UPF
     MD5 check sum: 390ba29e75625707450f3bd3f0eb6be9
     Pseudo is Ultrasoft, Zval =  6.0
     Generated by new atomic code, or converted to UPF format
     Using radial grid of 1269 points,  4 beta functions with: 
                l(1) =   0
                l(2) =   0
                l(3) =   1
                l(4) =   1
     Q(r) pseudized with 0 coefficients 


     atomic species   valence    mass     pseudopotential
        Co1            9.00     1.00000     Co( 1.00)
        Co2            9.00     1.00000     Co( 1.00)
        La1           11.00     1.00000     La( 1.00)
        O1             6.00     1.00000     O ( 1.00)
 -----
     simplified LDA+U calculation, Hubbard_lmax = 2
     atomic species  L   Hubbard U  Hubbard alpha
        Co1          2    0.000000    0.000000
        Co2          2    0.000000    0.000000
        La1          2    0.000000    0.000000
        O1           1    0.000000    0.000000
 -----

      6 Sym. Ops., with inversion, found


                                    s                        frac. trans.

      isym =  1     identity                                     

 cryst.   s( 1) = (     1          0          0      )
                  (     0          1          0      )
                  (     0          0          1      )

 cart.    s( 1) = (  1.0000000  0.0000000  0.0000000 )
                  (  0.0000000  1.0000000  0.0000000 )
                  (  0.0000000  0.0000000  1.0000000 )


      isym =  2     120 deg rotation - cryst. axis [0,0,1]       

 cryst.   s( 2) = (     0          1          0      )
                  (     0          0          1      )
                  (     1          0          0      )

 cart.    s( 2) = ( -0.5000000 -0.8660254  0.0000000 )
                  (  0.8660254 -0.5000000  0.0000000 )
                  (  0.0000000  0.0000000  1.0000000 )


      isym =  3     120 deg rotation - cryst. axis [0,0,-1]      

 cryst.   s( 3) = (     0          0          1      )
                  (     1          0          0      )
                  (     0          1          0      )

 cart.    s( 3) = ( -0.5000000  0.8660254  0.0000000 )
                  ( -0.8660254 -0.5000000  0.0000000 )
                  (  0.0000000  0.0000000  1.0000000 )


      isym =  4     inversion                                    

 cryst.   s( 4) = (    -1          0          0      )
                  (     0         -1          0      )
                  (     0          0         -1      )

 cart.    s( 4) = ( -1.0000000  0.0000000  0.0000000 )
                  (  0.0000000 -1.0000000  0.0000000 )
                  (  0.0000000  0.0000000 -1.0000000 )


      isym =  5     inv. 180 deg rotation - cart. axis [0,1,0]   

 cryst.   s( 5) = (     0         -1          0      )
                  (     0          0         -1      )
                  (    -1          0          0      )

 cart.    s( 5) = (  0.5000000  0.8660254  0.0000000 )
                  ( -0.8660254  0.5000000  0.0000000 )
                  (  0.0000000  0.0000000 -1.0000000 )


      isym =  6     inv. 180 deg rotation - cart. axis [1,0,0]   

 cryst.   s( 6) = (     0          0         -1      )
                  (    -1          0          0      )
                  (     0         -1          0      )

 cart.    s( 6) = (  0.5000000 -0.8660254  0.0000000 )
                  (  0.8660254  0.5000000  0.0000000 )
                  (  0.0000000  0.0000000 -1.0000000 )


     point group S_6 (-3)   
     there are  6 classes
     the character table:

       E     C3    C3^2  i     S6^5  S6   
A_g    1.00  1.00  1.00  1.00  1.00  1.00
E_g    1.00 -0.50 -0.50  1.00 -0.50 -0.50
E_g*   1.00 -0.50 -0.50  1.00 -0.50 -0.50
A_u    1.00  1.00  1.00 -1.00 -1.00 -1.00
E_u    1.00 -0.50 -0.50 -1.00  0.50  0.50
E_u*   1.00 -0.50 -0.50 -1.00  0.50  0.50
     imaginary part
A_g    0.00  0.00  0.00  0.00  0.00  0.00
E_g    0.00  0.87 -0.87  0.00  0.87 -0.87
E_g*   0.00 -0.87  0.87  0.00 -0.87  0.87
A_u    0.00  0.00  0.00  0.00  0.00  0.00
E_u    0.00  0.87 -0.87  0.00 -0.87  0.87
E_u*   0.00 -0.87  0.87  0.00  0.87 -0.87

     the symmetry operations in each class:
     E        1
     C3       2
     C3^2     3
     i        4
     S6^5     5
     S6       6

   Cartesian axes

     site n.     atom                  positions (alat units)
         1           Co1 tau(   1) = (   0.0000000   0.0000000   0.0000000  )
         2           Co2 tau(   2) = (   0.0000000   0.0000000   1.2174358  )
         3           La1 tau(   3) = (   0.0000000   0.0000000   0.6087179  )
         4           La1 tau(   4) = (   0.0000000   0.0000000   1.8261537  )
         5           O1  tau(   5) = (  -0.2839701  -0.0933228   1.0141240  )
         6           O1  tau(   6) = (   0.0611651   0.2925867   1.0141240  )
         7           O1  tau(   7) = (   0.2228050  -0.1992639   1.0141240  )
         8           O1  tau(   8) = (  -0.0611651  -0.2925867   1.4207476  )
         9           O1  tau(   9) = (   0.2839701   0.0933228   1.4207476  )
        10           O1  tau(  10) = (  -0.2228050   0.1992639   1.4207476  )

   Crystallographic axes

     site n.     atom                  positions (cryst. coord.)
         1           Co1 tau(   1) = (  0.0000000  0.0000000  0.0000000  )
         2           Co2 tau(   2) = (  0.5000000  0.5000000  0.5000000  )
         3           La1 tau(   3) = (  0.2500000  0.2500000  0.2500000  )
         4           La1 tau(   4) = (  0.7500000  0.7500000  0.7500000  )
         5           O1  tau(   5) = (  0.1891000  0.3100000  0.7504000  )
         6           O1  tau(   6) = (  0.3100000  0.7504000  0.1891000  )
         7           O1  tau(   7) = (  0.7504000  0.1891000  0.3100000  )
         8           O1  tau(   8) = (  0.6900000  0.2496000  0.8109000  )
         9           O1  tau(   9) = (  0.8109000  0.6900000  0.2496000  )
        10           O1  tau(  10) = (  0.2496000  0.8109000  0.6900000  )

     number of k points=    14  gaussian smearing, width (Ry)=  0.0300
                       cart. coord. in units 2pi/alat
        k(    1) = (   0.0000000   0.0000000   0.0000000), wk =   0.0312500
        k(    2) = (  -0.2470771  -0.1426500   0.1026748), wk =   0.1875000
        k(    3) = (   0.4941541   0.2853000  -0.2053496), wk =   0.0937500
        k(    4) = (  -0.2470771   0.1426500   0.2053496), wk =   0.1875000
        k(    5) = (   0.4941541   0.5706001  -0.1026748), wk =   0.1875000
        k(    6) = (   0.2470771   0.4279500   0.0000000), wk =   0.1875000
        k(    7) = (   0.4941541  -0.2853000  -0.4106993), wk =   0.0937500
        k(    8) = (   0.0000000   0.0000000   0.3080244), wk =   0.0625000
        k(    9) = (   0.7412312   0.4279500   0.0000000), wk =   0.1875000
        k(   10) = (   0.4941541   0.2853000   0.1026748), wk =   0.1875000
        k(   11) = (   0.7412312  -0.4279500  -0.3080244), wk =   0.1875000
        k(   12) = (   0.4941541  -0.5706001  -0.2053496), wk =   0.1875000
        k(   13) = (   0.0000000   0.0000000  -0.6160489), wk =   0.0312500
        k(   14) = (   0.4941541  -0.5706001   0.1026748), wk =   0.1875000

                       cryst. coord.
        k(    1) = (   0.0000000   0.0000000   0.0000000), wk =   0.0312500
        k(    2) = (   0.0000000   0.0000000   0.2500000), wk =   0.1875000
        k(    3) = (   0.0000000   0.0000000  -0.5000000), wk =   0.0937500
        k(    4) = (   0.0000000   0.2500000   0.2500000), wk =   0.1875000
        k(    5) = (   0.0000000   0.2500000  -0.5000000), wk =   0.1875000
        k(    6) = (   0.0000000   0.2500000  -0.2500000), wk =   0.1875000
        k(    7) = (   0.0000000  -0.5000000  -0.5000000), wk =   0.0937500
        k(    8) = (   0.2500000   0.2500000   0.2500000), wk =   0.0625000
        k(    9) = (   0.2500000   0.2500000  -0.5000000), wk =   0.1875000
        k(   10) = (   0.2500000   0.2500000  -0.2500000), wk =   0.1875000
        k(   11) = (   0.2500000  -0.5000000  -0.5000000), wk =   0.1875000
        k(   12) = (   0.2500000  -0.5000000  -0.2500000), wk =   0.1875000
        k(   13) = (  -0.5000000  -0.5000000  -0.5000000), wk =   0.0312500
        k(   14) = (   0.5000000  -0.2500000   0.0000000), wk =   0.1875000

     Dense  grid:    69617 G-vectors     FFT dimensions: (  60,  60,  60)

     Smooth grid:    17573 G-vectors     FFT dimensions: (  40,  40,  40)

     Largest allocated arrays     est. size (Mb)     dimensions
        Kohn-Sham Wavefunctions         0.78 Mb     (   1117,   46)
        Atomic wavefunctions            1.06 Mb     (   1117,   62)
        NL pseudopotentials             2.05 Mb     (   1117,  120)
        Each V/rho on FFT grid          1.65 Mb     ( 108000)
        Each G-vector array             0.27 Mb     (  34808)
        G-vector shells                 0.04 Mb     (   4682)
     Largest temporary arrays     est. size (Mb)     dimensions
        Auxiliary wavefunctions         3.14 Mb     (   1117,  184)
        Each subspace H/S matrix        0.52 Mb     ( 184, 184)
        Each <psi_i|beta_j> matrix      0.08 Mb     (    120,   46)
        Arrays for rho mixing          13.18 Mb     ( 108000,   8)

     Check: negative/imaginary core charge=   -0.000028    0.000000

     Initial potential from superposition of free atoms

     starting charge   75.93482, renormalised to   76.00000
 --- in v_hubbard ---
Hubbard energy    0.0000
 -------
     Number of +U iterations with fixed ns =  0
     Starting occupations:
 --- enter write_ns ---
 LDA+U parameters:
U( 1)     =  0.00000000
alpha( 1) =  0.00000000
U( 2)     =  0.00000000
alpha( 2) =  0.00000000
U( 3)     =  0.00000000
alpha( 3) =  0.00000000
U( 4)     =  0.00000000
alpha( 4) =  0.00000000
atom    1   Tr[ns(na)] =   7.00000
    eigenvalues: 
  0.700  0.700  0.700  0.700  0.700
    eigenvectors:
  1.000  0.000  0.000  0.000  0.000
  0.000  1.000  0.000  0.000  0.000
  0.000  0.000  1.000  0.000  0.000
  0.000  0.000  0.000  1.000  0.000
  0.000  0.000  0.000  0.000  1.000
    occupations:
  0.700  0.000  0.000  0.000  0.000
  0.000  0.700  0.000  0.000  0.000
  0.000  0.000  0.700  0.000  0.000
  0.000  0.000  0.000  0.700  0.000
  0.000  0.000  0.000  0.000  0.700
atom    2   Tr[ns(na)] =   7.00000
    eigenvalues: 
  0.700  0.700  0.700  0.700  0.700
    eigenvectors:
  1.000  0.000  0.000  0.000  0.000
  0.000  1.000  0.000  0.000  0.000
  0.000  0.000  1.000  0.000  0.000
  0.000  0.000  0.000  1.000  0.000
  0.000  0.000  0.000  0.000  1.000
    occupations:
  0.700  0.000  0.000  0.000  0.000
  0.000  0.700  0.000  0.000  0.000
  0.000  0.000  0.700  0.000  0.000
  0.000  0.000  0.000  0.700  0.000
  0.000  0.000  0.000  0.000  0.700
atom    3   Tr[ns(na)] =   1.00000
    eigenvalues: 
  0.100  0.100  0.100  0.100  0.100
    eigenvectors:
  1.000  0.000  0.000  0.000  0.000
  0.000  1.000  0.000  0.000  0.000
  0.000  0.000  1.000  0.000  0.000
  0.000  0.000  0.000  1.000  0.000
  0.000  0.000  0.000  0.000  1.000
    occupations:
  0.100  0.000  0.000  0.000  0.000
  0.000  0.100  0.000  0.000  0.000
  0.000  0.000  0.100  0.000  0.000
  0.000  0.000  0.000  0.100  0.000
  0.000  0.000  0.000  0.000  0.100
atom    4   Tr[ns(na)] =   1.00000
    eigenvalues: 
  0.100  0.100  0.100  0.100  0.100
    eigenvectors:
  1.000  0.000  0.000  0.000  0.000
  0.000  1.000  0.000  0.000  0.000
  0.000  0.000  1.000  0.000  0.000
  0.000  0.000  0.000  1.000  0.000
  0.000  0.000  0.000  0.000  1.000
    occupations:
  0.100  0.000  0.000  0.000  0.000
  0.000  0.100  0.000  0.000  0.000
  0.000  0.000  0.100  0.000  0.000
  0.000  0.000  0.000  0.100  0.000
  0.000  0.000  0.000  0.000  0.100
atom    5   Tr[ns(na)] =   4.00000
    eigenvalues: 
  0.667  0.667  0.667
    eigenvectors:
  1.000  0.000  0.000
  0.000  1.000  0.000
  0.000  0.000  1.000
    occupations:
  0.667  0.000  0.000
  0.000  0.667  0.000
  0.000  0.000  0.667
atom    6   Tr[ns(na)] =   4.00000
    eigenvalues: 
  0.667  0.667  0.667
    eigenvectors:
  1.000  0.000  0.000
  0.000  1.000  0.000
  0.000  0.000  1.000
    occupations:
  0.667  0.000  0.000
  0.000  0.667  0.000
  0.000  0.000  0.667
atom    7   Tr[ns(na)] =   4.00000
    eigenvalues: 
  0.667  0.667  0.667
    eigenvectors:
  1.000  0.000  0.000
  0.000  1.000  0.000
  0.000  0.000  1.000
    occupations:
  0.667  0.000  0.000
  0.000  0.667  0.000
  0.000  0.000  0.667
atom    8   Tr[ns(na)] =   4.00000
    eigenvalues: 
  0.667  0.667  0.667
    eigenvectors:
  1.000  0.000  0.000
  0.000  1.000  0.000
  0.000  0.000  1.000
    occupations:
  0.667  0.000  0.000
  0.000  0.667  0.000
  0.000  0.000  0.667
atom    9   Tr[ns(na)] =   4.00000
    eigenvalues: 
  0.667  0.667  0.667
    eigenvectors:
  1.000  0.000  0.000
  0.000  1.000  0.000
  0.000  0.000  1.000
    occupations:
  0.667  0.000  0.000
  0.000  0.667  0.000
  0.000  0.000  0.667
atom   10   Tr[ns(na)] =   4.00000
    eigenvalues: 
  0.667  0.667  0.667
    eigenvectors:
  1.000  0.000  0.000
  0.000  1.000  0.000
  0.000  0.000  1.000
    occupations:
  0.667  0.000  0.000
  0.000  0.667  0.000
  0.000  0.000  0.667
N of occupied +U levels =  40.0000000
 --- exit write_ns ---
 Atomic wfc used for LDA+U Projector are NOT orthogonalized
     Starting wfc are   62 randomized atomic wfcs

     total cpu time spent up to now is       14.1 secs

     per-process dynamical memory:    36.9 Mb

     Self-consistent Calculation

     iteration #  1     ecut=    30.00 Ry     beta=0.20
     Davidson diagonalization with overlap
     ethr =  1.00E-02,  avg # of iterations =  2.0
 --- enter write_ns ---
 LDA+U parameters:
U( 1)     =  0.00000000
alpha( 1) =  0.00000000
U( 2)     =  0.00000000
alpha( 2) =  0.00000000
U( 3)     =  0.00000000
alpha( 3) =  0.00000000
U( 4)     =  0.00000000
alpha( 4) =  0.00000000
atom    1   Tr[ns(na)] =   6.58596
    eigenvalues: 
  0.281  0.281  0.908  0.911  0.911
    eigenvectors:
  0.000  0.000  1.000  0.000  0.000
  0.356  0.293  0.000  0.002  0.349
  0.293  0.356  0.000  0.349  0.002
  0.318  0.034  0.000  0.530  0.119
  0.034  0.318  0.000  0.119  0.530
    occupations:
  0.908  0.000  0.000  0.000  0.000
  0.000  0.503  0.000 -0.149  0.261
  0.000  0.000  0.503  0.261  0.149
  0.000 -0.149  0.261  0.690  0.000
  0.000  0.261  0.149  0.000  0.690
atom    2   Tr[ns(na)] =   6.57686
    eigenvalues: 
  0.279  0.279  0.908  0.911  0.911
    eigenvectors:
  0.000  0.000  1.000  0.000  0.000
  0.649  0.000  0.000  0.268  0.083
  0.000  0.649  0.000  0.083  0.268
  0.085  0.267  0.000  0.473  0.175
  0.267  0.085  0.000  0.175  0.473
    occupations:
  0.908  0.000  0.000  0.000  0.000
  0.000  0.501  0.000  0.149  0.262
  0.000  0.000  0.501  0.262 -0.149
  0.000  0.149  0.262  0.689  0.000
  0.000  0.262 -0.149  0.000  0.689
atom    3   Tr[ns(na)] =   3.61131
    eigenvalues: 
  0.345  0.345  0.365  0.376  0.376
    eigenvectors:
  0.000  0.000  1.000  0.000  0.000
  0.918  0.080  0.000  0.000  0.002
  0.080  0.918  0.000  0.002  0.000
  0.000  0.001  0.000  0.892  0.106
  0.001  0.000  0.000  0.106  0.892
    occupations:
  0.365  0.000  0.000  0.000  0.000
  0.000  0.345  0.000  0.000  0.001
  0.000  0.000  0.345  0.001  0.000
  0.000  0.000  0.001  0.376  0.000
  0.000  0.001  0.000  0.000  0.376
atom    4   Tr[ns(na)] =   3.61131
    eigenvalues: 
  0.345  0.345  0.365  0.376  0.376
    eigenvectors:
  0.000  0.000  1.000  0.000  0.000
  0.918  0.080  0.000  0.000  0.002
  0.080  0.918  0.000  0.002  0.000
  0.000  0.001  0.000  0.892  0.106
  0.001  0.000  0.000  0.106  0.892
    occupations:
  0.365  0.000  0.000  0.000  0.000
  0.000  0.345  0.000  0.000  0.001
  0.000  0.000  0.345  0.001  0.000
  0.000  0.000  0.001  0.376  0.000
  0.000  0.001  0.000  0.000  0.376
atom    5   Tr[ns(na)] =   5.82386
    eigenvalues: 
  0.954  0.977  0.981
    eigenvectors:
  0.318  0.000  0.682
  0.509  0.252  0.239
  0.173  0.748  0.079
    occupations:
  0.972  0.011  0.006
  0.011  0.966 -0.007
  0.006 -0.007  0.974
atom    6   Tr[ns(na)] =   5.82386
    eigenvalues: 
  0.954  0.977  0.981
    eigenvectors:
  0.318  0.000  0.682
  0.000  1.000  0.000
  0.682  0.000  0.318
    occupations:
  0.972  0.000 -0.013
  0.000  0.977  0.000
 -0.013  0.000  0.962
atom    7   Tr[ns(na)] =   5.82386
    eigenvalues: 
  0.954  0.977  0.981
    eigenvectors:
  0.318  0.000  0.682
  0.513  0.248  0.238
  0.168  0.752  0.080
    occupations:
  0.972 -0.011  0.006
 -0.011  0.966  0.007
  0.006  0.007  0.974
atom    8   Tr[ns(na)] =   5.82386
    eigenvalues: 
  0.954  0.977  0.981
    eigenvectors:
  0.318  0.000  0.682
  0.000  1.000  0.000
  0.682  0.000  0.318
    occupations:
  0.972  0.000 -0.013
  0.000  0.977  0.000
 -0.013  0.000  0.962
atom    9   Tr[ns(na)] =   5.82386
    eigenvalues: 
  0.954  0.977  0.981
    eigenvectors:
  0.318  0.000  0.682
  0.509  0.252  0.239
  0.173  0.748  0.079
    occupations:
  0.972  0.011  0.006
  0.011  0.966 -0.007
  0.006 -0.007  0.974
atom   10   Tr[ns(na)] =   5.82386
    eigenvalues: 
  0.954  0.977  0.981
    eigenvectors:
  0.318  0.000  0.682
  0.513  0.248  0.238
  0.168  0.752  0.080
    occupations:
  0.972 -0.011  0.006
 -0.011  0.966  0.007
  0.006  0.007  0.974
N of occupied +U levels =  55.3285925
 --- exit write_ns ---
 --- in v_hubbard ---
Hubbard energy    0.0000
 -------

     total cpu time spent up to now is       29.3 secs

     total energy              =    -537.25411260 Ry
     Harris-Foulkes estimate   =    -539.67237978 Ry
     estimated scf accuracy    <       7.40287463 Ry

     iteration #  2     ecut=    30.00 Ry     beta=0.20
     Davidson diagonalization with overlap
     ethr =  9.74E-03,  avg # of iterations =  2.3
 --- enter write_ns ---
 LDA+U parameters:
U( 1)     =  0.00000000
alpha( 1) =  0.00000000
U( 2)     =  0.00000000
alpha( 2) =  0.00000000
U( 3)     =  0.00000000
alpha( 3) =  0.00000000
U( 4)     =  0.00000000
alpha( 4) =  0.00000000
atom    1   Tr[ns(na)] =   8.18870
    eigenvalues: 
  0.622  0.622  0.950  0.951  0.951
    eigenvectors:
  0.000  0.000  1.000  0.000  0.000
  0.317  0.335  0.000  0.010  0.338
  0.335  0.317  0.000  0.338  0.010
  0.283  0.065  0.000  0.505  0.147
  0.065  0.283  0.000  0.147  0.505
    occupations:
  0.950  0.000  0.000  0.000  0.000
  0.000  0.736  0.000 -0.050  0.148
  0.000  0.000  0.736  0.148  0.050
  0.000 -0.050  0.148  0.836  0.000
  0.000  0.148  0.050  0.000  0.836
atom    2   Tr[ns(na)] =   8.24981
    eigenvalues: 
  0.627  0.627  0.957  0.957  0.957
    eigenvectors:
  0.000  0.000  1.000  0.000  0.000
  0.622  0.031  0.000  0.212  0.136
  0.031  0.622  0.000  0.136  0.212
  0.004  0.343  0.000  0.465  0.187
  0.343  0.004  0.000  0.187  0.465
    occupations:
  0.957  0.000  0.000  0.000  0.000
  0.000  0.742  0.000  0.051  0.149
  0.000  0.000  0.742  0.149 -0.051
  0.000  0.051  0.149  0.842  0.000
  0.000  0.149 -0.051  0.000  0.842
atom    3   Tr[ns(na)] =   3.54689
    eigenvalues: 
  0.330  0.330  0.360  0.377  0.377
    eigenvectors:
  0.000  0.000  1.000  0.000  0.000
  0.737  0.154  0.000  0.017  0.091
  0.154  0.737  0.000  0.091  0.017
  0.019  0.090  0.000  0.747  0.144
  0.090  0.019  0.000  0.144  0.747
    occupations:
  0.360  0.000  0.000  0.000  0.000
  0.000  0.335  0.000  0.000  0.015
  0.000  0.000  0.335  0.015  0.000
  0.000  0.000  0.015  0.372  0.000
  0.000  0.015  0.000  0.000  0.372
atom    4   Tr[ns(na)] =   3.54689
    eigenvalues: 
  0.330  0.330  0.360  0.377  0.377
    eigenvectors:
  0.000  0.000  1.000  0.000  0.000
  0.737  0.154  0.000  0.017  0.091
  0.154  0.737  0.000  0.091  0.017
  0.019  0.090  0.000  0.747  0.144
  0.090  0.019  0.000  0.144  0.747
    occupations:
  0.360  0.000  0.000  0.000  0.000
  0.000  0.335  0.000  0.000  0.015
  0.000  0.000  0.335  0.015  0.000
  0.000  0.000  0.015  0.372  0.000
  0.000  0.015  0.000  0.000  0.372
atom    5   Tr[ns(na)] =   5.42948
    eigenvalues: 
  0.831  0.933  0.951
    eigenvectors:
  0.346  0.000  0.654
  0.492  0.248  0.260
  0.162  0.752  0.086
    occupations:
  0.910  0.050  0.029
  0.050  0.887 -0.026
  0.029 -0.026  0.918
atom    6   Tr[ns(na)] =   5.42948
    eigenvalues: 
  0.831  0.933  0.951
    eigenvectors:
  0.346  0.000  0.654
  0.000  1.000  0.000
  0.654  0.000  0.346
    occupations:
  0.910  0.000 -0.057
  0.000  0.933  0.000
 -0.057  0.000  0.872
atom    7   Tr[ns(na)] =   5.42948
    eigenvalues: 
  0.831  0.933  0.951
    eigenvectors:
  0.346  0.000  0.654
  0.489  0.252  0.258
  0.165  0.748  0.087
    occupations:
  0.910 -0.050  0.029
 -0.050  0.888  0.026
  0.029  0.026  0.917
atom    8   Tr[ns(na)] =   5.42948
    eigenvalues: 
  0.831  0.933  0.951
    eigenvectors:
  0.346  0.000  0.654
  0.000  1.000  0.000
  0.654  0.000  0.346
    occupations:
  0.910  0.000 -0.057
  0.000  0.933  0.000
 -0.057  0.000  0.872
atom    9   Tr[ns(na)] =   5.42948
    eigenvalues: 
  0.831  0.933  0.951
    eigenvectors:
  0.346  0.000  0.654
  0.492  0.248  0.260
  0.162  0.752  0.086
    occupations:
  0.910  0.050  0.029
  0.050  0.887 -0.026
  0.029 -0.026  0.918
atom   10   Tr[ns(na)] =   5.42948
    eigenvalues: 
  0.831  0.933  0.951
    eigenvectors:
  0.346  0.000  0.654
  0.489  0.252  0.258
  0.165  0.748  0.087
    occupations:
  0.910 -0.050  0.029
 -0.050  0.888  0.026
  0.029  0.026  0.917
N of occupied +U levels =  56.1091869
 --- exit write_ns ---
 --- in v_hubbard ---
Hubbard energy    0.0000
 -------

     total cpu time spent up to now is       45.9 secs

     total energy              =    -538.29774193 Ry
     Harris-Foulkes estimate   =    -538.37543972 Ry
     estimated scf accuracy    <       0.35342465 Ry

     iteration #  3     ecut=    30.00 Ry     beta=0.20
     Davidson diagonalization with overlap
     ethr =  4.65E-04,  avg # of iterations =  2.0
 --- enter write_ns ---
 LDA+U parameters:
U( 1)     =  0.00000000
alpha( 1) =  0.00000000
U( 2)     =  0.00000000
alpha( 2) =  0.00000000
U( 3)     =  0.00000000
alpha( 3) =  0.00000000
U( 4)     =  0.00000000
alpha( 4) =  0.00000000
atom    1   Tr[ns(na)] =   8.12145
    eigenvalues: 
  0.587  0.587  0.962  0.962  0.963
    eigenvectors:
  0.000  0.000  0.000  0.000  1.000
  0.333  0.321  0.003  0.343  0.000
  0.321  0.333  0.343  0.003  0.000
  0.292  0.055  0.515  0.139  0.000
  0.055  0.292  0.139  0.515  0.000
    occupations:
  0.963  0.000  0.000  0.000  0.000
  0.000  0.717  0.000 -0.067  0.165
  0.000  0.000  0.717  0.165  0.067
  0.000 -0.067  0.165  0.832  0.000
  0.000  0.165  0.067  0.000  0.832
atom    2   Tr[ns(na)] =   7.84556
    eigenvalues: 
  0.562  0.562  0.932  0.934  0.934
    eigenvectors:
  0.000  0.000  1.000  0.000  0.000
  0.631  0.023  0.000  0.215  0.132
  0.023  0.631  0.000  0.132  0.215
  0.008  0.338  0.000  0.467  0.186
  0.338  0.008  0.000  0.186  0.467
    occupations:
  0.932  0.000  0.000  0.000  0.000
  0.000  0.691  0.000  0.060  0.167
  0.000  0.000  0.691  0.167 -0.060
  0.000  0.060  0.167  0.805  0.000
  0.000  0.167 -0.060  0.000  0.805
atom    3   Tr[ns(na)] =   3.68256
    eigenvalues: 
  0.343  0.343  0.372  0.391  0.391
    eigenvectors:
  0.000  0.000  1.000  0.000  0.000
  0.763  0.146  0.000  0.013  0.078
  0.146  0.763  0.000  0.078  0.013
  0.016  0.076  0.000  0.766  0.142
  0.076  0.016  0.000  0.142  0.766
    occupations:
  0.372  0.000  0.000  0.000  0.000
  0.000  0.348  0.000  0.000  0.014
  0.000  0.000  0.348  0.014  0.000
  0.000  0.000  0.014  0.387  0.000
  0.000  0.014  0.000  0.000  0.387
atom    4   Tr[ns(na)] =   3.68256
    eigenvalues: 
  0.343  0.343  0.372  0.391  0.391
    eigenvectors:
  0.000  0.000  1.000  0.000  0.000
  0.763  0.146  0.000  0.013  0.078
  0.146  0.763  0.000  0.078  0.013
  0.016  0.076  0.000  0.766  0.142
  0.076  0.016  0.000  0.142  0.766
    occupations:
  0.372  0.000  0.000  0.000  0.000
  0.000  0.348  0.000  0.000  0.014
  0.000  0.000  0.348  0.014  0.000
  0.000  0.000  0.014  0.387  0.000
  0.000  0.014  0.000  0.000  0.387
atom    5   Tr[ns(na)] =   5.47259
    eigenvalues: 
  0.850  0.937  0.950
    eigenvectors:
  0.338  0.000  0.661
  0.488  0.260  0.252
  0.174  0.740  0.086
    occupations:
  0.916  0.041  0.024
  0.041  0.898 -0.023
  0.024 -0.023  0.923
atom    6   Tr[ns(na)] =   5.47259
    eigenvalues: 
  0.850  0.937  0.950
    eigenvectors:
  0.338  0.000  0.661
  0.000  1.000  0.000
  0.661  0.000  0.338
    occupations:
  0.916  0.001 -0.047
  0.001  0.937  0.001
 -0.047  0.001  0.884
atom    7   Tr[ns(na)] =   5.47259
    eigenvalues: 
  0.850  0.937  0.950
    eigenvectors:
  0.338  0.000  0.661
  0.504  0.240  0.256
  0.157  0.760  0.083
    occupations:
  0.916 -0.041  0.023
 -0.041  0.896  0.023
  0.023  0.023  0.924
atom    8   Tr[ns(na)] =   5.47259
    eigenvalues: 
  0.850  0.937  0.950
    eigenvectors:
  0.338  0.000  0.661
  0.000  1.000  0.000
  0.661  0.000  0.338
    occupations:
  0.916  0.001 -0.047
  0.001  0.937  0.001
 -0.047  0.001  0.884
atom    9   Tr[ns(na)] =   5.47259
    eigenvalues: 
  0.850  0.937  0.950
    eigenvectors:
  0.338  0.000  0.661
  0.488  0.260  0.252
  0.174  0.740  0.086
    occupations:
  0.916  0.041  0.024
  0.041  0.898 -0.023
  0.024 -0.023  0.923
atom   10   Tr[ns(na)] =   5.47259
    eigenvalues: 
  0.850  0.937  0.950
    eigenvectors:
  0.338  0.000  0.661
  0.504  0.240  0.256
  0.157  0.760  0.083
    occupations:
  0.916 -0.041  0.023
 -0.041  0.896  0.023
  0.023  0.023  0.924
N of occupied +U levels =  56.1676281
 --- exit write_ns ---
 --- in v_hubbard ---
Hubbard energy    0.0000
 -------

     total cpu time spent up to now is       62.8 secs

     total energy              =    -538.31742907 Ry
     Harris-Foulkes estimate   =    -538.35203328 Ry
     estimated scf accuracy    <       0.16289374 Ry

     iteration #  4     ecut=    30.00 Ry     beta=0.20
     Davidson diagonalization with overlap
     ethr =  2.14E-04,  avg # of iterations =  1.9
 --- enter write_ns ---
 LDA+U parameters:
U( 1)     =  0.00000000
alpha( 1) =  0.00000000
U( 2)     =  0.00000000
alpha( 2) =  0.00000000
U( 3)     =  0.00000000
alpha( 3) =  0.00000000
U( 4)     =  0.00000000
alpha( 4) =  0.00000000
atom    1   Tr[ns(na)] =   7.22901
    eigenvalues: 
  0.557  0.557  0.829  0.835  0.835
    eigenvectors:
  0.000  0.000  1.000  0.000  0.000
  0.313  0.342  0.000  0.024  0.321
  0.342  0.313  0.000  0.321  0.024
  0.262  0.084  0.000  0.497  0.158
  0.084  0.262  0.000  0.158  0.497
    occupations:
  0.829  0.000  0.000  0.000  0.000
  0.000  0.653  0.000 -0.033  0.128
  0.000  0.000  0.653  0.128  0.033
  0.000 -0.033  0.128  0.739  0.000
  0.000  0.128  0.033  0.000  0.739
atom    2   Tr[ns(na)] =   8.74632
    eigenvalues: 
  0.705  0.705  0.987  0.987  0.989
    eigenvectors:
  0.000  0.000  0.000  0.000  1.000
  0.649  0.005  0.249  0.097  0.000
  0.005  0.649  0.097  0.249  0.000
  0.046  0.300  0.474  0.179  0.000
  0.300  0.046  0.179  0.474  0.000
    occupations:
  0.989  0.000  0.000  0.000  0.000
  0.000  0.803  0.000  0.060  0.120
  0.000  0.000  0.803  0.120 -0.060
  0.000  0.060  0.120  0.890  0.000
  0.000  0.120 -0.060  0.000  0.890
atom    3   Tr[ns(na)] =   3.75558
    eigenvalues: 
  0.351  0.351  0.379  0.398  0.398
    eigenvectors:
  0.000  0.000  1.000  0.000  0.000
  0.779  0.139  0.000  0.015  0.068
  0.139  0.779  0.000  0.068  0.015
  0.011  0.072  0.000  0.776  0.141
  0.072  0.011  0.000  0.141  0.776
    occupations:
  0.379  0.000  0.000  0.000  0.000
  0.000  0.355  0.000  0.000  0.013
  0.000  0.000  0.355  0.013  0.000
  0.000  0.000  0.013  0.394  0.000
  0.000  0.013  0.000  0.000  0.394
atom    4   Tr[ns(na)] =   3.75558
    eigenvalues: 
  0.351  0.351  0.379  0.398  0.398
    eigenvectors:
  0.000  0.000  1.000  0.000  0.000
  0.778  0.139  0.000  0.015  0.068
  0.139  0.778  0.000  0.068  0.015
  0.011  0.072  0.000  0.776  0.141
  0.072  0.011  0.000  0.141  0.776
    occupations:
  0.379  0.000  0.000  0.000  0.000
  0.000  0.355  0.000  0.000  0.013
  0.000  0.000  0.355  0.013  0.000
  0.000  0.000  0.013  0.394  0.000
  0.000  0.013  0.000  0.000  0.394
atom    5   Tr[ns(na)] =   5.44540
    eigenvalues: 
  0.849  0.932  0.942
    eigenvectors:
  0.341  0.000  0.659
  0.521  0.209  0.270
  0.138  0.791  0.071
    occupations:
  0.910  0.039  0.020
  0.039  0.891 -0.021
  0.020 -0.021  0.921
atom    6   Tr[ns(na)] =   5.44540
    eigenvalues: 
  0.849  0.932  0.942
    eigenvectors:
  0.341  0.000  0.659
  0.002  0.998  0.001
  0.657  0.002  0.341
    occupations:
  0.910 -0.002 -0.044
 -0.002  0.931 -0.002
 -0.044 -0.002  0.881
atom    7   Tr[ns(na)] =   5.44540
    eigenvalues: 
  0.849  0.932  0.942
    eigenvectors:
  0.341  0.000  0.659
  0.466  0.293  0.241
  0.193  0.707  0.100
    occupations:
  0.910 -0.037  0.024
 -0.037  0.896  0.023
  0.024  0.023  0.917
atom    8   Tr[ns(na)] =   5.44540
    eigenvalues: 
  0.849  0.932  0.942
    eigenvectors:
  0.341  0.000  0.659
  0.002  0.998  0.001
  0.657  0.002  0.341
    occupations:
  0.910 -0.002 -0.044
 -0.002  0.931 -0.002
 -0.044 -0.002  0.881
atom    9   Tr[ns(na)] =   5.44540
    eigenvalues: 
  0.849  0.932  0.942
    eigenvectors:
  0.341  0.000  0.659
  0.521  0.209  0.270
  0.138  0.791  0.071
    occupations:
  0.910  0.039  0.020
  0.039  0.891 -0.021
  0.020 -0.021  0.921
atom   10   Tr[ns(na)] =   5.44540
    eigenvalues: 
  0.849  0.932  0.942
    eigenvectors:
  0.341  0.000  0.659
  0.466  0.293  0.241
  0.193  0.707  0.100
    occupations:
  0.910 -0.037  0.024
 -0.037  0.896  0.023
  0.024  0.023  0.917
N of occupied +U levels =  56.1588764
 --- exit write_ns ---
 --- in v_hubbard ---
Hubbard energy    0.0000
 -------

     total cpu time spent up to now is       79.4 secs

     total energy              =    -538.28983615 Ry
     Harris-Foulkes estimate   =    -538.37667233 Ry
     estimated scf accuracy    <       1.25092315 Ry

     iteration #  5     ecut=    30.00 Ry     beta=0.20
     Davidson diagonalization with overlap
     ethr =  2.14E-04,  avg # of iterations =  1.0
 --- enter write_ns ---
 LDA+U parameters:
U( 1)     =  0.00000000
alpha( 1) =  0.00000000
U( 2)     =  0.00000000
alpha( 2) =  0.00000000
U( 3)     =  0.00000000
alpha( 3) =  0.00000000
U( 4)     =  0.00000000
alpha( 4) =  0.00000000
atom    1   Tr[ns(na)] =   8.13831
    eigenvalues: 
  0.607  0.607  0.950  0.952  0.952
    eigenvectors:
  0.000  0.000  1.000  0.000  0.000
  0.333  0.322  0.000  0.004  0.341
  0.322  0.333  0.000  0.341  0.004
  0.288  0.056  0.000  0.515  0.140
  0.056  0.288  0.000  0.140  0.515
    occupations:
  0.950  0.000  0.000  0.000  0.000
  0.000  0.726  0.000 -0.060  0.152
  0.000  0.000  0.726  0.152  0.060
  0.000 -0.060  0.152  0.833  0.000
  0.000  0.152  0.060  0.000  0.833
atom    2   Tr[ns(na)] =   8.05069
    eigenvalues: 
  0.599  0.599  0.940  0.944  0.944
    eigenvectors:
  0.000  0.000  1.000  0.000  0.000
  0.636  0.019  0.000  0.219  0.126
  0.019  0.636  0.000  0.126  0.219
  0.013  0.332  0.000  0.470  0.185
  0.332  0.013  0.000  0.185  0.470
    occupations:
  0.940  0.000  0.000  0.000  0.000
  0.000  0.718  0.000  0.058  0.153
  0.000  0.000  0.718  0.153 -0.058
  0.000  0.058  0.153  0.825  0.000
  0.000  0.153 -0.058  0.000  0.825
atom    3   Tr[ns(na)] =   3.81968
    eigenvalues: 
  0.359  0.359  0.384  0.404  0.404
    eigenvectors:
  0.000  0.000  1.000  0.000  0.000
  0.790  0.136  0.000  0.011  0.063
  0.136  0.790  0.000  0.063  0.011
  0.011  0.062  0.000  0.787  0.139
  0.062  0.011  0.000  0.139  0.787
    occupations:
  0.384  0.000  0.000  0.000  0.000
  0.000  0.362  0.000  0.000  0.012
  0.000  0.000  0.362  0.012  0.000
  0.000  0.000  0.012  0.401  0.000
  0.000  0.012  0.000  0.000  0.401
atom    4   Tr[ns(na)] =   3.81968
    eigenvalues: 
  0.359  0.359  0.384  0.404  0.404
    eigenvectors:
  0.000  0.000  1.000  0.000  0.000
  0.790  0.136  0.000  0.011  0.063
  0.136  0.790  0.000  0.063  0.011
  0.011  0.062  0.000  0.787  0.139
  0.062  0.011  0.000  0.139  0.787
    occupations:
  0.384  0.000  0.000  0.000  0.000
  0.000  0.362  0.000  0.000  0.012
  0.000  0.000  0.362  0.012  0.000
  0.000  0.000  0.012  0.401  0.000
  0.000  0.012  0.000  0.000  0.401
atom    5   Tr[ns(na)] =   5.40729
    eigenvalues: 
  0.838  0.927  0.939
    eigenvectors:
  0.342  0.000  0.658
  0.490  0.253  0.256
  0.167  0.747  0.086
    occupations:
  0.905  0.042  0.024
  0.042  0.886 -0.024
  0.024 -0.024  0.913
atom    6   Tr[ns(na)] =   5.40729
    eigenvalues: 
  0.838  0.927  0.939
    eigenvectors:
  0.342  0.000  0.658
  0.000  1.000  0.000
  0.658  0.000  0.342
    occupations:
  0.905  0.000 -0.048
  0.000  0.927  0.000
 -0.048  0.000  0.873
atom    7   Tr[ns(na)] =   5.40729
    eigenvalues: 
  0.838  0.927  0.939
    eigenvectors:
  0.342  0.000  0.658
  0.496  0.247  0.257
  0.162  0.753  0.085
    occupations:
  0.905 -0.042  0.024
 -0.042  0.886  0.023
  0.024  0.023  0.913
atom    8   Tr[ns(na)] =   5.40729
    eigenvalues: 
  0.838  0.927  0.939
    eigenvectors:
  0.342  0.000  0.658
  0.000  1.000  0.000
  0.658  0.000  0.342
    occupations:
  0.905  0.000 -0.048
  0.000  0.927  0.000
 -0.048  0.000  0.873
atom    9   Tr[ns(na)] =   5.40729
    eigenvalues: 
  0.838  0.927  0.939
    eigenvectors:
  0.342  0.000  0.658
  0.490  0.253  0.256
  0.167  0.747  0.086
    occupations:
  0.905  0.042  0.024
  0.042  0.886 -0.024
  0.024 -0.024  0.913
atom   10   Tr[ns(na)] =   5.40729
    eigenvalues: 
  0.838  0.927  0.939
    eigenvectors:
  0.342  0.000  0.658
  0.496  0.247  0.257
  0.162  0.753  0.085
    occupations:
  0.905 -0.042  0.024
 -0.042  0.886  0.023
  0.024  0.023  0.913
N of occupied +U levels =  56.2721121
 --- exit write_ns ---
 --- in v_hubbard ---
Hubbard energy    0.0000
 -------

     total cpu time spent up to now is       92.6 secs

     total energy              =    -538.31881817 Ry
     Harris-Foulkes estimate   =    -538.33686150 Ry
     estimated scf accuracy    <       0.04345819 Ry

     iteration #  6     ecut=    30.00 Ry     beta=0.20
     Davidson diagonalization with overlap
     ethr =  5.72E-05,  avg # of iterations =  3.2
 --- enter write_ns ---
 LDA+U parameters:
U( 1)     =  0.00000000
alpha( 1) =  0.00000000
U( 2)     =  0.00000000
alpha( 2) =  0.00000000
U( 3)     =  0.00000000
alpha( 3) =  0.00000000
U( 4)     =  0.00000000
alpha( 4) =  0.00000000
atom    1   Tr[ns(na)] =   7.76768
    eigenvalues: 
  0.541  0.541  0.932  0.935  0.935
    eigenvectors:
  0.000  0.000  1.000  0.000  0.000
  0.341  0.315  0.000  0.002  0.343
  0.315  0.341  0.000  0.343  0.002
  0.292  0.052  0.000  0.519  0.137
  0.052  0.292  0.000  0.137  0.519
    occupations:
  0.932  0.000  0.000  0.000  0.000
  0.000  0.677  0.000 -0.074  0.172
  0.000  0.000  0.677  0.172  0.074
  0.000 -0.074  0.172  0.799  0.000
  0.000  0.172  0.074  0.000  0.799
atom    2   Tr[ns(na)] =   7.76732
    eigenvalues: 
  0.540  0.540  0.933  0.936  0.936
    eigenvectors:
  0.000  0.000  1.000  0.000  0.000
  0.647  0.009  0.000  0.230  0.114
  0.009  0.647  0.000  0.114  0.230
  0.027  0.317  0.000  0.472  0.183
  0.317  0.027  0.000  0.183  0.472
    occupations:
  0.933  0.000  0.000  0.000  0.000
  0.000  0.676  0.000  0.073  0.173
  0.000  0.000  0.676  0.173 -0.073
  0.000  0.073  0.173  0.799  0.000
  0.000  0.173 -0.073  0.000  0.799
atom    3   Tr[ns(na)] =   3.75935
    eigenvalues: 
  0.350  0.350  0.380  0.399  0.399
    eigenvectors:
  0.000  0.000  1.000  0.000  0.000
  0.782  0.139  0.000  0.012  0.068
  0.139  0.782  0.000  0.068  0.012
  0.012  0.067  0.000  0.780  0.140
  0.067  0.012  0.000  0.140  0.780
    occupations:
  0.380  0.000  0.000  0.000  0.000
  0.000  0.354  0.000  0.000  0.013
  0.000  0.000  0.354  0.013  0.000
  0.000  0.000  0.013  0.396  0.000
  0.000  0.013  0.000  0.000  0.396
atom    4   Tr[ns(na)] =   3.75935
    eigenvalues: 
  0.350  0.350  0.380  0.399  0.399
    eigenvectors:
  0.000  0.000  1.000  0.000  0.000
  0.782  0.139  0.000  0.012  0.068
  0.139  0.782  0.000  0.068  0.012
  0.012  0.067  0.000  0.780  0.140
  0.067  0.012  0.000  0.140  0.780
    occupations:
  0.380  0.000  0.000  0.000  0.000
  0.000  0.354  0.000  0.000  0.013
  0.000  0.000  0.354  0.013  0.000
  0.000  0.000  0.013  0.396  0.000
  0.000  0.013  0.000  0.000  0.396
atom    5   Tr[ns(na)] =   5.51861
    eigenvalues: 
  0.870  0.940  0.949
    eigenvectors:
  0.332  0.000  0.668
  0.500  0.250  0.250
  0.168  0.750  0.083
    occupations:
  0.923  0.032  0.018
  0.032  0.907 -0.019
  0.018 -0.019  0.929
atom    6   Tr[ns(na)] =   5.51861
    eigenvalues: 
  0.870  0.940  0.949
    eigenvectors:
  0.332  0.000  0.668
  0.000  1.000  0.000
  0.668  0.000  0.332
    occupations:
  0.923  0.000 -0.037
  0.000  0.940  0.000
 -0.037  0.000  0.896
atom    7   Tr[ns(na)] =   5.51861
    eigenvalues: 
  0.870  0.940  0.949
    eigenvectors:
  0.332  0.000  0.668
  0.502  0.250  0.249
  0.166  0.750  0.084
    occupations:
  0.923 -0.032  0.018
 -0.032  0.907  0.019
  0.018  0.019  0.929
atom    8   Tr[ns(na)] =   5.51861
    eigenvalues: 
  0.870  0.940  0.949
    eigenvectors:
  0.332  0.000  0.668
  0.000  1.000  0.000
  0.668  0.000  0.332
    occupations:
  0.923  0.000 -0.037
  0.000  0.940  0.000
 -0.037  0.000  0.896
atom    9   Tr[ns(na)] =   5.51861
    eigenvalues: 
  0.870  0.940  0.949
    eigenvectors:
  0.332  0.000  0.668
  0.500  0.250  0.250
  0.168  0.750  0.083
    occupations:
  0.923  0.032  0.018
  0.032  0.907 -0.019
  0.018 -0.019  0.929
atom   10   Tr[ns(na)] =   5.51861
    eigenvalues: 
  0.870  0.940  0.949
    eigenvectors:
  0.332  0.000  0.668
  0.502  0.250  0.249
  0.166  0.750  0.084
    occupations:
  0.923 -0.032  0.018
 -0.032  0.907  0.019
  0.018  0.019  0.929
N of occupied +U levels =  56.1653396
 --- exit write_ns ---
 --- in v_hubbard ---
Hubbard energy    0.0000
 -------

     total cpu time spent up to now is      114.9 secs

     total energy              =    -538.31584586 Ry
     Harris-Foulkes estimate   =    -538.35811396 Ry
     estimated scf accuracy    <       0.17942600 Ry

     iteration #  7     ecut=    30.00 Ry     beta=0.20
     Davidson diagonalization with overlap
     ethr =  5.72E-05,  avg # of iterations =  2.4
 --- enter write_ns ---
 LDA+U parameters:
U( 1)     =  0.00000000
alpha( 1) =  0.00000000
U( 2)     =  0.00000000
alpha( 2) =  0.00000000
U( 3)     =  0.00000000
alpha( 3) =  0.00000000
U( 4)     =  0.00000000
alpha( 4) =  0.00000000
atom    1   Tr[ns(na)] =   7.98840
    eigenvalues: 
  0.589  0.589  0.936  0.940  0.940
    eigenvectors:
  0.000  0.000  1.000  0.000  0.000
  0.334  0.321  0.000  0.003  0.341
  0.321  0.334  0.000  0.341  0.003
  0.289  0.056  0.000  0.516  0.140
  0.056  0.289  0.000  0.140  0.516
    occupations:
  0.936  0.000  0.000  0.000  0.000
  0.000  0.710  0.000 -0.062  0.154
  0.000  0.000  0.710  0.154  0.062
  0.000 -0.062  0.154  0.819  0.000
  0.000  0.154  0.062  0.000  0.819
atom    2   Tr[ns(na)] =   7.98881
    eigenvalues: 
  0.589  0.589  0.937  0.940  0.940
    eigenvectors:
  0.000  0.000  1.000  0.000  0.000
  0.641  0.014  0.000  0.224  0.121
  0.014  0.641  0.000  0.121  0.224
  0.018  0.327  0.000  0.471  0.184
  0.327  0.018  0.000  0.184  0.471
    occupations:
  0.937  0.000  0.000  0.000  0.000
  0.000  0.710  0.000  0.062  0.155
  0.000  0.000  0.710  0.155 -0.062
  0.000  0.062  0.155  0.819  0.000
  0.000  0.155 -0.062  0.000  0.819
atom    3   Tr[ns(na)] =   3.79972
    eigenvalues: 
  0.355  0.355  0.384  0.403  0.403
    eigenvectors:
  0.000  0.000  1.000  0.000  0.000
  0.786  0.138  0.000  0.011  0.065
  0.138  0.786  0.000  0.065  0.011
  0.012  0.065  0.000  0.783  0.140
  0.065  0.012  0.000  0.140  0.783
    occupations:
  0.384  0.000  0.000  0.000  0.000
  0.000  0.359  0.000  0.000  0.013
  0.000  0.000  0.359  0.013  0.000
  0.000  0.000  0.013  0.399  0.000
  0.000  0.013  0.000  0.000  0.399
atom    4   Tr[ns(na)] =   3.79972
    eigenvalues: 
  0.355  0.355  0.384  0.403  0.403
    eigenvectors:
  0.000  0.000  1.000  0.000  0.000
  0.786  0.138  0.000  0.011  0.065
  0.138  0.786  0.000  0.065  0.011
  0.012  0.064  0.000  0.784  0.140
  0.064  0.012  0.000  0.140  0.784
    occupations:
  0.384  0.000  0.000  0.000  0.000
  0.000  0.359  0.000  0.000  0.013
  0.000  0.000  0.359  0.013  0.000
  0.000  0.000  0.013  0.399  0.000
  0.000  0.013  0.000  0.000  0.399
atom    5   Tr[ns(na)] =   5.44459
    eigenvalues: 
  0.849  0.931  0.942
    eigenvectors:
  0.339  0.000  0.661
  0.495  0.250  0.255
  0.166  0.750  0.084
    occupations:
  0.911  0.038  0.022
  0.038  0.893 -0.022
  0.022 -0.022  0.918
atom    6   Tr[ns(na)] =   5.44459
    eigenvalues: 
  0.849  0.931  0.942
    eigenvectors:
  0.339  0.000  0.661
  0.000  1.000  0.000
  0.661  0.000  0.339
    occupations:
  0.911  0.000 -0.044
  0.000  0.931  0.000
 -0.044  0.000  0.881
atom    7   Tr[ns(na)] =   5.44459
    eigenvalues: 
  0.849  0.931  0.942
    eigenvectors:
  0.339  0.000  0.661
  0.496  0.250  0.254
  0.164  0.750  0.085
    occupations:
  0.911 -0.038  0.022
 -0.038  0.893  0.022
  0.022  0.022  0.919
atom    8   Tr[ns(na)] =   5.44459
    eigenvalues: 
  0.849  0.931  0.942
    eigenvectors:
  0.339  0.000  0.661
  0.000  1.000  0.000
  0.661  0.000  0.339
    occupations:
  0.911  0.000 -0.044
  0.000  0.931  0.000
 -0.044  0.000  0.881
atom    9   Tr[ns(na)] =   5.44459
    eigenvalues: 
  0.849  0.931  0.942
    eigenvectors:
  0.339  0.000  0.661
  0.495  0.250  0.255
  0.166  0.750  0.084
    occupations:
  0.911  0.038  0.022
  0.038  0.893 -0.022
  0.022 -0.022  0.918
atom   10   Tr[ns(na)] =   5.44459
    eigenvalues: 
  0.849  0.931  0.942
    eigenvectors:
  0.339  0.000  0.661
  0.496  0.250  0.254
  0.164  0.750  0.085
    occupations:
  0.911 -0.038  0.022
 -0.038  0.893  0.022
  0.022  0.022  0.919
N of occupied +U levels =  56.2441834
 --- exit write_ns ---
 --- in v_hubbard ---
Hubbard energy    0.0000
 -------

     total cpu time spent up to now is      131.7 secs

     total energy              =    -538.33244761 Ry
     Harris-Foulkes estimate   =    -538.33223262 Ry
     estimated scf accuracy    <       0.00317008 Ry

     iteration #  8     ecut=    30.00 Ry     beta=0.20
     Davidson diagonalization with overlap
     ethr =  4.17E-06,  avg # of iterations =  5.7
 --- enter write_ns ---
 LDA+U parameters:
U( 1)     =  0.00000000
alpha( 1) =  0.00000000
U( 2)     =  0.00000000
alpha( 2) =  0.00000000
U( 3)     =  0.00000000
alpha( 3) =  0.00000000
U( 4)     =  0.00000000
alpha( 4) =  0.00000000
atom    1   Tr[ns(na)] =   7.99888
    eigenvalues: 
  0.591  0.591  0.937  0.940  0.940
    eigenvectors:
  0.000  0.000  1.000  0.000  0.000
  0.334  0.321  0.000  0.004  0.342
  0.321  0.334  0.000  0.342  0.004
  0.289  0.056  0.000  0.515  0.140
  0.056  0.289  0.000  0.140  0.515
    occupations:
  0.937  0.000  0.000  0.000  0.000
  0.000  0.711  0.000 -0.061  0.154
  0.000  0.000  0.711  0.154  0.061
  0.000 -0.061  0.154  0.820  0.000
  0.000  0.154  0.061  0.000  0.820
atom    2   Tr[ns(na)] =   7.99798
    eigenvalues: 
  0.590  0.590  0.938  0.941  0.941
    eigenvectors:
  0.000  0.000  1.000  0.000  0.000
  0.640  0.015  0.000  0.223  0.122
  0.015  0.640  0.000  0.122  0.223
  0.017  0.328  0.000  0.470  0.185
  0.328  0.017  0.000  0.185  0.470
    occupations:
  0.938  0.000  0.000  0.000  0.000
  0.000  0.711  0.000  0.061  0.155
  0.000  0.000  0.711  0.155 -0.061
  0.000  0.061  0.155  0.820  0.000
  0.000  0.155 -0.061  0.000  0.820
atom    3   Tr[ns(na)] =   3.79926
    eigenvalues: 
  0.355  0.355  0.384  0.403  0.403
    eigenvectors:
  0.000  0.000  1.000  0.000  0.000
  0.783  0.138  0.000  0.011  0.067
  0.138  0.783  0.000  0.067  0.011
  0.012  0.066  0.000  0.781  0.140
  0.066  0.012  0.000  0.140  0.781
    occupations:
  0.384  0.000  0.000  0.000  0.000
  0.000  0.359  0.000  0.000  0.013
  0.000  0.000  0.359  0.013  0.000
  0.000  0.000  0.013  0.399  0.000
  0.000  0.013  0.000  0.000  0.399
atom    4   Tr[ns(na)] =   3.79926
    eigenvalues: 
  0.355  0.355  0.384  0.403  0.403
    eigenvectors:
  0.000  0.000  1.000  0.000  0.000
  0.783  0.139  0.000  0.011  0.067
  0.139  0.783  0.000  0.067  0.011
  0.012  0.066  0.000  0.781  0.140
  0.066  0.012  0.000  0.140  0.781
    occupations:
  0.384  0.000  0.000  0.000  0.000
  0.000  0.359  0.000  0.000  0.013
  0.000  0.000  0.359  0.013  0.000
  0.000  0.000  0.013  0.399  0.000
  0.000  0.013  0.000  0.000  0.399
atom    5   Tr[ns(na)] =   5.44164
    eigenvalues: 
  0.848  0.931  0.942
    eigenvectors:
  0.340  0.000  0.660
  0.495  0.250  0.255
  0.166  0.750  0.084
    occupations:
  0.910  0.038  0.022
  0.038  0.893 -0.022
  0.022 -0.022  0.918
atom    6   Tr[ns(na)] =   5.44164
    eigenvalues: 
  0.848  0.931  0.942
    eigenvectors:
  0.340  0.000  0.660
  0.000  1.000  0.000
  0.660  0.000  0.340
    occupations:
  0.910  0.000 -0.044
  0.000  0.931  0.000
 -0.044  0.000  0.880
atom    7   Tr[ns(na)] =   5.44164
    eigenvalues: 
  0.848  0.931  0.942
    eigenvectors:
  0.340  0.000  0.660
  0.496  0.250  0.254
  0.164  0.750  0.085
    occupations:
  0.910 -0.038  0.022
 -0.038  0.893  0.022
  0.022  0.022  0.918
atom    8   Tr[ns(na)] =   5.44164
    eigenvalues: 
  0.848  0.931  0.942
    eigenvectors:
  0.340  0.000  0.660
  0.000  1.000  0.000
  0.660  0.000  0.340
    occupations:
  0.910  0.000 -0.044
  0.000  0.931  0.000
 -0.044  0.000  0.880
atom    9   Tr[ns(na)] =   5.44164
    eigenvalues: 
  0.848  0.931  0.942
    eigenvectors:
  0.340  0.000  0.660
  0.495  0.250  0.255
  0.166  0.750  0.084
    occupations:
  0.910  0.038  0.022
  0.038  0.893 -0.022
  0.022 -0.022  0.918
atom   10   Tr[ns(na)] =   5.44164
    eigenvalues: 
  0.848  0.931  0.942
    eigenvectors:
  0.340  0.000  0.660
  0.496  0.250  0.254
  0.164  0.750  0.085
    occupations:
  0.910 -0.038  0.022
 -0.038  0.893  0.022
  0.022  0.022  0.918
N of occupied +U levels =  56.2452535
 --- exit write_ns ---
 --- in v_hubbard ---
Hubbard energy    0.0000
 -------

     total cpu time spent up to now is      148.9 secs

     total energy              =    -538.33247639 Ry
     Harris-Foulkes estimate   =    -538.33262904 Ry
     estimated scf accuracy    <       0.00168708 Ry

     iteration #  9     ecut=    30.00 Ry     beta=0.20
     Davidson diagonalization with overlap
     ethr =  2.22E-06,  avg # of iterations =  1.9
 --- enter write_ns ---
 LDA+U parameters:
U( 1)     =  0.00000000
alpha( 1) =  0.00000000
U( 2)     =  0.00000000
alpha( 2) =  0.00000000
U( 3)     =  0.00000000
alpha( 3) =  0.00000000
U( 4)     =  0.00000000
alpha( 4) =  0.00000000
atom    1   Tr[ns(na)] =   8.01884
    eigenvalues: 
  0.595  0.595  0.938  0.941  0.941
    eigenvectors:
  0.000  0.000  1.000  0.000  0.000
  0.333  0.322  0.000  0.004  0.342
  0.322  0.333  0.000  0.342  0.004
  0.289  0.057  0.000  0.515  0.140
  0.057  0.289  0.000  0.140  0.515
    occupations:
  0.938  0.000  0.000  0.000  0.000
  0.000  0.714  0.000 -0.060  0.153
  0.000  0.000  0.714  0.153  0.060
  0.000 -0.060  0.153  0.821  0.000
  0.000  0.153  0.060  0.000  0.821
atom    2   Tr[ns(na)] =   8.01843
    eigenvalues: 
  0.594  0.594  0.938  0.941  0.941
    eigenvectors:
  0.000  0.000  1.000  0.000  0.000
  0.639  0.016  0.000  0.223  0.122
  0.016  0.639  0.000  0.122  0.223
  0.016  0.329  0.000  0.470  0.185
  0.329  0.016  0.000  0.185  0.470
    occupations:
  0.938  0.000  0.000  0.000  0.000
  0.000  0.714  0.000  0.060  0.153
  0.000  0.000  0.714  0.153 -0.060
  0.000  0.060  0.153  0.821  0.000
  0.000  0.153 -0.060  0.000  0.821
atom    3   Tr[ns(na)] =   3.79902
    eigenvalues: 
  0.355  0.355  0.384  0.403  0.403
    eigenvectors:
  0.000  0.000  1.000  0.000  0.000
  0.781  0.139  0.000  0.012  0.068
  0.139  0.781  0.000  0.068  0.012
  0.013  0.067  0.000  0.780  0.141
  0.067  0.013  0.000  0.141  0.780
    occupations:
  0.384  0.000  0.000  0.000  0.000
  0.000  0.359  0.000  0.000  0.013
  0.000  0.000  0.359  0.013  0.000
  0.000  0.000  0.013  0.399  0.000
  0.000  0.013  0.000  0.000  0.399
atom    4   Tr[ns(na)] =   3.79902
    eigenvalues: 
  0.355  0.355  0.384  0.403  0.403
    eigenvectors:
  0.000  0.000  1.000  0.000  0.000
  0.781  0.139  0.000  0.012  0.068
  0.139  0.781  0.000  0.068  0.012
  0.013  0.067  0.000  0.780  0.141
  0.067  0.013  0.000  0.141  0.780
    occupations:
  0.384  0.000  0.000  0.000  0.000
  0.000  0.359  0.000  0.000  0.013
  0.000  0.000  0.359  0.013  0.000
  0.000  0.000  0.013  0.399  0.000
  0.000  0.013  0.000  0.000  0.399
atom    5   Tr[ns(na)] =   5.43551
    eigenvalues: 
  0.847  0.930  0.941
    eigenvectors:
  0.340  0.000  0.660
  0.494  0.250  0.256
  0.166  0.750  0.085
    occupations:
  0.909  0.039  0.022
  0.039  0.892 -0.022
  0.022 -0.022  0.917
atom    6   Tr[ns(na)] =   5.43551
    eigenvalues: 
  0.847  0.930  0.941
    eigenvectors:
  0.340  0.000  0.660
  0.000  1.000  0.000
  0.660  0.000  0.340
    occupations:
  0.909  0.000 -0.045
  0.000  0.930  0.000
 -0.045  0.000  0.879
atom    7   Tr[ns(na)] =   5.43551
    eigenvalues: 
  0.847  0.930  0.941
    eigenvectors:
  0.340  0.000  0.660
  0.496  0.250  0.255
  0.164  0.750  0.085
    occupations:
  0.909 -0.039  0.022
 -0.039  0.892  0.022
  0.022  0.022  0.917
atom    8   Tr[ns(na)] =   5.43551
    eigenvalues: 
  0.847  0.930  0.941
    eigenvectors:
  0.340  0.000  0.660
  0.000  1.000  0.000
  0.660  0.000  0.340
    occupations:
  0.909  0.000 -0.045
  0.000  0.930  0.000
 -0.045  0.000  0.879
atom    9   Tr[ns(na)] =   5.43551
    eigenvalues: 
  0.847  0.930  0.941
    eigenvectors:
  0.340  0.000  0.660
  0.494  0.250  0.256
  0.166  0.750  0.085
    occupations:
  0.909  0.039  0.022
  0.039  0.892 -0.022
  0.022 -0.022  0.917
atom   10   Tr[ns(na)] =   5.43551
    eigenvalues: 
  0.847  0.930  0.941
    eigenvectors:
  0.340  0.000  0.660
  0.496  0.250  0.255
  0.164  0.750  0.085
    occupations:
  0.909 -0.039  0.022
 -0.039  0.892  0.022
  0.022  0.022  0.917
N of occupied +U levels =  56.2483687
 --- exit write_ns ---
 --- in v_hubbard ---
Hubbard energy    0.0000
 -------

     total cpu time spent up to now is      165.9 secs

     total energy              =    -538.33276118 Ry
     Harris-Foulkes estimate   =    -538.33263073 Ry
     estimated scf accuracy    <       0.00008085 Ry

     iteration # 10     ecut=    30.00 Ry     beta=0.20
     Davidson diagonalization with overlap
     ethr =  1.06E-07,  avg # of iterations =  3.2
 --- enter write_ns ---
 LDA+U parameters:
U( 1)     =  0.00000000
alpha( 1) =  0.00000000
U( 2)     =  0.00000000
alpha( 2) =  0.00000000
U( 3)     =  0.00000000
alpha( 3) =  0.00000000
U( 4)     =  0.00000000
alpha( 4) =  0.00000000
atom    1   Tr[ns(na)] =   8.02057
    eigenvalues: 
  0.595  0.595  0.938  0.941  0.941
    eigenvectors:
  0.000  0.000  1.000  0.000  0.000
  0.333  0.322  0.000  0.004  0.342
  0.322  0.333  0.000  0.342  0.004
  0.289  0.056  0.000  0.515  0.140
  0.056  0.289  0.000  0.140  0.515
    occupations:
  0.938  0.000  0.000  0.000  0.000
  0.000  0.715  0.000 -0.060  0.153
  0.000  0.000  0.715  0.153  0.060
  0.000 -0.060  0.153  0.822  0.000
  0.000  0.153  0.060  0.000  0.822
atom    2   Tr[ns(na)] =   8.01989
    eigenvalues: 
  0.595  0.595  0.938  0.941  0.941
    eigenvectors:
  0.000  0.000  1.000  0.000  0.000
  0.640  0.015  0.000  0.223  0.122
  0.015  0.640  0.000  0.122  0.223
  0.016  0.329  0.000  0.470  0.185
  0.329  0.016  0.000  0.185  0.470
    occupations:
  0.938  0.000  0.000  0.000  0.000
  0.000  0.714  0.000  0.060  0.153
  0.000  0.000  0.714  0.153 -0.060
  0.000  0.060  0.153  0.822  0.000
  0.000  0.153 -0.060  0.000  0.822
atom    3   Tr[ns(na)] =   3.80309
    eigenvalues: 
  0.355  0.355  0.384  0.403  0.403
    eigenvectors:
  0.000  0.000  1.000  0.000  0.000
  0.782  0.139  0.000  0.012  0.068
  0.139  0.782  0.000  0.068  0.012
  0.012  0.067  0.000  0.780  0.141
  0.067  0.012  0.000  0.141  0.780
    occupations:
  0.384  0.000  0.000  0.000  0.000
  0.000  0.359  0.000  0.000  0.013
  0.000  0.000  0.359  0.013  0.000
  0.000  0.000  0.013  0.399  0.000
  0.000  0.013  0.000  0.000  0.399
atom    4   Tr[ns(na)] =   3.80309
    eigenvalues: 
  0.355  0.355  0.384  0.403  0.403
    eigenvectors:
  0.000  0.000  1.000  0.000  0.000
  0.782  0.139  0.000  0.012  0.068
  0.139  0.782  0.000  0.068  0.012
  0.012  0.067  0.000  0.780  0.141
  0.067  0.012  0.000  0.141  0.780
    occupations:
  0.384  0.000  0.000  0.000  0.000
  0.000  0.359  0.000  0.000  0.013
  0.000  0.000  0.359  0.013  0.000
  0.000  0.000  0.013  0.399  0.000
  0.000  0.013  0.000  0.000  0.399
atom    5   Tr[ns(na)] =   5.43398
    eigenvalues: 
  0.846  0.929  0.941
    eigenvectors:
  0.340  0.000  0.660
  0.494  0.250  0.256
  0.166  0.750  0.085
    occupations:
  0.909  0.039  0.022
  0.039  0.891 -0.022
  0.022 -0.022  0.917
atom    6   Tr[ns(na)] =   5.43398
    eigenvalues: 
  0.846  0.929  0.941
    eigenvectors:
  0.340  0.000  0.660
  0.000  1.000  0.000
  0.660  0.000  0.340
    occupations:
  0.909  0.000 -0.045
  0.000  0.929  0.000
 -0.045  0.000  0.879
atom    7   Tr[ns(na)] =   5.43398
    eigenvalues: 
  0.846  0.929  0.941
    eigenvectors:
  0.340  0.000  0.660
  0.496  0.250  0.255
  0.164  0.750  0.085
    occupations:
  0.909 -0.039  0.022
 -0.039  0.891  0.022
  0.022  0.022  0.917
atom    8   Tr[ns(na)] =   5.43398
    eigenvalues: 
  0.846  0.929  0.941
    eigenvectors:
  0.340  0.000  0.660
  0.000  1.000  0.000
  0.660  0.000  0.340
    occupations:
  0.909  0.000 -0.045
  0.000  0.929  0.000
 -0.045  0.000  0.879
atom    9   Tr[ns(na)] =   5.43398
    eigenvalues: 
  0.846  0.929  0.941
    eigenvectors:
  0.340  0.000  0.660
  0.494  0.250  0.256
  0.166  0.750  0.085
    occupations:
  0.909  0.039  0.022
  0.039  0.891 -0.022
  0.022 -0.022  0.917
atom   10   Tr[ns(na)] =   5.43398
    eigenvalues: 
  0.846  0.929  0.941
    eigenvectors:
  0.340  0.000  0.660
  0.496  0.250  0.255
  0.164  0.750  0.085
    occupations:
  0.909 -0.039  0.022
 -0.039  0.891  0.022
  0.022  0.022  0.917
N of occupied +U levels =  56.2505053
 --- exit write_ns ---
 --- in v_hubbard ---
Hubbard energy    0.0000
 -------

     total cpu time spent up to now is      185.7 secs

     total energy              =    -538.33287789 Ry
     Harris-Foulkes estimate   =    -538.33278271 Ry
     estimated scf accuracy    <       0.00000911 Ry

     iteration # 11     ecut=    30.00 Ry     beta=0.20
     Davidson diagonalization with overlap
     ethr =  1.20E-08,  avg # of iterations =  2.1
 --- enter write_ns ---
 LDA+U parameters:
U( 1)     =  0.00000000
alpha( 1) =  0.00000000
U( 2)     =  0.00000000
alpha( 2) =  0.00000000
U( 3)     =  0.00000000
alpha( 3) =  0.00000000
U( 4)     =  0.00000000
alpha( 4) =  0.00000000
atom    1   Tr[ns(na)] =   8.02206
    eigenvalues: 
  0.596  0.596  0.938  0.941  0.941
    eigenvectors:
  0.000  0.000  1.000  0.000  0.000
  0.333  0.322  0.000  0.004  0.341
  0.322  0.333  0.000  0.341  0.004
  0.288  0.057  0.000  0.515  0.140
  0.057  0.288  0.000  0.140  0.515
    occupations:
  0.938  0.000  0.000  0.000  0.000
  0.000  0.715  0.000 -0.060  0.152
  0.000  0.000  0.715  0.152  0.060
  0.000 -0.060  0.152  0.822  0.000
  0.000  0.152  0.060  0.000  0.822
atom    2   Tr[ns(na)] =   8.02177
    eigenvalues: 
  0.595  0.595  0.938  0.941  0.941
    eigenvectors:
  0.000  0.000  1.000  0.000  0.000
  0.639  0.015  0.000  0.223  0.122
  0.015  0.639  0.000  0.122  0.223
  0.016  0.329  0.000  0.470  0.185
  0.329  0.016  0.000  0.185  0.470
    occupations:
  0.938  0.000  0.000  0.000  0.000
  0.000  0.715  0.000  0.060  0.153
  0.000  0.000  0.715  0.153 -0.060
  0.000  0.060  0.153  0.822  0.000
  0.000  0.153 -0.060  0.000  0.822
atom    3   Tr[ns(na)] =   3.80214
    eigenvalues: 
  0.355  0.355  0.384  0.403  0.403
    eigenvectors:
  0.000  0.000  1.000  0.000  0.000
  0.781  0.139  0.000  0.012  0.068
  0.139  0.781  0.000  0.068  0.012
  0.013  0.067  0.000  0.780  0.141
  0.067  0.013  0.000  0.141  0.780
    occupations:
  0.384  0.000  0.000  0.000  0.000
  0.000  0.359  0.000  0.000  0.013
  0.000  0.000  0.359  0.013  0.000
  0.000  0.000  0.013  0.399  0.000
  0.000  0.013  0.000  0.000  0.399
atom    4   Tr[ns(na)] =   3.80214
    eigenvalues: 
  0.355  0.355  0.384  0.403  0.403
    eigenvectors:
  0.000  0.000  1.000  0.000  0.000
  0.782  0.139  0.000  0.012  0.068
  0.139  0.782  0.000  0.068  0.012
  0.013  0.067  0.000  0.780  0.141
  0.067  0.013  0.000  0.141  0.780
    occupations:
  0.384  0.000  0.000  0.000  0.000
  0.000  0.359  0.000  0.000  0.013
  0.000  0.000  0.359  0.013  0.000
  0.000  0.000  0.013  0.399  0.000
  0.000  0.013  0.000  0.000  0.399
atom    5   Tr[ns(na)] =   5.43368
    eigenvalues: 
  0.846  0.929  0.941
    eigenvectors:
  0.340  0.000  0.660
  0.494  0.250  0.256
  0.166  0.750  0.085
    occupations:
  0.909  0.039  0.022
  0.039  0.891 -0.022
  0.022 -0.022  0.917
atom    6   Tr[ns(na)] =   5.43368
    eigenvalues: 
  0.846  0.929  0.941
    eigenvectors:
  0.340  0.000  0.660
  0.000  1.000  0.000
  0.660  0.000  0.340
    occupations:
  0.909  0.000 -0.045
  0.000  0.929  0.000
 -0.045  0.000  0.879
atom    7   Tr[ns(na)] =   5.43368
    eigenvalues: 
  0.846  0.929  0.941
    eigenvectors:
  0.340  0.000  0.660
  0.496  0.250  0.255
  0.164  0.750  0.086
    occupations:
  0.909 -0.039  0.022
 -0.039  0.891  0.022
  0.022  0.022  0.917
atom    8   Tr[ns(na)] =   5.43368
    eigenvalues: 
  0.846  0.929  0.941
    eigenvectors:
  0.340  0.000  0.660
  0.000  1.000  0.000
  0.660  0.000  0.340
    occupations:
  0.909  0.000 -0.045
  0.000  0.929  0.000
 -0.045  0.000  0.879
atom    9   Tr[ns(na)] =   5.43368
    eigenvalues: 
  0.846  0.929  0.941
    eigenvectors:
  0.340  0.000  0.660
  0.494  0.250  0.256
  0.166  0.750  0.085
    occupations:
  0.909  0.039  0.022
  0.039  0.891 -0.022
  0.022 -0.022  0.917
atom   10   Tr[ns(na)] =   5.43368
    eigenvalues: 
  0.846  0.929  0.941
    eigenvectors:
  0.340  0.000  0.660
  0.496  0.250  0.255
  0.164  0.750  0.086
    occupations:
  0.909 -0.039  0.022
 -0.039  0.891  0.022
  0.022  0.022  0.917
N of occupied +U levels =  56.2502115
 --- exit write_ns ---
 --- in v_hubbard ---
Hubbard energy    0.0000
 -------

     total cpu time spent up to now is      203.3 secs

     total energy              =    -538.33294035 Ry
     Harris-Foulkes estimate   =    -538.33287959 Ry
     estimated scf accuracy    <       0.00000259 Ry

     iteration # 12     ecut=    30.00 Ry     beta=0.20
     Davidson diagonalization with overlap
     ethr =  3.41E-09,  avg # of iterations =  2.1
 --- enter write_ns ---
 LDA+U parameters:
U( 1)     =  0.00000000
alpha( 1) =  0.00000000
U( 2)     =  0.00000000
alpha( 2) =  0.00000000
U( 3)     =  0.00000000
alpha( 3) =  0.00000000
U( 4)     =  0.00000000
alpha( 4) =  0.00000000
atom    1   Tr[ns(na)] =   8.02145
    eigenvalues: 
  0.596  0.596  0.938  0.941  0.941
    eigenvectors:
  0.000  0.000  1.000  0.000  0.000
  0.333  0.322  0.000  0.004  0.341
  0.322  0.333  0.000  0.341  0.004
  0.289  0.056  0.000  0.515  0.140
  0.056  0.289  0.000  0.140  0.515
    occupations:
  0.938  0.000  0.000  0.000  0.000
  0.000  0.715  0.000 -0.060  0.153
  0.000  0.000  0.715  0.153  0.060
  0.000 -0.060  0.153  0.822  0.000
  0.000  0.153  0.060  0.000  0.822
atom    2   Tr[ns(na)] =   8.02065
    eigenvalues: 
  0.595  0.595  0.938  0.941  0.941
    eigenvectors:
  0.000  0.000  1.000  0.000  0.000
  0.640  0.015  0.000  0.223  0.122
  0.015  0.640  0.000  0.122  0.223
  0.017  0.329  0.000  0.470  0.184
  0.329  0.017  0.000  0.184  0.470
    occupations:
  0.938  0.000  0.000  0.000  0.000
  0.000  0.714  0.000  0.060  0.153
  0.000  0.000  0.714  0.153 -0.060
  0.000  0.060  0.153  0.822  0.000
  0.000  0.153 -0.060  0.000  0.822
atom    3   Tr[ns(na)] =   3.80270
    eigenvalues: 
  0.355  0.355  0.384  0.403  0.403
    eigenvectors:
  0.000  0.000  1.000  0.000  0.000
  0.782  0.139  0.000  0.012  0.068
  0.139  0.782  0.000  0.068  0.012
  0.013  0.067  0.000  0.780  0.141
  0.067  0.013  0.000  0.141  0.780
    occupations:
  0.384  0.000  0.000  0.000  0.000
  0.000  0.359  0.000  0.000  0.013
  0.000  0.000  0.359  0.013  0.000
  0.000  0.000  0.013  0.399  0.000
  0.000  0.013  0.000  0.000  0.399
atom    4   Tr[ns(na)] =   3.80270
    eigenvalues: 
  0.355  0.355  0.384  0.403  0.403
    eigenvectors:
  0.000  0.000  1.000  0.000  0.000
  0.782  0.139  0.000  0.012  0.068
  0.139  0.782  0.000  0.068  0.012
  0.012  0.067  0.000  0.780  0.141
  0.067  0.012  0.000  0.141  0.780
    occupations:
  0.384  0.000  0.000  0.000  0.000
  0.000  0.359  0.000  0.000  0.013
  0.000  0.000  0.359  0.013  0.000
  0.000  0.000  0.013  0.399  0.000
  0.000  0.013  0.000  0.000  0.399
atom    5   Tr[ns(na)] =   5.43382
    eigenvalues: 
  0.846  0.929  0.941
    eigenvectors:
  0.340  0.000  0.660
  0.494  0.250  0.256
  0.166  0.750  0.085
    occupations:
  0.909  0.039  0.022
  0.039  0.891 -0.022
  0.022 -0.022  0.917
atom    6   Tr[ns(na)] =   5.43382
    eigenvalues: 
  0.846  0.929  0.941
    eigenvectors:
  0.340  0.000  0.660
  0.000  1.000  0.000
  0.660  0.000  0.340
    occupations:
  0.909  0.000 -0.045
  0.000  0.929  0.000
 -0.045  0.000  0.879
atom    7   Tr[ns(na)] =   5.43382
    eigenvalues: 
  0.846  0.929  0.941
    eigenvectors:
  0.340  0.000  0.660
  0.496  0.250  0.255
  0.164  0.750  0.086
    occupations:
  0.909 -0.039  0.022
 -0.039  0.891  0.022
  0.022  0.022  0.917
atom    8   Tr[ns(na)] =   5.43382
    eigenvalues: 
  0.846  0.929  0.941
    eigenvectors:
  0.340  0.000  0.660
  0.000  1.000  0.000
  0.660  0.000  0.340
    occupations:
  0.909  0.000 -0.045
  0.000  0.929  0.000
 -0.045  0.000  0.879
atom    9   Tr[ns(na)] =   5.43382
    eigenvalues: 
  0.846  0.929  0.941
    eigenvectors:
  0.340  0.000  0.660
  0.494  0.250  0.256
  0.166  0.750  0.085
    occupations:
  0.909  0.039  0.022
  0.039  0.891 -0.022
  0.022 -0.022  0.917
atom   10   Tr[ns(na)] =   5.43382
    eigenvalues: 
  0.846  0.929  0.941
    eigenvectors:
  0.340  0.000  0.660
  0.496  0.250  0.255
  0.164  0.750  0.086
    occupations:
  0.909 -0.039  0.022
 -0.039  0.891  0.022
  0.022  0.022  0.917
N of occupied +U levels =  56.2504208
 --- exit write_ns ---
 --- in v_hubbard ---
Hubbard energy    0.0000
 -------

     total cpu time spent up to now is      222.1 secs

     total energy              =    -538.33298105 Ry
     Harris-Foulkes estimate   =    -538.33294088 Ry
     estimated scf accuracy    <       0.00000137 Ry

     iteration # 13     ecut=    30.00 Ry     beta=0.20
     Davidson diagonalization with overlap
     ethr =  1.80E-09,  avg # of iterations =  2.0
 --- enter write_ns ---
 LDA+U parameters:
U( 1)     =  0.00000000
alpha( 1) =  0.00000000
U( 2)     =  0.00000000
alpha( 2) =  0.00000000
U( 3)     =  0.00000000
alpha( 3) =  0.00000000
U( 4)     =  0.00000000
alpha( 4) =  0.00000000
atom    1   Tr[ns(na)] =   8.02233
    eigenvalues: 
  0.596  0.596  0.938  0.941  0.941
    eigenvectors:
  0.000  0.000  1.000  0.000  0.000
  0.333  0.322  0.000  0.004  0.341
  0.322  0.333  0.000  0.341  0.004
  0.289  0.057  0.000  0.515  0.140
  0.057  0.289  0.000  0.140  0.515
    occupations:
  0.938  0.000  0.000  0.000  0.000
  0.000  0.715  0.000 -0.060  0.152
  0.000  0.000  0.715  0.152  0.060
  0.000 -0.060  0.152  0.822  0.000
  0.000  0.152  0.060  0.000  0.822
atom    2   Tr[ns(na)] =   8.02179
    eigenvalues: 
  0.595  0.595  0.938  0.941  0.941
    eigenvectors:
  0.000  0.000  1.000  0.000  0.000
  0.640  0.015  0.000  0.223  0.122
  0.015  0.640  0.000  0.122  0.223
  0.017  0.329  0.000  0.470  0.185
  0.329  0.017  0.000  0.185  0.470
    occupations:
  0.938  0.000  0.000  0.000  0.000
  0.000  0.715  0.000  0.060  0.153
  0.000  0.000  0.715  0.153 -0.060
  0.000  0.060  0.153  0.822  0.000
  0.000  0.153 -0.060  0.000  0.822
atom    3   Tr[ns(na)] =   3.80297
    eigenvalues: 
  0.355  0.355  0.384  0.403  0.403
    eigenvectors:
  0.000  0.000  1.000  0.000  0.000
  0.782  0.139  0.000  0.012  0.068
  0.139  0.782  0.000  0.068  0.012
  0.012  0.067  0.000  0.780  0.141
  0.067  0.012  0.000  0.141  0.780
    occupations:
  0.384  0.000  0.000  0.000  0.000
  0.000  0.359  0.000  0.000  0.013
  0.000  0.000  0.359  0.013  0.000
  0.000  0.000  0.013  0.399  0.000
  0.000  0.013  0.000  0.000  0.399
atom    4   Tr[ns(na)] =   3.80297
    eigenvalues: 
  0.355  0.355  0.384  0.403  0.403
    eigenvectors:
  0.000  0.000  1.000  0.000  0.000
  0.782  0.139  0.000  0.012  0.068
  0.139  0.782  0.000  0.068  0.012
  0.012  0.067  0.000  0.780  0.141
  0.067  0.012  0.000  0.141  0.780
    occupations:
  0.384  0.000  0.000  0.000  0.000
  0.000  0.359  0.000  0.000  0.013
  0.000  0.000  0.359  0.013  0.000
  0.000  0.000  0.013  0.399  0.000
  0.000  0.013  0.000  0.000  0.399
atom    5   Tr[ns(na)] =   5.43345
    eigenvalues: 
  0.846  0.929  0.941
    eigenvectors:
  0.340  0.000  0.660
  0.494  0.250  0.256
  0.166  0.750  0.085
    occupations:
  0.909  0.039  0.022
  0.039  0.891 -0.022
  0.022 -0.022  0.917
atom    6   Tr[ns(na)] =   5.43345
    eigenvalues: 
  0.846  0.929  0.941
    eigenvectors:
  0.340  0.000  0.660
  0.000  1.000  0.000
  0.660  0.000  0.340
    occupations:
  0.909  0.000 -0.045
  0.000  0.929  0.000
 -0.045  0.000  0.879
atom    7   Tr[ns(na)] =   5.43345
    eigenvalues: 
  0.846  0.929  0.941
    eigenvectors:
  0.340  0.000  0.660
  0.496  0.250  0.255
  0.164  0.750  0.086
    occupations:
  0.909 -0.039  0.022
 -0.039  0.891  0.022
  0.022  0.022  0.917
atom    8   Tr[ns(na)] =   5.43345
    eigenvalues: 
  0.846  0.929  0.941
    eigenvectors:
  0.340  0.000  0.660
  0.000  1.000  0.000
  0.660  0.000  0.340
    occupations:
  0.909  0.000 -0.045
  0.000  0.929  0.000
 -0.045  0.000  0.879
atom    9   Tr[ns(na)] =   5.43345
    eigenvalues: 
  0.846  0.929  0.941
    eigenvectors:
  0.340  0.000  0.660
  0.494  0.250  0.256
  0.166  0.750  0.085
    occupations:
  0.909  0.039  0.022
  0.039  0.891 -0.022
  0.022 -0.022  0.917
atom   10   Tr[ns(na)] =   5.43345
    eigenvalues: 
  0.846  0.929  0.941
    eigenvectors:
  0.340  0.000  0.660
  0.496  0.250  0.255
  0.164  0.750  0.086
    occupations:
  0.909 -0.039  0.022
 -0.039  0.891  0.022
  0.022  0.022  0.917
N of occupied +U levels =  56.2507565
 --- exit write_ns ---
 --- in v_hubbard ---
Hubbard energy    0.0000
 -------

     total cpu time spent up to now is      239.6 secs

     total energy              =    -538.33300712 Ry
     Harris-Foulkes estimate   =    -538.33298140 Ry
     estimated scf accuracy    <       0.00000032 Ry

     iteration # 14     ecut=    30.00 Ry     beta=0.20
     Davidson diagonalization with overlap
     ethr =  4.27E-10,  avg # of iterations =  1.0
 --- enter write_ns ---
 LDA+U parameters:
U( 1)     =  0.00000000
alpha( 1) =  0.00000000
U( 2)     =  0.00000000
alpha( 2) =  0.00000000
U( 3)     =  0.00000000
alpha( 3) =  0.00000000
U( 4)     =  0.00000000
alpha( 4) =  0.00000000
atom    1   Tr[ns(na)] =   8.02220
    eigenvalues: 
  0.596  0.596  0.938  0.941  0.941
    eigenvectors:
  0.000  0.000  1.000  0.000  0.000
  0.333  0.322  0.000  0.004  0.341
  0.322  0.333  0.000  0.341  0.004
  0.289  0.056  0.000  0.515  0.140
  0.056  0.289  0.000  0.140  0.515
    occupations:
  0.938  0.000  0.000  0.000  0.000
  0.000  0.715  0.000 -0.060  0.152
  0.000  0.000  0.715  0.152  0.060
  0.000 -0.060  0.152  0.822  0.000
  0.000  0.152  0.060  0.000  0.822
atom    2   Tr[ns(na)] =   8.02151
    eigenvalues: 
  0.595  0.595  0.938  0.941  0.941
    eigenvectors:
  0.000  0.000  1.000  0.000  0.000
  0.640  0.015  0.000  0.223  0.122
  0.015  0.640  0.000  0.122  0.223
  0.016  0.329  0.000  0.470  0.185
  0.329  0.016  0.000  0.185  0.470
    occupations:
  0.938  0.000  0.000  0.000  0.000
  0.000  0.715  0.000  0.060  0.153
  0.000  0.000  0.715  0.153 -0.060
  0.000  0.060  0.153  0.822  0.000
  0.000  0.153 -0.060  0.000  0.822
atom    3   Tr[ns(na)] =   3.80294
    eigenvalues: 
  0.355  0.355  0.384  0.403  0.403
    eigenvectors:
  0.000  0.000  1.000  0.000  0.000
  0.781  0.139  0.000  0.012  0.068
  0.139  0.781  0.000  0.068  0.012
  0.013  0.067  0.000  0.780  0.141
  0.067  0.013  0.000  0.141  0.780
    occupations:
  0.384  0.000  0.000  0.000  0.000
  0.000  0.359  0.000  0.000  0.013
  0.000  0.000  0.359  0.013  0.000
  0.000  0.000  0.013  0.399  0.000
  0.000  0.013  0.000  0.000  0.399
atom    4   Tr[ns(na)] =   3.80294
    eigenvalues: 
  0.355  0.355  0.384  0.403  0.403
    eigenvectors:
  0.000  0.000  1.000  0.000  0.000
  0.782  0.139  0.000  0.012  0.068
  0.139  0.782  0.000  0.068  0.012
  0.013  0.067  0.000  0.780  0.140
  0.067  0.013  0.000  0.140  0.780
    occupations:
  0.384  0.000  0.000  0.000  0.000
  0.000  0.359  0.000  0.000  0.013
  0.000  0.000  0.359  0.013  0.000
  0.000  0.000  0.013  0.399  0.000
  0.000  0.013  0.000  0.000  0.399
atom    5   Tr[ns(na)] =   5.43352
    eigenvalues: 
  0.846  0.929  0.941
    eigenvectors:
  0.340  0.000  0.660
  0.494  0.250  0.256
  0.166  0.750  0.085
    occupations:
  0.909  0.039  0.022
  0.039  0.891 -0.022
  0.022 -0.022  0.917
atom    6   Tr[ns(na)] =   5.43352
    eigenvalues: 
  0.846  0.929  0.941
    eigenvectors:
  0.340  0.000  0.660
  0.000  1.000  0.000
  0.660  0.000  0.340
    occupations:
  0.909  0.000 -0.045
  0.000  0.929  0.000
 -0.045  0.000  0.879
atom    7   Tr[ns(na)] =   5.43352
    eigenvalues: 
  0.846  0.929  0.941
    eigenvectors:
  0.340  0.000  0.660
  0.496  0.250  0.255
  0.164  0.750  0.085
    occupations:
  0.909 -0.039  0.022
 -0.039  0.891  0.022
  0.022  0.022  0.917
atom    8   Tr[ns(na)] =   5.43352
    eigenvalues: 
  0.846  0.929  0.941
    eigenvectors:
  0.340  0.000  0.660
  0.000  1.000  0.000
  0.660  0.000  0.340
    occupations:
  0.909  0.000 -0.045
  0.000  0.929  0.000
 -0.045  0.000  0.879
atom    9   Tr[ns(na)] =   5.43352
    eigenvalues: 
  0.846  0.929  0.941
    eigenvectors:
  0.340  0.000  0.660
  0.494  0.250  0.256
  0.166  0.750  0.085
    occupations:
  0.909  0.039  0.022
  0.039  0.891 -0.022
  0.022 -0.022  0.917
atom   10   Tr[ns(na)] =   5.43352
    eigenvalues: 
  0.846  0.929  0.941
    eigenvectors:
  0.340  0.000  0.660
  0.496  0.250  0.255
  0.164  0.750  0.085
    occupations:
  0.909 -0.039  0.022
 -0.039  0.891  0.022
  0.022  0.022  0.917
N of occupied +U levels =  56.2506875
 --- exit write_ns ---
 --- in v_hubbard ---
Hubbard energy    0.0000
 -------

     total cpu time spent up to now is      253.7 secs

     total energy              =    -538.33302375 Ry
     Harris-Foulkes estimate   =    -538.33300714 Ry
     estimated scf accuracy    <       0.00000006 Ry

     iteration # 15     ecut=    30.00 Ry     beta=0.20
     Davidson diagonalization with overlap
     ethr =  7.88E-11,  avg # of iterations =  2.0
 --- enter write_ns ---
 LDA+U parameters:
U( 1)     =  0.00000000
alpha( 1) =  0.00000000
U( 2)     =  0.00000000
alpha( 2) =  0.00000000
U( 3)     =  0.00000000
alpha( 3) =  0.00000000
U( 4)     =  0.00000000
alpha( 4) =  0.00000000
atom    1   Tr[ns(na)] =   8.02194
    eigenvalues: 
  0.596  0.596  0.938  0.941  0.941
    eigenvectors:
  0.000  0.000  1.000  0.000  0.000
  0.333  0.322  0.000  0.004  0.341
  0.322  0.333  0.000  0.341  0.004
  0.289  0.057  0.000  0.515  0.140
  0.057  0.289  0.000  0.140  0.515
    occupations:
  0.938  0.000  0.000  0.000  0.000
  0.000  0.715  0.000 -0.060  0.152
  0.000  0.000  0.715  0.152  0.060
  0.000 -0.060  0.152  0.822  0.000
  0.000  0.152  0.060  0.000  0.822
atom    2   Tr[ns(na)] =   8.02132
    eigenvalues: 
  0.595  0.595  0.938  0.941  0.941
    eigenvectors:
  0.000  0.000  1.000  0.000  0.000
  0.640  0.015  0.000  0.223  0.122
  0.015  0.640  0.000  0.122  0.223
  0.016  0.329  0.000  0.470  0.185
  0.329  0.016  0.000  0.185  0.470
    occupations:
  0.938  0.000  0.000  0.000  0.000
  0.000  0.715  0.000  0.060  0.153
  0.000  0.000  0.715  0.153 -0.060
  0.000  0.060  0.153  0.822  0.000
  0.000  0.153 -0.060  0.000  0.822
atom    3   Tr[ns(na)] =   3.80280
    eigenvalues: 
  0.355  0.355  0.384  0.403  0.403
    eigenvectors:
  0.000  0.000  1.000  0.000  0.000
  0.781  0.139  0.000  0.012  0.068
  0.139  0.781  0.000  0.068  0.012
  0.013  0.067  0.000  0.780  0.141
  0.067  0.013  0.000  0.141  0.780
    occupations:
  0.384  0.000  0.000  0.000  0.000
  0.000  0.359  0.000  0.000  0.013
  0.000  0.000  0.359  0.013  0.000
  0.000  0.000  0.013  0.399  0.000
  0.000  0.013  0.000  0.000  0.399
atom    4   Tr[ns(na)] =   3.80280
    eigenvalues: 
  0.355  0.355  0.384  0.403  0.403
    eigenvectors:
  0.000  0.000  1.000  0.000  0.000
  0.782  0.139  0.000  0.012  0.068
  0.139  0.782  0.000  0.068  0.012
  0.013  0.067  0.000  0.780  0.141
  0.067  0.013  0.000  0.141  0.780
    occupations:
  0.384  0.000  0.000  0.000  0.000
  0.000  0.359  0.000  0.000  0.013
  0.000  0.000  0.359  0.013  0.000
  0.000  0.000  0.013  0.399  0.000
  0.000  0.013  0.000  0.000  0.399
atom    5   Tr[ns(na)] =   5.43362
    eigenvalues: 
  0.846  0.929  0.941
    eigenvectors:
  0.340  0.000  0.660
  0.494  0.250  0.256
  0.166  0.750  0.085
    occupations:
  0.909  0.039  0.022
  0.039  0.891 -0.022
  0.022 -0.022  0.917
atom    6   Tr[ns(na)] =   5.43362
    eigenvalues: 
  0.846  0.929  0.941
    eigenvectors:
  0.340  0.000  0.660
  0.000  1.000  0.000
  0.660  0.000  0.340
    occupations:
  0.909  0.000 -0.045
  0.000  0.929  0.000
 -0.045  0.000  0.879
atom    7   Tr[ns(na)] =   5.43362
    eigenvalues: 
  0.846  0.929  0.941
    eigenvectors:
  0.340  0.000  0.660
  0.496  0.250  0.255
  0.164  0.750  0.085
    occupations:
  0.909 -0.039  0.022
 -0.039  0.891  0.022
  0.022  0.022  0.917
atom    8   Tr[ns(na)] =   5.43362
    eigenvalues: 
  0.846  0.929  0.941
    eigenvectors:
  0.340  0.000  0.660
  0.000  1.000  0.000
  0.660  0.000  0.340
    occupations:
  0.909  0.000 -0.045
  0.000  0.929  0.000
 -0.045  0.000  0.879
atom    9   Tr[ns(na)] =   5.43362
    eigenvalues: 
  0.846  0.929  0.941
    eigenvectors:
  0.340  0.000  0.660
  0.494  0.250  0.256
  0.166  0.750  0.085
    occupations:
  0.909  0.039  0.022
  0.039  0.891 -0.022
  0.022 -0.022  0.917
atom   10   Tr[ns(na)] =   5.43362
    eigenvalues: 
  0.846  0.929  0.941
    eigenvectors:
  0.340  0.000  0.660
  0.496  0.250  0.255
  0.164  0.750  0.085
    occupations:
  0.909 -0.039  0.022
 -0.039  0.891  0.022
  0.022  0.022  0.917
N of occupied +U levels =  56.2505609
 --- exit write_ns ---
 --- in v_hubbard ---
Hubbard energy    0.0000
 -------

     total cpu time spent up to now is      271.1 secs

     total energy              =    -538.33303427 Ry
     Harris-Foulkes estimate   =    -538.33302378 Ry
     estimated scf accuracy    <       0.00000006 Ry

     iteration # 16     ecut=    30.00 Ry     beta=0.20
     Davidson diagonalization with overlap
[...]
    eigenvectors:
  0.000  0.000  1.000  0.000  0.000
  0.640  0.015  0.000  0.223  0.122
  0.015  0.640  0.000  0.122  0.223
  0.017  0.328  0.000  0.470  0.185
  0.328  0.017  0.000  0.185  0.470
    occupations:
  0.939  0.000  0.000  0.000  0.000
  0.000  0.714  0.000  0.060  0.153
  0.000  0.000  0.714  0.153 -0.060
  0.000  0.060  0.153  0.822  0.000
  0.000  0.153 -0.060  0.000  0.822
atom    3   Tr[ns(na)] =   3.80382
    eigenvalues: 
  0.356  0.356  0.384  0.403  0.403
    eigenvectors:
  0.000  0.000  1.000  0.000  0.000
  0.781  0.139  0.000  0.012  0.068
  0.139  0.781  0.000  0.068  0.012
  0.013  0.067  0.000  0.780  0.141
  0.067  0.013  0.000  0.141  0.780
    occupations:
  0.384  0.000  0.000  0.000  0.000
  0.000  0.359  0.000  0.000  0.013
  0.000  0.000  0.359  0.013  0.000
  0.000  0.000  0.013  0.400  0.000
  0.000  0.013  0.000  0.000  0.400
atom    4   Tr[ns(na)] =   3.80382
    eigenvalues: 
  0.356  0.356  0.384  0.403  0.403
    eigenvectors:
  0.000  0.000  1.000  0.000  0.000
  0.781  0.139  0.000  0.012  0.068
  0.139  0.781  0.000  0.068  0.012
  0.013  0.067  0.000  0.780  0.141
  0.067  0.013  0.000  0.141  0.780
    occupations:
  0.384  0.000  0.000  0.000  0.000
  0.000  0.359  0.000  0.000  0.013
  0.000  0.000  0.359  0.013  0.000
  0.000  0.000  0.013  0.400  0.000
  0.000  0.013  0.000  0.000  0.400
atom    5   Tr[ns(na)] =   5.43538
    eigenvalues: 
  0.847  0.930  0.941
    eigenvectors:
  0.340  0.000  0.660
  0.495  0.249  0.255
  0.165  0.751  0.085
    occupations:
  0.909  0.039  0.022
  0.039  0.892 -0.022
  0.022 -0.022  0.917
atom    6   Tr[ns(na)] =   5.43538
    eigenvalues: 
  0.847  0.930  0.941
    eigenvectors:
  0.340  0.000  0.660
  0.000  1.000  0.000
  0.660  0.000  0.340
    occupations:
  0.909  0.000 -0.045
  0.000  0.930  0.000
 -0.045  0.000  0.879
atom    7   Tr[ns(na)] =   5.43538
    eigenvalues: 
  0.847  0.930  0.941
    eigenvectors:
  0.340  0.000  0.660
  0.495  0.251  0.255
  0.165  0.749  0.085
    occupations:
  0.909 -0.039  0.022
 -0.039  0.892  0.022
  0.022  0.022  0.917
atom    8   Tr[ns(na)] =   5.43538
    eigenvalues: 
  0.847  0.930  0.941
    eigenvectors:
  0.340  0.000  0.660
  0.000  1.000  0.000
  0.660  0.000  0.340
    occupations:
  0.909  0.000 -0.045
  0.000  0.930  0.000
 -0.045  0.000  0.879
atom    9   Tr[ns(na)] =   5.43538
    eigenvalues: 
  0.847  0.930  0.941
    eigenvectors:
  0.340  0.000  0.660
  0.495  0.249  0.255
  0.165  0.751  0.085
    occupations:
  0.909  0.039  0.022
  0.039  0.892 -0.022
  0.022 -0.022  0.917
atom   10   Tr[ns(na)] =   5.43538
    eigenvalues: 
  0.847  0.930  0.941
    eigenvectors:
  0.340  0.000  0.660
  0.495  0.251  0.255
  0.165  0.749  0.085
    occupations:
  0.909 -0.039  0.022
 -0.039  0.892  0.022
  0.022  0.022  0.917
N of occupied +U levels =  56.2447252
 --- exit write_ns ---
 --- in v_hubbard ---
Hubbard energy    0.0882
 -------

     total cpu time spent up to now is      128.2 secs

     End of self-consistent calculation

          k = 0.0000 0.0000 0.0000 (  2175 PWs)   bands (ev):

   -19.7868 -19.6134  -6.5255  -5.8010  -5.8010  -5.7750  -5.7750  -5.4579
    -3.7371  -3.2513  -3.1710  -3.1710  -3.0115  -3.0115   5.1989   6.9736
     6.9736   7.5346   7.5346   7.7284   7.8616   7.8616   7.9207   9.3170
     9.6369   9.6369   9.8970   9.9452   9.9452  10.4872  10.4872  10.6985
    10.7008  10.7008  10.8444  11.5360  11.5360  12.1991  12.3161  12.3161
    14.7820  14.7820  15.4389  15.4389  16.2024  16.7946

     occupation numbers 
     0.0313   0.0313   0.0313   0.0313   0.0313   0.0313   0.0313   0.0313
     0.0313   0.0313   0.0313   0.0313   0.0313   0.0313   0.0313   0.0313
     0.0313   0.0313   0.0313   0.0313   0.0313   0.0313   0.0313   0.0313
     0.0313   0.0313   0.0312   0.0312   0.0312   0.0312   0.0312   0.0312
     0.0312   0.0312   0.0312   0.0309   0.0309   0.0150   0.0102   0.0102
     0.0000   0.0000   0.0000   0.0000   0.0000   0.0000

          k =-0.2471-0.1427 0.1027 (  2181 PWs)   bands (ev):

   -19.7588 -19.6359  -6.7055  -6.2629  -5.8979  -5.8091  -5.5754  -5.4408
    -3.5569  -3.3673  -2.9063  -2.8846  -2.8216  -2.7413   5.5649   6.8970
     7.0711   7.0783   7.3711   7.5388   7.5949   7.8587   7.9017   8.6438
     8.7408   9.3725   9.6851   9.8247   9.8755  10.0524  10.3984  10.4105
    11.0669  11.0986  11.1798  11.9035  11.9546  12.0155  12.3744  12.4333
    14.3272  14.3354  15.8262  16.0817  16.9798  17.2757

     occupation numbers 
     0.1875   0.1875   0.1875   0.1875   0.1875   0.1875   0.1875   0.1875
     0.1875   0.1875   0.1875   0.1875   0.1875   0.1875   0.1875   0.1875
     0.1875   0.1875   0.1875   0.1875   0.1875   0.1875   0.1875   0.1875
     0.1875   0.1875   0.1875   0.1875   0.1875   0.1875   0.1875   0.1875
     0.1875   0.1875   0.1875   0.1567   0.1478   0.1354   0.0481   0.0367
     0.0000   0.0000   0.0000   0.0000   0.0000   0.0000

          k = 0.4942 0.2853-0.2053 (  2202 PWs)   bands (ev):

   -19.6951 -19.6939  -6.7067  -6.6923  -5.9277  -5.9120  -5.4900  -5.4725
    -3.3559  -3.3554  -2.7654  -2.7641  -2.4923  -2.4901   6.1088   6.1098
     7.2553   7.2650   7.3241   7.3311   7.6949   7.6994   8.0256   8.0259
     8.2389   8.2426   9.5587   9.5691   9.8952   9.9040  10.3021  10.3144
    11.4956  11.5068  11.5747  11.5860  11.7390  11.7495  13.3140  13.3347
    13.4016  13.4226  16.8448  16.8500  17.1411  17.1464

     occupation numbers 
     0.0938   0.0938   0.0938   0.0938   0.0938   0.0938   0.0938   0.0938
     0.0938   0.0938   0.0938   0.0938   0.0938   0.0938   0.0938   0.0938
     0.0938   0.0938   0.0938   0.0938   0.0938   0.0938   0.0938   0.0938
     0.0938   0.0938   0.0938   0.0938   0.0937   0.0937   0.0937   0.0937
     0.0930   0.0929   0.0921   0.0920   0.0880   0.0876   0.0000   0.0000
     0.0000   0.0000   0.0000   0.0000   0.0000   0.0000

          k =-0.2471 0.1427 0.2053 (  2195 PWs)   bands (ev):

   -19.7541 -19.6382  -6.8276  -6.1999  -6.0363  -5.7947  -5.6232  -5.4084
    -3.3838  -3.2439  -3.0759  -2.8662  -2.7891  -2.5417   5.5992   6.8721
     6.9715   7.1560   7.2713   7.5009   7.5053   7.9077   7.9102   8.7079
     8.9385   8.9407   9.3184   9.8188  10.0108  10.1211  10.2228  10.3204
    10.7239  11.4205  11.4456  11.5345  11.9535  12.0191  12.1919  12.7538
    13.6515  14.7968  16.0025  16.2042  17.0442  17.5440

     occupation numbers 
     0.1875   0.1875   0.1875   0.1875   0.1875   0.1875   0.1875   0.1875
     0.1875   0.1875   0.1875   0.1875   0.1875   0.1875   0.1875   0.1875
     0.1875   0.1875   0.1875   0.1875   0.1875   0.1875   0.1875   0.1875
     0.1875   0.1875   0.1875   0.1875   0.1875   0.1875   0.1875   0.1875
     0.1875   0.1867   0.1865   0.1852   0.1480   0.1346   0.0922   0.0046
     0.0000   0.0000   0.0000   0.0000   0.0000   0.0000

          k = 0.4942 0.5706-0.1027 (  2198 PWs)   bands (ev):

   -19.7137 -19.6726  -6.9285  -6.6221  -6.1002  -5.8606  -5.4720  -5.3340
    -3.2803  -3.2331  -2.8561  -2.6873  -2.5084  -2.3660   5.9350   6.3060
     6.9212   7.0744   7.2606   7.3662   7.5893   7.8411   7.9732   8.1240
     8.3919   8.9396   9.1952   9.3789   9.6905   9.8420   9.9956  10.3850
    11.1322  11.5700  11.6534  11.7271  11.8553  11.8796  12.3568  12.7587
    13.4407  14.3743  16.9152  17.1260  17.3218  18.0263

     occupation numbers 
     0.1875   0.1875   0.1875   0.1875   0.1875   0.1875   0.1875   0.1875
     0.1875   0.1875   0.1875   0.1875   0.1875   0.1875   0.1875   0.1875
     0.1875   0.1875   0.1875   0.1875   0.1875   0.1875   0.1875   0.1875
     0.1875   0.1875   0.1875   0.1875   0.1875   0.1875   0.1875   0.1875
     0.1875   0.1844   0.1814   0.1770   0.1638   0.1604   0.0519   0.0044
     0.0000   0.0000   0.0000   0.0000   0.0000   0.0000

          k = 0.2471 0.4280 0.0000 (  2203 PWs)   bands (ev):

   -19.7234 -19.6653  -6.8239  -6.6099  -6.0250  -5.9431  -5.3969  -5.3213
    -3.4845  -3.2753  -2.7809  -2.6914  -2.5475  -2.5362   5.9095   6.3477
     7.1230   7.1714   7.2645   7.3518   7.4839   7.7631   7.8622   8.2257
     8.4628   8.9617   9.4475   9.5025   9.7994   9.8179  10.0883  10.3885
    11.4292  11.4377  11.4677  11.6861  11.6967  11.9744  12.3042  13.3401
    13.4084  14.1702  16.4474  17.0037  17.4301  17.9349

     occupation numbers 
     0.1875   0.1875   0.1875   0.1875   0.1875   0.1875   0.1875   0.1875
     0.1875   0.1875   0.1875   0.1875   0.1875   0.1875   0.1875   0.1875
     0.1875   0.1875   0.1875   0.1875   0.1875   0.1875   0.1875   0.1875
     0.1875   0.1875   0.1875   0.1875   0.1875   0.1875   0.1875   0.1875
     0.1867   0.1866   0.1863   0.1797   0.1790   0.1440   0.0639   0.0000
     0.0000   0.0000   0.0000   0.0000   0.0000   0.0000

          k = 0.4942-0.2853-0.4107 (  2202 PWs)   bands (ev):

   -19.7210 -19.6626  -7.1358  -6.4337  -6.2184  -5.9222  -5.5056  -5.2335
    -3.1700  -3.1104  -3.0201  -2.6332  -2.4625  -2.2037   5.8339   6.3540
     6.4971   6.9666   7.1651   7.2728   7.9254   7.9519   8.1754   8.3316
     8.6177   8.6240   8.6727   9.4364   9.6928  10.0553  10.0927  10.4630
    10.6907  11.3259  11.5928  11.7788  11.8834  11.9941  12.0885  12.4766
    13.3408  14.8087  17.0514  17.2764  17.5302  17.6158

     occupation numbers 
     0.0938   0.0938   0.0938   0.0938   0.0938   0.0938   0.0938   0.0938
     0.0938   0.0938   0.0938   0.0938   0.0938   0.0938   0.0938   0.0938
     0.0938   0.0938   0.0938   0.0938   0.0938   0.0938   0.0938   0.0938
     0.0938   0.0938   0.0938   0.0938   0.0938   0.0937   0.0937   0.0937
     0.0937   0.0936   0.0919   0.0863   0.0799   0.0700   0.0592   0.0147
     0.0000   0.0000   0.0000   0.0000   0.0000   0.0000

          k = 0.0000 0.0000 0.3080 (  2187 PWs)   bands (ev):

   -19.7585 -19.6357  -6.5934  -5.9543  -5.8897  -5.8897  -5.7995  -5.7995
    -3.1771  -3.0794  -3.0794  -2.9513  -2.8756  -2.8756   5.6177   7.0672
     7.0672   7.1570   7.4613   7.4613   7.5591   7.8895   7.8895   8.8918
     8.8918   9.4595   9.4613   9.6881   9.6881   9.9025  10.1590  10.1590
    11.1828  11.1828  11.2446  11.9167  11.9167  12.0276  12.3563  12.3563
    14.2886  14.2886  15.9207  15.9207  16.8854  17.4900

     occupation numbers 
     0.0625   0.0625   0.0625   0.0625   0.0625   0.0625   0.0625   0.0625
     0.0625   0.0625   0.0625   0.0625   0.0625   0.0625   0.0625   0.0625
     0.0625   0.0625   0.0625   0.0625   0.0625   0.0625   0.0625   0.0625
     0.0625   0.0625   0.0625   0.0625   0.0625   0.0625   0.0625   0.0625
     0.0625   0.0625   0.0625   0.0515   0.0515   0.0443   0.0173   0.0173
     0.0000   0.0000   0.0000   0.0000   0.0000   0.0000

          k = 0.7412 0.4280 0.0000 (  2204 PWs)   bands (ev):

   -19.7231 -19.6651  -6.7090  -6.5733  -6.1160  -5.7992  -5.6320  -5.5069
    -3.1448  -3.0672  -3.0274  -2.6567  -2.6349  -2.5625   5.9501   6.5301
     7.1345   7.2406   7.2640   7.3765   7.4725   7.7029   8.0456   8.1822
     8.4906   8.8667   9.5025   9.5153   9.6360   9.7058   9.8818  10.2415
    11.4265  11.4390  11.5362  11.7163  11.7430  11.9056  12.3147  13.2649
    13.3241  14.1934  16.7007  16.7329  17.5986  17.8053

     occupation numbers 
     0.1875   0.1875   0.1875   0.1875   0.1875   0.1875   0.1875   0.1875
     0.1875   0.1875   0.1875   0.1875   0.1875   0.1875   0.1875   0.1875
     0.1875   0.1875   0.1875   0.1875   0.1875   0.1875   0.1875   0.1875
     0.1875   0.1875   0.1875   0.1875   0.1875   0.1875   0.1875   0.1875
     0.1867   0.1866   0.1852   0.1778   0.1758   0.1564   0.0614   0.0000
     0.0000   0.0000   0.0000   0.0000   0.0000   0.0000

          k = 0.4942 0.2853 0.1027 (  2211 PWs)   bands (ev):

   -19.7137 -19.6726  -6.9448  -6.5185  -6.2950  -5.6567  -5.5940  -5.3064
    -3.2935  -3.1474  -3.0061  -2.5855  -2.5411  -2.3586   5.9659   6.2731
     6.8798   7.0641   7.2462   7.3160   7.6084   7.9140   8.0213   8.0722
     8.4303   9.0669   9.1927   9.4300   9.5737   9.6984  10.0464  10.4084
    11.1463  11.6031  11.7272  11.7356  11.7936  11.8133  12.3087  12.7765
    13.4859  14.3559  16.8960  16.9442  17.5929  17.9400

     occupation numbers 
     0.1875   0.1875   0.1875   0.1875   0.1875   0.1875   0.1875   0.1875
     0.1875   0.1875   0.1875   0.1875   0.1875   0.1875   0.1875   0.1875
     0.1875   0.1875   0.1875   0.1875   0.1875   0.1875   0.1875   0.1875
     0.1875   0.1875   0.1875   0.1875   0.1875   0.1875   0.1875   0.1875
     0.1875   0.1834   0.1770   0.1764   0.1712   0.1690   0.0628   0.0038
     0.0000   0.0000   0.0000   0.0000   0.0000   0.0000

          k = 0.7412-0.4280-0.3080 (  2210 PWs)   bands (ev):

   -19.7135 -19.6723  -6.8800  -6.4249  -6.2729  -5.7695  -5.7195  -5.4340
    -3.0494  -3.0279  -2.9454  -2.7095  -2.6001  -2.4088   6.0242   6.4178
     6.9720   7.0514   7.2945   7.2964   7.6293   7.9342   8.0703   8.1018
     8.4073   9.0362   9.0507   9.5430   9.5699   9.6137   9.6879  10.2439
    11.2013  11.6238  11.7141  11.7256  11.8371  11.8773  12.2671  12.7244
    13.4342  14.3253  17.0714  17.0777  17.5611  17.9138

     occupation numbers 
     0.1875   0.1875   0.1875   0.1875   0.1875   0.1875   0.1875   0.1875
     0.1875   0.1875   0.1875   0.1875   0.1875   0.1875   0.1875   0.1875
     0.1875   0.1875   0.1875   0.1875   0.1875   0.1875   0.1875   0.1875
     0.1875   0.1875   0.1875   0.1875   0.1875   0.1875   0.1875   0.1875
     0.1874   0.1827   0.1779   0.1771   0.1662   0.1608   0.0730   0.0058
     0.0000   0.0000   0.0000   0.0000   0.0000   0.0000

          k = 0.4942-0.5706-0.2053 (  2206 PWs)   bands (ev):

   -19.6920 -19.6919  -6.8629  -6.8436  -6.0115  -6.0105  -5.3822  -5.3761
    -3.1346  -3.1337  -2.7924  -2.7911  -2.3661  -2.3629   6.1202   6.1300
     7.0501   7.0550   7.1830   7.1848   7.4585   7.4596   8.2531   8.2613
     8.8244   8.8256   9.1031   9.1041   9.5780   9.5790  10.1304  10.1305
    11.4128  11.4138  11.6099  11.6153  11.8790  11.8802  12.3402  12.3431
    14.0187  14.0239  17.4404  17.4411  17.8772  17.8796

     occupation numbers 
     0.1875   0.1875   0.1875   0.1875   0.1875   0.1875   0.1875   0.1875
     0.1875   0.1875   0.1875   0.1875   0.1875   0.1875   0.1875   0.1875
     0.1875   0.1875   0.1875   0.1875   0.1875   0.1875   0.1875   0.1875
     0.1875   0.1875   0.1875   0.1875   0.1875   0.1875   0.1875   0.1875
     0.1868   0.1868   0.1832   0.1830   0.1605   0.1603   0.0556   0.0549
     0.0000   0.0000   0.0000   0.0000   0.0000   0.0000

          k = 0.0000 0.0000-0.6160 (  2186 PWs)   bands (ev):

   -19.6947 -19.6934  -6.4935  -6.4757  -5.9079  -5.9079  -5.8915  -5.8915
    -2.8653  -2.8653  -2.8636  -2.8636  -2.6934  -2.6932   6.3285   6.3322
     7.2659   7.2659   7.2746   7.2746   7.8906   7.8976   8.1502   8.1502
     8.1526   8.1526   9.6706   9.6706   9.6817   9.6817   9.7322   9.7451
    11.6263  11.6350  11.6741  11.6741  11.6852  11.6852  13.2565  13.2565
    13.2774  13.2774  17.1267  17.1267  17.1297  17.1297

     occupation numbers 
     0.0313   0.0313   0.0313   0.0313   0.0313   0.0313   0.0313   0.0313
     0.0313   0.0313   0.0313   0.0313   0.0313   0.0313   0.0313   0.0313
     0.0313   0.0313   0.0313   0.0313   0.0313   0.0313   0.0313   0.0313
     0.0313   0.0313   0.0313   0.0313   0.0313   0.0313   0.0313   0.0313
     0.0304   0.0304   0.0301   0.0301   0.0300   0.0300   0.0000   0.0000
     0.0000   0.0000   0.0000   0.0000   0.0000   0.0000

          k = 0.4942-0.5706 0.1027 (  2198 PWs)   bands (ev):

   -19.7137 -19.6726  -6.9284  -6.6192  -6.1043  -5.8639  -5.4714  -5.3296
    -3.2805  -3.2331  -2.8571  -2.6869  -2.5090  -2.3651   5.9358   6.3038
     6.9228   7.0729   7.2589   7.3654   7.5916   7.8427   7.9719   8.1278
     8.3920   8.9422   9.1904   9.3775   9.6894   9.8422   9.9957  10.3871
    11.1320  11.5671  11.6581  11.7261  11.8571  11.8770  12.3559  12.7591
    13.4408  14.3739  16.9173  17.1231  17.3224  18.0256

     occupation numbers 
     0.1875   0.1875   0.1875   0.1875   0.1875   0.1875   0.1875   0.1875
     0.1875   0.1875   0.1875   0.1875   0.1875   0.1875   0.1875   0.1875
     0.1875   0.1875   0.1875   0.1875   0.1875   0.1875   0.1875   0.1875
     0.1875   0.1875   0.1875   0.1875   0.1875   0.1875   0.1875   0.1875
     0.1875   0.1845   0.1812   0.1771   0.1636   0.1608   0.0521   0.0044
     0.0000   0.0000   0.0000   0.0000   0.0000   0.0000

     the Fermi energy is    12.1857 ev

!    total energy              =    -538.24471531 Ry
     Harris-Foulkes estimate   =    -538.24471232 Ry
     estimated scf accuracy    <          6.2E-09 Ry

     The total energy is the sum of the following terms:

     one-electron contribution =     -32.87329445 Ry
     hartree contribution      =      83.58074789 Ry
     xc contribution           =    -199.55096991 Ry
     ewald contribution        =    -389.44315552 Ry
     Hubbard energy            =       0.08823338 Ry
     smearing contrib. (-TS)   =      -0.04627670 Ry

     convergence has been achieved in   8 iterations

     init_run     :      7.53s CPU      7.66s WALL (       1 calls)
     electrons    :    118.67s CPU    120.12s WALL (       1 calls)

     Called by init_run:
     wfcinit      :      0.00s CPU      0.00s WALL (       1 calls)
     potinit      :      0.29s CPU      0.31s WALL (       1 calls)

     Called by electrons:
     c_bands      :     78.89s CPU     79.62s WALL (       8 calls)
     sum_band     :     22.97s CPU     23.12s WALL (       8 calls)
     v_of_rho     :      2.23s CPU      2.25s WALL (       9 calls)
     v_h          :      0.11s CPU      0.11s WALL (       9 calls)
     v_xc         :      2.12s CPU      2.13s WALL (       9 calls)
     newd         :     16.18s CPU     16.24s WALL (       9 calls)
     mix_rho      :      0.19s CPU      0.19s WALL (       8 calls)

     Called by c_bands:
     init_us_2    :      0.77s CPU      0.78s WALL (     224 calls)
     cegterg      :     76.71s CPU     77.33s WALL (     112 calls)

     Called by sum_band:
     sum_band:bec :      0.09s CPU      0.08s WALL (     112 calls)
     addusdens    :     10.46s CPU     10.48s WALL (       8 calls)

     Called by *egterg:
     h_psi        :     56.04s CPU     56.53s WALL (     544 calls)
     s_psi        :      3.17s CPU      3.18s WALL (     544 calls)
     g_psi        :      0.27s CPU      0.27s WALL (     432 calls)
     cdiaghg      :      6.78s CPU      6.80s WALL (     530 calls)
     cegterg:over :      3.94s CPU      3.96s WALL (     432 calls)
     cegterg:upda :      2.59s CPU      2.59s WALL (     432 calls)
     cegterg:last :      1.58s CPU      1.58s WALL (     126 calls)

     Called by h_psi:
     h_psi:vloc   :     45.42s CPU     45.76s WALL (     544 calls)
     h_psi:vnl    :      6.62s CPU      6.67s WALL (     544 calls)
     add_vuspsi   :      3.18s CPU      3.20s WALL (     544 calls)
     vhpsi        :      3.92s CPU      3.98s WALL (     544 calls)

     General routines
     calbec       :      7.26s CPU      7.35s WALL (    1312 calls)
     fft          :      1.71s CPU      1.79s WALL (     139 calls)
     ffts         :      0.04s CPU      0.09s WALL (      17 calls)
     fftw         :     44.05s CPU     44.44s WALL (   31600 calls)
     interpolate  :      0.24s CPU      0.35s WALL (      17 calls)
     davcio       :      0.00s CPU      0.20s WALL (     238 calls)

     Parallel routines
     fft_scatter  :     12.80s CPU     13.23s WALL (   31756 calls)
     Hubbard U routines
     new_ns       :      0.66s CPU      0.76s WALL (       8 calls)
     vhpsi        :      3.92s CPU      3.98s WALL (     544 calls)

     PWSCF        :  2m 6.64s CPU     2m 8.29s WALL


   This run was terminated on:   8: 2:57  11Nov2012            

=------------------------------------------------------------------------------=
   JOB DONE.
=------------------------------------------------------------------------------=
 
Job Ended on n18 at Sun Nov 11 08:02:58 EST 2012
 
