   JOB DONE.
=------------------------------------------------------------------------------=

     Program PWSCF v.5.0.1 starts on 11Nov2012 at  7:56:34 

     This program is part of the open-source Quantum ESPRESSO suite
     for quantum simulation of materials; please cite
         "P. Giannozzi et al., J. Phys.:Condens. Matter 21 395502 (2009);
          URL http://www.quantum-espresso.org", 
     in publications or presentations arising from this work. More details at
     http://www.quantum-espresso.org/quote.php

     Parallel version (MPI), running on     2 processors
     R & G space division:  proc/pool =    2

     Current dimensions of program PWSCF are:
     Max number of different atomic species (ntypx) = 10
     Max number of k-points (npk) =  40000
     Max angular momentum in pseudopotentials (lmaxx) =  3
     Reading input from CoLaO_U0_a5.in
               file Co.pbe-nd-rrkjus.UPF: wavefunction(s)  4S 3D renormalized
               file Co.pbe-nd-rrkjus.UPF: wavefunction(s)  4S 3D renormalized
               file O.pbe-rrkjus.UPF: wavefunction(s)  2S renormalized

     Subspace diagonalization in iterative solution of the eigenvalue problem:
     a serial algorithm will be used


     Parallelization info
     --------------------
     sticks:   dense  smooth     PW     G-vecs:    dense   smooth      PW
     Min        1112     444    131                34808     8786    1448
     Max        1113     445    132                34809     8787    1449
     Sum        2225     889    263                69617    17573    2897


     Title: 
     GGA + U, U = 1D-40, alpha = 0.050                                          


     bravais-lattice index     =            5
     lattice parameter (alat)  =      10.3292  a.u.
     unit-cell volume          =     793.0599 (a.u.)^3
     number of atoms/cell      =           10
     number of atomic types    =            4
     number of electrons       =        76.00
     number of Kohn-Sham states=           46
     kinetic-energy cutoff     =      30.0000  Ry
     charge density cutoff     =     300.0000  Ry
     convergence threshold     =      1.0E-08
     mixing beta               =       0.2000
     number of iterations used =            8  plain     mixing
     Exchange-correlation      =  SLA  PW   PBE  PBE ( 1 4 3 4 0)
     EXX-fraction              =        0.00

     celldm(1)=  10.329242  celldm(2)=   0.000000  celldm(3)=   0.000000
     celldm(4)=   0.488100  celldm(5)=   0.000000  celldm(6)=   0.000000

     crystal axes: (cart. coord. in units of alat)
               a(1) = (   0.505915  -0.292090   0.811624 )  
               a(2) = (   0.000000   0.584180   0.811624 )  
               a(3) = (  -0.505915  -0.292090   0.811624 )  

     reciprocal axes: (cart. coord. in units 2 pi/alat)
               b(1) = (  0.988308 -0.570600  0.410699 )  
               b(2) = (  0.000000  1.141200  0.410699 )  
               b(3) = ( -0.988308 -0.570600  0.410699 )  


     PseudoPot. # 1 for Co read from file:
     /home/mcurnan/dft-course/Project1/example_LaCoO3/Co.pbe-nd-rrkjus.UPF
     MD5 check sum: 3e47a84addf5e975e0edeaeee2a73f59
     Pseudo is Ultrasoft + core correction, Zval =  9.0
     Generated by new atomic code, or converted to UPF format
     Using radial grid of  961 points,  6 beta functions with: 
                l(1) =   0
                l(2) =   0
                l(3) =   1
                l(4) =   1
                l(5) =   2
                l(6) =   2
     Q(r) pseudized with 0 coefficients 


     PseudoPot. # 2 for Co read from file:
     /home/mcurnan/dft-course/Project1/example_LaCoO3/Co.pbe-nd-rrkjus.UPF
     MD5 check sum: 3e47a84addf5e975e0edeaeee2a73f59
     Pseudo is Ultrasoft + core correction, Zval =  9.0
     Generated by new atomic code, or converted to UPF format
     Using radial grid of  961 points,  6 beta functions with: 
                l(1) =   0
                l(2) =   0
                l(3) =   1
                l(4) =   1
                l(5) =   2
                l(6) =   2
     Q(r) pseudized with 0 coefficients 


     PseudoPot. # 3 for La read from file:
     /home/mcurnan/dft-course/Project1/example_LaCoO3/La.pbe-nsp-van.UPF
     MD5 check sum: b2f11743f52dde65f77d1302becd7929
     Pseudo is Ultrasoft + core correction, Zval = 11.0
     Generated by new atomic code, or converted to UPF format
     Using radial grid of  907 points,  6 beta functions with: 
                l(1) =   0
                l(2) =   0
                l(3) =   1
                l(4) =   1
                l(5) =   2
                l(6) =   2
     Q(r) pseudized with  6 coefficients,  rinner =    1.200   1.200   1.200
                                                       1.200   1.200

     PseudoPot. # 4 for O  read from file:
     /home/mcurnan/dft-course/Project1/example_LaCoO3/O.pbe-rrkjus.UPF
     MD5 check sum: 390ba29e75625707450f3bd3f0eb6be9
     Pseudo is Ultrasoft, Zval =  6.0
     Generated by new atomic code, or converted to UPF format
     Using radial grid of 1269 points,  4 beta functions with: 
                l(1) =   0
                l(2) =   0
                l(3) =   1
                l(4) =   1
     Q(r) pseudized with 0 coefficients 


     atomic species   valence    mass     pseudopotential
        Co1            9.00     1.00000     Co( 1.00)
        Co2            9.00     1.00000     Co( 1.00)
        La1           11.00     1.00000     La( 1.00)
        O1             6.00     1.00000     O ( 1.00)
 -----
     simplified LDA+U calculation, Hubbard_lmax = 2
     atomic species  L   Hubbard U  Hubbard alpha
        Co1          2    0.000000    0.050000
        Co2          2    0.000000    0.000000
        La1          2    0.000000    0.000000
        O1           1    0.000000    0.000000
 -----

      6 Sym. Ops., with inversion, found


                                    s                        frac. trans.

      isym =  1     identity                                     

 cryst.   s( 1) = (     1          0          0      )
                  (     0          1          0      )
                  (     0          0          1      )

 cart.    s( 1) = (  1.0000000  0.0000000  0.0000000 )
                  (  0.0000000  1.0000000  0.0000000 )
                  (  0.0000000  0.0000000  1.0000000 )


      isym =  2     120 deg rotation - cryst. axis [0,0,1]       

 cryst.   s( 2) = (     0          1          0      )
                  (     0          0          1      )
                  (     1          0          0      )

 cart.    s( 2) = ( -0.5000000 -0.8660254  0.0000000 )
                  (  0.8660254 -0.5000000  0.0000000 )
                  (  0.0000000  0.0000000  1.0000000 )


      isym =  3     120 deg rotation - cryst. axis [0,0,-1]      

 cryst.   s( 3) = (     0          0          1      )
                  (     1          0          0      )
                  (     0          1          0      )

 cart.    s( 3) = ( -0.5000000  0.8660254  0.0000000 )
                  ( -0.8660254 -0.5000000  0.0000000 )
                  (  0.0000000  0.0000000  1.0000000 )


      isym =  4     inversion                                    

 cryst.   s( 4) = (    -1          0          0      )
                  (     0         -1          0      )
                  (     0          0         -1      )

 cart.    s( 4) = ( -1.0000000  0.0000000  0.0000000 )
                  (  0.0000000 -1.0000000  0.0000000 )
                  (  0.0000000  0.0000000 -1.0000000 )


      isym =  5     inv. 180 deg rotation - cart. axis [0,1,0]   

 cryst.   s( 5) = (     0         -1          0      )
                  (     0          0         -1      )
                  (    -1          0          0      )

 cart.    s( 5) = (  0.5000000  0.8660254  0.0000000 )
                  ( -0.8660254  0.5000000  0.0000000 )
                  (  0.0000000  0.0000000 -1.0000000 )


      isym =  6     inv. 180 deg rotation - cart. axis [1,0,0]   

 cryst.   s( 6) = (     0          0         -1      )
                  (    -1          0          0      )
                  (     0         -1          0      )

 cart.    s( 6) = (  0.5000000 -0.8660254  0.0000000 )
                  (  0.8660254  0.5000000  0.0000000 )
                  (  0.0000000  0.0000000 -1.0000000 )


     point group S_6 (-3)   
     there are  6 classes
     the character table:

       E     C3    C3^2  i     S6^5  S6   
A_g    1.00  1.00  1.00  1.00  1.00  1.00
E_g    1.00 -0.50 -0.50  1.00 -0.50 -0.50
E_g*   1.00 -0.50 -0.50  1.00 -0.50 -0.50
A_u    1.00  1.00  1.00 -1.00 -1.00 -1.00
E_u    1.00 -0.50 -0.50 -1.00  0.50  0.50
E_u*   1.00 -0.50 -0.50 -1.00  0.50  0.50
     imaginary part
A_g    0.00  0.00  0.00  0.00  0.00  0.00
E_g    0.00  0.87 -0.87  0.00  0.87 -0.87
E_g*   0.00 -0.87  0.87  0.00 -0.87  0.87
A_u    0.00  0.00  0.00  0.00  0.00  0.00
E_u    0.00  0.87 -0.87  0.00 -0.87  0.87
E_u*   0.00 -0.87  0.87  0.00  0.87 -0.87

     the symmetry operations in each class:
     E        1
     C3       2
     C3^2     3
     i        4
     S6^5     5
     S6       6

   Cartesian axes

     site n.     atom                  positions (alat units)
         1           Co1 tau(   1) = (   0.0000000   0.0000000   0.0000000  )
         2           Co2 tau(   2) = (   0.0000000   0.0000000   1.2174358  )
         3           La1 tau(   3) = (   0.0000000   0.0000000   0.6087179  )
         4           La1 tau(   4) = (   0.0000000   0.0000000   1.8261537  )
         5           O1  tau(   5) = (  -0.2839701  -0.0933228   1.0141240  )
         6           O1  tau(   6) = (   0.0611651   0.2925867   1.0141240  )
         7           O1  tau(   7) = (   0.2228050  -0.1992639   1.0141240  )
         8           O1  tau(   8) = (  -0.0611651  -0.2925867   1.4207476  )
         9           O1  tau(   9) = (   0.2839701   0.0933228   1.4207476  )
        10           O1  tau(  10) = (  -0.2228050   0.1992639   1.4207476  )

   Crystallographic axes

     site n.     atom                  positions (cryst. coord.)
         1           Co1 tau(   1) = (  0.0000000  0.0000000  0.0000000  )
         2           Co2 tau(   2) = (  0.5000000  0.5000000  0.5000000  )
         3           La1 tau(   3) = (  0.2500000  0.2500000  0.2500000  )
         4           La1 tau(   4) = (  0.7500000  0.7500000  0.7500000  )
         5           O1  tau(   5) = (  0.1891000  0.3100000  0.7504000  )
         6           O1  tau(   6) = (  0.3100000  0.7504000  0.1891000  )
         7           O1  tau(   7) = (  0.7504000  0.1891000  0.3100000  )
         8           O1  tau(   8) = (  0.6900000  0.2496000  0.8109000  )
         9           O1  tau(   9) = (  0.8109000  0.6900000  0.2496000  )
        10           O1  tau(  10) = (  0.2496000  0.8109000  0.6900000  )

     number of k points=    14  gaussian smearing, width (Ry)=  0.0300
                       cart. coord. in units 2pi/alat
        k(    1) = (   0.0000000   0.0000000   0.0000000), wk =   0.0312500
        k(    2) = (  -0.2470771  -0.1426500   0.1026748), wk =   0.1875000
        k(    3) = (   0.4941541   0.2853000  -0.2053496), wk =   0.0937500
        k(    4) = (  -0.2470771   0.1426500   0.2053496), wk =   0.1875000
        k(    5) = (   0.4941541   0.5706001  -0.1026748), wk =   0.1875000
        k(    6) = (   0.2470771   0.4279500   0.0000000), wk =   0.1875000
        k(    7) = (   0.4941541  -0.2853000  -0.4106993), wk =   0.0937500
        k(    8) = (   0.0000000   0.0000000   0.3080244), wk =   0.0625000
        k(    9) = (   0.7412312   0.4279500   0.0000000), wk =   0.1875000
        k(   10) = (   0.4941541   0.2853000   0.1026748), wk =   0.1875000
        k(   11) = (   0.7412312  -0.4279500  -0.3080244), wk =   0.1875000
        k(   12) = (   0.4941541  -0.5706001  -0.2053496), wk =   0.1875000
        k(   13) = (   0.0000000   0.0000000  -0.6160489), wk =   0.0312500
        k(   14) = (   0.4941541  -0.5706001   0.1026748), wk =   0.1875000

                       cryst. coord.
        k(    1) = (   0.0000000   0.0000000   0.0000000), wk =   0.0312500
        k(    2) = (   0.0000000   0.0000000   0.2500000), wk =   0.1875000
        k(    3) = (   0.0000000   0.0000000  -0.5000000), wk =   0.0937500
        k(    4) = (   0.0000000   0.2500000   0.2500000), wk =   0.1875000
        k(    5) = (   0.0000000   0.2500000  -0.5000000), wk =   0.1875000
        k(    6) = (   0.0000000   0.2500000  -0.2500000), wk =   0.1875000
        k(    7) = (   0.0000000  -0.5000000  -0.5000000), wk =   0.0937500
        k(    8) = (   0.2500000   0.2500000   0.2500000), wk =   0.0625000
        k(    9) = (   0.2500000   0.2500000  -0.5000000), wk =   0.1875000
        k(   10) = (   0.2500000   0.2500000  -0.2500000), wk =   0.1875000
        k(   11) = (   0.2500000  -0.5000000  -0.5000000), wk =   0.1875000
        k(   12) = (   0.2500000  -0.5000000  -0.2500000), wk =   0.1875000
        k(   13) = (  -0.5000000  -0.5000000  -0.5000000), wk =   0.0312500
        k(   14) = (   0.5000000  -0.2500000   0.0000000), wk =   0.1875000

     Dense  grid:    69617 G-vectors     FFT dimensions: (  60,  60,  60)

     Smooth grid:    17573 G-vectors     FFT dimensions: (  40,  40,  40)

     Largest allocated arrays     est. size (Mb)     dimensions
        Kohn-Sham Wavefunctions         0.78 Mb     (   1117,   46)
        Atomic wavefunctions            1.06 Mb     (   1117,   62)
        NL pseudopotentials             2.05 Mb     (   1117,  120)
        Each V/rho on FFT grid          1.65 Mb     ( 108000)
        Each G-vector array             0.27 Mb     (  34808)
        G-vector shells                 0.04 Mb     (   4682)
     Largest temporary arrays     est. size (Mb)     dimensions
        Auxiliary wavefunctions         3.14 Mb     (   1117,  184)
        Each subspace H/S matrix        0.52 Mb     ( 184, 184)
        Each <psi_i|beta_j> matrix      0.08 Mb     (    120,   46)
        Arrays for rho mixing          13.18 Mb     ( 108000,   8)

     Check: negative/imaginary core charge=   -0.000028    0.000000

     The initial density is read from file :
     /home/mcurnan/dft-course/Project1/example_LaCoO3/0/Co/alpha/CoLaO_U0.save/charge-density.dat

 --- in v_hubbard ---
Hubbard energy    0.0295
 -------
     Number of +U iterations with fixed ns =  0
     Starting occupations:
 --- enter write_ns ---
 LDA+U parameters:
U( 1)     =  0.00000000
alpha( 1) =  0.05000000
U( 2)     =  0.00000000
alpha( 2) =  0.00000000
U( 3)     =  0.00000000
alpha( 3) =  0.00000000
U( 4)     =  0.00000000
alpha( 4) =  0.00000000
atom    1   Tr[ns(na)] =   8.02206
    eigenvalues: 
  0.596  0.596  0.938  0.941  0.941
    eigenvectors:
  0.000  0.000  1.000  0.000  0.000
  0.333  0.322  0.000  0.004  0.341
  0.322  0.333  0.000  0.341  0.004
  0.289  0.056  0.000  0.515  0.140
  0.056  0.289  0.000  0.140  0.515
    occupations:
  0.938  0.000  0.000  0.000  0.000
  0.000  0.715  0.000 -0.060  0.152
  0.000  0.000  0.715  0.152  0.060
  0.000 -0.060  0.152  0.822  0.000
  0.000  0.152  0.060  0.000  0.822
atom    2   Tr[ns(na)] =   8.02145
    eigenvalues: 
  0.595  0.595  0.938  0.941  0.941
    eigenvectors:
  0.000  0.000  1.000  0.000  0.000
  0.640  0.015  0.000  0.223  0.122
  0.015  0.640  0.000  0.122  0.223
  0.017  0.329  0.000  0.470  0.185
  0.329  0.017  0.000  0.185  0.470
    occupations:
  0.938  0.000  0.000  0.000  0.000
  0.000  0.715  0.000  0.060  0.153
  0.000  0.000  0.715  0.153 -0.060
  0.000  0.060  0.153  0.822  0.000
  0.000  0.153 -0.060  0.000  0.822
atom    3   Tr[ns(na)] =   3.80284
    eigenvalues: 
  0.355  0.355  0.384  0.403  0.403
    eigenvectors:
  0.000  0.000  1.000  0.000  0.000
  0.781  0.139  0.000  0.012  0.068
  0.139  0.781  0.000  0.068  0.012
  0.013  0.067  0.000  0.780  0.141
  0.067  0.013  0.000  0.141  0.780
    occupations:
  0.384  0.000  0.000  0.000  0.000
  0.000  0.359  0.000  0.000  0.013
  0.000  0.000  0.359  0.013  0.000
  0.000  0.000  0.013  0.399  0.000
  0.000  0.013  0.000  0.000  0.399
atom    4   Tr[ns(na)] =   3.80284
    eigenvalues: 
  0.355  0.355  0.384  0.403  0.403
    eigenvectors:
  0.000  0.000  1.000  0.000  0.000
  0.782  0.139  0.000  0.012  0.068
  0.139  0.782  0.000  0.068  0.012
  0.012  0.067  0.000  0.780  0.141
  0.067  0.012  0.000  0.141  0.780
    occupations:
  0.384  0.000  0.000  0.000  0.000
  0.000  0.359  0.000  0.000  0.013
  0.000  0.000  0.359  0.013  0.000
  0.000  0.000  0.013  0.399  0.000
  0.000  0.013  0.000  0.000  0.399
atom    5   Tr[ns(na)] =   5.43357
    eigenvalues: 
  0.846  0.929  0.941
    eigenvectors:
  0.340  0.000  0.660
  0.494  0.250  0.256
  0.166  0.750  0.085
    occupations:
  0.909  0.039  0.022
  0.039  0.891 -0.022
  0.022 -0.022  0.917
atom    6   Tr[ns(na)] =   5.43357
    eigenvalues: 
  0.846  0.929  0.941
    eigenvectors:
  0.340  0.000  0.660
  0.000  1.000  0.000
  0.660  0.000  0.340
    occupations:
  0.909  0.000 -0.045
  0.000  0.929  0.000
 -0.045  0.000  0.879
atom    7   Tr[ns(na)] =   5.43357
    eigenvalues: 
  0.846  0.929  0.941
    eigenvectors:
  0.340  0.000  0.660
  0.496  0.250  0.255
  0.164  0.750  0.086
    occupations:
  0.909 -0.039  0.022
 -0.039  0.891  0.022
  0.022  0.022  0.917
atom    8   Tr[ns(na)] =   5.43357
    eigenvalues: 
  0.846  0.929  0.941
    eigenvectors:
  0.340  0.000  0.660
  0.000  1.000  0.000
  0.660  0.000  0.340
    occupations:
  0.909  0.000 -0.045
  0.000  0.929  0.000
 -0.045  0.000  0.879
atom    9   Tr[ns(na)] =   5.43357
    eigenvalues: 
  0.846  0.929  0.941
    eigenvectors:
  0.340  0.000  0.660
  0.494  0.250  0.256
  0.166  0.750  0.085
    occupations:
  0.909  0.039  0.022
  0.039  0.891 -0.022
  0.022 -0.022  0.917
atom   10   Tr[ns(na)] =   5.43357
    eigenvalues: 
  0.846  0.929  0.941
    eigenvectors:
  0.340  0.000  0.660
  0.496  0.250  0.255
  0.164  0.750  0.086
    occupations:
  0.909 -0.039  0.022
 -0.039  0.891  0.022
  0.022  0.022  0.917
N of occupied +U levels =  56.2506062
 --- exit write_ns ---
 LDA+U Projector read from file 
     Starting wfc from file

     total cpu time spent up to now is        8.1 secs

     per-process dynamical memory:    46.9 Mb

     Self-consistent Calculation

     iteration #  1     ecut=    30.00 Ry     beta=0.20
     Davidson diagonalization with overlap
     c_bands:  1 eigenvalues not converged
     c_bands:  1 eigenvalues not converged
     c_bands:  1 eigenvalues not converged
     c_bands:  1 eigenvalues not converged
     c_bands:  1 eigenvalues not converged
     c_bands:  1 eigenvalues not converged
     c_bands:  1 eigenvalues not converged
     ethr =  1.00E-10,  avg # of iterations = 14.9
 --- enter write_ns ---
 LDA+U parameters:
U( 1)     =  0.00000000
alpha( 1) =  0.05000000
U( 2)     =  0.00000000
alpha( 2) =  0.00000000
U( 3)     =  0.00000000
alpha( 3) =  0.00000000
U( 4)     =  0.00000000
alpha( 4) =  0.00000000
atom    1   Tr[ns(na)] =   7.97967
    eigenvalues: 
  0.592  0.592  0.933  0.937  0.937
    eigenvectors:
  0.000  0.000  1.000  0.000  0.000
  0.332  0.323  0.000  0.004  0.341
  0.323  0.332  0.000  0.341  0.004
  0.288  0.057  0.000  0.514  0.141
  0.057  0.288  0.000  0.141  0.514
    occupations:
  0.933  0.000  0.000  0.000  0.000
  0.000  0.711  0.000 -0.060  0.153
  0.000  0.000  0.711  0.153  0.060
  0.000 -0.060  0.153  0.818  0.000
  0.000  0.153  0.060  0.000  0.818
atom    2   Tr[ns(na)] =   8.04650
    eigenvalues: 
  0.596  0.596  0.942  0.944  0.944
    eigenvectors:
  0.000  0.000  1.000  0.000  0.000
  0.641  0.014  0.000  0.224  0.121
  0.014  0.641  0.000  0.121  0.224
  0.018  0.327  0.000  0.471  0.184
  0.327  0.018  0.000  0.184  0.471
    occupations:
  0.942  0.000  0.000  0.000  0.000
  0.000  0.716  0.000  0.061  0.154
  0.000  0.000  0.716  0.154 -0.061
  0.000  0.061  0.154  0.824  0.000
  0.000  0.154 -0.061  0.000  0.824
atom    3   Tr[ns(na)] =   3.80331
    eigenvalues: 
  0.355  0.355  0.384  0.403  0.403
    eigenvectors:
  0.000  0.000  1.000  0.000  0.000
  0.782  0.139  0.000  0.012  0.068
  0.139  0.782  0.000  0.068  0.012
  0.012  0.067  0.000  0.780  0.141
  0.067  0.012  0.000  0.141  0.780
    occupations:
  0.384  0.000  0.000  0.000  0.000
  0.000  0.359  0.000  0.000  0.013
  0.000  0.000  0.359  0.013  0.000
  0.000  0.000  0.013  0.399  0.000
  0.000  0.013  0.000  0.000  0.399
atom    4   Tr[ns(na)] =   3.80331
    eigenvalues: 
  0.355  0.355  0.384  0.403  0.403
    eigenvectors:
  0.000  0.000  1.000  0.000  0.000
  0.782  0.139  0.000  0.012  0.068
  0.139  0.782  0.000  0.068  0.012
  0.012  0.067  0.000  0.780  0.141
  0.067  0.012  0.000  0.141  0.780
    occupations:
  0.384  0.000  0.000  0.000  0.000
  0.000  0.359  0.000  0.000  0.013
  0.000  0.000  0.359  0.013  0.000
  0.000  0.000  0.013  0.399  0.000
  0.000  0.013  0.000  0.000  0.399
atom    5   Tr[ns(na)] =   5.43583
    eigenvalues: 
  0.847  0.930  0.941
    eigenvectors:
  0.340  0.000  0.660
  0.496  0.248  0.256
  0.164  0.752  0.084
    occupations:
  0.909  0.039  0.022
  0.039  0.892 -0.022
  0.022 -0.022  0.917
atom    6   Tr[ns(na)] =   5.43583
    eigenvalues: 
  0.847  0.930  0.941
    eigenvectors:
  0.340  0.000  0.660
  0.000  1.000  0.000
  0.660  0.000  0.340
    occupations:
  0.909  0.000 -0.045
  0.000  0.930  0.000
 -0.045  0.000  0.879
atom    7   Tr[ns(na)] =   5.43583
    eigenvalues: 
  0.847  0.930  0.941
    eigenvectors:
  0.340  0.000  0.660
  0.494  0.252  0.254
  0.166  0.748  0.086
    occupations:
  0.909 -0.039  0.022
 -0.039  0.892  0.022
  0.022  0.022  0.917
atom    8   Tr[ns(na)] =   5.43583
    eigenvalues: 
  0.847  0.930  0.941
    eigenvectors:
  0.340  0.000  0.660
  0.000  1.000  0.000
  0.660  0.000  0.340
    occupations:
  0.909  0.000 -0.045
  0.000  0.930  0.000
 -0.045  0.000  0.879
atom    9   Tr[ns(na)] =   5.43583
    eigenvalues: 
  0.847  0.930  0.941
    eigenvectors:
  0.340  0.000  0.660
  0.496  0.248  0.256
  0.164  0.752  0.084
    occupations:
  0.909  0.039  0.022
  0.039  0.892 -0.022
  0.022 -0.022  0.917
atom   10   Tr[ns(na)] =   5.43583
    eigenvalues: 
  0.847  0.930  0.941
    eigenvectors:
  0.340  0.000  0.660
  0.494  0.252  0.254
  0.166  0.748  0.086
    occupations:
  0.909 -0.039  0.022
 -0.039  0.892  0.022
  0.022  0.022  0.917
N of occupied +U levels =  56.2477719
 --- exit write_ns ---
 --- in v_hubbard ---
Hubbard energy    0.0294
 -------

     total cpu time spent up to now is       34.1 secs

     total energy              =    -538.30296918 Ry
     Harris-Foulkes estimate   =    -538.30364959 Ry
     estimated scf accuracy    <       0.00196273 Ry

     iteration #  2     ecut=    30.00 Ry     beta=0.20
     Davidson diagonalization with overlap
     ethr =  2.58E-06,  avg # of iterations =  2.1
 --- enter write_ns ---
 LDA+U parameters:
U( 1)     =  0.00000000
alpha( 1) =  0.05000000
U( 2)     =  0.00000000
alpha( 2) =  0.00000000
U( 3)     =  0.00000000
alpha( 3) =  0.00000000
U( 4)     =  0.00000000
alpha( 4) =  0.00000000
atom    1   Tr[ns(na)] =   8.18167
    eigenvalues: 
  0.611  0.611  0.956  0.957  0.957
    eigenvectors:
  0.000  0.000  1.000  0.000  0.000
  0.337  0.318  0.000  0.002  0.343
  0.318  0.337  0.000  0.343  0.002
  0.293  0.052  0.000  0.518  0.137
  0.052  0.293  0.000  0.137  0.518
    occupations:
  0.956  0.000  0.000  0.000  0.000
  0.000  0.730  0.000 -0.064  0.152
  0.000  0.000  0.730  0.152  0.064
  0.000 -0.064  0.152  0.837  0.000
  0.000  0.152  0.064  0.000  0.837
atom    2   Tr[ns(na)] =   7.85366
    eigenvalues: 
  0.583  0.583  0.917  0.922  0.922
    eigenvectors:
  0.000  0.000  1.000  0.000  0.000
  0.633  0.022  0.000  0.215  0.130
  0.022  0.633  0.000  0.130  0.215
  0.010  0.335  0.000  0.470  0.185
  0.335  0.010  0.000  0.185  0.470
    occupations:
  0.917  0.000  0.000  0.000  0.000
  0.000  0.700  0.000  0.055  0.151
  0.000  0.000  0.700  0.151 -0.055
  0.000  0.055  0.151  0.805  0.000
  0.000  0.151 -0.055  0.000  0.805
atom    3   Tr[ns(na)] =   3.80348
    eigenvalues: 
  0.355  0.355  0.384  0.403  0.403
    eigenvectors:
  0.000  0.000  1.000  0.000  0.000
  0.781  0.139  0.000  0.011  0.068
  0.139  0.781  0.000  0.068  0.011
  0.013  0.066  0.000  0.780  0.141
  0.066  0.013  0.000  0.141  0.780
    occupations:
  0.384  0.000  0.000  0.000  0.000
  0.000  0.359  0.000  0.000  0.013
  0.000  0.000  0.359  0.013  0.000
  0.000  0.000  0.013  0.400  0.000
  0.000  0.013  0.000  0.000  0.400
atom    4   Tr[ns(na)] =   3.80348
    eigenvalues: 
  0.355  0.355  0.384  0.403  0.403
    eigenvectors:
  0.000  0.000  1.000  0.000  0.000
  0.781  0.139  0.000  0.011  0.068
  0.139  0.781  0.000  0.068  0.011
  0.013  0.066  0.000  0.780  0.141
  0.066  0.013  0.000  0.141  0.780
    occupations:
  0.384  0.000  0.000  0.000  0.000
  0.000  0.359  0.000  0.000  0.013
  0.000  0.000  0.359  0.013  0.000
  0.000  0.000  0.013  0.400  0.000
  0.000  0.013  0.000  0.000  0.400
atom    5   Tr[ns(na)] =   5.43393
    eigenvalues: 
  0.847  0.929  0.941
    eigenvectors:
  0.340  0.000  0.660
  0.487  0.261  0.253
  0.173  0.739  0.087
    occupations:
  0.909  0.038  0.023
  0.038  0.892 -0.022
  0.023 -0.022  0.916
atom    6   Tr[ns(na)] =   5.43393
    eigenvalues: 
  0.847  0.929  0.941
    eigenvectors:
  0.340  0.000  0.660
  0.000  1.000  0.000
  0.660  0.000  0.340
    occupations:
  0.909  0.001 -0.045
  0.001  0.929  0.001
 -0.045  0.001  0.879
atom    7   Tr[ns(na)] =   5.43393
    eigenvalues: 
  0.847  0.929  0.941
    eigenvectors:
  0.340  0.000  0.660
  0.503  0.239  0.257
  0.157  0.761  0.083
    occupations:
  0.909 -0.039  0.022
 -0.039  0.891  0.022
  0.022  0.022  0.917
atom    8   Tr[ns(na)] =   5.43393
    eigenvalues: 
  0.847  0.929  0.941
    eigenvectors:
  0.340  0.000  0.660
  0.000  1.000  0.000
  0.660  0.000  0.340
    occupations:
  0.909  0.001 -0.045
  0.001  0.929  0.001
 -0.045  0.001  0.879
atom    9   Tr[ns(na)] =   5.43393
    eigenvalues: 
  0.847  0.929  0.941
    eigenvectors:
  0.340  0.000  0.660
  0.487  0.261  0.253
  0.173  0.739  0.087
    occupations:
  0.909  0.038  0.023
  0.038  0.892 -0.022
  0.023 -0.022  0.916
atom   10   Tr[ns(na)] =   5.43393
    eigenvalues: 
  0.847  0.929  0.941
    eigenvectors:
  0.340  0.000  0.660
  0.503  0.239  0.257
  0.157  0.761  0.083
    occupations:
  0.909 -0.039  0.022
 -0.039  0.891  0.022
  0.022  0.022  0.917
N of occupied +U levels =  56.2458406
 --- exit write_ns ---
 --- in v_hubbard ---
Hubbard energy    0.0295
 -------

     total cpu time spent up to now is       47.1 secs

     total energy              =    -538.30193117 Ry
     Harris-Foulkes estimate   =    -538.30528186 Ry
     estimated scf accuracy    <       0.05679591 Ry

     iteration #  3     ecut=    30.00 Ry     beta=0.20
     Davidson diagonalization with overlap
     ethr =  2.58E-06,  avg # of iterations =  2.0
 --- enter write_ns ---
 LDA+U parameters:
U( 1)     =  0.00000000
alpha( 1) =  0.05000000
U( 2)     =  0.00000000
alpha( 2) =  0.00000000
U( 3)     =  0.00000000
alpha( 3) =  0.00000000
U( 4)     =  0.00000000
alpha( 4) =  0.00000000
atom    1   Tr[ns(na)] =   8.01679
    eigenvalues: 
  0.595  0.595  0.937  0.940  0.940
    eigenvectors:
  0.000  0.000  1.000  0.000  0.000
  0.333  0.322  0.000  0.004  0.341
  0.322  0.333  0.000  0.341  0.004
  0.288  0.057  0.000  0.515  0.140
  0.057  0.288  0.000  0.140  0.515
    occupations:
  0.937  0.000  0.000  0.000  0.000
  0.000  0.714  0.000 -0.060  0.152
  0.000  0.000  0.714  0.152  0.060
  0.000 -0.060  0.152  0.821  0.000
  0.000  0.152  0.060  0.000  0.821
atom    2   Tr[ns(na)] =   8.02430
    eigenvalues: 
  0.595  0.595  0.938  0.941  0.941
    eigenvectors:
  0.000  0.000  1.000  0.000  0.000
  0.640  0.015  0.000  0.223  0.122
  0.015  0.640  0.000  0.122  0.223
  0.017  0.329  0.000  0.470  0.185
  0.329  0.017  0.000  0.185  0.470
    occupations:
  0.938  0.000  0.000  0.000  0.000
  0.000  0.715  0.000  0.060  0.153
  0.000  0.000  0.715  0.153 -0.060
  0.000  0.060  0.153  0.822  0.000
  0.000  0.153 -0.060  0.000  0.822
atom    3   Tr[ns(na)] =   3.80342
    eigenvalues: 
  0.355  0.355  0.384  0.403  0.403
    eigenvectors:
  0.000  0.000  1.000  0.000  0.000
  0.781  0.139  0.000  0.012  0.068
  0.139  0.781  0.000  0.068  0.012
  0.013  0.067  0.000  0.780  0.141
  0.067  0.013  0.000  0.141  0.780
    occupations:
  0.384  0.000  0.000  0.000  0.000
  0.000  0.359  0.000  0.000  0.013
  0.000  0.000  0.359  0.013  0.000
  0.000  0.000  0.013  0.399  0.000
  0.000  0.013  0.000  0.000  0.399
atom    4   Tr[ns(na)] =   3.80342
    eigenvalues: 
  0.355  0.355  0.384  0.403  0.403
    eigenvectors:
  0.000  0.000  1.000  0.000  0.000
  0.782  0.139  0.000  0.012  0.068
  0.139  0.782  0.000  0.068  0.012
  0.012  0.067  0.000  0.780  0.141
  0.067  0.012  0.000  0.141  0.780
    occupations:
  0.384  0.000  0.000  0.000  0.000
  0.000  0.359  0.000  0.000  0.013
  0.000  0.000  0.359  0.013  0.000
  0.000  0.000  0.013  0.399  0.000
  0.000  0.013  0.000  0.000  0.399
atom    5   Tr[ns(na)] =   5.43353
    eigenvalues: 
  0.846  0.929  0.941
    eigenvectors:
  0.340  0.000  0.660
  0.495  0.250  0.256
  0.165  0.750  0.085
    occupations:
  0.909  0.039  0.022
  0.039  0.891 -0.022
  0.022 -0.022  0.917
atom    6   Tr[ns(na)] =   5.43353
    eigenvalues: 
  0.846  0.929  0.941
    eigenvectors:
  0.340  0.000  0.660
  0.000  1.000  0.000
  0.660  0.000  0.340
    occupations:
  0.909  0.000 -0.045
  0.000  0.929  0.000
 -0.045  0.000  0.879
atom    7   Tr[ns(na)] =   5.43353
    eigenvalues: 
  0.846  0.929  0.941
    eigenvectors:
  0.340  0.000  0.660
  0.495  0.250  0.255
  0.165  0.750  0.086
    occupations:
  0.909 -0.039  0.022
 -0.039  0.891  0.022
  0.022  0.022  0.917
atom    8   Tr[ns(na)] =   5.43353
    eigenvalues: 
  0.846  0.929  0.941
    eigenvectors:
  0.340  0.000  0.660
  0.000  1.000  0.000
  0.660  0.000  0.340
    occupations:
  0.909  0.000 -0.045
  0.000  0.929  0.000
 -0.045  0.000  0.879
atom    9   Tr[ns(na)] =   5.43353
    eigenvalues: 
  0.846  0.929  0.941
    eigenvectors:
  0.340  0.000  0.660
  0.495  0.250  0.256
  0.165  0.750  0.085
    occupations:
  0.909  0.039  0.022
  0.039  0.891 -0.022
  0.022 -0.022  0.917
atom   10   Tr[ns(na)] =   5.43353
    eigenvalues: 
  0.846  0.929  0.941
    eigenvectors:
  0.340  0.000  0.660
  0.495  0.250  0.255
  0.165  0.750  0.086
    occupations:
  0.909 -0.039  0.022
 -0.039  0.891  0.022
  0.022  0.022  0.917
N of occupied +U levels =  56.2491415
 --- exit write_ns ---
 --- in v_hubbard ---
Hubbard energy    0.0295
 -------

     total cpu time spent up to now is       59.6 secs

     total energy              =    -538.30357873 Ry
     Harris-Foulkes estimate   =    -538.30358016 Ry
     estimated scf accuracy    <       0.00001040 Ry

     iteration #  4     ecut=    30.00 Ry     beta=0.20
     Davidson diagonalization with overlap
     ethr =  1.37E-08,  avg # of iterations =  3.6
 --- enter write_ns ---
 LDA+U parameters:
U( 1)     =  0.00000000
alpha( 1) =  0.05000000
U( 2)     =  0.00000000
alpha( 2) =  0.00000000
U( 3)     =  0.00000000
alpha( 3) =  0.00000000
U( 4)     =  0.00000000
alpha( 4) =  0.00000000
atom    1   Tr[ns(na)] =   8.01551
    eigenvalues: 
  0.595  0.595  0.937  0.940  0.940
    eigenvectors:
  0.000  0.000  1.000  0.000  0.000
  0.333  0.322  0.000  0.004  0.341
  0.322  0.333  0.000  0.341  0.004
  0.289  0.056  0.000  0.515  0.140
  0.056  0.289  0.000  0.140  0.515
    occupations:
  0.937  0.000  0.000  0.000  0.000
  0.000  0.714  0.000 -0.060  0.153
  0.000  0.000  0.714  0.153  0.060
  0.000 -0.060  0.153  0.821  0.000
  0.000  0.153  0.060  0.000  0.821
atom    2   Tr[ns(na)] =   8.02182
    eigenvalues: 
  0.595  0.595  0.938  0.941  0.941
    eigenvectors:
  0.000  0.000  1.000  0.000  0.000
  0.639  0.015  0.000  0.223  0.122
  0.015  0.639  0.000  0.122  0.223
  0.016  0.329  0.000  0.470  0.185
  0.329  0.016  0.000  0.185  0.470
    occupations:
  0.938  0.000  0.000  0.000  0.000
  0.000  0.714  0.000  0.060  0.153
  0.000  0.000  0.714  0.153 -0.060
  0.000  0.060  0.153  0.822  0.000
  0.000  0.153 -0.060  0.000  0.822
atom    3   Tr[ns(na)] =   3.80333
    eigenvalues: 
  0.355  0.355  0.384  0.403  0.403
    eigenvectors:
  0.000  0.000  1.000  0.000  0.000
  0.781  0.139  0.000  0.012  0.068
  0.139  0.781  0.000  0.068  0.012
  0.013  0.067  0.000  0.780  0.141
  0.067  0.013  0.000  0.141  0.780
    occupations:
  0.384  0.000  0.000  0.000  0.000
  0.000  0.359  0.000  0.000  0.013
  0.000  0.000  0.359  0.013  0.000
  0.000  0.000  0.013  0.399  0.000
  0.000  0.013  0.000  0.000  0.399
atom    4   Tr[ns(na)] =   3.80333
    eigenvalues: 
  0.355  0.355  0.384  0.403  0.403
    eigenvectors:
  0.000  0.000  1.000  0.000  0.000
  0.782  0.139  0.000  0.012  0.068
  0.139  0.782  0.000  0.068  0.012
  0.013  0.067  0.000  0.780  0.141
  0.067  0.013  0.000  0.141  0.780
    occupations:
  0.384  0.000  0.000  0.000  0.000
  0.000  0.359  0.000  0.000  0.013
  0.000  0.000  0.359  0.013  0.000
  0.000  0.000  0.013  0.399  0.000
  0.000  0.013  0.000  0.000  0.399
atom    5   Tr[ns(na)] =   5.43413
    eigenvalues: 
  0.847  0.929  0.941
    eigenvectors:
  0.340  0.000  0.660
  0.495  0.250  0.256
  0.165  0.750  0.085
    occupations:
  0.909  0.039  0.022
  0.039  0.891 -0.022
  0.022 -0.022  0.917
atom    6   Tr[ns(na)] =   5.43413
    eigenvalues: 
  0.847  0.929  0.941
    eigenvectors:
  0.340  0.000  0.660
  0.000  1.000  0.000
  0.660  0.000  0.340
    occupations:
  0.909  0.000 -0.045
  0.000  0.929  0.000
 -0.045  0.000  0.879
atom    7   Tr[ns(na)] =   5.43413
    eigenvalues: 
  0.847  0.929  0.941
    eigenvectors:
  0.340  0.000  0.660
  0.495  0.250  0.255
  0.165  0.750  0.085
    occupations:
  0.909 -0.039  0.022
 -0.039  0.891  0.022
  0.022  0.022  0.917
atom    8   Tr[ns(na)] =   5.43413
    eigenvalues: 
  0.847  0.929  0.941
    eigenvectors:
  0.340  0.000  0.660
  0.000  1.000  0.000
  0.660  0.000  0.340
    occupations:
  0.909  0.000 -0.045
  0.000  0.929  0.000
 -0.045  0.000  0.879
atom    9   Tr[ns(na)] =   5.43413
    eigenvalues: 
  0.847  0.929  0.941
    eigenvectors:
  0.340  0.000  0.660
  0.495  0.250  0.256
  0.165  0.750  0.085
    occupations:
  0.909  0.039  0.022
  0.039  0.891 -0.022
  0.022 -0.022  0.917
atom   10   Tr[ns(na)] =   5.43413
    eigenvalues: 
  0.847  0.929  0.941
    eigenvectors:
  0.340  0.000  0.660
  0.495  0.250  0.255
  0.165  0.750  0.085
    occupations:
  0.909 -0.039  0.022
 -0.039  0.891  0.022
  0.022  0.022  0.917
N of occupied +U levels =  56.2487776
 --- exit write_ns ---
 --- in v_hubbard ---
Hubbard energy    0.0295
 -------

     total cpu time spent up to now is       75.0 secs

     total energy              =    -538.30358272 Ry
     Harris-Foulkes estimate   =    -538.30358218 Ry
     estimated scf accuracy    <       0.00000041 Ry

     iteration #  5     ecut=    30.00 Ry     beta=0.20
     Davidson diagonalization with overlap
     ethr =  5.46E-10,  avg # of iterations =  2.6
 --- enter write_ns ---
 LDA+U parameters:
U( 1)     =  0.00000000
alpha( 1) =  0.05000000
U( 2)     =  0.00000000
alpha( 2) =  0.00000000
U( 3)     =  0.00000000
alpha( 3) =  0.00000000
U( 4)     =  0.00000000
alpha( 4) =  0.00000000
atom    1   Tr[ns(na)] =   8.01581
    eigenvalues: 
  0.595  0.595  0.937  0.940  0.940
    eigenvectors:
  0.000  0.000  1.000  0.000  0.000
  0.333  0.322  0.000  0.004  0.341
  0.322  0.333  0.000  0.341  0.004
  0.289  0.056  0.000  0.515  0.140
  0.056  0.289  0.000  0.140  0.515
    occupations:
  0.937  0.000  0.000  0.000  0.000
  0.000  0.714  0.000 -0.060  0.153
  0.000  0.000  0.714  0.153  0.060
  0.000 -0.060  0.153  0.821  0.000
  0.000  0.153  0.060  0.000  0.821
atom    2   Tr[ns(na)] =   8.02137
    eigenvalues: 
  0.595  0.595  0.938  0.941  0.941
    eigenvectors:
  0.000  0.000  1.000  0.000  0.000
  0.640  0.015  0.000  0.223  0.122
  0.015  0.640  0.000  0.122  0.223
  0.017  0.328  0.000  0.470  0.185
  0.328  0.017  0.000  0.185  0.470
    occupations:
  0.938  0.000  0.000  0.000  0.000
  0.000  0.714  0.000  0.060  0.153
  0.000  0.000  0.714  0.153 -0.060
  0.000  0.060  0.153  0.822  0.000
  0.000  0.153 -0.060  0.000  0.822
atom    3   Tr[ns(na)] =   3.80320
    eigenvalues: 
  0.355  0.355  0.384  0.403  0.403
    eigenvectors:
  0.000  0.000  1.000  0.000  0.000
  0.781  0.139  0.000  0.012  0.068
  0.139  0.781  0.000  0.068  0.012
  0.013  0.067  0.000  0.780  0.141
  0.067  0.013  0.000  0.141  0.780
    occupations:
  0.384  0.000  0.000  0.000  0.000
  0.000  0.359  0.000  0.000  0.013
  0.000  0.000  0.359  0.013  0.000
  0.000  0.000  0.013  0.399  0.000
  0.000  0.013  0.000  0.000  0.399
atom    4   Tr[ns(na)] =   3.80320
    eigenvalues: 
  0.355  0.355  0.384  0.403  0.403
    eigenvectors:
  0.000  0.000  1.000  0.000  0.000
  0.781  0.139  0.000  0.012  0.068
  0.139  0.781  0.000  0.068  0.012
  0.013  0.067  0.000  0.780  0.141
  0.067  0.013  0.000  0.141  0.780
    occupations:
  0.384  0.000  0.000  0.000  0.000
  0.000  0.359  0.000  0.000  0.013
  0.000  0.000  0.359  0.013  0.000
  0.000  0.000  0.013  0.399  0.000
  0.000  0.013  0.000  0.000  0.399
atom    5   Tr[ns(na)] =   5.43418
    eigenvalues: 
  0.847  0.929  0.941
    eigenvectors:
  0.340  0.000  0.660
  0.495  0.250  0.256
  0.165  0.750  0.085
    occupations:
  0.909  0.039  0.022
  0.039  0.891 -0.022
  0.022 -0.022  0.917
atom    6   Tr[ns(na)] =   5.43418
    eigenvalues: 
  0.847  0.929  0.941
    eigenvectors:
  0.340  0.000  0.660
  0.000  1.000  0.000
  0.660  0.000  0.340
    occupations:
  0.909  0.000 -0.045
  0.000  0.929  0.000
 -0.045  0.000  0.879
atom    7   Tr[ns(na)] =   5.43418
    eigenvalues: 
  0.847  0.929  0.941
    eigenvectors:
  0.340  0.000  0.660
  0.495  0.250  0.255
  0.165  0.750  0.085
    occupations:
  0.909 -0.039  0.022
 -0.039  0.891  0.022
  0.022  0.022  0.917
atom    8   Tr[ns(na)] =   5.43418
    eigenvalues: 
  0.847  0.929  0.941
    eigenvectors:
  0.340  0.000  0.660
  0.000  1.000  0.000
  0.660  0.000  0.340
    occupations:
  0.909  0.000 -0.045
  0.000  0.929  0.000
 -0.045  0.000  0.879
atom    9   Tr[ns(na)] =   5.43418
    eigenvalues: 
  0.847  0.929  0.941
    eigenvectors:
  0.340  0.000  0.660
  0.495  0.250  0.256
  0.165  0.750  0.085
    occupations:
  0.909  0.039  0.022
  0.039  0.891 -0.022
  0.022 -0.022  0.917
atom   10   Tr[ns(na)] =   5.43418
    eigenvalues: 
  0.847  0.929  0.941
    eigenvectors:
  0.340  0.000  0.660
  0.495  0.250  0.255
  0.165  0.750  0.085
    occupations:
  0.909 -0.039  0.022
 -0.039  0.891  0.022
  0.022  0.022  0.917
N of occupied +U levels =  56.2486764
 --- exit write_ns ---
 --- in v_hubbard ---
Hubbard energy    0.0295
 -------

     total cpu time spent up to now is       88.2 secs

     total energy              =    -538.30358314 Ry
     Harris-Foulkes estimate   =    -538.30358277 Ry
     estimated scf accuracy    <       0.00000012 Ry

     iteration #  6     ecut=    30.00 Ry     beta=0.20
     Davidson diagonalization with overlap
     ethr =  1.52E-10,  avg # of iterations =  1.5
 --- enter write_ns ---
 LDA+U parameters:
U( 1)     =  0.00000000
alpha( 1) =  0.05000000
U( 2)     =  0.00000000
alpha( 2) =  0.00000000
U( 3)     =  0.00000000
alpha( 3) =  0.00000000
U( 4)     =  0.00000000
alpha( 4) =  0.00000000
atom    1   Tr[ns(na)] =   8.01573
    eigenvalues: 
  0.595  0.595  0.937  0.940  0.940
    eigenvectors:
  0.000  0.000  1.000  0.000  0.000
  0.333  0.322  0.000  0.004  0.341
  0.322  0.333  0.000  0.341  0.004
  0.289  0.057  0.000  0.515  0.140
  0.057  0.289  0.000  0.140  0.515
    occupations:
  0.937  0.000  0.000  0.000  0.000
  0.000  0.714  0.000 -0.060  0.153
  0.000  0.000  0.714  0.153  0.060
  0.000 -0.060  0.153  0.821  0.000
  0.000  0.153  0.060  0.000  0.821
atom    2   Tr[ns(na)] =   8.02158
    eigenvalues: 
  0.595  0.595  0.938  0.941  0.941
    eigenvectors:
  0.000  0.000  1.000  0.000  0.000
  0.640  0.015  0.000  0.223  0.122
  0.015  0.640  0.000  0.122  0.223
  0.017  0.329  0.000  0.470  0.185
  0.329  0.017  0.000  0.185  0.470
    occupations:
  0.938  0.000  0.000  0.000  0.000
  0.000  0.714  0.000  0.060  0.153
  0.000  0.000  0.714  0.153 -0.060
  0.000  0.060  0.153  0.822  0.000
  0.000  0.153 -0.060  0.000  0.822
atom    3   Tr[ns(na)] =   3.80316
    eigenvalues: 
  0.355  0.355  0.384  0.403  0.403
    eigenvectors:
  0.000  0.000  1.000  0.000  0.000
  0.781  0.139  0.000  0.012  0.068
  0.139  0.781  0.000  0.068  0.012
  0.013  0.067  0.000  0.780  0.141
  0.067  0.013  0.000  0.141  0.780
    occupations:
  0.384  0.000  0.000  0.000  0.000
  0.000  0.359  0.000  0.000  0.013
  0.000  0.000  0.359  0.013  0.000
  0.000  0.000  0.013  0.399  0.000
  0.000  0.013  0.000  0.000  0.399
atom    4   Tr[ns(na)] =   3.80316
    eigenvalues: 
  0.355  0.355  0.384  0.403  0.403
    eigenvectors:
  0.000  0.000  1.000  0.000  0.000
  0.781  0.139  0.000  0.012  0.068
  0.139  0.781  0.000  0.068  0.012
  0.013  0.067  0.000  0.780  0.141
  0.067  0.013  0.000  0.141  0.780
    occupations:
  0.384  0.000  0.000  0.000  0.000
  0.000  0.359  0.000  0.000  0.013
  0.000  0.000  0.359  0.013  0.000
  0.000  0.000  0.013  0.399  0.000
  0.000  0.013  0.000  0.000  0.399
atom    5   Tr[ns(na)] =   5.43417
    eigenvalues: 
  0.847  0.929  0.941
    eigenvectors:
  0.340  0.000  0.660
  0.495  0.250  0.256
  0.165  0.750  0.085
    occupations:
  0.909  0.039  0.022
  0.039  0.891 -0.022
  0.022 -0.022  0.917
atom    6   Tr[ns(na)] =   5.43417
    eigenvalues: 
  0.847  0.929  0.941
    eigenvectors:
  0.340  0.000  0.660
  0.000  1.000  0.000
  0.660  0.000  0.340
    occupations:
  0.909  0.000 -0.045
  0.000  0.929  0.000
 -0.045  0.000  0.879
atom    7   Tr[ns(na)] =   5.43417
    eigenvalues: 
  0.847  0.929  0.941
    eigenvectors:
  0.340  0.000  0.660
  0.495  0.250  0.255
  0.165  0.750  0.085
    occupations:
  0.909 -0.039  0.022
 -0.039  0.891  0.022
  0.022  0.022  0.917
atom    8   Tr[ns(na)] =   5.43417
    eigenvalues: 
  0.847  0.929  0.941
    eigenvectors:
  0.340  0.000  0.660
  0.000  1.000  0.000
  0.660  0.000  0.340
    occupations:
  0.909  0.000 -0.045
  0.000  0.929  0.000
 -0.045  0.000  0.879
atom    9   Tr[ns(na)] =   5.43417
    eigenvalues: 
  0.847  0.929  0.941
    eigenvectors:
  0.340  0.000  0.660
  0.495  0.250  0.256
  0.165  0.750  0.085
    occupations:
  0.909  0.039  0.022
  0.039  0.891 -0.022
  0.022 -0.022  0.917
atom   10   Tr[ns(na)] =   5.43417
    eigenvalues: 
  0.847  0.929  0.941
    eigenvectors:
  0.340  0.000  0.660
  0.495  0.250  0.255
  0.165  0.750  0.085
    occupations:
  0.909 -0.039  0.022
 -0.039  0.891  0.022
  0.022  0.022  0.917
N of occupied +U levels =  56.2486546
 --- exit write_ns ---
 --- in v_hubbard ---
Hubbard energy    0.0295
 -------

     total cpu time spent up to now is      101.1 secs

     total energy              =    -538.30358340 Ry
     Harris-Foulkes estimate   =    -538.30358315 Ry
     estimated scf accuracy    <       0.00000002 Ry

     iteration #  7     ecut=    30.00 Ry     beta=0.20
     Davidson diagonalization with overlap
     ethr =  2.43E-11,  avg # of iterations =  2.1
 --- enter write_ns ---
 LDA+U parameters:
U( 1)     =  0.00000000
alpha( 1) =  0.05000000
U( 2)     =  0.00000000
alpha( 2) =  0.00000000
U( 3)     =  0.00000000
alpha( 3) =  0.00000000
U( 4)     =  0.00000000
alpha( 4) =  0.00000000
atom    1   Tr[ns(na)] =   8.01582
    eigenvalues: 
  0.595  0.595  0.937  0.940  0.940
    eigenvectors:
  0.000  0.000  1.000  0.000  0.000
  0.333  0.322  0.000  0.004  0.341
  0.322  0.333  0.000  0.341  0.004
  0.289  0.057  0.000  0.515  0.140
  0.057  0.289  0.000  0.140  0.515
    occupations:
  0.937  0.000  0.000  0.000  0.000
  0.000  0.714  0.000 -0.060  0.153
  0.000  0.000  0.714  0.153  0.060
  0.000 -0.060  0.153  0.821  0.000
  0.000  0.153  0.060  0.000  0.821
atom    2   Tr[ns(na)] =   8.02151
    eigenvalues: 
  0.595  0.595  0.938  0.941  0.941
    eigenvectors:
  0.000  0.000  1.000  0.000  0.000
  0.640  0.015  0.000  0.223  0.122
  0.015  0.640  0.000  0.122  0.223
  0.016  0.329  0.000  0.470  0.185
  0.329  0.016  0.000  0.185  0.470
    occupations:
  0.938  0.000  0.000  0.000  0.000
  0.000  0.714  0.000  0.060  0.153
  0.000  0.000  0.714  0.153 -0.060
  0.000  0.060  0.153  0.822  0.000
  0.000  0.153 -0.060  0.000  0.822
atom    3   Tr[ns(na)] =   3.80317
    eigenvalues: 
  0.355  0.355  0.384  0.403  0.403
    eigenvectors:
  0.000  0.000  1.000  0.000  0.000
  0.781  0.139  0.000  0.012  0.068
  0.139  0.781  0.000  0.068  0.012
  0.013  0.067  0.000  0.780  0.141
  0.067  0.013  0.000  0.141  0.780
    occupations:
  0.384  0.000  0.000  0.000  0.000
  0.000  0.359  0.000  0.000  0.013
  0.000  0.000  0.359  0.013  0.000
  0.000  0.000  0.013  0.399  0.000
  0.000  0.013  0.000  0.000  0.399
atom    4   Tr[ns(na)] =   3.80317
    eigenvalues: 
  0.355  0.355  0.384  0.403  0.403
    eigenvectors:
  0.000  0.000  1.000  0.000  0.000
  0.782  0.139  0.000  0.012  0.068
  0.139  0.782  0.000  0.068  0.012
  0.012  0.067  0.000  0.780  0.141
  0.067  0.012  0.000  0.141  0.780
    occupations:
  0.384  0.000  0.000  0.000  0.000
  0.000  0.359  0.000  0.000  0.013
  0.000  0.000  0.359  0.013  0.000
  0.000  0.000  0.013  0.399  0.000
  0.000  0.013  0.000  0.000  0.399
atom    5   Tr[ns(na)] =   5.43416
    eigenvalues: 
  0.847  0.929  0.941
    eigenvectors:
  0.340  0.000  0.660
  0.495  0.250  0.256
  0.165  0.750  0.085
    occupations:
  0.909  0.039  0.022
  0.039  0.891 -0.022
  0.022 -0.022  0.917
atom    6   Tr[ns(na)] =   5.43416
    eigenvalues: 
  0.847  0.929  0.941
    eigenvectors:
  0.340  0.000  0.660
  0.000  1.000  0.000
  0.660  0.000  0.340
    occupations:
  0.909  0.000 -0.045
  0.000  0.929  0.000
 -0.045  0.000  0.879
atom    7   Tr[ns(na)] =   5.43416
    eigenvalues: 
  0.847  0.929  0.941
    eigenvectors:
  0.340  0.000  0.660
  0.495  0.250  0.255
  0.165  0.750  0.085
    occupations:
  0.909 -0.039  0.022
 -0.039  0.891  0.022
  0.022  0.022  0.917
atom    8   Tr[ns(na)] =   5.43416
    eigenvalues: 
  0.847  0.929  0.941
    eigenvectors:
  0.340  0.000  0.660
  0.000  1.000  0.000
  0.660  0.000  0.340
    occupations:
  0.909  0.000 -0.045
  0.000  0.929  0.000
 -0.045  0.000  0.879
atom    9   Tr[ns(na)] =   5.43416
    eigenvalues: 
  0.847  0.929  0.941
    eigenvectors:
  0.340  0.000  0.660
  0.495  0.250  0.256
  0.165  0.750  0.085
    occupations:
  0.909  0.039  0.022
  0.039  0.891 -0.022
  0.022 -0.022  0.917
atom   10   Tr[ns(na)] =   5.43416
    eigenvalues: 
  0.847  0.929  0.941
    eigenvectors:
  0.340  0.000  0.660
  0.495  0.250  0.255
  0.165  0.750  0.085
    occupations:
  0.909 -0.039  0.022
 -0.039  0.891  0.022
  0.022  0.022  0.917
N of occupied +U levels =  56.2486646
 --- exit write_ns ---
 --- in v_hubbard ---
Hubbard energy    0.0295
 -------

     total cpu time spent up to now is      117.1 secs

     End of self-consistent calculation

          k = 0.0000 0.0000 0.0000 (  2175 PWs)   bands (ev):

   -19.7907 -19.6173  -6.5286  -5.8048  -5.8048  -5.7868  -5.7868  -5.4617
    -3.7427  -3.2549  -3.1781  -3.1781  -3.0152  -3.0152   5.2003   6.9543
     6.9543   7.5331   7.5331   7.7269   7.8440   7.8440   7.9036   9.3128
     9.6327   9.6327   9.8883   9.9385   9.9385  10.4831  10.4831  10.6818
    10.6818  10.6945  10.8284  11.5240  11.5240  12.1925  12.3100  12.3100
    14.7820  14.7820  15.4352  15.4352  16.2001  16.7919

     occupation numbers 
     0.0313   0.0313   0.0313   0.0313   0.0313   0.0313   0.0313   0.0313
     0.0313   0.0313   0.0313   0.0313   0.0313   0.0313   0.0313   0.0313
     0.0313   0.0313   0.0313   0.0313   0.0313   0.0313   0.0313   0.0313
     0.0313   0.0313   0.0312   0.0312   0.0312   0.0312   0.0312   0.0312
     0.0312   0.0312   0.0312   0.0309   0.0309   0.0150   0.0101   0.0101
     0.0000   0.0000   0.0000   0.0000   0.0000   0.0000

          k =-0.2471-0.1427 0.1027 (  2181 PWs)   bands (ev):

   -19.7627 -19.6401  -6.7087  -6.2671  -5.9061  -5.8176  -5.5827  -5.4486
    -3.5619  -3.3718  -2.9117  -2.8892  -2.8264  -2.7453   5.5657   6.8952
     7.0541   7.0610   7.3598   7.5296   7.5900   7.8429   7.8858   8.6343
     8.7315   9.3636   9.6803   9.8180   9.8682  10.0472  10.3935  10.4052
    11.0525  11.0839  11.1661  11.8948  11.9463  12.0077  12.3682  12.4270
    14.3262  14.3343  15.8227  16.0781  16.9773  17.2730

     occupation numbers 
     0.1875   0.1875   0.1875   0.1875   0.1875   0.1875   0.1875   0.1875
     0.1875   0.1875   0.1875   0.1875   0.1875   0.1875   0.1875   0.1875
     0.1875   0.1875   0.1875   0.1875   0.1875   0.1875   0.1875   0.1875
     0.1875   0.1875   0.1875   0.1875   0.1875   0.1875   0.1875   0.1875
     0.1875   0.1875   0.1875   0.1568   0.1479   0.1354   0.0477   0.0363
     0.0000   0.0000   0.0000   0.0000   0.0000   0.0000

          k = 0.4942 0.2853-0.2053 (  2202 PWs)   bands (ev):

   -19.6990 -19.6986  -6.7095  -6.6963  -5.9314  -5.9246  -5.4936  -5.4854
    -3.3612  -3.3591  -2.7701  -2.7693  -2.4960  -2.4940   6.1059   6.1080
     7.2463   7.2526   7.3108   7.3212   7.6764   7.6946   8.0053   8.0209
     8.2175   8.2373   9.5544   9.5593   9.8910   9.8987  10.2978  10.3084
    11.4879  11.4918  11.5670  11.5721  11.7314  11.7377  13.3079  13.3340
    13.3954  13.4218  16.8415  16.8465  17.1388  17.1430

     occupation numbers 
     0.0938   0.0938   0.0938   0.0938   0.0938   0.0938   0.0938   0.0938
     0.0938   0.0938   0.0938   0.0938   0.0938   0.0938   0.0938   0.0938
     0.0938   0.0938   0.0938   0.0938   0.0938   0.0938   0.0938   0.0938
     0.0938   0.0938   0.0938   0.0938   0.0937   0.0937   0.0937   0.0937
     0.0930   0.0929   0.0921   0.0921   0.0880   0.0878   0.0000   0.0000
     0.0000   0.0000   0.0000   0.0000   0.0000   0.0000

          k =-0.2471 0.1427 0.2053 (  2195 PWs)   bands (ev):

   -19.7580 -19.6426  -6.8322  -6.2055  -6.0413  -5.8017  -5.6296  -5.4193
    -3.3884  -3.2480  -3.0809  -2.8708  -2.7936  -2.5463   5.5984   6.8653
     6.9522   7.1397   7.2626   7.4943   7.5034   7.8920   7.8947   8.7014
     8.9271   8.9311   9.3126   9.8129  10.0057  10.1153  10.2179  10.3151
    10.7048  11.4085  11.4340  11.5239  11.9451  12.0115  12.1850  12.7485
    13.6487  14.7968  15.9989  16.2006  17.0417  17.5416

     occupation numbers 
     0.1875   0.1875   0.1875   0.1875   0.1875   0.1875   0.1875   0.1875
     0.1875   0.1875   0.1875   0.1875   0.1875   0.1875   0.1875   0.1875
     0.1875   0.1875   0.1875   0.1875   0.1875   0.1875   0.1875   0.1875
     0.1875   0.1875   0.1875   0.1875   0.1875   0.1875   0.1875   0.1875
     0.1875   0.1868   0.1866   0.1853   0.1481   0.1346   0.0919   0.0045
     0.0000   0.0000   0.0000   0.0000   0.0000   0.0000

          k = 0.4942 0.5706-0.1027 (  2198 PWs)   bands (ev):

   -19.7178 -19.6771  -6.9337  -6.6261  -6.1063  -5.8675  -5.4798  -5.3438
    -3.2845  -3.2373  -2.8607  -2.6917  -2.5123  -2.3701   5.9319   6.2983
     6.9078   7.0570   7.2495   7.3625   7.5811   7.8289   7.9666   8.1053
     8.3836   8.9308   9.1871   9.3726   9.6841   9.8365   9.9899  10.3803
    11.1182  11.5578  11.6444  11.7170  11.8470  11.8702  12.3499  12.7532
    13.4375  14.3734  16.9118  17.1225  17.3185  18.0229

     occupation numbers 
     0.1875   0.1875   0.1875   0.1875   0.1875   0.1875   0.1875   0.1875
     0.1875   0.1875   0.1875   0.1875   0.1875   0.1875   0.1875   0.1875
     0.1875   0.1875   0.1875   0.1875   0.1875   0.1875   0.1875   0.1875
     0.1875   0.1875   0.1875   0.1875   0.1875   0.1875   0.1875   0.1875
     0.1875   0.1845   0.1814   0.1771   0.1639   0.1606   0.0516   0.0043
     0.0000   0.0000   0.0000   0.0000   0.0000   0.0000

          k = 0.2471 0.4280 0.0000 (  2203 PWs)   bands (ev):

   -19.7275 -19.6697  -6.8278  -6.6153  -6.0292  -5.9508  -5.4054  -5.3316
    -3.4893  -3.2793  -2.7853  -2.6955  -2.5515  -2.5408   5.9072   6.3437
     7.1086   7.1569   7.2533   7.3407   7.4800   7.7499   7.8477   8.2129
     8.4505   8.9559   9.4410   9.4923   9.7941   9.8127  10.0836  10.3832
    11.4171  11.4266  11.4559  11.6760  11.6866  11.9663  12.2973  13.3356
    13.4061  14.1688  16.4441  17.0000  17.4271  17.9320

     occupation numbers 
     0.1875   0.1875   0.1875   0.1875   0.1875   0.1875   0.1875   0.1875
     0.1875   0.1875   0.1875   0.1875   0.1875   0.1875   0.1875   0.1875
     0.1875   0.1875   0.1875   0.1875   0.1875   0.1875   0.1875   0.1875
     0.1875   0.1875   0.1875   0.1875   0.1875   0.1875   0.1875   0.1875
     0.1867   0.1866   0.1863   0.1798   0.1792   0.1440   0.0636   0.0000
     0.0000   0.0000   0.0000   0.0000   0.0000   0.0000

          k = 0.4942-0.2853-0.4107 (  2202 PWs)   bands (ev):

   -19.7248 -19.6675  -7.1425  -6.4374  -6.2221  -5.9318  -5.5094  -5.2461
    -3.1743  -3.1141  -3.0247  -2.6371  -2.4664  -2.2080   5.8289   6.3423
     6.4796   6.9472   7.1633   7.2710   7.9105   7.9368   8.1718   8.3304
     8.6090   8.6140   8.6577   9.4324   9.6892  10.0514  10.0890  10.4580
    10.6705  11.3125  11.5819  11.7691  11.8748  11.9858  12.0808  12.4696
    13.3371  14.8087  17.0479  17.2726  17.5273  17.6130

     occupation numbers 
     0.0938   0.0938   0.0938   0.0938   0.0938   0.0938   0.0938   0.0938
     0.0938   0.0938   0.0938   0.0938   0.0938   0.0938   0.0938   0.0938
     0.0938   0.0938   0.0938   0.0938   0.0938   0.0938   0.0938   0.0938
     0.0938   0.0938   0.0938   0.0938   0.0938   0.0937   0.0937   0.0937
     0.0937   0.0936   0.0919   0.0864   0.0800   0.0700   0.0592   0.0146
     0.0000   0.0000   0.0000   0.0000   0.0000   0.0000

          k = 0.0000 0.0000 0.3080 (  2187 PWs)   bands (ev):

   -19.7624 -19.6399  -6.5965  -5.9582  -5.8963  -5.8963  -5.8088  -5.8088
    -3.1815  -3.0850  -3.0850  -2.9552  -2.8804  -2.8804   5.6187   7.0499
     7.0499   7.1553   7.4565   7.4565   7.5424   7.8733   7.8733   8.8823
     8.8823   9.4518   9.4571   9.6812   9.6812   9.8949  10.1537  10.1537
    11.1690  11.1690  11.2326  11.9081  11.9081  12.0201  12.3499  12.3499
    14.2875  14.2875  15.9172  15.9172  16.8832  17.4872

     occupation numbers 
     0.0625   0.0625   0.0625   0.0625   0.0625   0.0625   0.0625   0.0625
     0.0625   0.0625   0.0625   0.0625   0.0625   0.0625   0.0625   0.0625
     0.0625   0.0625   0.0625   0.0625   0.0625   0.0625   0.0625   0.0625
     0.0625   0.0625   0.0625   0.0625   0.0625   0.0625   0.0625   0.0625
     0.0625   0.0625   0.0625   0.0516   0.0516   0.0442   0.0172   0.0172
     0.0000   0.0000   0.0000   0.0000   0.0000   0.0000

          k = 0.7412 0.4280 0.0000 (  2204 PWs)   bands (ev):

   -19.7273 -19.6695  -6.7129  -6.5788  -6.1218  -5.8049  -5.6420  -5.5153
    -3.1498  -3.0719  -3.0315  -2.6607  -2.6391  -2.5672   5.9472   6.5262
     7.1204   7.2269   7.2528   7.3636   7.4690   7.6897   8.0309   8.1689
     8.4783   8.8612   9.4921   9.5102   9.6306   9.7010   9.8762  10.2365
    11.4145  11.4279  11.5250  11.7065  11.7331  11.8972  12.3076  13.2602
    13.3216  14.1921  16.6975  16.7294  17.5960  17.8018

     occupation numbers 
     0.1875   0.1875   0.1875   0.1875   0.1875   0.1875   0.1875   0.1875
     0.1875   0.1875   0.1875   0.1875   0.1875   0.1875   0.1875   0.1875
     0.1875   0.1875   0.1875   0.1875   0.1875   0.1875   0.1875   0.1875
     0.1875   0.1875   0.1875   0.1875   0.1875   0.1875   0.1875   0.1875
     0.1867   0.1866   0.1853   0.1779   0.1759   0.1564   0.0612   0.0000
     0.0000   0.0000   0.0000   0.0000   0.0000   0.0000

          k = 0.4942 0.2853 0.1027 (  2211 PWs)   bands (ev):

   -19.7178 -19.6771  -6.9501  -6.5229  -6.3002  -5.6653  -5.5992  -5.3176
    -3.2978  -3.1515  -3.0108  -2.5894  -2.5452  -2.3630   5.9624   6.2665
     6.8645   7.0471   7.2420   7.3075   7.6002   7.9015   8.0063   8.0625
     8.4191   9.0590   9.1848   9.4238   9.5668   9.6935  10.0410  10.4034
    11.1324  11.5924  11.7185  11.7249  11.7844  11.8039  12.3019  12.7708
    13.4828  14.3550  16.8925  16.9410  17.5898  17.9365

     occupation numbers 
     0.1875   0.1875   0.1875   0.1875   0.1875   0.1875   0.1875   0.1875
     0.1875   0.1875   0.1875   0.1875   0.1875   0.1875   0.1875   0.1875
     0.1875   0.1875   0.1875   0.1875   0.1875   0.1875   0.1875   0.1875
     0.1875   0.1875   0.1875   0.1875   0.1875   0.1875   0.1875   0.1875
     0.1875   0.1835   0.1770   0.1766   0.1713   0.1692   0.0625   0.0037
     0.0000   0.0000   0.0000   0.0000   0.0000   0.0000

          k = 0.7412-0.4280-0.3080 (  2210 PWs)   bands (ev):

   -19.7176 -19.6769  -6.8856  -6.4296  -6.2781  -5.7741  -5.7280  -5.4447
    -3.0540  -3.0326  -2.9495  -2.7136  -2.6045  -2.4131   6.0206   6.4101
     6.9562   7.0344   7.2890   7.2906   7.6215   7.9212   8.0543   8.0936
     8.3956   9.0287   9.0431   9.5380   9.5640   9.6061   9.6822  10.2388
    11.1880  11.6134  11.7049  11.7150  11.8279  11.8688  12.2598  12.7186
    13.4310  14.3244  17.0679  17.0744  17.5580  17.9107

     occupation numbers 
     0.1875   0.1875   0.1875   0.1875   0.1875   0.1875   0.1875   0.1875
     0.1875   0.1875   0.1875   0.1875   0.1875   0.1875   0.1875   0.1875
     0.1875   0.1875   0.1875   0.1875   0.1875   0.1875   0.1875   0.1875
     0.1875   0.1875   0.1875   0.1875   0.1875   0.1875   0.1875   0.1875
     0.1874   0.1828   0.1780   0.1773   0.1664   0.1608   0.0727   0.0057
     0.0000   0.0000   0.0000   0.0000   0.0000   0.0000

          k = 0.4942-0.5706-0.2053 (  2206 PWs)   bands (ev):

   -19.6964 -19.6964  -6.8662  -6.8518  -6.0158  -6.0145  -5.3906  -5.3879
    -3.1385  -3.1379  -2.7964  -2.7955  -2.3700  -2.3671   6.1166   6.1206
     7.0384   7.0395   7.1696   7.1733   7.4526   7.4532   8.2294   8.2556
     8.8201   8.8205   9.0950   9.0956   9.5719   9.5745  10.1247  10.1254
    11.4011  11.4016  11.6011  11.6026  11.8707  11.8709  12.3333  12.3356
    14.0160  14.0233  17.4369  17.4374  17.8738  17.8762

     occupation numbers 
     0.1875   0.1875   0.1875   0.1875   0.1875   0.1875   0.1875   0.1875
     0.1875   0.1875   0.1875   0.1875   0.1875   0.1875   0.1875   0.1875
     0.1875   0.1875   0.1875   0.1875   0.1875   0.1875   0.1875   0.1875
     0.1875   0.1875   0.1875   0.1875   0.1875   0.1875   0.1875   0.1875
     0.1868   0.1868   0.1832   0.1832   0.1605   0.1605   0.0553   0.0548
     0.0000   0.0000   0.0000   0.0000   0.0000   0.0000

          k = 0.0000 0.0000-0.6160 (  2186 PWs)   bands (ev):

   -19.6985 -19.6981  -6.4961  -6.4797  -5.9116  -5.9116  -5.9038  -5.9038
    -2.8697  -2.8697  -2.8691  -2.8691  -2.6972  -2.6969   6.3264   6.3305
     7.2544   7.2544   7.2630   7.2630   7.8727   7.8928   8.1283   8.1283
     8.1473   8.1473   9.6664   9.6664   9.6743   9.6743   9.7282   9.7394
    11.6186  11.6226  11.6665  11.6665  11.6724  11.6724  13.2505  13.2505
    13.2760  13.2760  17.1239  17.1239  17.1263  17.1263

     occupation numbers 
     0.0313   0.0313   0.0313   0.0313   0.0313   0.0313   0.0313   0.0313
     0.0313   0.0313   0.0313   0.0313   0.0313   0.0313   0.0313   0.0313
     0.0313   0.0313   0.0313   0.0313   0.0313   0.0313   0.0313   0.0313
     0.0313   0.0313   0.0313   0.0313   0.0313   0.0313   0.0313   0.0313
     0.0304   0.0304   0.0301   0.0301   0.0300   0.0300   0.0000   0.0000
     0.0000   0.0000   0.0000   0.0000   0.0000   0.0000

          k = 0.4942-0.5706 0.1027 (  2198 PWs)   bands (ev):

   -19.7178 -19.6771  -6.9340  -6.6244  -6.1085  -5.8680  -5.4802  -5.3418
    -3.2850  -3.2373  -2.8612  -2.6909  -2.5130  -2.3696   5.9314   6.2988
     6.9061   7.0567   7.2532   7.3600   7.5821   7.8307   7.9526   8.1225
     8.3791   8.9358   9.1823   9.3712   9.6826   9.8374   9.9898  10.3819
    11.1176  11.5576  11.6464  11.7165  11.8480  11.8687  12.3494  12.7532
    13.4375  14.3731  16.9138  17.1197  17.3191  18.0227

     occupation numbers 
     0.1875   0.1875   0.1875   0.1875   0.1875   0.1875   0.1875   0.1875
     0.1875   0.1875   0.1875   0.1875   0.1875   0.1875   0.1875   0.1875
     0.1875   0.1875   0.1875   0.1875   0.1875   0.1875   0.1875   0.1875
     0.1875   0.1875   0.1875   0.1875   0.1875   0.1875   0.1875   0.1875
     0.1875   0.1845   0.1813   0.1772   0.1637   0.1608   0.0517   0.0043
     0.0000   0.0000   0.0000   0.0000   0.0000   0.0000

     the Fermi energy is    12.1777 ev

!    total energy              =    -538.30358385 Ry
     Harris-Foulkes estimate   =    -538.30358341 Ry
     estimated scf accuracy    <          1.7E-09 Ry

     The total energy is the sum of the following terms:

     one-electron contribution =     -32.88602065 Ry
     hartree contribution      =      83.59582389 Ry
     xc contribution           =    -199.55361503 Ry
     ewald contribution        =    -389.44315552 Ry
     Hubbard energy            =       0.02945760 Ry
     smearing contrib. (-TS)   =      -0.04607414 Ry

     convergence has been achieved in   7 iterations

     init_run     :      7.31s CPU      7.56s WALL (       1 calls)
     electrons    :    106.30s CPU    108.98s WALL (       1 calls)

     Called by init_run:
     wfcinit      :      0.00s CPU      0.00s WALL (       1 calls)
     potinit      :      0.28s CPU      0.30s WALL (       1 calls)

     Called by electrons:
     c_bands      :     69.77s CPU     71.29s WALL (       7 calls)
     sum_band     :     21.21s CPU     21.38s WALL (       7 calls)
     v_of_rho     :      2.06s CPU      2.08s WALL (       8 calls)
     v_h          :      0.12s CPU      0.12s WALL (       8 calls)
     v_xc         :      1.94s CPU      1.96s WALL (       8 calls)
     newd         :     14.67s CPU     14.68s WALL (       8 calls)
     mix_rho      :      0.18s CPU      0.18s WALL (       7 calls)

     Called by c_bands:
     init_us_2    :      0.74s CPU      0.74s WALL (     196 calls)
     cegterg      :     67.78s CPU     69.14s WALL (      98 calls)

     Called by sum_band:
     sum_band:bec :      0.06s CPU      0.07s WALL (      98 calls)
     addusdens    :      9.29s CPU      9.29s WALL (       7 calls)

     Called by *egterg:
     h_psi        :     49.54s CPU     50.70s WALL (     500 calls)
     s_psi        :      2.78s CPU      2.79s WALL (     500 calls)
     g_psi        :      0.23s CPU      0.23s WALL (     402 calls)
     cdiaghg      :      5.79s CPU      5.83s WALL (     486 calls)
     cegterg:over :      3.57s CPU      3.67s WALL (     402 calls)
     cegterg:upda :      2.27s CPU      2.29s WALL (     402 calls)
     cegterg:last :      1.39s CPU      1.39s WALL (     110 calls)

     Called by h_psi:
     h_psi:vloc   :     40.28s CPU     41.26s WALL (     500 calls)
     h_psi:vnl    :      5.89s CPU      6.02s WALL (     500 calls)
     add_vuspsi   :      2.79s CPU      2.84s WALL (     500 calls)
     vhpsi        :      3.24s CPU      3.30s WALL (     500 calls)

     General routines
     calbec       :      6.45s CPU      6.62s WALL (    1196 calls)
     fft          :      1.48s CPU      1.62s WALL (     123 calls)
     ffts         :      0.04s CPU      0.12s WALL (      15 calls)
     fftw         :     39.19s CPU     40.13s WALL (   27786 calls)
     interpolate  :      0.24s CPU      0.46s WALL (      15 calls)
     davcio       :      0.00s CPU      0.23s WALL (     210 calls)

     Parallel routines
     fft_scatter  :     11.19s CPU     12.32s WALL (   27924 calls)
     Hubbard U routines
     new_ns       :      0.65s CPU      0.75s WALL (       7 calls)
     vhpsi        :      3.24s CPU      3.30s WALL (     500 calls)

     PWSCF        :  1m54.07s CPU     1m57.15s WALL


   This run was terminated on:   7:58:31  11Nov2012            

=------------------------------------------------------------------------------=
