   JOB DONE.
=------------------------------------------------------------------------------=

     Program PWSCF v.5.0.1 starts on 11Nov2012 at  7:48:29 

     This program is part of the open-source Quantum ESPRESSO suite
     for quantum simulation of materials; please cite
         "P. Giannozzi et al., J. Phys.:Condens. Matter 21 395502 (2009);
          URL http://www.quantum-espresso.org", 
     in publications or presentations arising from this work. More details at
     http://www.quantum-espresso.org/quote.php

     Parallel version (MPI), running on     2 processors
     R & G space division:  proc/pool =    2

     Current dimensions of program PWSCF are:
     Max number of different atomic species (ntypx) = 10
     Max number of k-points (npk) =  40000
     Max angular momentum in pseudopotentials (lmaxx) =  3
     Reading input from CoLaO_U0_a-15.in
               file Co.pbe-nd-rrkjus.UPF: wavefunction(s)  4S 3D renormalized
               file Co.pbe-nd-rrkjus.UPF: wavefunction(s)  4S 3D renormalized
               file O.pbe-rrkjus.UPF: wavefunction(s)  2S renormalized

     Subspace diagonalization in iterative solution of the eigenvalue problem:
     a serial algorithm will be used


     Parallelization info
     --------------------
     sticks:   dense  smooth     PW     G-vecs:    dense   smooth      PW
     Min        1112     444    131                34808     8786    1448
     Max        1113     445    132                34809     8787    1449
     Sum        2225     889    263                69617    17573    2897


     Title: 
     GGA + U, U = 1D-40, alpha = -0.150                                         


     bravais-lattice index     =            5
     lattice parameter (alat)  =      10.3292  a.u.
     unit-cell volume          =     793.0599 (a.u.)^3
     number of atoms/cell      =           10
     number of atomic types    =            4
     number of electrons       =        76.00
     number of Kohn-Sham states=           46
     kinetic-energy cutoff     =      30.0000  Ry
     charge density cutoff     =     300.0000  Ry
     convergence threshold     =      1.0E-08
     mixing beta               =       0.2000
     number of iterations used =            8  plain     mixing
     Exchange-correlation      =  SLA  PW   PBE  PBE ( 1 4 3 4 0)
     EXX-fraction              =        0.00

     celldm(1)=  10.329242  celldm(2)=   0.000000  celldm(3)=   0.000000
     celldm(4)=   0.488100  celldm(5)=   0.000000  celldm(6)=   0.000000

     crystal axes: (cart. coord. in units of alat)
               a(1) = (   0.505915  -0.292090   0.811624 )  
               a(2) = (   0.000000   0.584180   0.811624 )  
               a(3) = (  -0.505915  -0.292090   0.811624 )  

     reciprocal axes: (cart. coord. in units 2 pi/alat)
               b(1) = (  0.988308 -0.570600  0.410699 )  
               b(2) = (  0.000000  1.141200  0.410699 )  
               b(3) = ( -0.988308 -0.570600  0.410699 )  


     PseudoPot. # 1 for Co read from file:
     /home/mcurnan/dft-course/Project1/example_LaCoO3/Co.pbe-nd-rrkjus.UPF
     MD5 check sum: 3e47a84addf5e975e0edeaeee2a73f59
     Pseudo is Ultrasoft + core correction, Zval =  9.0
     Generated by new atomic code, or converted to UPF format
     Using radial grid of  961 points,  6 beta functions with: 
                l(1) =   0
                l(2) =   0
                l(3) =   1
                l(4) =   1
                l(5) =   2
                l(6) =   2
     Q(r) pseudized with 0 coefficients 


     PseudoPot. # 2 for Co read from file:
     /home/mcurnan/dft-course/Project1/example_LaCoO3/Co.pbe-nd-rrkjus.UPF
     MD5 check sum: 3e47a84addf5e975e0edeaeee2a73f59
     Pseudo is Ultrasoft + core correction, Zval =  9.0
     Generated by new atomic code, or converted to UPF format
     Using radial grid of  961 points,  6 beta functions with: 
                l(1) =   0
                l(2) =   0
                l(3) =   1
                l(4) =   1
                l(5) =   2
                l(6) =   2
     Q(r) pseudized with 0 coefficients 


     PseudoPot. # 3 for La read from file:
     /home/mcurnan/dft-course/Project1/example_LaCoO3/La.pbe-nsp-van.UPF
     MD5 check sum: b2f11743f52dde65f77d1302becd7929
     Pseudo is Ultrasoft + core correction, Zval = 11.0
     Generated by new atomic code, or converted to UPF format
     Using radial grid of  907 points,  6 beta functions with: 
                l(1) =   0
                l(2) =   0
                l(3) =   1
                l(4) =   1
                l(5) =   2
                l(6) =   2
     Q(r) pseudized with  6 coefficients,  rinner =    1.200   1.200   1.200
                                                       1.200   1.200

     PseudoPot. # 4 for O  read from file:
     /home/mcurnan/dft-course/Project1/example_LaCoO3/O.pbe-rrkjus.UPF
     MD5 check sum: 390ba29e75625707450f3bd3f0eb6be9
     Pseudo is Ultrasoft, Zval =  6.0
     Generated by new atomic code, or converted to UPF format
     Using radial grid of 1269 points,  4 beta functions with: 
                l(1) =   0
                l(2) =   0
                l(3) =   1
                l(4) =   1
     Q(r) pseudized with 0 coefficients 


     atomic species   valence    mass     pseudopotential
        Co1            9.00     1.00000     Co( 1.00)
        Co2            9.00     1.00000     Co( 1.00)
        La1           11.00     1.00000     La( 1.00)
        O1             6.00     1.00000     O ( 1.00)
 -----
     simplified LDA+U calculation, Hubbard_lmax = 2
     atomic species  L   Hubbard U  Hubbard alpha
        Co1          2    0.000000   -0.150000
        Co2          2    0.000000    0.000000
        La1          2    0.000000    0.000000
        O1           1    0.000000    0.000000
 -----

      6 Sym. Ops., with inversion, found


                                    s                        frac. trans.

      isym =  1     identity                                     

 cryst.   s( 1) = (     1          0          0      )
                  (     0          1          0      )
                  (     0          0          1      )

 cart.    s( 1) = (  1.0000000  0.0000000  0.0000000 )
                  (  0.0000000  1.0000000  0.0000000 )
                  (  0.0000000  0.0000000  1.0000000 )


      isym =  2     120 deg rotation - cryst. axis [0,0,1]       

 cryst.   s( 2) = (     0          1          0      )
                  (     0          0          1      )
                  (     1          0          0      )

 cart.    s( 2) = ( -0.5000000 -0.8660254  0.0000000 )
                  (  0.8660254 -0.5000000  0.0000000 )
                  (  0.0000000  0.0000000  1.0000000 )


      isym =  3     120 deg rotation - cryst. axis [0,0,-1]      

 cryst.   s( 3) = (     0          0          1      )
                  (     1          0          0      )
                  (     0          1          0      )

 cart.    s( 3) = ( -0.5000000  0.8660254  0.0000000 )
                  ( -0.8660254 -0.5000000  0.0000000 )
                  (  0.0000000  0.0000000  1.0000000 )


      isym =  4     inversion                                    

 cryst.   s( 4) = (    -1          0          0      )
                  (     0         -1          0      )
                  (     0          0         -1      )

 cart.    s( 4) = ( -1.0000000  0.0000000  0.0000000 )
                  (  0.0000000 -1.0000000  0.0000000 )
                  (  0.0000000  0.0000000 -1.0000000 )


      isym =  5     inv. 180 deg rotation - cart. axis [0,1,0]   

 cryst.   s( 5) = (     0         -1          0      )
                  (     0          0         -1      )
                  (    -1          0          0      )

 cart.    s( 5) = (  0.5000000  0.8660254  0.0000000 )
                  ( -0.8660254  0.5000000  0.0000000 )
                  (  0.0000000  0.0000000 -1.0000000 )


      isym =  6     inv. 180 deg rotation - cart. axis [1,0,0]   

 cryst.   s( 6) = (     0          0         -1      )
                  (    -1          0          0      )
                  (     0         -1          0      )

 cart.    s( 6) = (  0.5000000 -0.8660254  0.0000000 )
                  (  0.8660254  0.5000000  0.0000000 )
                  (  0.0000000  0.0000000 -1.0000000 )


     point group S_6 (-3)   
     there are  6 classes
     the character table:

       E     C3    C3^2  i     S6^5  S6   
A_g    1.00  1.00  1.00  1.00  1.00  1.00
E_g    1.00 -0.50 -0.50  1.00 -0.50 -0.50
E_g*   1.00 -0.50 -0.50  1.00 -0.50 -0.50
A_u    1.00  1.00  1.00 -1.00 -1.00 -1.00
E_u    1.00 -0.50 -0.50 -1.00  0.50  0.50
E_u*   1.00 -0.50 -0.50 -1.00  0.50  0.50
     imaginary part
A_g    0.00  0.00  0.00  0.00  0.00  0.00
E_g    0.00  0.87 -0.87  0.00  0.87 -0.87
E_g*   0.00 -0.87  0.87  0.00 -0.87  0.87
A_u    0.00  0.00  0.00  0.00  0.00  0.00
E_u    0.00  0.87 -0.87  0.00 -0.87  0.87
E_u*   0.00 -0.87  0.87  0.00  0.87 -0.87

     the symmetry operations in each class:
     E        1
     C3       2
     C3^2     3
     i        4
     S6^5     5
     S6       6

   Cartesian axes

     site n.     atom                  positions (alat units)
         1           Co1 tau(   1) = (   0.0000000   0.0000000   0.0000000  )
         2           Co2 tau(   2) = (   0.0000000   0.0000000   1.2174358  )
         3           La1 tau(   3) = (   0.0000000   0.0000000   0.6087179  )
         4           La1 tau(   4) = (   0.0000000   0.0000000   1.8261537  )
         5           O1  tau(   5) = (  -0.2839701  -0.0933228   1.0141240  )
         6           O1  tau(   6) = (   0.0611651   0.2925867   1.0141240  )
         7           O1  tau(   7) = (   0.2228050  -0.1992639   1.0141240  )
         8           O1  tau(   8) = (  -0.0611651  -0.2925867   1.4207476  )
         9           O1  tau(   9) = (   0.2839701   0.0933228   1.4207476  )
        10           O1  tau(  10) = (  -0.2228050   0.1992639   1.4207476  )

   Crystallographic axes

     site n.     atom                  positions (cryst. coord.)
         1           Co1 tau(   1) = (  0.0000000  0.0000000  0.0000000  )
         2           Co2 tau(   2) = (  0.5000000  0.5000000  0.5000000  )
         3           La1 tau(   3) = (  0.2500000  0.2500000  0.2500000  )
         4           La1 tau(   4) = (  0.7500000  0.7500000  0.7500000  )
         5           O1  tau(   5) = (  0.1891000  0.3100000  0.7504000  )
         6           O1  tau(   6) = (  0.3100000  0.7504000  0.1891000  )
         7           O1  tau(   7) = (  0.7504000  0.1891000  0.3100000  )
         8           O1  tau(   8) = (  0.6900000  0.2496000  0.8109000  )
         9           O1  tau(   9) = (  0.8109000  0.6900000  0.2496000  )
        10           O1  tau(  10) = (  0.2496000  0.8109000  0.6900000  )

     number of k points=    14  gaussian smearing, width (Ry)=  0.0300
                       cart. coord. in units 2pi/alat
        k(    1) = (   0.0000000   0.0000000   0.0000000), wk =   0.0312500
        k(    2) = (  -0.2470771  -0.1426500   0.1026748), wk =   0.1875000
        k(    3) = (   0.4941541   0.2853000  -0.2053496), wk =   0.0937500
        k(    4) = (  -0.2470771   0.1426500   0.2053496), wk =   0.1875000
        k(    5) = (   0.4941541   0.5706001  -0.1026748), wk =   0.1875000
        k(    6) = (   0.2470771   0.4279500   0.0000000), wk =   0.1875000
        k(    7) = (   0.4941541  -0.2853000  -0.4106993), wk =   0.0937500
        k(    8) = (   0.0000000   0.0000000   0.3080244), wk =   0.0625000
        k(    9) = (   0.7412312   0.4279500   0.0000000), wk =   0.1875000
        k(   10) = (   0.4941541   0.2853000   0.1026748), wk =   0.1875000
        k(   11) = (   0.7412312  -0.4279500  -0.3080244), wk =   0.1875000
        k(   12) = (   0.4941541  -0.5706001  -0.2053496), wk =   0.1875000
        k(   13) = (   0.0000000   0.0000000  -0.6160489), wk =   0.0312500
        k(   14) = (   0.4941541  -0.5706001   0.1026748), wk =   0.1875000

                       cryst. coord.
        k(    1) = (   0.0000000   0.0000000   0.0000000), wk =   0.0312500
        k(    2) = (   0.0000000   0.0000000   0.2500000), wk =   0.1875000
        k(    3) = (   0.0000000   0.0000000  -0.5000000), wk =   0.0937500
        k(    4) = (   0.0000000   0.2500000   0.2500000), wk =   0.1875000
        k(    5) = (   0.0000000   0.2500000  -0.5000000), wk =   0.1875000
        k(    6) = (   0.0000000   0.2500000  -0.2500000), wk =   0.1875000
        k(    7) = (   0.0000000  -0.5000000  -0.5000000), wk =   0.0937500
        k(    8) = (   0.2500000   0.2500000   0.2500000), wk =   0.0625000
        k(    9) = (   0.2500000   0.2500000  -0.5000000), wk =   0.1875000
        k(   10) = (   0.2500000   0.2500000  -0.2500000), wk =   0.1875000
        k(   11) = (   0.2500000  -0.5000000  -0.5000000), wk =   0.1875000
        k(   12) = (   0.2500000  -0.5000000  -0.2500000), wk =   0.1875000
        k(   13) = (  -0.5000000  -0.5000000  -0.5000000), wk =   0.0312500
        k(   14) = (   0.5000000  -0.2500000   0.0000000), wk =   0.1875000

     Dense  grid:    69617 G-vectors     FFT dimensions: (  60,  60,  60)

     Smooth grid:    17573 G-vectors     FFT dimensions: (  40,  40,  40)

     Largest allocated arrays     est. size (Mb)     dimensions
        Kohn-Sham Wavefunctions         0.78 Mb     (   1117,   46)
        Atomic wavefunctions            1.06 Mb     (   1117,   62)
        NL pseudopotentials             2.05 Mb     (   1117,  120)
        Each V/rho on FFT grid          1.65 Mb     ( 108000)
        Each G-vector array             0.27 Mb     (  34808)
        G-vector shells                 0.04 Mb     (   4682)
     Largest temporary arrays     est. size (Mb)     dimensions
        Auxiliary wavefunctions         3.14 Mb     (   1117,  184)
        Each subspace H/S matrix        0.52 Mb     ( 184, 184)
        Each <psi_i|beta_j> matrix      0.08 Mb     (    120,   46)
        Arrays for rho mixing          13.18 Mb     ( 108000,   8)

     Check: negative/imaginary core charge=   -0.000028    0.000000

     The initial density is read from file :
     /home/mcurnan/dft-course/Project1/example_LaCoO3/0/Co/alpha/CoLaO_U0.save/charge-density.dat

 --- in v_hubbard ---
Hubbard energy   -0.0884
 -------
     Number of +U iterations with fixed ns =  0
     Starting occupations:
 --- enter write_ns ---
 LDA+U parameters:
U( 1)     =  0.00000000
alpha( 1) = -0.15000000
U( 2)     =  0.00000000
alpha( 2) =  0.00000000
U( 3)     =  0.00000000
alpha( 3) =  0.00000000
U( 4)     =  0.00000000
alpha( 4) =  0.00000000
atom    1   Tr[ns(na)] =   8.02206
    eigenvalues: 
  0.596  0.596  0.938  0.941  0.941
    eigenvectors:
  0.000  0.000  1.000  0.000  0.000
  0.333  0.322  0.000  0.004  0.341
  0.322  0.333  0.000  0.341  0.004
  0.289  0.056  0.000  0.515  0.140
  0.056  0.289  0.000  0.140  0.515
    occupations:
  0.938  0.000  0.000  0.000  0.000
  0.000  0.715  0.000 -0.060  0.152
  0.000  0.000  0.715  0.152  0.060
  0.000 -0.060  0.152  0.822  0.000
  0.000  0.152  0.060  0.000  0.822
atom    2   Tr[ns(na)] =   8.02145
    eigenvalues: 
  0.595  0.595  0.938  0.941  0.941
    eigenvectors:
  0.000  0.000  1.000  0.000  0.000
  0.640  0.015  0.000  0.223  0.122
  0.015  0.640  0.000  0.122  0.223
  0.017  0.329  0.000  0.470  0.185
  0.329  0.017  0.000  0.185  0.470
    occupations:
  0.938  0.000  0.000  0.000  0.000
  0.000  0.715  0.000  0.060  0.153
  0.000  0.000  0.715  0.153 -0.060
  0.000  0.060  0.153  0.822  0.000
  0.000  0.153 -0.060  0.000  0.822
atom    3   Tr[ns(na)] =   3.80284
    eigenvalues: 
  0.355  0.355  0.384  0.403  0.403
    eigenvectors:
  0.000  0.000  1.000  0.000  0.000
  0.781  0.139  0.000  0.012  0.068
  0.139  0.781  0.000  0.068  0.012
  0.013  0.067  0.000  0.780  0.141
  0.067  0.013  0.000  0.141  0.780
    occupations:
  0.384  0.000  0.000  0.000  0.000
  0.000  0.359  0.000  0.000  0.013
  0.000  0.000  0.359  0.013  0.000
  0.000  0.000  0.013  0.399  0.000
  0.000  0.013  0.000  0.000  0.399
atom    4   Tr[ns(na)] =   3.80284
    eigenvalues: 
  0.355  0.355  0.384  0.403  0.403
    eigenvectors:
  0.000  0.000  1.000  0.000  0.000
  0.782  0.139  0.000  0.012  0.068
  0.139  0.782  0.000  0.068  0.012
  0.012  0.067  0.000  0.780  0.141
  0.067  0.012  0.000  0.141  0.780
    occupations:
  0.384  0.000  0.000  0.000  0.000
  0.000  0.359  0.000  0.000  0.013
  0.000  0.000  0.359  0.013  0.000
  0.000  0.000  0.013  0.399  0.000
  0.000  0.013  0.000  0.000  0.399
atom    5   Tr[ns(na)] =   5.43357
    eigenvalues: 
  0.846  0.929  0.941
    eigenvectors:
  0.340  0.000  0.660
  0.494  0.250  0.256
  0.166  0.750  0.085
    occupations:
  0.909  0.039  0.022
  0.039  0.891 -0.022
  0.022 -0.022  0.917
atom    6   Tr[ns(na)] =   5.43357
    eigenvalues: 
  0.846  0.929  0.941
    eigenvectors:
  0.340  0.000  0.660
  0.000  1.000  0.000
  0.660  0.000  0.340
    occupations:
  0.909  0.000 -0.045
  0.000  0.929  0.000
 -0.045  0.000  0.879
atom    7   Tr[ns(na)] =   5.43357
    eigenvalues: 
  0.846  0.929  0.941
    eigenvectors:
  0.340  0.000  0.660
  0.496  0.250  0.255
  0.164  0.750  0.086
    occupations:
  0.909 -0.039  0.022
 -0.039  0.891  0.022
  0.022  0.022  0.917
atom    8   Tr[ns(na)] =   5.43357
    eigenvalues: 
  0.846  0.929  0.941
    eigenvectors:
  0.340  0.000  0.660
  0.000  1.000  0.000
  0.660  0.000  0.340
    occupations:
  0.909  0.000 -0.045
  0.000  0.929  0.000
 -0.045  0.000  0.879
atom    9   Tr[ns(na)] =   5.43357
    eigenvalues: 
  0.846  0.929  0.941
    eigenvectors:
  0.340  0.000  0.660
  0.494  0.250  0.256
  0.166  0.750  0.085
    occupations:
  0.909  0.039  0.022
  0.039  0.891 -0.022
  0.022 -0.022  0.917
atom   10   Tr[ns(na)] =   5.43357
    eigenvalues: 
  0.846  0.929  0.941
    eigenvectors:
  0.340  0.000  0.660
  0.496  0.250  0.255
  0.164  0.750  0.086
    occupations:
  0.909 -0.039  0.022
 -0.039  0.891  0.022
  0.022  0.022  0.917
N of occupied +U levels =  56.2506062
 --- exit write_ns ---
 LDA+U Projector read from file 
     Starting wfc from file

     total cpu time spent up to now is        7.8 secs

     per-process dynamical memory:    46.9 Mb

     Self-consistent Calculation

     iteration #  1     ecut=    30.00 Ry     beta=0.20
     Davidson diagonalization with overlap
     c_bands:  1 eigenvalues not converged
     c_bands:  1 eigenvalues not converged
     c_bands:  1 eigenvalues not converged
     c_bands:  1 eigenvalues not converged
     c_bands:  1 eigenvalues not converged
     c_bands:  1 eigenvalues not converged
     c_bands:  1 eigenvalues not converged
     ethr =  1.00E-10,  avg # of iterations = 15.4
 --- enter write_ns ---
 LDA+U parameters:
U( 1)     =  0.00000000
alpha( 1) = -0.15000000
U( 2)     =  0.00000000
alpha( 2) =  0.00000000
U( 3)     =  0.00000000
alpha( 3) =  0.00000000
U( 4)     =  0.00000000
alpha( 4) =  0.00000000
atom    1   Tr[ns(na)] =   8.14448
    eigenvalues: 
  0.610  0.610  0.950  0.952  0.952
    eigenvectors:
  0.000  0.000  1.000  0.000  0.000
  0.335  0.320  0.000  0.003  0.343
  0.320  0.335  0.000  0.343  0.003
  0.291  0.055  0.000  0.516  0.139
  0.055  0.291  0.000  0.139  0.516
    occupations:
  0.950  0.000  0.000  0.000  0.000
  0.000  0.728  0.000 -0.062  0.151
  0.000  0.000  0.728  0.151  0.062
  0.000 -0.062  0.151  0.833  0.000
  0.000  0.151  0.062  0.000  0.833
atom    2   Tr[ns(na)] =   7.94847
    eigenvalues: 
  0.592  0.592  0.927  0.931  0.931
    eigenvectors:
  0.000  0.000  1.000  0.000  0.000
  0.635  0.019  0.000  0.218  0.127
  0.019  0.635  0.000  0.127  0.218
  0.012  0.334  0.000  0.469  0.185
  0.334  0.012  0.000  0.185  0.469
    occupations:
  0.927  0.000  0.000  0.000  0.000
  0.000  0.709  0.000  0.056  0.151
  0.000  0.000  0.709  0.151 -0.056
  0.000  0.056  0.151  0.814  0.000
  0.000  0.151 -0.056  0.000  0.814
atom    3   Tr[ns(na)] =   3.80171
    eigenvalues: 
  0.355  0.355  0.384  0.403  0.403
    eigenvectors:
  0.000  0.000  1.000  0.000  0.000
  0.781  0.140  0.000  0.011  0.068
  0.140  0.781  0.000  0.068  0.011
  0.013  0.067  0.000  0.780  0.141
  0.067  0.013  0.000  0.141  0.780
    occupations:
  0.384  0.000  0.000  0.000  0.000
  0.000  0.359  0.000  0.000  0.013
  0.000  0.000  0.359  0.013  0.000
  0.000  0.000  0.013  0.399  0.000
  0.000  0.013  0.000  0.000  0.399
atom    4   Tr[ns(na)] =   3.80171
    eigenvalues: 
  0.355  0.355  0.384  0.403  0.403
    eigenvectors:
  0.000  0.000  1.000  0.000  0.000
  0.781  0.139  0.000  0.011  0.068
  0.139  0.781  0.000  0.068  0.011
  0.013  0.067  0.000  0.780  0.141
  0.067  0.013  0.000  0.141  0.780
    occupations:
  0.384  0.000  0.000  0.000  0.000
  0.000  0.359  0.000  0.000  0.013
  0.000  0.000  0.359  0.013  0.000
  0.000  0.000  0.013  0.399  0.000
  0.000  0.013  0.000  0.000  0.399
atom    5   Tr[ns(na)] =   5.42686
    eigenvalues: 
  0.844  0.929  0.941
    eigenvectors:
  0.341  0.000  0.659
  0.488  0.257  0.255
  0.171  0.743  0.086
    occupations:
  0.908  0.039  0.023
  0.039  0.890 -0.023
  0.023 -0.023  0.915
atom    6   Tr[ns(na)] =   5.42686
    eigenvalues: 
  0.844  0.929  0.941
    eigenvectors:
  0.341  0.000  0.659
  0.000  1.000  0.000
  0.659  0.000  0.341
    occupations:
  0.908  0.000 -0.046
  0.000  0.929  0.001
 -0.046  0.001  0.877
atom    7   Tr[ns(na)] =   5.42686
    eigenvalues: 
  0.844  0.929  0.941
    eigenvectors:
  0.341  0.000  0.659
  0.501  0.243  0.256
  0.159  0.757  0.084
    occupations:
  0.908 -0.040  0.022
 -0.040  0.889  0.022
  0.022  0.022  0.916
atom    8   Tr[ns(na)] =   5.42686
    eigenvalues: 
  0.844  0.929  0.941
    eigenvectors:
  0.341  0.000  0.659
  0.000  1.000  0.000
  0.659  0.000  0.341
    occupations:
  0.908  0.000 -0.046
  0.000  0.929  0.001
 -0.046  0.001  0.877
atom    9   Tr[ns(na)] =   5.42686
    eigenvalues: 
  0.844  0.929  0.941
    eigenvectors:
  0.341  0.000  0.659
  0.488  0.257  0.255
  0.171  0.743  0.086
    occupations:
  0.908  0.039  0.023
  0.039  0.890 -0.023
  0.023 -0.023  0.915
atom   10   Tr[ns(na)] =   5.42686
    eigenvalues: 
  0.844  0.929  0.941
    eigenvectors:
  0.341  0.000  0.659
  0.501  0.243  0.256
  0.159  0.757  0.084
    occupations:
  0.908 -0.040  0.022
 -0.040  0.889  0.022
  0.022  0.022  0.916
N of occupied +U levels =  56.2575369
 --- exit write_ns ---
 --- in v_hubbard ---
Hubbard energy   -0.0887
 -------

     total cpu time spent up to now is       36.2 secs

     total energy              =    -538.41641306 Ry
     Harris-Foulkes estimate   =    -538.42217870 Ry
     estimated scf accuracy    <       0.01664033 Ry

     iteration #  2     ecut=    30.00 Ry     beta=0.20
     Davidson diagonalization with overlap
     ethr =  2.19E-05,  avg # of iterations =  2.1
 --- enter write_ns ---
 LDA+U parameters:
U( 1)     =  0.00000000
alpha( 1) = -0.15000000
U( 2)     =  0.00000000
alpha( 2) =  0.00000000
U( 3)     =  0.00000000
alpha( 3) =  0.00000000
U( 4)     =  0.00000000
alpha( 4) =  0.00000000
atom    1   Tr[ns(na)] =   7.54626
    eigenvalues: 
  0.572  0.572  0.872  0.879  0.879
    eigenvectors:
  0.000  0.000  1.000  0.000  0.000
  0.321  0.334  0.000  0.012  0.333
  0.334  0.321  0.000  0.333  0.012
  0.275  0.070  0.000  0.505  0.150
  0.070  0.275  0.000  0.150  0.505
    occupations:
  0.872  0.000  0.000  0.000  0.000
  0.000  0.678  0.000 -0.044  0.139
  0.000  0.000  0.678  0.139  0.044
  0.000 -0.044  0.139  0.773  0.000
  0.000  0.139  0.044  0.000  0.773
atom    2   Tr[ns(na)] =   8.46205
    eigenvalues: 
  0.651  0.651  0.976  0.976  0.977
    eigenvectors:
  0.000  0.000  0.000  0.000  1.000
  0.648  0.007  0.241  0.104  0.000
  0.007  0.648  0.104  0.241  0.000
  0.037  0.309  0.473  0.181  0.000
  0.309  0.037  0.181  0.473  0.000
    occupations:
  0.977  0.000  0.000  0.000  0.000
  0.000  0.763  0.000  0.065  0.140
  0.000  0.000  0.763  0.140 -0.065
  0.000  0.065  0.140  0.864  0.000
  0.000  0.140 -0.065  0.000  0.864
atom    3   Tr[ns(na)] =   3.80180
    eigenvalues: 
  0.355  0.355  0.384  0.403  0.403
    eigenvectors:
  0.000  0.000  1.000  0.000  0.000
  0.782  0.138  0.000  0.013  0.066
  0.138  0.782  0.000  0.066  0.013
  0.011  0.069  0.000  0.780  0.141
  0.069  0.011  0.000  0.141  0.780
    occupations:
  0.384  0.000  0.000  0.000  0.000
  0.000  0.359  0.000  0.000  0.013
  0.000  0.000  0.359  0.013  0.000
  0.000  0.000  0.013  0.399  0.000
  0.000  0.013  0.000  0.000  0.399
atom    4   Tr[ns(na)] =   3.80180
    eigenvalues: 
  0.355  0.355  0.384  0.403  0.403
    eigenvectors:
  0.000  0.000  1.000  0.000  0.000
  0.782  0.138  0.000  0.013  0.066
  0.138  0.782  0.000  0.066  0.013
  0.011  0.069  0.000  0.779  0.141
  0.069  0.011  0.000  0.141  0.779
    occupations:
  0.384  0.000  0.000  0.000  0.000
  0.000  0.359  0.000  0.000  0.013
  0.000  0.000  0.359  0.013  0.000
  0.000  0.000  0.013  0.399  0.000
  0.000  0.013  0.000  0.000  0.399
atom    5   Tr[ns(na)] =   5.43657
    eigenvalues: 
  0.848  0.929  0.940
    eigenvectors:
  0.340  0.000  0.660
  0.513  0.223  0.264
  0.147  0.777  0.076
    occupations:
  0.909  0.038  0.021
  0.038  0.891 -0.021
  0.021 -0.021  0.918
atom    6   Tr[ns(na)] =   5.43657
    eigenvalues: 
  0.848  0.929  0.940
    eigenvectors:
  0.340  0.000  0.660
  0.001  0.999  0.000
  0.659  0.001  0.340
    occupations:
  0.909 -0.001 -0.044
 -0.001  0.929 -0.002
 -0.044 -0.002  0.880
atom    7   Tr[ns(na)] =   5.43657
    eigenvalues: 
  0.848  0.929  0.940
    eigenvectors:
  0.340  0.000  0.660
  0.476  0.278  0.246
  0.183  0.722  0.094
    occupations:
  0.909 -0.037  0.023
 -0.037  0.894  0.022
  0.023  0.022  0.916
atom    8   Tr[ns(na)] =   5.43657
    eigenvalues: 
  0.848  0.929  0.940
    eigenvectors:
  0.340  0.000  0.660
  0.001  0.999  0.000
  0.659  0.001  0.340
    occupations:
  0.909 -0.001 -0.044
 -0.001  0.929 -0.002
 -0.044 -0.002  0.880
atom    9   Tr[ns(na)] =   5.43657
    eigenvalues: 
  0.848  0.929  0.940
    eigenvectors:
  0.340  0.000  0.660
  0.513  0.223  0.264
  0.147  0.777  0.076
    occupations:
  0.909  0.038  0.021
  0.038  0.891 -0.021
  0.021 -0.021  0.918
atom   10   Tr[ns(na)] =   5.43657
    eigenvalues: 
  0.848  0.929  0.940
    eigenvectors:
  0.340  0.000  0.660
  0.476  0.278  0.246
  0.183  0.722  0.094
    occupations:
  0.909 -0.037  0.023
 -0.037  0.894  0.022
  0.023  0.022  0.916
N of occupied +U levels =  56.2313016
 --- exit write_ns ---
 --- in v_hubbard ---
Hubbard energy   -0.0885
 -------

     total cpu time spent up to now is       48.0 secs

     total energy              =    -538.40811853 Ry
     Harris-Foulkes estimate   =    -538.43546436 Ry
     estimated scf accuracy    <       0.45154516 Ry

     iteration #  3     ecut=    30.00 Ry     beta=0.20
     Davidson diagonalization with overlap
     ethr =  2.19E-05,  avg # of iterations =  2.0
 --- enter write_ns ---
 LDA+U parameters:
U( 1)     =  0.00000000
alpha( 1) = -0.15000000
U( 2)     =  0.00000000
alpha( 2) =  0.00000000
U( 3)     =  0.00000000
alpha( 3) =  0.00000000
U( 4)     =  0.00000000
alpha( 4) =  0.00000000
atom    1   Tr[ns(na)] =   8.04063
    eigenvalues: 
  0.598  0.598  0.940  0.943  0.943
    eigenvectors:
  0.000  0.000  1.000  0.000  0.000
  0.333  0.322  0.000  0.004  0.342
  0.322  0.333  0.000  0.342  0.004
  0.289  0.056  0.000  0.515  0.140
  0.056  0.289  0.000  0.140  0.515
    occupations:
  0.940  0.000  0.000  0.000  0.000
  0.000  0.717  0.000 -0.060  0.152
  0.000  0.000  0.717  0.152  0.060
  0.000 -0.060  0.152  0.823  0.000
  0.000  0.152  0.060  0.000  0.823
atom    2   Tr[ns(na)] =   8.01434
    eigenvalues: 
  0.594  0.594  0.937  0.940  0.940
    eigenvectors:
  0.000  0.000  1.000  0.000  0.000
  0.639  0.015  0.000  0.222  0.123
  0.015  0.639  0.000  0.123  0.222
  0.016  0.329  0.000  0.470  0.185
  0.329  0.016  0.000  0.185  0.470
    occupations:
  0.937  0.000  0.000  0.000  0.000
  0.000  0.714  0.000  0.060  0.153
  0.000  0.000  0.714  0.153 -0.060
  0.000  0.060  0.153  0.821  0.000
  0.000  0.153 -0.060  0.000  0.821
atom    3   Tr[ns(na)] =   3.80148
    eigenvalues: 
  0.355  0.355  0.384  0.403  0.403
    eigenvectors:
  0.000  0.000  1.000  0.000  0.000
  0.781  0.139  0.000  0.012  0.068
  0.139  0.781  0.000  0.068  0.012
  0.013  0.067  0.000  0.780  0.141
  0.067  0.013  0.000  0.141  0.780
    occupations:
  0.384  0.000  0.000  0.000  0.000
  0.000  0.359  0.000  0.000  0.013
  0.000  0.000  0.359  0.013  0.000
  0.000  0.000  0.013  0.399  0.000
  0.000  0.013  0.000  0.000  0.399
atom    4   Tr[ns(na)] =   3.80148
    eigenvalues: 
  0.355  0.355  0.384  0.403  0.403
    eigenvectors:
  0.000  0.000  1.000  0.000  0.000
  0.782  0.139  0.000  0.012  0.068
  0.139  0.782  0.000  0.068  0.012
  0.013  0.067  0.000  0.780  0.141
  0.067  0.013  0.000  0.141  0.780
    occupations:
  0.384  0.000  0.000  0.000  0.000
  0.000  0.359  0.000  0.000  0.013
  0.000  0.000  0.359  0.013  0.000
  0.000  0.000  0.013  0.399  0.000
  0.000  0.013  0.000  0.000  0.399
atom    5   Tr[ns(na)] =   5.43293
    eigenvalues: 
  0.846  0.929  0.941
    eigenvectors:
  0.340  0.000  0.660
  0.493  0.251  0.256
  0.167  0.749  0.085
    occupations:
  0.909  0.039  0.023
  0.039  0.891 -0.022
  0.023 -0.022  0.916
atom    6   Tr[ns(na)] =   5.43293
    eigenvalues: 
  0.846  0.929  0.941
    eigenvectors:
  0.340  0.000  0.660
  0.000  1.000  0.000
  0.660  0.000  0.340
    occupations:
  0.909  0.000 -0.045
  0.000  0.929  0.000
 -0.045  0.000  0.878
atom    7   Tr[ns(na)] =   5.43293
    eigenvalues: 
  0.846  0.929  0.941
    eigenvectors:
  0.340  0.000  0.660
  0.497  0.249  0.255
  0.163  0.751  0.086
    occupations:
  0.909 -0.039  0.022
 -0.039  0.891  0.022
  0.022  0.022  0.917
atom    8   Tr[ns(na)] =   5.43293
    eigenvalues: 
  0.846  0.929  0.941
    eigenvectors:
  0.340  0.000  0.660
  0.000  1.000  0.000
  0.660  0.000  0.340
    occupations:
  0.909  0.000 -0.045
  0.000  0.929  0.000
 -0.045  0.000  0.878
atom    9   Tr[ns(na)] =   5.43293
    eigenvalues: 
  0.846  0.929  0.941
    eigenvectors:
  0.340  0.000  0.660
  0.493  0.251  0.256
  0.167  0.749  0.085
    occupations:
  0.909  0.039  0.023
  0.039  0.891 -0.022
  0.023 -0.022  0.916
atom   10   Tr[ns(na)] =   5.43293
    eigenvalues: 
  0.846  0.929  0.941
    eigenvectors:
  0.340  0.000  0.660
  0.497  0.249  0.255
  0.163  0.751  0.086
    occupations:
  0.909 -0.039  0.022
 -0.039  0.891  0.022
  0.022  0.022  0.917
N of occupied +U levels =  56.2554712
 --- exit write_ns ---
 --- in v_hubbard ---
Hubbard energy   -0.0885
 -------

     total cpu time spent up to now is       59.4 secs

     total energy              =    -538.42156120 Ry
     Harris-Foulkes estimate   =    -538.42156348 Ry
     estimated scf accuracy    <       0.00004924 Ry

     iteration #  4     ecut=    30.00 Ry     beta=0.20
     Davidson diagonalization with overlap
     ethr =  6.48E-08,  avg # of iterations =  3.9
 --- enter write_ns ---
 LDA+U parameters:
U( 1)     =  0.00000000
alpha( 1) = -0.15000000
U( 2)     =  0.00000000
alpha( 2) =  0.00000000
U( 3)     =  0.00000000
alpha( 3) =  0.00000000
U( 4)     =  0.00000000
alpha( 4) =  0.00000000
atom    1   Tr[ns(na)] =   8.04220
    eigenvalues: 
  0.598  0.598  0.940  0.942  0.942
    eigenvectors:
  0.000  0.000  1.000  0.000  0.000
  0.333  0.322  0.000  0.004  0.341
  0.322  0.333  0.000  0.341  0.004
  0.289  0.057  0.000  0.515  0.140
  0.057  0.289  0.000  0.140  0.515
    occupations:
  0.940  0.000  0.000  0.000  0.000
  0.000  0.717  0.000 -0.060  0.152
  0.000  0.000  0.717  0.152  0.060
  0.000 -0.060  0.152  0.824  0.000
  0.000  0.152  0.060  0.000  0.824
atom    2   Tr[ns(na)] =   8.02082
    eigenvalues: 
  0.595  0.595  0.938  0.941  0.941
    eigenvectors:
  0.000  0.000  1.000  0.000  0.000
  0.639  0.016  0.000  0.222  0.123
  0.016  0.639  0.000  0.123  0.222
  0.016  0.330  0.000  0.470  0.185
  0.330  0.016  0.000  0.185  0.470
    occupations:
  0.938  0.000  0.000  0.000  0.000
  0.000  0.715  0.000  0.060  0.153
  0.000  0.000  0.715  0.153 -0.060
  0.000  0.060  0.153  0.822  0.000
  0.000  0.153 -0.060  0.000  0.822
atom    3   Tr[ns(na)] =   3.80166
    eigenvalues: 
  0.355  0.355  0.384  0.403  0.403
    eigenvectors:
  0.000  0.000  1.000  0.000  0.000
  0.781  0.139  0.000  0.012  0.068
  0.139  0.781  0.000  0.068  0.012
  0.013  0.067  0.000  0.780  0.141
  0.067  0.013  0.000  0.141  0.780
    occupations:
  0.384  0.000  0.000  0.000  0.000
  0.000  0.359  0.000  0.000  0.013
  0.000  0.000  0.359  0.013  0.000
  0.000  0.000  0.013  0.399  0.000
  0.000  0.013  0.000  0.000  0.399
atom    4   Tr[ns(na)] =   3.80166
    eigenvalues: 
  0.355  0.355  0.384  0.403  0.403
    eigenvectors:
  0.000  0.000  1.000  0.000  0.000
  0.781  0.139  0.000  0.012  0.068
  0.139  0.781  0.000  0.068  0.012
  0.013  0.067  0.000  0.780  0.141
  0.067  0.013  0.000  0.141  0.780
    occupations:
  0.384  0.000  0.000  0.000  0.000
  0.000  0.359  0.000  0.000  0.013
  0.000  0.000  0.359  0.013  0.000
  0.000  0.000  0.013  0.399  0.000
  0.000  0.013  0.000  0.000  0.399
atom    5   Tr[ns(na)] =   5.43165
    eigenvalues: 
  0.846  0.929  0.941
    eigenvectors:
  0.340  0.000  0.660
  0.493  0.251  0.256
  0.167  0.749  0.084
    occupations:
  0.909  0.039  0.023
  0.039  0.891 -0.022
  0.023 -0.022  0.916
atom    6   Tr[ns(na)] =   5.43165
    eigenvalues: 
  0.846  0.929  0.941
    eigenvectors:
  0.340  0.000  0.660
  0.000  1.000  0.000
  0.660  0.000  0.340
    occupations:
  0.909  0.000 -0.045
  0.000  0.929  0.000
 -0.045  0.000  0.878
atom    7   Tr[ns(na)] =   5.43165
    eigenvalues: 
  0.846  0.929  0.941
    eigenvectors:
  0.340  0.000  0.660
  0.497  0.249  0.255
  0.163  0.751  0.086
    occupations:
  0.909 -0.039  0.022
 -0.039  0.891  0.022
  0.022  0.022  0.917
atom    8   Tr[ns(na)] =   5.43165
    eigenvalues: 
  0.846  0.929  0.941
    eigenvectors:
  0.340  0.000  0.660
  0.000  1.000  0.000
  0.660  0.000  0.340
    occupations:
  0.909  0.000 -0.045
  0.000  0.929  0.000
 -0.045  0.000  0.878
atom    9   Tr[ns(na)] =   5.43165
    eigenvalues: 
  0.846  0.929  0.941
    eigenvectors:
  0.340  0.000  0.660
  0.493  0.251  0.256
  0.167  0.749  0.084
    occupations:
  0.909  0.039  0.023
  0.039  0.891 -0.022
  0.023 -0.022  0.916
atom   10   Tr[ns(na)] =   5.43165
    eigenvalues: 
  0.846  0.929  0.941
    eigenvectors:
  0.340  0.000  0.660
  0.497  0.249  0.255
  0.163  0.751  0.086
    occupations:
  0.909 -0.039  0.022
 -0.039  0.891  0.022
  0.022  0.022  0.917
N of occupied +U levels =  56.2562360
 --- exit write_ns ---
 --- in v_hubbard ---
Hubbard energy   -0.0886
 -------

     total cpu time spent up to now is       74.1 secs

     total energy              =    -538.42158960 Ry
     Harris-Foulkes estimate   =    -538.42158488 Ry
     estimated scf accuracy    <       0.00000442 Ry

     iteration #  5     ecut=    30.00 Ry     beta=0.20
     Davidson diagonalization with overlap
     ethr =  5.81E-09,  avg # of iterations =  1.6
 --- enter write_ns ---
 LDA+U parameters:
U( 1)     =  0.00000000
alpha( 1) = -0.15000000
U( 2)     =  0.00000000
alpha( 2) =  0.00000000
U( 3)     =  0.00000000
alpha( 3) =  0.00000000
U( 4)     =  0.00000000
alpha( 4) =  0.00000000
atom    1   Tr[ns(na)] =   8.04134
    eigenvalues: 
  0.598  0.598  0.940  0.942  0.942
    eigenvectors:
  0.000  0.000  1.000  0.000  0.000
  0.333  0.322  0.000  0.004  0.341
  0.322  0.333  0.000  0.341  0.004
  0.289  0.056  0.000  0.515  0.140
  0.056  0.289  0.000  0.140  0.515
    occupations:
  0.940  0.000  0.000  0.000  0.000
  0.000  0.717  0.000 -0.060  0.152
  0.000  0.000  0.717  0.152  0.060
  0.000 -0.060  0.152  0.824  0.000
  0.000  0.152  0.060  0.000  0.824
atom    2   Tr[ns(na)] =   8.02098
    eigenvalues: 
  0.595  0.595  0.938  0.941  0.941
    eigenvectors:
  0.000  0.000  1.000  0.000  0.000
  0.639  0.016  0.000  0.222  0.123
  0.016  0.639  0.000  0.123  0.222
  0.016  0.330  0.000  0.470  0.185
  0.330  0.016  0.000  0.185  0.470
    occupations:
  0.938  0.000  0.000  0.000  0.000
  0.000  0.715  0.000  0.060  0.153
  0.000  0.000  0.715  0.153 -0.060
  0.000  0.060  0.153  0.822  0.000
  0.000  0.153 -0.060  0.000  0.822
atom    3   Tr[ns(na)] =   3.80171
    eigenvalues: 
  0.355  0.355  0.384  0.403  0.403
    eigenvectors:
  0.000  0.000  1.000  0.000  0.000
  0.782  0.139  0.000  0.012  0.068
  0.139  0.782  0.000  0.068  0.012
  0.013  0.067  0.000  0.780  0.141
  0.067  0.013  0.000  0.141  0.780
    occupations:
  0.384  0.000  0.000  0.000  0.000
  0.000  0.359  0.000  0.000  0.013
  0.000  0.000  0.359  0.013  0.000
  0.000  0.000  0.013  0.399  0.000
  0.000  0.013  0.000  0.000  0.399
atom    4   Tr[ns(na)] =   3.80171
    eigenvalues: 
  0.355  0.355  0.384  0.403  0.403
    eigenvectors:
  0.000  0.000  1.000  0.000  0.000
  0.781  0.139  0.000  0.012  0.068
  0.139  0.781  0.000  0.068  0.012
  0.013  0.067  0.000  0.780  0.141
  0.067  0.013  0.000  0.141  0.780
    occupations:
  0.384  0.000  0.000  0.000  0.000
  0.000  0.359  0.000  0.000  0.013
  0.000  0.000  0.359  0.013  0.000
  0.000  0.000  0.013  0.399  0.000
  0.000  0.013  0.000  0.000  0.399
atom    5   Tr[ns(na)] =   5.43174
    eigenvalues: 
  0.846  0.929  0.941
    eigenvectors:
  0.340  0.000  0.660
  0.493  0.251  0.256
  0.167  0.749  0.084
    occupations:
  0.909  0.039  0.023
  0.039  0.891 -0.022
  0.023 -0.022  0.916
atom    6   Tr[ns(na)] =   5.43174
    eigenvalues: 
  0.846  0.929  0.941
    eigenvectors:
  0.340  0.000  0.660
  0.000  1.000  0.000
  0.660  0.000  0.340
    occupations:
  0.909  0.000 -0.045
  0.000  0.929  0.000
 -0.045  0.000  0.878
atom    7   Tr[ns(na)] =   5.43174
    eigenvalues: 
  0.846  0.929  0.941
    eigenvectors:
  0.340  0.000  0.660
  0.497  0.249  0.255
  0.163  0.751  0.086
    occupations:
  0.909 -0.039  0.022
 -0.039  0.891  0.022
  0.022  0.022  0.917
atom    8   Tr[ns(na)] =   5.43174
    eigenvalues: 
  0.846  0.929  0.941
    eigenvectors:
  0.340  0.000  0.660
  0.000  1.000  0.000
  0.660  0.000  0.340
    occupations:
  0.909  0.000 -0.045
  0.000  0.929  0.000
 -0.045  0.000  0.878
atom    9   Tr[ns(na)] =   5.43174
    eigenvalues: 
  0.846  0.929  0.941
    eigenvectors:
  0.340  0.000  0.660
  0.493  0.251  0.256
  0.167  0.749  0.084
    occupations:
  0.909  0.039  0.023
  0.039  0.891 -0.022
  0.023 -0.022  0.916
atom   10   Tr[ns(na)] =   5.43174
    eigenvalues: 
  0.846  0.929  0.941
    eigenvectors:
  0.340  0.000  0.660
  0.497  0.249  0.255
  0.163  0.751  0.086
    occupations:
  0.909 -0.039  0.022
 -0.039  0.891  0.022
  0.022  0.022  0.917
N of occupied +U levels =  56.2562222
 --- exit write_ns ---
 --- in v_hubbard ---
Hubbard energy   -0.0886
 -------

     total cpu time spent up to now is       87.5 secs

     total energy              =    -538.42159236 Ry
     Harris-Foulkes estimate   =    -538.42158973 Ry
     estimated scf accuracy    <       0.00000204 Ry

     iteration #  6     ecut=    30.00 Ry     beta=0.20
     Davidson diagonalization with overlap
     ethr =  2.68E-09,  avg # of iterations =  1.9
 --- enter write_ns ---
 LDA+U parameters:
U( 1)     =  0.00000000
alpha( 1) = -0.15000000
U( 2)     =  0.00000000
alpha( 2) =  0.00000000
U( 3)     =  0.00000000
alpha( 3) =  0.00000000
U( 4)     =  0.00000000
alpha( 4) =  0.00000000
atom    1   Tr[ns(na)] =   8.04078
    eigenvalues: 
  0.598  0.598  0.940  0.942  0.942
    eigenvectors:
  0.000  0.000  1.000  0.000  0.000
  0.333  0.322  0.000  0.004  0.341
  0.322  0.333  0.000  0.341  0.004
  0.289  0.056  0.000  0.515  0.140
  0.056  0.289  0.000  0.140  0.515
    occupations:
  0.940  0.000  0.000  0.000  0.000
  0.000  0.717  0.000 -0.060  0.152
  0.000  0.000  0.717  0.152  0.060
  0.000 -0.060  0.152  0.823  0.000
  0.000  0.152  0.060  0.000  0.823
atom    2   Tr[ns(na)] =   8.02148
    eigenvalues: 
  0.596  0.596  0.938  0.941  0.941
    eigenvectors:
  0.000  0.000  1.000  0.000  0.000
  0.639  0.016  0.000  0.222  0.123
  0.016  0.639  0.000  0.123  0.222
  0.016  0.329  0.000  0.470  0.185
  0.329  0.016  0.000  0.185  0.470
    occupations:
  0.938  0.000  0.000  0.000  0.000
  0.000  0.715  0.000  0.060  0.153
  0.000  0.000  0.715  0.153 -0.060
  0.000  0.060  0.153  0.822  0.000
  0.000  0.153 -0.060  0.000  0.822
atom    3   Tr[ns(na)] =   3.80190
    eigenvalues: 
  0.355  0.355  0.384  0.403  0.403
    eigenvectors:
  0.000  0.000  1.000  0.000  0.000
  0.781  0.139  0.000  0.012  0.068
  0.139  0.781  0.000  0.068  0.012
  0.013  0.067  0.000  0.780  0.141
  0.067  0.013  0.000  0.141  0.780
    occupations:
  0.384  0.000  0.000  0.000  0.000
  0.000  0.359  0.000  0.000  0.013
  0.000  0.000  0.359  0.013  0.000
  0.000  0.000  0.013  0.399  0.000
  0.000  0.013  0.000  0.000  0.399
atom    4   Tr[ns(na)] =   3.80190
    eigenvalues: 
  0.355  0.355  0.384  0.403  0.403
    eigenvectors:
  0.000  0.000  1.000  0.000  0.000
  0.782  0.139  0.000  0.012  0.068
  0.139  0.782  0.000  0.068  0.012
  0.013  0.067  0.000  0.780  0.141
  0.067  0.013  0.000  0.141  0.780
    occupations:
  0.384  0.000  0.000  0.000  0.000
  0.000  0.359  0.000  0.000  0.013
  0.000  0.000  0.359  0.013  0.000
  0.000  0.000  0.013  0.399  0.000
  0.000  0.013  0.000  0.000  0.399
atom    5   Tr[ns(na)] =   5.43171
    eigenvalues: 
  0.846  0.929  0.941
    eigenvectors:
  0.340  0.000  0.660
  0.493  0.251  0.256
  0.167  0.749  0.084
    occupations:
  0.909  0.039  0.023
  0.039  0.891 -0.022
  0.023 -0.022  0.916
atom    6   Tr[ns(na)] =   5.43171
    eigenvalues: 
  0.846  0.929  0.941
    eigenvectors:
  0.340  0.000  0.660
  0.000  1.000  0.000
  0.660  0.000  0.340
    occupations:
  0.909  0.000 -0.045
  0.000  0.929  0.000
 -0.045  0.000  0.878
atom    7   Tr[ns(na)] =   5.43171
    eigenvalues: 
  0.846  0.929  0.941
    eigenvectors:
  0.340  0.000  0.660
  0.497  0.249  0.255
  0.163  0.751  0.086
    occupations:
  0.909 -0.039  0.022
 -0.039  0.891  0.022
  0.022  0.022  0.917
atom    8   Tr[ns(na)] =   5.43171
    eigenvalues: 
  0.846  0.929  0.941
    eigenvectors:
  0.340  0.000  0.660
  0.000  1.000  0.000
  0.660  0.000  0.340
    occupations:
  0.909  0.000 -0.045
  0.000  0.929  0.000
 -0.045  0.000  0.878
atom    9   Tr[ns(na)] =   5.43171
    eigenvalues: 
  0.846  0.929  0.941
    eigenvectors:
  0.340  0.000  0.660
  0.493  0.251  0.256
  0.167  0.749  0.084
    occupations:
  0.909  0.039  0.023
  0.039  0.891 -0.022
  0.023 -0.022  0.916
atom   10   Tr[ns(na)] =   5.43171
    eigenvalues: 
  0.846  0.929  0.941
    eigenvectors:
  0.340  0.000  0.660
  0.497  0.249  0.255
  0.163  0.751  0.086
    occupations:
  0.909 -0.039  0.022
 -0.039  0.891  0.022
  0.022  0.022  0.917
N of occupied +U levels =  56.2563509
 --- exit write_ns ---
 --- in v_hubbard ---
Hubbard energy   -0.0886
 -------

     total cpu time spent up to now is      102.2 secs

     total energy              =    -538.42159460 Ry
     Harris-Foulkes estimate   =    -538.42159252 Ry
     estimated scf accuracy    <       0.00000009 Ry

     iteration #  7     ecut=    30.00 Ry     beta=0.20
     Davidson diagonalization with overlap
     ethr =  1.23E-10,  avg # of iterations =  2.9
 --- enter write_ns ---
 LDA+U parameters:
U( 1)     =  0.00000000
alpha( 1) = -0.15000000
U( 2)     =  0.00000000
alpha( 2) =  0.00000000
U( 3)     =  0.00000000
alpha( 3) =  0.00000000
U( 4)     =  0.00000000
alpha( 4) =  0.00000000
atom    1   Tr[ns(na)] =   8.04095
    eigenvalues: 
  0.598  0.598  0.940  0.942  0.942
    eigenvectors:
  0.000  0.000  1.000  0.000  0.000
  0.333  0.322  0.000  0.004  0.341
  0.322  0.333  0.000  0.341  0.004
  0.289  0.056  0.000  0.515  0.140
  0.056  0.289  0.000  0.140  0.515
    occupations:
  0.940  0.000  0.000  0.000  0.000
  0.000  0.717  0.000 -0.060  0.152
  0.000  0.000  0.717  0.152  0.060
  0.000 -0.060  0.152  0.823  0.000
  0.000  0.152  0.060  0.000  0.823
atom    2   Tr[ns(na)] =   8.02116
    eigenvalues: 
  0.596  0.596  0.938  0.941  0.941
    eigenvectors:
  0.000  0.000  1.000  0.000  0.000
  0.639  0.016  0.000  0.222  0.123
  0.016  0.639  0.000  0.123  0.222
  0.016  0.329  0.000  0.470  0.185
  0.329  0.016  0.000  0.185  0.470
    occupations:
  0.938  0.000  0.000  0.000  0.000
  0.000  0.715  0.000  0.060  0.153
  0.000  0.000  0.715  0.153 -0.060
  0.000  0.060  0.153  0.822  0.000
  0.000  0.153 -0.060  0.000  0.822
atom    3   Tr[ns(na)] =   3.80192
    eigenvalues: 
  0.355  0.355  0.384  0.403  0.403
    eigenvectors:
  0.000  0.000  1.000  0.000  0.000
  0.782  0.139  0.000  0.012  0.068
  0.139  0.782  0.000  0.068  0.012
  0.012  0.067  0.000  0.780  0.141
  0.067  0.012  0.000  0.141  0.780
    occupations:
  0.384  0.000  0.000  0.000  0.000
  0.000  0.359  0.000  0.000  0.013
  0.000  0.000  0.359  0.013  0.000
  0.000  0.000  0.013  0.399  0.000
  0.000  0.013  0.000  0.000  0.399
atom    4   Tr[ns(na)] =   3.80192
    eigenvalues: 
  0.355  0.355  0.384  0.403  0.403
    eigenvectors:
  0.000  0.000  1.000  0.000  0.000
  0.781  0.139  0.000  0.012  0.068
  0.139  0.781  0.000  0.068  0.012
  0.013  0.067  0.000  0.780  0.141
  0.067  0.013  0.000  0.141  0.780
    occupations:
  0.384  0.000  0.000  0.000  0.000
  0.000  0.359  0.000  0.000  0.013
  0.000  0.000  0.359  0.013  0.000
  0.000  0.000  0.013  0.399  0.000
  0.000  0.013  0.000  0.000  0.399
atom    5   Tr[ns(na)] =   5.43173
    eigenvalues: 
  0.846  0.929  0.941
    eigenvectors:
  0.340  0.000  0.660
  0.493  0.251  0.256
  0.167  0.749  0.084
    occupations:
  0.909  0.039  0.023
  0.039  0.891 -0.022
  0.023 -0.022  0.916
atom    6   Tr[ns(na)] =   5.43173
    eigenvalues: 
  0.846  0.929  0.941
    eigenvectors:
  0.340  0.000  0.660
  0.000  1.000  0.000
  0.660  0.000  0.340
    occupations:
  0.909  0.000 -0.045
  0.000  0.929  0.000
 -0.045  0.000  0.878
atom    7   Tr[ns(na)] =   5.43173
    eigenvalues: 
  0.846  0.929  0.941
    eigenvectors:
  0.340  0.000  0.660
  0.497  0.249  0.255
  0.163  0.751  0.086
    occupations:
  0.909 -0.039  0.022
 -0.039  0.891  0.022
  0.022  0.022  0.917
atom    8   Tr[ns(na)] =   5.43173
    eigenvalues: 
  0.846  0.929  0.941
    eigenvectors:
  0.340  0.000  0.660
  0.000  1.000  0.000
  0.660  0.000  0.340
    occupations:
  0.909  0.000 -0.045
  0.000  0.929  0.000
 -0.045  0.000  0.878
atom    9   Tr[ns(na)] =   5.43173
    eigenvalues: 
  0.846  0.929  0.941
    eigenvectors:
  0.340  0.000  0.660
  0.493  0.251  0.256
  0.167  0.749  0.084
    occupations:
  0.909  0.039  0.023
  0.039  0.891 -0.022
  0.023 -0.022  0.916
atom   10   Tr[ns(na)] =   5.43173
    eigenvalues: 
  0.846  0.929  0.941
    eigenvectors:
  0.340  0.000  0.660
  0.497  0.249  0.255
  0.163  0.751  0.086
    occupations:
  0.909 -0.039  0.022
 -0.039  0.891  0.022
  0.022  0.022  0.917
N of occupied +U levels =  56.2563503
 --- exit write_ns ---
 --- in v_hubbard ---
Hubbard energy   -0.0886
 -------

     total cpu time spent up to now is      117.4 secs

     total energy              =    -538.42159596 Ry
     Harris-Foulkes estimate   =    -538.42159462 Ry
     estimated scf accuracy    <       0.00000005 Ry

     iteration #  8     ecut=    30.00 Ry     beta=0.20
     Davidson diagonalization with overlap
     ethr =  6.21E-11,  avg # of iterations =  1.1
 --- enter write_ns ---
 LDA+U parameters:
U( 1)     =  0.00000000
alpha( 1) = -0.15000000
U( 2)     =  0.00000000
alpha( 2) =  0.00000000
U( 3)     =  0.00000000
alpha( 3) =  0.00000000
U( 4)     =  0.00000000
alpha( 4) =  0.00000000
atom    1   Tr[ns(na)] =   8.04080
    eigenvalues: 
  0.598  0.598  0.940  0.942  0.942
    eigenvectors:
  0.000  0.000  1.000  0.000  0.000
  0.333  0.322  0.000  0.004  0.341
  0.322  0.333  0.000  0.341  0.004
  0.289  0.056  0.000  0.515  0.140
  0.056  0.289  0.000  0.140  0.515
    occupations:
  0.940  0.000  0.000  0.000  0.000
  0.000  0.717  0.000 -0.060  0.152
  0.000  0.000  0.717  0.152  0.060
  0.000 -0.060  0.152  0.823  0.000
  0.000  0.152  0.060  0.000  0.823
atom    2   Tr[ns(na)] =   8.02132
    eigenvalues: 
  0.596  0.596  0.938  0.941  0.941
    eigenvectors:
  0.000  0.000  1.000  0.000  0.000
  0.639  0.016  0.000  0.222  0.123
  0.016  0.639  0.000  0.123  0.222
  0.016  0.329  0.000  0.470  0.185
  0.329  0.016  0.000  0.185  0.470
    occupations:
  0.938  0.000  0.000  0.000  0.000
  0.000  0.715  0.000  0.060  0.153
  0.000  0.000  0.715  0.153 -0.060
  0.000  0.060  0.153  0.822  0.000
  0.000  0.153 -0.060  0.000  0.822
atom    3   Tr[ns(na)] =   3.80188
    eigenvalues: 
  0.355  0.355  0.384  0.403  0.403
    eigenvectors:
  0.000  0.000  1.000  0.000  0.000
  0.782  0.139  0.000  0.012  0.068
  0.139  0.782  0.000  0.068  0.012
  0.013  0.067  0.000  0.780  0.141
  0.067  0.013  0.000  0.141  0.780
    occupations:
  0.384  0.000  0.000  0.000  0.000
  0.000  0.359  0.000  0.000  0.013
  0.000  0.000  0.359  0.013  0.000
  0.000  0.000  0.013  0.399  0.000
  0.000  0.013  0.000  0.000  0.399
atom    4   Tr[ns(na)] =   3.80188
    eigenvalues: 
  0.355  0.355  0.384  0.403  0.403
    eigenvectors:
  0.000  0.000  1.000  0.000  0.000
  0.782  0.139  0.000  0.012  0.068
  0.139  0.782  0.000  0.068  0.012
  0.012  0.067  0.000  0.780  0.141
  0.067  0.012  0.000  0.141  0.780
    occupations:
  0.384  0.000  0.000  0.000  0.000
  0.000  0.359  0.000  0.000  0.013
  0.000  0.000  0.359  0.013  0.000
  0.000  0.000  0.013  0.399  0.000
  0.000  0.013  0.000  0.000  0.399
atom    5   Tr[ns(na)] =   5.43174
    eigenvalues: 
  0.846  0.929  0.941
    eigenvectors:
  0.340  0.000  0.660
  0.493  0.251  0.256
  0.167  0.749  0.084
    occupations:
  0.909  0.039  0.023
  0.039  0.891 -0.022
  0.023 -0.022  0.916
atom    6   Tr[ns(na)] =   5.43174
    eigenvalues: 
  0.846  0.929  0.941
    eigenvectors:
  0.340  0.000  0.660
  0.000  1.000  0.000
  0.660  0.000  0.340
    occupations:
  0.909  0.000 -0.045
  0.000  0.929  0.000
 -0.045  0.000  0.878
atom    7   Tr[ns(na)] =   5.43174
    eigenvalues: 
  0.846  0.929  0.941
    eigenvectors:
  0.340  0.000  0.660
  0.497  0.249  0.255
  0.163  0.751  0.086
    occupations:
  0.909 -0.039  0.022
 -0.039  0.891  0.022
  0.022  0.022  0.917
atom    8   Tr[ns(na)] =   5.43174
    eigenvalues: 
  0.846  0.929  0.941
    eigenvectors:
  0.340  0.000  0.660
  0.000  1.000  0.000
  0.660  0.000  0.340
    occupations:
  0.909  0.000 -0.045
  0.000  0.929  0.000
 -0.045  0.000  0.878
atom    9   Tr[ns(na)] =   5.43174
    eigenvalues: 
  0.846  0.929  0.941
    eigenvectors:
  0.340  0.000  0.660
  0.493  0.251  0.256
  0.167  0.749  0.084
    occupations:
  0.909  0.039  0.023
  0.039  0.891 -0.022
  0.023 -0.022  0.916
atom   10   Tr[ns(na)] =   5.43174
    eigenvalues: 
  0.846  0.929  0.941
    eigenvectors:
  0.340  0.000  0.660
  0.497  0.249  0.255
  0.163  0.751  0.086
    occupations:
  0.909 -0.039  0.022
 -0.039  0.891  0.022
  0.022  0.022  0.917
N of occupied +U levels =  56.2563165
 --- exit write_ns ---
 --- in v_hubbard ---
Hubbard energy   -0.0886
 -------

     total cpu time spent up to now is      130.5 secs

     End of self-consistent calculation

          k = 0.0000 0.0000 0.0000 (  2175 PWs)   bands (ev):

   -19.7982 -19.6250  -6.5348  -5.8124  -5.8124  -5.8107  -5.8107  -5.4694
    -3.7538  -3.2620  -3.1922  -3.1922  -3.0225  -3.0225   5.2030   6.9154
     6.9154   7.5301   7.5301   7.7237   7.8083   7.8083   7.8688   9.3044
     9.6243   9.6243   9.8705   9.9251   9.9251  10.4749  10.4749  10.6439
    10.6439  10.6865  10.7967  11.5000  11.5000  12.1793  12.2976  12.2976
    14.7819  14.7819  15.4279  15.4279  16.1956  16.7865

     occupation numbers 
     0.0313   0.0313   0.0313   0.0313   0.0313   0.0313   0.0313   0.0313
     0.0313   0.0313   0.0313   0.0313   0.0313   0.0313   0.0313   0.0313
     0.0313   0.0313   0.0313   0.0313   0.0313   0.0313   0.0313   0.0313
     0.0313   0.0313   0.0312   0.0312   0.0312   0.0312   0.0312   0.0312
     0.0312   0.0312   0.0312   0.0309   0.0309   0.0149   0.0100   0.0100
     0.0000   0.0000   0.0000   0.0000   0.0000   0.0000

          k =-0.2471-0.1427 0.1027 (  2181 PWs)   bands (ev):

   -19.7704 -19.6484  -6.7151  -6.2756  -5.9234  -5.8342  -5.5977  -5.4638
    -3.5719  -3.3807  -2.9225  -2.8982  -2.8360  -2.7533   5.5671   6.8912
     7.0194   7.0257   7.3359   7.5122   7.5805   7.8105   7.8533   8.6154
     8.7130   9.3457   9.6705   9.8045   9.8538  10.0368  10.3837  10.3945
    11.0236  11.0545  11.1388  11.8775  11.9298  11.9922  12.3556  12.4146
    14.3239  14.3319  15.8160  16.0709  16.9724  17.2676

     occupation numbers 
     0.1875   0.1875   0.1875   0.1875   0.1875   0.1875   0.1875   0.1875
     0.1875   0.1875   0.1875   0.1875   0.1875   0.1875   0.1875   0.1875
     0.1875   0.1875   0.1875   0.1875   0.1875   0.1875   0.1875   0.1875
     0.1875   0.1875   0.1875   0.1875   0.1875   0.1875   0.1875   0.1875
     0.1875   0.1875   0.1875   0.1570   0.1479   0.1352   0.0470   0.0357
     0.0000   0.0000   0.0000   0.0000   0.0000   0.0000

          k = 0.4942 0.2853-0.2053 (  2202 PWs)   bands (ev):

   -19.7078 -19.7066  -6.7151  -6.7043  -5.9499  -5.9387  -5.5115  -5.5010
    -3.3717  -3.3666  -2.7818  -2.7770  -2.5034  -2.5016   6.0994   6.1043
     7.2085   7.2471   7.2700   7.3154   7.6390   7.6850   7.9640   8.0111
     8.1742   8.2269   9.5399   9.5458   9.8827   9.8881  10.2894  10.2963
    11.4618  11.4725  11.5443  11.5517  11.7141  11.7164  13.2958  13.3322
    13.3832  13.4198  16.8352  16.8397  17.1342  17.1363

     occupation numbers 
     0.0938   0.0938   0.0938   0.0938   0.0938   0.0938   0.0938   0.0938
     0.0938   0.0938   0.0938   0.0938   0.0938   0.0938   0.0938   0.0938
     0.0938   0.0938   0.0938   0.0938   0.0938   0.0938   0.0938   0.0938
     0.0938   0.0938   0.0938   0.0938   0.0937   0.0937   0.0937   0.0937
     0.0930   0.0930   0.0922   0.0921   0.0881   0.0880   0.0000   0.0000
     0.0000   0.0000   0.0000   0.0000   0.0000   0.0000

          k =-0.2471 0.1427 0.2053 (  2195 PWs)   bands (ev):

   -19.7656 -19.6513  -6.8415  -6.2169  -6.0513  -5.8158  -5.6423  -5.4411
    -3.3977  -3.2561  -3.0908  -2.8799  -2.8028  -2.5555   5.5964   6.8509
     6.9132   7.1061   7.2449   7.4820   7.4996   7.8597   7.8628   8.6884
     8.9040   8.9129   9.3012   9.8010   9.9957  10.1036  10.2079  10.3046
    10.6668  11.3845  11.4108  11.5029  11.9283  11.9961  12.1710  12.7379
    13.6429  14.7968  15.9917  16.1936  17.0367  17.5370

     occupation numbers 
     0.1875   0.1875   0.1875   0.1875   0.1875   0.1875   0.1875   0.1875
     0.1875   0.1875   0.1875   0.1875   0.1875   0.1875   0.1875   0.1875
     0.1875   0.1875   0.1875   0.1875   0.1875   0.1875   0.1875   0.1875
     0.1875   0.1875   0.1875   0.1875   0.1875   0.1875   0.1875   0.1875
     0.1875   0.1868   0.1866   0.1854   0.1482   0.1344   0.0913   0.0043
     0.0000   0.0000   0.0000   0.0000   0.0000   0.0000

          k = 0.4942 0.5706-0.1027 (  2198 PWs)   bands (ev):

   -19.7259 -19.6862  -6.9442  -6.6339  -6.1187  -5.8816  -5.4953  -5.3636
    -3.2927  -3.2457  -2.8699  -2.7005  -2.5202  -2.3783   5.9251   6.2825
     6.8803   7.0216   7.2276   7.3554   7.5632   7.8051   7.9521   8.0685
     8.3672   8.9131   9.1709   9.3600   9.6711   9.8255   9.9787  10.3709
    11.0902  11.5331  11.6263  11.6970  11.8305  11.8517  12.3360  12.7422
    13.4311  14.3715  16.9051  17.1155  17.3120  18.0160

     occupation numbers 
     0.1875   0.1875   0.1875   0.1875   0.1875   0.1875   0.1875   0.1875
     0.1875   0.1875   0.1875   0.1875   0.1875   0.1875   0.1875   0.1875
     0.1875   0.1875   0.1875   0.1875   0.1875   0.1875   0.1875   0.1875
     0.1875   0.1875   0.1875   0.1875   0.1875   0.1875   0.1875   0.1875
     0.1875   0.1847   0.1815   0.1774   0.1639   0.1610   0.0511   0.0041
     0.0000   0.0000   0.0000   0.0000   0.0000   0.0000

          k = 0.2471 0.4280 0.0000 (  2203 PWs)   bands (ev):

   -19.7357 -19.6784  -6.8357  -6.6261  -6.0377  -5.9667  -5.4222  -5.3521
    -3.4987  -3.2873  -2.7939  -2.7036  -2.5598  -2.5500   5.9021   6.3352
     7.0789   7.1278   7.2269   7.3223   7.4723   7.7224   7.8178   8.1879
     8.4261   8.9442   9.4276   9.4724   9.7834   9.8025  10.0742  10.3726
    11.3928  11.4042  11.4325  11.6557  11.6668  11.9502  12.2833  13.3260
    13.4017  14.1659  16.4376  16.9927  17.4212  17.9259

     occupation numbers 
     0.1875   0.1875   0.1875   0.1875   0.1875   0.1875   0.1875   0.1875
     0.1875   0.1875   0.1875   0.1875   0.1875   0.1875   0.1875   0.1875
     0.1875   0.1875   0.1875   0.1875   0.1875   0.1875   0.1875   0.1875
     0.1875   0.1875   0.1875   0.1875   0.1875   0.1875   0.1875   0.1875
     0.1868   0.1867   0.1864   0.1800   0.1794   0.1440   0.0631   0.0000
     0.0000   0.0000   0.0000   0.0000   0.0000   0.0000

          k = 0.4942-0.2853-0.4107 (  2202 PWs)   bands (ev):

   -19.7325 -19.6773  -7.1562  -6.4447  -6.2294  -5.9511  -5.5170  -5.2715
    -3.1828  -3.1214  -3.0337  -2.6448  -2.4741  -2.2165   5.8179   6.3195
     6.4441   6.9081   7.1596   7.2675   7.8798   7.9057   8.1646   8.3279
     8.5794   8.6065   8.6279   9.4245   9.6818  10.0436  10.0817  10.4478
    10.6299  11.2859  11.5597  11.7498  11.8574  11.9692  12.0654  12.4555
    13.3296  14.8088  17.0411  17.2649  17.5215  17.6076

     occupation numbers 
     0.0938   0.0938   0.0938   0.0938   0.0938   0.0938   0.0938   0.0938
     0.0938   0.0938   0.0938   0.0938   0.0938   0.0938   0.0938   0.0938
     0.0938   0.0938   0.0938   0.0938   0.0938   0.0938   0.0938   0.0938
     0.0938   0.0938   0.0938   0.0938   0.0938   0.0937   0.0937   0.0937
     0.0937   0.0936   0.0920   0.0865   0.0801   0.0701   0.0591   0.0145
     0.0000   0.0000   0.0000   0.0000   0.0000   0.0000

          k = 0.0000 0.0000 0.3080 (  2187 PWs)   bands (ev):

   -19.7702 -19.6482  -6.6028  -5.9658  -5.9106  -5.9106  -5.8263  -5.8263
    -3.1902  -3.0961  -3.0961  -2.9629  -2.8897  -2.8897   5.6208   7.0145
     7.0145   7.1515   7.4471   7.4471   7.5083   7.8403   7.8403   8.8634
     8.8634   9.4359   9.4487   9.6676   9.6676   9.8799  10.1430  10.1430
    11.1415  11.1415  11.2088  11.8908  11.8908  12.0051  12.3369  12.3369
    14.2852  14.2852  15.9103  15.9103  16.8788  17.4817

     occupation numbers 
     0.0625   0.0625   0.0625   0.0625   0.0625   0.0625   0.0625   0.0625
     0.0625   0.0625   0.0625   0.0625   0.0625   0.0625   0.0625   0.0625
     0.0625   0.0625   0.0625   0.0625   0.0625   0.0625   0.0625   0.0625
     0.0625   0.0625   0.0625   0.0625   0.0625   0.0625   0.0625   0.0625
     0.0625   0.0625   0.0625   0.0516   0.0516   0.0441   0.0170   0.0170
     0.0000   0.0000   0.0000   0.0000   0.0000   0.0000

          k = 0.7412 0.4280 0.0000 (  2204 PWs)   bands (ev):

   -19.7354 -19.6782  -6.7208  -6.5897  -6.1337  -5.8166  -5.6620  -5.5319
    -3.1598  -3.0813  -3.0397  -2.6687  -2.6476  -2.5765   5.9410   6.5180
     7.0908   7.1987   7.2292   7.3398   7.4624   7.6624   7.9995   8.1434
     8.4542   8.8502   9.4710   9.5001   9.6199   9.6916   9.8651  10.2265
    11.3903  11.4057  11.5025  11.6868  11.7136  11.8805  12.2932  13.2503
    13.3170  14.1894  16.6911  16.7224  17.5910  17.7947

     occupation numbers 
     0.1875   0.1875   0.1875   0.1875   0.1875   0.1875   0.1875   0.1875
     0.1875   0.1875   0.1875   0.1875   0.1875   0.1875   0.1875   0.1875
     0.1875   0.1875   0.1875   0.1875   0.1875   0.1875   0.1875   0.1875
     0.1875   0.1875   0.1875   0.1875   0.1875   0.1875   0.1875   0.1875
     0.1868   0.1867   0.1854   0.1781   0.1762   0.1565   0.0608   0.0000
     0.0000   0.0000   0.0000   0.0000   0.0000   0.0000

          k = 0.4942 0.2853 0.1027 (  2211 PWs)   bands (ev):

   -19.7259 -19.6862  -6.9608  -6.5319  -6.3106  -5.6826  -5.6097  -5.3400
    -3.3065  -3.1595  -3.0203  -2.5971  -2.5533  -2.3716   5.9546   6.2534
     6.8332   7.0121   7.2332   7.2912   7.5831   7.8759   7.9731   8.0457
     8.3972   9.0431   9.1689   9.4114   9.5530   9.6836  10.0302  10.3934
    11.1045  11.5709  11.6982  11.7064  11.7661  11.7853  12.2880  12.7592
    13.4767  14.3530  16.8857  16.9348  17.5835  17.9297

     occupation numbers 
     0.1875   0.1875   0.1875   0.1875   0.1875   0.1875   0.1875   0.1875
     0.1875   0.1875   0.1875   0.1875   0.1875   0.1875   0.1875   0.1875
     0.1875   0.1875   0.1875   0.1875   0.1875   0.1875   0.1875   0.1875
     0.1875   0.1875   0.1875   0.1875   0.1875   0.1875   0.1875   0.1875
     0.1875   0.1837   0.1773   0.1767   0.1715   0.1695   0.0620   0.0036
     0.0000   0.0000   0.0000   0.0000   0.0000   0.0000

          k = 0.7412-0.4280-0.3080 (  2210 PWs)   bands (ev):

   -19.7257 -19.6860  -6.8970  -6.4391  -6.2885  -5.7835  -5.7449  -5.4662
    -3.0630  -3.0418  -2.9575  -2.7218  -2.6133  -2.4216   6.0124   6.3948
     6.9238   6.9994   7.2753   7.2820   7.6052   7.8946   8.0181   8.0803
     8.3727   9.0137   9.0279   9.5278   9.5522   9.5911   9.6709  10.2285
    11.1614  11.5924  11.6850  11.6954  11.8097  11.8517  12.2453  12.7067
    13.4244  14.3225  17.0610  17.0677  17.5519  17.9045

     occupation numbers 
     0.1875   0.1875   0.1875   0.1875   0.1875   0.1875   0.1875   0.1875
     0.1875   0.1875   0.1875   0.1875   0.1875   0.1875   0.1875   0.1875
     0.1875   0.1875   0.1875   0.1875   0.1875   0.1875   0.1875   0.1875
     0.1875   0.1875   0.1875   0.1875   0.1875   0.1875   0.1875   0.1875
     0.1875   0.1829   0.1782   0.1775   0.1666   0.1610   0.0723   0.0055
     0.0000   0.0000   0.0000   0.0000   0.0000   0.0000

          k = 0.4942-0.5706-0.2053 (  2206 PWs)   bands (ev):

   -19.7051 -19.7050  -6.8727  -6.8685  -6.0244  -6.0225  -5.4118  -5.4074
    -3.1465  -3.1460  -2.8045  -2.8041  -2.3778  -2.3756   6.0895   6.1210
     7.0053   7.0162   7.1381   7.1545   7.4397   7.4422   8.1812   8.2442
     8.8101   8.8114   9.0785   9.0788   9.5597   9.5654  10.1131  10.1153
    11.3766  11.3782  11.5773  11.5834  11.8525  11.8543  12.3196  12.3206
    14.0104  14.0220  17.4299  17.4301  17.8672  17.8694

     occupation numbers 
     0.1875   0.1875   0.1875   0.1875   0.1875   0.1875   0.1875   0.1875
     0.1875   0.1875   0.1875   0.1875   0.1875   0.1875   0.1875   0.1875
     0.1875   0.1875   0.1875   0.1875   0.1875   0.1875   0.1875   0.1875
     0.1875   0.1875   0.1875   0.1875   0.1875   0.1875   0.1875   0.1875
     0.1869   0.1869   0.1835   0.1833   0.1608   0.1606   0.0547   0.0545
     0.0000   0.0000   0.0000   0.0000   0.0000   0.0000

          k = 0.0000 0.0000-0.6160 (  2186 PWs)   bands (ev):

   -19.7075 -19.7061  -6.5015  -6.4878  -5.9286  -5.9286  -5.9189  -5.9189
    -2.8819  -2.8819  -2.8768  -2.8768  -2.7046  -2.7044   6.3217   6.3272
     7.2136   7.2136   7.2572   7.2572   7.8365   7.8832   8.0838   8.0838
     8.1369   8.1369   9.6581   9.6581   9.6595   9.6595   9.7201   9.7281
    11.5978  11.6030  11.6467  11.6467  11.6515  11.6515  13.2384  13.2384
    13.2732  13.2732  17.1183  17.1183  17.1196  17.1196

     occupation numbers 
     0.0313   0.0313   0.0313   0.0313   0.0313   0.0313   0.0313   0.0313
     0.0313   0.0313   0.0313   0.0313   0.0313   0.0313   0.0313   0.0313
     0.0313   0.0313   0.0313   0.0313   0.0313   0.0313   0.0313   0.0313
     0.0313   0.0313   0.0313   0.0313   0.0313   0.0313   0.0313   0.0313
     0.0305   0.0304   0.0301   0.0301   0.0300   0.0300   0.0000   0.0000
     0.0000   0.0000   0.0000   0.0000   0.0000   0.0000

          k = 0.4942-0.5706 0.1027 (  2198 PWs)   bands (ev):

   -19.7259 -19.6862  -6.9454  -6.6348  -6.1169  -5.8762  -5.4979  -5.3664
    -3.2941  -3.2455  -2.8693  -2.6989  -2.5209  -2.3784   5.9218   6.2887
     6.8721   7.0232   7.2415   7.3498   7.5628   7.8063   7.9133   8.1119
     8.3536   8.9229   9.1661   9.3585   9.6690   9.8277   9.9780  10.3714
    11.0889  11.5383  11.6232  11.6973  11.8298  11.8519  12.3362  12.7413
    13.4309  14.3714  16.9068  17.1128  17.3125  18.0168

     occupation numbers 
     0.1875   0.1875   0.1875   0.1875   0.1875   0.1875   0.1875   0.1875
     0.1875   0.1875   0.1875   0.1875   0.1875   0.1875   0.1875   0.1875
     0.1875   0.1875   0.1875   0.1875   0.1875   0.1875   0.1875   0.1875
     0.1875   0.1875   0.1875   0.1875   0.1875   0.1875   0.1875   0.1875
     0.1875   0.1846   0.1817   0.1774   0.1640   0.1609   0.0511   0.0042
     0.0000   0.0000   0.0000   0.0000   0.0000   0.0000

     the Fermi energy is    12.1615 ev

!    total energy              =    -538.42159833 Ry
     Harris-Foulkes estimate   =    -538.42159597 Ry
     estimated scf accuracy    <          4.7E-09 Ry

     The total energy is the sum of the following terms:

     one-electron contribution =     -32.91148822 Ry
     hartree contribution      =      83.62636869 Ry
     xc contribution           =    -199.55899605 Ry
     ewald contribution        =    -389.44315552 Ry
     Hubbard energy            =      -0.08864821 Ry
     smearing contrib. (-TS)   =      -0.04567902 Ry

     convergence has been achieved in   8 iterations

     init_run     :      7.16s CPU      7.25s WALL (       1 calls)
     electrons    :    121.16s CPU    122.67s WALL (       1 calls)

     Called by init_run:
     wfcinit      :      0.00s CPU      0.00s WALL (       1 calls)
     potinit      :      0.26s CPU      0.28s WALL (       1 calls)

     Called by electrons:
     c_bands      :     79.97s CPU     80.70s WALL (       8 calls)
     sum_band     :     23.91s CPU     24.06s WALL (       8 calls)
     v_of_rho     :      2.40s CPU      2.42s WALL (       9 calls)
     v_h          :      0.13s CPU      0.13s WALL (       9 calls)
     v_xc         :      2.27s CPU      2.28s WALL (       9 calls)
     newd         :     16.10s CPU     16.15s WALL (       9 calls)
     mix_rho      :      0.20s CPU      0.20s WALL (       8 calls)

     Called by c_bands:
     init_us_2    :      0.86s CPU      0.85s WALL (     224 calls)
     cegterg      :     77.67s CPU     78.17s WALL (     112 calls)

     Called by sum_band:
     sum_band:bec :      0.08s CPU      0.08s WALL (     112 calls)
     addusdens    :     10.58s CPU     10.59s WALL (       8 calls)

     Called by *egterg:
     h_psi        :     56.48s CPU     56.84s WALL (     543 calls)
     s_psi        :      3.17s CPU      3.17s WALL (     543 calls)
     g_psi        :      0.26s CPU      0.27s WALL (     431 calls)
     cdiaghg      :      6.97s CPU      6.99s WALL (     529 calls)
     cegterg:over :      3.98s CPU      4.08s WALL (     431 calls)
     cegterg:upda :      2.58s CPU      2.57s WALL (     431 calls)
     cegterg:last :      1.64s CPU      1.64s WALL (     126 calls)

     Called by h_psi:
     h_psi:vloc   :     46.12s CPU     46.39s WALL (     543 calls)
     h_psi:vnl    :      6.68s CPU      6.75s WALL (     543 calls)
     add_vuspsi   :      3.18s CPU      3.18s WALL (     543 calls)
     vhpsi        :      3.56s CPU      3.57s WALL (     543 calls)

     General routines
     calbec       :      7.22s CPU      7.29s WALL (    1310 calls)
     fft          :      1.73s CPU      1.75s WALL (     139 calls)
     ffts         :      0.04s CPU      0.04s WALL (      17 calls)
     fftw         :     44.61s CPU     44.90s WALL (   31956 calls)
     interpolate  :      0.27s CPU      0.27s WALL (      17 calls)
     davcio       :      0.00s CPU      0.24s WALL (     238 calls)

     Parallel routines
     fft_scatter  :     13.41s CPU     13.57s WALL (   32112 calls)
     Hubbard U routines
     new_ns       :      0.72s CPU      0.81s WALL (       8 calls)
     vhpsi        :      3.56s CPU      3.57s WALL (     543 calls)

     PWSCF        :  2m 8.80s CPU     2m10.51s WALL


   This run was terminated on:   7:50:39  11Nov2012            

=------------------------------------------------------------------------------=
