   JOB DONE.
=------------------------------------------------------------------------------=

     Program PWSCF v.5.0.1 starts on 11Nov2012 at  7:53:24 

     This program is part of the open-source Quantum ESPRESSO suite
     for quantum simulation of materials; please cite
         "P. Giannozzi et al., J. Phys.:Condens. Matter 21 395502 (2009);
          URL http://www.quantum-espresso.org", 
     in publications or presentations arising from this work. More details at
     http://www.quantum-espresso.org/quote.php

     Parallel version (MPI), running on     2 processors
     R & G space division:  proc/pool =    2

     Current dimensions of program PWSCF are:
     Max number of different atomic species (ntypx) = 10
     Max number of k-points (npk) =  40000
     Max angular momentum in pseudopotentials (lmaxx) =  3
     Reading input from CoLaO_U0_a-5.in
               file Co.pbe-nd-rrkjus.UPF: wavefunction(s)  4S 3D renormalized
               file Co.pbe-nd-rrkjus.UPF: wavefunction(s)  4S 3D renormalized
               file O.pbe-rrkjus.UPF: wavefunction(s)  2S renormalized

     Subspace diagonalization in iterative solution of the eigenvalue problem:
     a serial algorithm will be used


     Parallelization info
     --------------------
     sticks:   dense  smooth     PW     G-vecs:    dense   smooth      PW
     Min        1112     444    131                34808     8786    1448
     Max        1113     445    132                34809     8787    1449
     Sum        2225     889    263                69617    17573    2897


     Title: 
     GGA + U, U = 1D-40, alpha = -0.050                                         


     bravais-lattice index     =            5
     lattice parameter (alat)  =      10.3292  a.u.
     unit-cell volume          =     793.0599 (a.u.)^3
     number of atoms/cell      =           10
     number of atomic types    =            4
     number of electrons       =        76.00
     number of Kohn-Sham states=           46
     kinetic-energy cutoff     =      30.0000  Ry
     charge density cutoff     =     300.0000  Ry
     convergence threshold     =      1.0E-08
     mixing beta               =       0.2000
     number of iterations used =            8  plain     mixing
     Exchange-correlation      =  SLA  PW   PBE  PBE ( 1 4 3 4 0)
     EXX-fraction              =        0.00

     celldm(1)=  10.329242  celldm(2)=   0.000000  celldm(3)=   0.000000
     celldm(4)=   0.488100  celldm(5)=   0.000000  celldm(6)=   0.000000

     crystal axes: (cart. coord. in units of alat)
               a(1) = (   0.505915  -0.292090   0.811624 )  
               a(2) = (   0.000000   0.584180   0.811624 )  
               a(3) = (  -0.505915  -0.292090   0.811624 )  

     reciprocal axes: (cart. coord. in units 2 pi/alat)
               b(1) = (  0.988308 -0.570600  0.410699 )  
               b(2) = (  0.000000  1.141200  0.410699 )  
               b(3) = ( -0.988308 -0.570600  0.410699 )  


     PseudoPot. # 1 for Co read from file:
     /home/mcurnan/dft-course/Project1/example_LaCoO3/Co.pbe-nd-rrkjus.UPF
     MD5 check sum: 3e47a84addf5e975e0edeaeee2a73f59
     Pseudo is Ultrasoft + core correction, Zval =  9.0
     Generated by new atomic code, or converted to UPF format
     Using radial grid of  961 points,  6 beta functions with: 
                l(1) =   0
                l(2) =   0
                l(3) =   1
                l(4) =   1
                l(5) =   2
                l(6) =   2
     Q(r) pseudized with 0 coefficients 


     PseudoPot. # 2 for Co read from file:
     /home/mcurnan/dft-course/Project1/example_LaCoO3/Co.pbe-nd-rrkjus.UPF
     MD5 check sum: 3e47a84addf5e975e0edeaeee2a73f59
     Pseudo is Ultrasoft + core correction, Zval =  9.0
     Generated by new atomic code, or converted to UPF format
     Using radial grid of  961 points,  6 beta functions with: 
                l(1) =   0
                l(2) =   0
                l(3) =   1
                l(4) =   1
                l(5) =   2
                l(6) =   2
     Q(r) pseudized with 0 coefficients 


     PseudoPot. # 3 for La read from file:
     /home/mcurnan/dft-course/Project1/example_LaCoO3/La.pbe-nsp-van.UPF
     MD5 check sum: b2f11743f52dde65f77d1302becd7929
     Pseudo is Ultrasoft + core correction, Zval = 11.0
     Generated by new atomic code, or converted to UPF format
     Using radial grid of  907 points,  6 beta functions with: 
                l(1) =   0
                l(2) =   0
                l(3) =   1
                l(4) =   1
                l(5) =   2
                l(6) =   2
     Q(r) pseudized with  6 coefficients,  rinner =    1.200   1.200   1.200
                                                       1.200   1.200

     PseudoPot. # 4 for O  read from file:
     /home/mcurnan/dft-course/Project1/example_LaCoO3/O.pbe-rrkjus.UPF
     MD5 check sum: 390ba29e75625707450f3bd3f0eb6be9
     Pseudo is Ultrasoft, Zval =  6.0
     Generated by new atomic code, or converted to UPF format
     Using radial grid of 1269 points,  4 beta functions with: 
                l(1) =   0
                l(2) =   0
                l(3) =   1
                l(4) =   1
     Q(r) pseudized with 0 coefficients 


     atomic species   valence    mass     pseudopotential
        Co1            9.00     1.00000     Co( 1.00)
        Co2            9.00     1.00000     Co( 1.00)
        La1           11.00     1.00000     La( 1.00)
        O1             6.00     1.00000     O ( 1.00)
 -----
     simplified LDA+U calculation, Hubbard_lmax = 2
     atomic species  L   Hubbard U  Hubbard alpha
        Co1          2    0.000000   -0.050000
        Co2          2    0.000000    0.000000
        La1          2    0.000000    0.000000
        O1           1    0.000000    0.000000
 -----

      6 Sym. Ops., with inversion, found


                                    s                        frac. trans.

      isym =  1     identity                                     

 cryst.   s( 1) = (     1          0          0      )
                  (     0          1          0      )
                  (     0          0          1      )

 cart.    s( 1) = (  1.0000000  0.0000000  0.0000000 )
                  (  0.0000000  1.0000000  0.0000000 )
                  (  0.0000000  0.0000000  1.0000000 )


      isym =  2     120 deg rotation - cryst. axis [0,0,1]       

 cryst.   s( 2) = (     0          1          0      )
                  (     0          0          1      )
                  (     1          0          0      )

 cart.    s( 2) = ( -0.5000000 -0.8660254  0.0000000 )
                  (  0.8660254 -0.5000000  0.0000000 )
                  (  0.0000000  0.0000000  1.0000000 )


      isym =  3     120 deg rotation - cryst. axis [0,0,-1]      

 cryst.   s( 3) = (     0          0          1      )
                  (     1          0          0      )
                  (     0          1          0      )

 cart.    s( 3) = ( -0.5000000  0.8660254  0.0000000 )
                  ( -0.8660254 -0.5000000  0.0000000 )
                  (  0.0000000  0.0000000  1.0000000 )


      isym =  4     inversion                                    

 cryst.   s( 4) = (    -1          0          0      )
                  (     0         -1          0      )
                  (     0          0         -1      )

 cart.    s( 4) = ( -1.0000000  0.0000000  0.0000000 )
                  (  0.0000000 -1.0000000  0.0000000 )
                  (  0.0000000  0.0000000 -1.0000000 )


      isym =  5     inv. 180 deg rotation - cart. axis [0,1,0]   

 cryst.   s( 5) = (     0         -1          0      )
                  (     0          0         -1      )
                  (    -1          0          0      )

 cart.    s( 5) = (  0.5000000  0.8660254  0.0000000 )
                  ( -0.8660254  0.5000000  0.0000000 )
                  (  0.0000000  0.0000000 -1.0000000 )


      isym =  6     inv. 180 deg rotation - cart. axis [1,0,0]   

 cryst.   s( 6) = (     0          0         -1      )
                  (    -1          0          0      )
                  (     0         -1          0      )

 cart.    s( 6) = (  0.5000000 -0.8660254  0.0000000 )
                  (  0.8660254  0.5000000  0.0000000 )
                  (  0.0000000  0.0000000 -1.0000000 )


     point group S_6 (-3)   
     there are  6 classes
     the character table:

       E     C3    C3^2  i     S6^5  S6   
A_g    1.00  1.00  1.00  1.00  1.00  1.00
E_g    1.00 -0.50 -0.50  1.00 -0.50 -0.50
E_g*   1.00 -0.50 -0.50  1.00 -0.50 -0.50
A_u    1.00  1.00  1.00 -1.00 -1.00 -1.00
E_u    1.00 -0.50 -0.50 -1.00  0.50  0.50
E_u*   1.00 -0.50 -0.50 -1.00  0.50  0.50
     imaginary part
A_g    0.00  0.00  0.00  0.00  0.00  0.00
E_g    0.00  0.87 -0.87  0.00  0.87 -0.87
E_g*   0.00 -0.87  0.87  0.00 -0.87  0.87
A_u    0.00  0.00  0.00  0.00  0.00  0.00
E_u    0.00  0.87 -0.87  0.00 -0.87  0.87
E_u*   0.00 -0.87  0.87  0.00  0.87 -0.87

     the symmetry operations in each class:
     E        1
     C3       2
     C3^2     3
     i        4
     S6^5     5
     S6       6

   Cartesian axes

     site n.     atom                  positions (alat units)
         1           Co1 tau(   1) = (   0.0000000   0.0000000   0.0000000  )
         2           Co2 tau(   2) = (   0.0000000   0.0000000   1.2174358  )
         3           La1 tau(   3) = (   0.0000000   0.0000000   0.6087179  )
         4           La1 tau(   4) = (   0.0000000   0.0000000   1.8261537  )
         5           O1  tau(   5) = (  -0.2839701  -0.0933228   1.0141240  )
         6           O1  tau(   6) = (   0.0611651   0.2925867   1.0141240  )
         7           O1  tau(   7) = (   0.2228050  -0.1992639   1.0141240  )
         8           O1  tau(   8) = (  -0.0611651  -0.2925867   1.4207476  )
         9           O1  tau(   9) = (   0.2839701   0.0933228   1.4207476  )
        10           O1  tau(  10) = (  -0.2228050   0.1992639   1.4207476  )

   Crystallographic axes

     site n.     atom                  positions (cryst. coord.)
         1           Co1 tau(   1) = (  0.0000000  0.0000000  0.0000000  )
         2           Co2 tau(   2) = (  0.5000000  0.5000000  0.5000000  )
         3           La1 tau(   3) = (  0.2500000  0.2500000  0.2500000  )
         4           La1 tau(   4) = (  0.7500000  0.7500000  0.7500000  )
         5           O1  tau(   5) = (  0.1891000  0.3100000  0.7504000  )
         6           O1  tau(   6) = (  0.3100000  0.7504000  0.1891000  )
         7           O1  tau(   7) = (  0.7504000  0.1891000  0.3100000  )
         8           O1  tau(   8) = (  0.6900000  0.2496000  0.8109000  )
         9           O1  tau(   9) = (  0.8109000  0.6900000  0.2496000  )
        10           O1  tau(  10) = (  0.2496000  0.8109000  0.6900000  )

     number of k points=    14  gaussian smearing, width (Ry)=  0.0300
                       cart. coord. in units 2pi/alat
        k(    1) = (   0.0000000   0.0000000   0.0000000), wk =   0.0312500
        k(    2) = (  -0.2470771  -0.1426500   0.1026748), wk =   0.1875000
        k(    3) = (   0.4941541   0.2853000  -0.2053496), wk =   0.0937500
        k(    4) = (  -0.2470771   0.1426500   0.2053496), wk =   0.1875000
        k(    5) = (   0.4941541   0.5706001  -0.1026748), wk =   0.1875000
        k(    6) = (   0.2470771   0.4279500   0.0000000), wk =   0.1875000
        k(    7) = (   0.4941541  -0.2853000  -0.4106993), wk =   0.0937500
        k(    8) = (   0.0000000   0.0000000   0.3080244), wk =   0.0625000
        k(    9) = (   0.7412312   0.4279500   0.0000000), wk =   0.1875000
        k(   10) = (   0.4941541   0.2853000   0.1026748), wk =   0.1875000
        k(   11) = (   0.7412312  -0.4279500  -0.3080244), wk =   0.1875000
        k(   12) = (   0.4941541  -0.5706001  -0.2053496), wk =   0.1875000
        k(   13) = (   0.0000000   0.0000000  -0.6160489), wk =   0.0312500
        k(   14) = (   0.4941541  -0.5706001   0.1026748), wk =   0.1875000

                       cryst. coord.
        k(    1) = (   0.0000000   0.0000000   0.0000000), wk =   0.0312500
        k(    2) = (   0.0000000   0.0000000   0.2500000), wk =   0.1875000
        k(    3) = (   0.0000000   0.0000000  -0.5000000), wk =   0.0937500
        k(    4) = (   0.0000000   0.2500000   0.2500000), wk =   0.1875000
        k(    5) = (   0.0000000   0.2500000  -0.5000000), wk =   0.1875000
        k(    6) = (   0.0000000   0.2500000  -0.2500000), wk =   0.1875000
        k(    7) = (   0.0000000  -0.5000000  -0.5000000), wk =   0.0937500
        k(    8) = (   0.2500000   0.2500000   0.2500000), wk =   0.0625000
        k(    9) = (   0.2500000   0.2500000  -0.5000000), wk =   0.1875000
        k(   10) = (   0.2500000   0.2500000  -0.2500000), wk =   0.1875000
        k(   11) = (   0.2500000  -0.5000000  -0.5000000), wk =   0.1875000
        k(   12) = (   0.2500000  -0.5000000  -0.2500000), wk =   0.1875000
        k(   13) = (  -0.5000000  -0.5000000  -0.5000000), wk =   0.0312500
        k(   14) = (   0.5000000  -0.2500000   0.0000000), wk =   0.1875000

     Dense  grid:    69617 G-vectors     FFT dimensions: (  60,  60,  60)

     Smooth grid:    17573 G-vectors     FFT dimensions: (  40,  40,  40)

     Largest allocated arrays     est. size (Mb)     dimensions
        Kohn-Sham Wavefunctions         0.78 Mb     (   1117,   46)
        Atomic wavefunctions            1.06 Mb     (   1117,   62)
        NL pseudopotentials             2.05 Mb     (   1117,  120)
        Each V/rho on FFT grid          1.65 Mb     ( 108000)
        Each G-vector array             0.27 Mb     (  34808)
        G-vector shells                 0.04 Mb     (   4682)
     Largest temporary arrays     est. size (Mb)     dimensions
        Auxiliary wavefunctions         3.14 Mb     (   1117,  184)
        Each subspace H/S matrix        0.52 Mb     ( 184, 184)
        Each <psi_i|beta_j> matrix      0.08 Mb     (    120,   46)
        Arrays for rho mixing          13.18 Mb     ( 108000,   8)

     Check: negative/imaginary core charge=   -0.000028    0.000000

     The initial density is read from file :
     /home/mcurnan/dft-course/Project1/example_LaCoO3/0/Co/alpha/CoLaO_U0.save/charge-density.dat

 --- in v_hubbard ---
Hubbard energy   -0.0295
 -------
     Number of +U iterations with fixed ns =  0
     Starting occupations:
 --- enter write_ns ---
 LDA+U parameters:
U( 1)     =  0.00000000
alpha( 1) = -0.05000000
U( 2)     =  0.00000000
alpha( 2) =  0.00000000
U( 3)     =  0.00000000
alpha( 3) =  0.00000000
U( 4)     =  0.00000000
alpha( 4) =  0.00000000
atom    1   Tr[ns(na)] =   8.02206
    eigenvalues: 
  0.596  0.596  0.938  0.941  0.941
    eigenvectors:
  0.000  0.000  1.000  0.000  0.000
  0.333  0.322  0.000  0.004  0.341
  0.322  0.333  0.000  0.341  0.004
  0.289  0.056  0.000  0.515  0.140
  0.056  0.289  0.000  0.140  0.515
    occupations:
  0.938  0.000  0.000  0.000  0.000
  0.000  0.715  0.000 -0.060  0.152
  0.000  0.000  0.715  0.152  0.060
  0.000 -0.060  0.152  0.822  0.000
  0.000  0.152  0.060  0.000  0.822
atom    2   Tr[ns(na)] =   8.02145
    eigenvalues: 
  0.595  0.595  0.938  0.941  0.941
    eigenvectors:
  0.000  0.000  1.000  0.000  0.000
  0.640  0.015  0.000  0.223  0.122
  0.015  0.640  0.000  0.122  0.223
  0.017  0.329  0.000  0.470  0.185
  0.329  0.017  0.000  0.185  0.470
    occupations:
  0.938  0.000  0.000  0.000  0.000
  0.000  0.715  0.000  0.060  0.153
  0.000  0.000  0.715  0.153 -0.060
  0.000  0.060  0.153  0.822  0.000
  0.000  0.153 -0.060  0.000  0.822
atom    3   Tr[ns(na)] =   3.80284
    eigenvalues: 
  0.355  0.355  0.384  0.403  0.403
    eigenvectors:
  0.000  0.000  1.000  0.000  0.000
  0.781  0.139  0.000  0.012  0.068
  0.139  0.781  0.000  0.068  0.012
  0.013  0.067  0.000  0.780  0.141
  0.067  0.013  0.000  0.141  0.780
    occupations:
  0.384  0.000  0.000  0.000  0.000
  0.000  0.359  0.000  0.000  0.013
  0.000  0.000  0.359  0.013  0.000
  0.000  0.000  0.013  0.399  0.000
  0.000  0.013  0.000  0.000  0.399
atom    4   Tr[ns(na)] =   3.80284
    eigenvalues: 
  0.355  0.355  0.384  0.403  0.403
    eigenvectors:
  0.000  0.000  1.000  0.000  0.000
  0.782  0.139  0.000  0.012  0.068
  0.139  0.782  0.000  0.068  0.012
  0.012  0.067  0.000  0.780  0.141
  0.067  0.012  0.000  0.141  0.780
    occupations:
  0.384  0.000  0.000  0.000  0.000
  0.000  0.359  0.000  0.000  0.013
  0.000  0.000  0.359  0.013  0.000
  0.000  0.000  0.013  0.399  0.000
  0.000  0.013  0.000  0.000  0.399
atom    5   Tr[ns(na)] =   5.43357
    eigenvalues: 
  0.846  0.929  0.941
    eigenvectors:
  0.340  0.000  0.660
  0.494  0.250  0.256
  0.166  0.750  0.085
    occupations:
  0.909  0.039  0.022
  0.039  0.891 -0.022
  0.022 -0.022  0.917
atom    6   Tr[ns(na)] =   5.43357
    eigenvalues: 
  0.846  0.929  0.941
    eigenvectors:
  0.340  0.000  0.660
  0.000  1.000  0.000
  0.660  0.000  0.340
    occupations:
  0.909  0.000 -0.045
  0.000  0.929  0.000
 -0.045  0.000  0.879
atom    7   Tr[ns(na)] =   5.43357
    eigenvalues: 
  0.846  0.929  0.941
    eigenvectors:
  0.340  0.000  0.660
  0.496  0.250  0.255
  0.164  0.750  0.086
    occupations:
  0.909 -0.039  0.022
 -0.039  0.891  0.022
  0.022  0.022  0.917
atom    8   Tr[ns(na)] =   5.43357
    eigenvalues: 
  0.846  0.929  0.941
    eigenvectors:
  0.340  0.000  0.660
  0.000  1.000  0.000
  0.660  0.000  0.340
    occupations:
  0.909  0.000 -0.045
  0.000  0.929  0.000
 -0.045  0.000  0.879
atom    9   Tr[ns(na)] =   5.43357
    eigenvalues: 
  0.846  0.929  0.941
    eigenvectors:
  0.340  0.000  0.660
  0.494  0.250  0.256
  0.166  0.750  0.085
    occupations:
  0.909  0.039  0.022
  0.039  0.891 -0.022
  0.022 -0.022  0.917
atom   10   Tr[ns(na)] =   5.43357
    eigenvalues: 
  0.846  0.929  0.941
    eigenvectors:
  0.340  0.000  0.660
  0.496  0.250  0.255
  0.164  0.750  0.086
    occupations:
  0.909 -0.039  0.022
 -0.039  0.891  0.022
  0.022  0.022  0.917
N of occupied +U levels =  56.2506062
 --- exit write_ns ---
 LDA+U Projector read from file 
     Starting wfc from file

     total cpu time spent up to now is        8.2 secs

     per-process dynamical memory:    46.9 Mb

     Self-consistent Calculation

     iteration #  1     ecut=    30.00 Ry     beta=0.20
     Davidson diagonalization with overlap
     c_bands:  1 eigenvalues not converged
     c_bands:  1 eigenvalues not converged
     c_bands:  1 eigenvalues not converged
     c_bands:  1 eigenvalues not converged
     c_bands:  1 eigenvalues not converged
     c_bands:  1 eigenvalues not converged
     c_bands:  1 eigenvalues not converged
     ethr =  1.00E-10,  avg # of iterations = 15.1
 --- enter write_ns ---
 LDA+U parameters:
U( 1)     =  0.00000000
alpha( 1) = -0.05000000
U( 2)     =  0.00000000
alpha( 2) =  0.00000000
U( 3)     =  0.00000000
alpha( 3) =  0.00000000
U( 4)     =  0.00000000
alpha( 4) =  0.00000000
atom    1   Tr[ns(na)] =   8.06399
    eigenvalues: 
  0.600  0.600  0.942  0.945  0.945
    eigenvectors:
  0.000  0.000  1.000  0.000  0.000
  0.334  0.321  0.000  0.003  0.342
  0.321  0.334  0.000  0.342  0.003
  0.289  0.056  0.000  0.515  0.140
  0.056  0.289  0.000  0.140  0.515
    occupations:
  0.942  0.000  0.000  0.000  0.000
  0.000  0.719  0.000 -0.061  0.152
  0.000  0.000  0.719  0.152  0.061
  0.000 -0.061  0.152  0.826  0.000
  0.000  0.152  0.061  0.000  0.826
atom    2   Tr[ns(na)] =   7.99669
    eigenvalues: 
  0.594  0.594  0.934  0.938  0.938
    eigenvectors:
  0.000  0.000  1.000  0.000  0.000
  0.638  0.017  0.000  0.221  0.124
  0.017  0.638  0.000  0.124  0.221
  0.015  0.331  0.000  0.470  0.185
  0.331  0.015  0.000  0.185  0.470
    occupations:
  0.934  0.000  0.000  0.000  0.000
  0.000  0.713  0.000  0.059  0.153
  0.000  0.000  0.713  0.153 -0.059
  0.000  0.059  0.153  0.819  0.000
  0.000  0.153 -0.059  0.000  0.819
atom    3   Tr[ns(na)] =   3.80248
    eigenvalues: 
  0.355  0.355  0.384  0.403  0.403
    eigenvectors:
  0.000  0.000  1.000  0.000  0.000
  0.781  0.139  0.000  0.012  0.068
  0.139  0.781  0.000  0.068  0.012
  0.013  0.067  0.000  0.780  0.141
  0.067  0.013  0.000  0.141  0.780
    occupations:
  0.384  0.000  0.000  0.000  0.000
  0.000  0.359  0.000  0.000  0.013
  0.000  0.000  0.359  0.013  0.000
  0.000  0.000  0.013  0.399  0.000
  0.000  0.013  0.000  0.000  0.399
atom    4   Tr[ns(na)] =   3.80248
    eigenvalues: 
  0.355  0.355  0.384  0.403  0.403
    eigenvectors:
  0.000  0.000  1.000  0.000  0.000
  0.781  0.139  0.000  0.012  0.068
  0.139  0.781  0.000  0.068  0.012
  0.013  0.067  0.000  0.780  0.141
  0.067  0.013  0.000  0.141  0.780
    occupations:
  0.384  0.000  0.000  0.000  0.000
  0.000  0.359  0.000  0.000  0.013
  0.000  0.000  0.359  0.013  0.000
  0.000  0.000  0.013  0.399  0.000
  0.000  0.013  0.000  0.000  0.399
atom    5   Tr[ns(na)] =   5.43126
    eigenvalues: 
  0.846  0.929  0.941
    eigenvectors:
  0.340  0.000  0.660
  0.492  0.253  0.255
  0.167  0.747  0.085
    occupations:
  0.908  0.039  0.023
  0.039  0.891 -0.022
  0.023 -0.022  0.916
atom    6   Tr[ns(na)] =   5.43126
    eigenvalues: 
  0.846  0.929  0.941
    eigenvectors:
  0.340  0.000  0.660
  0.000  1.000  0.000
  0.660  0.000  0.340
    occupations:
  0.908  0.000 -0.045
  0.000  0.929  0.000
 -0.045  0.000  0.878
atom    7   Tr[ns(na)] =   5.43126
    eigenvalues: 
  0.846  0.929  0.941
    eigenvectors:
  0.340  0.000  0.660
  0.497  0.248  0.255
  0.162  0.752  0.085
    occupations:
  0.908 -0.039  0.022
 -0.039  0.891  0.022
  0.022  0.022  0.917
atom    8   Tr[ns(na)] =   5.43126
    eigenvalues: 
  0.846  0.929  0.941
    eigenvectors:
  0.340  0.000  0.660
  0.000  1.000  0.000
  0.660  0.000  0.340
    occupations:
  0.908  0.000 -0.045
  0.000  0.929  0.000
 -0.045  0.000  0.878
atom    9   Tr[ns(na)] =   5.43126
    eigenvalues: 
  0.846  0.929  0.941
    eigenvectors:
  0.340  0.000  0.660
  0.492  0.253  0.255
  0.167  0.747  0.085
    occupations:
  0.908  0.039  0.023
  0.039  0.891 -0.022
  0.023 -0.022  0.916
atom   10   Tr[ns(na)] =   5.43126
    eigenvalues: 
  0.846  0.929  0.941
    eigenvectors:
  0.340  0.000  0.660
  0.497  0.248  0.255
  0.162  0.752  0.085
    occupations:
  0.908 -0.039  0.022
 -0.039  0.891  0.022
  0.022  0.022  0.917
N of occupied +U levels =  56.2532201
 --- exit write_ns ---
 --- in v_hubbard ---
Hubbard energy   -0.0295
 -------

     total cpu time spent up to now is       33.9 secs

     total energy              =    -538.36194168 Ry
     Harris-Foulkes estimate   =    -538.36261123 Ry
     estimated scf accuracy    <       0.00193198 Ry

     iteration #  2     ecut=    30.00 Ry     beta=0.20
     Davidson diagonalization with overlap
     ethr =  2.54E-06,  avg # of iterations =  2.1
 --- enter write_ns ---
 LDA+U parameters:
U( 1)     =  0.00000000
alpha( 1) = -0.05000000
U( 2)     =  0.00000000
alpha( 2) =  0.00000000
U( 3)     =  0.00000000
alpha( 3) =  0.00000000
U( 4)     =  0.00000000
alpha( 4) =  0.00000000
atom    1   Tr[ns(na)] =   7.85986
    eigenvalues: 
  0.585  0.585  0.917  0.922  0.922
    eigenvectors:
  0.000  0.000  1.000  0.000  0.000
  0.329  0.326  0.000  0.006  0.339
  0.326  0.329  0.000  0.339  0.006
  0.284  0.061  0.000  0.511  0.144
  0.061  0.284  0.000  0.144  0.511
    occupations:
  0.917  0.000  0.000  0.000  0.000
  0.000  0.701  0.000 -0.056  0.150
  0.000  0.000  0.701  0.150  0.056
  0.000 -0.056  0.150  0.805  0.000
  0.000  0.150  0.056  0.000  0.805
atom    2   Tr[ns(na)] =   8.18099
    eigenvalues: 
  0.610  0.610  0.956  0.957  0.957
    eigenvectors:
  0.000  0.000  1.000  0.000  0.000
  0.643  0.011  0.000  0.229  0.116
  0.011  0.643  0.000  0.116  0.229
  0.023  0.322  0.000  0.471  0.184
  0.322  0.023  0.000  0.184  0.471
    occupations:
  0.956  0.000  0.000  0.000  0.000
  0.000  0.730  0.000  0.063  0.152
  0.000  0.000  0.730  0.152 -0.063
  0.000  0.063  0.152  0.837  0.000
  0.000  0.152 -0.063  0.000  0.837
atom    3   Tr[ns(na)] =   3.80241
    eigenvalues: 
  0.355  0.355  0.384  0.403  0.403
    eigenvectors:
  0.000  0.000  1.000  0.000  0.000
  0.782  0.139  0.000  0.012  0.067
  0.139  0.782  0.000  0.067  0.012
  0.012  0.068  0.000  0.780  0.141
  0.068  0.012  0.000  0.141  0.780
    occupations:
  0.384  0.000  0.000  0.000  0.000
  0.000  0.359  0.000  0.000  0.013
  0.000  0.000  0.359  0.013  0.000
  0.000  0.000  0.013  0.399  0.000
  0.000  0.013  0.000  0.000  0.399
atom    4   Tr[ns(na)] =   3.80241
    eigenvalues: 
  0.355  0.355  0.384  0.403  0.403
    eigenvectors:
  0.000  0.000  1.000  0.000  0.000
  0.782  0.139  0.000  0.012  0.067
  0.139  0.782  0.000  0.067  0.012
  0.012  0.068  0.000  0.780  0.141
  0.068  0.012  0.000  0.141  0.780
    occupations:
  0.384  0.000  0.000  0.000  0.000
  0.000  0.359  0.000  0.000  0.013
  0.000  0.000  0.359  0.013  0.000
  0.000  0.000  0.013  0.399  0.000
  0.000  0.013  0.000  0.000  0.399
atom    5   Tr[ns(na)] =   5.43394
    eigenvalues: 
  0.847  0.929  0.941
    eigenvectors:
  0.340  0.000  0.660
  0.502  0.240  0.258
  0.158  0.760  0.082
    occupations:
  0.909  0.039  0.022
  0.039  0.891 -0.022
  0.022 -0.022  0.917
atom    6   Tr[ns(na)] =   5.43394
    eigenvalues: 
  0.847  0.929  0.941
    eigenvectors:
  0.340  0.000  0.660
  0.000  1.000  0.000
  0.660  0.000  0.340
    occupations:
  0.909 -0.001 -0.045
 -0.001  0.929 -0.001
 -0.045 -0.001  0.879
atom    7   Tr[ns(na)] =   5.43394
    eigenvalues: 
  0.847  0.929  0.941
    eigenvectors:
  0.340  0.000  0.660
  0.488  0.260  0.252
  0.172  0.740  0.088
    occupations:
  0.909 -0.038  0.023
 -0.038  0.892  0.022
  0.023  0.022  0.916
atom    8   Tr[ns(na)] =   5.43394
    eigenvalues: 
  0.847  0.929  0.941
    eigenvectors:
  0.340  0.000  0.660
  0.000  1.000  0.000
  0.660  0.000  0.340
    occupations:
  0.909 -0.001 -0.045
 -0.001  0.929 -0.001
 -0.045 -0.001  0.879
atom    9   Tr[ns(na)] =   5.43394
    eigenvalues: 
  0.847  0.929  0.941
    eigenvectors:
  0.340  0.000  0.660
  0.502  0.240  0.258
  0.158  0.760  0.082
    occupations:
  0.909  0.039  0.022
  0.039  0.891 -0.022
  0.022 -0.022  0.917
atom   10   Tr[ns(na)] =   5.43394
    eigenvalues: 
  0.847  0.929  0.941
    eigenvectors:
  0.340  0.000  0.660
  0.488  0.260  0.252
  0.172  0.740  0.088
    occupations:
  0.909 -0.038  0.023
 -0.038  0.892  0.022
  0.023  0.022  0.916
N of occupied +U levels =  56.2492925
 --- exit write_ns ---
 --- in v_hubbard ---
Hubbard energy   -0.0295
 -------

     total cpu time spent up to now is       47.8 secs

     total energy              =    -538.36092745 Ry
     Harris-Foulkes estimate   =    -538.36419302 Ry
     estimated scf accuracy    <       0.05495016 Ry

     iteration #  3     ecut=    30.00 Ry     beta=0.20
     Davidson diagonalization with overlap
     ethr =  2.54E-06,  avg # of iterations =  2.0
 --- enter write_ns ---
 LDA+U parameters:
U( 1)     =  0.00000000
alpha( 1) = -0.05000000
U( 2)     =  0.00000000
alpha( 2) =  0.00000000
U( 3)     =  0.00000000
alpha( 3) =  0.00000000
U( 4)     =  0.00000000
alpha( 4) =  0.00000000
atom    1   Tr[ns(na)] =   8.02811
    eigenvalues: 
  0.596  0.596  0.939  0.941  0.941
    eigenvectors:
  0.000  0.000  1.000  0.000  0.000
  0.333  0.322  0.000  0.004  0.342
  0.322  0.333  0.000  0.342  0.004
  0.289  0.056  0.000  0.515  0.140
  0.056  0.289  0.000  0.140  0.515
    occupations:
  0.939  0.000  0.000  0.000  0.000
  0.000  0.715  0.000 -0.060  0.152
  0.000  0.000  0.715  0.152  0.060
  0.000 -0.060  0.152  0.822  0.000
  0.000  0.152  0.060  0.000  0.822
atom    2   Tr[ns(na)] =   8.01850
    eigenvalues: 
  0.595  0.595  0.938  0.941  0.941
    eigenvectors:
  0.000  0.000  1.000  0.000  0.000
  0.640  0.015  0.000  0.223  0.123
  0.015  0.640  0.000  0.123  0.223
  0.016  0.329  0.000  0.470  0.185
  0.329  0.016  0.000  0.185  0.470
    occupations:
  0.938  0.000  0.000  0.000  0.000
  0.000  0.714  0.000  0.060  0.153
  0.000  0.000  0.714  0.153 -0.060
  0.000  0.060  0.153  0.821  0.000
  0.000  0.153 -0.060  0.000  0.821
atom    3   Tr[ns(na)] =   3.80236
    eigenvalues: 
  0.355  0.355  0.384  0.403  0.403
    eigenvectors:
  0.000  0.000  1.000  0.000  0.000
  0.781  0.139  0.000  0.012  0.068
  0.139  0.781  0.000  0.068  0.012
  0.013  0.067  0.000  0.780  0.141
  0.067  0.013  0.000  0.141  0.780
    occupations:
  0.384  0.000  0.000  0.000  0.000
  0.000  0.359  0.000  0.000  0.013
  0.000  0.000  0.359  0.013  0.000
  0.000  0.000  0.013  0.399  0.000
  0.000  0.013  0.000  0.000  0.399
atom    4   Tr[ns(na)] =   3.80236
    eigenvalues: 
  0.355  0.355  0.384  0.403  0.403
    eigenvectors:
  0.000  0.000  1.000  0.000  0.000
  0.781  0.139  0.000  0.012  0.068
  0.139  0.781  0.000  0.068  0.012
  0.013  0.067  0.000  0.780  0.141
  0.067  0.013  0.000  0.141  0.780
    occupations:
  0.384  0.000  0.000  0.000  0.000
  0.000  0.359  0.000  0.000  0.013
  0.000  0.000  0.359  0.013  0.000
  0.000  0.000  0.013  0.399  0.000
  0.000  0.013  0.000  0.000  0.399
atom    5   Tr[ns(na)] =   5.43347
    eigenvalues: 
  0.846  0.929  0.941
    eigenvectors:
  0.340  0.000  0.660
  0.494  0.251  0.256
  0.166  0.749  0.085
    occupations:
  0.909  0.039  0.023
  0.039  0.891 -0.022
  0.023 -0.022  0.917
atom    6   Tr[ns(na)] =   5.43347
    eigenvalues: 
  0.846  0.929  0.941
    eigenvectors:
  0.340  0.000  0.660
  0.000  1.000  0.000
  0.660  0.000  0.340
    occupations:
  0.909  0.000 -0.045
  0.000  0.929  0.000
 -0.045  0.000  0.879
atom    7   Tr[ns(na)] =   5.43347
    eigenvalues: 
  0.846  0.929  0.941
    eigenvectors:
  0.340  0.000  0.660
  0.496  0.249  0.255
  0.164  0.751  0.085
    occupations:
  0.909 -0.039  0.022
 -0.039  0.891  0.022
  0.022  0.022  0.917
atom    8   Tr[ns(na)] =   5.43347
    eigenvalues: 
  0.846  0.929  0.941
    eigenvectors:
  0.340  0.000  0.660
  0.000  1.000  0.000
  0.660  0.000  0.340
    occupations:
  0.909  0.000 -0.045
  0.000  0.929  0.000
 -0.045  0.000  0.879
atom    9   Tr[ns(na)] =   5.43347
    eigenvalues: 
  0.846  0.929  0.941
    eigenvectors:
  0.340  0.000  0.660
  0.494  0.251  0.256
  0.166  0.749  0.085
    occupations:
  0.909  0.039  0.023
  0.039  0.891 -0.022
  0.023 -0.022  0.917
atom   10   Tr[ns(na)] =   5.43347
    eigenvalues: 
  0.846  0.929  0.941
    eigenvectors:
  0.340  0.000  0.660
  0.496  0.249  0.255
  0.164  0.751  0.085
    occupations:
  0.909 -0.039  0.022
 -0.039  0.891  0.022
  0.022  0.022  0.917
N of occupied +U levels =  56.2521586
 --- exit write_ns ---
 --- in v_hubbard ---
Hubbard energy   -0.0295
 -------

     total cpu time spent up to now is       64.2 secs

     total energy              =    -538.36254032 Ry
     Harris-Foulkes estimate   =    -538.36254120 Ry
     estimated scf accuracy    <       0.00000867 Ry

     iteration #  4     ecut=    30.00 Ry     beta=0.20
     Davidson diagonalization with overlap
     ethr =  1.14E-08,  avg # of iterations =  3.6
 --- enter write_ns ---
 LDA+U parameters:
U( 1)     =  0.00000000
alpha( 1) = -0.05000000
U( 2)     =  0.00000000
alpha( 2) =  0.00000000
U( 3)     =  0.00000000
alpha( 3) =  0.00000000
U( 4)     =  0.00000000
alpha( 4) =  0.00000000
atom    1   Tr[ns(na)] =   8.02880
    eigenvalues: 
  0.597  0.597  0.939  0.941  0.941
    eigenvectors:
  0.000  0.000  1.000  0.000  0.000
  0.333  0.322  0.000  0.004  0.341
  0.322  0.333  0.000  0.341  0.004
  0.289  0.057  0.000  0.515  0.140
  0.057  0.289  0.000  0.140  0.515
    occupations:
  0.939  0.000  0.000  0.000  0.000
  0.000  0.716  0.000 -0.060  0.152
  0.000  0.000  0.716  0.152  0.060
  0.000 -0.060  0.152  0.822  0.000
  0.000  0.152  0.060  0.000  0.822
atom    2   Tr[ns(na)] =   8.02112
    eigenvalues: 
  0.595  0.595  0.938  0.941  0.941
    eigenvectors:
  0.000  0.000  1.000  0.000  0.000
  0.640  0.015  0.000  0.223  0.123
  0.015  0.640  0.000  0.123  0.223
  0.016  0.329  0.000  0.470  0.185
  0.329  0.016  0.000  0.185  0.470
    occupations:
  0.938  0.000  0.000  0.000  0.000
  0.000  0.715  0.000  0.060  0.153
  0.000  0.000  0.715  0.153 -0.060
  0.000  0.060  0.153  0.822  0.000
  0.000  0.153 -0.060  0.000  0.822
atom    3   Tr[ns(na)] =   3.80243
    eigenvalues: 
  0.355  0.355  0.384  0.403  0.403
    eigenvectors:
  0.000  0.000  1.000  0.000  0.000
  0.782  0.139  0.000  0.012  0.068
  0.139  0.782  0.000  0.068  0.012
  0.013  0.067  0.000  0.780  0.141
  0.067  0.013  0.000  0.141  0.780
    occupations:
  0.384  0.000  0.000  0.000  0.000
  0.000  0.359  0.000  0.000  0.013
  0.000  0.000  0.359  0.013  0.000
  0.000  0.000  0.013  0.399  0.000
  0.000  0.013  0.000  0.000  0.399
atom    4   Tr[ns(na)] =   3.80243
    eigenvalues: 
  0.355  0.355  0.384  0.403  0.403
    eigenvectors:
  0.000  0.000  1.000  0.000  0.000
  0.781  0.139  0.000  0.012  0.068
  0.139  0.781  0.000  0.068  0.012
  0.013  0.067  0.000  0.780  0.141
  0.067  0.013  0.000  0.141  0.780
    occupations:
  0.384  0.000  0.000  0.000  0.000
  0.000  0.359  0.000  0.000  0.013
  0.000  0.000  0.359  0.013  0.000
  0.000  0.000  0.013  0.399  0.000
  0.000  0.013  0.000  0.000  0.399
atom    5   Tr[ns(na)] =   5.43295
    eigenvalues: 
  0.846  0.929  0.941
    eigenvectors:
  0.340  0.000  0.660
  0.494  0.251  0.256
  0.166  0.749  0.085
    occupations:
  0.909  0.039  0.023
  0.039  0.891 -0.022
  0.023 -0.022  0.917
atom    6   Tr[ns(na)] =   5.43295
    eigenvalues: 
  0.846  0.929  0.941
    eigenvectors:
  0.340  0.000  0.660
  0.000  1.000  0.000
  0.660  0.000  0.340
    occupations:
  0.909  0.000 -0.045
  0.000  0.929  0.000
 -0.045  0.000  0.878
atom    7   Tr[ns(na)] =   5.43295
    eigenvalues: 
  0.846  0.929  0.941
    eigenvectors:
  0.340  0.000  0.660
  0.496  0.249  0.255
  0.164  0.751  0.086
    occupations:
  0.909 -0.039  0.022
 -0.039  0.891  0.022
  0.022  0.022  0.917
atom    8   Tr[ns(na)] =   5.43295
    eigenvalues: 
  0.846  0.929  0.941
    eigenvectors:
  0.340  0.000  0.660
  0.000  1.000  0.000
  0.660  0.000  0.340
    occupations:
  0.909  0.000 -0.045
  0.000  0.929  0.000
 -0.045  0.000  0.878
atom    9   Tr[ns(na)] =   5.43295
    eigenvalues: 
  0.846  0.929  0.941
    eigenvectors:
  0.340  0.000  0.660
  0.494  0.251  0.256
  0.166  0.749  0.085
    occupations:
  0.909  0.039  0.023
  0.039  0.891 -0.022
  0.023 -0.022  0.917
atom   10   Tr[ns(na)] =   5.43295
    eigenvalues: 
  0.846  0.929  0.941
    eigenvectors:
  0.340  0.000  0.660
  0.496  0.249  0.255
  0.164  0.751  0.086
    occupations:
  0.909 -0.039  0.022
 -0.039  0.891  0.022
  0.022  0.022  0.917
N of occupied +U levels =  56.2524698
 --- exit write_ns ---
 --- in v_hubbard ---
Hubbard energy   -0.0295
 -------

     total cpu time spent up to now is       81.3 secs

     total energy              =    -538.36254400 Ry
     Harris-Foulkes estimate   =    -538.36254348 Ry
     estimated scf accuracy    <       0.00000046 Ry

     iteration #  5     ecut=    30.00 Ry     beta=0.20
     Davidson diagonalization with overlap
     ethr =  6.11E-10,  avg # of iterations =  2.3
 --- enter write_ns ---
 LDA+U parameters:
U( 1)     =  0.00000000
alpha( 1) = -0.05000000
U( 2)     =  0.00000000
alpha( 2) =  0.00000000
U( 3)     =  0.00000000
alpha( 3) =  0.00000000
U( 4)     =  0.00000000
alpha( 4) =  0.00000000
atom    1   Tr[ns(na)] =   8.02819
    eigenvalues: 
  0.597  0.597  0.938  0.941  0.941
    eigenvectors:
  0.000  0.000  1.000  0.000  0.000
  0.333  0.322  0.000  0.004  0.341
  0.322  0.333  0.000  0.341  0.004
  0.289  0.057  0.000  0.515  0.140
  0.057  0.289  0.000  0.140  0.515
    occupations:
  0.938  0.000  0.000  0.000  0.000
  0.000  0.716  0.000 -0.060  0.152
  0.000  0.000  0.716  0.152  0.060
  0.000 -0.060  0.152  0.822  0.000
  0.000  0.152  0.060  0.000  0.822
atom    2   Tr[ns(na)] =   8.02156
    eigenvalues: 
  0.595  0.595  0.938  0.941  0.941
    eigenvectors:
  0.000  0.000  1.000  0.000  0.000
  0.640  0.015  0.000  0.223  0.123
  0.015  0.640  0.000  0.123  0.223
  0.016  0.329  0.000  0.470  0.185
  0.329  0.016  0.000  0.185  0.470
    occupations:
  0.938  0.000  0.000  0.000  0.000
  0.000  0.715  0.000  0.060  0.153
  0.000  0.000  0.715  0.153 -0.060
  0.000  0.060  0.153  0.822  0.000
  0.000  0.153 -0.060  0.000  0.822
atom    3   Tr[ns(na)] =   3.80250
    eigenvalues: 
  0.355  0.355  0.384  0.403  0.403
    eigenvectors:
  0.000  0.000  1.000  0.000  0.000
  0.781  0.139  0.000  0.012  0.068
  0.139  0.781  0.000  0.068  0.012
  0.013  0.067  0.000  0.780  0.141
  0.067  0.013  0.000  0.141  0.780
    occupations:
  0.384  0.000  0.000  0.000  0.000
  0.000  0.359  0.000  0.000  0.013
  0.000  0.000  0.359  0.013  0.000
  0.000  0.000  0.013  0.399  0.000
  0.000  0.013  0.000  0.000  0.399
atom    4   Tr[ns(na)] =   3.80250
    eigenvalues: 
  0.355  0.355  0.384  0.403  0.403
    eigenvectors:
  0.000  0.000  1.000  0.000  0.000
  0.782  0.139  0.000  0.012  0.068
  0.139  0.782  0.000  0.068  0.012
  0.013  0.067  0.000  0.780  0.141
  0.067  0.013  0.000  0.141  0.780
    occupations:
  0.384  0.000  0.000  0.000  0.000
  0.000  0.359  0.000  0.000  0.013
  0.000  0.000  0.359  0.013  0.000
  0.000  0.000  0.013  0.399  0.000
  0.000  0.013  0.000  0.000  0.399
atom    5   Tr[ns(na)] =   5.43296
    eigenvalues: 
  0.846  0.929  0.941
    eigenvectors:
  0.340  0.000  0.660
  0.494  0.251  0.256
  0.166  0.749  0.085
    occupations:
  0.909  0.039  0.023
  0.039  0.891 -0.022
  0.023 -0.022  0.917
atom    6   Tr[ns(na)] =   5.43296
    eigenvalues: 
  0.846  0.929  0.941
    eigenvectors:
  0.340  0.000  0.660
  0.000  1.000  0.000
  0.660  0.000  0.340
    occupations:
  0.909  0.000 -0.045
  0.000  0.929  0.000
 -0.045  0.000  0.878
atom    7   Tr[ns(na)] =   5.43296
    eigenvalues: 
  0.846  0.929  0.941
    eigenvectors:
  0.340  0.000  0.660
  0.496  0.249  0.255
  0.164  0.751  0.086
    occupations:
  0.909 -0.039  0.022
 -0.039  0.891  0.022
  0.022  0.022  0.917
atom    8   Tr[ns(na)] =   5.43296
    eigenvalues: 
  0.846  0.929  0.941
    eigenvectors:
  0.340  0.000  0.660
  0.000  1.000  0.000
  0.660  0.000  0.340
    occupations:
  0.909  0.000 -0.045
  0.000  0.929  0.000
 -0.045  0.000  0.878
atom    9   Tr[ns(na)] =   5.43296
    eigenvalues: 
  0.846  0.929  0.941
    eigenvectors:
  0.340  0.000  0.660
  0.494  0.251  0.256
  0.166  0.749  0.085
    occupations:
  0.909  0.039  0.023
  0.039  0.891 -0.022
  0.023 -0.022  0.917
atom   10   Tr[ns(na)] =   5.43296
    eigenvalues: 
  0.846  0.929  0.941
    eigenvectors:
  0.340  0.000  0.660
  0.496  0.249  0.255
  0.164  0.751  0.086
    occupations:
  0.909 -0.039  0.022
 -0.039  0.891  0.022
  0.022  0.022  0.917
N of occupied +U levels =  56.2525089
 --- exit write_ns ---
 --- in v_hubbard ---
Hubbard energy   -0.0295
 -------

     total cpu time spent up to now is       96.6 secs

     total energy              =    -538.36254440 Ry
     Harris-Foulkes estimate   =    -538.36254404 Ry
     estimated scf accuracy    <       0.00000015 Ry

     iteration #  6     ecut=    30.00 Ry     beta=0.20
     Davidson diagonalization with overlap
     ethr =  2.00E-10,  avg # of iterations =  1.8
 --- enter write_ns ---
 LDA+U parameters:
U( 1)     =  0.00000000
alpha( 1) = -0.05000000
U( 2)     =  0.00000000
alpha( 2) =  0.00000000
U( 3)     =  0.00000000
alpha( 3) =  0.00000000
U( 4)     =  0.00000000
alpha( 4) =  0.00000000
atom    1   Tr[ns(na)] =   8.02841
    eigenvalues: 
  0.597  0.597  0.939  0.941  0.941
    eigenvectors:
  0.000  0.000  1.000  0.000  0.000
  0.333  0.321  0.000  0.004  0.341
  0.321  0.333  0.000  0.341  0.004
  0.288  0.057  0.000  0.515  0.140
  0.057  0.288  0.000  0.140  0.515
    occupations:
  0.939  0.000  0.000  0.000  0.000
  0.000  0.716  0.000 -0.060  0.152
  0.000  0.000  0.716  0.152  0.060
  0.000 -0.060  0.152  0.822  0.000
  0.000  0.152  0.060  0.000  0.822
atom    2   Tr[ns(na)] =   8.02138
    eigenvalues: 
  0.595  0.595  0.938  0.941  0.941
    eigenvectors:
  0.000  0.000  1.000  0.000  0.000
  0.639  0.015  0.000  0.223  0.123
  0.015  0.639  0.000  0.123  0.223
  0.016  0.329  0.000  0.470  0.185
  0.329  0.016  0.000  0.185  0.470
    occupations:
  0.938  0.000  0.000  0.000  0.000
  0.000  0.715  0.000  0.060  0.153
  0.000  0.000  0.715  0.153 -0.060
  0.000  0.060  0.153  0.822  0.000
  0.000  0.153 -0.060  0.000  0.822
atom    3   Tr[ns(na)] =   3.80255
    eigenvalues: 
  0.355  0.355  0.384  0.403  0.403
    eigenvectors:
  0.000  0.000  1.000  0.000  0.000
  0.781  0.139  0.000  0.012  0.068
  0.139  0.781  0.000  0.068  0.012
  0.013  0.067  0.000  0.780  0.140
  0.067  0.013  0.000  0.140  0.780
    occupations:
  0.384  0.000  0.000  0.000  0.000
  0.000  0.359  0.000  0.000  0.013
  0.000  0.000  0.359  0.013  0.000
  0.000  0.000  0.013  0.399  0.000
  0.000  0.013  0.000  0.000  0.399
atom    4   Tr[ns(na)] =   3.80255
    eigenvalues: 
  0.355  0.355  0.384  0.403  0.403
    eigenvectors:
  0.000  0.000  1.000  0.000  0.000
  0.781  0.139  0.000  0.012  0.068
  0.139  0.781  0.000  0.068  0.012
  0.013  0.067  0.000  0.780  0.141
  0.067  0.013  0.000  0.141  0.780
    occupations:
  0.384  0.000  0.000  0.000  0.000
  0.000  0.359  0.000  0.000  0.013
  0.000  0.000  0.359  0.013  0.000
  0.000  0.000  0.013  0.399  0.000
  0.000  0.013  0.000  0.000  0.399
atom    5   Tr[ns(na)] =   5.43294
    eigenvalues: 
  0.846  0.929  0.941
    eigenvectors:
  0.340  0.000  0.660
  0.494  0.251  0.256
  0.166  0.749  0.085
    occupations:
  0.909  0.039  0.023
  0.039  0.891 -0.022
  0.023 -0.022  0.917
atom    6   Tr[ns(na)] =   5.43294
    eigenvalues: 
  0.846  0.929  0.941
    eigenvectors:
  0.340  0.000  0.660
  0.000  1.000  0.000
  0.660  0.000  0.340
    occupations:
  0.909  0.000 -0.045
  0.000  0.929  0.000
 -0.045  0.000  0.878
atom    7   Tr[ns(na)] =   5.43294
    eigenvalues: 
  0.846  0.929  0.941
    eigenvectors:
  0.340  0.000  0.660
  0.496  0.249  0.255
  0.164  0.751  0.086
    occupations:
  0.909 -0.039  0.022
 -0.039  0.891  0.022
  0.022  0.022  0.917
atom    8   Tr[ns(na)] =   5.43294
    eigenvalues: 
  0.846  0.929  0.941
    eigenvectors:
  0.340  0.000  0.660
  0.000  1.000  0.000
  0.660  0.000  0.340
    occupations:
  0.909  0.000 -0.045
  0.000  0.929  0.000
 -0.045  0.000  0.878
atom    9   Tr[ns(na)] =   5.43294
    eigenvalues: 
  0.846  0.929  0.941
    eigenvectors:
  0.340  0.000  0.660
  0.494  0.251  0.256
  0.166  0.749  0.085
    occupations:
  0.909  0.039  0.023
  0.039  0.891 -0.022
  0.023 -0.022  0.917
atom   10   Tr[ns(na)] =   5.43294
    eigenvalues: 
  0.846  0.929  0.941
    eigenvectors:
  0.340  0.000  0.660
  0.496  0.249  0.255
  0.164  0.751  0.086
    occupations:
  0.909 -0.039  0.022
 -0.039  0.891  0.022
  0.022  0.022  0.917
N of occupied +U levels =  56.2525478
 --- exit write_ns ---
 --- in v_hubbard ---
Hubbard energy   -0.0295
 -------

     total cpu time spent up to now is      112.2 secs

     End of self-consistent calculation

          k = 0.0000 0.0000 0.0000 (  2175 PWs)   bands (ev):

   -19.7946 -19.6213  -6.5316  -5.8085  -5.8085  -5.7986  -5.7986  -5.4655
    -3.7484  -3.2586  -3.1852  -3.1852  -3.0190  -3.0190   5.2018   6.9350
     6.9350   7.5317   7.5317   7.7254   7.8263   7.8263   7.8864   9.3087
     9.6286   9.6286   9.8795   9.9319   9.9319  10.4791  10.4791  10.6629
    10.6629  10.6906  10.8126  11.5121  11.5121  12.1860  12.3039  12.3039
    14.7821  14.7821  15.4315  15.4315  16.1978  16.7892

     occupation numbers 
     0.0313   0.0313   0.0313   0.0313   0.0313   0.0313   0.0313   0.0313
     0.0313   0.0313   0.0313   0.0313   0.0313   0.0313   0.0313   0.0313
     0.0313   0.0313   0.0313   0.0313   0.0313   0.0313   0.0313   0.0313
     0.0313   0.0313   0.0312   0.0312   0.0312   0.0312   0.0312   0.0312
     0.0312   0.0312   0.0312   0.0309   0.0309   0.0149   0.0100   0.0100
     0.0000   0.0000   0.0000   0.0000   0.0000   0.0000

          k =-0.2471-0.1427 0.1027 (  2181 PWs)   bands (ev):

   -19.7667 -19.6445  -6.7118  -6.2713  -5.9146  -5.8259  -5.5900  -5.4562
    -3.5671  -3.3764  -2.9172  -2.8938  -2.8313  -2.7495   5.5666   6.8933
     7.0370   7.0436   7.3482   7.5208   7.5854   7.8269   7.8698   8.6249
     8.7223   9.3548   9.6755   9.8113   9.8611  10.0421  10.3887  10.3999
    11.0381  11.0693  11.1525  11.8862  11.9382  12.0001  12.3620  12.4209
    14.3252  14.3332  15.8193  16.0745  16.9748  17.2702

     occupation numbers 
     0.1875   0.1875   0.1875   0.1875   0.1875   0.1875   0.1875   0.1875
     0.1875   0.1875   0.1875   0.1875   0.1875   0.1875   0.1875   0.1875
     0.1875   0.1875   0.1875   0.1875   0.1875   0.1875   0.1875   0.1875
     0.1875   0.1875   0.1875   0.1875   0.1875   0.1875   0.1875   0.1875
     0.1875   0.1875   0.1875   0.1569   0.1479   0.1353   0.0474   0.0360
     0.0000   0.0000   0.0000   0.0000   0.0000   0.0000

          k = 0.4942 0.2853-0.2053 (  2202 PWs)   bands (ev):

   -19.7034 -19.7030  -6.7122  -6.7002  -5.9372  -5.9350  -5.4983  -5.4972
    -3.3666  -3.3630  -2.7760  -2.7733  -2.4999  -2.4979   6.1028   6.1063
     7.2276   7.2500   7.2906   7.3184   7.6578   7.6899   7.9848   8.0161
     8.1960   8.2322   9.5497   9.5502   9.8869   9.8935  10.2937  10.3024
    11.4769  11.4803  11.5583  11.5595  11.7240  11.7260  13.3020  13.3333
    13.3895  13.4209  16.8383  16.8430  17.1365  17.1396

     occupation numbers 
     0.0938   0.0938   0.0938   0.0938   0.0938   0.0938   0.0938   0.0938
     0.0938   0.0938   0.0938   0.0938   0.0938   0.0938   0.0938   0.0938
     0.0938   0.0938   0.0938   0.0938   0.0938   0.0938   0.0938   0.0938
     0.0938   0.0938   0.0938   0.0938   0.0937   0.0937   0.0937   0.0937
     0.0930   0.0930   0.0921   0.0921   0.0880   0.0879   0.0000   0.0000
     0.0000   0.0000   0.0000   0.0000   0.0000   0.0000

          k =-0.2471 0.1427 0.2053 (  2195 PWs)   bands (ev):

   -19.7620 -19.6471  -6.8367  -6.2111  -6.0462  -5.8086  -5.6359  -5.4301
    -3.3932  -3.2522  -3.0860  -2.8754  -2.7983  -2.5510   5.5976   6.8583
     6.9329   7.1231   7.2539   7.4882   7.5016   7.8760   7.8789   8.6950
     8.9157   8.9220   9.3070   9.8070  10.0008  10.1096  10.2130  10.3100
    10.6859  11.3966  11.4225  11.5135  11.9368  12.0039  12.1781  12.7433
    13.6459  14.7969  15.9952  16.1971  17.0391  17.5393

     occupation numbers 
     0.1875   0.1875   0.1875   0.1875   0.1875   0.1875   0.1875   0.1875
     0.1875   0.1875   0.1875   0.1875   0.1875   0.1875   0.1875   0.1875
     0.1875   0.1875   0.1875   0.1875   0.1875   0.1875   0.1875   0.1875
     0.1875   0.1875   0.1875   0.1875   0.1875   0.1875   0.1875   0.1875
     0.1875   0.1868   0.1866   0.1853   0.1482   0.1345   0.0916   0.0044
     0.0000   0.0000   0.0000   0.0000   0.0000   0.0000

          k = 0.4942 0.5706-0.1027 (  2198 PWs)   bands (ev):

   -19.7221 -19.6819  -6.9389  -6.6299  -6.1124  -5.8744  -5.4875  -5.3536
    -3.2887  -3.2417  -2.8654  -2.6962  -2.5164  -2.3743   5.9287   6.2905
     6.8942   7.0395   7.2386   7.3590   7.5725   7.8170   7.9597   8.0869
     8.3755   8.9221   9.1791   9.3664   9.6777   9.8311   9.9844  10.3757
    11.1043  11.5456  11.6355  11.7071  11.8388  11.8610  12.3431  12.7479
    13.4345  14.3726  16.9084  17.1190  17.3152  18.0194

     occupation numbers 
     0.1875   0.1875   0.1875   0.1875   0.1875   0.1875   0.1875   0.1875
     0.1875   0.1875   0.1875   0.1875   0.1875   0.1875   0.1875   0.1875
     0.1875   0.1875   0.1875   0.1875   0.1875   0.1875   0.1875   0.1875
     0.1875   0.1875   0.1875   0.1875   0.1875   0.1875   0.1875   0.1875
     0.1875   0.1846   0.1815   0.1773   0.1639   0.1608   0.0514   0.0042
     0.0000   0.0000   0.0000   0.0000   0.0000   0.0000

          k = 0.2471 0.4280 0.0000 (  2203 PWs)   bands (ev):

   -19.7318 -19.6743  -6.8316  -6.6206  -6.0334  -5.9587  -5.4137  -5.3417
    -3.4941  -3.2834  -2.7897  -2.6997  -2.5557  -2.5456   5.9048   6.3396
     7.0940   7.1425   7.2409   7.3310   7.4762   7.7364   7.8330   8.2004
     8.4383   8.9501   9.4345   9.4824   9.7888   9.8076  10.0790  10.3780
    11.4050  11.4156  11.4443  11.6659  11.6767  11.9584  12.2904  13.3310
    13.4040  14.1675  16.4408  16.9963  17.4241  17.9295

     occupation numbers 
     0.1875   0.1875   0.1875   0.1875   0.1875   0.1875   0.1875   0.1875
     0.1875   0.1875   0.1875   0.1875   0.1875   0.1875   0.1875   0.1875
     0.1875   0.1875   0.1875   0.1875   0.1875   0.1875   0.1875   0.1875
     0.1875   0.1875   0.1875   0.1875   0.1875   0.1875   0.1875   0.1875
     0.1867   0.1867   0.1864   0.1799   0.1793   0.1440   0.0633   0.0000
     0.0000   0.0000   0.0000   0.0000   0.0000   0.0000

          k = 0.4942-0.2853-0.4107 (  2202 PWs)   bands (ev):

   -19.7288 -19.6726  -7.1493  -6.4410  -6.2257  -5.9414  -5.5131  -5.2587
    -3.1787  -3.1179  -3.0293  -2.6410  -2.4704  -2.2123   5.8237   6.3309
     6.4620   6.9278   7.1616   7.2693   7.8954   7.9215   8.1683   8.3293
     8.5942   8.6103   8.6428   9.4285   9.6856  10.0476  10.0855  10.4530
    10.6503  11.2993  11.5709  11.7595  11.8662  11.9776  12.0732  12.4627
    13.3334  14.8089  17.0444  17.2687  17.5243  17.6102

     occupation numbers 
     0.0938   0.0938   0.0938   0.0938   0.0938   0.0938   0.0938   0.0938
     0.0938   0.0938   0.0938   0.0938   0.0938   0.0938   0.0938   0.0938
     0.0938   0.0938   0.0938   0.0938   0.0938   0.0938   0.0938   0.0938
     0.0938   0.0938   0.0938   0.0938   0.0938   0.0937   0.0937   0.0937
     0.0937   0.0936   0.0920   0.0865   0.0800   0.0700   0.0591   0.0145
     0.0000   0.0000   0.0000   0.0000   0.0000   0.0000

          k = 0.0000 0.0000 0.3080 (  2187 PWs)   bands (ev):

   -19.7665 -19.6443  -6.5995  -5.9619  -5.9032  -5.9032  -5.8176  -5.8176
    -3.1860  -3.0906  -3.0906  -2.9592  -2.8852  -2.8852   5.6199   7.0324
     7.0324   7.1535   7.4519   7.4519   7.5255   7.8570   7.8570   8.8730
     8.8730   9.4440   9.4530   9.6745   9.6745   9.8875  10.1484  10.1484
    11.1553  11.1553  11.2208  11.8995  11.8995  12.0127  12.3435  12.3435
    14.2865  14.2865  15.9137  15.9137  16.8809  17.4844

     occupation numbers 
     0.0625   0.0625   0.0625   0.0625   0.0625   0.0625   0.0625   0.0625
     0.0625   0.0625   0.0625   0.0625   0.0625   0.0625   0.0625   0.0625
     0.0625   0.0625   0.0625   0.0625   0.0625   0.0625   0.0625   0.0625
     0.0625   0.0625   0.0625   0.0625   0.0625   0.0625   0.0625   0.0625
     0.0625   0.0625   0.0625   0.0516   0.0516   0.0442   0.0171   0.0171
     0.0000   0.0000   0.0000   0.0000   0.0000   0.0000

          k = 0.7412 0.4280 0.0000 (  2204 PWs)   bands (ev):

   -19.7315 -19.6741  -6.7167  -6.5842  -6.1276  -5.8107  -5.6519  -5.5235
    -3.1550  -3.0768  -3.0357  -2.6648  -2.6435  -2.5720   5.9443   6.5222
     7.1059   7.2130   7.2414   7.3514   7.4657   7.6763   8.0156   8.1560
     8.4662   8.8557   9.4817   9.5053   9.6253   9.6964   9.8707  10.2316
    11.4026  11.4169  11.5138  11.6967  11.7234  11.8890  12.3005  13.2554
    13.3194  14.1909  16.6942  16.7258  17.5934  17.7982

     occupation numbers 
     0.1875   0.1875   0.1875   0.1875   0.1875   0.1875   0.1875   0.1875
     0.1875   0.1875   0.1875   0.1875   0.1875   0.1875   0.1875   0.1875
     0.1875   0.1875   0.1875   0.1875   0.1875   0.1875   0.1875   0.1875
     0.1875   0.1875   0.1875   0.1875   0.1875   0.1875   0.1875   0.1875
     0.1868   0.1866   0.1853   0.1780   0.1761   0.1565   0.0610   0.0000
     0.0000   0.0000   0.0000   0.0000   0.0000   0.0000

          k = 0.4942 0.2853 0.1027 (  2211 PWs)   bands (ev):

   -19.7221 -19.6818  -6.9553  -6.5273  -6.3053  -5.6738  -5.6044  -5.3287
    -3.3023  -3.1556  -3.0157  -2.5933  -2.5493  -2.3674   5.9587   6.2601
     6.8490   7.0298   7.2377   7.2993   7.5918   7.8889   7.9902   8.0538
     8.4082   9.0511   9.1769   9.4177   9.5599   9.6886  10.0357  10.3985
    11.1185  11.5817  11.7090  11.7152  11.7754  11.7947  12.2951  12.7651
    13.4799  14.3542  16.8891  16.9378  17.5866  17.9330

     occupation numbers 
     0.1875   0.1875   0.1875   0.1875   0.1875   0.1875   0.1875   0.1875
     0.1875   0.1875   0.1875   0.1875   0.1875   0.1875   0.1875   0.1875
     0.1875   0.1875   0.1875   0.1875   0.1875   0.1875   0.1875   0.1875
     0.1875   0.1875   0.1875   0.1875   0.1875   0.1875   0.1875   0.1875
     0.1875   0.1836   0.1771   0.1767   0.1714   0.1693   0.0622   0.0037
     0.0000   0.0000   0.0000   0.0000   0.0000   0.0000

          k = 0.7412-0.4280-0.3080 (  2210 PWs)   bands (ev):

   -19.7218 -19.6816  -6.8912  -6.4343  -6.2832  -5.7787  -5.7364  -5.4554
    -3.0586  -3.0373  -2.9536  -2.7178  -2.6090  -2.4174   6.0167   6.4026
     6.9402   7.0172   7.2823   7.2863   7.6136   7.9080   8.0367   8.0867
     8.3841   9.0213   9.0355   9.5330   9.5582   9.5987   9.6766  10.2337
    11.1748  11.6030  11.6953  11.7051  11.8189  11.8603  12.2527  12.7128
    13.4278  14.3236  17.0644  17.0710  17.5549  17.9075

     occupation numbers 
     0.1875   0.1875   0.1875   0.1875   0.1875   0.1875   0.1875   0.1875
     0.1875   0.1875   0.1875   0.1875   0.1875   0.1875   0.1875   0.1875
     0.1875   0.1875   0.1875   0.1875   0.1875   0.1875   0.1875   0.1875
     0.1875   0.1875   0.1875   0.1875   0.1875   0.1875   0.1875   0.1875
     0.1874   0.1828   0.1781   0.1774   0.1665   0.1609   0.0725   0.0056
     0.0000   0.0000   0.0000   0.0000   0.0000   0.0000

          k = 0.4942-0.5706-0.2053 (  2206 PWs)   bands (ev):

   -19.7009 -19.7009  -6.8694  -6.8601  -6.0200  -6.0184  -5.3997  -5.3989
    -3.1425  -3.1423  -2.8006  -2.7999  -2.3740  -2.3715   6.1032   6.1209
     7.0221   7.0282   7.1541   7.1639   7.4461   7.4477   8.2054   8.2500
     8.8154   8.8158   9.0869   9.0873   9.5659   9.5700  10.1190  10.1204
    11.3891  11.3899  11.5900  11.5923  11.8618  11.8626  12.3266  12.3282
    14.0133  14.0228  17.4333  17.4337  17.8704  17.8727

     occupation numbers 
     0.1875   0.1875   0.1875   0.1875   0.1875   0.1875   0.1875   0.1875
     0.1875   0.1875   0.1875   0.1875   0.1875   0.1875   0.1875   0.1875
     0.1875   0.1875   0.1875   0.1875   0.1875   0.1875   0.1875   0.1875
     0.1875   0.1875   0.1875   0.1875   0.1875   0.1875   0.1875   0.1875
     0.1869   0.1869   0.1833   0.1832   0.1607   0.1606   0.0550   0.0546
     0.0000   0.0000   0.0000   0.0000   0.0000   0.0000

          k = 0.0000 0.0000-0.6160 (  2186 PWs)   bands (ev):

   -19.7030 -19.7025  -6.4987  -6.4837  -5.9161  -5.9161  -5.9152  -5.9152
    -2.8759  -2.8759  -2.8731  -2.8731  -2.7010  -2.7008   6.3243   6.3290
     7.2341   7.2341   7.2602   7.2602   7.8547   7.8881   8.1062   8.1062
     8.1422   8.1422   9.6624   9.6624   9.6670   9.6670   9.7242   9.7338
    11.6103  11.6109  11.6591  11.6591  11.6596  11.6596  13.2446  13.2446
    13.2747  13.2747  17.1210  17.1210  17.1229  17.1229

     occupation numbers 
     0.0313   0.0313   0.0313   0.0313   0.0313   0.0313   0.0313   0.0313
     0.0313   0.0313   0.0313   0.0313   0.0313   0.0313   0.0313   0.0313
     0.0313   0.0313   0.0313   0.0313   0.0313   0.0313   0.0313   0.0313
     0.0313   0.0313   0.0313   0.0313   0.0313   0.0313   0.0313   0.0313
     0.0304   0.0304   0.0300   0.0300   0.0300   0.0300   0.0000   0.0000
     0.0000   0.0000   0.0000   0.0000   0.0000   0.0000

          k = 0.4942-0.5706 0.1027 (  2198 PWs)   bands (ev):

   -19.7221 -19.6819  -6.9396  -6.6296  -6.1126  -5.8720  -5.4889  -5.3540
    -3.2897  -3.2415  -2.8653  -2.6950  -2.5170  -2.3741   5.9268   6.2938
     6.8893   7.0402   7.2475   7.3549   7.5726   7.8186   7.9331   8.1173
     8.3664   8.9294   9.1743   9.3649   9.6759   9.8327   9.9840  10.3768
    11.1033  11.5481  11.6349  11.7070  11.8390  11.8604  12.3429  12.7474
    13.4343  14.3724  16.9102  17.1162  17.3158  18.0197

     occupation numbers 
     0.1875   0.1875   0.1875   0.1875   0.1875   0.1875   0.1875   0.1875
     0.1875   0.1875   0.1875   0.1875   0.1875   0.1875   0.1875   0.1875
     0.1875   0.1875   0.1875   0.1875   0.1875   0.1875   0.1875   0.1875
     0.1875   0.1875   0.1875   0.1875   0.1875   0.1875   0.1875   0.1875
     0.1875   0.1846   0.1815   0.1773   0.1639   0.1609   0.0514   0.0042
     0.0000   0.0000   0.0000   0.0000   0.0000   0.0000

     the Fermi energy is    12.1697 ev

!    total energy              =    -538.36254507 Ry
     Harris-Foulkes estimate   =    -538.36254441 Ry
     estimated scf accuracy    <          8.6E-09 Ry

     The total energy is the sum of the following terms:

     one-electron contribution =     -32.89840152 Ry
     hartree contribution      =      83.61058405 Ry
     xc contribution           =    -199.55619385 Ry
     ewald contribution        =    -389.44315552 Ry
     Hubbard energy            =      -0.02950385 Ry
     smearing contrib. (-TS)   =      -0.04587439 Ry

     convergence has been achieved in   6 iterations

     init_run     :      7.28s CPU      7.46s WALL (       1 calls)
     electrons    :    102.75s CPU    104.07s WALL (       1 calls)

     Called by init_run:
     wfcinit      :      0.00s CPU      0.00s WALL (       1 calls)
     potinit      :      0.30s CPU      0.35s WALL (       1 calls)

     Called by electrons:
     c_bands      :     68.70s CPU     69.29s WALL (       6 calls)
     sum_band     :     19.97s CPU     20.16s WALL (       6 calls)
     v_of_rho     :      1.95s CPU      1.96s WALL (       7 calls)
     v_h          :      0.13s CPU      0.13s WALL (       7 calls)
     v_xc         :      1.82s CPU      1.83s WALL (       7 calls)
     newd         :     13.56s CPU     13.63s WALL (       7 calls)
     mix_rho      :      0.17s CPU      0.17s WALL (       6 calls)

     Called by c_bands:
     init_us_2    :      0.69s CPU      0.70s WALL (     168 calls)
     cegterg      :     66.89s CPU     67.35s WALL (      84 calls)

     Called by sum_band:
     sum_band:bec :      0.06s CPU      0.06s WALL (      84 calls)
     addusdens    :      8.55s CPU      8.55s WALL (       6 calls)

     Called by *egterg:
     h_psi        :     49.01s CPU     49.42s WALL (     461 calls)
     s_psi        :      2.79s CPU      2.79s WALL (     461 calls)
     g_psi        :      0.20s CPU      0.21s WALL (     377 calls)
     cdiaghg      :      5.57s CPU      5.58s WALL (     447 calls)
     cegterg:over :      3.41s CPU      3.43s WALL (     377 calls)
     cegterg:upda :      2.38s CPU      2.39s WALL (     377 calls)
     cegterg:last :      1.35s CPU      1.36s WALL (      96 calls)

     Called by h_psi:
     h_psi:vloc   :     39.98s CPU     40.37s WALL (     461 calls)
     h_psi:vnl    :      5.85s CPU      5.86s WALL (     461 calls)
     add_vuspsi   :      2.79s CPU      2.78s WALL (     461 calls)
     vhpsi        :      3.06s CPU      3.06s WALL (     461 calls)

     General routines
     calbec       :      6.20s CPU      6.25s WALL (    1090 calls)
     fft          :      1.35s CPU      1.37s WALL (     107 calls)
     ffts         :      0.03s CPU      0.09s WALL (      13 calls)
     fftw         :     36.62s CPU     37.09s WALL (   24194 calls)
     interpolate  :      0.24s CPU      0.31s WALL (      13 calls)
     davcio       :      0.00s CPU      0.21s WALL (     182 calls)

     Parallel routines
     fft_scatter  :     11.44s CPU     11.74s WALL (   24314 calls)
     Hubbard U routines
     new_ns       :      0.57s CPU      0.69s WALL (       6 calls)
     vhpsi        :      3.06s CPU      3.06s WALL (     461 calls)

     PWSCF        :  1m50.46s CPU     1m52.30s WALL


   This run was terminated on:   7:55:16  11Nov2012            

=------------------------------------------------------------------------------=
