   JOB DONE.
=------------------------------------------------------------------------------=

     Program PWSCF v.5.0.1 starts on 11Nov2012 at  7:58:36 

     This program is part of the open-source Quantum ESPRESSO suite
     for quantum simulation of materials; please cite
         "P. Giannozzi et al., J. Phys.:Condens. Matter 21 395502 (2009);
          URL http://www.quantum-espresso.org", 
     in publications or presentations arising from this work. More details at
     http://www.quantum-espresso.org/quote.php

     Parallel version (MPI), running on     2 processors
     R & G space division:  proc/pool =    2

     Current dimensions of program PWSCF are:
     Max number of different atomic species (ntypx) = 10
     Max number of k-points (npk) =  40000
     Max angular momentum in pseudopotentials (lmaxx) =  3
     Reading input from CoLaO_U0_a10.in
               file Co.pbe-nd-rrkjus.UPF: wavefunction(s)  4S 3D renormalized
               file Co.pbe-nd-rrkjus.UPF: wavefunction(s)  4S 3D renormalized
               file O.pbe-rrkjus.UPF: wavefunction(s)  2S renormalized

     Subspace diagonalization in iterative solution of the eigenvalue problem:
     a serial algorithm will be used


     Parallelization info
     --------------------
     sticks:   dense  smooth     PW     G-vecs:    dense   smooth      PW
     Min        1112     444    131                34808     8786    1448
     Max        1113     445    132                34809     8787    1449
     Sum        2225     889    263                69617    17573    2897


     Title: 
     GGA + U, U = 1D-40, alpha = 0.100                                          


     bravais-lattice index     =            5
     lattice parameter (alat)  =      10.3292  a.u.
     unit-cell volume          =     793.0599 (a.u.)^3
     number of atoms/cell      =           10
     number of atomic types    =            4
     number of electrons       =        76.00
     number of Kohn-Sham states=           46
     kinetic-energy cutoff     =      30.0000  Ry
     charge density cutoff     =     300.0000  Ry
     convergence threshold     =      1.0E-08
     mixing beta               =       0.2000
     number of iterations used =            8  plain     mixing
     Exchange-correlation      =  SLA  PW   PBE  PBE ( 1 4 3 4 0)
     EXX-fraction              =        0.00

     celldm(1)=  10.329242  celldm(2)=   0.000000  celldm(3)=   0.000000
     celldm(4)=   0.488100  celldm(5)=   0.000000  celldm(6)=   0.000000

     crystal axes: (cart. coord. in units of alat)
               a(1) = (   0.505915  -0.292090   0.811624 )  
               a(2) = (   0.000000   0.584180   0.811624 )  
               a(3) = (  -0.505915  -0.292090   0.811624 )  

     reciprocal axes: (cart. coord. in units 2 pi/alat)
               b(1) = (  0.988308 -0.570600  0.410699 )  
               b(2) = (  0.000000  1.141200  0.410699 )  
               b(3) = ( -0.988308 -0.570600  0.410699 )  


     PseudoPot. # 1 for Co read from file:
     /home/mcurnan/dft-course/Project1/example_LaCoO3/Co.pbe-nd-rrkjus.UPF
     MD5 check sum: 3e47a84addf5e975e0edeaeee2a73f59
     Pseudo is Ultrasoft + core correction, Zval =  9.0
     Generated by new atomic code, or converted to UPF format
     Using radial grid of  961 points,  6 beta functions with: 
                l(1) =   0
                l(2) =   0
                l(3) =   1
                l(4) =   1
                l(5) =   2
                l(6) =   2
     Q(r) pseudized with 0 coefficients 


     PseudoPot. # 2 for Co read from file:
     /home/mcurnan/dft-course/Project1/example_LaCoO3/Co.pbe-nd-rrkjus.UPF
     MD5 check sum: 3e47a84addf5e975e0edeaeee2a73f59
     Pseudo is Ultrasoft + core correction, Zval =  9.0
     Generated by new atomic code, or converted to UPF format
     Using radial grid of  961 points,  6 beta functions with: 
                l(1) =   0
                l(2) =   0
                l(3) =   1
                l(4) =   1
                l(5) =   2
                l(6) =   2
     Q(r) pseudized with 0 coefficients 


     PseudoPot. # 3 for La read from file:
     /home/mcurnan/dft-course/Project1/example_LaCoO3/La.pbe-nsp-van.UPF
     MD5 check sum: b2f11743f52dde65f77d1302becd7929
     Pseudo is Ultrasoft + core correction, Zval = 11.0
     Generated by new atomic code, or converted to UPF format
     Using radial grid of  907 points,  6 beta functions with: 
                l(1) =   0
                l(2) =   0
                l(3) =   1
                l(4) =   1
                l(5) =   2
                l(6) =   2
     Q(r) pseudized with  6 coefficients,  rinner =    1.200   1.200   1.200
                                                       1.200   1.200

     PseudoPot. # 4 for O  read from file:
     /home/mcurnan/dft-course/Project1/example_LaCoO3/O.pbe-rrkjus.UPF
     MD5 check sum: 390ba29e75625707450f3bd3f0eb6be9
     Pseudo is Ultrasoft, Zval =  6.0
     Generated by new atomic code, or converted to UPF format
     Using radial grid of 1269 points,  4 beta functions with: 
                l(1) =   0
                l(2) =   0
                l(3) =   1
                l(4) =   1
     Q(r) pseudized with 0 coefficients 


     atomic species   valence    mass     pseudopotential
        Co1            9.00     1.00000     Co( 1.00)
        Co2            9.00     1.00000     Co( 1.00)
        La1           11.00     1.00000     La( 1.00)
        O1             6.00     1.00000     O ( 1.00)
 -----
     simplified LDA+U calculation, Hubbard_lmax = 2
     atomic species  L   Hubbard U  Hubbard alpha
        Co1          2    0.000000    0.100000
        Co2          2    0.000000    0.000000
        La1          2    0.000000    0.000000
        O1           1    0.000000    0.000000
 -----

      6 Sym. Ops., with inversion, found


                                    s                        frac. trans.

      isym =  1     identity                                     

 cryst.   s( 1) = (     1          0          0      )
                  (     0          1          0      )
                  (     0          0          1      )

 cart.    s( 1) = (  1.0000000  0.0000000  0.0000000 )
                  (  0.0000000  1.0000000  0.0000000 )
                  (  0.0000000  0.0000000  1.0000000 )


      isym =  2     120 deg rotation - cryst. axis [0,0,1]       

 cryst.   s( 2) = (     0          1          0      )
                  (     0          0          1      )
                  (     1          0          0      )

 cart.    s( 2) = ( -0.5000000 -0.8660254  0.0000000 )
                  (  0.8660254 -0.5000000  0.0000000 )
                  (  0.0000000  0.0000000  1.0000000 )


      isym =  3     120 deg rotation - cryst. axis [0,0,-1]      

 cryst.   s( 3) = (     0          0          1      )
                  (     1          0          0      )
                  (     0          1          0      )

 cart.    s( 3) = ( -0.5000000  0.8660254  0.0000000 )
                  ( -0.8660254 -0.5000000  0.0000000 )
                  (  0.0000000  0.0000000  1.0000000 )


      isym =  4     inversion                                    

 cryst.   s( 4) = (    -1          0          0      )
                  (     0         -1          0      )
                  (     0          0         -1      )

 cart.    s( 4) = ( -1.0000000  0.0000000  0.0000000 )
                  (  0.0000000 -1.0000000  0.0000000 )
                  (  0.0000000  0.0000000 -1.0000000 )


      isym =  5     inv. 180 deg rotation - cart. axis [0,1,0]   

 cryst.   s( 5) = (     0         -1          0      )
                  (     0          0         -1      )
                  (    -1          0          0      )

 cart.    s( 5) = (  0.5000000  0.8660254  0.0000000 )
                  ( -0.8660254  0.5000000  0.0000000 )
                  (  0.0000000  0.0000000 -1.0000000 )


      isym =  6     inv. 180 deg rotation - cart. axis [1,0,0]   

 cryst.   s( 6) = (     0          0         -1      )
                  (    -1          0          0      )
                  (     0         -1          0      )

 cart.    s( 6) = (  0.5000000 -0.8660254  0.0000000 )
                  (  0.8660254  0.5000000  0.0000000 )
                  (  0.0000000  0.0000000 -1.0000000 )


     point group S_6 (-3)   
     there are  6 classes
     the character table:

       E     C3    C3^2  i     S6^5  S6   
A_g    1.00  1.00  1.00  1.00  1.00  1.00
E_g    1.00 -0.50 -0.50  1.00 -0.50 -0.50
E_g*   1.00 -0.50 -0.50  1.00 -0.50 -0.50
A_u    1.00  1.00  1.00 -1.00 -1.00 -1.00
E_u    1.00 -0.50 -0.50 -1.00  0.50  0.50
E_u*   1.00 -0.50 -0.50 -1.00  0.50  0.50
     imaginary part
A_g    0.00  0.00  0.00  0.00  0.00  0.00
E_g    0.00  0.87 -0.87  0.00  0.87 -0.87
E_g*   0.00 -0.87  0.87  0.00 -0.87  0.87
A_u    0.00  0.00  0.00  0.00  0.00  0.00
E_u    0.00  0.87 -0.87  0.00 -0.87  0.87
E_u*   0.00 -0.87  0.87  0.00  0.87 -0.87

     the symmetry operations in each class:
     E        1
     C3       2
     C3^2     3
     i        4
     S6^5     5
     S6       6

   Cartesian axes

     site n.     atom                  positions (alat units)
         1           Co1 tau(   1) = (   0.0000000   0.0000000   0.0000000  )
         2           Co2 tau(   2) = (   0.0000000   0.0000000   1.2174358  )
         3           La1 tau(   3) = (   0.0000000   0.0000000   0.6087179  )
         4           La1 tau(   4) = (   0.0000000   0.0000000   1.8261537  )
         5           O1  tau(   5) = (  -0.2839701  -0.0933228   1.0141240  )
         6           O1  tau(   6) = (   0.0611651   0.2925867   1.0141240  )
         7           O1  tau(   7) = (   0.2228050  -0.1992639   1.0141240  )
         8           O1  tau(   8) = (  -0.0611651  -0.2925867   1.4207476  )
         9           O1  tau(   9) = (   0.2839701   0.0933228   1.4207476  )
        10           O1  tau(  10) = (  -0.2228050   0.1992639   1.4207476  )

   Crystallographic axes

     site n.     atom                  positions (cryst. coord.)
         1           Co1 tau(   1) = (  0.0000000  0.0000000  0.0000000  )
         2           Co2 tau(   2) = (  0.5000000  0.5000000  0.5000000  )
         3           La1 tau(   3) = (  0.2500000  0.2500000  0.2500000  )
         4           La1 tau(   4) = (  0.7500000  0.7500000  0.7500000  )
         5           O1  tau(   5) = (  0.1891000  0.3100000  0.7504000  )
         6           O1  tau(   6) = (  0.3100000  0.7504000  0.1891000  )
         7           O1  tau(   7) = (  0.7504000  0.1891000  0.3100000  )
         8           O1  tau(   8) = (  0.6900000  0.2496000  0.8109000  )
         9           O1  tau(   9) = (  0.8109000  0.6900000  0.2496000  )
        10           O1  tau(  10) = (  0.2496000  0.8109000  0.6900000  )

     number of k points=    14  gaussian smearing, width (Ry)=  0.0300
                       cart. coord. in units 2pi/alat
        k(    1) = (   0.0000000   0.0000000   0.0000000), wk =   0.0312500
        k(    2) = (  -0.2470771  -0.1426500   0.1026748), wk =   0.1875000
        k(    3) = (   0.4941541   0.2853000  -0.2053496), wk =   0.0937500
        k(    4) = (  -0.2470771   0.1426500   0.2053496), wk =   0.1875000
        k(    5) = (   0.4941541   0.5706001  -0.1026748), wk =   0.1875000
        k(    6) = (   0.2470771   0.4279500   0.0000000), wk =   0.1875000
        k(    7) = (   0.4941541  -0.2853000  -0.4106993), wk =   0.0937500
        k(    8) = (   0.0000000   0.0000000   0.3080244), wk =   0.0625000
        k(    9) = (   0.7412312   0.4279500   0.0000000), wk =   0.1875000
        k(   10) = (   0.4941541   0.2853000   0.1026748), wk =   0.1875000
        k(   11) = (   0.7412312  -0.4279500  -0.3080244), wk =   0.1875000
        k(   12) = (   0.4941541  -0.5706001  -0.2053496), wk =   0.1875000
        k(   13) = (   0.0000000   0.0000000  -0.6160489), wk =   0.0312500
        k(   14) = (   0.4941541  -0.5706001   0.1026748), wk =   0.1875000

                       cryst. coord.
        k(    1) = (   0.0000000   0.0000000   0.0000000), wk =   0.0312500
        k(    2) = (   0.0000000   0.0000000   0.2500000), wk =   0.1875000
        k(    3) = (   0.0000000   0.0000000  -0.5000000), wk =   0.0937500
        k(    4) = (   0.0000000   0.2500000   0.2500000), wk =   0.1875000
        k(    5) = (   0.0000000   0.2500000  -0.5000000), wk =   0.1875000
        k(    6) = (   0.0000000   0.2500000  -0.2500000), wk =   0.1875000
        k(    7) = (   0.0000000  -0.5000000  -0.5000000), wk =   0.0937500
        k(    8) = (   0.2500000   0.2500000   0.2500000), wk =   0.0625000
        k(    9) = (   0.2500000   0.2500000  -0.5000000), wk =   0.1875000
        k(   10) = (   0.2500000   0.2500000  -0.2500000), wk =   0.1875000
        k(   11) = (   0.2500000  -0.5000000  -0.5000000), wk =   0.1875000
        k(   12) = (   0.2500000  -0.5000000  -0.2500000), wk =   0.1875000
        k(   13) = (  -0.5000000  -0.5000000  -0.5000000), wk =   0.0312500
        k(   14) = (   0.5000000  -0.2500000   0.0000000), wk =   0.1875000

     Dense  grid:    69617 G-vectors     FFT dimensions: (  60,  60,  60)

     Smooth grid:    17573 G-vectors     FFT dimensions: (  40,  40,  40)

     Largest allocated arrays     est. size (Mb)     dimensions
        Kohn-Sham Wavefunctions         0.78 Mb     (   1117,   46)
        Atomic wavefunctions            1.06 Mb     (   1117,   62)
        NL pseudopotentials             2.05 Mb     (   1117,  120)
        Each V/rho on FFT grid          1.65 Mb     ( 108000)
        Each G-vector array             0.27 Mb     (  34808)
        G-vector shells                 0.04 Mb     (   4682)
     Largest temporary arrays     est. size (Mb)     dimensions
        Auxiliary wavefunctions         3.14 Mb     (   1117,  184)
        Each subspace H/S matrix        0.52 Mb     ( 184, 184)
        Each <psi_i|beta_j> matrix      0.08 Mb     (    120,   46)
        Arrays for rho mixing          13.18 Mb     ( 108000,   8)

     Check: negative/imaginary core charge=   -0.000028    0.000000

     The initial density is read from file :
     /home/mcurnan/dft-course/Project1/example_LaCoO3/0/Co/alpha/CoLaO_U0.save/charge-density.dat

 --- in v_hubbard ---
Hubbard energy    0.0590
 -------
     Number of +U iterations with fixed ns =  0
     Starting occupations:
 --- enter write_ns ---
 LDA+U parameters:
U( 1)     =  0.00000000
alpha( 1) =  0.10000000
U( 2)     =  0.00000000
alpha( 2) =  0.00000000
U( 3)     =  0.00000000
alpha( 3) =  0.00000000
U( 4)     =  0.00000000
alpha( 4) =  0.00000000
atom    1   Tr[ns(na)] =   8.02206
    eigenvalues: 
  0.596  0.596  0.938  0.941  0.941
    eigenvectors:
  0.000  0.000  1.000  0.000  0.000
  0.333  0.322  0.000  0.004  0.341
  0.322  0.333  0.000  0.341  0.004
  0.289  0.056  0.000  0.515  0.140
  0.056  0.289  0.000  0.140  0.515
    occupations:
  0.938  0.000  0.000  0.000  0.000
  0.000  0.715  0.000 -0.060  0.152
  0.000  0.000  0.715  0.152  0.060
  0.000 -0.060  0.152  0.822  0.000
  0.000  0.152  0.060  0.000  0.822
atom    2   Tr[ns(na)] =   8.02145
    eigenvalues: 
  0.595  0.595  0.938  0.941  0.941
    eigenvectors:
  0.000  0.000  1.000  0.000  0.000
  0.640  0.015  0.000  0.223  0.122
  0.015  0.640  0.000  0.122  0.223
  0.017  0.329  0.000  0.470  0.185
  0.329  0.017  0.000  0.185  0.470
    occupations:
  0.938  0.000  0.000  0.000  0.000
  0.000  0.715  0.000  0.060  0.153
  0.000  0.000  0.715  0.153 -0.060
  0.000  0.060  0.153  0.822  0.000
  0.000  0.153 -0.060  0.000  0.822
atom    3   Tr[ns(na)] =   3.80284
    eigenvalues: 
  0.355  0.355  0.384  0.403  0.403
    eigenvectors:
  0.000  0.000  1.000  0.000  0.000
  0.781  0.139  0.000  0.012  0.068
  0.139  0.781  0.000  0.068  0.012
  0.013  0.067  0.000  0.780  0.141
  0.067  0.013  0.000  0.141  0.780
    occupations:
  0.384  0.000  0.000  0.000  0.000
  0.000  0.359  0.000  0.000  0.013
  0.000  0.000  0.359  0.013  0.000
  0.000  0.000  0.013  0.399  0.000
  0.000  0.013  0.000  0.000  0.399
atom    4   Tr[ns(na)] =   3.80284
    eigenvalues: 
  0.355  0.355  0.384  0.403  0.403
    eigenvectors:
  0.000  0.000  1.000  0.000  0.000
  0.782  0.139  0.000  0.012  0.068
  0.139  0.782  0.000  0.068  0.012
  0.012  0.067  0.000  0.780  0.141
  0.067  0.012  0.000  0.141  0.780
    occupations:
  0.384  0.000  0.000  0.000  0.000
  0.000  0.359  0.000  0.000  0.013
  0.000  0.000  0.359  0.013  0.000
  0.000  0.000  0.013  0.399  0.000
  0.000  0.013  0.000  0.000  0.399
atom    5   Tr[ns(na)] =   5.43357
    eigenvalues: 
  0.846  0.929  0.941
    eigenvectors:
  0.340  0.000  0.660
  0.494  0.250  0.256
  0.166  0.750  0.085
    occupations:
  0.909  0.039  0.022
  0.039  0.891 -0.022
  0.022 -0.022  0.917
atom    6   Tr[ns(na)] =   5.43357
    eigenvalues: 
  0.846  0.929  0.941
    eigenvectors:
  0.340  0.000  0.660
  0.000  1.000  0.000
  0.660  0.000  0.340
    occupations:
  0.909  0.000 -0.045
  0.000  0.929  0.000
 -0.045  0.000  0.879
atom    7   Tr[ns(na)] =   5.43357
    eigenvalues: 
  0.846  0.929  0.941
    eigenvectors:
  0.340  0.000  0.660
  0.496  0.250  0.255
  0.164  0.750  0.086
    occupations:
  0.909 -0.039  0.022
 -0.039  0.891  0.022
  0.022  0.022  0.917
atom    8   Tr[ns(na)] =   5.43357
    eigenvalues: 
  0.846  0.929  0.941
    eigenvectors:
  0.340  0.000  0.660
  0.000  1.000  0.000
  0.660  0.000  0.340
    occupations:
  0.909  0.000 -0.045
  0.000  0.929  0.000
 -0.045  0.000  0.879
atom    9   Tr[ns(na)] =   5.43357
    eigenvalues: 
  0.846  0.929  0.941
    eigenvectors:
  0.340  0.000  0.660
  0.494  0.250  0.256
  0.166  0.750  0.085
    occupations:
  0.909  0.039  0.022
  0.039  0.891 -0.022
  0.022 -0.022  0.917
atom   10   Tr[ns(na)] =   5.43357
    eigenvalues: 
  0.846  0.929  0.941
    eigenvectors:
  0.340  0.000  0.660
  0.496  0.250  0.255
  0.164  0.750  0.086
    occupations:
  0.909 -0.039  0.022
 -0.039  0.891  0.022
  0.022  0.022  0.917
N of occupied +U levels =  56.2506062
 --- exit write_ns ---
 LDA+U Projector read from file 
     Starting wfc from file

     total cpu time spent up to now is        8.3 secs

     per-process dynamical memory:    46.9 Mb

     Self-consistent Calculation

     iteration #  1     ecut=    30.00 Ry     beta=0.20
     Davidson diagonalization with overlap
     c_bands:  1 eigenvalues not converged
     c_bands:  1 eigenvalues not converged
     c_bands:  1 eigenvalues not converged
     c_bands:  1 eigenvalues not converged
     c_bands:  1 eigenvalues not converged
     c_bands:  1 eigenvalues not converged
     c_bands:  1 eigenvalues not converged
     ethr =  1.00E-10,  avg # of iterations = 15.2
 --- enter write_ns ---
 LDA+U parameters:
U( 1)     =  0.00000000
alpha( 1) =  0.10000000
U( 2)     =  0.00000000
alpha( 2) =  0.00000000
U( 3)     =  0.00000000
alpha( 3) =  0.00000000
U( 4)     =  0.00000000
alpha( 4) =  0.00000000
atom    1   Tr[ns(na)] =   7.93615
    eigenvalues: 
  0.587  0.587  0.929  0.932  0.932
    eigenvectors:
  0.000  0.000  1.000  0.000  0.000
  0.332  0.323  0.000  0.004  0.341
  0.323  0.332  0.000  0.341  0.004
  0.287  0.058  0.000  0.514  0.141
  0.058  0.287  0.000  0.141  0.514
    occupations:
  0.929  0.000  0.000  0.000  0.000
  0.000  0.706  0.000 -0.059  0.153
  0.000  0.000  0.706  0.153  0.059
  0.000 -0.059  0.153  0.813  0.000
  0.000  0.153  0.059  0.000  0.813
atom    2   Tr[ns(na)] =   8.07186
    eigenvalues: 
  0.598  0.598  0.945  0.948  0.948
    eigenvectors:
  0.000  0.000  1.000  0.000  0.000
  0.642  0.013  0.000  0.226  0.119
  0.013  0.642  0.000  0.119  0.226
  0.020  0.325  0.000  0.471  0.184
  0.325  0.020  0.000  0.184  0.471
    occupations:
  0.945  0.000  0.000  0.000  0.000
  0.000  0.718  0.000  0.062  0.154
  0.000  0.000  0.718  0.154 -0.062
  0.000  0.062  0.154  0.827  0.000
  0.000  0.154 -0.062  0.000  0.827
atom    3   Tr[ns(na)] =   3.80374
    eigenvalues: 
  0.355  0.355  0.384  0.403  0.403
    eigenvectors:
  0.000  0.000  1.000  0.000  0.000
  0.782  0.139  0.000  0.012  0.067
  0.139  0.782  0.000  0.067  0.012
  0.012  0.067  0.000  0.780  0.141
  0.067  0.012  0.000  0.141  0.780
    occupations:
  0.384  0.000  0.000  0.000  0.000
  0.000  0.359  0.000  0.000  0.013
  0.000  0.000  0.359  0.013  0.000
  0.000  0.000  0.013  0.400  0.000
  0.000  0.013  0.000  0.000  0.400
atom    4   Tr[ns(na)] =   3.80374
    eigenvalues: 
  0.355  0.355  0.384  0.403  0.403
    eigenvectors:
  0.000  0.000  1.000  0.000  0.000
  0.782  0.139  0.000  0.012  0.067
  0.139  0.782  0.000  0.067  0.012
  0.012  0.067  0.000  0.780  0.141
  0.067  0.012  0.000  0.141  0.780
    occupations:
  0.384  0.000  0.000  0.000  0.000
  0.000  0.359  0.000  0.000  0.013
  0.000  0.000  0.359  0.013  0.000
  0.000  0.000  0.013  0.400  0.000
  0.000  0.013  0.000  0.000  0.400
atom    5   Tr[ns(na)] =   5.43818
    eigenvalues: 
  0.848  0.930  0.941
    eigenvectors:
  0.340  0.000  0.660
  0.498  0.246  0.256
  0.162  0.754  0.084
    occupations:
  0.910  0.039  0.022
  0.039  0.892 -0.022
  0.022 -0.022  0.918
atom    6   Tr[ns(na)] =   5.43818
    eigenvalues: 
  0.848  0.930  0.941
    eigenvectors:
  0.340  0.000  0.660
  0.000  1.000  0.000
  0.660  0.000  0.340
    occupations:
  0.910  0.000 -0.044
  0.000  0.930  0.000
 -0.044  0.000  0.880
atom    7   Tr[ns(na)] =   5.43818
    eigenvalues: 
  0.848  0.930  0.941
    eigenvectors:
  0.340  0.000  0.660
  0.492  0.254  0.253
  0.168  0.746  0.086
    occupations:
  0.910 -0.038  0.022
 -0.038  0.892  0.022
  0.022  0.022  0.917
atom    8   Tr[ns(na)] =   5.43818
    eigenvalues: 
  0.848  0.930  0.941
    eigenvectors:
  0.340  0.000  0.660
  0.000  1.000  0.000
  0.660  0.000  0.340
    occupations:
  0.910  0.000 -0.044
  0.000  0.930  0.000
 -0.044  0.000  0.880
atom    9   Tr[ns(na)] =   5.43818
    eigenvalues: 
  0.848  0.930  0.941
    eigenvectors:
  0.340  0.000  0.660
  0.498  0.246  0.256
  0.162  0.754  0.084
    occupations:
  0.910  0.039  0.022
  0.039  0.892 -0.022
  0.022 -0.022  0.918
atom   10   Tr[ns(na)] =   5.43818
    eigenvalues: 
  0.848  0.930  0.941
    eigenvectors:
  0.340  0.000  0.660
  0.492  0.254  0.253
  0.168  0.746  0.086
    occupations:
  0.910 -0.038  0.022
 -0.038  0.892  0.022
  0.022  0.022  0.917
N of occupied +U levels =  56.2445965
 --- exit write_ns ---
 --- in v_hubbard ---
Hubbard energy    0.0588
 -------

     total cpu time spent up to now is       37.4 secs

     total energy              =    -538.27162779 Ry
     Harris-Foulkes estimate   =    -538.27440454 Ry
     estimated scf accuracy    <       0.00800949 Ry

     iteration #  2     ecut=    30.00 Ry     beta=0.20
     Davidson diagonalization with overlap
     ethr =  1.05E-05,  avg # of iterations =  2.1
 --- enter write_ns ---
 LDA+U parameters:
U( 1)     =  0.00000000
alpha( 1) =  0.10000000
U( 2)     =  0.00000000
alpha( 2) =  0.00000000
U( 3)     =  0.00000000
alpha( 3) =  0.00000000
U( 4)     =  0.00000000
alpha( 4) =  0.00000000
atom    1   Tr[ns(na)] =   8.33600
    eigenvalues: 
  0.630  0.630  0.969  0.969  0.970
    eigenvectors:
  0.000  0.000  0.000  0.000  1.000
  0.342  0.313  0.001  0.345  0.000
  0.313  0.342  0.345  0.001  0.000
  0.297  0.049  0.521  0.133  0.000
  0.049  0.297  0.133  0.521  0.000
    occupations:
  0.970  0.000  0.000  0.000  0.000
  0.000  0.747  0.000 -0.066  0.147
  0.000  0.000  0.747  0.147  0.066
  0.000 -0.066  0.147  0.852  0.000
  0.000  0.147  0.066  0.000  0.852
atom    2   Tr[ns(na)] =   7.68004
    eigenvalues: 
  0.575  0.575  0.892  0.899  0.899
    eigenvectors:
  0.000  0.000  1.000  0.000  0.000
  0.624  0.031  0.000  0.208  0.137
  0.031  0.624  0.000  0.137  0.208
  0.004  0.341  0.000  0.469  0.186
  0.341  0.004  0.000  0.186  0.469
    occupations:
  0.892  0.000  0.000  0.000  0.000
  0.000  0.687  0.000  0.049  0.146
  0.000  0.000  0.687  0.146 -0.049
  0.000  0.049  0.146  0.787  0.000
  0.000  0.146 -0.049  0.000  0.787
atom    3   Tr[ns(na)] =   3.80423
    eigenvalues: 
  0.355  0.355  0.384  0.403  0.403
    eigenvectors:
  0.000  0.000  1.000  0.000  0.000
  0.780  0.140  0.000  0.011  0.069
  0.140  0.780  0.000  0.069  0.011
  0.014  0.066  0.000  0.780  0.141
  0.066  0.014  0.000  0.141  0.780
    occupations:
  0.384  0.000  0.000  0.000  0.000
  0.000  0.359  0.000  0.000  0.013
  0.000  0.000  0.359  0.013  0.000
  0.000  0.000  0.013  0.400  0.000
  0.000  0.013  0.000  0.000  0.400
atom    4   Tr[ns(na)] =   3.80423
    eigenvalues: 
  0.355  0.355  0.384  0.403  0.403
    eigenvectors:
  0.000  0.000  1.000  0.000  0.000
  0.780  0.140  0.000  0.011  0.069
  0.140  0.780  0.000  0.069  0.011
  0.014  0.066  0.000  0.780  0.141
  0.066  0.014  0.000  0.141  0.780
    occupations:
  0.384  0.000  0.000  0.000  0.000
  0.000  0.359  0.000  0.000  0.013
  0.000  0.000  0.359  0.013  0.000
  0.000  0.000  0.013  0.400  0.000
  0.000  0.013  0.000  0.000  0.400
atom    5   Tr[ns(na)] =   5.43506
    eigenvalues: 
  0.847  0.930  0.941
    eigenvectors:
  0.340  0.000  0.660
  0.480  0.271  0.250
  0.180  0.729  0.090
    occupations:
  0.909  0.038  0.023
  0.038  0.893 -0.023
  0.023 -0.023  0.916
atom    6   Tr[ns(na)] =   5.43506
    eigenvalues: 
  0.847  0.930  0.941
    eigenvectors:
  0.340  0.000  0.660
  0.000  0.999  0.000
  0.659  0.001  0.340
    occupations:
  0.909  0.001 -0.044
  0.001  0.929  0.001
 -0.044  0.001  0.879
atom    7   Tr[ns(na)] =   5.43506
    eigenvalues: 
  0.847  0.930  0.941
    eigenvectors:
  0.340  0.000  0.660
  0.510  0.230  0.260
  0.150  0.770  0.080
    occupations:
  0.909 -0.039  0.021
 -0.039  0.891  0.021
  0.021  0.021  0.918
atom    8   Tr[ns(na)] =   5.43506
    eigenvalues: 
  0.847  0.930  0.941
    eigenvectors:
  0.340  0.000  0.660
  0.000  0.999  0.000
  0.659  0.001  0.340
    occupations:
  0.909  0.001 -0.044
  0.001  0.929  0.001
 -0.044  0.001  0.879
atom    9   Tr[ns(na)] =   5.43506
    eigenvalues: 
  0.847  0.930  0.941
    eigenvectors:
  0.340  0.000  0.660
  0.480  0.271  0.250
  0.180  0.729  0.090
    occupations:
  0.909  0.038  0.023
  0.038  0.893 -0.023
  0.023 -0.023  0.916
atom   10   Tr[ns(na)] =   5.43506
    eigenvalues: 
  0.847  0.930  0.941
    eigenvectors:
  0.340  0.000  0.660
  0.510  0.230  0.260
  0.150  0.770  0.080
    occupations:
  0.909 -0.039  0.021
 -0.039  0.891  0.021
  0.021  0.021  0.918
N of occupied +U levels =  56.2348412
 --- exit write_ns ---
 --- in v_hubbard ---
Hubbard energy    0.0589
 -------

     total cpu time spent up to now is       50.5 secs

     total energy              =    -538.26751317 Ry
     Harris-Foulkes estimate   =    -538.28106202 Ry
     estimated scf accuracy    <       0.22855831 Ry

     iteration #  3     ecut=    30.00 Ry     beta=0.20
     Davidson diagonalization with overlap
     ethr =  1.05E-05,  avg # of iterations =  2.0
 --- enter write_ns ---
 LDA+U parameters:
U( 1)     =  0.00000000
alpha( 1) =  0.10000000
U( 2)     =  0.00000000
alpha( 2) =  0.00000000
U( 3)     =  0.00000000
alpha( 3) =  0.00000000
U( 4)     =  0.00000000
alpha( 4) =  0.00000000
atom    1   Tr[ns(na)] =   8.01292
    eigenvalues: 
  0.595  0.595  0.937  0.940  0.940
    eigenvectors:
  0.000  0.000  1.000  0.000  0.000
  0.333  0.322  0.000  0.004  0.341
  0.322  0.333  0.000  0.341  0.004
  0.288  0.057  0.000  0.515  0.140
  0.057  0.288  0.000  0.140  0.515
    occupations:
  0.937  0.000  0.000  0.000  0.000
  0.000  0.714  0.000 -0.060  0.152
  0.000  0.000  0.714  0.152  0.060
  0.000 -0.060  0.152  0.821  0.000
  0.000  0.152  0.060  0.000  0.821
atom    2   Tr[ns(na)] =   8.02653
    eigenvalues: 
  0.596  0.596  0.939  0.942  0.942
    eigenvectors:
  0.000  0.000  1.000  0.000  0.000
  0.640  0.015  0.000  0.223  0.122
  0.015  0.640  0.000  0.122  0.223
  0.017  0.329  0.000  0.470  0.184
  0.329  0.017  0.000  0.184  0.470
    occupations:
  0.939  0.000  0.000  0.000  0.000
  0.000  0.715  0.000  0.060  0.153
  0.000  0.000  0.715  0.153 -0.060
  0.000  0.060  0.153  0.822  0.000
  0.000  0.153 -0.060  0.000  0.822
atom    3   Tr[ns(na)] =   3.80403
    eigenvalues: 
  0.356  0.356  0.384  0.403  0.403
    eigenvectors:
  0.000  0.000  1.000  0.000  0.000
  0.781  0.139  0.000  0.012  0.068
  0.139  0.781  0.000  0.068  0.012
  0.013  0.067  0.000  0.780  0.141
  0.067  0.013  0.000  0.141  0.780
    occupations:
  0.384  0.000  0.000  0.000  0.000
  0.000  0.359  0.000  0.000  0.013
  0.000  0.000  0.359  0.013  0.000
  0.000  0.000  0.013  0.400  0.000
  0.000  0.013  0.000  0.000  0.400
atom    4   Tr[ns(na)] =   3.80403
    eigenvalues: 
  0.356  0.356  0.384  0.403  0.403
    eigenvectors:
  0.000  0.000  1.000  0.000  0.000
  0.781  0.139  0.000  0.012  0.068
  0.139  0.781  0.000  0.068  0.012
  0.013  0.067  0.000  0.780  0.141
  0.067  0.013  0.000  0.141  0.780
    occupations:
  0.384  0.000  0.000  0.000  0.000
  0.000  0.359  0.000  0.000  0.013
  0.000  0.000  0.359  0.013  0.000
  0.000  0.000  0.013  0.400  0.000
  0.000  0.013  0.000  0.000  0.400
atom    5   Tr[ns(na)] =   5.43338
    eigenvalues: 
  0.846  0.929  0.941
    eigenvectors:
  0.340  0.000  0.660
  0.495  0.250  0.256
  0.165  0.750  0.085
    occupations:
  0.909  0.039  0.022
  0.039  0.891 -0.022
  0.022 -0.022  0.917
atom    6   Tr[ns(na)] =   5.43338
    eigenvalues: 
  0.846  0.929  0.941
    eigenvectors:
  0.340  0.000  0.660
  0.000  1.000  0.000
  0.660  0.000  0.340
    occupations:
  0.909  0.000 -0.045
  0.000  0.929  0.000
 -0.045  0.000  0.879
atom    7   Tr[ns(na)] =   5.43338
    eigenvalues: 
  0.846  0.929  0.941
    eigenvectors:
  0.340  0.000  0.660
  0.495  0.250  0.255
  0.165  0.750  0.085
    occupations:
  0.909 -0.039  0.022
 -0.039  0.891  0.022
  0.022  0.022  0.917
atom    8   Tr[ns(na)] =   5.43338
    eigenvalues: 
  0.846  0.929  0.941
    eigenvectors:
  0.340  0.000  0.660
  0.000  1.000  0.000
  0.660  0.000  0.340
    occupations:
  0.909  0.000 -0.045
  0.000  0.929  0.000
 -0.045  0.000  0.879
atom    9   Tr[ns(na)] =   5.43338
    eigenvalues: 
  0.846  0.929  0.941
    eigenvectors:
  0.340  0.000  0.660
  0.495  0.250  0.256
  0.165  0.750  0.085
    occupations:
  0.909  0.039  0.022
  0.039  0.891 -0.022
  0.022 -0.022  0.917
atom   10   Tr[ns(na)] =   5.43338
    eigenvalues: 
  0.846  0.929  0.941
    eigenvectors:
  0.340  0.000  0.660
  0.495  0.250  0.255
  0.165  0.750  0.085
    occupations:
  0.909 -0.039  0.022
 -0.039  0.891  0.022
  0.022  0.022  0.917
N of occupied +U levels =  56.2477500
 --- exit write_ns ---
 --- in v_hubbard ---
Hubbard energy    0.0589
 -------

     total cpu time spent up to now is       63.3 secs

     total energy              =    -538.27411576 Ry
     Harris-Foulkes estimate   =    -538.27412322 Ry
     estimated scf accuracy    <       0.00004899 Ry

     iteration #  4     ecut=    30.00 Ry     beta=0.20
     Davidson diagonalization with overlap
     ethr =  6.45E-08,  avg # of iterations =  3.4
 --- enter write_ns ---
 LDA+U parameters:
U( 1)     =  0.00000000
alpha( 1) =  0.10000000
U( 2)     =  0.00000000
alpha( 2) =  0.00000000
U( 3)     =  0.00000000
alpha( 3) =  0.00000000
U( 4)     =  0.00000000
alpha( 4) =  0.00000000
atom    1   Tr[ns(na)] =   8.00926
    eigenvalues: 
  0.594  0.594  0.937  0.940  0.940
    eigenvectors:
  0.000  0.000  1.000  0.000  0.000
  0.333  0.322  0.000  0.004  0.341
  0.322  0.333  0.000  0.341  0.004
  0.289  0.057  0.000  0.515  0.140
  0.057  0.289  0.000  0.140  0.515
    occupations:
  0.937  0.000  0.000  0.000  0.000
  0.000  0.713  0.000 -0.060  0.153
  0.000  0.000  0.713  0.153  0.060
  0.000 -0.060  0.153  0.820  0.000
  0.000  0.153  0.060  0.000  0.820
atom    2   Tr[ns(na)] =   8.02201
    eigenvalues: 
  0.595  0.595  0.938  0.941  0.941
    eigenvectors:
  0.000  0.000  1.000  0.000  0.000
  0.640  0.015  0.000  0.223  0.122
  0.015  0.640  0.000  0.122  0.223
  0.017  0.328  0.000  0.470  0.185
  0.328  0.017  0.000  0.185  0.470
    occupations:
  0.938  0.000  0.000  0.000  0.000
  0.000  0.714  0.000  0.060  0.153
  0.000  0.000  0.714  0.153 -0.060
  0.000  0.060  0.153  0.822  0.000
  0.000  0.153 -0.060  0.000  0.822
atom    3   Tr[ns(na)] =   3.80383
    eigenvalues: 
  0.356  0.356  0.384  0.403  0.403
    eigenvectors:
  0.000  0.000  1.000  0.000  0.000
  0.781  0.139  0.000  0.012  0.068
  0.139  0.781  0.000  0.068  0.012
  0.013  0.067  0.000  0.780  0.141
  0.067  0.013  0.000  0.141  0.780
    occupations:
  0.384  0.000  0.000  0.000  0.000
  0.000  0.359  0.000  0.000  0.013
  0.000  0.000  0.359  0.013  0.000
  0.000  0.000  0.013  0.400  0.000
  0.000  0.013  0.000  0.000  0.400
atom    4   Tr[ns(na)] =   3.80383
    eigenvalues: 
  0.356  0.356  0.384  0.403  0.403
    eigenvectors:
  0.000  0.000  1.000  0.000  0.000
  0.781  0.139  0.000  0.012  0.068
  0.139  0.781  0.000  0.068  0.012
  0.013  0.067  0.000  0.780  0.141
  0.067  0.013  0.000  0.141  0.780
    occupations:
  0.384  0.000  0.000  0.000  0.000
  0.000  0.359  0.000  0.000  0.013
  0.000  0.000  0.359  0.013  0.000
  0.000  0.000  0.013  0.400  0.000
  0.000  0.013  0.000  0.000  0.400
atom    5   Tr[ns(na)] =   5.43467
    eigenvalues: 
  0.847  0.930  0.941
    eigenvectors:
  0.340  0.000  0.660
  0.495  0.250  0.255
  0.165  0.750  0.085
    occupations:
  0.909  0.039  0.022
  0.039  0.891 -0.022
  0.022 -0.022  0.917
atom    6   Tr[ns(na)] =   5.43467
    eigenvalues: 
  0.847  0.930  0.941
    eigenvectors:
  0.340  0.000  0.660
  0.000  1.000  0.000
  0.660  0.000  0.340
    occupations:
  0.909  0.000 -0.045
  0.000  0.930  0.000
 -0.045  0.000  0.879
atom    7   Tr[ns(na)] =   5.43467
    eigenvalues: 
  0.847  0.930  0.941
    eigenvectors:
  0.340  0.000  0.660
  0.495  0.250  0.255
  0.165  0.750  0.085
    occupations:
  0.909 -0.039  0.022
 -0.039  0.891  0.022
  0.022  0.022  0.917
atom    8   Tr[ns(na)] =   5.43467
    eigenvalues: 
  0.847  0.930  0.941
    eigenvectors:
  0.340  0.000  0.660
  0.000  1.000  0.000
  0.660  0.000  0.340
    occupations:
  0.909  0.000 -0.045
  0.000  0.930  0.000
 -0.045  0.000  0.879
atom    9   Tr[ns(na)] =   5.43467
    eigenvalues: 
  0.847  0.930  0.941
    eigenvectors:
  0.340  0.000  0.660
  0.495  0.250  0.255
  0.165  0.750  0.085
    occupations:
  0.909  0.039  0.022
  0.039  0.891 -0.022
  0.022 -0.022  0.917
atom   10   Tr[ns(na)] =   5.43467
    eigenvalues: 
  0.847  0.930  0.941
    eigenvectors:
  0.340  0.000  0.660
  0.495  0.250  0.255
  0.165  0.750  0.085
    occupations:
  0.909 -0.039  0.022
 -0.039  0.891  0.022
  0.022  0.022  0.917
N of occupied +U levels =  56.2469661
 --- exit write_ns ---
 --- in v_hubbard ---
Hubbard energy    0.0589
 -------

     total cpu time spent up to now is       78.2 secs

     total energy              =    -538.27413341 Ry
     Harris-Foulkes estimate   =    -538.27413108 Ry
     estimated scf accuracy    <       0.00000164 Ry

     iteration #  5     ecut=    30.00 Ry     beta=0.20
     Davidson diagonalization with overlap
     ethr =  2.16E-09,  avg # of iterations =  2.9
 --- enter write_ns ---
 LDA+U parameters:
U( 1)     =  0.00000000
alpha( 1) =  0.10000000
U( 2)     =  0.00000000
alpha( 2) =  0.00000000
U( 3)     =  0.00000000
alpha( 3) =  0.00000000
U( 4)     =  0.00000000
alpha( 4) =  0.00000000
atom    1   Tr[ns(na)] =   8.00924
    eigenvalues: 
  0.594  0.594  0.937  0.940  0.940
    eigenvectors:
  0.000  0.000  1.000  0.000  0.000
  0.333  0.322  0.000  0.004  0.341
  0.322  0.333  0.000  0.341  0.004
  0.289  0.057  0.000  0.515  0.140
  0.057  0.289  0.000  0.140  0.515
    occupations:
  0.937  0.000  0.000  0.000  0.000
  0.000  0.713  0.000 -0.060  0.153
  0.000  0.000  0.713  0.153  0.060
  0.000 -0.060  0.153  0.820  0.000
  0.000  0.153  0.060  0.000  0.820
atom    2   Tr[ns(na)] =   8.02173
    eigenvalues: 
  0.595  0.595  0.938  0.941  0.941
    eigenvectors:
  0.000  0.000  1.000  0.000  0.000
  0.640  0.015  0.000  0.223  0.122
  0.015  0.640  0.000  0.122  0.223
  0.017  0.328  0.000  0.470  0.185
  0.328  0.017  0.000  0.185  0.470
    occupations:
  0.938  0.000  0.000  0.000  0.000
  0.000  0.714  0.000  0.060  0.153
  0.000  0.000  0.714  0.153 -0.060
  0.000  0.060  0.153  0.822  0.000
  0.000  0.153 -0.060  0.000  0.822
atom    3   Tr[ns(na)] =   3.80368
    eigenvalues: 
  0.356  0.356  0.384  0.403  0.403
    eigenvectors:
  0.000  0.000  1.000  0.000  0.000
  0.782  0.139  0.000  0.012  0.068
  0.139  0.782  0.000  0.068  0.012
  0.012  0.067  0.000  0.780  0.141
  0.067  0.012  0.000  0.141  0.780
    occupations:
  0.384  0.000  0.000  0.000  0.000
  0.000  0.359  0.000  0.000  0.013
  0.000  0.000  0.359  0.013  0.000
  0.000  0.000  0.013  0.400  0.000
  0.000  0.013  0.000  0.000  0.400
atom    4   Tr[ns(na)] =   3.80368
    eigenvalues: 
  0.356  0.356  0.384  0.403  0.403
    eigenvectors:
  0.000  0.000  1.000  0.000  0.000
  0.782  0.139  0.000  0.012  0.068
  0.139  0.782  0.000  0.068  0.012
  0.012  0.067  0.000  0.780  0.141
  0.067  0.012  0.000  0.141  0.780
    occupations:
  0.384  0.000  0.000  0.000  0.000
  0.000  0.359  0.000  0.000  0.013
  0.000  0.000  0.359  0.013  0.000
  0.000  0.000  0.013  0.400  0.000
  0.000  0.013  0.000  0.000  0.400
atom    5   Tr[ns(na)] =   5.43475
    eigenvalues: 
  0.847  0.930  0.941
    eigenvectors:
  0.340  0.000  0.660
  0.495  0.250  0.255
  0.165  0.750  0.085
    occupations:
  0.909  0.039  0.022
  0.039  0.892 -0.022
  0.022 -0.022  0.917
atom    6   Tr[ns(na)] =   5.43475
    eigenvalues: 
  0.847  0.930  0.941
    eigenvectors:
  0.340  0.000  0.660
  0.000  1.000  0.000
  0.660  0.000  0.340
    occupations:
  0.909  0.000 -0.045
  0.000  0.930  0.000
 -0.045  0.000  0.879
atom    7   Tr[ns(na)] =   5.43475
    eigenvalues: 
  0.847  0.930  0.941
    eigenvectors:
  0.340  0.000  0.660
  0.495  0.250  0.255
  0.165  0.750  0.085
    occupations:
  0.909 -0.039  0.022
 -0.039  0.891  0.022
  0.022  0.022  0.917
atom    8   Tr[ns(na)] =   5.43475
    eigenvalues: 
  0.847  0.930  0.941
    eigenvectors:
  0.340  0.000  0.660
  0.000  1.000  0.000
  0.660  0.000  0.340
    occupations:
  0.909  0.000 -0.045
  0.000  0.930  0.000
 -0.045  0.000  0.879
atom    9   Tr[ns(na)] =   5.43475
    eigenvalues: 
  0.847  0.930  0.941
    eigenvectors:
  0.340  0.000  0.660
  0.495  0.250  0.255
  0.165  0.750  0.085
    occupations:
  0.909  0.039  0.022
  0.039  0.892 -0.022
  0.022 -0.022  0.917
atom   10   Tr[ns(na)] =   5.43475
    eigenvalues: 
  0.847  0.930  0.941
    eigenvectors:
  0.340  0.000  0.660
  0.495  0.250  0.255
  0.165  0.750  0.085
    occupations:
  0.909 -0.039  0.022
 -0.039  0.891  0.022
  0.022  0.022  0.917
N of occupied +U levels =  56.2468315
 --- exit write_ns ---
 --- in v_hubbard ---
Hubbard energy    0.0589
 -------

     total cpu time spent up to now is       91.2 secs

     total energy              =    -538.27413497 Ry
     Harris-Foulkes estimate   =    -538.27413358 Ry
     estimated scf accuracy    <       0.00000082 Ry

     iteration #  6     ecut=    30.00 Ry     beta=0.20
     Davidson diagonalization with overlap
     ethr =  1.08E-09,  avg # of iterations =  1.4
 --- enter write_ns ---
 LDA+U parameters:
U( 1)     =  0.00000000
alpha( 1) =  0.10000000
U( 2)     =  0.00000000
alpha( 2) =  0.00000000
U( 3)     =  0.00000000
alpha( 3) =  0.00000000
U( 4)     =  0.00000000
alpha( 4) =  0.00000000
atom    1   Tr[ns(na)] =   8.00941
    eigenvalues: 
  0.594  0.594  0.937  0.940  0.940
    eigenvectors:
  0.000  0.000  1.000  0.000  0.000
  0.333  0.322  0.000  0.004  0.341
  0.322  0.333  0.000  0.341  0.004
  0.289  0.057  0.000  0.515  0.140
  0.057  0.289  0.000  0.140  0.515
    occupations:
  0.937  0.000  0.000  0.000  0.000
  0.000  0.713  0.000 -0.060  0.153
  0.000  0.000  0.713  0.153  0.060
  0.000 -0.060  0.153  0.820  0.000
  0.000  0.153  0.060  0.000  0.820
atom    2   Tr[ns(na)] =   8.02159
    eigenvalues: 
  0.595  0.595  0.938  0.941  0.941
    eigenvectors:
  0.000  0.000  1.000  0.000  0.000
  0.640  0.015  0.000  0.223  0.122
  0.015  0.640  0.000  0.122  0.223
  0.017  0.329  0.000  0.470  0.185
  0.329  0.017  0.000  0.185  0.470
    occupations:
  0.938  0.000  0.000  0.000  0.000
  0.000  0.714  0.000  0.060  0.153
  0.000  0.000  0.714  0.153 -0.060
  0.000  0.060  0.153  0.822  0.000
  0.000  0.153 -0.060  0.000  0.822
atom    3   Tr[ns(na)] =   3.80348
    eigenvalues: 
  0.355  0.355  0.384  0.403  0.403
    eigenvectors:
  0.000  0.000  1.000  0.000  0.000
  0.782  0.139  0.000  0.012  0.068
  0.139  0.782  0.000  0.068  0.012
  0.013  0.067  0.000  0.780  0.141
  0.067  0.013  0.000  0.141  0.780
    occupations:
  0.384  0.000  0.000  0.000  0.000
  0.000  0.359  0.000  0.000  0.013
  0.000  0.000  0.359  0.013  0.000
  0.000  0.000  0.013  0.400  0.000
  0.000  0.013  0.000  0.000  0.400
atom    4   Tr[ns(na)] =   3.80348
    eigenvalues: 
  0.355  0.355  0.384  0.403  0.403
    eigenvectors:
  0.000  0.000  1.000  0.000  0.000
  0.782  0.139  0.000  0.012  0.068
  0.139  0.782  0.000  0.068  0.012
  0.013  0.067  0.000  0.780  0.141
  0.067  0.013  0.000  0.141  0.780
    occupations:
  0.384  0.000  0.000  0.000  0.000
  0.000  0.359  0.000  0.000  0.013
  0.000  0.000  0.359  0.013  0.000
  0.000  0.000  0.013  0.400  0.000
  0.000  0.013  0.000  0.000  0.400
atom    5   Tr[ns(na)] =   5.43479
    eigenvalues: 
  0.847  0.930  0.941
    eigenvectors:
  0.340  0.000  0.660
  0.495  0.250  0.255
  0.165  0.750  0.085
    occupations:
  0.909  0.039  0.022
  0.039  0.892 -0.022
  0.022 -0.022  0.917
atom    6   Tr[ns(na)] =   5.43479
    eigenvalues: 
  0.847  0.930  0.941
    eigenvectors:
  0.340  0.000  0.660
  0.000  1.000  0.000
  0.660  0.000  0.340
    occupations:
  0.909  0.000 -0.045
  0.000  0.930  0.000
 -0.045  0.000  0.879
atom    7   Tr[ns(na)] =   5.43479
    eigenvalues: 
  0.847  0.930  0.941
    eigenvectors:
  0.340  0.000  0.660
  0.495  0.250  0.255
  0.165  0.750  0.085
    occupations:
  0.909 -0.039  0.022
 -0.039  0.892  0.022
  0.022  0.022  0.917
atom    8   Tr[ns(na)] =   5.43479
    eigenvalues: 
  0.847  0.930  0.941
    eigenvectors:
  0.340  0.000  0.660
  0.000  1.000  0.000
  0.660  0.000  0.340
    occupations:
  0.909  0.000 -0.045
  0.000  0.930  0.000
 -0.045  0.000  0.879
atom    9   Tr[ns(na)] =   5.43479
    eigenvalues: 
  0.847  0.930  0.941
    eigenvectors:
  0.340  0.000  0.660
  0.495  0.250  0.255
  0.165  0.750  0.085
    occupations:
  0.909  0.039  0.022
  0.039  0.892 -0.022
  0.022 -0.022  0.917
atom   10   Tr[ns(na)] =   5.43479
    eigenvalues: 
  0.847  0.930  0.941
    eigenvectors:
  0.340  0.000  0.660
  0.495  0.250  0.255
  0.165  0.750  0.085
    occupations:
  0.909 -0.039  0.022
 -0.039  0.892  0.022
  0.022  0.022  0.917
N of occupied +U levels =  56.2466926
 --- exit write_ns ---
 --- in v_hubbard ---
Hubbard energy    0.0589
 -------

     total cpu time spent up to now is      102.3 secs

     total energy              =    -538.27413604 Ry
     Harris-Foulkes estimate   =    -538.27413502 Ry
     estimated scf accuracy    <       0.00000009 Ry

     iteration #  7     ecut=    30.00 Ry     beta=0.20
     Davidson diagonalization with overlap
     ethr =  1.12E-10,  avg # of iterations =  2.6
 --- enter write_ns ---
 LDA+U parameters:
U( 1)     =  0.00000000
alpha( 1) =  0.10000000
U( 2)     =  0.00000000
alpha( 2) =  0.00000000
U( 3)     =  0.00000000
alpha( 3) =  0.00000000
U( 4)     =  0.00000000
alpha( 4) =  0.00000000
atom    1   Tr[ns(na)] =   8.00948
    eigenvalues: 
  0.594  0.594  0.937  0.940  0.940
    eigenvectors:
  0.000  0.000  1.000  0.000  0.000
  0.333  0.322  0.000  0.004  0.341
  0.322  0.333  0.000  0.341  0.004
  0.289  0.057  0.000  0.515  0.140
  0.057  0.289  0.000  0.140  0.515
    occupations:
  0.937  0.000  0.000  0.000  0.000
  0.000  0.713  0.000 -0.060  0.153
  0.000  0.000  0.713  0.153  0.060
  0.000 -0.060  0.153  0.820  0.000
  0.000  0.153  0.060  0.000  0.820
atom    2   Tr[ns(na)] =   8.02165
    eigenvalues: 
  0.595  0.595  0.938  0.941  0.941
    eigenvectors:
  0.000  0.000  1.000  0.000  0.000
  0.640  0.015  0.000  0.223  0.122
  0.015  0.640  0.000  0.122  0.223
  0.017  0.328  0.000  0.470  0.185
  0.328  0.017  0.000  0.185  0.470
    occupations:
  0.938  0.000  0.000  0.000  0.000
  0.000  0.714  0.000  0.060  0.153
  0.000  0.000  0.714  0.153 -0.060
  0.000  0.060  0.153  0.822  0.000
  0.000  0.153 -0.060  0.000  0.822
atom    3   Tr[ns(na)] =   3.80348
    eigenvalues: 
  0.355  0.355  0.384  0.403  0.403
    eigenvectors:
  0.000  0.000  1.000  0.000  0.000
  0.782  0.139  0.000  0.012  0.068
  0.139  0.782  0.000  0.068  0.012
  0.013  0.067  0.000  0.780  0.141
  0.067  0.013  0.000  0.141  0.780
    occupations:
  0.384  0.000  0.000  0.000  0.000
  0.000  0.359  0.000  0.000  0.013
  0.000  0.000  0.359  0.013  0.000
  0.000  0.000  0.013  0.400  0.000
  0.000  0.013  0.000  0.000  0.400
atom    4   Tr[ns(na)] =   3.80348
    eigenvalues: 
  0.355  0.355  0.384  0.403  0.403
    eigenvectors:
  0.000  0.000  1.000  0.000  0.000
  0.781  0.139  0.000  0.012  0.068
  0.139  0.781  0.000  0.068  0.012
  0.013  0.067  0.000  0.780  0.141
  0.067  0.013  0.000  0.141  0.780
    occupations:
  0.384  0.000  0.000  0.000  0.000
  0.000  0.359  0.000  0.000  0.013
  0.000  0.000  0.359  0.013  0.000
  0.000  0.000  0.013  0.400  0.000
  0.000  0.013  0.000  0.000  0.400
atom    5   Tr[ns(na)] =   5.43477
    eigenvalues: 
  0.847  0.930  0.941
    eigenvectors:
  0.340  0.000  0.660
  0.495  0.250  0.255
  0.165  0.750  0.085
    occupations:
  0.909  0.039  0.022
  0.039  0.892 -0.022
  0.022 -0.022  0.917
atom    6   Tr[ns(na)] =   5.43477
    eigenvalues: 
  0.847  0.930  0.941
    eigenvectors:
  0.340  0.000  0.660
  0.000  1.000  0.000
  0.660  0.000  0.340
    occupations:
  0.909  0.000 -0.045
  0.000  0.930  0.000
 -0.045  0.000  0.879
atom    7   Tr[ns(na)] =   5.43477
    eigenvalues: 
  0.847  0.930  0.941
    eigenvectors:
  0.340  0.000  0.660
  0.495  0.250  0.255
  0.165  0.750  0.085
    occupations:
  0.909 -0.039  0.022
 -0.039  0.891  0.022
  0.022  0.022  0.917
atom    8   Tr[ns(na)] =   5.43477
    eigenvalues: 
  0.847  0.930  0.941
    eigenvectors:
  0.340  0.000  0.660
  0.000  1.000  0.000
  0.660  0.000  0.340
    occupations:
  0.909  0.000 -0.045
  0.000  0.930  0.000
 -0.045  0.000  0.879
atom    9   Tr[ns(na)] =   5.43477
    eigenvalues: 
  0.847  0.930  0.941
    eigenvectors:
  0.340  0.000  0.660
  0.495  0.250  0.255
  0.165  0.750  0.085
    occupations:
  0.909  0.039  0.022
  0.039  0.892 -0.022
  0.022 -0.022  0.917
atom   10   Tr[ns(na)] =   5.43477
    eigenvalues: 
  0.847  0.930  0.941
    eigenvectors:
  0.340  0.000  0.660
  0.495  0.250  0.255
  0.165  0.750  0.085
    occupations:
  0.909 -0.039  0.022
 -0.039  0.891  0.022
  0.022  0.022  0.917
N of occupied +U levels =  56.2466954
 --- exit write_ns ---
 --- in v_hubbard ---
Hubbard energy    0.0589
 -------

     total cpu time spent up to now is      115.1 secs

     total energy              =    -538.27413674 Ry
     Harris-Foulkes estimate   =    -538.27413606 Ry
     estimated scf accuracy    <       0.00000001 Ry

     iteration #  8     ecut=    30.00 Ry     beta=0.20
     Davidson diagonalization with overlap
     ethr =  1.40E-11,  avg # of iterations =  1.9
 --- enter write_ns ---
 LDA+U parameters:
U( 1)     =  0.00000000
alpha( 1) =  0.10000000
U( 2)     =  0.00000000
alpha( 2) =  0.00000000
U( 3)     =  0.00000000
alpha( 3) =  0.00000000
U( 4)     =  0.00000000
alpha( 4) =  0.00000000
atom    1   Tr[ns(na)] =   8.00949
    eigenvalues: 
  0.594  0.594  0.937  0.940  0.940
    eigenvectors:
  0.000  0.000  1.000  0.000  0.000
  0.333  0.322  0.000  0.004  0.341
  0.322  0.333  0.000  0.341  0.004
  0.288  0.057  0.000  0.515  0.140
  0.057  0.288  0.000  0.140  0.515
    occupations:
  0.937  0.000  0.000  0.000  0.000
  0.000  0.713  0.000 -0.060  0.153
  0.000  0.000  0.713  0.153  0.060
  0.000 -0.060  0.153  0.820  0.000
  0.000  0.153  0.060  0.000  0.820
atom    2   Tr[ns(na)] =   8.02157
    eigenvalues: 
  0.595  0.595  0.938  0.941  0.941
    eigenvectors:
  0.000  0.000  1.000  0.000  0.000
  0.640  0.015  0.000  0.223  0.122
  0.015  0.640  0.000  0.122  0.223
  0.017  0.328  0.000  0.470  0.185
  0.328  0.017  0.000  0.185  0.470
    occupations:
  0.938  0.000  0.000  0.000  0.000
  0.000  0.714  0.000  0.060  0.153
  0.000  0.000  0.714  0.153 -0.060
  0.000  0.060  0.153  0.822  0.000
  0.000  0.153 -0.060  0.000  0.822
atom    3   Tr[ns(na)] =   3.80350
    eigenvalues: 
  0.355  0.355  0.384  0.403  0.403
    eigenvectors:
  0.000  0.000  1.000  0.000  0.000
  0.782  0.139  0.000  0.012  0.068
  0.139  0.782  0.000  0.068  0.012
  0.012  0.067  0.000  0.780  0.141
  0.067  0.012  0.000  0.141  0.780
    occupations:
  0.384  0.000  0.000  0.000  0.000
  0.000  0.359  0.000  0.000  0.013
  0.000  0.000  0.359  0.013  0.000
  0.000  0.000  0.013  0.400  0.000
  0.000  0.013  0.000  0.000  0.400
atom    4   Tr[ns(na)] =   3.80350
    eigenvalues: 
  0.355  0.355  0.384  0.403  0.403
    eigenvectors:
  0.000  0.000  1.000  0.000  0.000
  0.782  0.139  0.000  0.012  0.068
  0.139  0.782  0.000  0.068  0.012
  0.013  0.067  0.000  0.780  0.141
  0.067  0.013  0.000  0.141  0.780
    occupations:
  0.384  0.000  0.000  0.000  0.000
  0.000  0.359  0.000  0.000  0.013
  0.000  0.000  0.359  0.013  0.000
  0.000  0.000  0.013  0.400  0.000
  0.000  0.013  0.000  0.000  0.400
atom    5   Tr[ns(na)] =   5.43477
    eigenvalues: 
  0.847  0.930  0.941
    eigenvectors:
  0.340  0.000  0.660
  0.495  0.250  0.255
  0.165  0.750  0.085
    occupations:
  0.909  0.039  0.022
  0.039  0.892 -0.022
  0.022 -0.022  0.917
atom    6   Tr[ns(na)] =   5.43477
    eigenvalues: 
  0.847  0.930  0.941
    eigenvectors:
  0.340  0.000  0.660
  0.000  1.000  0.000
  0.660  0.000  0.340
    occupations:
  0.909  0.000 -0.045
  0.000  0.930  0.000
 -0.045  0.000  0.879
atom    7   Tr[ns(na)] =   5.43477
    eigenvalues: 
  0.847  0.930  0.941
    eigenvectors:
  0.340  0.000  0.660
  0.495  0.250  0.255
  0.165  0.750  0.085
    occupations:
  0.909 -0.039  0.022
 -0.039  0.891  0.022
  0.022  0.022  0.917
atom    8   Tr[ns(na)] =   5.43477
    eigenvalues: 
  0.847  0.930  0.941
    eigenvectors:
  0.340  0.000  0.660
  0.000  1.000  0.000
  0.660  0.000  0.340
    occupations:
  0.909  0.000 -0.045
  0.000  0.930  0.000
 -0.045  0.000  0.879
atom    9   Tr[ns(na)] =   5.43477
    eigenvalues: 
  0.847  0.930  0.941
    eigenvectors:
  0.340  0.000  0.660
  0.495  0.250  0.255
  0.165  0.750  0.085
    occupations:
  0.909  0.039  0.022
  0.039  0.892 -0.022
  0.022 -0.022  0.917
atom   10   Tr[ns(na)] =   5.43477
    eigenvalues: 
  0.847  0.930  0.941
    eigenvectors:
  0.340  0.000  0.660
  0.495  0.250  0.255
  0.165  0.750  0.085
    occupations:
  0.909 -0.039  0.022
 -0.039  0.891  0.022
  0.022  0.022  0.917
N of occupied +U levels =  56.2467065
 --- exit write_ns ---
 --- in v_hubbard ---
Hubbard energy    0.0589
 -------

     total cpu time spent up to now is      127.1 secs

     End of self-consistent calculation

          k = 0.0000 0.0000 0.0000 (  2175 PWs)   bands (ev):

   -19.7888 -19.6154  -6.5270  -5.8029  -5.8029  -5.7809  -5.7809  -5.4598
    -3.7399  -3.2532  -3.1746  -3.1746  -3.0134  -3.0134   5.1996   6.9640
     6.9640   7.5339   7.5339   7.7277   7.8529   7.8529   7.9122   9.3149
     9.6348   9.6348   9.8927   9.9419   9.9419  10.4851  10.4851  10.6913
    10.6913  10.6965  10.8364  11.5300  11.5300  12.1958  12.3131  12.3131
    14.7820  14.7820  15.4371  15.4371  16.2012  16.7932

     occupation numbers 
     0.0313   0.0313   0.0313   0.0313   0.0313   0.0313   0.0313   0.0313
     0.0313   0.0313   0.0313   0.0313   0.0313   0.0313   0.0313   0.0313
     0.0313   0.0313   0.0313   0.0313   0.0313   0.0313   0.0313   0.0313
     0.0313   0.0313   0.0312   0.0312   0.0312   0.0312   0.0312   0.0312
     0.0312   0.0312   0.0312   0.0309   0.0309   0.0150   0.0101   0.0101
     0.0000   0.0000   0.0000   0.0000   0.0000   0.0000

          k =-0.2471-0.1427 0.1027 (  2181 PWs)   bands (ev):

   -19.7607 -19.6380  -6.7071  -6.2650  -5.9020  -5.8134  -5.5790  -5.4447
    -3.5595  -3.3696  -2.9090  -2.8869  -2.8240  -2.7433   5.5654   6.8961
     7.0627   7.0697   7.3655   7.5342   7.5925   7.8508   7.8938   8.6390
     8.7362   9.3681   9.6827   9.8214   9.8718  10.0498  10.3960  10.4079
    11.0597  11.0913  11.1730  11.8992  11.9505  12.0116  12.3713  12.4302
    14.3267  14.3349  15.8244  16.0799  16.9785  17.2743

     occupation numbers 
     0.1875   0.1875   0.1875   0.1875   0.1875   0.1875   0.1875   0.1875
     0.1875   0.1875   0.1875   0.1875   0.1875   0.1875   0.1875   0.1875
     0.1875   0.1875   0.1875   0.1875   0.1875   0.1875   0.1875   0.1875
     0.1875   0.1875   0.1875   0.1875   0.1875   0.1875   0.1875   0.1875
     0.1875   0.1875   0.1875   0.1568   0.1478   0.1354   0.0479   0.0365
     0.0000   0.0000   0.0000   0.0000   0.0000   0.0000

          k = 0.4942 0.2853-0.2053 (  2202 PWs)   bands (ev):

   -19.6971 -19.6963  -6.7080  -6.6943  -5.9295  -5.9183  -5.4918  -5.4790
    -3.3585  -3.3573  -2.7674  -2.7671  -2.4942  -2.4921   6.1074   6.1089
     7.2540   7.2557   7.3210   7.3226   7.6857   7.6970   8.0155   8.0234
     8.2283   8.2400   9.5566   9.5642   9.8931   9.9014  10.3000  10.3114
    11.4918  11.4993  11.5708  11.5791  11.7352  11.7437  13.3110  13.3344
    13.3985  13.4222  16.8431  16.8482  17.1399  17.1447

     occupation numbers 
     0.0938   0.0938   0.0938   0.0938   0.0938   0.0938   0.0938   0.0938
     0.0938   0.0938   0.0938   0.0938   0.0938   0.0938   0.0938   0.0938
     0.0938   0.0938   0.0938   0.0938   0.0938   0.0938   0.0938   0.0938
     0.0938   0.0938   0.0938   0.0938   0.0937   0.0937   0.0937   0.0937
     0.0930   0.0929   0.0921   0.0920   0.0880   0.0877   0.0000   0.0000
     0.0000   0.0000   0.0000   0.0000   0.0000   0.0000

          k =-0.2471 0.1427 0.2053 (  2195 PWs)   bands (ev):

   -19.7561 -19.6404  -6.8299  -6.2027  -6.0388  -5.7982  -5.6264  -5.4138
    -3.3861  -3.2460  -3.0784  -2.8685  -2.7914  -2.5440   5.5989   6.8687
     6.9619   7.1479   7.2670   7.4976   7.5044   7.8999   7.9025   8.7047
     8.9329   8.9358   9.3155   9.8159  10.0083  10.1182  10.2204  10.3178
    10.7144  11.4145  11.4398  11.5292  11.9493  12.0153  12.1885  12.7512
    13.6501  14.7968  16.0006  16.2024  17.0430  17.5428

     occupation numbers 
     0.1875   0.1875   0.1875   0.1875   0.1875   0.1875   0.1875   0.1875
     0.1875   0.1875   0.1875   0.1875   0.1875   0.1875   0.1875   0.1875
     0.1875   0.1875   0.1875   0.1875   0.1875   0.1875   0.1875   0.1875
     0.1875   0.1875   0.1875   0.1875   0.1875   0.1875   0.1875   0.1875
     0.1875   0.1868   0.1865   0.1853   0.1481   0.1346   0.0920   0.0045
     0.0000   0.0000   0.0000   0.0000   0.0000   0.0000

          k = 0.4942 0.5706-0.1027 (  2198 PWs)   bands (ev):

   -19.7158 -19.6749  -6.9310  -6.6241  -6.1032  -5.8640  -5.4759  -5.3389
    -3.2824  -3.2352  -2.8584  -2.6896  -2.5104  -2.3681   5.9335   6.3022
     6.9145   7.0657   7.2551   7.3644   7.5853   7.8350   7.9699   8.1147
     8.3878   8.9352   9.1911   9.3757   9.6873   9.8393   9.9928  10.3826
    11.1252  11.5639  11.6489  11.7221  11.8512  11.8749  12.3534  12.7560
    13.4391  14.3739  16.9135  17.1243  17.3202  18.0246

     occupation numbers 
     0.1875   0.1875   0.1875   0.1875   0.1875   0.1875   0.1875   0.1875
     0.1875   0.1875   0.1875   0.1875   0.1875   0.1875   0.1875   0.1875
     0.1875   0.1875   0.1875   0.1875   0.1875   0.1875   0.1875   0.1875
     0.1875   0.1875   0.1875   0.1875   0.1875   0.1875   0.1875   0.1875
     0.1875   0.1845   0.1814   0.1771   0.1639   0.1605   0.0517   0.0044
     0.0000   0.0000   0.0000   0.0000   0.0000   0.0000

          k = 0.2471 0.4280 0.0000 (  2203 PWs)   bands (ev):

   -19.7255 -19.6676  -6.8258  -6.6126  -6.0271  -5.9469  -5.4011  -5.3264
    -3.4869  -3.2773  -2.7831  -2.6935  -2.5495  -2.5385   5.9084   6.3457
     7.1159   7.1642   7.2591   7.3461   7.4819   7.7566   7.8550   8.2193
     8.4567   8.9588   9.4443   9.4974   9.7967   9.8153  10.0860  10.3859
    11.4231  11.4322  11.4618  11.6810  11.6916  11.9703  12.3007  13.3379
    13.4072  14.1695  16.4458  17.0019  17.4286  17.9336

     occupation numbers 
     0.1875   0.1875   0.1875   0.1875   0.1875   0.1875   0.1875   0.1875
     0.1875   0.1875   0.1875   0.1875   0.1875   0.1875   0.1875   0.1875
     0.1875   0.1875   0.1875   0.1875   0.1875   0.1875   0.1875   0.1875
     0.1875   0.1875   0.1875   0.1875   0.1875   0.1875   0.1875   0.1875
     0.1867   0.1866   0.1863   0.1797   0.1791   0.1440   0.0638   0.0000
     0.0000   0.0000   0.0000   0.0000   0.0000   0.0000

          k = 0.4942-0.2853-0.4107 (  2202 PWs)   bands (ev):

   -19.7229 -19.6651  -7.1392  -6.4355  -6.2202  -5.9270  -5.5075  -5.2398
    -3.1722  -3.1122  -3.0224  -2.6352  -2.4645  -2.2059   5.8315   6.3482
     6.4884   6.9569   7.1642   7.2719   7.9180   7.9444   8.1736   8.3310
     8.6159   8.6165   8.6652   9.4344   9.6910  10.0534  10.0909  10.4605
    10.6807  11.3192  11.5874  11.7739  11.8791  11.9900  12.0847  12.4732
    13.3389  14.8087  17.0496  17.2745  17.5287  17.6144

     occupation numbers 
     0.0938   0.0938   0.0938   0.0938   0.0938   0.0938   0.0938   0.0938
     0.0938   0.0938   0.0938   0.0938   0.0938   0.0938   0.0938   0.0938
     0.0938   0.0938   0.0938   0.0938   0.0938   0.0938   0.0938   0.0938
     0.0938   0.0938   0.0938   0.0938   0.0938   0.0937   0.0937   0.0937
     0.0937   0.0936   0.0919   0.0864   0.0799   0.0700   0.0592   0.0147
     0.0000   0.0000   0.0000   0.0000   0.0000   0.0000

          k = 0.0000 0.0000 0.3080 (  2187 PWs)   bands (ev):

   -19.7605 -19.6378  -6.5949  -5.9562  -5.8929  -5.8929  -5.8042  -5.8042
    -3.1793  -3.0822  -3.0822  -2.9532  -2.8780  -2.8780   5.6182   7.0586
     7.0586   7.1562   7.4589   7.4589   7.5508   7.8815   7.8815   8.8871
     8.8871   9.4557   9.4592   9.6847   9.6847   9.8987  10.1564  10.1564
    11.1759  11.1759  11.2386  11.9124  11.9124  12.0239  12.3531  12.3531
    14.2881  14.2881  15.9189  15.9189  16.8843  17.4886

     occupation numbers 
     0.0625   0.0625   0.0625   0.0625   0.0625   0.0625   0.0625   0.0625
     0.0625   0.0625   0.0625   0.0625   0.0625   0.0625   0.0625   0.0625
     0.0625   0.0625   0.0625   0.0625   0.0625   0.0625   0.0625   0.0625
     0.0625   0.0625   0.0625   0.0625   0.0625   0.0625   0.0625   0.0625
     0.0625   0.0625   0.0625   0.0515   0.0515   0.0442   0.0173   0.0173
     0.0000   0.0000   0.0000   0.0000   0.0000   0.0000

          k = 0.7412 0.4280 0.0000 (  2204 PWs)   bands (ev):

   -19.7252 -19.6673  -6.7109  -6.5760  -6.1189  -5.8021  -5.6370  -5.5111
    -3.1473  -3.0696  -3.0295  -2.6587  -2.6370  -2.5649   5.9487   6.5282
     7.1275   7.2338   7.2585   7.3700   7.4707   7.6963   8.0383   8.1755
     8.4845   8.8639   9.4973   9.5128   9.6333   9.7034   9.8790  10.2390
    11.4206  11.4335  11.5306  11.7114  11.7381  11.9014  12.3111  13.2626
    13.3228  14.1928  16.6991  16.7311  17.5973  17.8035

     occupation numbers 
     0.1875   0.1875   0.1875   0.1875   0.1875   0.1875   0.1875   0.1875
     0.1875   0.1875   0.1875   0.1875   0.1875   0.1875   0.1875   0.1875
     0.1875   0.1875   0.1875   0.1875   0.1875   0.1875   0.1875   0.1875
     0.1875   0.1875   0.1875   0.1875   0.1875   0.1875   0.1875   0.1875
     0.1867   0.1866   0.1852   0.1778   0.1759   0.1564   0.0613   0.0000
     0.0000   0.0000   0.0000   0.0000   0.0000   0.0000

          k = 0.4942 0.2853 0.1027 (  2211 PWs)   bands (ev):

   -19.7158 -19.6749  -6.9474  -6.5207  -6.2976  -5.6610  -5.5966  -5.3120
    -3.2957  -3.1495  -3.0085  -2.5875  -2.5432  -2.3608   5.9642   6.2698
     6.8722   7.0557   7.2441   7.3117   7.6043   7.9078   8.0140   8.0673
     8.4247   9.0630   9.1887   9.4269   9.5702   9.6960  10.0437  10.4059
    11.1394  11.5978  11.7230  11.7302  11.7890  11.8086  12.3053  12.7736
    13.4844  14.3555  16.8942  16.9426  17.5913  17.9383

     occupation numbers 
     0.1875   0.1875   0.1875   0.1875   0.1875   0.1875   0.1875   0.1875
     0.1875   0.1875   0.1875   0.1875   0.1875   0.1875   0.1875   0.1875
     0.1875   0.1875   0.1875   0.1875   0.1875   0.1875   0.1875   0.1875
     0.1875   0.1875   0.1875   0.1875   0.1875   0.1875   0.1875   0.1875
     0.1875   0.1835   0.1770   0.1765   0.1712   0.1691   0.0627   0.0038
     0.0000   0.0000   0.0000   0.0000   0.0000   0.0000

          k = 0.7412-0.4280-0.3080 (  2210 PWs)   bands (ev):

   -19.7156 -19.6746  -6.8828  -6.4273  -6.2755  -5.7718  -5.7238  -5.4394
    -3.0517  -3.0303  -2.9475  -2.7115  -2.6023  -2.4110   6.0225   6.4140
     6.9641   7.0430   7.2920   7.2932   7.6255   7.9277   8.0626   8.0975
     8.4014   9.0325   9.0469   9.5405   9.5670   9.6099   9.6850  10.2413
    11.1946  11.6186  11.7096  11.7203  11.8325  11.8730  12.2635  12.7215
    13.4326  14.3249  17.0696  17.0760  17.5596  17.9122

     occupation numbers 
     0.1875   0.1875   0.1875   0.1875   0.1875   0.1875   0.1875   0.1875
     0.1875   0.1875   0.1875   0.1875   0.1875   0.1875   0.1875   0.1875
     0.1875   0.1875   0.1875   0.1875   0.1875   0.1875   0.1875   0.1875
     0.1875   0.1875   0.1875   0.1875   0.1875   0.1875   0.1875   0.1875
     0.1874   0.1827   0.1780   0.1772   0.1663   0.1608   0.0728   0.0058
     0.0000   0.0000   0.0000   0.0000   0.0000   0.0000

          k = 0.4942-0.5706-0.2053 (  2206 PWs)   bands (ev):

   -19.6942 -19.6942  -6.8645  -6.8477  -6.0136  -6.0125  -5.3864  -5.3820
    -3.1366  -3.1358  -2.7944  -2.7933  -2.3681  -2.3650   6.1204   6.1233
     7.0447   7.0469   7.1772   7.1781   7.4557   7.4562   8.2413   8.2584
     8.8223   8.8230   9.0991   9.0999   9.5750   9.5768  10.1276  10.1279
    11.4070  11.4077  11.6055  11.6090  11.8749  11.8756  12.3368  12.3394
    14.0174  14.0236  17.4386  17.4393  17.8755  17.8779

     occupation numbers 
     0.1875   0.1875   0.1875   0.1875   0.1875   0.1875   0.1875   0.1875
     0.1875   0.1875   0.1875   0.1875   0.1875   0.1875   0.1875   0.1875
     0.1875   0.1875   0.1875   0.1875   0.1875   0.1875   0.1875   0.1875
     0.1875   0.1875   0.1875   0.1875   0.1875   0.1875   0.1875   0.1875
     0.1868   0.1868   0.1832   0.1831   0.1605   0.1604   0.0554   0.0548
     0.0000   0.0000   0.0000   0.0000   0.0000   0.0000

          k = 0.0000 0.0000-0.6160 (  2186 PWs)   bands (ev):

   -19.6966 -19.6958  -6.4948  -6.4777  -5.9098  -5.9098  -5.8977  -5.8977
    -2.8672  -2.8672  -2.8667  -2.8667  -2.6953  -2.6951   6.3275   6.3314
     7.2645   7.2645   7.2645   7.2645   7.8817   7.8952   8.1393   8.1393
     8.1500   8.1500   9.6685   9.6685   9.6780   9.6780   9.7302   9.7423
    11.6224  11.6288  11.6703  11.6703  11.6789  11.6789  13.2535  13.2535
    13.2767  13.2767  17.1253  17.1253  17.1280  17.1280

     occupation numbers 
     0.0313   0.0313   0.0313   0.0313   0.0313   0.0313   0.0313   0.0313
     0.0313   0.0313   0.0313   0.0313   0.0313   0.0313   0.0313   0.0313
     0.0313   0.0313   0.0313   0.0313   0.0313   0.0313   0.0313   0.0313
     0.0313   0.0313   0.0313   0.0313   0.0313   0.0313   0.0313   0.0313
     0.0304   0.0304   0.0301   0.0301   0.0300   0.0300   0.0000   0.0000
     0.0000   0.0000   0.0000   0.0000   0.0000   0.0000

          k = 0.4942-0.5706 0.1027 (  2198 PWs)   bands (ev):

   -19.7158 -19.6749  -6.9312  -6.6218  -6.1064  -5.8660  -5.4758  -5.3357
    -3.2828  -3.2352  -2.8592  -2.6889  -2.5110  -2.3674   5.9336   6.3013
     6.9145   7.0649   7.2561   7.3627   7.5869   7.8367   7.9623   8.1251
     8.3856   8.9390   9.1863   9.3744   9.6860   9.8398   9.9928  10.3845
    11.1248  11.5624  11.6523  11.7213  11.8526  11.8729  12.3527  12.7561
    13.4392  14.3735  16.9155  17.1214  17.3208  18.0241

     occupation numbers 
     0.1875   0.1875   0.1875   0.1875   0.1875   0.1875   0.1875   0.1875
     0.1875   0.1875   0.1875   0.1875   0.1875   0.1875   0.1875   0.1875
     0.1875   0.1875   0.1875   0.1875   0.1875   0.1875   0.1875   0.1875
     0.1875   0.1875   0.1875   0.1875   0.1875   0.1875   0.1875   0.1875
     0.1875   0.1845   0.1813   0.1771   0.1637   0.1608   0.0519   0.0044
     0.0000   0.0000   0.0000   0.0000   0.0000   0.0000

     the Fermi energy is    12.1817 ev

!    total energy              =    -538.27413796 Ry
     Harris-Foulkes estimate   =    -538.27413674 Ry
     estimated scf accuracy    <          1.9E-09 Ry

     The total energy is the sum of the following terms:

     one-electron contribution =     -32.87958824 Ry
     hartree contribution      =      83.58818291 Ry
     xc contribution           =    -199.55227082 Ry
     ewald contribution        =    -389.44315552 Ry
     Hubbard energy            =       0.05886867 Ry
     smearing contrib. (-TS)   =      -0.04617496 Ry

     convergence has been achieved in   8 iterations

     init_run     :      7.30s CPU      7.56s WALL (       1 calls)
     electrons    :    116.77s CPU    118.75s WALL (       1 calls)

     Called by init_run:
     wfcinit      :      0.00s CPU      0.00s WALL (       1 calls)
     potinit      :      0.28s CPU      0.31s WALL (       1 calls)

     Called by electrons:
     c_bands      :     76.77s CPU     77.39s WALL (       8 calls)
     sum_band     :     22.82s CPU     23.20s WALL (       8 calls)
     v_of_rho     :      2.30s CPU      2.33s WALL (       9 calls)
     v_h          :      0.12s CPU      0.12s WALL (       9 calls)
     v_xc         :      2.18s CPU      2.20s WALL (       9 calls)
     newd         :     16.15s CPU     16.35s WALL (       9 calls)
     mix_rho      :      0.22s CPU      0.22s WALL (       8 calls)

     Called by c_bands:
     init_us_2    :      0.78s CPU      0.78s WALL (     224 calls)
     cegterg      :     74.62s CPU     75.09s WALL (     112 calls)

     Called by sum_band:
     sum_band:bec :      0.08s CPU      0.08s WALL (     112 calls)
     addusdens    :     10.03s CPU     10.08s WALL (       8 calls)

     Called by *egterg:
     h_psi        :     53.91s CPU     54.34s WALL (     552 calls)
     s_psi        :      3.14s CPU      3.13s WALL (     552 calls)
     g_psi        :      0.27s CPU      0.27s WALL (     440 calls)
     cdiaghg      :      6.72s CPU      6.74s WALL (     538 calls)
     cegterg:over :      3.93s CPU      3.94s WALL (     440 calls)
     cegterg:upda :      2.80s CPU      2.81s WALL (     440 calls)
     cegterg:last :      1.61s CPU      1.61s WALL (     126 calls)

     Called by h_psi:
     h_psi:vloc   :     43.62s CPU     44.01s WALL (     552 calls)
     h_psi:vnl    :      6.62s CPU      6.61s WALL (     552 calls)
     add_vuspsi   :      3.12s CPU      3.12s WALL (     552 calls)
     vhpsi        :      3.57s CPU      3.60s WALL (     552 calls)

     General routines
     calbec       :      7.25s CPU      7.32s WALL (    1328 calls)
     fft          :      1.68s CPU      1.70s WALL (     139 calls)
     ffts         :      0.04s CPU      0.04s WALL (      17 calls)
     fftw         :     42.87s CPU     43.31s WALL (   31722 calls)
     interpolate  :      0.25s CPU      0.26s WALL (      17 calls)
     davcio       :      0.00s CPU      0.22s WALL (     238 calls)

     Parallel routines
     fft_scatter  :     12.40s CPU     12.77s WALL (   31878 calls)
     Hubbard U routines
     new_ns       :      0.78s CPU      0.94s WALL (       8 calls)
     vhpsi        :      3.57s CPU      3.60s WALL (     552 calls)

     PWSCF        :  2m 4.50s CPU     2m 7.49s WALL


   This run was terminated on:   8: 0:44  11Nov2012            

=------------------------------------------------------------------------------=
