 
Job started on n18 at Sat Nov  3 13:57:50 EDT 2012

     Program PWSCF v.5.0.1 starts on  3Nov2012 at 13:57:54 

     This program is part of the open-source Quantum ESPRESSO suite
     for quantum simulation of materials; please cite
         "P. Giannozzi et al., J. Phys.:Condens. Matter 21 395502 (2009);
          URL http://www.quantum-espresso.org", 
     in publications or presentations arising from this work. More details at
     http://www.quantum-espresso.org/quote.php

     Parallel version (MPI), running on     4 processors
     R & G space division:  proc/pool =    4

     Current dimensions of program PWSCF are:
     Max number of different atomic species (ntypx) = 10
     Max number of k-points (npk) =  40000
     Max angular momentum in pseudopotentials (lmaxx) =  3
     Reading input from NiO_U0_init.in
               file Ni.pbe-nd-rrkjus.UPF: wavefunction(s)  4S renormalized
               file Ni.pbe-nd-rrkjus.UPF: wavefunction(s)  4S renormalized
               file Ni.pbe-nd-rrkjus.UPF: wavefunction(s)  4S renormalized
               file O.pbe-rrkjus.UPF: wavefunction(s)  2S renormalized

     Subspace diagonalization in iterative solution of the eigenvalue problem:
     a serial algorithm will be used


     Parallelization info
     --------------------
     sticks:   dense  smooth     PW     G-vecs:    dense   smooth      PW
     Min         370     148     46                10846     2748     482
     Max         371     149     47                10849     2765     485
     Sum        1481     593    185                43387    11019    1935


     Title: 
     GGA + U, U = 1D-40, initial SCF                                            


     bravais-lattice index     =            1
     lattice parameter (alat)  =       7.9000  a.u.
     unit-cell volume          =     493.0390 (a.u.)^3
     number of atoms/cell      =           16
     number of atomic types    =            4
     number of electrons       =       128.00
     number of Kohn-Sham states=           77
     kinetic-energy cutoff     =      30.0000  Ry
     charge density cutoff     =     300.0000  Ry
     convergence threshold     =      1.0E-08
     mixing beta               =       0.3000
     number of iterations used =            8  plain     mixing
     Exchange-correlation      =  SLA  PW   PBE  PBE ( 1 4 3 4 0)
     EXX-fraction              =        0.00

     celldm(1)=   7.900000  celldm(2)=   0.000000  celldm(3)=   0.000000
     celldm(4)=   0.000000  celldm(5)=   0.000000  celldm(6)=   0.000000

     crystal axes: (cart. coord. in units of alat)
               a(1) = (   1.000000   0.000000   0.000000 )  
               a(2) = (   0.000000   1.000000   0.000000 )  
               a(3) = (   0.000000   0.000000   1.000000 )  

     reciprocal axes: (cart. coord. in units 2 pi/alat)
               b(1) = (  1.000000  0.000000  0.000000 )  
               b(2) = (  0.000000  1.000000  0.000000 )  
               b(3) = (  0.000000  0.000000  1.000000 )  


     PseudoPot. # 1 for Ni read from file:
     /home/mcurnan/GGA+U_Corr/TestProj1_Code/example_NiO/Ni.pbe-nd-rrkjus.UPF
     MD5 check sum: 8081f0a005c9a5470caab1a58e82ecb2
     Pseudo is Ultrasoft + core correction, Zval = 10.0
     Generated by new atomic code, or converted to UPF format
     Using radial grid of 1203 points,  6 beta functions with: 
                l(1) =   0
                l(2) =   0
                l(3) =   1
                l(4) =   1
                l(5) =   2
                l(6) =   2
     Q(r) pseudized with 0 coefficients 


     PseudoPot. # 2 for Ni read from file:
     /home/mcurnan/GGA+U_Corr/TestProj1_Code/example_NiO/Ni.pbe-nd-rrkjus.UPF
     MD5 check sum: 8081f0a005c9a5470caab1a58e82ecb2
     Pseudo is Ultrasoft + core correction, Zval = 10.0
     Generated by new atomic code, or converted to UPF format
     Using radial grid of 1203 points,  6 beta functions with: 
                l(1) =   0
                l(2) =   0
                l(3) =   1
                l(4) =   1
                l(5) =   2
                l(6) =   2
     Q(r) pseudized with 0 coefficients 


     PseudoPot. # 3 for Ni read from file:
     /home/mcurnan/GGA+U_Corr/TestProj1_Code/example_NiO/Ni.pbe-nd-rrkjus.UPF
     MD5 check sum: 8081f0a005c9a5470caab1a58e82ecb2
     Pseudo is Ultrasoft + core correction, Zval = 10.0
     Generated by new atomic code, or converted to UPF format
     Using radial grid of 1203 points,  6 beta functions with: 
                l(1) =   0
                l(2) =   0
                l(3) =   1
                l(4) =   1
                l(5) =   2
                l(6) =   2
     Q(r) pseudized with 0 coefficients 


     PseudoPot. # 4 for O  read from file:
     /home/mcurnan/GGA+U_Corr/TestProj1_Code/example_NiO/O.pbe-rrkjus.UPF
     MD5 check sum: 390ba29e75625707450f3bd3f0eb6be9
     Pseudo is Ultrasoft, Zval =  6.0
     Generated by new atomic code, or converted to UPF format
     Using radial grid of 1269 points,  4 beta functions with: 
                l(1) =   0
                l(2) =   0
                l(3) =   1
                l(4) =   1
     Q(r) pseudized with 0 coefficients 


     atomic species   valence    mass     pseudopotential
        Ni1           10.00     1.00000     Ni( 1.00)
        Ni2           10.00     1.00000     Ni( 1.00)
        Ni3           10.00     1.00000     Ni( 1.00)
        O1             6.00     1.00000     O ( 1.00)
 -----
     simplified LDA+U calculation, Hubbard_lmax = 2
     atomic species  L   Hubbard U  Hubbard alpha
        Ni1          2    0.000000    0.000000
        Ni2          2    0.000000    0.000000
        Ni3          2    0.000000    0.000000
        O1           1    0.000000    0.000000
 -----

     48 Sym. Ops., with inversion, found


                                    s                        frac. trans.

      isym =  1     identity                                     

 cryst.   s( 1) = (     1          0          0      )
                  (     0          1          0      )
                  (     0          0          1      )

 cart.    s( 1) = (  1.0000000  0.0000000  0.0000000 )
                  (  0.0000000  1.0000000  0.0000000 )
                  (  0.0000000  0.0000000  1.0000000 )


      isym =  2     180 deg rotation - cart. axis [0,0,1]        

 cryst.   s( 2) = (    -1          0          0      )
                  (     0         -1          0      )
                  (     0          0          1      )

 cart.    s( 2) = ( -1.0000000  0.0000000  0.0000000 )
                  (  0.0000000 -1.0000000  0.0000000 )
                  (  0.0000000  0.0000000  1.0000000 )


      isym =  3     180 deg rotation - cart. axis [0,1,0]        

 cryst.   s( 3) = (    -1          0          0      )
                  (     0          1          0      )
                  (     0          0         -1      )

 cart.    s( 3) = ( -1.0000000  0.0000000  0.0000000 )
                  (  0.0000000  1.0000000  0.0000000 )
                  (  0.0000000  0.0000000 -1.0000000 )


      isym =  4     180 deg rotation - cart. axis [1,0,0]        

 cryst.   s( 4) = (     1          0          0      )
                  (     0         -1          0      )
                  (     0          0         -1      )

 cart.    s( 4) = (  1.0000000  0.0000000  0.0000000 )
                  (  0.0000000 -1.0000000  0.0000000 )
                  (  0.0000000  0.0000000 -1.0000000 )


      isym =  5     180 deg rotation - cart. axis [1,1,0]        

 cryst.   s( 5) = (     0          1          0      )
                  (     1          0          0      )
                  (     0          0         -1      )

 cart.    s( 5) = (  0.0000000  1.0000000  0.0000000 )
                  (  1.0000000  0.0000000  0.0000000 )
                  (  0.0000000  0.0000000 -1.0000000 )


      isym =  6     180 deg rotation - cart. axis [1,-1,0]       

 cryst.   s( 6) = (     0         -1          0      )
                  (    -1          0          0      )
                  (     0          0         -1      )

 cart.    s( 6) = (  0.0000000 -1.0000000  0.0000000 )
                  ( -1.0000000  0.0000000  0.0000000 )
                  (  0.0000000  0.0000000 -1.0000000 )


      isym =  7      90 deg rotation - cart. axis [0,0,-1]       

 cryst.   s( 7) = (     0         -1          0      )
                  (     1          0          0      )
                  (     0          0          1      )

 cart.    s( 7) = (  0.0000000  1.0000000  0.0000000 )
                  ( -1.0000000  0.0000000  0.0000000 )
                  (  0.0000000  0.0000000  1.0000000 )


      isym =  8      90 deg rotation - cart. axis [0,0,1]        

 cryst.   s( 8) = (     0          1          0      )
                  (    -1          0          0      )
                  (     0          0          1      )

 cart.    s( 8) = (  0.0000000 -1.0000000  0.0000000 )
                  (  1.0000000  0.0000000  0.0000000 )
                  (  0.0000000  0.0000000  1.0000000 )


      isym =  9     180 deg rotation - cart. axis [1,0,1]        

 cryst.   s( 9) = (     0          0          1      )
                  (     0         -1          0      )
                  (     1          0          0      )

 cart.    s( 9) = (  0.0000000  0.0000000  1.0000000 )
                  (  0.0000000 -1.0000000  0.0000000 )
                  (  1.0000000  0.0000000  0.0000000 )


      isym = 10     180 deg rotation - cart. axis [-1,0,1]       

 cryst.   s(10) = (     0          0         -1      )
                  (     0         -1          0      )
                  (    -1          0          0      )

 cart.    s(10) = (  0.0000000  0.0000000 -1.0000000 )
                  (  0.0000000 -1.0000000  0.0000000 )
                  ( -1.0000000  0.0000000  0.0000000 )


      isym = 11      90 deg rotation - cart. axis [0,1,0]        

 cryst.   s(11) = (     0          0         -1      )
                  (     0          1          0      )
                  (     1          0          0      )

 cart.    s(11) = (  0.0000000  0.0000000  1.0000000 )
                  (  0.0000000  1.0000000  0.0000000 )
                  ( -1.0000000  0.0000000  0.0000000 )


      isym = 12      90 deg rotation - cart. axis [0,-1,0]       

 cryst.   s(12) = (     0          0          1      )
                  (     0          1          0      )
                  (    -1          0          0      )

 cart.    s(12) = (  0.0000000  0.0000000 -1.0000000 )
                  (  0.0000000  1.0000000  0.0000000 )
                  (  1.0000000  0.0000000  0.0000000 )


      isym = 13     180 deg rotation - cart. axis [0,1,1]        

 cryst.   s(13) = (    -1          0          0      )
                  (     0          0          1      )
                  (     0          1          0      )

 cart.    s(13) = ( -1.0000000  0.0000000  0.0000000 )
                  (  0.0000000  0.0000000  1.0000000 )
                  (  0.0000000  1.0000000  0.0000000 )


      isym = 14     180 deg rotation - cart. axis [0,1,-1]       

 cryst.   s(14) = (    -1          0          0      )
                  (     0          0         -1      )
                  (     0         -1          0      )

 cart.    s(14) = ( -1.0000000  0.0000000  0.0000000 )
                  (  0.0000000  0.0000000 -1.0000000 )
                  (  0.0000000 -1.0000000  0.0000000 )


      isym = 15      90 deg rotation - cart. axis [-1,0,0]       

 cryst.   s(15) = (     1          0          0      )
                  (     0          0         -1      )
                  (     0          1          0      )

 cart.    s(15) = (  1.0000000  0.0000000  0.0000000 )
                  (  0.0000000  0.0000000  1.0000000 )
                  (  0.0000000 -1.0000000  0.0000000 )


      isym = 16      90 deg rotation - cart. axis [1,0,0]        

 cryst.   s(16) = (     1          0          0      )
                  (     0          0          1      )
                  (     0         -1          0      )

 cart.    s(16) = (  1.0000000  0.0000000  0.0000000 )
                  (  0.0000000  0.0000000 -1.0000000 )
                  (  0.0000000  1.0000000  0.0000000 )


      isym = 17     120 deg rotation - cart. axis [-1,-1,-1]     

 cryst.   s(17) = (     0          0          1      )
                  (     1          0          0      )
                  (     0          1          0      )

 cart.    s(17) = (  0.0000000  1.0000000  0.0000000 )
                  (  0.0000000  0.0000000  1.0000000 )
                  (  1.0000000  0.0000000  0.0000000 )


      isym = 18     120 deg rotation - cart. axis [-1,1,1]       

 cryst.   s(18) = (     0          0         -1      )
                  (    -1          0          0      )
                  (     0          1          0      )

 cart.    s(18) = (  0.0000000 -1.0000000  0.0000000 )
                  (  0.0000000  0.0000000  1.0000000 )
                  ( -1.0000000  0.0000000  0.0000000 )


      isym = 19     120 deg rotation - cart. axis [1,1,-1]       

 cryst.   s(19) = (     0          0         -1      )
                  (     1          0          0      )
                  (     0         -1          0      )

 cart.    s(19) = (  0.0000000  1.0000000  0.0000000 )
                  (  0.0000000  0.0000000 -1.0000000 )
                  ( -1.0000000  0.0000000  0.0000000 )


      isym = 20     120 deg rotation - cart. axis [1,-1,1]       

 cryst.   s(20) = (     0          0          1      )
                  (    -1          0          0      )
                  (     0         -1          0      )

 cart.    s(20) = (  0.0000000 -1.0000000  0.0000000 )
                  (  0.0000000  0.0000000 -1.0000000 )
                  (  1.0000000  0.0000000  0.0000000 )


      isym = 21     120 deg rotation - cart. axis [1,1,1]        

 cryst.   s(21) = (     0          1          0      )
                  (     0          0          1      )
                  (     1          0          0      )

 cart.    s(21) = (  0.0000000  0.0000000  1.0000000 )
                  (  1.0000000  0.0000000  0.0000000 )
                  (  0.0000000  1.0000000  0.0000000 )


      isym = 22     120 deg rotation - cart. axis [-1,1,-1]      

 cryst.   s(22) = (     0         -1          0      )
                  (     0          0         -1      )
                  (     1          0          0      )

 cart.    s(22) = (  0.0000000  0.0000000  1.0000000 )
                  ( -1.0000000  0.0000000  0.0000000 )
                  (  0.0000000 -1.0000000  0.0000000 )


      isym = 23     120 deg rotation - cart. axis [1,-1,-1]      

 cryst.   s(23) = (     0         -1          0      )
                  (     0          0          1      )
                  (    -1          0          0      )

 cart.    s(23) = (  0.0000000  0.0000000 -1.0000000 )
                  ( -1.0000000  0.0000000  0.0000000 )
                  (  0.0000000  1.0000000  0.0000000 )


      isym = 24     120 deg rotation - cart. axis [-1,-1,1]      

 cryst.   s(24) = (     0          1          0      )
                  (     0          0         -1      )
                  (    -1          0          0      )

 cart.    s(24) = (  0.0000000  0.0000000 -1.0000000 )
                  (  1.0000000  0.0000000  0.0000000 )
                  (  0.0000000 -1.0000000  0.0000000 )


      isym = 25     inversion                                    

 cryst.   s(25) = (    -1          0          0      )
                  (     0         -1          0      )
                  (     0          0         -1      )

 cart.    s(25) = ( -1.0000000  0.0000000  0.0000000 )
                  (  0.0000000 -1.0000000  0.0000000 )
                  (  0.0000000  0.0000000 -1.0000000 )


      isym = 26     inv. 180 deg rotation - cart. axis [0,0,1]   

 cryst.   s(26) = (     1          0          0      )
                  (     0          1          0      )
                  (     0          0         -1      )

 cart.    s(26) = (  1.0000000  0.0000000  0.0000000 )
                  (  0.0000000  1.0000000  0.0000000 )
                  (  0.0000000  0.0000000 -1.0000000 )


      isym = 27     inv. 180 deg rotation - cart. axis [0,1,0]   

 cryst.   s(27) = (     1          0          0      )
                  (     0         -1          0      )
                  (     0          0          1      )

 cart.    s(27) = (  1.0000000  0.0000000  0.0000000 )
                  (  0.0000000 -1.0000000  0.0000000 )
                  (  0.0000000  0.0000000  1.0000000 )


      isym = 28     inv. 180 deg rotation - cart. axis [1,0,0]   

 cryst.   s(28) = (    -1          0          0      )
                  (     0          1          0      )
                  (     0          0          1      )

 cart.    s(28) = ( -1.0000000  0.0000000  0.0000000 )
                  (  0.0000000  1.0000000  0.0000000 )
                  (  0.0000000  0.0000000  1.0000000 )


      isym = 29     inv. 180 deg rotation - cart. axis [1,1,0]   

 cryst.   s(29) = (     0         -1          0      )
                  (    -1          0          0      )
                  (     0          0          1      )

 cart.    s(29) = (  0.0000000 -1.0000000  0.0000000 )
                  ( -1.0000000  0.0000000  0.0000000 )
                  (  0.0000000  0.0000000  1.0000000 )


      isym = 30     inv. 180 deg rotation - cart. axis [1,-1,0]  

 cryst.   s(30) = (     0          1          0      )
                  (     1          0          0      )
                  (     0          0          1      )

 cart.    s(30) = (  0.0000000  1.0000000  0.0000000 )
                  (  1.0000000  0.0000000  0.0000000 )
                  (  0.0000000  0.0000000  1.0000000 )


      isym = 31     inv.  90 deg rotation - cart. axis [0,0,-1]  

 cryst.   s(31) = (     0          1          0      )
                  (    -1          0          0      )
                  (     0          0         -1      )

 cart.    s(31) = (  0.0000000 -1.0000000  0.0000000 )
                  (  1.0000000  0.0000000  0.0000000 )
                  (  0.0000000  0.0000000 -1.0000000 )


      isym = 32     inv.  90 deg rotation - cart. axis [0,0,1]   

 cryst.   s(32) = (     0         -1          0      )
                  (     1          0          0      )
                  (     0          0         -1      )

 cart.    s(32) = (  0.0000000  1.0000000  0.0000000 )
                  ( -1.0000000  0.0000000  0.0000000 )
                  (  0.0000000  0.0000000 -1.0000000 )


      isym = 33     inv. 180 deg rotation - cart. axis [1,0,1]   

 cryst.   s(33) = (     0          0         -1      )
                  (     0          1          0      )
                  (    -1          0          0      )

 cart.    s(33) = (  0.0000000  0.0000000 -1.0000000 )
                  (  0.0000000  1.0000000  0.0000000 )
                  ( -1.0000000  0.0000000  0.0000000 )


      isym = 34     inv. 180 deg rotation - cart. axis [-1,0,1]  

 cryst.   s(34) = (     0          0          1      )
                  (     0          1          0      )
                  (     1          0          0      )

 cart.    s(34) = (  0.0000000  0.0000000  1.0000000 )
                  (  0.0000000  1.0000000  0.0000000 )
                  (  1.0000000  0.0000000  0.0000000 )


      isym = 35     inv.  90 deg rotation - cart. axis [0,1,0]   

 cryst.   s(35) = (     0          0          1      )
                  (     0         -1          0      )
                  (    -1          0          0      )

 cart.    s(35) = (  0.0000000  0.0000000 -1.0000000 )
                  (  0.0000000 -1.0000000  0.0000000 )
                  (  1.0000000  0.0000000  0.0000000 )


      isym = 36     inv.  90 deg rotation - cart. axis [0,-1,0]  

 cryst.   s(36) = (     0          0         -1      )
                  (     0         -1          0      )
                  (     1          0          0      )

 cart.    s(36) = (  0.0000000  0.0000000  1.0000000 )
                  (  0.0000000 -1.0000000  0.0000000 )
                  ( -1.0000000  0.0000000  0.0000000 )


      isym = 37     inv. 180 deg rotation - cart. axis [0,1,1]   

 cryst.   s(37) = (     1          0          0      )
                  (     0          0         -1      )
                  (     0         -1          0      )

 cart.    s(37) = (  1.0000000  0.0000000  0.0000000 )
                  (  0.0000000  0.0000000 -1.0000000 )
                  (  0.0000000 -1.0000000  0.0000000 )


      isym = 38     inv. 180 deg rotation - cart. axis [0,1,-1]  

 cryst.   s(38) = (     1          0          0      )
                  (     0          0          1      )
                  (     0          1          0      )

 cart.    s(38) = (  1.0000000  0.0000000  0.0000000 )
                  (  0.0000000  0.0000000  1.0000000 )
                  (  0.0000000  1.0000000  0.0000000 )


      isym = 39     inv.  90 deg rotation - cart. axis [-1,0,0]  

 cryst.   s(39) = (    -1          0          0      )
                  (     0          0          1      )
                  (     0         -1          0      )

 cart.    s(39) = ( -1.0000000  0.0000000  0.0000000 )
                  (  0.0000000  0.0000000 -1.0000000 )
                  (  0.0000000  1.0000000  0.0000000 )


      isym = 40     inv.  90 deg rotation - cart. axis [1,0,0]   

 cryst.   s(40) = (    -1          0          0      )
                  (     0          0         -1      )
                  (     0          1          0      )

 cart.    s(40) = ( -1.0000000  0.0000000  0.0000000 )
                  (  0.0000000  0.0000000  1.0000000 )
                  (  0.0000000 -1.0000000  0.0000000 )


      isym = 41     inv. 120 deg rotation - cart. axis [-1,-1,-1]

 cryst.   s(41) = (     0          0         -1      )
                  (    -1          0          0      )
                  (     0         -1          0      )

 cart.    s(41) = (  0.0000000 -1.0000000  0.0000000 )
                  (  0.0000000  0.0000000 -1.0000000 )
                  ( -1.0000000  0.0000000  0.0000000 )


      isym = 42     inv. 120 deg rotation - cart. axis [-1,1,1]  

 cryst.   s(42) = (     0          0          1      )
                  (     1          0          0      )
                  (     0         -1          0      )

 cart.    s(42) = (  0.0000000  1.0000000  0.0000000 )
                  (  0.0000000  0.0000000 -1.0000000 )
                  (  1.0000000  0.0000000  0.0000000 )


      isym = 43     inv. 120 deg rotation - cart. axis [1,1,-1]  

 cryst.   s(43) = (     0          0          1      )
                  (    -1          0          0      )
                  (     0          1          0      )

 cart.    s(43) = (  0.0000000 -1.0000000  0.0000000 )
                  (  0.0000000  0.0000000  1.0000000 )
                  (  1.0000000  0.0000000  0.0000000 )


      isym = 44     inv. 120 deg rotation - cart. axis [1,-1,1]  

 cryst.   s(44) = (     0          0         -1      )
                  (     1          0          0      )
                  (     0          1          0      )

 cart.    s(44) = (  0.0000000  1.0000000  0.0000000 )
                  (  0.0000000  0.0000000  1.0000000 )
                  ( -1.0000000  0.0000000  0.0000000 )


      isym = 45     inv. 120 deg rotation - cart. axis [1,1,1]   

 cryst.   s(45) = (     0         -1          0      )
                  (     0          0         -1      )
                  (    -1          0          0      )

 cart.    s(45) = (  0.0000000  0.0000000 -1.0000000 )
                  ( -1.0000000  0.0000000  0.0000000 )
                  (  0.0000000 -1.0000000  0.0000000 )


      isym = 46     inv. 120 deg rotation - cart. axis [-1,1,-1] 

 cryst.   s(46) = (     0          1          0      )
                  (     0          0          1      )
                  (    -1          0          0      )

 cart.    s(46) = (  0.0000000  0.0000000 -1.0000000 )
                  (  1.0000000  0.0000000  0.0000000 )
                  (  0.0000000  1.0000000  0.0000000 )


      isym = 47     inv. 120 deg rotation - cart. axis [1,-1,-1] 

 cryst.   s(47) = (     0          1          0      )
                  (     0          0         -1      )
                  (     1          0          0      )

 cart.    s(47) = (  0.0000000  0.0000000  1.0000000 )
                  (  1.0000000  0.0000000  0.0000000 )
                  (  0.0000000 -1.0000000  0.0000000 )


      isym = 48     inv. 120 deg rotation - cart. axis [-1,-1,1] 

 cryst.   s(48) = (     0         -1          0      )
                  (     0          0          1      )
                  (     1          0          0      )

 cart.    s(48) = (  0.0000000  0.0000000  1.0000000 )
                  ( -1.0000000  0.0000000  0.0000000 )
                  (  0.0000000  1.0000000  0.0000000 )


     point group O_h (m-3m) 
     there are 10 classes
     the character table:

       E     8C3   6C2'  6C4   3C2   i     6S4   8S6   3s_h  6s_d 
A_1g   1.00  1.00  1.00  1.00  1.00  1.00  1.00  1.00  1.00  1.00
A_2g   1.00  1.00 -1.00 -1.00  1.00  1.00 -1.00  1.00  1.00 -1.00
E_g    2.00 -1.00  0.00  0.00  2.00  2.00  0.00 -1.00  2.00  0.00
T_1g   3.00  0.00 -1.00  1.00 -1.00  3.00  1.00  0.00 -1.00 -1.00
T_2g   3.00  0.00  1.00 -1.00 -1.00  3.00 -1.00  0.00 -1.00  1.00
A_1u   1.00  1.00  1.00  1.00  1.00 -1.00 -1.00 -1.00 -1.00 -1.00
A_2u   1.00  1.00 -1.00 -1.00  1.00 -1.00  1.00 -1.00 -1.00  1.00
E_u    2.00 -1.00  0.00  0.00  2.00 -2.00  0.00  1.00 -2.00  0.00
T_1u   3.00  0.00 -1.00  1.00 -1.00 -3.00 -1.00  0.00  1.00  1.00
T_2u   3.00  0.00  1.00 -1.00 -1.00 -3.00  1.00  0.00  1.00 -1.00

     the symmetry operations in each class:
     E        1
     3C2      2    4    3
     6C2'     5    6   14   13   10    9
     6C4      7    8   15   16   12   11
     8C3     17   19   20   18   24   21   22   23
     i       25
     3s_h    26   28   27
     6s_d    29   30   38   37   34   33
     6S4     31   32   39   40   36   35
     8S6     41   43   44   42   48   45   46   47

   Cartesian axes

     site n.     atom                  positions (alat units)
         1           Ni1 tau(   1) = (   0.0000000   0.0000000   0.0000000  )
         2           Ni2 tau(   2) = (   0.5000000   0.5000000   0.0000000  )
         3           Ni2 tau(   3) = (   0.5000000   0.0000000   0.5000000  )
         4           Ni2 tau(   4) = (   0.0000000   0.5000000   0.5000000  )
         5           Ni3 tau(   5) = (   0.5000000   0.0000000   0.0000000  )
         6           Ni3 tau(   6) = (   0.0000000   0.5000000   0.0000000  )
         7           Ni3 tau(   7) = (   0.0000000   0.0000000   0.5000000  )
         8           Ni3 tau(   8) = (   0.5000000   0.5000000   0.5000000  )
         9           O1  tau(   9) = (  -0.2500000   0.2500000   0.2500000  )
        10           O1  tau(  10) = (   0.2500000   0.2500000   0.2500000  )
        11           O1  tau(  11) = (  -0.2500000   0.2500000   0.7500000  )
        12           O1  tau(  12) = (  -0.2500000   0.7500000   0.2500000  )
        13           O1  tau(  13) = (   0.2500000   0.7500000   0.2500000  )
        14           O1  tau(  14) = (   0.2500000   0.2500000   0.7500000  )
        15           O1  tau(  15) = (  -0.2500000   0.7500000   0.7500000  )
        16           O1  tau(  16) = (   0.2500000   0.7500000   0.7500000  )

   Crystallographic axes

     site n.     atom                  positions (cryst. coord.)
         1           Ni1 tau(   1) = (  0.0000000  0.0000000  0.0000000  )
         2           Ni2 tau(   2) = (  0.5000000  0.5000000  0.0000000  )
         3           Ni2 tau(   3) = (  0.5000000  0.0000000  0.5000000  )
         4           Ni2 tau(   4) = (  0.0000000  0.5000000  0.5000000  )
         5           Ni3 tau(   5) = (  0.5000000  0.0000000  0.0000000  )
         6           Ni3 tau(   6) = (  0.0000000  0.5000000  0.0000000  )
         7           Ni3 tau(   7) = (  0.0000000  0.0000000  0.5000000  )
         8           Ni3 tau(   8) = (  0.5000000  0.5000000  0.5000000  )
         9           O1  tau(   9) = ( -0.2500000  0.2500000  0.2500000  )
        10           O1  tau(  10) = (  0.2500000  0.2500000  0.2500000  )
        11           O1  tau(  11) = ( -0.2500000  0.2500000  0.7500000  )
        12           O1  tau(  12) = ( -0.2500000  0.7500000  0.2500000  )
        13           O1  tau(  13) = (  0.2500000  0.7500000  0.2500000  )
        14           O1  tau(  14) = (  0.2500000  0.2500000  0.7500000  )
        15           O1  tau(  15) = ( -0.2500000  0.7500000  0.7500000  )
        16           O1  tau(  16) = (  0.2500000  0.7500000  0.7500000  )

     number of k points=    10  gaussian smearing, width (Ry)=  0.0100
                       cart. coord. in units 2pi/alat
        k(    1) = (   0.0000000   0.0000000   0.0000000), wk =   0.0312500
        k(    2) = (   0.0000000   0.0000000   0.2500000), wk =   0.1875000
        k(    3) = (   0.0000000   0.0000000  -0.5000000), wk =   0.0937500
        k(    4) = (   0.0000000   0.2500000   0.2500000), wk =   0.3750000
        k(    5) = (   0.0000000   0.2500000  -0.5000000), wk =   0.3750000
        k(    6) = (   0.0000000  -0.5000000  -0.5000000), wk =   0.0937500
        k(    7) = (   0.2500000   0.2500000   0.2500000), wk =   0.2500000
        k(    8) = (   0.2500000   0.2500000  -0.5000000), wk =   0.3750000
        k(    9) = (   0.2500000  -0.5000000  -0.5000000), wk =   0.1875000
        k(   10) = (  -0.5000000  -0.5000000  -0.5000000), wk =   0.0312500

                       cryst. coord.
        k(    1) = (   0.0000000   0.0000000   0.0000000), wk =   0.0312500
        k(    2) = (   0.0000000   0.0000000   0.2500000), wk =   0.1875000
        k(    3) = (   0.0000000   0.0000000  -0.5000000), wk =   0.0937500
        k(    4) = (   0.0000000   0.2500000   0.2500000), wk =   0.3750000
        k(    5) = (   0.0000000   0.2500000  -0.5000000), wk =   0.3750000
        k(    6) = (   0.0000000  -0.5000000  -0.5000000), wk =   0.0937500
        k(    7) = (   0.2500000   0.2500000   0.2500000), wk =   0.2500000
        k(    8) = (   0.2500000   0.2500000  -0.5000000), wk =   0.3750000
        k(    9) = (   0.2500000  -0.5000000  -0.5000000), wk =   0.1875000
        k(   10) = (  -0.5000000  -0.5000000  -0.5000000), wk =   0.0312500

     Dense  grid:    43387 G-vectors     FFT dimensions: (  45,  45,  45)

     Smooth grid:    11019 G-vectors     FFT dimensions: (  27,  27,  27)

     Largest allocated arrays     est. size (Mb)     dimensions
        Kohn-Sham Wavefunctions         0.41 Mb     (    352,   77)
        Atomic wavefunctions            0.43 Mb     (    352,   80)
        NL pseudopotentials             1.12 Mb     (    352,  208)
        Each V/rho on FFT grid          0.37 Mb     (  24300)
        Each G-vector array             0.08 Mb     (  10846)
        G-vector shells                 0.00 Mb     (    398)
     Largest temporary arrays     est. size (Mb)     dimensions
        Auxiliary wavefunctions         1.65 Mb     (    352,  308)
        Each subspace H/S matrix        1.45 Mb     ( 308, 308)
        Each <psi_i|beta_j> matrix      0.24 Mb     (    208,   77)
        Arrays for rho mixing           2.97 Mb     (  24300,   8)
     writing wfc files to a dedicated directory

     Check: negative/imaginary core charge=   -0.000021    0.000000

     Initial potential from superposition of free atoms

     starting charge  127.99632, renormalised to  128.00000
 --- in v_hubbard ---
Hubbard energy    0.0000
 -------
     Number of +U iterations with fixed ns =  0
     Starting occupations:
 --- enter write_ns ---
 LDA+U parameters:
U( 1)     =  0.00000000
alpha( 1) =  0.00000000
U( 2)     =  0.00000000
alpha( 2) =  0.00000000
U( 3)     =  0.00000000
alpha( 3) =  0.00000000
U( 4)     =  0.00000000
alpha( 4) =  0.00000000
atom    1   Tr[ns(na)] =   8.00000
    eigenvalues: 
  0.800  0.800  0.800  0.800  0.800
    eigenvectors:
  1.000  0.000  0.000  0.000  0.000
  0.000  1.000  0.000  0.000  0.000
  0.000  0.000  1.000  0.000  0.000
  0.000  0.000  0.000  1.000  0.000
  0.000  0.000  0.000  0.000  1.000
    occupations:
  0.800  0.000  0.000  0.000  0.000
  0.000  0.800  0.000  0.000  0.000
  0.000  0.000  0.800  0.000  0.000
  0.000  0.000  0.000  0.800  0.000
  0.000  0.000  0.000  0.000  0.800
atom    2   Tr[ns(na)] =   8.00000
    eigenvalues: 
  0.800  0.800  0.800  0.800  0.800
    eigenvectors:
  1.000  0.000  0.000  0.000  0.000
  0.000  1.000  0.000  0.000  0.000
  0.000  0.000  1.000  0.000  0.000
  0.000  0.000  0.000  1.000  0.000
  0.000  0.000  0.000  0.000  1.000
    occupations:
  0.800  0.000  0.000  0.000  0.000
  0.000  0.800  0.000  0.000  0.000
  0.000  0.000  0.800  0.000  0.000
  0.000  0.000  0.000  0.800  0.000
  0.000  0.000  0.000  0.000  0.800
atom    3   Tr[ns(na)] =   8.00000
    eigenvalues: 
  0.800  0.800  0.800  0.800  0.800
    eigenvectors:
  1.000  0.000  0.000  0.000  0.000
  0.000  1.000  0.000  0.000  0.000
  0.000  0.000  1.000  0.000  0.000
  0.000  0.000  0.000  1.000  0.000
  0.000  0.000  0.000  0.000  1.000
    occupations:
  0.800  0.000  0.000  0.000  0.000
  0.000  0.800  0.000  0.000  0.000
  0.000  0.000  0.800  0.000  0.000
  0.000  0.000  0.000  0.800  0.000
  0.000  0.000  0.000  0.000  0.800
atom    4   Tr[ns(na)] =   8.00000
    eigenvalues: 
  0.800  0.800  0.800  0.800  0.800
    eigenvectors:
  1.000  0.000  0.000  0.000  0.000
  0.000  1.000  0.000  0.000  0.000
  0.000  0.000  1.000  0.000  0.000
  0.000  0.000  0.000  1.000  0.000
  0.000  0.000  0.000  0.000  1.000
    occupations:
  0.800  0.000  0.000  0.000  0.000
  0.000  0.800  0.000  0.000  0.000
  0.000  0.000  0.800  0.000  0.000
  0.000  0.000  0.000  0.800  0.000
  0.000  0.000  0.000  0.000  0.800
atom    5   Tr[ns(na)] =   8.00000
    eigenvalues: 
  0.800  0.800  0.800  0.800  0.800
    eigenvectors:
  1.000  0.000  0.000  0.000  0.000
  0.000  1.000  0.000  0.000  0.000
  0.000  0.000  1.000  0.000  0.000
  0.000  0.000  0.000  1.000  0.000
  0.000  0.000  0.000  0.000  1.000
    occupations:
  0.800  0.000  0.000  0.000  0.000
  0.000  0.800  0.000  0.000  0.000
  0.000  0.000  0.800  0.000  0.000
  0.000  0.000  0.000  0.800  0.000
  0.000  0.000  0.000  0.000  0.800
atom    6   Tr[ns(na)] =   8.00000
    eigenvalues: 
  0.800  0.800  0.800  0.800  0.800
    eigenvectors:
  1.000  0.000  0.000  0.000  0.000
  0.000  1.000  0.000  0.000  0.000
  0.000  0.000  1.000  0.000  0.000
  0.000  0.000  0.000  1.000  0.000
  0.000  0.000  0.000  0.000  1.000
    occupations:
  0.800  0.000  0.000  0.000  0.000
  0.000  0.800  0.000  0.000  0.000
  0.000  0.000  0.800  0.000  0.000
  0.000  0.000  0.000  0.800  0.000
  0.000  0.000  0.000  0.000  0.800
atom    7   Tr[ns(na)] =   8.00000
    eigenvalues: 
  0.800  0.800  0.800  0.800  0.800
    eigenvectors:
  1.000  0.000  0.000  0.000  0.000
  0.000  1.000  0.000  0.000  0.000
  0.000  0.000  1.000  0.000  0.000
  0.000  0.000  0.000  1.000  0.000
  0.000  0.000  0.000  0.000  1.000
    occupations:
  0.800  0.000  0.000  0.000  0.000
  0.000  0.800  0.000  0.000  0.000
  0.000  0.000  0.800  0.000  0.000
  0.000  0.000  0.000  0.800  0.000
  0.000  0.000  0.000  0.000  0.800
atom    8   Tr[ns(na)] =   8.00000
    eigenvalues: 
  0.800  0.800  0.800  0.800  0.800
    eigenvectors:
  1.000  0.000  0.000  0.000  0.000
  0.000  1.000  0.000  0.000  0.000
  0.000  0.000  1.000  0.000  0.000
  0.000  0.000  0.000  1.000  0.000
  0.000  0.000  0.000  0.000  1.000
    occupations:
  0.800  0.000  0.000  0.000  0.000
  0.000  0.800  0.000  0.000  0.000
  0.000  0.000  0.800  0.000  0.000
  0.000  0.000  0.000  0.800  0.000
  0.000  0.000  0.000  0.000  0.800
atom    9   Tr[ns(na)] =   4.00000
    eigenvalues: 
  0.667  0.667  0.667
    eigenvectors:
  1.000  0.000  0.000
  0.000  1.000  0.000
  0.000  0.000  1.000
    occupations:
  0.667  0.000  0.000
  0.000  0.667  0.000
  0.000  0.000  0.667
atom   10   Tr[ns(na)] =   4.00000
    eigenvalues: 
  0.667  0.667  0.667
    eigenvectors:
  1.000  0.000  0.000
  0.000  1.000  0.000
  0.000  0.000  1.000
    occupations:
  0.667  0.000  0.000
  0.000  0.667  0.000
  0.000  0.000  0.667
atom   11   Tr[ns(na)] =   4.00000
    eigenvalues: 
  0.667  0.667  0.667
    eigenvectors:
  1.000  0.000  0.000
  0.000  1.000  0.000
  0.000  0.000  1.000
    occupations:
  0.667  0.000  0.000
  0.000  0.667  0.000
  0.000  0.000  0.667
atom   12   Tr[ns(na)] =   4.00000
    eigenvalues: 
  0.667  0.667  0.667
    eigenvectors:
  1.000  0.000  0.000
  0.000  1.000  0.000
  0.000  0.000  1.000
    occupations:
  0.667  0.000  0.000
  0.000  0.667  0.000
  0.000  0.000  0.667
atom   13   Tr[ns(na)] =   4.00000
    eigenvalues: 
  0.667  0.667  0.667
    eigenvectors:
  1.000  0.000  0.000
  0.000  1.000  0.000
  0.000  0.000  1.000
    occupations:
  0.667  0.000  0.000
  0.000  0.667  0.000
  0.000  0.000  0.667
atom   14   Tr[ns(na)] =   4.00000
    eigenvalues: 
  0.667  0.667  0.667
    eigenvectors:
  1.000  0.000  0.000
  0.000  1.000  0.000
  0.000  0.000  1.000
    occupations:
  0.667  0.000  0.000
  0.000  0.667  0.000
  0.000  0.000  0.667
atom   15   Tr[ns(na)] =   4.00000
    eigenvalues: 
  0.667  0.667  0.667
    eigenvectors:
  1.000  0.000  0.000
  0.000  1.000  0.000
  0.000  0.000  1.000
    occupations:
  0.667  0.000  0.000
  0.000  0.667  0.000
  0.000  0.000  0.667
atom   16   Tr[ns(na)] =   4.00000
    eigenvalues: 
  0.667  0.667  0.667
    eigenvectors:
  1.000  0.000  0.000
  0.000  1.000  0.000
  0.000  0.000  1.000
    occupations:
  0.667  0.000  0.000
  0.000  0.667  0.000
  0.000  0.000  0.667
N of occupied +U levels =  96.0000000
 --- exit write_ns ---
 Atomic wfc used for LDA+U Projector are NOT orthogonalized
     Starting wfc are   80 randomized atomic wfcs

     total cpu time spent up to now is        5.3 secs

     per-process dynamical memory:    19.3 Mb

     Self-consistent Calculation

     iteration #  1     ecut=    30.00 Ry     beta=0.30
     Davidson diagonalization with overlap
     ethr =  1.00E-02,  avg # of iterations =  2.5
 --- enter write_ns ---
 LDA+U parameters:
U( 1)     =  0.00000000
alpha( 1) =  0.00000000
U( 2)     =  0.00000000
alpha( 2) =  0.00000000
U( 3)     =  0.00000000
alpha( 3) =  0.00000000
U( 4)     =  0.00000000
alpha( 4) =  0.00000000
atom    1   Tr[ns(na)] =   8.77463
    eigenvalues: 
  0.845  0.845  0.845  0.926  0.926
    eigenvectors:
  0.000  0.000  0.000  0.007  0.993
  0.074  0.080  0.846  0.000  0.000
  0.394  0.452  0.154  0.000  0.000
  0.000  0.000  0.000  0.993  0.007
  0.531  0.469  0.000  0.000  0.000
    occupations:
  0.926  0.000  0.000  0.000  0.000
  0.000  0.845  0.000  0.000  0.000
  0.000  0.000  0.845  0.000  0.000
  0.000  0.000  0.000  0.926  0.000
  0.000  0.000  0.000  0.000  0.845
atom    2   Tr[ns(na)] =   8.77460
    eigenvalues: 
  0.845  0.845  0.845  0.926  0.926
    eigenvectors:
  0.000  0.000  0.000  1.000  0.000
  0.130  0.870  0.000  0.000  0.000
  0.870  0.130  0.000  0.000  0.000
  0.000  0.000  0.000  0.000  1.000
  0.000  0.000  1.000  0.000  0.000
    occupations:
  0.926  0.000  0.000  0.000  0.000
  0.000  0.845  0.000  0.000  0.000
  0.000  0.000  0.845  0.000  0.000
  0.000  0.000  0.000  0.926  0.000
  0.000  0.000  0.000  0.000  0.845
atom    3   Tr[ns(na)] =   8.77460
    eigenvalues: 
  0.845  0.845  0.845  0.926  0.926
    eigenvectors:
  0.000  0.000  0.000  0.250  0.750
  0.000  0.000  1.000  0.000  0.000
  0.445  0.555  0.000  0.000  0.000
  0.000  0.000  0.000  0.750  0.250
  0.555  0.445  0.000  0.000  0.000
    occupations:
  0.926  0.000  0.000  0.000  0.000
  0.000  0.845  0.000  0.000  0.000
  0.000  0.000  0.845  0.000  0.000
  0.000  0.000  0.000  0.926  0.000
  0.000  0.000  0.000  0.000  0.845
atom    4   Tr[ns(na)] =   8.77460
    eigenvalues: 
  0.845  0.845  0.845  0.926  0.926
    eigenvectors:
  0.000  0.000  0.000  0.250  0.750
  0.118  0.882  0.000  0.000  0.000
  0.000  0.000  1.000  0.000  0.000
  0.000  0.000  0.000  0.750  0.250
  0.882  0.118  0.000  0.000  0.000
    occupations:
  0.926  0.000  0.000  0.000  0.000
  0.000  0.845  0.000  0.000  0.000
  0.000  0.000  0.845  0.000  0.000
  0.000  0.000  0.000  0.926  0.000
  0.000  0.000  0.000  0.000  0.845
atom    5   Tr[ns(na)] =   8.77464
    eigenvalues: 
  0.845  0.845  0.845  0.926  0.926
    eigenvectors:
  0.000  0.000  0.000  0.250  0.750
  0.141  0.859  0.000  0.000  0.000
  0.000  0.000  1.000  0.000  0.000
  0.000  0.000  0.000  0.750  0.250
  0.859  0.141  0.000  0.000  0.000
    occupations:
  0.926  0.000  0.000  0.000  0.000
  0.000  0.845  0.000  0.000  0.000
  0.000  0.000  0.845  0.000  0.000
  0.000  0.000  0.000  0.926  0.000
  0.000  0.000  0.000  0.000  0.845
atom    6   Tr[ns(na)] =   8.77464
    eigenvalues: 
  0.845  0.845  0.845  0.926  0.926
    eigenvectors:
  0.000  0.000  0.000  0.250  0.750
  0.000  0.000  1.000  0.000  0.000
  0.457  0.543  0.000  0.000  0.000
  0.000  0.000  0.000  0.750  0.250
  0.543  0.457  0.000  0.000  0.000
    occupations:
  0.926  0.000  0.000  0.000  0.000
  0.000  0.845  0.000  0.000  0.000
  0.000  0.000  0.845  0.000  0.000
  0.000  0.000  0.000  0.926  0.000
  0.000  0.000  0.000  0.000  0.845
atom    7   Tr[ns(na)] =   8.77464
    eigenvalues: 
  0.845  0.845  0.845  0.926  0.926
    eigenvectors:
  0.000  0.000  0.000  1.000  0.000
  0.192  0.808  0.000  0.000  0.000
  0.808  0.192  0.000  0.000  0.000
  0.000  0.000  0.000  0.000  1.000
  0.000  0.000  1.000  0.000  0.000
    occupations:
  0.926  0.000  0.000  0.000  0.000
  0.000  0.845  0.000  0.000  0.000
  0.000  0.000  0.845  0.000  0.000
  0.000  0.000  0.000  0.926  0.000
  0.000  0.000  0.000  0.000  0.845
atom    8   Tr[ns(na)] =   8.77453
    eigenvalues: 
  0.845  0.845  0.845  0.926  0.926
    eigenvectors:
  0.000  0.000  0.000  0.025  0.975
  0.069  0.020  0.911  0.000  0.000
  0.414  0.506  0.080  0.000  0.000
  0.000  0.000  0.000  0.975  0.025
  0.517  0.474  0.009  0.000  0.000
    occupations:
  0.926  0.000  0.000  0.000  0.000
  0.000  0.845  0.000  0.000  0.000
  0.000  0.000  0.845  0.000  0.000
  0.000  0.000  0.000  0.926  0.000
  0.000  0.000  0.000  0.000  0.845
atom    9   Tr[ns(na)] =   6.02503
    eigenvalues: 
  1.004  1.004  1.004
    eigenvectors:
  0.333  0.096  0.571
  0.333  0.250  0.417
  0.333  0.655  0.012
    occupations:
  1.004  0.000  0.000
  0.000  1.004  0.000
  0.000  0.000  1.004
atom   10   Tr[ns(na)] =   6.02503
    eigenvalues: 
  1.004  1.004  1.004
    eigenvectors:
  0.333  0.581  0.086
  0.333  0.403  0.263
  0.333  0.016  0.651
    occupations:
  1.004  0.000  0.000
  0.000  1.004  0.000
  0.000  0.000  1.004
atom   11   Tr[ns(na)] =   6.02503
    eigenvalues: 
  1.004  1.004  1.004
    eigenvectors:
  0.333  0.359  0.307
  0.333  0.608  0.058
  0.333  0.033  0.634
    occupations:
  1.004  0.000  0.000
  0.000  1.004  0.000
  0.000  0.000  1.004
atom   12   Tr[ns(na)] =   6.02503
    eigenvalues: 
  1.004  1.004  1.004
    eigenvectors:
  0.333  0.411  0.255
  0.333  0.014  0.653
  0.333  0.575  0.092
    occupations:
  1.004  0.000  0.000
  0.000  1.004  0.000
  0.000  0.000  1.004
atom   13   Tr[ns(na)] =   6.02503
    eigenvalues: 
  1.004  1.004  1.004
    eigenvectors:
  0.333  0.286  0.380
  0.333  0.643  0.024
  0.333  0.071  0.596
    occupations:
  1.004  0.000  0.000
  0.000  1.004  0.000
  0.000  0.000  1.004
atom   14   Tr[ns(na)] =   6.02503
    eigenvalues: 
  1.004  1.004  1.004
    eigenvectors:
  0.333  0.370  0.296
  0.333  0.028  0.639
  0.333  0.602  0.065
    occupations:
  1.004  0.000  0.000
  0.000  1.004  0.000
  0.000  0.000  1.004
atom   15   Tr[ns(na)] =   6.02503
    eigenvalues: 
  1.004  1.004  1.004
    eigenvectors:
  0.333  0.585  0.081
  0.333  0.396  0.270
  0.333  0.018  0.648
    occupations:
  1.004  0.000  0.000
  0.000  1.004  0.000
  0.000  0.000  1.004
atom   16   Tr[ns(na)] =   6.02503
    eigenvalues: 
  1.004  1.004  1.004
    eigenvectors:
  0.333  0.084  0.583
  0.333  0.267  0.400
  0.333  0.650  0.017
    occupations:
  1.004  0.000  0.000
  0.000  1.004  0.000
  0.000  0.000  1.004
N of occupied +U levels = 118.3971238
 --- exit write_ns ---
 --- in v_hubbard ---
Hubbard energy    0.0000
 -------

     total cpu time spent up to now is       12.8 secs

     total energy              =    -935.70099386 Ry
     Harris-Foulkes estimate   =    -937.77924361 Ry
     estimated scf accuracy    <       4.58542616 Ry

     iteration #  2     ecut=    30.00 Ry     beta=0.30
     Davidson diagonalization with overlap
     ethr =  3.58E-03,  avg # of iterations =  2.7
 --- enter write_ns ---
 LDA+U parameters:
U( 1)     =  0.00000000
alpha( 1) =  0.00000000
U( 2)     =  0.00000000
alpha( 2) =  0.00000000
U( 3)     =  0.00000000
alpha( 3) =  0.00000000
U( 4)     =  0.00000000
alpha( 4) =  0.00000000
atom    1   Tr[ns(na)] =   9.12377
    eigenvalues: 
  0.863  0.863  0.863  0.987  0.987
    eigenvectors:
  0.000  0.000  0.000  0.007  0.993
  0.081  0.089  0.830  0.000  0.000
  0.403  0.427  0.170  0.000  0.000
  0.000  0.000  0.000  0.993  0.007
  0.516  0.484  0.000  0.000  0.000
    occupations:
  0.987  0.000  0.000  0.000  0.000
  0.000  0.863  0.000  0.000  0.000
  0.000  0.000  0.863  0.000  0.000
  0.000  0.000  0.000  0.987  0.000
  0.000  0.000  0.000  0.000  0.863
atom    2   Tr[ns(na)] =   9.12412
    eigenvalues: 
  0.863  0.863  0.863  0.987  0.987
    eigenvectors:
  0.000  0.000  0.000  0.000  1.000
  0.000  0.145  0.855  0.000  0.000
  0.000  0.855  0.145  0.000  0.000
  0.000  0.000  0.000  1.000  0.000
  1.000  0.000  0.000  0.000  0.000
    occupations:
  0.987  0.000  0.000  0.000  0.000
  0.000  0.863  0.000  0.000  0.000
  0.000  0.000  0.863  0.000  0.000
  0.000  0.000  0.000  0.987  0.000
  0.000  0.000  0.000  0.000  0.863
atom    3   Tr[ns(na)] =   9.12412
    eigenvalues: 
  0.863  0.863  0.863  0.987  0.987
    eigenvectors:
  0.000  0.000  0.000  0.750  0.250
  1.000  0.000  0.000  0.000  0.000
  0.000  0.469  0.531  0.000  0.000
  0.000  0.000  0.000  0.250  0.750
  0.000  0.531  0.469  0.000  0.000
    occupations:
  0.987  0.000  0.000  0.000  0.000
  0.000  0.863  0.000  0.000  0.000
  0.000  0.000  0.863  0.000  0.000
  0.000  0.000  0.000  0.987  0.000
  0.000  0.000  0.000  0.000  0.863
atom    4   Tr[ns(na)] =   9.12412
    eigenvalues: 
  0.863  0.863  0.863  0.987  0.987
    eigenvectors:
  0.000  0.000  0.000  0.750  0.250
  0.000  0.097  0.903  0.000  0.000
  1.000  0.000  0.000  0.000  0.000
  0.000  0.000  0.000  0.250  0.750
  0.000  0.903  0.097  0.000  0.000
    occupations:
  0.987  0.000  0.000  0.000  0.000
  0.000  0.863  0.000  0.000  0.000
  0.000  0.000  0.863  0.000  0.000
  0.000  0.000  0.000  0.987  0.000
  0.000  0.000  0.000  0.000  0.863
atom    5   Tr[ns(na)] =   9.12388
    eigenvalues: 
  0.863  0.863  0.863  0.987  0.987
    eigenvectors:
  0.000  0.000  0.000  0.750  0.250
  0.094  0.906  0.000  0.000  0.000
  0.000  0.000  1.000  0.000  0.000
  0.000  0.000  0.000  0.250  0.750
  0.906  0.094  0.000  0.000  0.000
    occupations:
  0.987  0.000  0.000  0.000  0.000
  0.000  0.863  0.000  0.000  0.000
  0.000  0.000  0.863  0.000  0.000
  0.000  0.000  0.000  0.987  0.000
  0.000  0.000  0.000  0.000  0.863
atom    6   Tr[ns(na)] =   9.12388
    eigenvalues: 
  0.863  0.863  0.863  0.987  0.987
    eigenvectors:
  0.000  0.000  0.000  0.750  0.250
  0.000  0.000  1.000  0.000  0.000
  0.434  0.566  0.000  0.000  0.000
  0.000  0.000  0.000  0.250  0.750
  0.566  0.434  0.000  0.000  0.000
    occupations:
  0.987  0.000  0.000  0.000  0.000
  0.000  0.863  0.000  0.000  0.000
  0.000  0.000  0.863  0.000  0.000
  0.000  0.000  0.000  0.987  0.000
  0.000  0.000  0.000  0.000  0.863
atom    7   Tr[ns(na)] =   9.12388
    eigenvalues: 
  0.863  0.863  0.863  0.987  0.987
    eigenvectors:
  0.000  0.000  0.000  0.000  1.000
  0.126  0.874  0.000  0.000  0.000
  0.874  0.126  0.000  0.000  0.000
  0.000  0.000  0.000  1.000  0.000
  0.000  0.000  1.000  0.000  0.000
    occupations:
  0.987  0.000  0.000  0.000  0.000
  0.000  0.863  0.000  0.000  0.000
  0.000  0.000  0.863  0.000  0.000
  0.000  0.000  0.000  0.987  0.000
  0.000  0.000  0.000  0.000  0.863
atom    8   Tr[ns(na)] =   9.12456
    eigenvalues: 
  0.863  0.863  0.863  0.987  0.987
    eigenvectors:
  0.000  0.000  0.000  0.004  0.996
  0.076  0.070  0.854  0.000  0.000
  0.417  0.437  0.146  0.000  0.000
  0.000  0.000  0.000  0.996  0.004
  0.507  0.493  0.000  0.000  0.000
    occupations:
  0.987  0.000  0.000  0.000  0.000
  0.000  0.863  0.000  0.000  0.000
  0.000  0.000  0.863  0.000  0.000
  0.000  0.000  0.000  0.987  0.000
  0.000  0.000  0.000  0.000  0.863
atom    9   Tr[ns(na)] =   5.81881
    eigenvalues: 
  0.970  0.970  0.970
    eigenvectors:
  0.096  0.571  0.333
  0.250  0.417  0.333
  0.655  0.012  0.333
    occupations:
  0.970  0.000  0.000
  0.000  0.970  0.000
  0.000  0.000  0.970
atom   10   Tr[ns(na)] =   5.81881
    eigenvalues: 
  0.970  0.970  0.970
    eigenvectors:
  0.576  0.090  0.333
  0.410  0.257  0.333
  0.014  0.652  0.333
    occupations:
  0.970  0.000  0.000
  0.000  0.970  0.000
  0.000  0.000  0.970
atom   11   Tr[ns(na)] =   5.81881
    eigenvalues: 
  0.970  0.970  0.970
    eigenvectors:
  0.444  0.223  0.333
  0.550  0.116  0.333
  0.006  0.661  0.333
    occupations:
  0.970  0.000  0.000
  0.000  0.970  0.000
  0.000  0.000  0.970
atom   12   Tr[ns(na)] =   5.81881
    eigenvalues: 
  0.970  0.970  0.970
    eigenvectors:
  0.405  0.262  0.333
  0.016  0.651  0.333
  0.579  0.087  0.333
    occupations:
  0.970  0.000  0.000
  0.000  0.970  0.000
  0.000  0.000  0.970
atom   13   Tr[ns(na)] =   5.81881
    eigenvalues: 
  0.970  0.970  0.970
    eigenvectors:
  0.403  0.264  0.333
  0.581  0.086  0.333
  0.016  0.651  0.333
    occupations:
  0.970  0.000  0.000
  0.000  0.970  0.000
  0.000  0.000  0.970
atom   14   Tr[ns(na)] =   5.81881
    eigenvalues: 
  0.970  0.970  0.970
    eigenvectors:
  0.401  0.265  0.333
  0.017  0.650  0.333
  0.582  0.085  0.333
    occupations:
  0.970  0.000  0.000
  0.000  0.970  0.000
  0.000  0.000  0.970
atom   15   Tr[ns(na)] =   5.81881
    eigenvalues: 
  0.970  0.970  0.970
    eigenvectors:
  0.600  0.066  0.333
  0.373  0.294  0.333
  0.027  0.640  0.333
    occupations:
  0.970  0.000  0.000
  0.000  0.970  0.000
  0.000  0.000  0.970
atom   16   Tr[ns(na)] =   5.81881
    eigenvalues: 
  0.970  0.970  0.970
    eigenvectors:
  0.075  0.591  0.333
  0.280  0.387  0.333
  0.645  0.022  0.333
    occupations:
  0.970  0.000  0.000
  0.000  0.970  0.000
  0.000  0.000  0.970
N of occupied +U levels = 119.5427972
 --- exit write_ns ---
 --- in v_hubbard ---
Hubbard energy    0.0000
 -------

     total cpu time spent up to now is       18.9 secs

     total energy              =    -936.59405418 Ry
     Harris-Foulkes estimate   =    -936.62619980 Ry
     estimated scf accuracy    <       0.12113962 Ry

     iteration #  3     ecut=    30.00 Ry     beta=0.30
     Davidson diagonalization with overlap
     ethr =  9.46E-05,  avg # of iterations =  3.0
 --- enter write_ns ---
 LDA+U parameters:
U( 1)     =  0.00000000
alpha( 1) =  0.00000000
U( 2)     =  0.00000000
alpha( 2) =  0.00000000
U( 3)     =  0.00000000
alpha( 3) =  0.00000000
U( 4)     =  0.00000000
alpha( 4) =  0.00000000
atom    1   Tr[ns(na)] =   9.08168
    eigenvalues: 
  0.858  0.858  0.858  0.984  0.984
    eigenvectors:
  0.000  0.000  0.000  0.017  0.983
  0.068  0.042  0.890  0.000  0.000
  0.385  0.509  0.106  0.000  0.000
  0.000  0.000  0.000  0.983  0.017
  0.547  0.450  0.004  0.000  0.000
    occupations:
  0.984  0.000  0.000  0.000  0.000
  0.000  0.858  0.000  0.000  0.000
  0.000  0.000  0.858  0.000  0.000
  0.000  0.000  0.000  0.984  0.000
  0.000  0.000  0.000  0.000  0.858
atom    2   Tr[ns(na)] =   9.07941
    eigenvalues: 
  0.857  0.857  0.857  0.984  0.984
    eigenvectors:
  0.000  0.000  0.000  0.000  1.000
  0.143  0.857  0.000  0.000  0.000
  0.857  0.143  0.000  0.000  0.000
  0.000  0.000  0.000  1.000  0.000
  0.000  0.000  1.000  0.000  0.000
    occupations:
  0.984  0.000  0.000  0.000  0.000
  0.000  0.857  0.000  0.000  0.000
  0.000  0.000  0.857  0.000  0.000
  0.000  0.000  0.000  0.984  0.000
  0.000  0.000  0.000  0.000  0.857
atom    3   Tr[ns(na)] =   9.07941
    eigenvalues: 
  0.857  0.857  0.857  0.984  0.984
    eigenvectors:
  0.000  0.000  0.000  0.750  0.250
  0.000  0.000  1.000  0.000  0.000
  0.417  0.583  0.000  0.000  0.000
  0.000  0.000  0.000  0.250  0.750
  0.583  0.417  0.000  0.000  0.000
    occupations:
  0.984  0.000  0.000  0.000  0.000
  0.000  0.857  0.000  0.000  0.000
  0.000  0.000  0.857  0.000  0.000
  0.000  0.000  0.000  0.984  0.000
  0.000  0.000  0.000  0.000  0.857
atom    4   Tr[ns(na)] =   9.07941
    eigenvalues: 
  0.857  0.857  0.857  0.984  0.984
    eigenvectors:
  0.000  0.000  0.000  0.750  0.250
  0.119  0.881  0.000  0.000  0.000
  0.000  0.000  1.000  0.000  0.000
  0.000  0.000  0.000  0.250  0.750
  0.881  0.119  0.000  0.000  0.000
    occupations:
  0.984  0.000  0.000  0.000  0.000
  0.000  0.857  0.000  0.000  0.000
  0.000  0.000  0.857  0.000  0.000
  0.000  0.000  0.000  0.984  0.000
  0.000  0.000  0.000  0.000  0.857
atom    5   Tr[ns(na)] =   9.08057
    eigenvalues: 
  0.857  0.857  0.857  0.984  0.984
    eigenvectors:
  0.000  0.000  0.000  0.250  0.750
  0.000  0.094  0.906  0.000  0.000
  1.000  0.000  0.000  0.000  0.000
  0.000  0.000  0.000  0.750  0.250
  0.000  0.906  0.094  0.000  0.000
    occupations:
  0.984  0.000  0.000  0.000  0.000
  0.000  0.857  0.000  0.000  0.000
  0.000  0.000  0.857  0.000  0.000
  0.000  0.000  0.000  0.984  0.000
  0.000  0.000  0.000  0.000  0.857
atom    6   Tr[ns(na)] =   9.08057
    eigenvalues: 
  0.857  0.857  0.857  0.984  0.984
    eigenvectors:
  0.000  0.000  0.000  0.250  0.750
  1.000  0.000  0.000  0.000  0.000
  0.000  0.416  0.584  0.000  0.000
  0.000  0.000  0.000  0.750  0.250
  0.000  0.584  0.416  0.000  0.000
    occupations:
  0.984  0.000  0.000  0.000  0.000
  0.000  0.857  0.000  0.000  0.000
  0.000  0.000  0.857  0.000  0.000
  0.000  0.000  0.000  0.984  0.000
  0.000  0.000  0.000  0.000  0.857
atom    7   Tr[ns(na)] =   9.08057
    eigenvalues: 
  0.857  0.857  0.857  0.984  0.984
    eigenvectors:
  0.000  0.000  0.000  1.000  0.000
  0.000  0.155  0.845  0.000  0.000
  0.000  0.845  0.155  0.000  0.000
  0.000  0.000  0.000  0.000  1.000
  1.000  0.000  0.000  0.000  0.000
    occupations:
  0.984  0.000  0.000  0.000  0.000
  0.000  0.857  0.000  0.000  0.000
  0.000  0.000  0.857  0.000  0.000
  0.000  0.000  0.000  0.984  0.000
  0.000  0.000  0.000  0.000  0.857
atom    8   Tr[ns(na)] =   9.07767
    eigenvalues: 
  0.857  0.857  0.857  0.984  0.984
    eigenvectors:
  0.000  0.000  0.000  0.014  0.986
  0.075  0.076  0.850  0.000  0.000
  0.401  0.448  0.150  0.000  0.000
  0.000  0.000  0.000  0.986  0.014
  0.524  0.476  0.000  0.000  0.000
    occupations:
  0.984  0.000  0.000  0.000  0.000
  0.000  0.857  0.000  0.000  0.000
  0.000  0.000  0.857  0.000  0.000
  0.000  0.000  0.000  0.984  0.000
  0.000  0.000  0.000  0.000  0.857
atom    9   Tr[ns(na)] =   5.84266
    eigenvalues: 
  0.974  0.974  0.974
    eigenvectors:
  0.333  0.039  0.628
  0.333  0.346  0.321
  0.333  0.616  0.051
    occupations:
  0.974  0.000  0.000
  0.000  0.974  0.000
  0.000  0.000  0.974
atom   10   Tr[ns(na)] =   5.84266
    eigenvalues: 
  0.974  0.974  0.974
    eigenvectors:
  0.333  0.563  0.104
  0.333  0.428  0.239
  0.333  0.009  0.657
    occupations:
  0.974  0.000  0.000
  0.000  0.974  0.000
  0.000  0.000  0.974
atom   11   Tr[ns(na)] =   5.84266
    eigenvalues: 
  0.974  0.974  0.974
    eigenvectors:
  0.333  0.233  0.434
  0.333  0.659  0.008
  0.333  0.108  0.558
    occupations:
  0.974  0.000  0.000
  0.000  0.974  0.000
  0.000  0.000  0.974
atom   12   Tr[ns(na)] =   5.84266
    eigenvalues: 
  0.974  0.974  0.974
    eigenvectors:
  0.333  0.343  0.323
  0.333  0.040  0.627
  0.333  0.617  0.050
    occupations:
  0.974  0.000  0.000
  0.000  0.974  0.000
  0.000  0.000  0.974
atom   13   Tr[ns(na)] =   5.84266
    eigenvalues: 
  0.974  0.974  0.974
    eigenvectors:
  0.333  0.368  0.299
  0.333  0.603  0.064
  0.333  0.029  0.638
    occupations:
  0.974  0.000  0.000
  0.000  0.974  0.000
  0.000  0.000  0.974
atom   14   Tr[ns(na)] =   5.84266
    eigenvalues: 
  0.974  0.974  0.974
    eigenvectors:
  0.333  0.408  0.259
  0.333  0.015  0.652
  0.333  0.578  0.089
    occupations:
  0.974  0.000  0.000
  0.000  0.974  0.000
  0.000  0.000  0.974
atom   15   Tr[ns(na)] =   5.84266
    eigenvalues: 
  0.974  0.974  0.974
    eigenvectors:
  0.333  0.544  0.123
  0.333  0.452  0.215
  0.333  0.004  0.662
    occupations:
  0.974  0.000  0.000
  0.000  0.974  0.000
  0.000  0.000  0.974
atom   16   Tr[ns(na)] =   5.84266
    eigenvalues: 
  0.974  0.974  0.974
    eigenvectors:
  0.333  0.044  0.623
  0.333  0.335  0.332
  0.333  0.621  0.045
    occupations:
  0.974  0.000  0.000
  0.000  0.974  0.000
  0.000  0.000  0.974
N of occupied +U levels = 119.3805624
 --- exit write_ns ---
 --- in v_hubbard ---
Hubbard energy    0.0000
 -------

     total cpu time spent up to now is       25.6 secs

     total energy              =    -936.59832780 Ry
     Harris-Foulkes estimate   =    -936.60841577 Ry
     estimated scf accuracy    <       0.03609106 Ry

     iteration #  4     ecut=    30.00 Ry     beta=0.30
     Davidson diagonalization with overlap
     ethr =  2.82E-05,  avg # of iterations =  2.4
 --- enter write_ns ---
 LDA+U parameters:
U( 1)     =  0.00000000
alpha( 1) =  0.00000000
U( 2)     =  0.00000000
alpha( 2) =  0.00000000
U( 3)     =  0.00000000
alpha( 3) =  0.00000000
U( 4)     =  0.00000000
alpha( 4) =  0.00000000
atom    1   Tr[ns(na)] =   9.05228
    eigenvalues: 
  0.854  0.854  0.854  0.982  0.982
    eigenvectors:
  0.000  0.000  0.000  0.021  0.979
  0.077  0.078  0.845  0.000  0.000
  0.407  0.439  0.154  0.000  0.000
  0.000  0.000  0.000  0.979  0.021
  0.516  0.484  0.000  0.000  0.000
    occupations:
  0.982  0.000  0.000  0.000  0.000
  0.000  0.854  0.000  0.000  0.000
  0.000  0.000  0.854  0.000  0.000
  0.000  0.000  0.000  0.982  0.000
  0.000  0.000  0.000  0.000  0.854
atom    2   Tr[ns(na)] =   9.08580
    eigenvalues: 
  0.859  0.859  0.859  0.983  0.983
    eigenvectors:
  0.000  0.000  0.000  1.000  0.000
  0.000  0.145  0.855  0.000  0.000
  0.000  0.855  0.145  0.000  0.000
  0.000  0.000  0.000  0.000  1.000
  1.000  0.000  0.000  0.000  0.000
    occupations:
  0.983  0.000  0.000  0.000  0.000
  0.000  0.859  0.000  0.000  0.000
  0.000  0.000  0.859  0.000  0.000
  0.000  0.000  0.000  0.983  0.000
  0.000  0.000  0.000  0.000  0.859
atom    3   Tr[ns(na)] =   9.08580
    eigenvalues: 
  0.859  0.859  0.859  0.983  0.983
    eigenvectors:
  0.000  0.000  0.000  0.250  0.750
  1.000  0.000  0.000  0.000  0.000
  0.000  0.438  0.562  0.000  0.000
  0.000  0.000  0.000  0.750  0.250
  0.000  0.562  0.438  0.000  0.000
    occupations:
  0.983  0.000  0.000  0.000  0.000
  0.000  0.859  0.000  0.000  0.000
  0.000  0.000  0.859  0.000  0.000
  0.000  0.000  0.000  0.983  0.000
  0.000  0.000  0.000  0.000  0.859
atom    4   Tr[ns(na)] =   9.08580
    eigenvalues: 
  0.859  0.859  0.859  0.983  0.983
    eigenvectors:
  0.000  0.000  0.000  0.250  0.750
  0.000  0.097  0.903  0.000  0.000
  1.000  0.000  0.000  0.000  0.000
  0.000  0.000  0.000  0.750  0.250
  0.000  0.903  0.097  0.000  0.000
    occupations:
  0.983  0.000  0.000  0.000  0.000
  0.000  0.859  0.000  0.000  0.000
  0.000  0.000  0.859  0.000  0.000
  0.000  0.000  0.000  0.983  0.000
  0.000  0.000  0.000  0.000  0.859
atom    5   Tr[ns(na)] =   9.06953
    eigenvalues: 
  0.856  0.856  0.857  0.983  0.983
    eigenvectors:
  0.000  0.000  0.000  0.750  0.250
  0.112  0.888  0.000  0.000  0.000
  0.000  0.000  1.000  0.000  0.000
  0.000  0.000  0.000  0.250  0.750
  0.888  0.112  0.000  0.000  0.000
    occupations:
  0.983  0.000  0.000  0.000  0.000
  0.000  0.856  0.000  0.000  0.000
  0.000  0.000  0.857  0.000  0.000
  0.000  0.000  0.000  0.983  0.000
  0.000  0.000  0.000  0.000  0.856
atom    6   Tr[ns(na)] =   9.06953
    eigenvalues: 
  0.856  0.856  0.857  0.983  0.983
    eigenvectors:
  0.000  0.000  0.000  0.750  0.250
  0.000  0.000  1.000  0.000  0.000
  0.412  0.588  0.000  0.000  0.000
  0.000  0.000  0.000  0.250  0.750
  0.588  0.412  0.000  0.000  0.000
    occupations:
  0.983  0.000  0.000  0.000  0.000
  0.000  0.857  0.000  0.000  0.000
  0.000  0.000  0.856  0.000  0.000
  0.000  0.000  0.000  0.983  0.000
  0.000  0.000  0.000  0.000  0.856
atom    7   Tr[ns(na)] =   9.06953
    eigenvalues: 
  0.856  0.856  0.857  0.983  0.983
    eigenvectors:
  0.000  0.000  0.000  0.000  1.000
  0.128  0.872  0.000  0.000  0.000
  0.872  0.128  0.000  0.000  0.000
  0.000  0.000  0.000  1.000  0.000
  0.000  0.000  1.000  0.000  0.000
    occupations:
  0.983  0.000  0.000  0.000  0.000
  0.000  0.856  0.000  0.000  0.000
  0.000  0.000  0.856  0.000  0.000
  0.000  0.000  0.000  0.983  0.000
  0.000  0.000  0.000  0.000  0.857
atom    8   Tr[ns(na)] =   9.10730
    eigenvalues: 
  0.862  0.862  0.862  0.983  0.983
    eigenvectors:
  0.000  0.000  0.000  0.031  0.969
  0.083  0.102  0.815  0.000  0.000
  0.391  0.424  0.185  0.000  0.000
  0.000  0.000  0.000  0.969  0.031
  0.526  0.474  0.000  0.000  0.000
    occupations:
  0.983  0.000  0.000  0.000  0.000
  0.000  0.862  0.000  0.000  0.000
  0.000  0.000  0.862  0.000  0.000
  0.000  0.000  0.000  0.983  0.000
  0.000  0.000  0.000  0.000  0.862
atom    9   Tr[ns(na)] =   5.83841
    eigenvalues: 
  0.973  0.973  0.973
    eigenvectors:
  0.090  0.576  0.333
  0.257  0.409  0.333
  0.652  0.014  0.333
    occupations:
  0.973  0.000  0.000
  0.000  0.973  0.000
  0.000  0.000  0.973
atom   10   Tr[ns(na)] =   5.83841
    eigenvalues: 
  0.973  0.973  0.973
    eigenvectors:
  0.587  0.079  0.333
  0.393  0.273  0.333
  0.019  0.647  0.333
    occupations:
  0.973  0.000  0.000
  0.000  0.973  0.000
  0.000  0.000  0.973
atom   11   Tr[ns(na)] =   5.83841
    eigenvalues: 
  0.973  0.973  0.973
    eigenvectors:
  0.500  0.167  0.333
  0.500  0.167  0.333
  0.000  0.667  0.333
    occupations:
  0.973  0.000  0.000
  0.000  0.973  0.000
  0.000  0.000  0.973
atom   12   Tr[ns(na)] =   5.83841
    eigenvalues: 
  0.973  0.973  0.973
    eigenvectors:
  0.357  0.309  0.333
  0.033  0.633  0.333
  0.609  0.057  0.333
    occupations:
  0.973  0.000  0.000
  0.000  0.973  0.000
  0.000  0.000  0.973
atom   13   Tr[ns(na)] =   5.83841
    eigenvalues: 
  0.973  0.973  0.973
    eigenvectors:
  0.500  0.167  0.333
  0.500  0.167  0.333
  0.000  0.667  0.333
    occupations:
  0.973  0.000  0.000
  0.000  0.973  0.000
  0.000  0.000  0.973
atom   14   Tr[ns(na)] =   5.83841
    eigenvalues: 
  0.973  0.973  0.973
    eigenvectors:
  0.370  0.296  0.333
  0.028  0.639  0.333
  0.602  0.065  0.333
    occupations:
  0.973  0.000  0.000
  0.000  0.973  0.000
  0.000  0.000  0.973
atom   15   Tr[ns(na)] =   5.83841
    eigenvalues: 
  0.973  0.973  0.973
    eigenvectors:
  0.565  0.102  0.333
  0.425  0.241  0.333
  0.010  0.657  0.333
    occupations:
  0.973  0.000  0.000
  0.000  0.973  0.000
  0.000  0.000  0.973
atom   16   Tr[ns(na)] =   5.83841
    eigenvalues: 
  0.973  0.973  0.973
    eigenvectors:
  0.090  0.576  0.333
  0.257  0.409  0.333
  0.652  0.014  0.333
    occupations:
  0.973  0.000  0.000
  0.000  0.973  0.000
  0.000  0.000  0.973
N of occupied +U levels = 119.3328332
 --- exit write_ns ---
 --- in v_hubbard ---
Hubbard energy    0.0000
 -------

     total cpu time spent up to now is       32.0 secs

     total energy              =    -936.60000324 Ry
     Harris-Foulkes estimate   =    -936.60139722 Ry
     estimated scf accuracy    <       0.00502433 Ry

     iteration #  5     ecut=    30.00 Ry     beta=0.30
     Davidson diagonalization with overlap
     ethr =  3.93E-06,  avg # of iterations =  4.2
 --- enter write_ns ---
 LDA+U parameters:
U( 1)     =  0.00000000
alpha( 1) =  0.00000000
U( 2)     =  0.00000000
alpha( 2) =  0.00000000
U( 3)     =  0.00000000
alpha( 3) =  0.00000000
U( 4)     =  0.00000000
alpha( 4) =  0.00000000
atom    1   Tr[ns(na)] =   9.17608
    eigenvalues: 
  0.873  0.873  0.873  0.984  0.984
    eigenvectors:
  0.000  0.000  0.000  0.029  0.971
  0.079  0.023  0.898  0.000  0.000
  0.430  0.476  0.093  0.000  0.000
  0.000  0.000  0.000  0.971  0.029
  0.491  0.501  0.009  0.000  0.000
    occupations:
  0.984  0.000  0.000  0.000  0.000
  0.000  0.873  0.000  0.000  0.000
  0.000  0.000  0.873  0.000  0.000
  0.000  0.000  0.000  0.984  0.000
  0.000  0.000  0.000  0.000  0.873
atom    2   Tr[ns(na)] =   9.04901
    eigenvalues: 
  0.853  0.853  0.854  0.982  0.982
    eigenvectors:
  0.000  0.000  0.000  0.000  1.000
  0.141  0.859  0.000  0.000  0.000
  0.859  0.141  0.000  0.000  0.000
  0.000  0.000  0.000  1.000  0.000
  0.000  0.000  1.000  0.000  0.000
    occupations:
  0.982  0.000  0.000  0.000  0.000
  0.000  0.853  0.000  0.000  0.000
  0.000  0.000  0.853  0.000  0.000
  0.000  0.000  0.000  0.982  0.000
  0.000  0.000  0.000  0.000  0.854
atom    3   Tr[ns(na)] =   9.04901
    eigenvalues: 
  0.853  0.853  0.854  0.982  0.982
    eigenvectors:
  0.000  0.000  0.000  0.750  0.250
  0.000  0.000  1.000  0.000  0.000
  0.464  0.536  0.000  0.000  0.000
  0.000  0.000  0.000  0.250  0.750
  0.536  0.464  0.000  0.000  0.000
    occupations:
  0.982  0.000  0.000  0.000  0.000
  0.000  0.854  0.000  0.000  0.000
  0.000  0.000  0.853  0.000  0.000
  0.000  0.000  0.000  0.982  0.000
  0.000  0.000  0.000  0.000  0.853
atom    4   Tr[ns(na)] =   9.04901
    eigenvalues: 
  0.853  0.853  0.854  0.982  0.982
    eigenvectors:
  0.000  0.000  0.000  0.750  0.250
  0.110  0.890  0.000  0.000  0.000
  0.000  0.000  1.000  0.000  0.000
  0.000  0.000  0.000  0.250  0.750
  0.890  0.110  0.000  0.000  0.000
    occupations:
  0.982  0.000  0.000  0.000  0.000
  0.000  0.853  0.000  0.000  0.000
  0.000  0.000  0.854  0.000  0.000
  0.000  0.000  0.000  0.982  0.000
  0.000  0.000  0.000  0.000  0.853
atom    5   Tr[ns(na)] =   9.11153
    eigenvalues: 
  0.862  0.864  0.864  0.983  0.983
    eigenvectors:
  0.000  0.000  0.000  0.250  0.750
  0.000  0.095  0.905  0.000  0.000
  1.000  0.000  0.000  0.000  0.000
  0.000  0.000  0.000  0.750  0.250
  0.000  0.905  0.095  0.000  0.000
    occupations:
  0.983  0.000  0.000  0.000  0.000
  0.000  0.864  0.000  0.000  0.000
  0.000  0.000  0.862  0.000  0.000
  0.000  0.000  0.000  0.983  0.000
  0.000  0.000  0.000  0.000  0.864
atom    6   Tr[ns(na)] =   9.11153
    eigenvalues: 
  0.862  0.864  0.864  0.983  0.983
    eigenvectors:
  0.000  0.000  0.000  0.250  0.750
  1.000  0.000  0.000  0.000  0.000
  0.000  0.464  0.536  0.000  0.000
  0.000  0.000  0.000  0.750  0.250
  0.000  0.536  0.464  0.000  0.000
    occupations:
  0.983  0.000  0.000  0.000  0.000
  0.000  0.862  0.000  0.000  0.000
  0.000  0.000  0.864  0.000  0.000
  0.000  0.000  0.000  0.983  0.000
  0.000  0.000  0.000  0.000  0.864
atom    7   Tr[ns(na)] =   9.11153
    eigenvalues: 
  0.862  0.864  0.864  0.983  0.983
    eigenvectors:
  0.000  0.000  0.000  1.000  0.000
  0.000  0.122  0.878  0.000  0.000
  0.000  0.878  0.122  0.000  0.000
  0.000  0.000  0.000  0.000  1.000
  1.000  0.000  0.000  0.000  0.000
    occupations:
  0.983  0.000  0.000  0.000  0.000
  0.000  0.864  0.000  0.000  0.000
  0.000  0.000  0.864  0.000  0.000
  0.000  0.000  0.000  0.983  0.000
  0.000  0.000  0.000  0.000  0.862
atom    8   Tr[ns(na)] =   8.96623
    eigenvalues: 
  0.840  0.840  0.840  0.981  0.981
    eigenvectors:
  0.000  0.000  0.000  0.009  0.991
  0.075  0.004  0.921  0.000  0.000
  0.435  0.510  0.054  0.000  0.000
  0.000  0.000  0.000  0.991  0.009
  0.489  0.486  0.025  0.000  0.000
    occupations:
  0.981  0.000  0.000  0.000  0.000
  0.000  0.840  0.000  0.000  0.000
  0.000  0.000  0.840  0.000  0.000
  0.000  0.000  0.000  0.981  0.000
  0.000  0.000  0.000  0.000  0.840
atom    9   Tr[ns(na)] =   5.83867
    eigenvalues: 
  0.973  0.973  0.973
    eigenvectors:
  0.063  0.603  0.333
  0.299  0.368  0.333
  0.638  0.029  0.333
    occupations:
  0.973  0.000  0.000
  0.000  0.973  0.000
  0.000  0.000  0.973
atom   10   Tr[ns(na)] =   5.83867
    eigenvalues: 
  0.973  0.973  0.973
    eigenvectors:
  0.566  0.101  0.333
  0.424  0.243  0.333
  0.010  0.656  0.333
    occupations:
  0.973  0.000  0.000
  0.000  0.973  0.000
  0.000  0.000  0.973
atom   11   Tr[ns(na)] =   5.83867
    eigenvalues: 
  0.973  0.973  0.973
    eigenvectors:
  0.500  0.167  0.333
  0.500  0.167  0.333
  0.000  0.667  0.333
    occupations:
  0.973  0.000  0.000
  0.000  0.973  0.000
  0.000  0.000  0.973
atom   12   Tr[ns(na)] =   5.83867
    eigenvalues: 
  0.973  0.973  0.973
    eigenvectors:
  0.361  0.306  0.333
  0.032  0.635  0.333
  0.607  0.059  0.333
    occupations:
  0.973  0.000  0.000
  0.000  0.973  0.000
  0.000  0.000  0.973
atom   13   Tr[ns(na)] =   5.83867
    eigenvalues: 
  0.973  0.973  0.973
    eigenvectors:
  0.444  0.223  0.333
  0.551  0.116  0.333
  0.006  0.661  0.333
    occupations:
  0.973  0.000  0.000
  0.000  0.973  0.000
  0.000  0.000  0.973
atom   14   Tr[ns(na)] =   5.83867
    eigenvalues: 
  0.973  0.973  0.973
    eigenvectors:
  0.337  0.330  0.333
  0.043  0.624  0.333
  0.620  0.047  0.333
    occupations:
  0.973  0.000  0.000
  0.000  0.973  0.000
  0.000  0.000  0.973
atom   15   Tr[ns(na)] =   5.83867
    eigenvalues: 
  0.973  0.973  0.973
    eigenvectors:
  0.564  0.103  0.333
  0.427  0.240  0.333
  0.009  0.657  0.333
    occupations:
  0.973  0.000  0.000
  0.000  0.973  0.000
  0.000  0.000  0.973
atom   16   Tr[ns(na)] =   5.83867
    eigenvalues: 
  0.973  0.973  0.973
    eigenvectors:
  0.042  0.625  0.333
  0.338  0.328  0.333
  0.619  0.047  0.333
    occupations:
  0.973  0.000  0.000
  0.000  0.973  0.000
  0.000  0.000  0.973
N of occupied +U levels = 119.3333526
 --- exit write_ns ---
 --- in v_hubbard ---
Hubbard energy    0.0000
 -------

     total cpu time spent up to now is       39.5 secs

     total energy              =    -936.59895910 Ry
     Harris-Foulkes estimate   =    -936.60335603 Ry
     estimated scf accuracy    <       0.04636131 Ry

     iteration #  6     ecut=    30.00 Ry     beta=0.30
     Davidson diagonalization with overlap
     ethr =  3.93E-06,  avg # of iterations =  2.1
 --- enter write_ns ---
 LDA+U parameters:
U( 1)     =  0.00000000
alpha( 1) =  0.00000000
U( 2)     =  0.00000000
alpha( 2) =  0.00000000
U( 3)     =  0.00000000
alpha( 3) =  0.00000000
U( 4)     =  0.00000000
alpha( 4) =  0.00000000
atom    1   Tr[ns(na)] =   9.07858
    eigenvalues: 
  0.858  0.858  0.858  0.983  0.983
    eigenvectors:
  0.000  0.000  0.000  0.018  0.982
  0.081  0.095  0.823  0.000  0.000
  0.396  0.428  0.177  0.000  0.000
  0.000  0.000  0.000  0.982  0.018
  0.523  0.477  0.000  0.000  0.000
    occupations:
  0.983  0.000  0.000  0.000  0.000
  0.000  0.858  0.000  0.000  0.000
  0.000  0.000  0.858  0.000  0.000
  0.000  0.000  0.000  0.983  0.000
  0.000  0.000  0.000  0.000  0.858
atom    2   Tr[ns(na)] =   9.07955
    eigenvalues: 
  0.858  0.858  0.858  0.983  0.983
    eigenvectors:
  0.000  0.000  0.000  0.000  1.000
  0.000  0.135  0.865  0.000  0.000
  0.000  0.865  0.135  0.000  0.000
  0.000  0.000  0.000  1.000  0.000
  1.000  0.000  0.000  0.000  0.000
    occupations:
  0.983  0.000  0.000  0.000  0.000
  0.000  0.858  0.000  0.000  0.000
  0.000  0.000  0.858  0.000  0.000
  0.000  0.000  0.000  0.983  0.000
  0.000  0.000  0.000  0.000  0.858
atom    3   Tr[ns(na)] =   9.07955
    eigenvalues: 
  0.858  0.858  0.858  0.983  0.983
    eigenvectors:
  0.000  0.000  0.000  0.750  0.250
  1.000  0.000  0.000  0.000  0.000
  0.000  0.489  0.511  0.000  0.000
  0.000  0.000  0.000  0.250  0.750
  0.000  0.511  0.489  0.000  0.000
    occupations:
  0.983  0.000  0.000  0.000  0.000
  0.000  0.858  0.000  0.000  0.000
  0.000  0.000  0.858  0.000  0.000
  0.000  0.000  0.000  0.983  0.000
  0.000  0.000  0.000  0.000  0.858
atom    4   Tr[ns(na)] =   9.07955
    eigenvalues: 
  0.858  0.858  0.858  0.983  0.983
    eigenvectors:
  0.000  0.000  0.000  0.750  0.250
  0.000  0.091  0.909  0.000  0.000
  1.000  0.000  0.000  0.000  0.000
  0.000  0.000  0.000  0.250  0.750
  0.000  0.909  0.091  0.000  0.000
    occupations:
  0.983  0.000  0.000  0.000  0.000
  0.000  0.858  0.000  0.000  0.000
  0.000  0.000  0.858  0.000  0.000
  0.000  0.000  0.000  0.983  0.000
  0.000  0.000  0.000  0.000  0.858
atom    5   Tr[ns(na)] =   9.07826
    eigenvalues: 
  0.858  0.858  0.858  0.983  0.983
    eigenvectors:
  0.000  0.000  0.000  0.750  0.250
  0.097  0.903  0.000  0.000  0.000
  0.000  0.000  1.000  0.000  0.000
  0.000  0.000  0.000  0.250  0.750
  0.903  0.097  0.000  0.000  0.000
    occupations:
  0.983  0.000  0.000  0.000  0.000
  0.000  0.858  0.000  0.000  0.000
  0.000  0.000  0.858  0.000  0.000
  0.000  0.000  0.000  0.983  0.000
  0.000  0.000  0.000  0.000  0.858
atom    6   Tr[ns(na)] =   9.07826
    eigenvalues: 
  0.858  0.858  0.858  0.983  0.983
    eigenvectors:
  0.000  0.000  0.000  0.750  0.250
  0.000  0.000  1.000  0.000  0.000
  0.428  0.572  0.000  0.000  0.000
  0.000  0.000  0.000  0.250  0.750
  0.572  0.428  0.000  0.000  0.000
    occupations:
  0.983  0.000  0.000  0.000  0.000
  0.000  0.858  0.000  0.000  0.000
  0.000  0.000  0.858  0.000  0.000
  0.000  0.000  0.000  0.983  0.000
  0.000  0.000  0.000  0.000  0.858
atom    7   Tr[ns(na)] =   9.07826
    eigenvalues: 
  0.858  0.858  0.858  0.983  0.983
    eigenvectors:
  0.000  0.000  0.000  0.000  1.000
  0.152  0.848  0.000  0.000  0.000
  0.848  0.152  0.000  0.000  0.000
  0.000  0.000  0.000  1.000  0.000
  0.000  0.000  1.000  0.000  0.000
    occupations:
  0.983  0.000  0.000  0.000  0.000
  0.000  0.858  0.000  0.000  0.000
  0.000  0.000  0.858  0.000  0.000
  0.000  0.000  0.000  0.983  0.000
  0.000  0.000  0.000  0.000  0.858
atom    8   Tr[ns(na)] =   9.07993
    eigenvalues: 
  0.858  0.858  0.858  0.983  0.983
    eigenvectors:
  0.000  0.000  0.000  0.026  0.974
  0.085  0.130  0.785  0.000  0.000
  0.423  0.365  0.212  0.000  0.000
  0.000  0.000  0.000  0.974  0.026
  0.492  0.505  0.003  0.000  0.000
    occupations:
  0.983  0.000  0.000  0.000  0.000
  0.000  0.858  0.000  0.000  0.000
  0.000  0.000  0.858  0.000  0.000
  0.000  0.000  0.000  0.983  0.000
  0.000  0.000  0.000  0.000  0.858
atom    9   Tr[ns(na)] =   5.83872
    eigenvalues: 
  0.973  0.973  0.973
    eigenvectors:
  0.044  0.622  0.333
  0.334  0.333  0.333
  0.622  0.045  0.333
    occupations:
  0.973  0.000  0.000
  0.000  0.973  0.000
  0.000  0.000  0.973
atom   10   Tr[ns(na)] =   5.83872
    eigenvalues: 
  0.973  0.973  0.973
    eigenvectors:
  0.581  0.086  0.333
  0.403  0.264  0.333
  0.016  0.651  0.333
    occupations:
  0.973  0.000  0.000
  0.000  0.973  0.000
  0.000  0.000  0.973
atom   11   Tr[ns(na)] =   5.83872
    eigenvalues: 
  0.973  0.973  0.973
    eigenvectors:
  0.430  0.237  0.333
  0.561  0.105  0.333
  0.009  0.658  0.333
    occupations:
  0.973  0.000  0.000
  0.000  0.973  0.000
  0.000  0.000  0.973
atom   12   Tr[ns(na)] =   5.83872
    eigenvalues: 
  0.973  0.973  0.973
    eigenvectors:
  0.427  0.240  0.333
  0.009  0.657  0.333
  0.564  0.103  0.333
    occupations:
  0.973  0.000  0.000
  0.000  0.973  0.000
  0.000  0.000  0.973
atom   13   Tr[ns(na)] =   5.83872
    eigenvalues: 
  0.973  0.973  0.973
    eigenvectors:
  0.500  0.167  0.333
  0.500  0.167  0.333
  0.000  0.667  0.333
    occupations:
  0.973  0.000  0.000
  0.000  0.973  0.000
  0.000  0.000  0.973
atom   14   Tr[ns(na)] =   5.83872
    eigenvalues: 
  0.973  0.973  0.973
    eigenvectors:
  0.394  0.272  0.333
  0.019  0.648  0.333
  0.587  0.080  0.333
    occupations:
  0.973  0.000  0.000
  0.000  0.973  0.000
  0.000  0.000  0.973
atom   15   Tr[ns(na)] =   5.83872
    eigenvalues: 
  0.973  0.973  0.973
    eigenvectors:
  0.567  0.100  0.333
  0.423  0.244  0.333
  0.011  0.656  0.333
    occupations:
  0.973  0.000  0.000
  0.000  0.973  0.000
  0.000  0.000  0.973
atom   16   Tr[ns(na)] =   5.83872
    eigenvalues: 
  0.973  0.973  0.973
    eigenvectors:
  0.085  0.582  0.333
  0.265  0.402  0.333
  0.650  0.017  0.333
    occupations:
  0.973  0.000  0.000
  0.000  0.973  0.000
  0.000  0.000  0.973
N of occupied +U levels = 119.3417363
 --- exit write_ns ---
 --- in v_hubbard ---
Hubbard energy    0.0000
 -------

     total cpu time spent up to now is       45.5 secs

     total energy              =    -936.60105783 Ry
     Harris-Foulkes estimate   =    -936.60108412 Ry
     estimated scf accuracy    <       0.00031382 Ry

     iteration #  7     ecut=    30.00 Ry     beta=0.30
     Davidson diagonalization with overlap
     ethr =  2.45E-07,  avg # of iterations =  1.1
 --- enter write_ns ---
 LDA+U parameters:
U( 1)     =  0.00000000
alpha( 1) =  0.00000000
U( 2)     =  0.00000000
alpha( 2) =  0.00000000
U( 3)     =  0.00000000
alpha( 3) =  0.00000000
U( 4)     =  0.00000000
alpha( 4) =  0.00000000
atom    1   Tr[ns(na)] =   9.07519
    eigenvalues: 
  0.857  0.857  0.857  0.983  0.983
    eigenvectors:
  0.000  0.000  0.000  0.027  0.973
  0.074  0.006  0.921  0.000  0.000
  0.420  0.565  0.015  0.000  0.000
  0.000  0.000  0.000  0.973  0.027
  0.506  0.429  0.064  0.000  0.000
    occupations:
  0.983  0.000  0.000  0.000  0.000
  0.000  0.857  0.000  0.000  0.000
  0.000  0.000  0.857  0.000  0.000
  0.000  0.000  0.000  0.983  0.000
  0.000  0.000  0.000  0.000  0.857
atom    2   Tr[ns(na)] =   9.07683
    eigenvalues: 
  0.858  0.858  0.858  0.983  0.983
    eigenvectors:
  0.000  0.000  0.000  1.000  0.000
  0.000  0.132  0.868  0.000  0.000
  0.000  0.868  0.132  0.000  0.000
  0.000  0.000  0.000  0.000  1.000
  1.000  0.000  0.000  0.000  0.000
    occupations:
  0.983  0.000  0.000  0.000  0.000
  0.000  0.858  0.000  0.000  0.000
  0.000  0.000  0.858  0.000  0.000
  0.000  0.000  0.000  0.983  0.000
  0.000  0.000  0.000  0.000  0.858
atom    3   Tr[ns(na)] =   9.07683
    eigenvalues: 
  0.858  0.858  0.858  0.983  0.983
    eigenvectors:
  0.000  0.000  0.000  0.250  0.750
  1.000  0.000  0.000  0.000  0.000
  0.000  0.465  0.535  0.000  0.000
  0.000  0.000  0.000  0.750  0.250
  0.000  0.535  0.465  0.000  0.000
    occupations:
  0.983  0.000  0.000  0.000  0.000
  0.000  0.858  0.000  0.000  0.000
  0.000  0.000  0.858  0.000  0.000
  0.000  0.000  0.000  0.983  0.000
  0.000  0.000  0.000  0.000  0.858
atom    4   Tr[ns(na)] =   9.07683
    eigenvalues: 
  0.858  0.858  0.858  0.983  0.983
    eigenvectors:
  0.000  0.000  0.000  0.250  0.750
  0.000  0.103  0.897  0.000  0.000
  1.000  0.000  0.000  0.000  0.000
  0.000  0.000  0.000  0.750  0.250
  0.000  0.897  0.103  0.000  0.000
    occupations:
  0.983  0.000  0.000  0.000  0.000
  0.000  0.858  0.000  0.000  0.000
  0.000  0.000  0.858  0.000  0.000
  0.000  0.000  0.000  0.983  0.000
  0.000  0.000  0.000  0.000  0.858
atom    5   Tr[ns(na)] =   9.08162
    eigenvalues: 
  0.858  0.858  0.858  0.983  0.983
    eigenvectors:
  0.000  0.000  0.000  0.250  0.750
  0.094  0.906  0.000  0.000  0.000
  0.000  0.000  1.000  0.000  0.000
  0.000  0.000  0.000  0.750  0.250
[...]
  0.010  0.657  0.333
    occupations:
  0.973  0.000  0.000
  0.000  0.973  0.000
  0.000  0.000  0.973
atom   14   Tr[ns(na)] =   5.83934
    eigenvalues: 
  0.973  0.973  0.973
    eigenvectors:
  0.386  0.281  0.333
  0.022  0.645  0.333
  0.592  0.075  0.333
    occupations:
  0.973  0.000  0.000
  0.000  0.973  0.000
  0.000  0.000  0.973
atom   15   Tr[ns(na)] =   5.83934
    eigenvalues: 
  0.973  0.973  0.973
    eigenvectors:
  0.550  0.117  0.333
  0.445  0.222  0.333
  0.006  0.661  0.333
    occupations:
  0.973  0.000  0.000
  0.000  0.973  0.000
  0.000  0.000  0.973
atom   16   Tr[ns(na)] =   5.83934
    eigenvalues: 
  0.973  0.973  0.973
    eigenvectors:
  0.063  0.604  0.333
  0.300  0.366  0.333
  0.637  0.030  0.333
    occupations:
  0.973  0.000  0.000
  0.000  0.973  0.000
  0.000  0.000  0.973
N of occupied +U levels = 119.3375424
 --- exit write_ns ---
 --- in v_hubbard ---
Hubbard energy    0.1000
 -------

     total cpu time spent up to now is       58.6 secs

     End of self-consistent calculation

          k = 0.0000 0.0000 0.0000 (  1357 PWs)   bands (ev):

     0.7757   4.5613   4.5613   4.5613   5.6715   5.6715   5.6715   9.6197
    13.0841  13.1053  13.1053  14.8349  14.8349  14.8349  17.1236  17.1236
    17.1236  17.1267  17.1267  17.1267  21.2347  21.2347  21.2347  21.2450
    21.2450  21.2450  21.8037  21.8037  22.9434  22.9632  22.9632  23.1263
    23.1503  23.1503  23.9459  23.9459  23.9459  25.7706  25.7729  25.7729
    25.9078  25.9078  25.9078  25.9181  25.9181  25.9181  27.6873  27.6873
    27.6873  27.7545  27.7545  27.7545  27.9487  27.9487  27.9487  28.9133
    28.9178  28.9178  29.2949  29.2949  29.2985  29.4093  29.4093  31.2070
    31.2070  31.2070  31.2078  31.2078  31.2078  31.7650  31.7650  31.7650
    38.6502  38.6548  38.6548  38.6548  40.6893

     occupation numbers 
     0.0313   0.0313   0.0313   0.0313   0.0313   0.0313   0.0313   0.0313
     0.0313   0.0313   0.0313   0.0313   0.0313   0.0313   0.0313   0.0313
     0.0313   0.0313   0.0313   0.0313   0.0313   0.0313   0.0313   0.0313
     0.0313   0.0313   0.0313   0.0313   0.0313   0.0313   0.0313   0.0313
     0.0313   0.0313   0.0313   0.0313   0.0313   0.0313   0.0313   0.0313
     0.0313   0.0313   0.0313   0.0313   0.0313   0.0313   0.0313   0.0313
     0.0313   0.0313   0.0313   0.0313   0.0313   0.0313   0.0313   0.0313
     0.0313   0.0313   0.0312   0.0312   0.0312   0.0312   0.0312   0.0000
     0.0000   0.0000   0.0000   0.0000   0.0000   0.0000   0.0000   0.0000
     0.0000   0.0000   0.0000   0.0000   0.0000

          k = 0.0000 0.0000 0.2500 (  1346 PWs)   bands (ev):

     1.1767   3.7478   4.7010   4.7010   5.4811   5.4811   6.0294   8.5897
    13.5443  13.5583  14.4384  15.1111  15.1111  16.3036  16.3104  16.4695
    16.7079  16.7079  17.7021  17.7021  20.3398  20.5989  20.5989  21.5302
    21.5302  21.5607  21.5705  21.9597  22.7743  23.2134  23.2232  23.2744
    23.3535  23.3535  23.5164  23.5267  23.8471  23.9926  23.9990  24.6670
    26.1819  26.1819  26.6130  26.6130  27.6167  27.6167  27.7253  27.8065
    27.8091  27.9100  28.0730  28.1101  28.1101  28.1567  28.3617  28.3617
    28.8464  28.8491  29.0352  29.0368  29.3125  29.3927  29.4150  30.4519
    30.4519  30.4995  30.4995  30.7601  30.7601  30.7738  30.7742  31.5553
    39.2461  39.3997  40.4053  40.4053  40.5601

     occupation numbers 
     0.1875   0.1875   0.1875   0.1875   0.1875   0.1875   0.1875   0.1875
     0.1875   0.1875   0.1875   0.1875   0.1875   0.1875   0.1875   0.1875
     0.1875   0.1875   0.1875   0.1875   0.1875   0.1875   0.1875   0.1875
     0.1875   0.1875   0.1875   0.1875   0.1875   0.1875   0.1875   0.1875
     0.1875   0.1875   0.1875   0.1875   0.1875   0.1875   0.1875   0.1875
     0.1875   0.1875   0.1875   0.1875   0.1875   0.1875   0.1875   0.1875
     0.1875   0.1875   0.1875   0.1875   0.1875   0.1875   0.1875   0.1875
     0.1875   0.1875   0.1875   0.1875   0.1875   0.1874   0.1874   0.0000
     0.0000   0.0000   0.0000   0.0000   0.0000   0.0000   0.0000   0.0000
     0.0000   0.0000   0.0000   0.0000   0.0000

          k = 0.0000 0.0000-0.5000 (  1406 PWs)   bands (ev):

     2.2880   2.2889   5.0581   5.0581   5.0739   5.0739   7.0572   7.0745
    14.7679  14.7687  14.7713  14.7886  15.8354  15.8354  15.8508  15.8508
    17.3426  17.3578  19.1137  19.1137  19.1222  19.1222  19.7075  19.7217
    22.3178  22.3178  22.3235  22.3235  22.3388  22.3678  22.5082  22.5095
    22.5097  22.5253  23.6526  23.6535  23.6741  23.6761  25.7579  25.7675
    26.2675  26.2784  26.8666  26.8666  26.8697  26.8697  27.8162  27.8179
    28.3519  28.3519  28.3572  28.3572  28.7746  28.7761  28.7767  28.7776
    29.1053  29.1053  29.1121  29.1121  29.3489  29.3560  29.5560  29.5566
    29.5566  29.5574  29.6399  29.6399  29.6409  29.6409  30.8342  30.8383
    40.0938  40.1011  40.8006  40.8064  42.8950

     occupation numbers 
     0.0938   0.0938   0.0938   0.0938   0.0938   0.0938   0.0938   0.0938
     0.0938   0.0938   0.0938   0.0938   0.0938   0.0938   0.0938   0.0938
     0.0938   0.0938   0.0938   0.0938   0.0938   0.0938   0.0938   0.0938
     0.0938   0.0938   0.0938   0.0938   0.0938   0.0938   0.0938   0.0938
     0.0938   0.0938   0.0938   0.0938   0.0938   0.0938   0.0938   0.0938
     0.0938   0.0938   0.0938   0.0938   0.0938   0.0938   0.0938   0.0938
     0.0938   0.0938   0.0938   0.0938   0.0938   0.0938   0.0938   0.0938
     0.0937   0.0937   0.0937   0.0937   0.0937   0.0937   0.0896   0.0896
     0.0896   0.0895   0.0749   0.0749   0.0746   0.0746   0.0000   0.0000
     0.0000   0.0000   0.0000   0.0000   0.0000

          k = 0.0000 0.2500 0.2500 (  1364 PWs)   bands (ev):

     1.5583   3.9622   3.9655   4.8659   5.1769   5.7929   5.8008   7.8964
    13.9451  14.7934  14.8024  15.2923  15.5499  16.1452  16.1512  16.6074
    17.2679  17.2730  17.5108  17.5657  19.9773  20.3722  20.5692  20.6435
    20.6503  21.8029  21.8054  21.8654  23.0684  23.0695  23.0755  23.1968
    23.2118  23.2922  23.5276  23.5329  23.7523  24.0631  24.0765  25.3917
    26.1640  26.5473  26.5541  26.6771  26.6902  27.1891  27.4192  27.5218
    27.5235  27.7512  28.0956  28.0998  28.2664  28.3282  28.5036  28.6053
    28.6921  28.9523  29.0081  29.0515  29.1457  29.1468  29.4375  29.9639
    29.9666  30.0818  30.0836  30.1612  30.5330  30.5335  31.2493  31.6663
    40.1290  40.3083  41.1535  41.1577  41.2070

     occupation numbers 
     0.3750   0.3750   0.3750   0.3750   0.3750   0.3750   0.3750   0.3750
     0.3750   0.3750   0.3750   0.3750   0.3750   0.3750   0.3750   0.3750
     0.3750   0.3750   0.3750   0.3750   0.3750   0.3750   0.3750   0.3750
     0.3750   0.3750   0.3750   0.3750   0.3750   0.3750   0.3750   0.3750
     0.3750   0.3750   0.3750   0.3750   0.3750   0.3750   0.3750   0.3750
     0.3750   0.3750   0.3750   0.3750   0.3750   0.3750   0.3750   0.3750
     0.3750   0.3750   0.3750   0.3750   0.3750   0.3750   0.3750   0.3750
     0.3750   0.3750   0.3750   0.3750   0.3750   0.3750   0.3744   0.0021
     0.0020   0.0000   0.0000   0.0000   0.0000   0.0000   0.0000   0.0000
     0.0000   0.0000   0.0000   0.0000   0.0000

          k = 0.0000 0.2500-0.5000 (  1370 PWs)   bands (ev):

     2.6058   2.6101   4.5215   4.5354   5.2927   5.3045   6.6835   6.6942
    14.9677  14.9721  15.7234  15.7314  15.7400  15.7417  16.3711  16.3795
    17.5590  17.5704  18.6118  18.6157  18.8879  18.8909  20.2487  20.2569
    20.6300  20.6358  22.4110  22.4156  22.4811  22.4830  22.5624  22.5675
    23.2621  23.2798  23.7601  23.7806  24.1022  24.1207  25.7009  25.7098
    26.5714  26.5740  26.5773  26.5862  26.7228  26.7249  27.3614  27.3619
    27.3820  27.3862  27.4839  27.4864  27.7350  27.7379  28.2284  28.2300
    28.9897  28.9958  29.0228  29.0241  29.2252  29.2264  29.5125  29.5178
    29.7798  29.7799  29.8842  29.8845  30.8656  30.8673  31.2060  31.2078
    40.9439  40.9501  41.4135  41.4195  42.5709

     occupation numbers 
     0.3750   0.3750   0.3750   0.3750   0.3750   0.3750   0.3750   0.3750
     0.3750   0.3750   0.3750   0.3750   0.3750   0.3750   0.3750   0.3750
     0.3750   0.3750   0.3750   0.3750   0.3750   0.3750   0.3750   0.3750
     0.3750   0.3750   0.3750   0.3750   0.3750   0.3750   0.3750   0.3750
     0.3750   0.3750   0.3750   0.3750   0.3750   0.3750   0.3750   0.3750
     0.3750   0.3750   0.3750   0.3750   0.3750   0.3750   0.3750   0.3750
     0.3750   0.3750   0.3750   0.3750   0.3750   0.3750   0.3750   0.3750
     0.3750   0.3750   0.3750   0.3750   0.3750   0.3750   0.3692   0.3684
     0.1006   0.1005   0.0166   0.0165   0.0000   0.0000   0.0000   0.0000
     0.0000   0.0000   0.0000   0.0000   0.0000

          k = 0.0000-0.5000-0.5000 (  1356 PWs)   bands (ev):

     3.4640   3.4654   3.4654   3.4838   5.9163   5.9196   5.9344   5.9344
    15.3855  15.3855  15.3924  15.4002  17.5032  17.5047  17.5217  17.5217
    17.6723  17.6723  17.6813  17.6824  18.6340  18.6340  18.6376  18.6554
    21.5803  21.5808  21.5837  21.5837  22.5616  22.5627  22.5687  22.5687
    23.7797  23.7797  23.7837  23.8210  25.2262  25.2262  25.2297  25.2539
    26.3061  26.3061  26.3112  26.3174  26.7796  26.7803  26.7853  26.7853
    26.9502  26.9517  26.9651  26.9651  27.2388  27.2388  27.2415  27.2536
    28.8618  28.8618  28.8635  28.8728  29.3828  29.3859  29.3859  29.3890
    30.0221  30.0221  30.0224  30.0227  31.4376  31.4380  31.4387  31.4387
    42.1913  42.2035  42.2041  42.2055  42.3849

     occupation numbers 
     0.0938   0.0938   0.0938   0.0938   0.0938   0.0938   0.0938   0.0938
     0.0938   0.0938   0.0938   0.0938   0.0938   0.0938   0.0938   0.0938
     0.0938   0.0938   0.0938   0.0938   0.0938   0.0938   0.0938   0.0938
     0.0938   0.0938   0.0938   0.0938   0.0938   0.0938   0.0938   0.0938
     0.0938   0.0938   0.0938   0.0938   0.0938   0.0938   0.0938   0.0938
     0.0938   0.0938   0.0938   0.0938   0.0938   0.0938   0.0938   0.0938
     0.0938   0.0938   0.0938   0.0938   0.0938   0.0938   0.0938   0.0938
     0.0938   0.0938   0.0938   0.0938   0.0937   0.0937   0.0937   0.0937
     0.0001   0.0001   0.0001   0.0001   0.0000   0.0000   0.0000   0.0000
     0.0000   0.0000   0.0000   0.0000   0.0000

          k = 0.2500 0.2500 0.2500 (  1382 PWs)   bands (ev):

     1.9210   4.1865   4.1865   4.1884   5.4607   5.4704   5.4704   7.3269
    15.1186  15.1317  15.1317  15.7975  15.7975  16.5839  16.5839  16.5899
    17.1706  17.1736  17.1736  18.2531  20.0966  20.1058  20.1058  20.3818
    20.3818  21.3505  21.7883  21.7889  21.7889  22.5994  22.5994  22.6058
    23.5536  23.5709  23.5709  24.3006  24.3166  24.3166  24.6744  24.6744
    26.5103  26.5158  26.5158  26.9608  26.9608  26.9630  27.0007  27.0103
    27.0103  27.6151  27.6151  28.0054  28.3174  28.3174  28.3464  28.3476
    28.3476  28.9225  28.9225  28.9229  28.9867  29.1761  29.1763  29.1763
    30.1591  30.1591  30.1612  30.8182  30.8182  30.8184  30.9513  30.9513
    40.6891  40.7546  41.5394  41.5459  41.5459

     occupation numbers 
     0.2500   0.2500   0.2500   0.2500   0.2500   0.2500   0.2500   0.2500
     0.2500   0.2500   0.2500   0.2500   0.2500   0.2500   0.2500   0.2500
     0.2500   0.2500   0.2500   0.2500   0.2500   0.2500   0.2500   0.2500
     0.2500   0.2500   0.2500   0.2500   0.2500   0.2500   0.2500   0.2500
     0.2500   0.2500   0.2500   0.2500   0.2500   0.2500   0.2500   0.2500
     0.2500   0.2500   0.2500   0.2500   0.2500   0.2500   0.2500   0.2500
     0.2500   0.2500   0.2500   0.2500   0.2500   0.2500   0.2500   0.2500
     0.2500   0.2500   0.2500   0.2500   0.2500   0.2500   0.2500   0.2500
     0.0000   0.0000   0.0000   0.0000   0.0000   0.0000   0.0000   0.0000
     0.0000   0.0000   0.0000   0.0000   0.0000

          k = 0.2500 0.2500-0.5000 (  1378 PWs)   bands (ev):

     2.9136   2.9197   4.7697   4.7730   4.7777   4.7868   6.2714   6.2774
    15.9371  15.9399  15.9436  15.9522  16.3723  16.3746  16.4358  16.4485
    17.7849  17.7942  18.5676  18.5730  18.5758  18.5796  20.3129  20.3160
    20.3249  20.3303  21.4887  21.4890  22.0702  22.0712  22.0724  22.0752
    23.8593  23.8727  24.1877  24.1881  24.2048  24.2062  25.6953  25.7035
    26.0417  26.0500  26.4203  26.4213  26.4245  26.4253  27.0728  27.0748
    27.1756  27.1779  27.8636  27.8646  27.8676  27.8728  27.8910  27.8911
    28.7001  28.7002  28.7010  28.7012  29.1739  29.1756  29.7085  29.7094
    29.7099  29.7137  30.5980  30.5986  30.5996  30.5997  31.0315  31.0328
    41.2884  41.2947  41.7923  41.7989  42.4645

     occupation numbers 
     0.3750   0.3750   0.3750   0.3750   0.3750   0.3750   0.3750   0.3750
     0.3750   0.3750   0.3750   0.3750   0.3750   0.3750   0.3750   0.3750
     0.3750   0.3750   0.3750   0.3750   0.3750   0.3750   0.3750   0.3750
     0.3750   0.3750   0.3750   0.3750   0.3750   0.3750   0.3750   0.3750
     0.3750   0.3750   0.3750   0.3750   0.3750   0.3750   0.3750   0.3750
     0.3750   0.3750   0.3750   0.3750   0.3750   0.3750   0.3750   0.3750
     0.3750   0.3750   0.3750   0.3750   0.3750   0.3750   0.3750   0.3750
     0.3750   0.3750   0.3750   0.3750   0.3750   0.3750   0.2059   0.2045
     0.2037   0.1978   0.0000   0.0000   0.0000   0.0000   0.0000   0.0000
     0.0000   0.0000   0.0000   0.0000   0.0000

          k = 0.2500-0.5000-0.5000 (  1360 PWs)   bands (ev):

     3.7433   3.7481   3.7481   3.7612   5.4397   5.4459   5.4555   5.4555
    16.3001  16.3001  16.3052  16.3120  17.6772  17.6777  17.6912  17.6912
    18.0045  18.0045  18.0120  18.0136  18.4831  18.4831  18.4836  18.4978
    20.9333  20.9361  20.9365  20.9365  21.4711  21.4715  21.4753  21.4753
    24.2831  24.2831  24.2870  24.3164  25.2379  25.2379  25.2407  25.2633
    25.9432  25.9448  25.9448  25.9549  26.3392  26.3392  26.3463  26.3471
    27.0150  27.0179  27.0261  27.0261  28.4017  28.4021  28.4021  28.4041
    28.4673  28.4682  28.4682  28.4742  29.4218  29.4232  29.4232  29.4252
    30.0528  30.0528  30.0536  30.0540  30.9627  30.9632  30.9639  30.9639
    41.9748  41.9883  41.9883  41.9897  42.1864

     occupation numbers 
     0.1875   0.1875   0.1875   0.1875   0.1875   0.1875   0.1875   0.1875
     0.1875   0.1875   0.1875   0.1875   0.1875   0.1875   0.1875   0.1875
     0.1875   0.1875   0.1875   0.1875   0.1875   0.1875   0.1875   0.1875
     0.1875   0.1875   0.1875   0.1875   0.1875   0.1875   0.1875   0.1875
     0.1875   0.1875   0.1875   0.1875   0.1875   0.1875   0.1875   0.1875
     0.1875   0.1875   0.1875   0.1875   0.1875   0.1875   0.1875   0.1875
     0.1875   0.1875   0.1875   0.1875   0.1875   0.1875   0.1875   0.1875
     0.1875   0.1875   0.1875   0.1875   0.1873   0.1873   0.1873   0.1873
     0.0001   0.0001   0.0000   0.0000   0.0000   0.0000   0.0000   0.0000
     0.0000   0.0000   0.0000   0.0000   0.0000

          k =-0.5000-0.5000-0.5000 (  1376 PWs)   bands (ev):

     4.5002   4.5028   4.5028   4.5028   4.5058   4.5221   4.5221   4.5221
    18.0863  18.0863  18.0863  18.0878  18.0878  18.0878  18.0897  18.0897
    18.0897  18.0898  18.0898  18.1051  18.1051  18.1123  18.1123  18.1123
    20.0643  20.0690  20.0704  20.0704  20.0704  20.0713  20.0713  20.0713
    25.3936  25.3936  25.3936  25.3951  25.3951  25.3951  25.3963  25.3963
    25.3963  25.3988  25.3988  25.4009  25.4009  25.4009  25.4376  25.4376
    27.6657  27.6671  27.6673  27.6673  27.6673  27.6782  27.6782  27.6782
    29.8093  29.8093  29.8093  29.8100  29.8100  29.8100  29.8101  29.8101
    29.8101  29.8104  29.8104  29.8107  29.8107  29.8118  29.8118  29.8118
    41.9542  41.9758  41.9758  41.9758  41.9802

     occupation numbers 
     0.0313   0.0313   0.0313   0.0313   0.0313   0.0313   0.0313   0.0313
     0.0313   0.0313   0.0313   0.0313   0.0313   0.0313   0.0313   0.0313
     0.0313   0.0313   0.0313   0.0313   0.0313   0.0313   0.0313   0.0313
     0.0313   0.0313   0.0313   0.0313   0.0313   0.0313   0.0313   0.0313
     0.0313   0.0313   0.0313   0.0313   0.0313   0.0313   0.0313   0.0313
     0.0313   0.0313   0.0313   0.0313   0.0313   0.0313   0.0313   0.0313
     0.0313   0.0313   0.0313   0.0313   0.0313   0.0313   0.0313   0.0313
     0.0055   0.0055   0.0055   0.0055   0.0055   0.0055   0.0055   0.0055
     0.0055   0.0055   0.0055   0.0054   0.0054   0.0053   0.0053   0.0053
     0.0000   0.0000   0.0000   0.0000   0.0000

     the Fermi energy is    29.7203 ev

!    total energy              =    -936.50106046 Ry
     Harris-Foulkes estimate   =    -936.50106042 Ry
     estimated scf accuracy    <          5.8E-09 Ry

     The total energy is the sum of the following terms:

     one-electron contribution =     252.30088564 Ry
     hartree contribution      =      94.78361175 Ry
     xc contribution           =    -307.26208853 Ry
     ewald contribution        =    -976.41473137 Ry
     Hubbard energy            =       0.09997693 Ry
     smearing contrib. (-TS)   =      -0.00871489 Ry

     convergence has been achieved in   9 iterations

     init_run     :      3.15s CPU      3.41s WALL (       1 calls)
     electrons    :     53.67s CPU     54.58s WALL (       1 calls)

     Called by init_run:
     wfcinit      :      0.23s CPU      0.30s WALL (       1 calls)
     potinit      :      0.07s CPU      0.08s WALL (       1 calls)

     Called by electrons:
     c_bands      :     39.79s CPU     40.17s WALL (       9 calls)
     sum_band     :      8.12s CPU      8.19s WALL (       9 calls)
     v_of_rho     :      0.54s CPU      0.54s WALL (      10 calls)
     v_h          :      0.03s CPU      0.03s WALL (      10 calls)
     v_xc         :      0.51s CPU      0.51s WALL (      10 calls)
     newd         :      5.63s CPU      5.74s WALL (      10 calls)
     mix_rho      :      0.05s CPU      0.05s WALL (       9 calls)

     Called by c_bands:
     init_us_2    :      0.25s CPU      0.25s WALL (     190 calls)
     cegterg      :     38.87s CPU     39.22s WALL (      90 calls)

     Called by sum_band:
     sum_band:bec :      0.21s CPU      0.20s WALL (      90 calls)
     addusdens    :      4.09s CPU      4.10s WALL (       9 calls)

     Called by *egterg:
     h_psi        :     16.05s CPU     16.28s WALL (     367 calls)
     s_psi        :      1.99s CPU      2.00s WALL (     377 calls)
     g_psi        :      0.10s CPU      0.10s WALL (     277 calls)
     cdiaghg      :     14.82s CPU     14.86s WALL (     357 calls)
     cegterg:over :      2.29s CPU      2.34s WALL (     277 calls)
     cegterg:upda :      1.13s CPU      1.13s WALL (     277 calls)
     cegterg:last :      0.81s CPU      0.82s WALL (      98 calls)

     Called by h_psi:
     h_psi:vloc   :     10.01s CPU     10.14s WALL (     367 calls)
     h_psi:vnl    :      3.96s CPU      4.00s WALL (     367 calls)
     add_vuspsi   :      1.90s CPU      1.91s WALL (     367 calls)
     vhpsi        :      2.05s CPU      2.10s WALL (     367 calls)

     General routines
     calbec       :      4.42s CPU      4.52s WALL (     924 calls)
     fft          :      0.45s CPU      0.46s WALL (     155 calls)
     ffts         :      0.01s CPU      0.01s WALL (      19 calls)
     fftw         :     10.59s CPU     10.78s WALL (   39642 calls)
     interpolate  :      0.06s CPU      0.06s WALL (      19 calls)
     davcio       :      0.00s CPU      0.12s WALL (     210 calls)

     Parallel routines
     fft_scatter  :      3.19s CPU      3.48s WALL (   39816 calls)
     Hubbard U routines
     new_ns       :      0.41s CPU      0.44s WALL (       9 calls)
     vhpsi        :      2.05s CPU      2.10s WALL (     367 calls)

     PWSCF        :    57.35s CPU        58.61s WALL


   This run was terminated on:  14: 6:50   3Nov2012            

=------------------------------------------------------------------------------=
   JOB DONE.
=------------------------------------------------------------------------------=
 
Job Ended on n18 at Sat Nov  3 14:06:51 EDT 2012
 
