   JOB DONE.
=------------------------------------------------------------------------------=

     Program PWSCF v.5.0.1 starts on 11Nov2012 at 14:40:18 

     This program is part of the open-source Quantum ESPRESSO suite
     for quantum simulation of materials; please cite
         "P. Giannozzi et al., J. Phys.:Condens. Matter 21 395502 (2009);
          URL http://www.quantum-espresso.org", 
     in publications or presentations arising from this work. More details at
     http://www.quantum-espresso.org/quote.php

     Parallel version (MPI), running on     2 processors
     R & G space division:  proc/pool =    2

     Current dimensions of program PWSCF are:
     Max number of different atomic species (ntypx) = 10
     Max number of k-points (npk) =  40000
     Max angular momentum in pseudopotentials (lmaxx) =  3
     Reading input from CoLaO_U100_a-10.in
               file Co.pbe-nd-rrkjus.UPF: wavefunction(s)  4S 3D renormalized
               file Co.pbe-nd-rrkjus.UPF: wavefunction(s)  4S 3D renormalized
               file O.pbe-rrkjus.UPF: wavefunction(s)  2S renormalized

     Subspace diagonalization in iterative solution of the eigenvalue problem:
     a serial algorithm will be used


     Parallelization info
     --------------------
     sticks:   dense  smooth     PW     G-vecs:    dense   smooth      PW
     Min        1112     444    131                34808     8786    1448
     Max        1113     445    132                34809     8787    1449
     Sum        2225     889    263                69617    17573    2897


     Title: 
     GGA + U, U = 1.000, alpha = -0.100                                         


     bravais-lattice index     =            5
     lattice parameter (alat)  =      10.3292  a.u.
     unit-cell volume          =     793.0599 (a.u.)^3
     number of atoms/cell      =           10
     number of atomic types    =            4
     number of electrons       =        76.00
     number of Kohn-Sham states=           46
     kinetic-energy cutoff     =      30.0000  Ry
     charge density cutoff     =     300.0000  Ry
     convergence threshold     =      1.0E-08
     mixing beta               =       0.2000
     number of iterations used =            8  plain     mixing
     Exchange-correlation      =  SLA  PW   PBE  PBE ( 1 4 3 4 0)
     EXX-fraction              =        0.00

     celldm(1)=  10.329242  celldm(2)=   0.000000  celldm(3)=   0.000000
     celldm(4)=   0.488100  celldm(5)=   0.000000  celldm(6)=   0.000000

     crystal axes: (cart. coord. in units of alat)
               a(1) = (   0.505915  -0.292090   0.811624 )  
               a(2) = (   0.000000   0.584180   0.811624 )  
               a(3) = (  -0.505915  -0.292090   0.811624 )  

     reciprocal axes: (cart. coord. in units 2 pi/alat)
               b(1) = (  0.988308 -0.570600  0.410699 )  
               b(2) = (  0.000000  1.141200  0.410699 )  
               b(3) = ( -0.988308 -0.570600  0.410699 )  


     PseudoPot. # 1 for Co read from file:
     /home/mcurnan/dft-course/Project1/example_LaCoO3/Co.pbe-nd-rrkjus.UPF
     MD5 check sum: 3e47a84addf5e975e0edeaeee2a73f59
     Pseudo is Ultrasoft + core correction, Zval =  9.0
     Generated by new atomic code, or converted to UPF format
     Using radial grid of  961 points,  6 beta functions with: 
                l(1) =   0
                l(2) =   0
                l(3) =   1
                l(4) =   1
                l(5) =   2
                l(6) =   2
     Q(r) pseudized with 0 coefficients 


     PseudoPot. # 2 for Co read from file:
     /home/mcurnan/dft-course/Project1/example_LaCoO3/Co.pbe-nd-rrkjus.UPF
     MD5 check sum: 3e47a84addf5e975e0edeaeee2a73f59
     Pseudo is Ultrasoft + core correction, Zval =  9.0
     Generated by new atomic code, or converted to UPF format
     Using radial grid of  961 points,  6 beta functions with: 
                l(1) =   0
                l(2) =   0
                l(3) =   1
                l(4) =   1
                l(5) =   2
                l(6) =   2
     Q(r) pseudized with 0 coefficients 


     PseudoPot. # 3 for La read from file:
     /home/mcurnan/dft-course/Project1/example_LaCoO3/La.pbe-nsp-van.UPF
     MD5 check sum: b2f11743f52dde65f77d1302becd7929
     Pseudo is Ultrasoft + core correction, Zval = 11.0
     Generated by new atomic code, or converted to UPF format
     Using radial grid of  907 points,  6 beta functions with: 
                l(1) =   0
                l(2) =   0
                l(3) =   1
                l(4) =   1
                l(5) =   2
                l(6) =   2
     Q(r) pseudized with  6 coefficients,  rinner =    1.200   1.200   1.200
                                                       1.200   1.200

     PseudoPot. # 4 for O  read from file:
     /home/mcurnan/dft-course/Project1/example_LaCoO3/O.pbe-rrkjus.UPF
     MD5 check sum: 390ba29e75625707450f3bd3f0eb6be9
     Pseudo is Ultrasoft, Zval =  6.0
     Generated by new atomic code, or converted to UPF format
     Using radial grid of 1269 points,  4 beta functions with: 
                l(1) =   0
                l(2) =   0
                l(3) =   1
                l(4) =   1
     Q(r) pseudized with 0 coefficients 


     atomic species   valence    mass     pseudopotential
        Co1            9.00     1.00000     Co( 1.00)
        Co2            9.00     1.00000     Co( 1.00)
        La1           11.00     1.00000     La( 1.00)
        O1             6.00     1.00000     O ( 1.00)
 -----
     simplified LDA+U calculation, Hubbard_lmax = 2
     atomic species  L   Hubbard U  Hubbard alpha
        Co1          2    1.000000   -0.100000
        Co2          2    1.000000    0.000000
        La1          2    0.000000    0.000000
        O1           1    0.000000    0.000000
 -----

      6 Sym. Ops., with inversion, found


                                    s                        frac. trans.

      isym =  1     identity                                     

 cryst.   s( 1) = (     1          0          0      )
                  (     0          1          0      )
                  (     0          0          1      )

 cart.    s( 1) = (  1.0000000  0.0000000  0.0000000 )
                  (  0.0000000  1.0000000  0.0000000 )
                  (  0.0000000  0.0000000  1.0000000 )


      isym =  2     120 deg rotation - cryst. axis [0,0,1]       

 cryst.   s( 2) = (     0          1          0      )
                  (     0          0          1      )
                  (     1          0          0      )

 cart.    s( 2) = ( -0.5000000 -0.8660254  0.0000000 )
                  (  0.8660254 -0.5000000  0.0000000 )
                  (  0.0000000  0.0000000  1.0000000 )


      isym =  3     120 deg rotation - cryst. axis [0,0,-1]      

 cryst.   s( 3) = (     0          0          1      )
                  (     1          0          0      )
                  (     0          1          0      )

 cart.    s( 3) = ( -0.5000000  0.8660254  0.0000000 )
                  ( -0.8660254 -0.5000000  0.0000000 )
                  (  0.0000000  0.0000000  1.0000000 )


      isym =  4     inversion                                    

 cryst.   s( 4) = (    -1          0          0      )
                  (     0         -1          0      )
                  (     0          0         -1      )

 cart.    s( 4) = ( -1.0000000  0.0000000  0.0000000 )
                  (  0.0000000 -1.0000000  0.0000000 )
                  (  0.0000000  0.0000000 -1.0000000 )


      isym =  5     inv. 180 deg rotation - cart. axis [0,1,0]   

 cryst.   s( 5) = (     0         -1          0      )
                  (     0          0         -1      )
                  (    -1          0          0      )

 cart.    s( 5) = (  0.5000000  0.8660254  0.0000000 )
                  ( -0.8660254  0.5000000  0.0000000 )
                  (  0.0000000  0.0000000 -1.0000000 )


      isym =  6     inv. 180 deg rotation - cart. axis [1,0,0]   

 cryst.   s( 6) = (     0          0         -1      )
                  (    -1          0          0      )
                  (     0         -1          0      )

 cart.    s( 6) = (  0.5000000 -0.8660254  0.0000000 )
                  (  0.8660254  0.5000000  0.0000000 )
                  (  0.0000000  0.0000000 -1.0000000 )


     point group S_6 (-3)   
     there are  6 classes
     the character table:

       E     C3    C3^2  i     S6^5  S6   
A_g    1.00  1.00  1.00  1.00  1.00  1.00
E_g    1.00 -0.50 -0.50  1.00 -0.50 -0.50
E_g*   1.00 -0.50 -0.50  1.00 -0.50 -0.50
A_u    1.00  1.00  1.00 -1.00 -1.00 -1.00
E_u    1.00 -0.50 -0.50 -1.00  0.50  0.50
E_u*   1.00 -0.50 -0.50 -1.00  0.50  0.50
     imaginary part
A_g    0.00  0.00  0.00  0.00  0.00  0.00
E_g    0.00  0.87 -0.87  0.00  0.87 -0.87
E_g*   0.00 -0.87  0.87  0.00 -0.87  0.87
A_u    0.00  0.00  0.00  0.00  0.00  0.00
E_u    0.00  0.87 -0.87  0.00 -0.87  0.87
E_u*   0.00 -0.87  0.87  0.00  0.87 -0.87

     the symmetry operations in each class:
     E        1
     C3       2
     C3^2     3
     i        4
     S6^5     5
     S6       6

   Cartesian axes

     site n.     atom                  positions (alat units)
         1           Co1 tau(   1) = (   0.0000000   0.0000000   0.0000000  )
         2           Co2 tau(   2) = (   0.0000000   0.0000000   1.2174358  )
         3           La1 tau(   3) = (   0.0000000   0.0000000   0.6087179  )
         4           La1 tau(   4) = (   0.0000000   0.0000000   1.8261537  )
         5           O1  tau(   5) = (  -0.2839701  -0.0933228   1.0141240  )
         6           O1  tau(   6) = (   0.0611651   0.2925867   1.0141240  )
         7           O1  tau(   7) = (   0.2228050  -0.1992639   1.0141240  )
         8           O1  tau(   8) = (  -0.0611651  -0.2925867   1.4207476  )
         9           O1  tau(   9) = (   0.2839701   0.0933228   1.4207476  )
        10           O1  tau(  10) = (  -0.2228050   0.1992639   1.4207476  )

   Crystallographic axes

     site n.     atom                  positions (cryst. coord.)
         1           Co1 tau(   1) = (  0.0000000  0.0000000  0.0000000  )
         2           Co2 tau(   2) = (  0.5000000  0.5000000  0.5000000  )
         3           La1 tau(   3) = (  0.2500000  0.2500000  0.2500000  )
         4           La1 tau(   4) = (  0.7500000  0.7500000  0.7500000  )
         5           O1  tau(   5) = (  0.1891000  0.3100000  0.7504000  )
         6           O1  tau(   6) = (  0.3100000  0.7504000  0.1891000  )
         7           O1  tau(   7) = (  0.7504000  0.1891000  0.3100000  )
         8           O1  tau(   8) = (  0.6900000  0.2496000  0.8109000  )
         9           O1  tau(   9) = (  0.8109000  0.6900000  0.2496000  )
        10           O1  tau(  10) = (  0.2496000  0.8109000  0.6900000  )

     number of k points=    14  gaussian smearing, width (Ry)=  0.0300
                       cart. coord. in units 2pi/alat
        k(    1) = (   0.0000000   0.0000000   0.0000000), wk =   0.0312500
        k(    2) = (  -0.2470771  -0.1426500   0.1026748), wk =   0.1875000
        k(    3) = (   0.4941541   0.2853000  -0.2053496), wk =   0.0937500
        k(    4) = (  -0.2470771   0.1426500   0.2053496), wk =   0.1875000
        k(    5) = (   0.4941541   0.5706001  -0.1026748), wk =   0.1875000
        k(    6) = (   0.2470771   0.4279500   0.0000000), wk =   0.1875000
        k(    7) = (   0.4941541  -0.2853000  -0.4106993), wk =   0.0937500
        k(    8) = (   0.0000000   0.0000000   0.3080244), wk =   0.0625000
        k(    9) = (   0.7412312   0.4279500   0.0000000), wk =   0.1875000
        k(   10) = (   0.4941541   0.2853000   0.1026748), wk =   0.1875000
        k(   11) = (   0.7412312  -0.4279500  -0.3080244), wk =   0.1875000
        k(   12) = (   0.4941541  -0.5706001  -0.2053496), wk =   0.1875000
        k(   13) = (   0.0000000   0.0000000  -0.6160489), wk =   0.0312500
        k(   14) = (   0.4941541  -0.5706001   0.1026748), wk =   0.1875000

                       cryst. coord.
        k(    1) = (   0.0000000   0.0000000   0.0000000), wk =   0.0312500
        k(    2) = (   0.0000000   0.0000000   0.2500000), wk =   0.1875000
        k(    3) = (   0.0000000   0.0000000  -0.5000000), wk =   0.0937500
        k(    4) = (   0.0000000   0.2500000   0.2500000), wk =   0.1875000
        k(    5) = (   0.0000000   0.2500000  -0.5000000), wk =   0.1875000
        k(    6) = (   0.0000000   0.2500000  -0.2500000), wk =   0.1875000
        k(    7) = (   0.0000000  -0.5000000  -0.5000000), wk =   0.0937500
        k(    8) = (   0.2500000   0.2500000   0.2500000), wk =   0.0625000
        k(    9) = (   0.2500000   0.2500000  -0.5000000), wk =   0.1875000
        k(   10) = (   0.2500000   0.2500000  -0.2500000), wk =   0.1875000
        k(   11) = (   0.2500000  -0.5000000  -0.5000000), wk =   0.1875000
        k(   12) = (   0.2500000  -0.5000000  -0.2500000), wk =   0.1875000
        k(   13) = (  -0.5000000  -0.5000000  -0.5000000), wk =   0.0312500
        k(   14) = (   0.5000000  -0.2500000   0.0000000), wk =   0.1875000

     Dense  grid:    69617 G-vectors     FFT dimensions: (  60,  60,  60)

     Smooth grid:    17573 G-vectors     FFT dimensions: (  40,  40,  40)

     Largest allocated arrays     est. size (Mb)     dimensions
        Kohn-Sham Wavefunctions         0.78 Mb     (   1117,   46)
        Atomic wavefunctions            1.06 Mb     (   1117,   62)
        NL pseudopotentials             2.05 Mb     (   1117,  120)
        Each V/rho on FFT grid          1.65 Mb     ( 108000)
        Each G-vector array             0.27 Mb     (  34808)
        G-vector shells                 0.04 Mb     (   4682)
     Largest temporary arrays     est. size (Mb)     dimensions
        Auxiliary wavefunctions         3.14 Mb     (   1117,  184)
        Each subspace H/S matrix        0.52 Mb     ( 184, 184)
        Each <psi_i|beta_j> matrix      0.08 Mb     (    120,   46)
        Arrays for rho mixing          13.18 Mb     ( 108000,   8)

     Check: negative/imaginary core charge=   -0.000028    0.000000

     The initial density is read from file :
     /home/mcurnan/dft-course/Project1/example_LaCoO3/100/Co/alpha/CoLaO_U100.save/charge-density.dat

 --- in v_hubbard ---
Hubbard energy    0.0367
 -------
     Number of +U iterations with fixed ns =  0
     Starting occupations:
 --- enter write_ns ---
 LDA+U parameters:
U( 1)     =  1.00000000
alpha( 1) = -0.10000000
U( 2)     =  1.00000000
alpha( 2) =  0.00000000
U( 3)     =  0.00000000
alpha( 3) =  0.00000000
U( 4)     =  0.00000000
alpha( 4) =  0.00000000
atom    1   Tr[ns(na)] =   8.02206
    eigenvalues: 
  0.596  0.596  0.938  0.941  0.941
    eigenvectors:
  0.000  0.000  1.000  0.000  0.000
  0.333  0.322  0.000  0.004  0.341
  0.322  0.333  0.000  0.341  0.004
  0.289  0.056  0.000  0.515  0.140
  0.056  0.289  0.000  0.140  0.515
    occupations:
  0.938  0.000  0.000  0.000  0.000
  0.000  0.715  0.000 -0.060  0.152
  0.000  0.000  0.715  0.152  0.060
  0.000 -0.060  0.152  0.822  0.000
  0.000  0.152  0.060  0.000  0.822
atom    2   Tr[ns(na)] =   8.02145
    eigenvalues: 
  0.595  0.595  0.938  0.941  0.941
    eigenvectors:
  0.000  0.000  1.000  0.000  0.000
  0.640  0.015  0.000  0.223  0.122
  0.015  0.640  0.000  0.122  0.223
  0.017  0.329  0.000  0.470  0.185
  0.329  0.017  0.000  0.185  0.470
    occupations:
  0.938  0.000  0.000  0.000  0.000
  0.000  0.715  0.000  0.060  0.153
  0.000  0.000  0.715  0.153 -0.060
  0.000  0.060  0.153  0.822  0.000
  0.000  0.153 -0.060  0.000  0.822
atom    3   Tr[ns(na)] =   3.80284
    eigenvalues: 
  0.355  0.355  0.384  0.403  0.403
    eigenvectors:
  0.000  0.000  1.000  0.000  0.000
  0.781  0.139  0.000  0.012  0.068
  0.139  0.781  0.000  0.068  0.012
  0.013  0.067  0.000  0.780  0.141
  0.067  0.013  0.000  0.141  0.780
    occupations:
  0.384  0.000  0.000  0.000  0.000
  0.000  0.359  0.000  0.000  0.013
  0.000  0.000  0.359  0.013  0.000
  0.000  0.000  0.013  0.399  0.000
  0.000  0.013  0.000  0.000  0.399
atom    4   Tr[ns(na)] =   3.80284
    eigenvalues: 
  0.355  0.355  0.384  0.403  0.403
    eigenvectors:
  0.000  0.000  1.000  0.000  0.000
  0.782  0.139  0.000  0.012  0.068
  0.139  0.782  0.000  0.068  0.012
  0.012  0.067  0.000  0.780  0.141
  0.067  0.012  0.000  0.141  0.780
    occupations:
  0.384  0.000  0.000  0.000  0.000
  0.000  0.359  0.000  0.000  0.013
  0.000  0.000  0.359  0.013  0.000
  0.000  0.000  0.013  0.399  0.000
  0.000  0.013  0.000  0.000  0.399
atom    5   Tr[ns(na)] =   5.43357
    eigenvalues: 
  0.846  0.929  0.941
    eigenvectors:
  0.340  0.000  0.660
  0.494  0.250  0.256
  0.166  0.750  0.085
    occupations:
  0.909  0.039  0.022
  0.039  0.891 -0.022
  0.022 -0.022  0.917
atom    6   Tr[ns(na)] =   5.43357
    eigenvalues: 
  0.846  0.929  0.941
    eigenvectors:
  0.340  0.000  0.660
  0.000  1.000  0.000
  0.660  0.000  0.340
    occupations:
  0.909  0.000 -0.045
  0.000  0.929  0.000
 -0.045  0.000  0.879
atom    7   Tr[ns(na)] =   5.43357
    eigenvalues: 
  0.846  0.929  0.941
    eigenvectors:
  0.340  0.000  0.660
  0.496  0.250  0.255
  0.164  0.750  0.086
    occupations:
  0.909 -0.039  0.022
 -0.039  0.891  0.022
  0.022  0.022  0.917
atom    8   Tr[ns(na)] =   5.43357
    eigenvalues: 
  0.846  0.929  0.941
    eigenvectors:
  0.340  0.000  0.660
  0.000  1.000  0.000
  0.660  0.000  0.340
    occupations:
  0.909  0.000 -0.045
  0.000  0.929  0.000
 -0.045  0.000  0.879
atom    9   Tr[ns(na)] =   5.43357
    eigenvalues: 
  0.846  0.929  0.941
    eigenvectors:
  0.340  0.000  0.660
  0.494  0.250  0.256
  0.166  0.750  0.085
    occupations:
  0.909  0.039  0.022
  0.039  0.891 -0.022
  0.022 -0.022  0.917
atom   10   Tr[ns(na)] =   5.43357
    eigenvalues: 
  0.846  0.929  0.941
    eigenvectors:
  0.340  0.000  0.660
  0.496  0.250  0.255
  0.164  0.750  0.086
    occupations:
  0.909 -0.039  0.022
 -0.039  0.891  0.022
  0.022  0.022  0.917
N of occupied +U levels =  56.2506062
 --- exit write_ns ---
 LDA+U Projector read from file 
     Starting wfc from file

     total cpu time spent up to now is        8.4 secs

     per-process dynamical memory:    46.9 Mb

     Self-consistent Calculation

     iteration #  1     ecut=    30.00 Ry     beta=0.20
     Davidson diagonalization with overlap
     c_bands:  1 eigenvalues not converged
     c_bands:  1 eigenvalues not converged
     c_bands:  1 eigenvalues not converged
     ethr =  1.00E-10,  avg # of iterations = 15.1
 --- enter write_ns ---
 LDA+U parameters:
U( 1)     =  1.00000000
alpha( 1) = -0.10000000
U( 2)     =  1.00000000
alpha( 2) =  0.00000000
U( 3)     =  0.00000000
alpha( 3) =  0.00000000
U( 4)     =  0.00000000
alpha( 4) =  0.00000000
atom    1   Tr[ns(na)] =   8.13928
    eigenvalues: 
  0.586  0.586  0.966  0.966  0.966
    eigenvectors:
  0.000  0.000  1.000  0.000  0.000
  0.331  0.324  0.000  0.004  0.342
  0.324  0.331  0.000  0.342  0.004
  0.289  0.057  0.000  0.514  0.141
  0.057  0.289  0.000  0.141  0.514
    occupations:
  0.966  0.000  0.000  0.000  0.000
  0.000  0.717  0.000 -0.066  0.168
  0.000  0.000  0.717  0.168  0.066
  0.000 -0.066  0.168  0.835  0.000
  0.000  0.168  0.066  0.000  0.835
atom    2   Tr[ns(na)] =   8.04490
    eigenvalues: 
  0.574  0.574  0.957  0.958  0.958
    eigenvectors:
  0.000  0.000  1.000  0.000  0.000
  0.635  0.020  0.000  0.218  0.128
  0.020  0.635  0.000  0.128  0.218
  0.011  0.334  0.000  0.469  0.186
  0.334  0.011  0.000  0.186  0.469
    occupations:
  0.957  0.000  0.000  0.000  0.000
  0.000  0.707  0.000  0.064  0.171
  0.000  0.000  0.707  0.171 -0.064
  0.000  0.064  0.171  0.826  0.000
  0.000  0.171 -0.064  0.000  0.826
atom    3   Tr[ns(na)] =   3.79894
    eigenvalues: 
  0.356  0.356  0.383  0.403  0.403
    eigenvectors:
  0.000  0.000  1.000  0.000  0.000
  0.780  0.140  0.000  0.012  0.069
  0.140  0.780  0.000  0.069  0.012
  0.013  0.067  0.000  0.779  0.141
  0.067  0.013  0.000  0.141  0.779
    occupations:
  0.383  0.000  0.000  0.000  0.000
  0.000  0.359  0.000  0.000  0.013
  0.000  0.000  0.359  0.013  0.000
  0.000  0.000  0.013  0.399  0.000
  0.000  0.013  0.000  0.000  0.399
atom    4   Tr[ns(na)] =   3.79894
    eigenvalues: 
  0.356  0.356  0.383  0.403  0.403
    eigenvectors:
  0.000  0.000  1.000  0.000  0.000
  0.780  0.140  0.000  0.012  0.069
  0.140  0.780  0.000  0.069  0.012
  0.013  0.067  0.000  0.779  0.141
  0.067  0.013  0.000  0.141  0.779
    occupations:
  0.383  0.000  0.000  0.000  0.000
  0.000  0.359  0.000  0.000  0.013
  0.000  0.000  0.359  0.013  0.000
  0.000  0.000  0.013  0.399  0.000
  0.000  0.013  0.000  0.000  0.399
atom    5   Tr[ns(na)] =   5.41683
    eigenvalues: 
  0.839  0.927  0.942
    eigenvectors:
  0.341  0.000  0.659
  0.490  0.255  0.255
  0.169  0.745  0.086
    occupations:
  0.907  0.042  0.025
  0.042  0.888 -0.023
  0.025 -0.023  0.914
atom    6   Tr[ns(na)] =   5.41683
    eigenvalues: 
  0.839  0.927  0.942
    eigenvectors:
  0.341  0.000  0.659
  0.000  1.000  0.000
  0.659  0.000  0.341
    occupations:
  0.907  0.000 -0.049
  0.000  0.927  0.000
 -0.049  0.000  0.874
atom    7   Tr[ns(na)] =   5.41683
    eigenvalues: 
  0.839  0.927  0.942
    eigenvectors:
  0.341  0.000  0.659
  0.499  0.245  0.256
  0.160  0.755  0.085
    occupations:
  0.907 -0.042  0.024
 -0.042  0.887  0.023
  0.024  0.023  0.914
atom    8   Tr[ns(na)] =   5.41683
    eigenvalues: 
  0.839  0.927  0.942
    eigenvectors:
  0.341  0.000  0.659
  0.000  1.000  0.000
  0.659  0.000  0.341
    occupations:
  0.907  0.000 -0.049
  0.000  0.927  0.000
 -0.049  0.000  0.874
atom    9   Tr[ns(na)] =   5.41683
    eigenvalues: 
  0.839  0.927  0.942
    eigenvectors:
  0.341  0.000  0.659
  0.490  0.255  0.255
  0.169  0.745  0.086
    occupations:
  0.907  0.042  0.025
  0.042  0.888 -0.023
  0.025 -0.023  0.914
atom   10   Tr[ns(na)] =   5.41683
    eigenvalues: 
  0.839  0.927  0.942
    eigenvectors:
  0.341  0.000  0.659
  0.499  0.245  0.256
  0.160  0.755  0.085
    occupations:
  0.907 -0.042  0.024
 -0.042  0.887  0.023
  0.024  0.023  0.914
N of occupied +U levels =  56.2830679
 --- exit write_ns ---
 --- in v_hubbard ---
Hubbard energy    0.0350
 -------

     total cpu time spent up to now is       40.6 secs

     total energy              =    -538.29819178 Ry
     Harris-Foulkes estimate   =    -538.30088190 Ry
     estimated scf accuracy    <       0.00936829 Ry

     iteration #  2     ecut=    30.00 Ry     beta=0.20
     Davidson diagonalization with overlap
     ethr =  1.23E-05,  avg # of iterations =  2.0
 --- enter write_ns ---
 LDA+U parameters:
U( 1)     =  1.00000000
alpha( 1) = -0.10000000
U( 2)     =  1.00000000
alpha( 2) =  0.00000000
U( 3)     =  0.00000000
alpha( 3) =  0.00000000
U( 4)     =  0.00000000
alpha( 4) =  0.00000000
atom    1   Tr[ns(na)] =   7.89216
    eigenvalues: 
  0.555  0.555  0.944  0.946  0.946
    eigenvectors:
  0.000  0.000  1.000  0.000  0.000
  0.328  0.327  0.000  0.007  0.338
  0.327  0.328  0.000  0.338  0.007
  0.283  0.062  0.000  0.511  0.144
  0.062  0.283  0.000  0.144  0.511
    occupations:
  0.944  0.000  0.000  0.000  0.000
  0.000  0.690  0.000 -0.064  0.175
  0.000  0.000  0.690  0.175  0.064
  0.000 -0.064  0.175  0.811  0.000
  0.000  0.175  0.064  0.000  0.811
atom    2   Tr[ns(na)] =   8.17205
    eigenvalues: 
  0.583  0.583  0.973  0.973  0.974
    eigenvectors:
  0.000  0.000  0.000  0.000  1.000
  0.642  0.013  0.226  0.119  0.000
  0.013  0.642  0.119  0.226  0.000
  0.020  0.325  0.471  0.184  0.000
  0.325  0.020  0.184  0.471  0.000
    occupations:
  0.974  0.000  0.000  0.000  0.000
  0.000  0.718  0.000  0.070  0.172
  0.000  0.000  0.718  0.172 -0.070
  0.000  0.070  0.172  0.839  0.000
  0.000  0.172 -0.070  0.000  0.839
atom    3   Tr[ns(na)] =   3.79748
    eigenvalues: 
  0.355  0.355  0.383  0.403  0.403
    eigenvectors:
  0.000  0.000  1.000  0.000  0.000
  0.782  0.139  0.000  0.012  0.067
  0.139  0.782  0.000  0.067  0.012
  0.012  0.068  0.000  0.780  0.141
  0.068  0.012  0.000  0.141  0.780
    occupations:
  0.383  0.000  0.000  0.000  0.000
  0.000  0.359  0.000  0.000  0.013
  0.000  0.000  0.359  0.013  0.000
  0.000  0.000  0.013  0.399  0.000
  0.000  0.013  0.000  0.000  0.399
atom    4   Tr[ns(na)] =   3.79748
    eigenvalues: 
  0.355  0.355  0.383  0.403  0.403
    eigenvectors:
  0.000  0.000  1.000  0.000  0.000
  0.782  0.139  0.000  0.012  0.067
  0.139  0.782  0.000  0.067  0.012
  0.012  0.068  0.000  0.780  0.141
  0.068  0.012  0.000  0.141  0.780
    occupations:
  0.383  0.000  0.000  0.000  0.000
  0.000  0.359  0.000  0.000  0.013
  0.000  0.000  0.359  0.013  0.000
  0.000  0.000  0.013  0.399  0.000
  0.000  0.013  0.000  0.000  0.399
atom    5   Tr[ns(na)] =   5.43529
    eigenvalues: 
  0.845  0.930  0.943
    eigenvectors:
  0.339  0.000  0.661
  0.506  0.236  0.258
  0.155  0.764  0.081
    occupations:
  0.910  0.041  0.022
  0.041  0.890 -0.022
  0.022 -0.022  0.918
atom    6   Tr[ns(na)] =   5.43529
    eigenvalues: 
  0.845  0.930  0.943
    eigenvectors:
  0.339  0.000  0.661
  0.000  1.000  0.000
  0.661  0.000  0.339
    occupations:
  0.910 -0.001 -0.046
 -0.001  0.930 -0.001
 -0.046 -0.001  0.878
atom    7   Tr[ns(na)] =   5.43529
    eigenvalues: 
  0.845  0.930  0.943
    eigenvectors:
  0.339  0.000  0.661
  0.485  0.264  0.251
  0.176  0.736  0.089
    occupations:
  0.910 -0.040  0.024
 -0.040  0.892  0.023
  0.024  0.023  0.916
atom    8   Tr[ns(na)] =   5.43529
    eigenvalues: 
  0.845  0.930  0.943
    eigenvectors:
  0.339  0.000  0.661
  0.000  1.000  0.000
  0.661  0.000  0.339
    occupations:
  0.910 -0.001 -0.046
 -0.001  0.930 -0.001
 -0.046 -0.001  0.878
atom    9   Tr[ns(na)] =   5.43529
    eigenvalues: 
  0.845  0.930  0.943
    eigenvectors:
  0.339  0.000  0.661
  0.506  0.236  0.258
  0.155  0.764  0.081
    occupations:
  0.910  0.041  0.022
  0.041  0.890 -0.022
  0.022 -0.022  0.918
atom   10   Tr[ns(na)] =   5.43529
    eigenvalues: 
  0.845  0.930  0.943
    eigenvectors:
  0.339  0.000  0.661
  0.485  0.264  0.251
  0.176  0.736  0.089
    occupations:
  0.910 -0.040  0.024
 -0.040  0.892  0.023
  0.024  0.023  0.916
N of occupied +U levels =  56.2709220
 --- exit write_ns ---
 --- in v_hubbard ---
Hubbard energy    0.0348
 -------

     total cpu time spent up to now is       52.9 secs

     total energy              =    -538.29747893 Ry
     Harris-Foulkes estimate   =    -538.30225055 Ry
     estimated scf accuracy    <       0.04898019 Ry

     iteration #  3     ecut=    30.00 Ry     beta=0.20
     Davidson diagonalization with overlap
     ethr =  1.23E-05,  avg # of iterations =  1.3
 --- enter write_ns ---
 LDA+U parameters:
U( 1)     =  1.00000000
alpha( 1) = -0.10000000
U( 2)     =  1.00000000
alpha( 2) =  0.00000000
U( 3)     =  0.00000000
alpha( 3) =  0.00000000
U( 4)     =  0.00000000
alpha( 4) =  0.00000000
atom    1   Tr[ns(na)] =   8.08025
    eigenvalues: 
  0.573  0.573  0.964  0.965  0.965
    eigenvectors:
  0.000  0.000  1.000  0.000  0.000
  0.333  0.322  0.000  0.004  0.341
  0.322  0.333  0.000  0.341  0.004
  0.288  0.057  0.000  0.515  0.141
  0.057  0.288  0.000  0.141  0.515
    occupations:
  0.964  0.000  0.000  0.000  0.000
  0.000  0.708  0.000 -0.068  0.173
  0.000  0.000  0.708  0.173  0.068
  0.000 -0.068  0.173  0.830  0.000
  0.000  0.173  0.068  0.000  0.830
atom    2   Tr[ns(na)] =   7.99866
    eigenvalues: 
  0.562  0.562  0.957  0.959  0.959
    eigenvectors:
  0.000  0.000  1.000  0.000  0.000
  0.636  0.019  0.000  0.219  0.126
  0.019  0.636  0.000  0.126  0.219
  0.012  0.332  0.000  0.470  0.185
  0.332  0.012  0.000  0.185  0.470
    occupations:
  0.957  0.000  0.000  0.000  0.000
  0.000  0.699  0.000  0.066  0.176
  0.000  0.000  0.699  0.176 -0.066
  0.000  0.066  0.176  0.822  0.000
  0.000  0.176 -0.066  0.000  0.822
atom    3   Tr[ns(na)] =   3.79717
    eigenvalues: 
  0.355  0.355  0.383  0.402  0.402
    eigenvectors:
  0.000  0.000  1.000  0.000  0.000
  0.781  0.139  0.000  0.012  0.068
  0.139  0.781  0.000  0.068  0.012
  0.013  0.067  0.000  0.780  0.141
  0.067  0.013  0.000  0.141  0.780
    occupations:
  0.383  0.000  0.000  0.000  0.000
  0.000  0.359  0.000  0.000  0.013
  0.000  0.000  0.359  0.013  0.000
  0.000  0.000  0.013  0.399  0.000
  0.000  0.013  0.000  0.000  0.399
atom    4   Tr[ns(na)] =   3.79717
    eigenvalues: 
  0.355  0.355  0.383  0.402  0.402
    eigenvectors:
  0.000  0.000  1.000  0.000  0.000
  0.782  0.139  0.000  0.012  0.068
  0.139  0.782  0.000  0.068  0.012
  0.013  0.067  0.000  0.780  0.141
  0.067  0.013  0.000  0.141  0.780
    occupations:
  0.383  0.000  0.000  0.000  0.000
  0.000  0.359  0.000  0.000  0.013
  0.000  0.000  0.359  0.013  0.000
  0.000  0.000  0.013  0.399  0.000
  0.000  0.013  0.000  0.000  0.399
atom    5   Tr[ns(na)] =   5.43361
    eigenvalues: 
  0.844  0.930  0.943
    eigenvectors:
  0.339  0.000  0.661
  0.492  0.254  0.254
  0.169  0.746  0.085
    occupations:
  0.910  0.040  0.024
  0.040  0.891 -0.023
  0.024 -0.023  0.916
atom    6   Tr[ns(na)] =   5.43361
    eigenvalues: 
  0.844  0.930  0.943
    eigenvectors:
  0.339  0.000  0.661
  0.000  1.000  0.000
  0.661  0.000  0.339
    occupations:
  0.910  0.000 -0.047
  0.000  0.930  0.000
 -0.047  0.000  0.878
atom    7   Tr[ns(na)] =   5.43361
    eigenvalues: 
  0.844  0.930  0.943
    eigenvectors:
  0.339  0.000  0.661
  0.500  0.246  0.255
  0.161  0.754  0.084
    occupations:
  0.910 -0.041  0.023
 -0.041  0.890  0.022
  0.023  0.022  0.917
atom    8   Tr[ns(na)] =   5.43361
    eigenvalues: 
  0.844  0.930  0.943
    eigenvectors:
  0.339  0.000  0.661
  0.000  1.000  0.000
  0.661  0.000  0.339
    occupations:
  0.910  0.000 -0.047
  0.000  0.930  0.000
 -0.047  0.000  0.878
atom    9   Tr[ns(na)] =   5.43361
    eigenvalues: 
  0.844  0.930  0.943
    eigenvectors:
  0.339  0.000  0.661
  0.492  0.254  0.254
  0.169  0.746  0.085
    occupations:
  0.910  0.040  0.024
  0.040  0.891 -0.023
  0.024 -0.023  0.916
atom   10   Tr[ns(na)] =   5.43361
    eigenvalues: 
  0.844  0.930  0.943
    eigenvectors:
  0.339  0.000  0.661
  0.500  0.246  0.255
  0.161  0.754  0.084
    occupations:
  0.910 -0.041  0.023
 -0.041  0.890  0.022
  0.023  0.022  0.917
N of occupied +U levels =  56.2749170
 --- exit write_ns ---
 --- in v_hubbard ---
Hubbard energy    0.0342
 -------

     total cpu time spent up to now is       64.4 secs

     total energy              =    -538.30007396 Ry
     Harris-Foulkes estimate   =    -538.30032831 Ry
     estimated scf accuracy    <       0.00409802 Ry

     iteration #  4     ecut=    30.00 Ry     beta=0.20
     Davidson diagonalization with overlap
     ethr =  5.39E-06,  avg # of iterations =  1.0
 --- enter write_ns ---
 LDA+U parameters:
U( 1)     =  1.00000000
alpha( 1) = -0.10000000
U( 2)     =  1.00000000
alpha( 2) =  0.00000000
U( 3)     =  0.00000000
alpha( 3) =  0.00000000
U( 4)     =  0.00000000
alpha( 4) =  0.00000000
atom    1   Tr[ns(na)] =   8.05846
    eigenvalues: 
  0.572  0.572  0.961  0.962  0.962
    eigenvectors:
  0.000  0.000  1.000  0.000  0.000
  0.332  0.324  0.000  0.004  0.340
  0.324  0.332  0.000  0.340  0.004
  0.287  0.058  0.000  0.514  0.141
  0.058  0.287  0.000  0.141  0.514
    occupations:
  0.961  0.000  0.000  0.000  0.000
  0.000  0.706  0.000 -0.067  0.173
  0.000  0.000  0.706  0.173  0.067
  0.000 -0.067  0.173  0.828  0.000
  0.000  0.173  0.067  0.000  0.828
atom    2   Tr[ns(na)] =   8.04232
    eigenvalues: 
  0.568  0.568  0.961  0.962  0.962
    eigenvectors:
  0.000  0.000  1.000  0.000  0.000
  0.638  0.018  0.000  0.220  0.125
  0.018  0.638  0.000  0.125  0.220
  0.013  0.331  0.000  0.470  0.185
  0.331  0.013  0.000  0.185  0.470
    occupations:
  0.961  0.000  0.000  0.000  0.000
  0.000  0.704  0.000  0.067  0.175
  0.000  0.000  0.704  0.175 -0.067
  0.000  0.067  0.175  0.826  0.000
  0.000  0.175 -0.067  0.000  0.826
atom    3   Tr[ns(na)] =   3.79735
    eigenvalues: 
  0.355  0.355  0.383  0.402  0.402
    eigenvectors:
  0.000  0.000  1.000  0.000  0.000
  0.782  0.139  0.000  0.012  0.068
  0.139  0.782  0.000  0.068  0.012
  0.012  0.067  0.000  0.780  0.141
  0.067  0.012  0.000  0.141  0.780
    occupations:
  0.383  0.000  0.000  0.000  0.000
  0.000  0.359  0.000  0.000  0.013
  0.000  0.000  0.359  0.013  0.000
  0.000  0.000  0.013  0.399  0.000
  0.000  0.013  0.000  0.000  0.399
atom    4   Tr[ns(na)] =   3.79735
    eigenvalues: 
  0.355  0.355  0.383  0.402  0.402
    eigenvectors:
  0.000  0.000  1.000  0.000  0.000
  0.782  0.139  0.000  0.012  0.068
  0.139  0.782  0.000  0.068  0.012
  0.012  0.067  0.000  0.780  0.141
  0.067  0.012  0.000  0.141  0.780
    occupations:
  0.383  0.000  0.000  0.000  0.000
  0.000  0.359  0.000  0.000  0.013
  0.000  0.000  0.359  0.013  0.000
  0.000  0.000  0.013  0.399  0.000
  0.000  0.013  0.000  0.000  0.399
atom    5   Tr[ns(na)] =   5.43024
    eigenvalues: 
  0.843  0.929  0.943
    eigenvectors:
  0.340  0.000  0.660
  0.494  0.251  0.255
  0.167  0.749  0.084
    occupations:
  0.909  0.041  0.024
  0.041  0.890 -0.023
  0.024 -0.023  0.916
atom    6   Tr[ns(na)] =   5.43024
    eigenvalues: 
  0.843  0.929  0.943
    eigenvectors:
  0.340  0.000  0.660
  0.000  1.000  0.000
  0.660  0.000  0.340
    occupations:
  0.909  0.000 -0.047
  0.000  0.929  0.000
 -0.047  0.000  0.877
atom    7   Tr[ns(na)] =   5.43024
    eigenvalues: 
  0.843  0.929  0.943
    eigenvectors:
  0.340  0.000  0.660
  0.497  0.249  0.254
  0.164  0.751  0.085
    occupations:
  0.909 -0.041  0.023
 -0.041  0.890  0.022
  0.023  0.022  0.916
atom    8   Tr[ns(na)] =   5.43024
    eigenvalues: 
  0.843  0.929  0.943
    eigenvectors:
  0.340  0.000  0.660
  0.000  1.000  0.000
  0.660  0.000  0.340
    occupations:
  0.909  0.000 -0.047
  0.000  0.929  0.000
 -0.047  0.000  0.877
atom    9   Tr[ns(na)] =   5.43024
    eigenvalues: 
  0.843  0.929  0.943
    eigenvectors:
  0.340  0.000  0.660
  0.494  0.251  0.255
  0.167  0.749  0.084
    occupations:
  0.909  0.041  0.024
  0.041  0.890 -0.023
  0.024 -0.023  0.916
atom   10   Tr[ns(na)] =   5.43024
    eigenvalues: 
  0.843  0.929  0.943
    eigenvectors:
  0.340  0.000  0.660
  0.497  0.249  0.254
  0.164  0.751  0.085
    occupations:
  0.909 -0.041  0.023
 -0.041  0.890  0.022
  0.023  0.022  0.916
N of occupied +U levels =  56.2769088
 --- exit write_ns ---
 --- in v_hubbard ---
Hubbard energy    0.0284
 -------

     total cpu time spent up to now is       77.3 secs

     total energy              =    -538.30019974 Ry
     Harris-Foulkes estimate   =    -538.30021128 Ry
     estimated scf accuracy    <       0.00095776 Ry

     iteration #  5     ecut=    30.00 Ry     beta=0.20
     Davidson diagonalization with overlap
     ethr =  1.26E-06,  avg # of iterations =  1.0
 --- enter write_ns ---
 LDA+U parameters:
U( 1)     =  1.00000000
alpha( 1) = -0.10000000
U( 2)     =  1.00000000
alpha( 2) =  0.00000000
U( 3)     =  0.00000000
alpha( 3) =  0.00000000
U( 4)     =  0.00000000
alpha( 4) =  0.00000000
atom    1   Tr[ns(na)] =   8.05786
    eigenvalues: 
  0.571  0.571  0.961  0.963  0.963
    eigenvectors:
  0.000  0.000  1.000  0.000  0.000
  0.334  0.322  0.000  0.004  0.339
  0.322  0.334  0.000  0.339  0.004
  0.285  0.058  0.000  0.515  0.141
  0.058  0.285  0.000  0.141  0.515
    occupations:
  0.961  0.000  0.000  0.000  0.000
  0.000  0.706  0.000 -0.067  0.173
  0.000  0.000  0.706  0.173  0.067
  0.000 -0.067  0.173  0.828  0.000
  0.000  0.173  0.067  0.000  0.828
atom    2   Tr[ns(na)] =   8.04793
    eigenvalues: 
  0.568  0.568  0.961  0.963  0.963
    eigenvectors:
  0.000  0.000  1.000  0.000  0.000
  0.638  0.018  0.000  0.219  0.124
  0.018  0.638  0.000  0.124  0.219
  0.013  0.330  0.000  0.472  0.185
  0.330  0.013  0.000  0.185  0.472
    occupations:
  0.961  0.000  0.000  0.000  0.000
  0.000  0.704  0.000  0.067  0.175
  0.000  0.000  0.704  0.175 -0.067
  0.000  0.067  0.175  0.828  0.000
  0.000  0.175 -0.067  0.000  0.828
atom    3   Tr[ns(na)] =   3.79874
    eigenvalues: 
  0.356  0.356  0.383  0.403  0.403
    eigenvectors:
  0.000  0.000  1.000  0.000  0.000
  0.783  0.139  0.000  0.011  0.067
  0.139  0.783  0.000  0.067  0.011
  0.012  0.066  0.000  0.781  0.140
  0.066  0.012  0.000  0.140  0.781
    occupations:
  0.383  0.000  0.000  0.000  0.000
  0.000  0.359  0.000  0.000  0.013
  0.000  0.000  0.359  0.013  0.000
  0.000  0.000  0.013  0.399  0.000
  0.000  0.013  0.000  0.000  0.399
atom    4   Tr[ns(na)] =   3.79874
    eigenvalues: 
  0.356  0.356  0.383  0.403  0.403
    eigenvectors:
  0.000  0.000  1.000  0.000  0.000
  0.783  0.138  0.000  0.011  0.067
  0.138  0.783  0.000  0.067  0.011
  0.012  0.066  0.000  0.781  0.140
  0.066  0.012  0.000  0.140  0.781
    occupations:
  0.383  0.000  0.000  0.000  0.000
  0.000  0.359  0.000  0.000  0.013
  0.000  0.000  0.359  0.013  0.000
  0.000  0.000  0.013  0.399  0.000
  0.000  0.013  0.000  0.000  0.399
atom    5   Tr[ns(na)] =   5.42902
    eigenvalues: 
  0.843  0.929  0.943
    eigenvectors:
  0.339  0.000  0.661
  0.494  0.251  0.255
  0.166  0.749  0.084
    occupations:
  0.909  0.041  0.024
  0.041  0.890 -0.023
  0.024 -0.023  0.916
atom    6   Tr[ns(na)] =   5.42902
    eigenvalues: 
  0.843  0.929  0.943
    eigenvectors:
  0.339  0.000  0.661
  0.000  1.000  0.000
  0.661  0.000  0.339
    occupations:
  0.909  0.000 -0.047
  0.000  0.929  0.000
 -0.047  0.000  0.877
atom    7   Tr[ns(na)] =   5.42902
    eigenvalues: 
  0.843  0.929  0.943
    eigenvectors:
  0.339  0.000  0.661
  0.497  0.249  0.254
  0.164  0.751  0.085
    occupations:
  0.909 -0.041  0.024
 -0.041  0.890  0.023
  0.024  0.023  0.916
atom    8   Tr[ns(na)] =   5.42902
    eigenvalues: 
  0.843  0.929  0.943
    eigenvectors:
  0.339  0.000  0.661
  0.000  1.000  0.000
  0.661  0.000  0.339
    occupations:
  0.909  0.000 -0.047
  0.000  0.929  0.000
 -0.047  0.000  0.877
atom    9   Tr[ns(na)] =   5.42902
    eigenvalues: 
  0.843  0.929  0.943
    eigenvectors:
  0.339  0.000  0.661
  0.494  0.251  0.255
  0.166  0.749  0.084
    occupations:
  0.909  0.041  0.024
  0.041  0.890 -0.023
  0.024 -0.023  0.916
atom   10   Tr[ns(na)] =   5.42902
    eigenvalues: 
  0.843  0.929  0.943
    eigenvectors:
  0.339  0.000  0.661
  0.497  0.249  0.254
  0.164  0.751  0.085
    occupations:
  0.909 -0.041  0.024
 -0.041  0.890  0.023
  0.024  0.023  0.916
N of occupied +U levels =  56.2774190
 --- exit write_ns ---
 --- in v_hubbard ---
Hubbard energy    0.0289
 -------

     total cpu time spent up to now is       89.7 secs

     total energy              =    -538.30024695 Ry
     Harris-Foulkes estimate   =    -538.30022039 Ry
     estimated scf accuracy    <       0.00005206 Ry

     iteration #  6     ecut=    30.00 Ry     beta=0.20
     Davidson diagonalization with overlap
     ethr =  6.85E-08,  avg # of iterations =  2.2
 --- enter write_ns ---
 LDA+U parameters:
U( 1)     =  1.00000000
alpha( 1) = -0.10000000
U( 2)     =  1.00000000
alpha( 2) =  0.00000000
U( 3)     =  0.00000000
alpha( 3) =  0.00000000
U( 4)     =  0.00000000
alpha( 4) =  0.00000000
atom    1   Tr[ns(na)] =   8.05675
    eigenvalues: 
  0.571  0.571  0.961  0.963  0.963
    eigenvectors:
  0.000  0.000  1.000  0.000  0.000
  0.334  0.323  0.000  0.004  0.339
  0.323  0.334  0.000  0.339  0.004
  0.286  0.058  0.000  0.515  0.141
  0.058  0.286  0.000  0.141  0.515
    occupations:
  0.961  0.000  0.000  0.000  0.000
  0.000  0.706  0.000 -0.067  0.173
  0.000  0.000  0.706  0.173  0.067
  0.000 -0.067  0.173  0.828  0.000
  0.000  0.173  0.067  0.000  0.828
atom    2   Tr[ns(na)] =   8.04340
    eigenvalues: 
  0.568  0.568  0.961  0.963  0.963
    eigenvectors:
  0.000  0.000  1.000  0.000  0.000
  0.638  0.018  0.000  0.219  0.124
  0.018  0.638  0.000  0.124  0.219
  0.013  0.331  0.000  0.471  0.185
  0.331  0.013  0.000  0.185  0.471
    occupations:
  0.961  0.000  0.000  0.000  0.000
  0.000  0.703  0.000  0.067  0.175
  0.000  0.000  0.703  0.175 -0.067
  0.000  0.067  0.175  0.827  0.000
  0.000  0.175 -0.067  0.000  0.827
atom    3   Tr[ns(na)] =   3.79854
    eigenvalues: 
  0.356  0.356  0.383  0.403  0.403
    eigenvectors:
  0.000  0.000  1.000  0.000  0.000
  0.783  0.139  0.000  0.011  0.067
  0.139  0.783  0.000  0.067  0.011
  0.012  0.066  0.000  0.781  0.141
  0.066  0.012  0.000  0.141  0.781
    occupations:
  0.383  0.000  0.000  0.000  0.000
  0.000  0.359  0.000  0.000  0.013
  0.000  0.000  0.359  0.013  0.000
  0.000  0.000  0.013  0.399  0.000
  0.000  0.013  0.000  0.000  0.399
atom    4   Tr[ns(na)] =   3.79854
    eigenvalues: 
  0.356  0.356  0.383  0.403  0.403
    eigenvectors:
  0.000  0.000  1.000  0.000  0.000
  0.783  0.138  0.000  0.011  0.067
  0.138  0.783  0.000  0.067  0.011
  0.012  0.066  0.000  0.781  0.141
  0.066  0.012  0.000  0.141  0.781
    occupations:
  0.383  0.000  0.000  0.000  0.000
  0.000  0.359  0.000  0.000  0.013
  0.000  0.000  0.359  0.013  0.000
  0.000  0.000  0.013  0.399  0.000
  0.000  0.013  0.000  0.000  0.399
atom    5   Tr[ns(na)] =   5.42993
    eigenvalues: 
  0.843  0.929  0.943
    eigenvectors:
  0.339  0.000  0.661
  0.494  0.251  0.255
  0.166  0.749  0.084
    occupations:
  0.909  0.041  0.024
  0.041  0.890 -0.023
  0.024 -0.023  0.916
atom    6   Tr[ns(na)] =   5.42993
    eigenvalues: 
  0.843  0.929  0.943
    eigenvectors:
  0.339  0.000  0.661
  0.000  1.000  0.000
  0.661  0.000  0.339
    occupations:
  0.909  0.000 -0.047
  0.000  0.929  0.000
 -0.047  0.000  0.877
atom    7   Tr[ns(na)] =   5.42993
    eigenvalues: 
  0.843  0.929  0.943
    eigenvectors:
  0.339  0.000  0.661
  0.497  0.249  0.254
  0.164  0.751  0.085
    occupations:
  0.909 -0.041  0.023
 -0.041  0.890  0.023
  0.023  0.023  0.916
atom    8   Tr[ns(na)] =   5.42993
    eigenvalues: 
  0.843  0.929  0.943
    eigenvectors:
  0.339  0.000  0.661
  0.000  1.000  0.000
  0.661  0.000  0.339
    occupations:
  0.909  0.000 -0.047
  0.000  0.929  0.000
 -0.047  0.000  0.877
atom    9   Tr[ns(na)] =   5.42993
    eigenvalues: 
  0.843  0.929  0.943
    eigenvectors:
  0.339  0.000  0.661
  0.494  0.251  0.255
  0.166  0.749  0.084
    occupations:
  0.909  0.041  0.024
  0.041  0.890 -0.023
  0.024 -0.023  0.916
atom   10   Tr[ns(na)] =   5.42993
    eigenvalues: 
  0.843  0.929  0.943
    eigenvectors:
  0.339  0.000  0.661
  0.497  0.249  0.254
  0.164  0.751  0.085
    occupations:
  0.909 -0.041  0.023
 -0.041  0.890  0.023
  0.023  0.023  0.916
N of occupied +U levels =  56.2768116
 --- exit write_ns ---
 --- in v_hubbard ---
Hubbard energy    0.0289
 -------

     total cpu time spent up to now is      102.8 secs

     total energy              =    -538.30025877 Ry
     Harris-Foulkes estimate   =    -538.30025157 Ry
     estimated scf accuracy    <       0.00000380 Ry

     iteration #  7     ecut=    30.00 Ry     beta=0.20
     Davidson diagonalization with overlap
     ethr =  5.00E-09,  avg # of iterations =  2.2
 --- enter write_ns ---
 LDA+U parameters:
U( 1)     =  1.00000000
alpha( 1) = -0.10000000
U( 2)     =  1.00000000
alpha( 2) =  0.00000000
U( 3)     =  0.00000000
alpha( 3) =  0.00000000
U( 4)     =  0.00000000
alpha( 4) =  0.00000000
atom    1   Tr[ns(na)] =   8.05567
    eigenvalues: 
  0.571  0.571  0.961  0.963  0.963
    eigenvectors:
  0.000  0.000  1.000  0.000  0.000
  0.333  0.323  0.000  0.004  0.340
  0.323  0.333  0.000  0.340  0.004
  0.286  0.058  0.000  0.515  0.141
  0.058  0.286  0.000  0.141  0.515
    occupations:
  0.961  0.000  0.000  0.000  0.000
  0.000  0.706  0.000 -0.067  0.174
  0.000  0.000  0.706  0.174  0.067
  0.000 -0.067  0.174  0.828  0.000
  0.000  0.174  0.067  0.000  0.828
atom    2   Tr[ns(na)] =   8.04383
    eigenvalues: 
  0.568  0.568  0.961  0.963  0.963
    eigenvectors:
  0.000  0.000  1.000  0.000  0.000
  0.638  0.018  0.000  0.220  0.125
  0.018  0.638  0.000  0.125  0.220
  0.013  0.331  0.000  0.471  0.185
  0.331  0.013  0.000  0.185  0.471
    occupations:
  0.961  0.000  0.000  0.000  0.000
  0.000  0.704  0.000  0.067  0.175
  0.000  0.000  0.704  0.175 -0.067
  0.000  0.067  0.175  0.827  0.000
  0.000  0.175 -0.067  0.000  0.827
atom    3   Tr[ns(na)] =   3.79775
    eigenvalues: 
  0.355  0.355  0.383  0.402  0.402
    eigenvectors:
  0.000  0.000  1.000  0.000  0.000
  0.782  0.139  0.000  0.012  0.067
  0.139  0.782  0.000  0.067  0.012
  0.012  0.066  0.000  0.781  0.141
  0.066  0.012  0.000  0.141  0.781
    occupations:
  0.383  0.000  0.000  0.000  0.000
  0.000  0.359  0.000  0.000  0.013
  0.000  0.000  0.359  0.013  0.000
  0.000  0.000  0.013  0.399  0.000
  0.000  0.013  0.000  0.000  0.399
atom    4   Tr[ns(na)] =   3.79775
    eigenvalues: 
  0.355  0.355  0.383  0.402  0.402
    eigenvectors:
  0.000  0.000  1.000  0.000  0.000
  0.782  0.139  0.000  0.012  0.067
  0.139  0.782  0.000  0.067  0.012
  0.012  0.066  0.000  0.780  0.141
  0.066  0.012  0.000  0.141  0.780
    occupations:
  0.383  0.000  0.000  0.000  0.000
  0.000  0.359  0.000  0.000  0.013
  0.000  0.000  0.359  0.013  0.000
  0.000  0.000  0.013  0.399  0.000
  0.000  0.013  0.000  0.000  0.399
atom    5   Tr[ns(na)] =   5.43022
    eigenvalues: 
  0.843  0.929  0.943
    eigenvectors:
  0.340  0.000  0.660
  0.494  0.251  0.255
  0.166  0.749  0.084
    occupations:
  0.909  0.041  0.024
  0.041  0.890 -0.023
  0.024 -0.023  0.916
atom    6   Tr[ns(na)] =   5.43022
    eigenvalues: 
  0.843  0.929  0.943
    eigenvectors:
  0.340  0.000  0.660
  0.000  1.000  0.000
  0.660  0.000  0.340
    occupations:
  0.909  0.000 -0.047
  0.000  0.929  0.000
 -0.047  0.000  0.877
atom    7   Tr[ns(na)] =   5.43022
    eigenvalues: 
  0.843  0.929  0.943
    eigenvectors:
  0.340  0.000  0.660
  0.497  0.249  0.254
  0.164  0.751  0.085
    occupations:
  0.909 -0.041  0.023
 -0.041  0.890  0.022
  0.023  0.022  0.916
atom    8   Tr[ns(na)] =   5.43022
    eigenvalues: 
  0.843  0.929  0.943
    eigenvectors:
  0.340  0.000  0.660
  0.000  1.000  0.000
  0.660  0.000  0.340
    occupations:
  0.909  0.000 -0.047
  0.000  0.929  0.000
 -0.047  0.000  0.877
atom    9   Tr[ns(na)] =   5.43022
    eigenvalues: 
  0.843  0.929  0.943
    eigenvectors:
  0.340  0.000  0.660
  0.494  0.251  0.255
  0.166  0.749  0.084
    occupations:
  0.909  0.041  0.024
  0.041  0.890 -0.023
  0.024 -0.023  0.916
atom   10   Tr[ns(na)] =   5.43022
    eigenvalues: 
  0.843  0.929  0.943
    eigenvectors:
  0.340  0.000  0.660
  0.497  0.249  0.254
  0.164  0.751  0.085
    occupations:
  0.909 -0.041  0.023
 -0.041  0.890  0.022
  0.023  0.022  0.916
N of occupied +U levels =  56.2762984
 --- exit write_ns ---
 --- in v_hubbard ---
Hubbard energy    0.0289
 -------

     total cpu time spent up to now is      118.0 secs

     total energy              =    -538.30026804 Ry
     Harris-Foulkes estimate   =    -538.30025976 Ry
     estimated scf accuracy    <       0.00000137 Ry

     iteration #  8     ecut=    30.00 Ry     beta=0.20
     Davidson diagonalization with overlap
     ethr =  1.81E-09,  avg # of iterations =  1.0
 --- enter write_ns ---
 LDA+U parameters:
U( 1)     =  1.00000000
alpha( 1) = -0.10000000
U( 2)     =  1.00000000
alpha( 2) =  0.00000000
U( 3)     =  0.00000000
alpha( 3) =  0.00000000
U( 4)     =  0.00000000
alpha( 4) =  0.00000000
atom    1   Tr[ns(na)] =   8.05621
    eigenvalues: 
  0.571  0.571  0.961  0.963  0.963
    eigenvectors:
  0.000  0.000  1.000  0.000  0.000
  0.333  0.323  0.000  0.004  0.340
  0.323  0.333  0.000  0.340  0.004
  0.286  0.058  0.000  0.515  0.141
  0.058  0.286  0.000  0.141  0.515
    occupations:
  0.961  0.000  0.000  0.000  0.000
  0.000  0.706  0.000 -0.067  0.174
  0.000  0.000  0.706  0.174  0.067
  0.000 -0.067  0.174  0.828  0.000
  0.000  0.174  0.067  0.000  0.828
atom    2   Tr[ns(na)] =   8.04358
    eigenvalues: 
  0.568  0.568  0.961  0.963  0.963
    eigenvectors:
  0.000  0.000  1.000  0.000  0.000
  0.638  0.018  0.000  0.220  0.125
  0.018  0.638  0.000  0.125  0.220
  0.013  0.331  0.000  0.471  0.185
  0.331  0.013  0.000  0.185  0.471
    occupations:
  0.961  0.000  0.000  0.000  0.000
  0.000  0.704  0.000  0.067  0.175
  0.000  0.000  0.704  0.175 -0.067
  0.000  0.067  0.175  0.827  0.000
  0.000  0.175 -0.067  0.000  0.827
atom    3   Tr[ns(na)] =   3.79786
    eigenvalues: 
  0.355  0.355  0.383  0.402  0.402
    eigenvectors:
  0.000  0.000  1.000  0.000  0.000
  0.782  0.139  0.000  0.012  0.067
  0.139  0.782  0.000  0.067  0.012
  0.012  0.066  0.000  0.781  0.141
  0.066  0.012  0.000  0.141  0.781
    occupations:
  0.383  0.000  0.000  0.000  0.000
  0.000  0.359  0.000  0.000  0.013
  0.000  0.000  0.359  0.013  0.000
  0.000  0.000  0.013  0.399  0.000
  0.000  0.013  0.000  0.000  0.399
atom    4   Tr[ns(na)] =   3.79786
    eigenvalues: 
  0.355  0.355  0.383  0.402  0.402
    eigenvectors:
  0.000  0.000  1.000  0.000  0.000
  0.782  0.139  0.000  0.012  0.067
  0.139  0.782  0.000  0.067  0.012
  0.012  0.066  0.000  0.781  0.140
  0.066  0.012  0.000  0.140  0.781
    occupations:
  0.383  0.000  0.000  0.000  0.000
  0.000  0.359  0.000  0.000  0.013
  0.000  0.000  0.359  0.013  0.000
  0.000  0.000  0.013  0.399  0.000
  0.000  0.013  0.000  0.000  0.399
atom    5   Tr[ns(na)] =   5.43015
    eigenvalues: 
  0.843  0.929  0.943
    eigenvectors:
  0.340  0.000  0.660
  0.494  0.251  0.255
  0.166  0.749  0.084
    occupations:
  0.909  0.041  0.024
  0.041  0.890 -0.023
  0.024 -0.023  0.916
atom    6   Tr[ns(na)] =   5.43015
    eigenvalues: 
  0.843  0.929  0.943
    eigenvectors:
  0.340  0.000  0.660
  0.000  1.000  0.000
  0.660  0.000  0.340
    occupations:
  0.909  0.000 -0.047
  0.000  0.929  0.000
 -0.047  0.000  0.877
atom    7   Tr[ns(na)] =   5.43015
    eigenvalues: 
  0.843  0.929  0.943
    eigenvectors:
  0.340  0.000  0.660
  0.497  0.249  0.254
  0.164  0.751  0.085
    occupations:
  0.909 -0.041  0.023
 -0.041  0.890  0.022
  0.023  0.022  0.916
atom    8   Tr[ns(na)] =   5.43015
    eigenvalues: 
  0.843  0.929  0.943
    eigenvectors:
  0.340  0.000  0.660
  0.000  1.000  0.000
  0.660  0.000  0.340
    occupations:
  0.909  0.000 -0.047
  0.000  0.929  0.000
 -0.047  0.000  0.877
atom    9   Tr[ns(na)] =   5.43015
    eigenvalues: 
  0.843  0.929  0.943
    eigenvectors:
  0.340  0.000  0.660
  0.494  0.251  0.255
  0.166  0.749  0.084
    occupations:
  0.909  0.041  0.024
  0.041  0.890 -0.023
  0.024 -0.023  0.916
atom   10   Tr[ns(na)] =   5.43015
    eigenvalues: 
  0.843  0.929  0.943
    eigenvectors:
  0.340  0.000  0.660
  0.497  0.249  0.254
  0.164  0.751  0.085
    occupations:
  0.909 -0.041  0.023
 -0.041  0.890  0.022
  0.023  0.022  0.916
N of occupied +U levels =  56.2763959
 --- exit write_ns ---
 --- in v_hubbard ---
Hubbard energy    0.0289
 -------

     total cpu time spent up to now is      131.3 secs

     total energy              =    -538.30027286 Ry
     Harris-Foulkes estimate   =    -538.30026808 Ry
     estimated scf accuracy    <       0.00000032 Ry

     iteration #  9     ecut=    30.00 Ry     beta=0.20
     Davidson diagonalization with overlap
     ethr =  4.21E-10,  avg # of iterations =  2.0
 --- enter write_ns ---
 LDA+U parameters:
U( 1)     =  1.00000000
alpha( 1) = -0.10000000
U( 2)     =  1.00000000
alpha( 2) =  0.00000000
U( 3)     =  0.00000000
alpha( 3) =  0.00000000
U( 4)     =  0.00000000
alpha( 4) =  0.00000000
atom    1   Tr[ns(na)] =   8.05643
    eigenvalues: 
  0.571  0.571  0.961  0.963  0.963
    eigenvectors:
  0.000  0.000  1.000  0.000  0.000
  0.333  0.323  0.000  0.004  0.340
  0.323  0.333  0.000  0.340  0.004
  0.286  0.058  0.000  0.515  0.141
  0.058  0.286  0.000  0.141  0.515
    occupations:
  0.961  0.000  0.000  0.000  0.000
  0.000  0.706  0.000 -0.067  0.174
  0.000  0.000  0.706  0.174  0.067
  0.000 -0.067  0.174  0.828  0.000
  0.000  0.174  0.067  0.000  0.828
atom    2   Tr[ns(na)] =   8.04354
    eigenvalues: 
  0.568  0.568  0.961  0.963  0.963
    eigenvectors:
  0.000  0.000  1.000  0.000  0.000
  0.638  0.018  0.000  0.219  0.125
  0.018  0.638  0.000  0.125  0.219
  0.013  0.331  0.000  0.471  0.185
  0.331  0.013  0.000  0.185  0.471
    occupations:
  0.961  0.000  0.000  0.000  0.000
  0.000  0.704  0.000  0.067  0.175
  0.000  0.000  0.704  0.175 -0.067
  0.000  0.067  0.175  0.827  0.000
  0.000  0.175 -0.067  0.000  0.827
atom    3   Tr[ns(na)] =   3.79810
    eigenvalues: 
  0.355  0.355  0.383  0.403  0.403
    eigenvectors:
  0.000  0.000  1.000  0.000  0.000
  0.782  0.139  0.000  0.012  0.067
  0.139  0.782  0.000  0.067  0.012
  0.012  0.066  0.000  0.781  0.140
  0.066  0.012  0.000  0.140  0.781
    occupations:
  0.383  0.000  0.000  0.000  0.000
  0.000  0.359  0.000  0.000  0.013
  0.000  0.000  0.359  0.013  0.000
  0.000  0.000  0.013  0.399  0.000
  0.000  0.013  0.000  0.000  0.399
atom    4   Tr[ns(na)] =   3.79810
    eigenvalues: 
  0.355  0.355  0.383  0.403  0.403
    eigenvectors:
  0.000  0.000  1.000  0.000  0.000
  0.782  0.139  0.000  0.012  0.067
  0.139  0.782  0.000  0.067  0.012
  0.012  0.066  0.000  0.781  0.141
  0.066  0.012  0.000  0.141  0.781
    occupations:
  0.383  0.000  0.000  0.000  0.000
  0.000  0.359  0.000  0.000  0.013
  0.000  0.000  0.359  0.013  0.000
  0.000  0.000  0.013  0.399  0.000
  0.000  0.013  0.000  0.000  0.399
atom    5   Tr[ns(na)] =   5.43006
    eigenvalues: 
  0.843  0.929  0.943
    eigenvectors:
  0.340  0.000  0.660
  0.494  0.251  0.255
  0.166  0.749  0.084
    occupations:
  0.909  0.041  0.024
  0.041  0.890 -0.023
  0.024 -0.023  0.916
atom    6   Tr[ns(na)] =   5.43006
    eigenvalues: 
  0.843  0.929  0.943
    eigenvectors:
  0.340  0.000  0.660
  0.000  1.000  0.000
  0.660  0.000  0.340
    occupations:
  0.909  0.000 -0.047
  0.000  0.929  0.000
 -0.047  0.000  0.877
atom    7   Tr[ns(na)] =   5.43006
    eigenvalues: 
  0.843  0.929  0.943
    eigenvectors:
  0.340  0.000  0.660
  0.497  0.249  0.254
  0.164  0.751  0.085
    occupations:
  0.909 -0.041  0.023
 -0.041  0.890  0.022
  0.023  0.022  0.916
atom    8   Tr[ns(na)] =   5.43006
    eigenvalues: 
  0.843  0.929  0.943
    eigenvectors:
  0.340  0.000  0.660
  0.000  1.000  0.000
  0.660  0.000  0.340
    occupations:
  0.909  0.000 -0.047
  0.000  0.929  0.000
 -0.047  0.000  0.877
atom    9   Tr[ns(na)] =   5.43006
    eigenvalues: 
  0.843  0.929  0.943
    eigenvectors:
  0.340  0.000  0.660
  0.494  0.251  0.255
  0.166  0.749  0.084
    occupations:
  0.909  0.041  0.024
  0.041  0.890 -0.023
  0.024 -0.023  0.916
atom   10   Tr[ns(na)] =   5.43006
    eigenvalues: 
  0.843  0.929  0.943
    eigenvectors:
  0.340  0.000  0.660
  0.497  0.249  0.254
  0.164  0.751  0.085
    occupations:
  0.909 -0.041  0.023
 -0.041  0.890  0.022
  0.023  0.022  0.916
N of occupied +U levels =  56.2765514
 --- exit write_ns ---
 --- in v_hubbard ---
Hubbard energy    0.0289
 -------

     total cpu time spent up to now is      146.8 secs

     total energy              =    -538.30027604 Ry
     Harris-Foulkes estimate   =    -538.30027292 Ry
     estimated scf accuracy    <       0.00000003 Ry

     iteration # 10     ecut=    30.00 Ry     beta=0.20
     Davidson diagonalization with overlap
     ethr =  3.41E-11,  avg # of iterations =  1.7
 --- enter write_ns ---
 LDA+U parameters:
U( 1)     =  1.00000000
alpha( 1) = -0.10000000
U( 2)     =  1.00000000
alpha( 2) =  0.00000000
U( 3)     =  0.00000000
alpha( 3) =  0.00000000
U( 4)     =  0.00000000
alpha( 4) =  0.00000000
atom    1   Tr[ns(na)] =   8.05648
    eigenvalues: 
  0.571  0.571  0.961  0.963  0.963
    eigenvectors:
  0.000  0.000  1.000  0.000  0.000
  0.333  0.323  0.000  0.004  0.340
  0.323  0.333  0.000  0.340  0.004
  0.286  0.058  0.000  0.515  0.141
  0.058  0.286  0.000  0.141  0.515
    occupations:
  0.961  0.000  0.000  0.000  0.000
  0.000  0.706  0.000 -0.067  0.174
  0.000  0.000  0.706  0.174  0.067
  0.000 -0.067  0.174  0.828  0.000
  0.000  0.174  0.067  0.000  0.828
atom    2   Tr[ns(na)] =   8.04356
    eigenvalues: 
  0.568  0.568  0.961  0.963  0.963
    eigenvectors:
  0.000  0.000  1.000  0.000  0.000
  0.638  0.018  0.000  0.220  0.125
  0.018  0.638  0.000  0.125  0.220
  0.013  0.331  0.000  0.471  0.185
  0.331  0.013  0.000  0.185  0.471
    occupations:
  0.961  0.000  0.000  0.000  0.000
  0.000  0.704  0.000  0.067  0.175
  0.000  0.000  0.704  0.175 -0.067
  0.000  0.067  0.175  0.827  0.000
  0.000  0.175 -0.067  0.000  0.827
atom    3   Tr[ns(na)] =   3.79808
    eigenvalues: 
  0.355  0.355  0.383  0.403  0.403
    eigenvectors:
  0.000  0.000  1.000  0.000  0.000
  0.782  0.139  0.000  0.012  0.067
  0.139  0.782  0.000  0.067  0.012
  0.012  0.066  0.000  0.781  0.141
  0.066  0.012  0.000  0.141  0.781
    occupations:
  0.383  0.000  0.000  0.000  0.000
  0.000  0.359  0.000  0.000  0.013
  0.000  0.000  0.359  0.013  0.000
  0.000  0.000  0.013  0.399  0.000
  0.000  0.013  0.000  0.000  0.399
atom    4   Tr[ns(na)] =   3.79808
    eigenvalues: 
  0.355  0.355  0.383  0.403  0.403
    eigenvectors:
  0.000  0.000  1.000  0.000  0.000
  0.782  0.139  0.000  0.012  0.067
  0.139  0.782  0.000  0.067  0.012
  0.012  0.066  0.000  0.781  0.141
  0.066  0.012  0.000  0.141  0.781
    occupations:
  0.383  0.000  0.000  0.000  0.000
  0.000  0.359  0.000  0.000  0.013
  0.000  0.000  0.359  0.013  0.000
  0.000  0.000  0.013  0.399  0.000
  0.000  0.013  0.000  0.000  0.399
atom    5   Tr[ns(na)] =   5.43006
    eigenvalues: 
  0.843  0.929  0.943
    eigenvectors:
  0.340  0.000  0.660
  0.494  0.251  0.255
  0.166  0.749  0.084
    occupations:
  0.909  0.041  0.024
  0.041  0.890 -0.023
  0.024 -0.023  0.916
atom    6   Tr[ns(na)] =   5.43006
    eigenvalues: 
  0.843  0.929  0.943
    eigenvectors:
  0.340  0.000  0.660
  0.000  1.000  0.000
  0.660  0.000  0.340
    occupations:
  0.909  0.000 -0.047
  0.000  0.929  0.000
 -0.047  0.000  0.877
atom    7   Tr[ns(na)] =   5.43006
    eigenvalues: 
  0.843  0.929  0.943
    eigenvectors:
  0.340  0.000  0.660
  0.497  0.249  0.254
  0.164  0.751  0.085
    occupations:
  0.909 -0.041  0.023
 -0.041  0.890  0.022
  0.023  0.022  0.916
atom    8   Tr[ns(na)] =   5.43006
    eigenvalues: 
  0.843  0.929  0.943
    eigenvectors:
  0.340  0.000  0.660
  0.000  1.000  0.000
  0.660  0.000  0.340
    occupations:
  0.909  0.000 -0.047
  0.000  0.929  0.000
 -0.047  0.000  0.877
atom    9   Tr[ns(na)] =   5.43006
    eigenvalues: 
  0.843  0.929  0.943
    eigenvectors:
  0.340  0.000  0.660
  0.494  0.251  0.255
  0.166  0.749  0.084
    occupations:
  0.909  0.041  0.024
  0.041  0.890 -0.023
  0.024 -0.023  0.916
atom   10   Tr[ns(na)] =   5.43006
    eigenvalues: 
  0.843  0.929  0.943
    eigenvectors:
  0.340  0.000  0.660
  0.497  0.249  0.254
  0.164  0.751  0.085
    occupations:
  0.909 -0.041  0.023
 -0.041  0.890  0.022
  0.023  0.022  0.916
N of occupied +U levels =  56.2765398
 --- exit write_ns ---
 --- in v_hubbard ---
Hubbard energy    0.0289
 -------

     total cpu time spent up to now is      159.7 secs

     total energy              =    -538.30027816 Ry
     Harris-Foulkes estimate   =    -538.30027604 Ry
     estimated scf accuracy    <       0.00000002 Ry

     iteration # 11     ecut=    30.00 Ry     beta=0.20
     Davidson diagonalization with overlap
     ethr =  2.71E-11,  avg # of iterations =  2.0
 --- enter write_ns ---
 LDA+U parameters:
U( 1)     =  1.00000000
alpha( 1) = -0.10000000
U( 2)     =  1.00000000
alpha( 2) =  0.00000000
U( 3)     =  0.00000000
alpha( 3) =  0.00000000
U( 4)     =  0.00000000
alpha( 4) =  0.00000000
atom    1   Tr[ns(na)] =   8.05643
    eigenvalues: 
  0.571  0.571  0.961  0.963  0.963
    eigenvectors:
  0.000  0.000  1.000  0.000  0.000
  0.333  0.323  0.000  0.004  0.340
  0.323  0.333  0.000  0.340  0.004
  0.286  0.058  0.000  0.515  0.141
  0.058  0.286  0.000  0.141  0.515
    occupations:
  0.961  0.000  0.000  0.000  0.000
  0.000  0.706  0.000 -0.067  0.174
  0.000  0.000  0.706  0.174  0.067
  0.000 -0.067  0.174  0.828  0.000
  0.000  0.174  0.067  0.000  0.828
atom    2   Tr[ns(na)] =   8.04348
    eigenvalues: 
  0.568  0.568  0.961  0.963  0.963
    eigenvectors:
  0.000  0.000  1.000  0.000  0.000
  0.638  0.018  0.000  0.220  0.125
  0.018  0.638  0.000  0.125  0.220
  0.013  0.331  0.000  0.471  0.185
  0.331  0.013  0.000  0.185  0.471
    occupations:
  0.961  0.000  0.000  0.000  0.000
  0.000  0.704  0.000  0.067  0.175
  0.000  0.000  0.704  0.175 -0.067
  0.000  0.067  0.175  0.827  0.000
  0.000  0.175 -0.067  0.000  0.827
atom    3   Tr[ns(na)] =   3.79800
    eigenvalues: 
  0.355  0.355  0.383  0.403  0.403
    eigenvectors:
  0.000  0.000  1.000  0.000  0.000
  0.783  0.139  0.000  0.012  0.067
  0.139  0.783  0.000  0.067  0.012
  0.012  0.066  0.000  0.781  0.140
  0.066  0.012  0.000  0.140  0.781
    occupations:
  0.383  0.000  0.000  0.000  0.000
  0.000  0.359  0.000  0.000  0.013
  0.000  0.000  0.359  0.013  0.000
  0.000  0.000  0.013  0.399  0.000
  0.000  0.013  0.000  0.000  0.399
atom    4   Tr[ns(na)] =   3.79800
    eigenvalues: 
  0.355  0.355  0.383  0.403  0.403
    eigenvectors:
  0.000  0.000  1.000  0.000  0.000
  0.783  0.138  0.000  0.011  0.067
  0.138  0.783  0.000  0.067  0.011
  0.012  0.066  0.000  0.781  0.140
  0.066  0.012  0.000  0.140  0.781
    occupations:
  0.383  0.000  0.000  0.000  0.000
  0.000  0.359  0.000  0.000  0.013
  0.000  0.000  0.359  0.013  0.000
  0.000  0.000  0.013  0.399  0.000
  0.000  0.013  0.000  0.000  0.399
atom    5   Tr[ns(na)] =   5.43010
    eigenvalues: 
  0.843  0.929  0.943
    eigenvectors:
  0.340  0.000  0.660
  0.494  0.251  0.255
  0.166  0.749  0.084
    occupations:
  0.909  0.041  0.024
  0.041  0.890 -0.023
  0.024 -0.023  0.916
atom    6   Tr[ns(na)] =   5.43010
    eigenvalues: 
  0.843  0.929  0.943
    eigenvectors:
  0.340  0.000  0.660
  0.000  1.000  0.000
  0.660  0.000  0.340
    occupations:
  0.909  0.000 -0.047
  0.000  0.929  0.000
 -0.047  0.000  0.877
atom    7   Tr[ns(na)] =   5.43010
    eigenvalues: 
  0.843  0.929  0.943
    eigenvectors:
  0.340  0.000  0.660
  0.497  0.249  0.254
  0.164  0.751  0.085
    occupations:
  0.909 -0.041  0.023
 -0.041  0.890  0.022
  0.023  0.022  0.916
atom    8   Tr[ns(na)] =   5.43010
    eigenvalues: 
  0.843  0.929  0.943
    eigenvectors:
  0.340  0.000  0.660
  0.000  1.000  0.000
  0.660  0.000  0.340
    occupations:
  0.909  0.000 -0.047
  0.000  0.929  0.000
 -0.047  0.000  0.877
atom    9   Tr[ns(na)] =   5.43010
    eigenvalues: 
  0.843  0.929  0.943
    eigenvectors:
  0.340  0.000  0.660
  0.494  0.251  0.255
  0.166  0.749  0.084
    occupations:
  0.909  0.041  0.024
  0.041  0.890 -0.023
  0.024 -0.023  0.916
atom   10   Tr[ns(na)] =   5.43010
    eigenvalues: 
  0.843  0.929  0.943
    eigenvectors:
  0.340  0.000  0.660
  0.497  0.249  0.254
  0.164  0.751  0.085
    occupations:
  0.909 -0.041  0.023
 -0.041  0.890  0.022
  0.023  0.022  0.916
N of occupied +U levels =  56.2764766
 --- exit write_ns ---
 --- in v_hubbard ---
Hubbard energy    0.0289
 -------

     total cpu time spent up to now is      173.1 secs

     End of self-consistent calculation

          k = 0.0000 0.0000 0.0000 (  2175 PWs)   bands (ev):

   -19.8027 -19.6295  -6.5457  -5.8343  -5.8343  -5.8232  -5.8232  -5.4817
    -3.7764  -3.2657  -3.2126  -3.2126  -3.0284  -3.0284   5.1969   6.8814
     6.8814   7.5208   7.5208   7.6324   7.6324   7.6875   7.7156   9.2934
     9.6159   9.6159   9.7446   9.8686   9.8686  10.3404  10.3404  10.4614
    10.4614  10.5493  10.6747  11.4151  11.4151  11.9857  12.1707  12.1707
    14.7742  14.7742  15.4228  15.4228  16.1937  16.7825

     occupation numbers 
     0.0313   0.0313   0.0313   0.0313   0.0313   0.0313   0.0313   0.0313
     0.0313   0.0313   0.0313   0.0313   0.0313   0.0313   0.0313   0.0313
     0.0313   0.0313   0.0313   0.0313   0.0313   0.0313   0.0313   0.0313
     0.0313   0.0313   0.0312   0.0312   0.0312   0.0312   0.0312   0.0312
     0.0312   0.0312   0.0312   0.0307   0.0307   0.0173   0.0096   0.0096
     0.0000   0.0000   0.0000   0.0000   0.0000   0.0000

          k =-0.2471-0.1427 0.1027 (  2181 PWs)   bands (ev):

   -19.7754 -19.6558  -6.7253  -6.2882  -5.9419  -5.8504  -5.6128  -5.4797
    -3.5886  -3.3914  -2.9335  -2.9067  -2.8485  -2.7617   5.5583   6.8759
     6.9859   6.9952   7.1973   7.4789   7.5351   7.6841   7.6905   8.5347
     8.6160   9.2331   9.6533   9.7744   9.8153  10.0155  10.3662  10.3774
    10.7729  10.7935  10.9000  11.6808  11.7363  11.7879  12.3325  12.3977
    14.3169  14.3252  15.8114  16.0656  16.9691  17.2635

     occupation numbers 
     0.1875   0.1875   0.1875   0.1875   0.1875   0.1875   0.1875   0.1875
     0.1875   0.1875   0.1875   0.1875   0.1875   0.1875   0.1875   0.1875
     0.1875   0.1875   0.1875   0.1875   0.1875   0.1875   0.1875   0.1875
     0.1875   0.1875   0.1875   0.1875   0.1875   0.1875   0.1875   0.1875
     0.1875   0.1875   0.1875   0.1656   0.1577   0.1489   0.0269   0.0184
     0.0000   0.0000   0.0000   0.0000   0.0000   0.0000

          k = 0.4942 0.2853-0.2053 (  2202 PWs)   bands (ev):

   -19.7156 -19.7148  -6.7251  -6.7138  -5.9639  -5.9567  -5.5256  -5.5193
    -3.3821  -3.3776  -2.7922  -2.7882  -2.5103  -2.5084   6.0690   6.0748
     7.1810   7.2129   7.2347   7.2712   7.5560   7.5976   7.8390   7.8813
     8.0474   8.0948   9.5058   9.5082   9.8685   9.8743  10.2753  10.2831
    11.2123  11.2150  11.3144  11.3146  11.5036  11.5071  13.2930  13.3269
    13.3788  13.4128  16.8297  16.8343  17.1291  17.1317

     occupation numbers 
     0.0938   0.0938   0.0938   0.0938   0.0938   0.0938   0.0938   0.0938
     0.0938   0.0938   0.0938   0.0938   0.0938   0.0938   0.0938   0.0938
     0.0938   0.0938   0.0938   0.0938   0.0938   0.0938   0.0938   0.0938
     0.0938   0.0938   0.0938   0.0938   0.0937   0.0937   0.0937   0.0937
     0.0935   0.0935   0.0931   0.0931   0.0904   0.0903   0.0000   0.0000
     0.0000   0.0000   0.0000   0.0000   0.0000   0.0000

          k =-0.2471 0.1427 0.2053 (  2195 PWs)   bands (ev):

   -19.7701 -19.6604  -6.8524  -6.2313  -6.0645  -5.8307  -5.6563  -5.4613
    -3.4106  -3.2637  -3.1017  -2.8913  -2.8155  -2.5632   5.5866   6.8198
     6.8793   6.9478   7.2218   7.4628   7.4896   7.7034   7.7153   8.6331
     8.7707   8.8383   9.2880   9.7545   9.9678  10.0621  10.1694  10.2819
    10.3487  11.1872  11.2897  11.3099  11.7131  11.7876  12.0562  12.7337
    13.6380  14.7898  15.9873  16.1890  17.0328  17.5343

     occupation numbers 
     0.1875   0.1875   0.1875   0.1875   0.1875   0.1875   0.1875   0.1875
     0.1875   0.1875   0.1875   0.1875   0.1875   0.1875   0.1875   0.1875
     0.1875   0.1875   0.1875   0.1875   0.1875   0.1875   0.1875   0.1875
     0.1875   0.1875   0.1875   0.1875   0.1875   0.1875   0.1875   0.1875
     0.1875   0.1872   0.1865   0.1863   0.1612   0.1489   0.0856   0.0013
     0.0000   0.0000   0.0000   0.0000   0.0000   0.0000

          k = 0.4942 0.5706-0.1027 (  2198 PWs)   bands (ev):

   -19.7324 -19.6968  -6.9556  -6.6450  -6.1300  -5.8934  -5.5123  -5.3838
    -3.3030  -3.2538  -2.8782  -2.7091  -2.5287  -2.3866   5.9040   6.2525
     6.7415   6.9838   7.1959   7.3382   7.5011   7.7141   7.8208   7.9618
     8.2628   8.8497   9.0993   9.3236   9.6347   9.8075   9.9439  10.3531
    10.8358  11.2998  11.4054  11.4759  11.6110  11.6527  12.3206  12.7386
    13.4277  14.3653  16.9001  17.1100  17.3060  18.0110

     occupation numbers 
     0.1875   0.1875   0.1875   0.1875   0.1875   0.1875   0.1875   0.1875
     0.1875   0.1875   0.1875   0.1875   0.1875   0.1875   0.1875   0.1875
     0.1875   0.1875   0.1875   0.1875   0.1875   0.1875   0.1875   0.1875
     0.1875   0.1875   0.1875   0.1875   0.1875   0.1875   0.1875   0.1875
     0.1875   0.1864   0.1845   0.1821   0.1733   0.1690   0.0286   0.0013
     0.0000   0.0000   0.0000   0.0000   0.0000   0.0000

          k = 0.2471 0.4280 0.0000 (  2203 PWs)   bands (ev):

   -19.7426 -19.6874  -6.8460  -6.6383  -6.0492  -5.9810  -5.4392  -5.3708
    -3.5130  -3.2945  -2.8022  -2.7112  -2.5690  -2.5600   5.8863   6.3040
     6.9567   7.0942   7.1937   7.2861   7.4408   7.6058   7.6881   8.0627
     8.3044   8.9255   9.3125   9.4163   9.7653   9.7833  10.0595  10.3555
    11.1510  11.1886  11.1994  11.4296  11.4566  11.7527  12.2528  13.3219
    13.3968  14.1600  16.4320  16.9876  17.4167  17.9216

     occupation numbers 
     0.1875   0.1875   0.1875   0.1875   0.1875   0.1875   0.1875   0.1875
     0.1875   0.1875   0.1875   0.1875   0.1875   0.1875   0.1875   0.1875
     0.1875   0.1875   0.1875   0.1875   0.1875   0.1875   0.1875   0.1875
     0.1875   0.1875   0.1875   0.1875   0.1875   0.1875   0.1875   0.1875
     0.1873   0.1871   0.1871   0.1838   0.1829   0.1551   0.0403   0.0000
     0.0000   0.0000   0.0000   0.0000   0.0000   0.0000

          k = 0.4942-0.2853-0.4107 (  2202 PWs)   bands (ev):

   -19.7369 -19.6910  -7.1682  -6.4537  -6.2388  -5.9683  -5.5292  -5.2931
    -3.1923  -3.1252  -3.0438  -2.6520  -2.4822  -2.2244   5.8009   6.2775
     6.2831   6.8731   7.1512   7.2597   7.7323   7.7853   8.1579   8.3166
     8.4239   8.4544   8.5984   9.4135   9.6727  10.0317  10.0688  10.2731
    10.4334  11.1389  11.3451  11.5212  11.6456  11.7775  11.9667  12.4357
    13.3275  14.8025  17.0370  17.2593  17.5164  17.6054

     occupation numbers 
     0.0938   0.0938   0.0938   0.0938   0.0938   0.0938   0.0938   0.0938
     0.0938   0.0938   0.0938   0.0938   0.0938   0.0938   0.0938   0.0938
     0.0938   0.0938   0.0938   0.0938   0.0938   0.0938   0.0938   0.0938
     0.0938   0.0938   0.0938   0.0938   0.0937   0.0937   0.0937   0.0937
     0.0937   0.0936   0.0929   0.0900   0.0849   0.0754   0.0544   0.0072
     0.0000   0.0000   0.0000   0.0000   0.0000   0.0000

          k = 0.0000 0.0000 0.3080 (  2187 PWs)   bands (ev):

   -19.7751 -19.6559  -6.6132  -5.9785  -5.9277  -5.9277  -5.8420  -5.8420
    -3.2016  -3.1120  -3.1120  -2.9695  -2.8983  -2.8983   5.6148   6.9814
     6.9814   7.1376   7.3364   7.4178   7.4178   7.6921   7.6921   8.7709
     8.7709   9.3288   9.4370   9.6286   9.6286   9.8152  10.1268  10.1268
    10.9020  10.9020  11.0030  11.7043  11.7043  11.7980  12.3093  12.3093
    14.2781  14.2781  15.9059  15.9059  16.8762  17.4771

     occupation numbers 
     0.0625   0.0625   0.0625   0.0625   0.0625   0.0625   0.0625   0.0625
     0.0625   0.0625   0.0625   0.0625   0.0625   0.0625   0.0625   0.0625
     0.0625   0.0625   0.0625   0.0625   0.0625   0.0625   0.0625   0.0625
     0.0625   0.0625   0.0625   0.0625   0.0625   0.0625   0.0625   0.0625
     0.0625   0.0625   0.0625   0.0542   0.0542   0.0490   0.0101   0.0101
     0.0000   0.0000   0.0000   0.0000   0.0000   0.0000

          k = 0.7412 0.4280 0.0000 (  2204 PWs)   bands (ev):

   -19.7422 -19.6876  -6.7314  -6.6019  -6.1454  -5.8302  -5.6814  -5.5482
    -3.1726  -3.0909  -3.0466  -2.6770  -2.6566  -2.5858   5.9255   6.4975
     6.9685   7.1407   7.1991   7.2980   7.4309   7.5621   7.8529   8.0162
     8.3386   8.8236   9.3305   9.4791   9.5925   9.6793   9.8450  10.2158
    11.1465  11.2024  11.2771  11.4919  11.4922  11.6601  12.2580  13.2455
    13.3122  14.1844  16.6853  16.7182  17.5877  17.7895

     occupation numbers 
     0.1875   0.1875   0.1875   0.1875   0.1875   0.1875   0.1875   0.1875
     0.1875   0.1875   0.1875   0.1875   0.1875   0.1875   0.1875   0.1875
     0.1875   0.1875   0.1875   0.1875   0.1875   0.1875   0.1875   0.1875
     0.1875   0.1875   0.1875   0.1875   0.1875   0.1875   0.1875   0.1875
     0.1873   0.1871   0.1866   0.1814   0.1814   0.1682   0.0393   0.0000
     0.0000   0.0000   0.0000   0.0000   0.0000   0.0000

          k = 0.4942 0.2853 0.1027 (  2211 PWs)   bands (ev):

   -19.7326 -19.6966  -6.9719  -6.5426  -6.3221  -5.6991  -5.6228  -5.3597
    -3.3168  -3.1663  -3.0308  -2.6045  -2.5622  -2.3798   5.9344   6.2241
     6.6952   6.9767   7.2176   7.2503   7.5253   7.7554   7.8596   7.9476
     8.2954   8.9573   9.0989   9.3947   9.5062   9.6650  10.0084  10.3694
    10.8517  11.3507  11.4838  11.4873  11.5477  11.5662  12.2735  12.7544
    13.4736  14.3469  16.8807  16.9305  17.5776  17.9237

     occupation numbers 
     0.1875   0.1875   0.1875   0.1875   0.1875   0.1875   0.1875   0.1875
     0.1875   0.1875   0.1875   0.1875   0.1875   0.1875   0.1875   0.1875
     0.1875   0.1875   0.1875   0.1875   0.1875   0.1875   0.1875   0.1875
     0.1875   0.1875   0.1875   0.1875   0.1875   0.1875   0.1875   0.1875
     0.1875   0.1857   0.1818   0.1816   0.1783   0.1770   0.0365   0.0011
     0.0000   0.0000   0.0000   0.0000   0.0000   0.0000

          k = 0.7412-0.4280-0.3080 (  2210 PWs)   bands (ev):

   -19.7323 -19.6967  -6.9085  -6.4506  -6.3000  -5.7955  -5.7612  -5.4858
    -3.0711  -3.0519  -2.9648  -2.7303  -2.6228  -2.4296   5.9958   6.3664
     6.7733   6.9598   7.2362   7.2669   7.5529   7.7747   7.9010   7.9793
     8.2713   8.9443   8.9596   9.5096   9.5237   9.5251   9.6530  10.2060
    10.9232  11.3672  11.4694  11.4757  11.5949  11.6347  12.2315  12.7040
    13.4216  14.3165  17.0556  17.0635  17.5462  17.8994

     occupation numbers 
     0.1875   0.1875   0.1875   0.1875   0.1875   0.1875   0.1875   0.1875
     0.1875   0.1875   0.1875   0.1875   0.1875   0.1875   0.1875   0.1875
     0.1875   0.1875   0.1875   0.1875   0.1875   0.1875   0.1875   0.1875
     0.1875   0.1875   0.1875   0.1875   0.1875   0.1875   0.1875   0.1875
     0.1875   0.1854   0.1824   0.1821   0.1747   0.1710   0.0444   0.0017
     0.0000   0.0000   0.0000   0.0000   0.0000   0.0000

          k = 0.4942-0.5706-0.2053 (  2206 PWs)   bands (ev):

   -19.7142 -19.7142  -6.8851  -6.8785  -6.0349  -6.0332  -5.4296  -5.4268
    -3.1534  -3.1531  -2.8137  -2.8132  -2.3858  -2.3835   6.0694   6.0947
     6.8823   6.8885   7.0982   7.1128   7.4056   7.4092   8.0396   8.0959
     8.7919   8.7939   8.9830   8.9844   9.5351   9.5398  10.0903  10.0918
    11.1425  11.1435  11.3613  11.3634  11.6486  11.6487  12.2962  12.2974
    14.0061  14.0167  17.4234  17.4238  17.8629  17.8652

     occupation numbers 
     0.1875   0.1875   0.1875   0.1875   0.1875   0.1875   0.1875   0.1875
     0.1875   0.1875   0.1875   0.1875   0.1875   0.1875   0.1875   0.1875
     0.1875   0.1875   0.1875   0.1875   0.1875   0.1875   0.1875   0.1875
     0.1875   0.1875   0.1875   0.1875   0.1875   0.1875   0.1875   0.1875
     0.1873   0.1873   0.1855   0.1854   0.1695   0.1694   0.0325   0.0323
     0.0000   0.0000   0.0000   0.0000   0.0000   0.0000

          k = 0.0000 0.0000-0.6160 (  2186 PWs)   bands (ev):

   -19.7155 -19.7146  -6.5123  -6.4980  -5.9423  -5.9423  -5.9365  -5.9365
    -2.8926  -2.8926  -2.8885  -2.8885  -2.7100  -2.7098   6.2958   6.3021
     7.1837   7.1837   7.2196   7.2196   7.7188   7.7610   7.9633   7.9633
     8.0109   8.0109   9.6328   9.6328   9.6361   9.6361   9.6984   9.7073
    11.3701  11.3709  11.4260  11.4260  11.4279  11.4279  13.2345  13.2345
    13.2671  13.2671  17.1135  17.1135  17.1150  17.1150

     occupation numbers 
     0.0313   0.0313   0.0313   0.0313   0.0313   0.0313   0.0313   0.0313
     0.0313   0.0313   0.0313   0.0313   0.0313   0.0313   0.0313   0.0313
     0.0313   0.0313   0.0313   0.0313   0.0313   0.0313   0.0313   0.0313
     0.0313   0.0313   0.0312   0.0312   0.0312   0.0312   0.0312   0.0312
     0.0309   0.0309   0.0307   0.0307   0.0306   0.0306   0.0000   0.0000
     0.0000   0.0000   0.0000   0.0000   0.0000   0.0000

          k = 0.4942-0.5706 0.1027 (  2198 PWs)   bands (ev):

   -19.7324 -19.6968  -6.9565  -6.6453  -6.1290  -5.8893  -5.5144  -5.3856
    -3.3042  -3.2536  -2.8778  -2.7077  -2.5293  -2.3866   5.9007   6.2590
     6.7341   6.9854   7.2064   7.3340   7.5086   7.7047   7.7902   7.9964
     8.2548   8.8583   9.0944   9.3222   9.6323   9.8093   9.9433  10.3540
    10.8349  11.3019  11.4055  11.4757  11.6116  11.6516  12.3205  12.7381
    13.4274  14.3653  16.9019  17.1072  17.3066  18.0115

     occupation numbers 
     0.1875   0.1875   0.1875   0.1875   0.1875   0.1875   0.1875   0.1875
     0.1875   0.1875   0.1875   0.1875   0.1875   0.1875   0.1875   0.1875
     0.1875   0.1875   0.1875   0.1875   0.1875   0.1875   0.1875   0.1875
     0.1875   0.1875   0.1875   0.1875   0.1875   0.1875   0.1875   0.1875
     0.1875   0.1864   0.1845   0.1821   0.1732   0.1691   0.0287   0.0013
     0.0000   0.0000   0.0000   0.0000   0.0000   0.0000

     the Fermi energy is    12.0248 ev

!    total energy              =    -538.30028175 Ry
     Harris-Foulkes estimate   =    -538.30027816 Ry
     estimated scf accuracy    <          7.0E-09 Ry

     The total energy is the sum of the following terms:

     one-electron contribution =     -32.92830849 Ry
     hartree contribution      =      83.65645500 Ry
     xc contribution           =    -199.58058257 Ry
     ewald contribution        =    -389.44315552 Ry
     Hubbard energy            =       0.02892298 Ry
     smearing contrib. (-TS)   =      -0.03361316 Ry

     convergence has been achieved in  11 iterations

     init_run     :      7.29s CPU      7.54s WALL (       1 calls)
     electrons    :    156.19s CPU    164.74s WALL (       1 calls)

     Called by init_run:
     wfcinit      :      0.00s CPU      0.00s WALL (       1 calls)
     potinit      :      0.27s CPU      0.47s WALL (       1 calls)

     Called by electrons:
     c_bands      :    101.80s CPU    102.83s WALL (      11 calls)
     sum_band     :     31.19s CPU     31.39s WALL (      11 calls)
     v_of_rho     :      2.94s CPU      2.96s WALL (      12 calls)
     v_h          :      0.16s CPU      0.16s WALL (      12 calls)
     v_xc         :      2.78s CPU      2.80s WALL (      12 calls)
     newd         :     21.42s CPU     21.55s WALL (      12 calls)
     mix_rho      :      0.28s CPU      0.28s WALL (      11 calls)

     Called by c_bands:
     init_us_2    :      1.08s CPU      1.10s WALL (     308 calls)
     cegterg      :     98.78s CPU     99.54s WALL (     154 calls)

     Called by sum_band:
     sum_band:bec :      0.11s CPU      0.11s WALL (     154 calls)
     addusdens    :     13.79s CPU     13.80s WALL (      11 calls)

     Called by *egterg:
     h_psi        :     72.78s CPU     73.36s WALL (     596 calls)
     s_psi        :      4.07s CPU      4.09s WALL (     596 calls)
     g_psi        :      0.37s CPU      0.36s WALL (     442 calls)
     cdiaghg      :      8.65s CPU      8.64s WALL (     582 calls)
     cegterg:over :      4.92s CPU      5.02s WALL (     442 calls)
     cegterg:upda :      3.06s CPU      3.09s WALL (     442 calls)
     cegterg:last :      1.93s CPU      1.96s WALL (     168 calls)

     Called by h_psi:
     h_psi:vloc   :     59.38s CPU     59.88s WALL (     596 calls)
     h_psi:vnl    :      8.40s CPU      8.45s WALL (     596 calls)
     add_vuspsi   :      4.07s CPU      4.10s WALL (     596 calls)
     vhpsi        :      4.85s CPU      4.87s WALL (     596 calls)

     General routines
     calbec       :      9.22s CPU      9.26s WALL (    1500 calls)
     fft          :      1.94s CPU      2.06s WALL (     187 calls)
     ffts         :      0.06s CPU      0.23s WALL (      23 calls)
     fftw         :     58.47s CPU     58.85s WALL (   43336 calls)
     interpolate  :      0.33s CPU      0.61s WALL (      23 calls)
     davcio       :      0.00s CPU      0.33s WALL (     322 calls)

     Parallel routines
     fft_scatter  :     16.74s CPU     17.19s WALL (   43546 calls)
     Hubbard U routines
     new_ns       :      0.91s CPU      1.03s WALL (      11 calls)
     vhpsi        :      4.85s CPU      4.87s WALL (     596 calls)

     PWSCF        :  2m43.91s CPU     2m53.10s WALL


   This run was terminated on:  14:43:11  11Nov2012            

=------------------------------------------------------------------------------=
