   JOB DONE.
=------------------------------------------------------------------------------=

     Program PWSCF v.5.0.1 starts on 11Nov2012 at 14:37:22 

     This program is part of the open-source Quantum ESPRESSO suite
     for quantum simulation of materials; please cite
         "P. Giannozzi et al., J. Phys.:Condens. Matter 21 395502 (2009);
          URL http://www.quantum-espresso.org", 
     in publications or presentations arising from this work. More details at
     http://www.quantum-espresso.org/quote.php

     Parallel version (MPI), running on     2 processors
     R & G space division:  proc/pool =    2

     Current dimensions of program PWSCF are:
     Max number of different atomic species (ntypx) = 10
     Max number of k-points (npk) =  40000
     Max angular momentum in pseudopotentials (lmaxx) =  3
     Reading input from CoLaO_U100_a-15.in
               file Co.pbe-nd-rrkjus.UPF: wavefunction(s)  4S 3D renormalized
               file Co.pbe-nd-rrkjus.UPF: wavefunction(s)  4S 3D renormalized
               file O.pbe-rrkjus.UPF: wavefunction(s)  2S renormalized

     Subspace diagonalization in iterative solution of the eigenvalue problem:
     a serial algorithm will be used


     Parallelization info
     --------------------
     sticks:   dense  smooth     PW     G-vecs:    dense   smooth      PW
     Min        1112     444    131                34808     8786    1448
     Max        1113     445    132                34809     8787    1449
     Sum        2225     889    263                69617    17573    2897


     Title: 
     GGA + U, U = 1.000, alpha = -0.150                                         


     bravais-lattice index     =            5
     lattice parameter (alat)  =      10.3292  a.u.
     unit-cell volume          =     793.0599 (a.u.)^3
     number of atoms/cell      =           10
     number of atomic types    =            4
     number of electrons       =        76.00
     number of Kohn-Sham states=           46
     kinetic-energy cutoff     =      30.0000  Ry
     charge density cutoff     =     300.0000  Ry
     convergence threshold     =      1.0E-08
     mixing beta               =       0.2000
     number of iterations used =            8  plain     mixing
     Exchange-correlation      =  SLA  PW   PBE  PBE ( 1 4 3 4 0)
     EXX-fraction              =        0.00

     celldm(1)=  10.329242  celldm(2)=   0.000000  celldm(3)=   0.000000
     celldm(4)=   0.488100  celldm(5)=   0.000000  celldm(6)=   0.000000

     crystal axes: (cart. coord. in units of alat)
               a(1) = (   0.505915  -0.292090   0.811624 )  
               a(2) = (   0.000000   0.584180   0.811624 )  
               a(3) = (  -0.505915  -0.292090   0.811624 )  

     reciprocal axes: (cart. coord. in units 2 pi/alat)
               b(1) = (  0.988308 -0.570600  0.410699 )  
               b(2) = (  0.000000  1.141200  0.410699 )  
               b(3) = ( -0.988308 -0.570600  0.410699 )  


     PseudoPot. # 1 for Co read from file:
     /home/mcurnan/dft-course/Project1/example_LaCoO3/Co.pbe-nd-rrkjus.UPF
     MD5 check sum: 3e47a84addf5e975e0edeaeee2a73f59
     Pseudo is Ultrasoft + core correction, Zval =  9.0
     Generated by new atomic code, or converted to UPF format
     Using radial grid of  961 points,  6 beta functions with: 
                l(1) =   0
                l(2) =   0
                l(3) =   1
                l(4) =   1
                l(5) =   2
                l(6) =   2
     Q(r) pseudized with 0 coefficients 


     PseudoPot. # 2 for Co read from file:
     /home/mcurnan/dft-course/Project1/example_LaCoO3/Co.pbe-nd-rrkjus.UPF
     MD5 check sum: 3e47a84addf5e975e0edeaeee2a73f59
     Pseudo is Ultrasoft + core correction, Zval =  9.0
     Generated by new atomic code, or converted to UPF format
     Using radial grid of  961 points,  6 beta functions with: 
                l(1) =   0
                l(2) =   0
                l(3) =   1
                l(4) =   1
                l(5) =   2
                l(6) =   2
     Q(r) pseudized with 0 coefficients 


     PseudoPot. # 3 for La read from file:
     /home/mcurnan/dft-course/Project1/example_LaCoO3/La.pbe-nsp-van.UPF
     MD5 check sum: b2f11743f52dde65f77d1302becd7929
     Pseudo is Ultrasoft + core correction, Zval = 11.0
     Generated by new atomic code, or converted to UPF format
     Using radial grid of  907 points,  6 beta functions with: 
                l(1) =   0
                l(2) =   0
                l(3) =   1
                l(4) =   1
                l(5) =   2
                l(6) =   2
     Q(r) pseudized with  6 coefficients,  rinner =    1.200   1.200   1.200
                                                       1.200   1.200

     PseudoPot. # 4 for O  read from file:
     /home/mcurnan/dft-course/Project1/example_LaCoO3/O.pbe-rrkjus.UPF
     MD5 check sum: 390ba29e75625707450f3bd3f0eb6be9
     Pseudo is Ultrasoft, Zval =  6.0
     Generated by new atomic code, or converted to UPF format
     Using radial grid of 1269 points,  4 beta functions with: 
                l(1) =   0
                l(2) =   0
                l(3) =   1
                l(4) =   1
     Q(r) pseudized with 0 coefficients 


     atomic species   valence    mass     pseudopotential
        Co1            9.00     1.00000     Co( 1.00)
        Co2            9.00     1.00000     Co( 1.00)
        La1           11.00     1.00000     La( 1.00)
        O1             6.00     1.00000     O ( 1.00)
 -----
     simplified LDA+U calculation, Hubbard_lmax = 2
     atomic species  L   Hubbard U  Hubbard alpha
        Co1          2    1.000000   -0.150000
        Co2          2    1.000000    0.000000
        La1          2    0.000000    0.000000
        O1           1    0.000000    0.000000
 -----

      6 Sym. Ops., with inversion, found


                                    s                        frac. trans.

      isym =  1     identity                                     

 cryst.   s( 1) = (     1          0          0      )
                  (     0          1          0      )
                  (     0          0          1      )

 cart.    s( 1) = (  1.0000000  0.0000000  0.0000000 )
                  (  0.0000000  1.0000000  0.0000000 )
                  (  0.0000000  0.0000000  1.0000000 )


      isym =  2     120 deg rotation - cryst. axis [0,0,1]       

 cryst.   s( 2) = (     0          1          0      )
                  (     0          0          1      )
                  (     1          0          0      )

 cart.    s( 2) = ( -0.5000000 -0.8660254  0.0000000 )
                  (  0.8660254 -0.5000000  0.0000000 )
                  (  0.0000000  0.0000000  1.0000000 )


      isym =  3     120 deg rotation - cryst. axis [0,0,-1]      

 cryst.   s( 3) = (     0          0          1      )
                  (     1          0          0      )
                  (     0          1          0      )

 cart.    s( 3) = ( -0.5000000  0.8660254  0.0000000 )
                  ( -0.8660254 -0.5000000  0.0000000 )
                  (  0.0000000  0.0000000  1.0000000 )


      isym =  4     inversion                                    

 cryst.   s( 4) = (    -1          0          0      )
                  (     0         -1          0      )
                  (     0          0         -1      )

 cart.    s( 4) = ( -1.0000000  0.0000000  0.0000000 )
                  (  0.0000000 -1.0000000  0.0000000 )
                  (  0.0000000  0.0000000 -1.0000000 )


      isym =  5     inv. 180 deg rotation - cart. axis [0,1,0]   

 cryst.   s( 5) = (     0         -1          0      )
                  (     0          0         -1      )
                  (    -1          0          0      )

 cart.    s( 5) = (  0.5000000  0.8660254  0.0000000 )
                  ( -0.8660254  0.5000000  0.0000000 )
                  (  0.0000000  0.0000000 -1.0000000 )


      isym =  6     inv. 180 deg rotation - cart. axis [1,0,0]   

 cryst.   s( 6) = (     0          0         -1      )
                  (    -1          0          0      )
                  (     0         -1          0      )

 cart.    s( 6) = (  0.5000000 -0.8660254  0.0000000 )
                  (  0.8660254  0.5000000  0.0000000 )
                  (  0.0000000  0.0000000 -1.0000000 )


     point group S_6 (-3)   
     there are  6 classes
     the character table:

       E     C3    C3^2  i     S6^5  S6   
A_g    1.00  1.00  1.00  1.00  1.00  1.00
E_g    1.00 -0.50 -0.50  1.00 -0.50 -0.50
E_g*   1.00 -0.50 -0.50  1.00 -0.50 -0.50
A_u    1.00  1.00  1.00 -1.00 -1.00 -1.00
E_u    1.00 -0.50 -0.50 -1.00  0.50  0.50
E_u*   1.00 -0.50 -0.50 -1.00  0.50  0.50
     imaginary part
A_g    0.00  0.00  0.00  0.00  0.00  0.00
E_g    0.00  0.87 -0.87  0.00  0.87 -0.87
E_g*   0.00 -0.87  0.87  0.00 -0.87  0.87
A_u    0.00  0.00  0.00  0.00  0.00  0.00
E_u    0.00  0.87 -0.87  0.00 -0.87  0.87
E_u*   0.00 -0.87  0.87  0.00  0.87 -0.87

     the symmetry operations in each class:
     E        1
     C3       2
     C3^2     3
     i        4
     S6^5     5
     S6       6

   Cartesian axes

     site n.     atom                  positions (alat units)
         1           Co1 tau(   1) = (   0.0000000   0.0000000   0.0000000  )
         2           Co2 tau(   2) = (   0.0000000   0.0000000   1.2174358  )
         3           La1 tau(   3) = (   0.0000000   0.0000000   0.6087179  )
         4           La1 tau(   4) = (   0.0000000   0.0000000   1.8261537  )
         5           O1  tau(   5) = (  -0.2839701  -0.0933228   1.0141240  )
         6           O1  tau(   6) = (   0.0611651   0.2925867   1.0141240  )
         7           O1  tau(   7) = (   0.2228050  -0.1992639   1.0141240  )
         8           O1  tau(   8) = (  -0.0611651  -0.2925867   1.4207476  )
         9           O1  tau(   9) = (   0.2839701   0.0933228   1.4207476  )
        10           O1  tau(  10) = (  -0.2228050   0.1992639   1.4207476  )

   Crystallographic axes

     site n.     atom                  positions (cryst. coord.)
         1           Co1 tau(   1) = (  0.0000000  0.0000000  0.0000000  )
         2           Co2 tau(   2) = (  0.5000000  0.5000000  0.5000000  )
         3           La1 tau(   3) = (  0.2500000  0.2500000  0.2500000  )
         4           La1 tau(   4) = (  0.7500000  0.7500000  0.7500000  )
         5           O1  tau(   5) = (  0.1891000  0.3100000  0.7504000  )
         6           O1  tau(   6) = (  0.3100000  0.7504000  0.1891000  )
         7           O1  tau(   7) = (  0.7504000  0.1891000  0.3100000  )
         8           O1  tau(   8) = (  0.6900000  0.2496000  0.8109000  )
         9           O1  tau(   9) = (  0.8109000  0.6900000  0.2496000  )
        10           O1  tau(  10) = (  0.2496000  0.8109000  0.6900000  )

     number of k points=    14  gaussian smearing, width (Ry)=  0.0300
                       cart. coord. in units 2pi/alat
        k(    1) = (   0.0000000   0.0000000   0.0000000), wk =   0.0312500
        k(    2) = (  -0.2470771  -0.1426500   0.1026748), wk =   0.1875000
        k(    3) = (   0.4941541   0.2853000  -0.2053496), wk =   0.0937500
        k(    4) = (  -0.2470771   0.1426500   0.2053496), wk =   0.1875000
        k(    5) = (   0.4941541   0.5706001  -0.1026748), wk =   0.1875000
        k(    6) = (   0.2470771   0.4279500   0.0000000), wk =   0.1875000
        k(    7) = (   0.4941541  -0.2853000  -0.4106993), wk =   0.0937500
        k(    8) = (   0.0000000   0.0000000   0.3080244), wk =   0.0625000
        k(    9) = (   0.7412312   0.4279500   0.0000000), wk =   0.1875000
        k(   10) = (   0.4941541   0.2853000   0.1026748), wk =   0.1875000
        k(   11) = (   0.7412312  -0.4279500  -0.3080244), wk =   0.1875000
        k(   12) = (   0.4941541  -0.5706001  -0.2053496), wk =   0.1875000
        k(   13) = (   0.0000000   0.0000000  -0.6160489), wk =   0.0312500
        k(   14) = (   0.4941541  -0.5706001   0.1026748), wk =   0.1875000

                       cryst. coord.
        k(    1) = (   0.0000000   0.0000000   0.0000000), wk =   0.0312500
        k(    2) = (   0.0000000   0.0000000   0.2500000), wk =   0.1875000
        k(    3) = (   0.0000000   0.0000000  -0.5000000), wk =   0.0937500
        k(    4) = (   0.0000000   0.2500000   0.2500000), wk =   0.1875000
        k(    5) = (   0.0000000   0.2500000  -0.5000000), wk =   0.1875000
        k(    6) = (   0.0000000   0.2500000  -0.2500000), wk =   0.1875000
        k(    7) = (   0.0000000  -0.5000000  -0.5000000), wk =   0.0937500
        k(    8) = (   0.2500000   0.2500000   0.2500000), wk =   0.0625000
        k(    9) = (   0.2500000   0.2500000  -0.5000000), wk =   0.1875000
        k(   10) = (   0.2500000   0.2500000  -0.2500000), wk =   0.1875000
        k(   11) = (   0.2500000  -0.5000000  -0.5000000), wk =   0.1875000
        k(   12) = (   0.2500000  -0.5000000  -0.2500000), wk =   0.1875000
        k(   13) = (  -0.5000000  -0.5000000  -0.5000000), wk =   0.0312500
        k(   14) = (   0.5000000  -0.2500000   0.0000000), wk =   0.1875000

     Dense  grid:    69617 G-vectors     FFT dimensions: (  60,  60,  60)

     Smooth grid:    17573 G-vectors     FFT dimensions: (  40,  40,  40)

     Largest allocated arrays     est. size (Mb)     dimensions
        Kohn-Sham Wavefunctions         0.78 Mb     (   1117,   46)
        Atomic wavefunctions            1.06 Mb     (   1117,   62)
        NL pseudopotentials             2.05 Mb     (   1117,  120)
        Each V/rho on FFT grid          1.65 Mb     ( 108000)
        Each G-vector array             0.27 Mb     (  34808)
        G-vector shells                 0.04 Mb     (   4682)
     Largest temporary arrays     est. size (Mb)     dimensions
        Auxiliary wavefunctions         3.14 Mb     (   1117,  184)
        Each subspace H/S matrix        0.52 Mb     ( 184, 184)
        Each <psi_i|beta_j> matrix      0.08 Mb     (    120,   46)
        Arrays for rho mixing          13.18 Mb     ( 108000,   8)

     Check: negative/imaginary core charge=   -0.000028    0.000000

     The initial density is read from file :
     /home/mcurnan/dft-course/Project1/example_LaCoO3/100/Co/alpha/CoLaO_U100.save/charge-density.dat

 --- in v_hubbard ---
Hubbard energy    0.0073
 -------
     Number of +U iterations with fixed ns =  0
     Starting occupations:
 --- enter write_ns ---
 LDA+U parameters:
U( 1)     =  1.00000000
alpha( 1) = -0.15000000
U( 2)     =  1.00000000
alpha( 2) =  0.00000000
U( 3)     =  0.00000000
alpha( 3) =  0.00000000
U( 4)     =  0.00000000
alpha( 4) =  0.00000000
atom    1   Tr[ns(na)] =   8.02206
    eigenvalues: 
  0.596  0.596  0.938  0.941  0.941
    eigenvectors:
  0.000  0.000  1.000  0.000  0.000
  0.333  0.322  0.000  0.004  0.341
  0.322  0.333  0.000  0.341  0.004
  0.289  0.056  0.000  0.515  0.140
  0.056  0.289  0.000  0.140  0.515
    occupations:
  0.938  0.000  0.000  0.000  0.000
  0.000  0.715  0.000 -0.060  0.152
  0.000  0.000  0.715  0.152  0.060
  0.000 -0.060  0.152  0.822  0.000
  0.000  0.152  0.060  0.000  0.822
atom    2   Tr[ns(na)] =   8.02145
    eigenvalues: 
  0.595  0.595  0.938  0.941  0.941
    eigenvectors:
  0.000  0.000  1.000  0.000  0.000
  0.640  0.015  0.000  0.223  0.122
  0.015  0.640  0.000  0.122  0.223
  0.017  0.329  0.000  0.470  0.185
  0.329  0.017  0.000  0.185  0.470
    occupations:
  0.938  0.000  0.000  0.000  0.000
  0.000  0.715  0.000  0.060  0.153
  0.000  0.000  0.715  0.153 -0.060
  0.000  0.060  0.153  0.822  0.000
  0.000  0.153 -0.060  0.000  0.822
atom    3   Tr[ns(na)] =   3.80284
    eigenvalues: 
  0.355  0.355  0.384  0.403  0.403
    eigenvectors:
  0.000  0.000  1.000  0.000  0.000
  0.781  0.139  0.000  0.012  0.068
  0.139  0.781  0.000  0.068  0.012
  0.013  0.067  0.000  0.780  0.141
  0.067  0.013  0.000  0.141  0.780
    occupations:
  0.384  0.000  0.000  0.000  0.000
  0.000  0.359  0.000  0.000  0.013
  0.000  0.000  0.359  0.013  0.000
  0.000  0.000  0.013  0.399  0.000
  0.000  0.013  0.000  0.000  0.399
atom    4   Tr[ns(na)] =   3.80284
    eigenvalues: 
  0.355  0.355  0.384  0.403  0.403
    eigenvectors:
  0.000  0.000  1.000  0.000  0.000
  0.782  0.139  0.000  0.012  0.068
  0.139  0.782  0.000  0.068  0.012
  0.012  0.067  0.000  0.780  0.141
  0.067  0.012  0.000  0.141  0.780
    occupations:
  0.384  0.000  0.000  0.000  0.000
  0.000  0.359  0.000  0.000  0.013
  0.000  0.000  0.359  0.013  0.000
  0.000  0.000  0.013  0.399  0.000
  0.000  0.013  0.000  0.000  0.399
atom    5   Tr[ns(na)] =   5.43357
    eigenvalues: 
  0.846  0.929  0.941
    eigenvectors:
  0.340  0.000  0.660
  0.494  0.250  0.256
  0.166  0.750  0.085
    occupations:
  0.909  0.039  0.022
  0.039  0.891 -0.022
  0.022 -0.022  0.917
atom    6   Tr[ns(na)] =   5.43357
    eigenvalues: 
  0.846  0.929  0.941
    eigenvectors:
  0.340  0.000  0.660
  0.000  1.000  0.000
  0.660  0.000  0.340
    occupations:
  0.909  0.000 -0.045
  0.000  0.929  0.000
 -0.045  0.000  0.879
atom    7   Tr[ns(na)] =   5.43357
    eigenvalues: 
  0.846  0.929  0.941
    eigenvectors:
  0.340  0.000  0.660
  0.496  0.250  0.255
  0.164  0.750  0.086
    occupations:
  0.909 -0.039  0.022
 -0.039  0.891  0.022
  0.022  0.022  0.917
atom    8   Tr[ns(na)] =   5.43357
    eigenvalues: 
  0.846  0.929  0.941
    eigenvectors:
  0.340  0.000  0.660
  0.000  1.000  0.000
  0.660  0.000  0.340
    occupations:
  0.909  0.000 -0.045
  0.000  0.929  0.000
 -0.045  0.000  0.879
atom    9   Tr[ns(na)] =   5.43357
    eigenvalues: 
  0.846  0.929  0.941
    eigenvectors:
  0.340  0.000  0.660
  0.494  0.250  0.256
  0.166  0.750  0.085
    occupations:
  0.909  0.039  0.022
  0.039  0.891 -0.022
  0.022 -0.022  0.917
atom   10   Tr[ns(na)] =   5.43357
    eigenvalues: 
  0.846  0.929  0.941
    eigenvectors:
  0.340  0.000  0.660
  0.496  0.250  0.255
  0.164  0.750  0.086
    occupations:
  0.909 -0.039  0.022
 -0.039  0.891  0.022
  0.022  0.022  0.917
N of occupied +U levels =  56.2506062
 --- exit write_ns ---
 LDA+U Projector read from file 
     Starting wfc from file

     total cpu time spent up to now is        7.8 secs

     per-process dynamical memory:    46.9 Mb

     Self-consistent Calculation

     iteration #  1     ecut=    30.00 Ry     beta=0.20
     Davidson diagonalization with overlap
     c_bands:  1 eigenvalues not converged
     c_bands:  1 eigenvalues not converged
     ethr =  1.00E-10,  avg # of iterations = 14.9
 --- enter write_ns ---
 LDA+U parameters:
U( 1)     =  1.00000000
alpha( 1) = -0.15000000
U( 2)     =  1.00000000
alpha( 2) =  0.00000000
U( 3)     =  0.00000000
alpha( 3) =  0.00000000
U( 4)     =  0.00000000
alpha( 4) =  0.00000000
atom    1   Tr[ns(na)] =   8.16981
    eigenvalues: 
  0.591  0.591  0.968  0.968  0.968
    eigenvectors:
  0.000  0.000  0.000  0.000  1.000
  0.331  0.323  0.004  0.342  0.000
  0.323  0.331  0.342  0.004  0.000
  0.289  0.057  0.514  0.140  0.000
  0.057  0.289  0.140  0.514  0.000
    occupations:
  0.968  0.000  0.000  0.000  0.000
  0.000  0.721  0.000 -0.066  0.167
  0.000  0.000  0.721  0.167  0.066
  0.000 -0.066  0.167  0.837  0.000
  0.000  0.167  0.066  0.000  0.837
atom    2   Tr[ns(na)] =   8.03101
    eigenvalues: 
  0.574  0.574  0.955  0.956  0.956
    eigenvectors:
  0.000  0.000  1.000  0.000  0.000
  0.633  0.021  0.000  0.217  0.129
  0.021  0.633  0.000  0.129  0.217
  0.010  0.336  0.000  0.469  0.186
  0.336  0.010  0.000  0.186  0.469
    occupations:
  0.955  0.000  0.000  0.000  0.000
  0.000  0.706  0.000  0.063  0.171
  0.000  0.000  0.706  0.171 -0.063
  0.000  0.063  0.171  0.824  0.000
  0.000  0.171 -0.063  0.000  0.824
atom    3   Tr[ns(na)] =   3.79856
    eigenvalues: 
  0.356  0.356  0.383  0.403  0.403
    eigenvectors:
  0.000  0.000  1.000  0.000  0.000
  0.780  0.140  0.000  0.012  0.069
  0.140  0.780  0.000  0.069  0.012
  0.013  0.067  0.000  0.779  0.141
  0.067  0.013  0.000  0.141  0.779
    occupations:
  0.383  0.000  0.000  0.000  0.000
  0.000  0.359  0.000  0.000  0.013
  0.000  0.000  0.359  0.013  0.000
  0.000  0.000  0.013  0.399  0.000
  0.000  0.013  0.000  0.000  0.399
atom    4   Tr[ns(na)] =   3.79856
    eigenvalues: 
  0.356  0.356  0.383  0.403  0.403
    eigenvectors:
  0.000  0.000  1.000  0.000  0.000
  0.780  0.140  0.000  0.012  0.069
  0.140  0.780  0.000  0.069  0.012
  0.013  0.067  0.000  0.779  0.141
  0.067  0.013  0.000  0.141  0.779
    occupations:
  0.383  0.000  0.000  0.000  0.000
  0.000  0.359  0.000  0.000  0.013
  0.000  0.000  0.359  0.013  0.000
  0.000  0.000  0.013  0.399  0.000
  0.000  0.013  0.000  0.000  0.399
atom    5   Tr[ns(na)] =   5.41452
    eigenvalues: 
  0.839  0.927  0.942
    eigenvectors:
  0.341  0.000  0.659
  0.488  0.257  0.255
  0.171  0.743  0.086
    occupations:
  0.907  0.042  0.025
  0.042  0.888 -0.023
  0.025 -0.023  0.913
atom    6   Tr[ns(na)] =   5.41452
    eigenvalues: 
  0.839  0.927  0.942
    eigenvectors:
  0.341  0.000  0.659
  0.000  1.000  0.000
  0.659  0.000  0.341
    occupations:
  0.907  0.001 -0.049
  0.001  0.927  0.001
 -0.049  0.001  0.874
atom    7   Tr[ns(na)] =   5.41452
    eigenvalues: 
  0.839  0.927  0.942
    eigenvectors:
  0.341  0.000  0.659
  0.501  0.243  0.256
  0.158  0.757  0.085
    occupations:
  0.907 -0.043  0.024
 -0.043  0.887  0.023
  0.024  0.023  0.914
atom    8   Tr[ns(na)] =   5.41452
    eigenvalues: 
  0.839  0.927  0.942
    eigenvectors:
  0.341  0.000  0.659
  0.000  1.000  0.000
  0.659  0.000  0.341
    occupations:
  0.907  0.001 -0.049
  0.001  0.927  0.001
 -0.049  0.001  0.874
atom    9   Tr[ns(na)] =   5.41452
    eigenvalues: 
  0.839  0.927  0.942
    eigenvectors:
  0.341  0.000  0.659
  0.488  0.257  0.255
  0.171  0.743  0.086
    occupations:
  0.907  0.042  0.025
  0.042  0.888 -0.023
  0.025 -0.023  0.913
atom   10   Tr[ns(na)] =   5.41452
    eigenvalues: 
  0.839  0.927  0.942
    eigenvectors:
  0.341  0.000  0.659
  0.501  0.243  0.256
  0.158  0.757  0.085
    occupations:
  0.907 -0.043  0.024
 -0.043  0.887  0.023
  0.024  0.023  0.914
N of occupied +U levels =  56.2850616
 --- exit write_ns ---
 --- in v_hubbard ---
Hubbard energy    0.0054
 -------

     total cpu time spent up to now is       39.1 secs

     total energy              =    -538.32625935 Ry
     Harris-Foulkes estimate   =    -538.33084944 Ry
     estimated scf accuracy    <       0.01479697 Ry

     iteration #  2     ecut=    30.00 Ry     beta=0.20
     Davidson diagonalization with overlap
     ethr =  1.95E-05,  avg # of iterations =  2.0
 --- enter write_ns ---
 LDA+U parameters:
U( 1)     =  1.00000000
alpha( 1) = -0.15000000
U( 2)     =  1.00000000
alpha( 2) =  0.00000000
U( 3)     =  0.00000000
alpha( 3) =  0.00000000
U( 4)     =  0.00000000
alpha( 4) =  0.00000000
atom    1   Tr[ns(na)] =   7.82573
    eigenvalues: 
  0.551  0.551  0.935  0.938  0.938
    eigenvectors:
  0.000  0.000  1.000  0.000  0.000
  0.326  0.329  0.000  0.008  0.337
  0.329  0.326  0.000  0.337  0.008
  0.281  0.064  0.000  0.510  0.145
  0.064  0.281  0.000  0.145  0.510
    occupations:
  0.935  0.000  0.000  0.000  0.000
  0.000  0.684  0.000 -0.061  0.174
  0.000  0.000  0.684  0.174  0.061
  0.000 -0.061  0.174  0.805  0.000
  0.000  0.174  0.061  0.000  0.805
atom    2   Tr[ns(na)] =   8.23661
    eigenvalues: 
  0.593  0.593  0.977  0.977  0.978
    eigenvectors:
  0.000  0.000  0.000  0.000  1.000
  0.643  0.012  0.229  0.116  0.000
  0.012  0.643  0.116  0.229  0.000
  0.023  0.322  0.471  0.184  0.000
  0.322  0.023  0.184  0.471  0.000
    occupations:
  0.978  0.000  0.000  0.000  0.000
  0.000  0.725  0.000  0.070  0.169
  0.000  0.000  0.725  0.169 -0.070
  0.000  0.070  0.169  0.845  0.000
  0.000  0.169 -0.070  0.000  0.845
atom    3   Tr[ns(na)] =   3.79697
    eigenvalues: 
  0.355  0.355  0.383  0.403  0.403
    eigenvectors:
  0.000  0.000  1.000  0.000  0.000
  0.782  0.139  0.000  0.013  0.067
  0.139  0.782  0.000  0.067  0.013
  0.012  0.068  0.000  0.780  0.141
  0.068  0.012  0.000  0.141  0.780
    occupations:
  0.383  0.000  0.000  0.000  0.000
  0.000  0.359  0.000  0.000  0.013
  0.000  0.000  0.359  0.013  0.000
  0.000  0.000  0.013  0.399  0.000
  0.000  0.013  0.000  0.000  0.399
atom    4   Tr[ns(na)] =   3.79697
    eigenvalues: 
  0.355  0.355  0.383  0.403  0.403
    eigenvectors:
  0.000  0.000  1.000  0.000  0.000
  0.782  0.139  0.000  0.012  0.067
  0.139  0.782  0.000  0.067  0.012
  0.012  0.068  0.000  0.780  0.141
  0.068  0.012  0.000  0.141  0.780
    occupations:
  0.383  0.000  0.000  0.000  0.000
  0.000  0.359  0.000  0.000  0.013
  0.000  0.000  0.359  0.013  0.000
  0.000  0.000  0.013  0.399  0.000
  0.000  0.013  0.000  0.000  0.399
atom    5   Tr[ns(na)] =   5.43548
    eigenvalues: 
  0.845  0.930  0.943
    eigenvectors:
  0.339  0.000  0.661
  0.511  0.230  0.260
  0.150  0.770  0.080
    occupations:
  0.910  0.041  0.022
  0.041  0.890 -0.021
  0.022 -0.021  0.918
atom    6   Tr[ns(na)] =   5.43548
    eigenvalues: 
  0.845  0.930  0.943
    eigenvectors:
  0.339  0.000  0.661
  0.000  0.999  0.000
  0.660  0.001  0.339
    occupations:
  0.910 -0.001 -0.046
 -0.001  0.930 -0.001
 -0.046 -0.001  0.878
atom    7   Tr[ns(na)] =   5.43548
    eigenvalues: 
  0.845  0.930  0.943
    eigenvectors:
  0.339  0.000  0.661
  0.480  0.271  0.249
  0.181  0.729  0.090
    occupations:
  0.910 -0.039  0.024
 -0.039  0.892  0.023
  0.024  0.023  0.916
atom    8   Tr[ns(na)] =   5.43548
    eigenvalues: 
  0.845  0.930  0.943
    eigenvectors:
  0.339  0.000  0.661
  0.000  0.999  0.000
  0.660  0.001  0.339
    occupations:
  0.910 -0.001 -0.046
 -0.001  0.930 -0.001
 -0.046 -0.001  0.878
atom    9   Tr[ns(na)] =   5.43548
    eigenvalues: 
  0.845  0.930  0.943
    eigenvectors:
  0.339  0.000  0.661
  0.511  0.230  0.260
  0.150  0.770  0.080
    occupations:
  0.910  0.041  0.022
  0.041  0.890 -0.021
  0.022 -0.021  0.918
atom   10   Tr[ns(na)] =   5.43548
    eigenvalues: 
  0.845  0.930  0.943
    eigenvectors:
  0.339  0.000  0.661
  0.480  0.271  0.249
  0.181  0.729  0.090
    occupations:
  0.910 -0.039  0.024
 -0.039  0.892  0.023
  0.024  0.023  0.916
N of occupied +U levels =  56.2691343
 --- exit write_ns ---
 --- in v_hubbard ---
Hubbard energy    0.0053
 -------

     total cpu time spent up to now is       51.6 secs

     total energy              =    -538.32459997 Ry
     Harris-Foulkes estimate   =    -538.33416295 Ry
     estimated scf accuracy    <       0.10304833 Ry

     iteration #  3     ecut=    30.00 Ry     beta=0.20
     Davidson diagonalization with overlap
     ethr =  1.95E-05,  avg # of iterations =  1.9
 --- enter write_ns ---
 LDA+U parameters:
U( 1)     =  1.00000000
alpha( 1) = -0.15000000
U( 2)     =  1.00000000
alpha( 2) =  0.00000000
U( 3)     =  0.00000000
alpha( 3) =  0.00000000
U( 4)     =  0.00000000
alpha( 4) =  0.00000000
atom    1   Tr[ns(na)] =   8.08251
    eigenvalues: 
  0.573  0.573  0.965  0.965  0.965
    eigenvectors:
  0.000  0.000  1.000  0.000  0.000
  0.333  0.322  0.000  0.004  0.341
  0.322  0.333  0.000  0.341  0.004
  0.288  0.057  0.000  0.515  0.140
  0.057  0.288  0.000  0.140  0.515
    occupations:
  0.965  0.000  0.000  0.000  0.000
  0.000  0.708  0.000 -0.068  0.173
  0.000  0.000  0.708  0.173  0.068
  0.000 -0.068  0.173  0.830  0.000
  0.000  0.173  0.068  0.000  0.830
atom    2   Tr[ns(na)] =   7.99878
    eigenvalues: 
  0.562  0.562  0.957  0.959  0.959
    eigenvectors:
  0.000  0.000  1.000  0.000  0.000
  0.636  0.019  0.000  0.219  0.126
  0.019  0.636  0.000  0.126  0.219
  0.012  0.333  0.000  0.470  0.185
  0.333  0.012  0.000  0.185  0.470
    occupations:
  0.957  0.000  0.000  0.000  0.000
  0.000  0.699  0.000  0.066  0.176
  0.000  0.000  0.699  0.176 -0.066
  0.000  0.066  0.176  0.822  0.000
  0.000  0.176 -0.066  0.000  0.822
atom    3   Tr[ns(na)] =   3.79671
    eigenvalues: 
  0.355  0.355  0.383  0.402  0.402
    eigenvectors:
  0.000  0.000  1.000  0.000  0.000
  0.781  0.139  0.000  0.012  0.068
  0.139  0.781  0.000  0.068  0.012
  0.013  0.067  0.000  0.780  0.141
  0.067  0.013  0.000  0.141  0.780
    occupations:
  0.383  0.000  0.000  0.000  0.000
  0.000  0.359  0.000  0.000  0.013
  0.000  0.000  0.359  0.013  0.000
  0.000  0.000  0.013  0.399  0.000
  0.000  0.013  0.000  0.000  0.399
atom    4   Tr[ns(na)] =   3.79671
    eigenvalues: 
  0.355  0.355  0.383  0.402  0.402
    eigenvectors:
  0.000  0.000  1.000  0.000  0.000
  0.781  0.139  0.000  0.012  0.068
  0.139  0.781  0.000  0.068  0.012
  0.013  0.067  0.000  0.780  0.141
  0.067  0.013  0.000  0.141  0.780
    occupations:
  0.383  0.000  0.000  0.000  0.000
  0.000  0.359  0.000  0.000  0.013
  0.000  0.000  0.359  0.013  0.000
  0.000  0.000  0.013  0.399  0.000
  0.000  0.013  0.000  0.000  0.399
atom    5   Tr[ns(na)] =   5.43361
    eigenvalues: 
  0.844  0.930  0.943
    eigenvectors:
  0.339  0.000  0.661
  0.491  0.255  0.254
  0.170  0.745  0.085
    occupations:
  0.910  0.040  0.024
  0.040  0.891 -0.023
  0.024 -0.023  0.916
atom    6   Tr[ns(na)] =   5.43361
    eigenvalues: 
  0.844  0.930  0.943
    eigenvectors:
  0.339  0.000  0.661
  0.000  1.000  0.000
  0.661  0.000  0.339
    occupations:
  0.910  0.000 -0.047
  0.000  0.930  0.000
 -0.047  0.000  0.878
atom    7   Tr[ns(na)] =   5.43361
    eigenvalues: 
  0.844  0.930  0.943
    eigenvectors:
  0.339  0.000  0.661
  0.500  0.245  0.255
  0.161  0.755  0.085
    occupations:
  0.910 -0.041  0.023
 -0.041  0.890  0.022
  0.023  0.022  0.917
atom    8   Tr[ns(na)] =   5.43361
    eigenvalues: 
  0.844  0.930  0.943
    eigenvectors:
  0.339  0.000  0.661
  0.000  1.000  0.000
  0.661  0.000  0.339
    occupations:
  0.910  0.000 -0.047
  0.000  0.930  0.000
 -0.047  0.000  0.878
atom    9   Tr[ns(na)] =   5.43361
    eigenvalues: 
  0.844  0.930  0.943
    eigenvectors:
  0.339  0.000  0.661
  0.491  0.255  0.254
  0.170  0.745  0.085
    occupations:
  0.910  0.040  0.024
  0.040  0.891 -0.023
  0.024 -0.023  0.916
atom   10   Tr[ns(na)] =   5.43361
    eigenvalues: 
  0.844  0.930  0.943
    eigenvectors:
  0.339  0.000  0.661
  0.500  0.245  0.255
  0.161  0.755  0.085
    occupations:
  0.910 -0.041  0.023
 -0.041  0.890  0.022
  0.023  0.022  0.917
N of occupied +U levels =  56.2763895
 --- exit write_ns ---
 --- in v_hubbard ---
Hubbard energy    0.0046
 -------

     total cpu time spent up to now is       62.9 secs

     total energy              =    -538.32969550 Ry
     Harris-Foulkes estimate   =    -538.32994312 Ry
     estimated scf accuracy    <       0.00394841 Ry

     iteration #  4     ecut=    30.00 Ry     beta=0.20
     Davidson diagonalization with overlap
     ethr =  5.20E-06,  avg # of iterations =  1.0
 --- enter write_ns ---
 LDA+U parameters:
U( 1)     =  1.00000000
alpha( 1) = -0.15000000
U( 2)     =  1.00000000
alpha( 2) =  0.00000000
U( 3)     =  0.00000000
alpha( 3) =  0.00000000
U( 4)     =  0.00000000
alpha( 4) =  0.00000000
atom    1   Tr[ns(na)] =   8.06583
    eigenvalues: 
  0.573  0.573  0.962  0.963  0.963
    eigenvectors:
  0.000  0.000  1.000  0.000  0.000
  0.332  0.323  0.000  0.004  0.340
  0.323  0.332  0.000  0.340  0.004
  0.287  0.058  0.000  0.514  0.141
  0.058  0.287  0.000  0.141  0.514
    occupations:
  0.962  0.000  0.000  0.000  0.000
  0.000  0.707  0.000 -0.067  0.173
  0.000  0.000  0.707  0.173  0.067
  0.000 -0.067  0.173  0.828  0.000
  0.000  0.173  0.067  0.000  0.828
atom    2   Tr[ns(na)] =   8.04049
    eigenvalues: 
  0.568  0.568  0.960  0.962  0.962
    eigenvectors:
  0.000  0.000  1.000  0.000  0.000
  0.637  0.018  0.000  0.220  0.125
  0.018  0.637  0.000  0.125  0.220
  0.013  0.332  0.000  0.470  0.185
  0.332  0.013  0.000  0.185  0.470
    occupations:
  0.960  0.000  0.000  0.000  0.000
  0.000  0.704  0.000  0.066  0.175
  0.000  0.000  0.704  0.175 -0.066
  0.000  0.066  0.175  0.826  0.000
  0.000  0.175 -0.066  0.000  0.826
atom    3   Tr[ns(na)] =   3.79692
    eigenvalues: 
  0.355  0.355  0.383  0.402  0.402
    eigenvectors:
  0.000  0.000  1.000  0.000  0.000
  0.782  0.139  0.000  0.012  0.068
  0.139  0.782  0.000  0.068  0.012
  0.013  0.067  0.000  0.780  0.141
  0.067  0.013  0.000  0.141  0.780
    occupations:
  0.383  0.000  0.000  0.000  0.000
  0.000  0.359  0.000  0.000  0.013
  0.000  0.000  0.359  0.013  0.000
  0.000  0.000  0.013  0.399  0.000
  0.000  0.013  0.000  0.000  0.399
atom    4   Tr[ns(na)] =   3.79692
    eigenvalues: 
  0.355  0.355  0.383  0.402  0.402
    eigenvectors:
  0.000  0.000  1.000  0.000  0.000
  0.782  0.139  0.000  0.012  0.068
  0.139  0.782  0.000  0.068  0.012
  0.012  0.067  0.000  0.780  0.141
  0.067  0.012  0.000  0.141  0.780
    occupations:
  0.383  0.000  0.000  0.000  0.000
  0.000  0.359  0.000  0.000  0.013
  0.000  0.000  0.359  0.013  0.000
  0.000  0.000  0.013  0.399  0.000
  0.000  0.013  0.000  0.000  0.399
atom    5   Tr[ns(na)] =   5.42974
    eigenvalues: 
  0.843  0.929  0.943
    eigenvectors:
  0.340  0.000  0.660
  0.493  0.252  0.255
  0.167  0.748  0.084
    occupations:
  0.909  0.041  0.024
  0.041  0.890 -0.023
  0.024 -0.023  0.916
atom    6   Tr[ns(na)] =   5.42974
    eigenvalues: 
  0.843  0.929  0.943
    eigenvectors:
  0.340  0.000  0.660
  0.000  1.000  0.000
  0.660  0.000  0.340
    occupations:
  0.909  0.000 -0.047
  0.000  0.929  0.000
 -0.047  0.000  0.877
atom    7   Tr[ns(na)] =   5.42974
    eigenvalues: 
  0.843  0.929  0.943
    eigenvectors:
  0.340  0.000  0.660
  0.497  0.248  0.254
  0.163  0.752  0.085
    occupations:
  0.909 -0.041  0.024
 -0.041  0.890  0.022
  0.024  0.022  0.916
atom    8   Tr[ns(na)] =   5.42974
    eigenvalues: 
  0.843  0.929  0.943
    eigenvectors:
  0.340  0.000  0.660
  0.000  1.000  0.000
  0.660  0.000  0.340
    occupations:
  0.909  0.000 -0.047
  0.000  0.929  0.000
 -0.047  0.000  0.877
atom    9   Tr[ns(na)] =   5.42974
    eigenvalues: 
  0.843  0.929  0.943
    eigenvectors:
  0.340  0.000  0.660
  0.493  0.252  0.255
  0.167  0.748  0.084
    occupations:
  0.909  0.041  0.024
  0.041  0.890 -0.023
  0.024 -0.023  0.916
atom   10   Tr[ns(na)] =   5.42974
    eigenvalues: 
  0.843  0.929  0.943
    eigenvectors:
  0.340  0.000  0.660
  0.497  0.248  0.254
  0.163  0.752  0.085
    occupations:
  0.909 -0.041  0.024
 -0.041  0.890  0.022
  0.024  0.022  0.916
N of occupied +U levels =  56.2786200
 --- exit write_ns ---
 --- in v_hubbard ---
Hubbard energy   -0.0020
 -------

     total cpu time spent up to now is       74.0 secs

     total energy              =    -538.32978505 Ry
     Harris-Foulkes estimate   =    -538.32982973 Ry
     estimated scf accuracy    <       0.00098853 Ry

     iteration #  5     ecut=    30.00 Ry     beta=0.20
     Davidson diagonalization with overlap
     ethr =  1.30E-06,  avg # of iterations =  1.0
 --- enter write_ns ---
 LDA+U parameters:
U( 1)     =  1.00000000
alpha( 1) = -0.15000000
U( 2)     =  1.00000000
alpha( 2) =  0.00000000
U( 3)     =  0.00000000
alpha( 3) =  0.00000000
U( 4)     =  0.00000000
alpha( 4) =  0.00000000
atom    1   Tr[ns(na)] =   8.06204
    eigenvalues: 
  0.572  0.572  0.961  0.963  0.963
    eigenvectors:
  0.000  0.000  1.000  0.000  0.000
  0.334  0.322  0.000  0.004  0.339
  0.322  0.334  0.000  0.339  0.004
  0.285  0.058  0.000  0.516  0.141
  0.058  0.285  0.000  0.141  0.516
    occupations:
  0.961  0.000  0.000  0.000  0.000
  0.000  0.706  0.000 -0.067  0.173
  0.000  0.000  0.706  0.173  0.067
  0.000 -0.067  0.173  0.829  0.000
  0.000  0.173  0.067  0.000  0.829
atom    2   Tr[ns(na)] =   8.04943
    eigenvalues: 
  0.569  0.569  0.961  0.963  0.963
    eigenvectors:
  0.000  0.000  1.000  0.000  0.000
  0.638  0.018  0.000  0.219  0.124
  0.018  0.638  0.000  0.124  0.219
  0.013  0.330  0.000  0.472  0.185
  0.330  0.013  0.000  0.185  0.472
    occupations:
  0.961  0.000  0.000  0.000  0.000
  0.000  0.704  0.000  0.067  0.175
  0.000  0.000  0.704  0.175 -0.067
  0.000  0.067  0.175  0.828  0.000
  0.000  0.175 -0.067  0.000  0.828
atom    3   Tr[ns(na)] =   3.79875
    eigenvalues: 
  0.356  0.356  0.383  0.403  0.403
    eigenvectors:
  0.000  0.000  1.000  0.000  0.000
  0.783  0.139  0.000  0.011  0.067
  0.139  0.783  0.000  0.067  0.011
  0.012  0.066  0.000  0.781  0.140
  0.066  0.012  0.000  0.140  0.781
    occupations:
  0.383  0.000  0.000  0.000  0.000
  0.000  0.359  0.000  0.000  0.013
  0.000  0.000  0.359  0.013  0.000
  0.000  0.000  0.013  0.399  0.000
  0.000  0.013  0.000  0.000  0.399
atom    4   Tr[ns(na)] =   3.79875
    eigenvalues: 
  0.356  0.356  0.383  0.403  0.403
    eigenvectors:
  0.000  0.000  1.000  0.000  0.000
  0.783  0.138  0.000  0.011  0.067
  0.138  0.783  0.000  0.067  0.011
  0.012  0.066  0.000  0.781  0.140
  0.066  0.012  0.000  0.140  0.781
    occupations:
  0.383  0.000  0.000  0.000  0.000
  0.000  0.359  0.000  0.000  0.013
  0.000  0.000  0.359  0.013  0.000
  0.000  0.000  0.013  0.399  0.000
  0.000  0.013  0.000  0.000  0.399
atom    5   Tr[ns(na)] =   5.42840
    eigenvalues: 
  0.843  0.929  0.943
    eigenvectors:
  0.339  0.000  0.661
  0.494  0.251  0.255
  0.167  0.749  0.084
    occupations:
  0.909  0.041  0.024
  0.041  0.890 -0.023
  0.024 -0.023  0.916
atom    6   Tr[ns(na)] =   5.42840
    eigenvalues: 
  0.843  0.929  0.943
    eigenvectors:
  0.339  0.000  0.661
  0.000  1.000  0.000
  0.661  0.000  0.339
    occupations:
  0.909  0.000 -0.047
  0.000  0.929  0.000
 -0.047  0.000  0.877
atom    7   Tr[ns(na)] =   5.42840
    eigenvalues: 
  0.843  0.929  0.943
    eigenvectors:
  0.339  0.000  0.661
  0.497  0.249  0.254
  0.164  0.751  0.086
    occupations:
  0.909 -0.041  0.024
 -0.041  0.890  0.023
  0.024  0.023  0.916
atom    8   Tr[ns(na)] =   5.42840
    eigenvalues: 
  0.843  0.929  0.943
    eigenvectors:
  0.339  0.000  0.661
  0.000  1.000  0.000
  0.661  0.000  0.339
    occupations:
  0.909  0.000 -0.047
  0.000  0.929  0.000
 -0.047  0.000  0.877
atom    9   Tr[ns(na)] =   5.42840
    eigenvalues: 
  0.843  0.929  0.943
    eigenvectors:
  0.339  0.000  0.661
  0.494  0.251  0.255
  0.167  0.749  0.084
    occupations:
  0.909  0.041  0.024
  0.041  0.890 -0.023
  0.024 -0.023  0.916
atom   10   Tr[ns(na)] =   5.42840
    eigenvalues: 
  0.843  0.929  0.943
    eigenvectors:
  0.339  0.000  0.661
  0.497  0.249  0.254
  0.164  0.751  0.086
    occupations:
  0.909 -0.041  0.024
 -0.041  0.890  0.023
  0.024  0.023  0.916
N of occupied +U levels =  56.2793629
 --- exit write_ns ---
 --- in v_hubbard ---
Hubbard energy   -0.0006
 -------

     total cpu time spent up to now is       85.6 secs

     total energy              =    -538.32986345 Ry
     Harris-Foulkes estimate   =    -538.32981360 Ry
     estimated scf accuracy    <       0.00011308 Ry

     iteration #  6     ecut=    30.00 Ry     beta=0.20
     Davidson diagonalization with overlap
     ethr =  1.49E-07,  avg # of iterations =  1.8
 --- enter write_ns ---
 LDA+U parameters:
U( 1)     =  1.00000000
alpha( 1) = -0.15000000
U( 2)     =  1.00000000
alpha( 2) =  0.00000000
U( 3)     =  0.00000000
alpha( 3) =  0.00000000
U( 4)     =  0.00000000
alpha( 4) =  0.00000000
atom    1   Tr[ns(na)] =   8.06286
    eigenvalues: 
  0.572  0.572  0.962  0.963  0.963
    eigenvectors:
  0.000  0.000  1.000  0.000  0.000
  0.334  0.322  0.000  0.004  0.340
  0.322  0.334  0.000  0.340  0.004
  0.286  0.058  0.000  0.515  0.141
  0.058  0.286  0.000  0.141  0.515
    occupations:
  0.962  0.000  0.000  0.000  0.000
  0.000  0.706  0.000 -0.067  0.173
  0.000  0.000  0.706  0.173  0.067
  0.000 -0.067  0.173  0.828  0.000
  0.000  0.173  0.067  0.000  0.828
atom    2   Tr[ns(na)] =   8.04264
    eigenvalues: 
  0.568  0.568  0.961  0.963  0.963
    eigenvectors:
  0.000  0.000  1.000  0.000  0.000
  0.638  0.018  0.000  0.219  0.125
  0.018  0.638  0.000  0.125  0.219
  0.013  0.331  0.000  0.471  0.185
  0.331  0.013  0.000  0.185  0.471
    occupations:
  0.961  0.000  0.000  0.000  0.000
  0.000  0.703  0.000  0.067  0.175
  0.000  0.000  0.703  0.175 -0.067
  0.000  0.067  0.175  0.827  0.000
  0.000  0.175 -0.067  0.000  0.827
atom    3   Tr[ns(na)] =   3.79825
    eigenvalues: 
  0.356  0.356  0.383  0.403  0.403
    eigenvectors:
  0.000  0.000  1.000  0.000  0.000
  0.783  0.139  0.000  0.011  0.067
  0.139  0.783  0.000  0.067  0.011
  0.012  0.066  0.000  0.781  0.140
  0.066  0.012  0.000  0.140  0.781
    occupations:
  0.383  0.000  0.000  0.000  0.000
  0.000  0.359  0.000  0.000  0.013
  0.000  0.000  0.359  0.013  0.000
  0.000  0.000  0.013  0.399  0.000
  0.000  0.013  0.000  0.000  0.399
atom    4   Tr[ns(na)] =   3.79825
    eigenvalues: 
  0.356  0.356  0.383  0.403  0.403
    eigenvectors:
  0.000  0.000  1.000  0.000  0.000
  0.783  0.139  0.000  0.011  0.067
  0.139  0.783  0.000  0.067  0.011
  0.012  0.066  0.000  0.781  0.140
  0.066  0.012  0.000  0.140  0.781
    occupations:
  0.383  0.000  0.000  0.000  0.000
  0.000  0.359  0.000  0.000  0.013
  0.000  0.000  0.359  0.013  0.000
  0.000  0.000  0.013  0.399  0.000
  0.000  0.013  0.000  0.000  0.399
atom    5   Tr[ns(na)] =   5.42943
    eigenvalues: 
  0.843  0.929  0.943
    eigenvectors:
  0.339  0.000  0.661
  0.494  0.251  0.255
  0.167  0.749  0.084
    occupations:
  0.909  0.041  0.024
  0.041  0.890 -0.023
  0.024 -0.023  0.916
atom    6   Tr[ns(na)] =   5.42943
    eigenvalues: 
  0.843  0.929  0.943
    eigenvectors:
  0.339  0.000  0.661
  0.000  1.000  0.000
  0.661  0.000  0.339
    occupations:
  0.909  0.000 -0.047
  0.000  0.929  0.000
 -0.047  0.000  0.877
atom    7   Tr[ns(na)] =   5.42943
    eigenvalues: 
  0.843  0.929  0.943
    eigenvectors:
  0.339  0.000  0.661
  0.497  0.249  0.254
  0.163  0.751  0.085
    occupations:
  0.909 -0.041  0.023
 -0.041  0.890  0.023
  0.023  0.023  0.916
atom    8   Tr[ns(na)] =   5.42943
    eigenvalues: 
  0.843  0.929  0.943
    eigenvectors:
  0.339  0.000  0.661
  0.000  1.000  0.000
  0.661  0.000  0.339
    occupations:
  0.909  0.000 -0.047
  0.000  0.929  0.000
 -0.047  0.000  0.877
atom    9   Tr[ns(na)] =   5.42943
    eigenvalues: 
  0.843  0.929  0.943
    eigenvectors:
  0.339  0.000  0.661
  0.494  0.251  0.255
  0.167  0.749  0.084
    occupations:
  0.909  0.041  0.024
  0.041  0.890 -0.023
  0.024 -0.023  0.916
atom   10   Tr[ns(na)] =   5.42943
    eigenvalues: 
  0.843  0.929  0.943
    eigenvectors:
  0.339  0.000  0.661
  0.497  0.249  0.254
  0.163  0.751  0.085
    occupations:
  0.909 -0.041  0.023
 -0.041  0.890  0.023
  0.023  0.023  0.916
N of occupied +U levels =  56.2785849
 --- exit write_ns ---
 --- in v_hubbard ---
Hubbard energy   -0.0009
 -------

     total cpu time spent up to now is       96.9 secs

     total energy              =    -538.32987579 Ry
     Harris-Foulkes estimate   =    -538.32987067 Ry
     estimated scf accuracy    <       0.00000512 Ry

     iteration #  7     ecut=    30.00 Ry     beta=0.20
     Davidson diagonalization with overlap
     ethr =  6.74E-09,  avg # of iterations =  3.0
 --- enter write_ns ---
 LDA+U parameters:
U( 1)     =  1.00000000
alpha( 1) = -0.15000000
U( 2)     =  1.00000000
alpha( 2) =  0.00000000
U( 3)     =  0.00000000
alpha( 3) =  0.00000000
U( 4)     =  0.00000000
alpha( 4) =  0.00000000
atom    1   Tr[ns(na)] =   8.06213
    eigenvalues: 
  0.572  0.572  0.962  0.963  0.963
    eigenvectors:
  0.000  0.000  1.000  0.000  0.000
  0.333  0.323  0.000  0.004  0.340
  0.323  0.333  0.000  0.340  0.004
  0.286  0.058  0.000  0.514  0.141
  0.058  0.286  0.000  0.141  0.514
    occupations:
  0.962  0.000  0.000  0.000  0.000
  0.000  0.706  0.000 -0.067  0.173
  0.000  0.000  0.706  0.173  0.067
  0.000 -0.067  0.173  0.828  0.000
  0.000  0.173  0.067  0.000  0.828
atom    2   Tr[ns(na)] =   8.04351
    eigenvalues: 
  0.568  0.568  0.961  0.963  0.963
    eigenvectors:
  0.000  0.000  1.000  0.000  0.000
  0.638  0.018  0.000  0.219  0.125
  0.018  0.638  0.000  0.125  0.219
  0.013  0.331  0.000  0.471  0.185
  0.331  0.013  0.000  0.185  0.471
    occupations:
  0.961  0.000  0.000  0.000  0.000
  0.000  0.704  0.000  0.067  0.175
  0.000  0.000  0.704  0.175 -0.067
  0.000  0.067  0.175  0.827  0.000
  0.000  0.175 -0.067  0.000  0.827
atom    3   Tr[ns(na)] =   3.79737
    eigenvalues: 
  0.355  0.355  0.383  0.402  0.402
    eigenvectors:
  0.000  0.000  1.000  0.000  0.000
  0.783  0.139  0.000  0.011  0.067
  0.139  0.783  0.000  0.067  0.011
  0.012  0.066  0.000  0.781  0.140
  0.066  0.012  0.000  0.140  0.781
    occupations:
  0.383  0.000  0.000  0.000  0.000
  0.000  0.359  0.000  0.000  0.013
  0.000  0.000  0.359  0.013  0.000
  0.000  0.000  0.013  0.399  0.000
  0.000  0.013  0.000  0.000  0.399
atom    4   Tr[ns(na)] =   3.79737
    eigenvalues: 
  0.355  0.355  0.383  0.402  0.402
    eigenvectors:
  0.000  0.000  1.000  0.000  0.000
  0.782  0.139  0.000  0.012  0.067
  0.139  0.782  0.000  0.067  0.012
  0.012  0.066  0.000  0.781  0.141
  0.066  0.012  0.000  0.141  0.781
    occupations:
  0.383  0.000  0.000  0.000  0.000
  0.000  0.359  0.000  0.000  0.013
  0.000  0.000  0.359  0.013  0.000
  0.000  0.000  0.013  0.399  0.000
  0.000  0.013  0.000  0.000  0.399
atom    5   Tr[ns(na)] =   5.42962
    eigenvalues: 
  0.843  0.929  0.943
    eigenvectors:
  0.340  0.000  0.660
  0.494  0.251  0.255
  0.167  0.749  0.084
    occupations:
  0.909  0.041  0.024
  0.041  0.890 -0.023
  0.024 -0.023  0.916
atom    6   Tr[ns(na)] =   5.42962
    eigenvalues: 
  0.843  0.929  0.943
    eigenvectors:
  0.340  0.000  0.660
  0.000  1.000  0.000
  0.660  0.000  0.340
    occupations:
  0.909  0.000 -0.047
  0.000  0.929  0.000
 -0.047  0.000  0.877
atom    7   Tr[ns(na)] =   5.42962
    eigenvalues: 
  0.843  0.929  0.943
    eigenvectors:
  0.340  0.000  0.660
  0.497  0.249  0.254
  0.163  0.751  0.085
    occupations:
  0.909 -0.041  0.023
 -0.041  0.890  0.022
  0.023  0.022  0.916
atom    8   Tr[ns(na)] =   5.42962
    eigenvalues: 
  0.843  0.929  0.943
    eigenvectors:
  0.340  0.000  0.660
  0.000  1.000  0.000
  0.660  0.000  0.340
    occupations:
  0.909  0.000 -0.047
  0.000  0.929  0.000
 -0.047  0.000  0.877
atom    9   Tr[ns(na)] =   5.42962
    eigenvalues: 
  0.843  0.929  0.943
    eigenvectors:
  0.340  0.000  0.660
  0.494  0.251  0.255
  0.167  0.749  0.084
    occupations:
  0.909  0.041  0.024
  0.041  0.890 -0.023
  0.024 -0.023  0.916
atom   10   Tr[ns(na)] =   5.42962
    eigenvalues: 
  0.843  0.929  0.943
    eigenvectors:
  0.340  0.000  0.660
  0.497  0.249  0.254
  0.163  0.751  0.085
    occupations:
  0.909 -0.041  0.023
 -0.041  0.890  0.022
  0.023  0.022  0.916
N of occupied +U levels =  56.2780856
 --- exit write_ns ---
 --- in v_hubbard ---
Hubbard energy   -0.0008
 -------

     total cpu time spent up to now is      111.4 secs

     total energy              =    -538.32988604 Ry
     Harris-Foulkes estimate   =    -538.32987714 Ry
     estimated scf accuracy    <       0.00000085 Ry

     iteration #  8     ecut=    30.00 Ry     beta=0.20
     Davidson diagonalization with overlap
     ethr =  1.11E-09,  avg # of iterations =  1.3
 --- enter write_ns ---
 LDA+U parameters:
U( 1)     =  1.00000000
alpha( 1) = -0.15000000
U( 2)     =  1.00000000
alpha( 2) =  0.00000000
U( 3)     =  0.00000000
alpha( 3) =  0.00000000
U( 4)     =  0.00000000
alpha( 4) =  0.00000000
atom    1   Tr[ns(na)] =   8.06246
    eigenvalues: 
  0.572  0.572  0.962  0.963  0.963
    eigenvectors:
  0.000  0.000  1.000  0.000  0.000
  0.333  0.323  0.000  0.004  0.340
  0.323  0.333  0.000  0.340  0.004
  0.286  0.058  0.000  0.514  0.141
  0.058  0.286  0.000  0.141  0.514
    occupations:
  0.962  0.000  0.000  0.000  0.000
  0.000  0.707  0.000 -0.067  0.173
  0.000  0.000  0.707  0.173  0.067
  0.000 -0.067  0.173  0.828  0.000
  0.000  0.173  0.067  0.000  0.828
atom    2   Tr[ns(na)] =   8.04340
    eigenvalues: 
  0.568  0.568  0.961  0.963  0.963
    eigenvectors:
  0.000  0.000  1.000  0.000  0.000
  0.637  0.018  0.000  0.219  0.125
  0.018  0.637  0.000  0.125  0.219
  0.013  0.331  0.000  0.471  0.185
  0.331  0.013  0.000  0.185  0.471
    occupations:
  0.961  0.000  0.000  0.000  0.000
  0.000  0.704  0.000  0.067  0.175
  0.000  0.000  0.704  0.175 -0.067
  0.000  0.067  0.175  0.827  0.000
  0.000  0.175 -0.067  0.000  0.827
atom    3   Tr[ns(na)] =   3.79752
    eigenvalues: 
  0.355  0.355  0.383  0.402  0.402
    eigenvectors:
  0.000  0.000  1.000  0.000  0.000
  0.782  0.139  0.000  0.011  0.067
  0.139  0.782  0.000  0.067  0.011
  0.012  0.066  0.000  0.781  0.140
  0.066  0.012  0.000  0.140  0.781
    occupations:
  0.383  0.000  0.000  0.000  0.000
  0.000  0.359  0.000  0.000  0.013
  0.000  0.000  0.359  0.013  0.000
  0.000  0.000  0.013  0.399  0.000
  0.000  0.013  0.000  0.000  0.399
atom    4   Tr[ns(na)] =   3.79752
    eigenvalues: 
  0.355  0.355  0.383  0.402  0.402
    eigenvectors:
  0.000  0.000  1.000  0.000  0.000
  0.782  0.139  0.000  0.011  0.067
  0.139  0.782  0.000  0.067  0.011
  0.012  0.066  0.000  0.781  0.140
  0.066  0.012  0.000  0.140  0.781
    occupations:
  0.383  0.000  0.000  0.000  0.000
  0.000  0.359  0.000  0.000  0.013
  0.000  0.000  0.359  0.013  0.000
  0.000  0.000  0.013  0.399  0.000
  0.000  0.013  0.000  0.000  0.399
atom    5   Tr[ns(na)] =   5.42955
    eigenvalues: 
  0.843  0.929  0.943
    eigenvectors:
  0.340  0.000  0.660
  0.494  0.251  0.255
  0.167  0.749  0.084
    occupations:
  0.909  0.041  0.024
  0.041  0.890 -0.023
  0.024 -0.023  0.916
atom    6   Tr[ns(na)] =   5.42955
    eigenvalues: 
  0.843  0.929  0.943
    eigenvectors:
  0.340  0.000  0.660
  0.000  1.000  0.000
  0.660  0.000  0.340
    occupations:
  0.909  0.000 -0.047
  0.000  0.929  0.000
 -0.047  0.000  0.877
atom    7   Tr[ns(na)] =   5.42955
    eigenvalues: 
  0.843  0.929  0.943
    eigenvectors:
  0.340  0.000  0.660
  0.497  0.249  0.254
  0.163  0.751  0.085
    occupations:
  0.909 -0.041  0.023
 -0.041  0.890  0.022
  0.023  0.022  0.916
atom    8   Tr[ns(na)] =   5.42955
    eigenvalues: 
  0.843  0.929  0.943
    eigenvectors:
  0.340  0.000  0.660
  0.000  1.000  0.000
  0.660  0.000  0.340
    occupations:
  0.909  0.000 -0.047
  0.000  0.929  0.000
 -0.047  0.000  0.877
atom    9   Tr[ns(na)] =   5.42955
    eigenvalues: 
  0.843  0.929  0.943
    eigenvectors:
  0.340  0.000  0.660
  0.494  0.251  0.255
  0.167  0.749  0.084
    occupations:
  0.909  0.041  0.024
  0.041  0.890 -0.023
  0.024 -0.023  0.916
atom   10   Tr[ns(na)] =   5.42955
    eigenvalues: 
  0.843  0.929  0.943
    eigenvectors:
  0.340  0.000  0.660
  0.497  0.249  0.254
  0.163  0.751  0.085
    occupations:
  0.909 -0.041  0.023
 -0.041  0.890  0.022
  0.023  0.022  0.916
N of occupied +U levels =  56.2782042
 --- exit write_ns ---
 --- in v_hubbard ---
Hubbard energy   -0.0008
 -------

     total cpu time spent up to now is      123.3 secs

     total energy              =    -538.32989050 Ry
     Harris-Foulkes estimate   =    -538.32988608 Ry
     estimated scf accuracy    <       0.00000030 Ry

     iteration #  9     ecut=    30.00 Ry     beta=0.20
     Davidson diagonalization with overlap
     ethr =  3.89E-10,  avg # of iterations =  2.0
 --- enter write_ns ---
 LDA+U parameters:
U( 1)     =  1.00000000
alpha( 1) = -0.15000000
U( 2)     =  1.00000000
alpha( 2) =  0.00000000
U( 3)     =  0.00000000
alpha( 3) =  0.00000000
U( 4)     =  0.00000000
alpha( 4) =  0.00000000
atom    1   Tr[ns(na)] =   8.06247
    eigenvalues: 
  0.572  0.572  0.962  0.963  0.963
    eigenvectors:
  0.000  0.000  1.000  0.000  0.000
  0.333  0.323  0.000  0.004  0.340
  0.323  0.333  0.000  0.340  0.004
  0.286  0.058  0.000  0.515  0.141
  0.058  0.286  0.000  0.141  0.515
    occupations:
  0.962  0.000  0.000  0.000  0.000
  0.000  0.706  0.000 -0.067  0.173
  0.000  0.000  0.706  0.173  0.067
  0.000 -0.067  0.173  0.828  0.000
  0.000  0.173  0.067  0.000  0.828
atom    2   Tr[ns(na)] =   8.04364
    eigenvalues: 
  0.568  0.568  0.961  0.963  0.963
    eigenvectors:
  0.000  0.000  1.000  0.000  0.000
  0.638  0.018  0.000  0.219  0.125
  0.018  0.638  0.000  0.125  0.219
  0.013  0.331  0.000  0.471  0.185
  0.331  0.013  0.000  0.185  0.471
    occupations:
  0.961  0.000  0.000  0.000  0.000
  0.000  0.704  0.000  0.067  0.175
  0.000  0.000  0.704  0.175 -0.067
  0.000  0.067  0.175  0.827  0.000
  0.000  0.175 -0.067  0.000  0.827
atom    3   Tr[ns(na)] =   3.79779
    eigenvalues: 
  0.355  0.355  0.383  0.402  0.402
    eigenvectors:
  0.000  0.000  1.000  0.000  0.000
  0.782  0.139  0.000  0.012  0.067
  0.139  0.782  0.000  0.067  0.012
  0.012  0.066  0.000  0.781  0.141
  0.066  0.012  0.000  0.141  0.781
    occupations:
  0.383  0.000  0.000  0.000  0.000
  0.000  0.359  0.000  0.000  0.013
  0.000  0.000  0.359  0.013  0.000
  0.000  0.000  0.013  0.399  0.000
  0.000  0.013  0.000  0.000  0.399
atom    4   Tr[ns(na)] =   3.79779
    eigenvalues: 
  0.355  0.355  0.383  0.402  0.402
    eigenvectors:
  0.000  0.000  1.000  0.000  0.000
  0.782  0.139  0.000  0.012  0.067
  0.139  0.782  0.000  0.067  0.012
  0.012  0.066  0.000  0.781  0.141
  0.066  0.012  0.000  0.141  0.781
    occupations:
  0.383  0.000  0.000  0.000  0.000
  0.000  0.359  0.000  0.000  0.013
  0.000  0.000  0.359  0.013  0.000
  0.000  0.000  0.013  0.399  0.000
  0.000  0.013  0.000  0.000  0.399
atom    5   Tr[ns(na)] =   5.42945
    eigenvalues: 
  0.843  0.929  0.943
    eigenvectors:
  0.340  0.000  0.660
  0.494  0.251  0.255
  0.167  0.749  0.084
    occupations:
  0.909  0.041  0.024
  0.041  0.890 -0.023
  0.024 -0.023  0.916
atom    6   Tr[ns(na)] =   5.42945
    eigenvalues: 
  0.843  0.929  0.943
    eigenvectors:
  0.340  0.000  0.660
  0.000  1.000  0.000
  0.660  0.000  0.340
    occupations:
  0.909  0.000 -0.047
  0.000  0.929  0.000
 -0.047  0.000  0.877
atom    7   Tr[ns(na)] =   5.42945
    eigenvalues: 
  0.843  0.929  0.943
    eigenvectors:
  0.340  0.000  0.660
  0.497  0.249  0.254
  0.163  0.751  0.085
    occupations:
  0.909 -0.041  0.023
 -0.041  0.890  0.022
  0.023  0.022  0.916
atom    8   Tr[ns(na)] =   5.42945
    eigenvalues: 
  0.843  0.929  0.943
    eigenvectors:
  0.340  0.000  0.660
  0.000  1.000  0.000
  0.660  0.000  0.340
    occupations:
  0.909  0.000 -0.047
  0.000  0.929  0.000
 -0.047  0.000  0.877
atom    9   Tr[ns(na)] =   5.42945
    eigenvalues: 
  0.843  0.929  0.943
    eigenvectors:
  0.340  0.000  0.660
  0.494  0.251  0.255
  0.167  0.749  0.084
    occupations:
  0.909  0.041  0.024
  0.041  0.890 -0.023
  0.024 -0.023  0.916
atom   10   Tr[ns(na)] =   5.42945
    eigenvalues: 
  0.843  0.929  0.943
    eigenvectors:
  0.340  0.000  0.660
  0.497  0.249  0.254
  0.163  0.751  0.085
    occupations:
  0.909 -0.041  0.023
 -0.041  0.890  0.022
  0.023  0.022  0.916
N of occupied +U levels =  56.2783777
 --- exit write_ns ---
 --- in v_hubbard ---
Hubbard energy   -0.0008
 -------

     total cpu time spent up to now is      137.2 secs

     total energy              =    -538.32989383 Ry
     Harris-Foulkes estimate   =    -538.32989056 Ry
     estimated scf accuracy    <       0.00000007 Ry

     iteration # 10     ecut=    30.00 Ry     beta=0.20
     Davidson diagonalization with overlap
     ethr =  8.64E-11,  avg # of iterations =  1.0
 --- enter write_ns ---
 LDA+U parameters:
U( 1)     =  1.00000000
alpha( 1) = -0.15000000
U( 2)     =  1.00000000
alpha( 2) =  0.00000000
U( 3)     =  0.00000000
alpha( 3) =  0.00000000
U( 4)     =  0.00000000
alpha( 4) =  0.00000000
atom    1   Tr[ns(na)] =   8.06256
    eigenvalues: 
  0.572  0.572  0.962  0.963  0.963
    eigenvectors:
  0.000  0.000  1.000  0.000  0.000
  0.333  0.323  0.000  0.004  0.340
  0.323  0.333  0.000  0.340  0.004
  0.286  0.058  0.000  0.515  0.141
  0.058  0.286  0.000  0.141  0.515
    occupations:
  0.962  0.000  0.000  0.000  0.000
  0.000  0.707  0.000 -0.067  0.173
  0.000  0.000  0.707  0.173  0.067
  0.000 -0.067  0.173  0.828  0.000
  0.000  0.173  0.067  0.000  0.828
atom    2   Tr[ns(na)] =   8.04362
    eigenvalues: 
  0.568  0.568  0.961  0.963  0.963
    eigenvectors:
  0.000  0.000  1.000  0.000  0.000
  0.638  0.018  0.000  0.219  0.125
  0.018  0.638  0.000  0.125  0.219
  0.013  0.331  0.000  0.471  0.185
  0.331  0.013  0.000  0.185  0.471
    occupations:
  0.961  0.000  0.000  0.000  0.000
  0.000  0.704  0.000  0.067  0.175
  0.000  0.000  0.704  0.175 -0.067
  0.000  0.067  0.175  0.827  0.000
  0.000  0.175 -0.067  0.000  0.827
atom    3   Tr[ns(na)] =   3.79776
    eigenvalues: 
  0.355  0.355  0.383  0.402  0.402
    eigenvectors:
  0.000  0.000  1.000  0.000  0.000
  0.783  0.139  0.000  0.012  0.067
  0.139  0.783  0.000  0.067  0.012
  0.012  0.066  0.000  0.781  0.141
  0.066  0.012  0.000  0.141  0.781
    occupations:
  0.383  0.000  0.000  0.000  0.000
  0.000  0.359  0.000  0.000  0.013
  0.000  0.000  0.359  0.013  0.000
  0.000  0.000  0.013  0.399  0.000
  0.000  0.013  0.000  0.000  0.399
atom    4   Tr[ns(na)] =   3.79776
    eigenvalues: 
  0.355  0.355  0.383  0.402  0.402
    eigenvectors:
  0.000  0.000  1.000  0.000  0.000
  0.782  0.139  0.000  0.012  0.067
  0.139  0.782  0.000  0.067  0.012
  0.012  0.066  0.000  0.781  0.141
  0.066  0.012  0.000  0.141  0.781
    occupations:
  0.383  0.000  0.000  0.000  0.000
  0.000  0.359  0.000  0.000  0.013
  0.000  0.000  0.359  0.013  0.000
  0.000  0.000  0.013  0.399  0.000
  0.000  0.013  0.000  0.000  0.399
atom    5   Tr[ns(na)] =   5.42944
    eigenvalues: 
  0.843  0.929  0.943
    eigenvectors:
  0.340  0.000  0.660
  0.494  0.251  0.255
  0.167  0.749  0.084
    occupations:
  0.909  0.041  0.024
  0.041  0.890 -0.023
  0.024 -0.023  0.916
atom    6   Tr[ns(na)] =   5.42944
    eigenvalues: 
  0.843  0.929  0.943
    eigenvectors:
  0.340  0.000  0.660
  0.000  1.000  0.000
  0.660  0.000  0.340
    occupations:
  0.909  0.000 -0.047
  0.000  0.929  0.000
 -0.047  0.000  0.877
atom    7   Tr[ns(na)] =   5.42944
    eigenvalues: 
  0.843  0.929  0.943
    eigenvectors:
  0.340  0.000  0.660
  0.497  0.249  0.254
  0.163  0.751  0.085
    occupations:
  0.909 -0.041  0.023
 -0.041  0.890  0.022
  0.023  0.022  0.916
atom    8   Tr[ns(na)] =   5.42944
    eigenvalues: 
  0.843  0.929  0.943
    eigenvectors:
  0.340  0.000  0.660
  0.000  1.000  0.000
  0.660  0.000  0.340
    occupations:
  0.909  0.000 -0.047
  0.000  0.929  0.000
 -0.047  0.000  0.877
atom    9   Tr[ns(na)] =   5.42944
    eigenvalues: 
  0.843  0.929  0.943
    eigenvectors:
  0.340  0.000  0.660
  0.494  0.251  0.255
  0.167  0.749  0.084
    occupations:
  0.909  0.041  0.024
  0.041  0.890 -0.023
  0.024 -0.023  0.916
atom   10   Tr[ns(na)] =   5.42944
    eigenvalues: 
  0.843  0.929  0.943
    eigenvectors:
  0.340  0.000  0.660
  0.497  0.249  0.254
  0.163  0.751  0.085
    occupations:
  0.909 -0.041  0.023
 -0.041  0.890  0.022
  0.023  0.022  0.916
N of occupied +U levels =  56.2783562
 --- exit write_ns ---
 --- in v_hubbard ---
Hubbard energy   -0.0008
 -------

     total cpu time spent up to now is      148.7 secs

     total energy              =    -538.32989622 Ry
     Harris-Foulkes estimate   =    -538.32989383 Ry
     estimated scf accuracy    <       0.00000005 Ry

     iteration # 11     ecut=    30.00 Ry     beta=0.20
     Davidson diagonalization with overlap
     ethr =  6.67E-11,  avg # of iterations =  1.9
 --- enter write_ns ---
 LDA+U parameters:
U( 1)     =  1.00000000
alpha( 1) = -0.15000000
U( 2)     =  1.00000000
alpha( 2) =  0.00000000
U( 3)     =  0.00000000
alpha( 3) =  0.00000000
U( 4)     =  0.00000000
alpha( 4) =  0.00000000
atom    1   Tr[ns(na)] =   8.06255
    eigenvalues: 
  0.572  0.572  0.962  0.963  0.963
    eigenvectors:
  0.000  0.000  1.000  0.000  0.000
  0.333  0.323  0.000  0.004  0.340
  0.323  0.333  0.000  0.340  0.004
  0.286  0.058  0.000  0.515  0.141
  0.058  0.286  0.000  0.141  0.515
    occupations:
  0.962  0.000  0.000  0.000  0.000
  0.000  0.706  0.000 -0.067  0.173
  0.000  0.000  0.706  0.173  0.067
  0.000 -0.067  0.173  0.828  0.000
  0.000  0.173  0.067  0.000  0.828
atom    2   Tr[ns(na)] =   8.04348
    eigenvalues: 
  0.568  0.568  0.961  0.963  0.963
    eigenvectors:
  0.000  0.000  1.000  0.000  0.000
  0.638  0.018  0.000  0.219  0.125
  0.018  0.638  0.000  0.125  0.219
  0.013  0.331  0.000  0.471  0.185
  0.331  0.013  0.000  0.185  0.471
    occupations:
  0.961  0.000  0.000  0.000  0.000
  0.000  0.704  0.000  0.067  0.175
  0.000  0.000  0.704  0.175 -0.067
  0.000  0.067  0.175  0.827  0.000
  0.000  0.175 -0.067  0.000  0.827
atom    3   Tr[ns(na)] =   3.79769
    eigenvalues: 
  0.355  0.355  0.383  0.402  0.402
    eigenvectors:
  0.000  0.000  1.000  0.000  0.000
  0.783  0.139  0.000  0.012  0.067
  0.139  0.783  0.000  0.067  0.012
  0.012  0.066  0.000  0.781  0.141
  0.066  0.012  0.000  0.141  0.781
    occupations:
  0.383  0.000  0.000  0.000  0.000
  0.000  0.359  0.000  0.000  0.013
  0.000  0.000  0.359  0.013  0.000
  0.000  0.000  0.013  0.399  0.000
  0.000  0.013  0.000  0.000  0.399
atom    4   Tr[ns(na)] =   3.79769
    eigenvalues: 
  0.355  0.355  0.383  0.402  0.402
    eigenvectors:
  0.000  0.000  1.000  0.000  0.000
  0.782  0.139  0.000  0.012  0.067
  0.139  0.782  0.000  0.067  0.012
  0.012  0.066  0.000  0.780  0.141
  0.066  0.012  0.000  0.141  0.780
    occupations:
  0.383  0.000  0.000  0.000  0.000
  0.000  0.359  0.000  0.000  0.013
  0.000  0.000  0.359  0.013  0.000
  0.000  0.000  0.013  0.399  0.000
  0.000  0.013  0.000  0.000  0.399
atom    5   Tr[ns(na)] =   5.42948
    eigenvalues: 
  0.843  0.929  0.943
    eigenvectors:
  0.340  0.000  0.660
  0.494  0.251  0.255
  0.167  0.749  0.084
    occupations:
  0.909  0.041  0.024
  0.041  0.890 -0.023
  0.024 -0.023  0.916
atom    6   Tr[ns(na)] =   5.42948
    eigenvalues: 
  0.843  0.929  0.943
    eigenvectors:
  0.340  0.000  0.660
  0.000  1.000  0.000
  0.660  0.000  0.340
    occupations:
  0.909  0.000 -0.047
  0.000  0.929  0.000
 -0.047  0.000  0.877
atom    7   Tr[ns(na)] =   5.42948
    eigenvalues: 
  0.843  0.929  0.943
    eigenvectors:
  0.340  0.000  0.660
  0.497  0.249  0.254
  0.163  0.751  0.085
    occupations:
  0.909 -0.041  0.023
 -0.041  0.890  0.022
  0.023  0.022  0.916
atom    8   Tr[ns(na)] =   5.42948
    eigenvalues: 
  0.843  0.929  0.943
    eigenvectors:
  0.340  0.000  0.660
  0.000  1.000  0.000
  0.660  0.000  0.340
    occupations:
  0.909  0.000 -0.047
  0.000  0.929  0.000
 -0.047  0.000  0.877
atom    9   Tr[ns(na)] =   5.42948
    eigenvalues: 
  0.843  0.929  0.943
    eigenvectors:
  0.340  0.000  0.660
  0.494  0.251  0.255
  0.167  0.749  0.084
    occupations:
  0.909  0.041  0.024
  0.041  0.890 -0.023
  0.024 -0.023  0.916
atom   10   Tr[ns(na)] =   5.42948
    eigenvalues: 
  0.843  0.929  0.943
    eigenvectors:
  0.340  0.000  0.660
  0.497  0.249  0.254
  0.163  0.751  0.085
    occupations:
  0.909 -0.041  0.023
 -0.041  0.890  0.022
  0.023  0.022  0.916
N of occupied +U levels =  56.2782997
 --- exit write_ns ---
 --- in v_hubbard ---
Hubbard energy   -0.0008
 -------

     total cpu time spent up to now is      161.0 secs

     End of self-consistent calculation

          k = 0.0000 0.0000 0.0000 (  2175 PWs)   bands (ev):

   -19.8046 -19.6314  -6.5472  -5.8404  -5.8404  -5.8251  -5.8251  -5.4836
    -3.7793  -3.2674  -3.2162  -3.2162  -3.0302  -3.0302   5.1976   6.8714
     6.8714   7.5201   7.5201   7.6229   7.6229   7.6783   7.7148   9.2913
     9.6138   9.6138   9.7386   9.8640   9.8640  10.3323  10.3323  10.4593
    10.4593  10.5431  10.6727  11.4093  11.4093  11.9830  12.1678  12.1678
    14.7741  14.7741  15.4210  15.4210  16.1926  16.7812

     occupation numbers 
     0.0313   0.0313   0.0313   0.0313   0.0313   0.0313   0.0313   0.0313
     0.0313   0.0313   0.0313   0.0313   0.0313   0.0313   0.0313   0.0313
     0.0313   0.0313   0.0313   0.0313   0.0313   0.0313   0.0313   0.0313
     0.0313   0.0313   0.0312   0.0312   0.0312   0.0312   0.0312   0.0312
     0.0312   0.0312   0.0312   0.0307   0.0307   0.0173   0.0096   0.0096
     0.0000   0.0000   0.0000   0.0000   0.0000   0.0000

          k =-0.2471-0.1427 0.1027 (  2181 PWs)   bands (ev):

   -19.7773 -19.6579  -6.7269  -6.2903  -5.9465  -5.8545  -5.6166  -5.4835
    -3.5911  -3.3937  -2.9363  -2.9090  -2.8509  -2.7637   5.5587   6.8748
     6.9769   6.9860   7.1896   7.4757   7.5310   7.6769   7.6822   8.5295
     8.6108   9.2278   9.6507   9.7711   9.8117  10.0129  10.3637  10.3747
    10.7666  10.7869  10.8941  11.6771  11.7328  11.7846  12.3292  12.3945
    14.3163  14.3245  15.8097  16.0638  16.9679  17.2621

     occupation numbers 
     0.1875   0.1875   0.1875   0.1875   0.1875   0.1875   0.1875   0.1875
     0.1875   0.1875   0.1875   0.1875   0.1875   0.1875   0.1875   0.1875
     0.1875   0.1875   0.1875   0.1875   0.1875   0.1875   0.1875   0.1875
     0.1875   0.1875   0.1875   0.1875   0.1875   0.1875   0.1875   0.1875
     0.1875   0.1875   0.1875   0.1656   0.1577   0.1488   0.0268   0.0184
     0.0000   0.0000   0.0000   0.0000   0.0000   0.0000

          k = 0.4942 0.2853-0.2053 (  2202 PWs)   bands (ev):

   -19.7179 -19.7167  -6.7265  -6.7157  -5.9704  -5.9586  -5.5322  -5.5212
    -3.3848  -3.3795  -2.7952  -2.7902  -2.5121  -2.5103   6.0668   6.0739
     7.1711   7.2116   7.2241   7.2699   7.5458   7.5953   7.8276   7.8789
     8.0354   8.0924   9.5009   9.5061   9.8664   9.8717  10.2733  10.2800
    11.2053  11.2119  11.3080  11.3116  11.5005  11.5018  13.2904  13.3260
    13.3761  13.4118  16.8281  16.8326  17.1279  17.1300

     occupation numbers 
     0.0938   0.0938   0.0938   0.0938   0.0938   0.0938   0.0938   0.0938
     0.0938   0.0938   0.0938   0.0938   0.0938   0.0938   0.0938   0.0938
     0.0938   0.0938   0.0938   0.0938   0.0938   0.0938   0.0938   0.0938
     0.0938   0.0938   0.0938   0.0938   0.0937   0.0937   0.0937   0.0937
     0.0935   0.0935   0.0931   0.0931   0.0904   0.0904   0.0000   0.0000
     0.0000   0.0000   0.0000   0.0000   0.0000   0.0000

          k =-0.2471 0.1427 0.2053 (  2195 PWs)   bands (ev):

   -19.7720 -19.6626  -6.8548  -6.2343  -6.0671  -5.8343  -5.6595  -5.4668
    -3.4129  -3.2657  -3.1042  -2.8935  -2.8178  -2.5655   5.5860   6.8159
     6.8692   6.9387   7.2172   7.4600   7.4886   7.6948   7.7069   8.6288
     8.7642   8.8343   9.2851   9.7508   9.9652  10.0592  10.1666  10.2794
    10.3403  11.1823  11.2840  11.3055  11.7095  11.7844  12.0528  12.7310
    13.6364  14.7898  15.9855  16.1873  17.0315  17.5331

     occupation numbers 
     0.1875   0.1875   0.1875   0.1875   0.1875   0.1875   0.1875   0.1875
     0.1875   0.1875   0.1875   0.1875   0.1875   0.1875   0.1875   0.1875
     0.1875   0.1875   0.1875   0.1875   0.1875   0.1875   0.1875   0.1875
     0.1875   0.1875   0.1875   0.1875   0.1875   0.1875   0.1875   0.1875
     0.1875   0.1872   0.1865   0.1863   0.1612   0.1489   0.0856   0.0013
     0.0000   0.0000   0.0000   0.0000   0.0000   0.0000

          k = 0.4942 0.5706-0.1027 (  2198 PWs)   bands (ev):

   -19.7344 -19.6991  -6.9583  -6.6469  -6.1332  -5.8970  -5.5161  -5.3889
    -3.3051  -3.2559  -2.8805  -2.7113  -2.5307  -2.3887   5.9021   6.2480
     6.7342   6.9747   7.1903   7.3363   7.4946   7.7094   7.8159   7.9527
     8.2586   8.8447   9.0954   9.3204   9.6314   9.8047   9.9411  10.3507
    10.8296  11.2942  11.4016  11.4716  11.6075  11.6487  12.3170  12.7358
    13.4260  14.3648  16.8984  17.1083  17.3044  18.0092

     occupation numbers 
     0.1875   0.1875   0.1875   0.1875   0.1875   0.1875   0.1875   0.1875
     0.1875   0.1875   0.1875   0.1875   0.1875   0.1875   0.1875   0.1875
     0.1875   0.1875   0.1875   0.1875   0.1875   0.1875   0.1875   0.1875
     0.1875   0.1875   0.1875   0.1875   0.1875   0.1875   0.1875   0.1875
     0.1875   0.1864   0.1845   0.1822   0.1733   0.1690   0.0286   0.0012
     0.0000   0.0000   0.0000   0.0000   0.0000   0.0000

          k = 0.2471 0.4280 0.0000 (  2203 PWs)   bands (ev):

   -19.7446 -19.6896  -6.8480  -6.6410  -6.0514  -5.9851  -5.4435  -5.3760
    -3.5154  -3.2965  -2.8044  -2.7133  -2.5711  -2.5623   5.8849   6.3016
     6.9488   7.0867   7.1865   7.2818   7.4386   7.5983   7.6800   8.0562
     8.2978   8.9226   9.3067   9.4134   9.7626   9.7808  10.0571  10.3528
    11.1456  11.1832  11.1948  11.4252  11.4522  11.7492  12.2492  13.3197
    13.3955  14.1592  16.4303  16.9857  17.4152  17.9200

     occupation numbers 
     0.1875   0.1875   0.1875   0.1875   0.1875   0.1875   0.1875   0.1875
     0.1875   0.1875   0.1875   0.1875   0.1875   0.1875   0.1875   0.1875
     0.1875   0.1875   0.1875   0.1875   0.1875   0.1875   0.1875   0.1875
     0.1875   0.1875   0.1875   0.1875   0.1875   0.1875   0.1875   0.1875
     0.1873   0.1872   0.1871   0.1838   0.1829   0.1550   0.0403   0.0000
     0.0000   0.0000   0.0000   0.0000   0.0000   0.0000

          k = 0.4942-0.2853-0.4107 (  2202 PWs)   bands (ev):

   -19.7388 -19.6934  -7.1716  -6.4556  -6.2407  -5.9732  -5.5311  -5.2996
    -3.1945  -3.1271  -3.0461  -2.6539  -2.4841  -2.2265   5.7979   6.2716
     6.2737   6.8630   7.1503   7.2588   7.7239   7.7769   8.1560   8.3159
     8.4161   8.4467   8.5966   9.4115   9.6709  10.0298  10.0670  10.2632
    10.4309  11.1325  11.3402  11.5169  11.6419  11.7740  11.9629  12.4321
    13.3255  14.8025  17.0352  17.2574  17.5150  17.6040

     occupation numbers 
     0.0938   0.0938   0.0938   0.0938   0.0938   0.0938   0.0938   0.0938
     0.0938   0.0938   0.0938   0.0938   0.0938   0.0938   0.0938   0.0938
     0.0938   0.0938   0.0938   0.0938   0.0938   0.0938   0.0938   0.0938
     0.0938   0.0938   0.0938   0.0938   0.0937   0.0937   0.0937   0.0937
     0.0937   0.0937   0.0929   0.0900   0.0849   0.0754   0.0544   0.0072
     0.0000   0.0000   0.0000   0.0000   0.0000   0.0000

          k = 0.0000 0.0000 0.3080 (  2187 PWs)   bands (ev):

   -19.7771 -19.6580  -6.6148  -5.9804  -5.9317  -5.9317  -5.8462  -5.8462
    -3.2038  -3.1149  -3.1149  -2.9715  -2.9006  -2.9006   5.6153   6.9722
     6.9722   7.1366   7.3274   7.4150   7.4150   7.6837   7.6837   8.7656
     8.7656   9.3236   9.4349   9.6252   9.6252   9.8118  10.1241  10.1241
    10.8960  10.8960  10.9981  11.7006  11.7006  11.7948  12.3060  12.3060
    14.2775  14.2775  15.9042  15.9042  16.8750  17.4757

     occupation numbers 
     0.0625   0.0625   0.0625   0.0625   0.0625   0.0625   0.0625   0.0625
     0.0625   0.0625   0.0625   0.0625   0.0625   0.0625   0.0625   0.0625
     0.0625   0.0625   0.0625   0.0625   0.0625   0.0625   0.0625   0.0625
     0.0625   0.0625   0.0625   0.0625   0.0625   0.0625   0.0625   0.0625
     0.0625   0.0625   0.0625   0.0542   0.0542   0.0490   0.0101   0.0101
     0.0000   0.0000   0.0000   0.0000   0.0000   0.0000

          k = 0.7412 0.4280 0.0000 (  2204 PWs)   bands (ev):

   -19.7443 -19.6898  -6.7334  -6.6047  -6.1484  -5.8331  -5.6865  -5.5524
    -3.1752  -3.0933  -3.0486  -2.6790  -2.6587  -2.5882   5.9237   6.4953
     6.9602   7.1337   7.1921   7.2930   7.4288   7.5551   7.8442   8.0097
     8.3322   8.8208   9.3248   9.4766   9.5898   9.6770   9.8424  10.2133
    11.1411  11.1978  11.2721  11.4874  11.4881  11.6565  12.2544  13.2432
    13.3108  14.1837  16.6837  16.7165  17.5864  17.7877

     occupation numbers 
     0.1875   0.1875   0.1875   0.1875   0.1875   0.1875   0.1875   0.1875
     0.1875   0.1875   0.1875   0.1875   0.1875   0.1875   0.1875   0.1875
     0.1875   0.1875   0.1875   0.1875   0.1875   0.1875   0.1875   0.1875
     0.1875   0.1875   0.1875   0.1875   0.1875   0.1875   0.1875   0.1875
     0.1873   0.1871   0.1866   0.1815   0.1814   0.1681   0.0393   0.0000
     0.0000   0.0000   0.0000   0.0000   0.0000   0.0000

          k = 0.4942 0.2853 0.1027 (  2211 PWs)   bands (ev):

   -19.7346 -19.6989  -6.9747  -6.5448  -6.3247  -5.7035  -5.6254  -5.3654
    -3.3189  -3.1683  -3.0332  -2.6064  -2.5643  -2.3820   5.9322   6.2206
     6.6869   6.9677   7.2150   7.2462   7.5203   7.7488   7.8503   7.9432
     8.2900   8.9527   9.0951   9.3916   9.5027   9.6626  10.0057  10.3667
    10.8457  11.3460  11.4794  11.4833  11.5437  11.5622  12.2700  12.7514
    13.4720  14.3464  16.8790  16.9289  17.5761  17.9220

     occupation numbers 
     0.1875   0.1875   0.1875   0.1875   0.1875   0.1875   0.1875   0.1875
     0.1875   0.1875   0.1875   0.1875   0.1875   0.1875   0.1875   0.1875
     0.1875   0.1875   0.1875   0.1875   0.1875   0.1875   0.1875   0.1875
     0.1875   0.1875   0.1875   0.1875   0.1875   0.1875   0.1875   0.1875
     0.1875   0.1857   0.1818   0.1816   0.1783   0.1770   0.0364   0.0011
     0.0000   0.0000   0.0000   0.0000   0.0000   0.0000

          k = 0.7412-0.4280-0.3080 (  2210 PWs)   bands (ev):

   -19.7343 -19.6990  -6.9114  -6.4530  -6.3027  -5.7979  -5.7654  -5.4912
    -3.0734  -3.0543  -2.9669  -2.7323  -2.6250  -2.4318   5.9935   6.3623
     6.7646   6.9507   7.2325   7.2648   7.5479   7.7677   7.8914   7.9756
     8.2656   8.9401   8.9559   9.5069   9.5198   9.5222   9.6503  10.2034
    10.9175  11.3626  11.4651  11.4714  11.5910  11.6310  12.2278  12.7010
    13.4199  14.3160  17.0539  17.0618  17.5447  17.8978

     occupation numbers 
     0.1875   0.1875   0.1875   0.1875   0.1875   0.1875   0.1875   0.1875
     0.1875   0.1875   0.1875   0.1875   0.1875   0.1875   0.1875   0.1875
     0.1875   0.1875   0.1875   0.1875   0.1875   0.1875   0.1875   0.1875
     0.1875   0.1875   0.1875   0.1875   0.1875   0.1875   0.1875   0.1875
     0.1875   0.1854   0.1824   0.1822   0.1747   0.1710   0.0444   0.0017
     0.0000   0.0000   0.0000   0.0000   0.0000   0.0000

          k = 0.4942-0.5706-0.2053 (  2206 PWs)   bands (ev):

   -19.7164 -19.7164  -6.8868  -6.8828  -6.0371  -6.0352  -5.4357  -5.4311
    -3.1556  -3.1551  -2.8158  -2.8154  -2.3878  -2.3856   6.0622   6.0948
     6.8735   6.8814   7.0900   7.1088   7.4018   7.4063   8.0264   8.0932
     8.7892   8.7917   8.9786   8.9800   9.5321   9.5375  10.0874  10.0893
    11.1371  11.1385  11.3556  11.3595  11.6446  11.6452  12.2928  12.2934
    14.0048  14.0162  17.4217  17.4219  17.8613  17.8635

     occupation numbers 
     0.1875   0.1875   0.1875   0.1875   0.1875   0.1875   0.1875   0.1875
     0.1875   0.1875   0.1875   0.1875   0.1875   0.1875   0.1875   0.1875
     0.1875   0.1875   0.1875   0.1875   0.1875   0.1875   0.1875   0.1875
     0.1875   0.1875   0.1875   0.1875   0.1875   0.1875   0.1875   0.1875
     0.1873   0.1873   0.1855   0.1854   0.1695   0.1694   0.0325   0.0324
     0.0000   0.0000   0.0000   0.0000   0.0000   0.0000

          k = 0.0000 0.0000-0.6160 (  2186 PWs)   bands (ev):

   -19.7179 -19.7165  -6.5137  -6.5000  -5.9486  -5.9486  -5.9384  -5.9384
    -2.8957  -2.8957  -2.8904  -2.8904  -2.7119  -2.7117   6.2941   6.3013
     7.1729   7.1729   7.2182   7.2182   7.7090   7.7587   7.9510   7.9510
     8.0084   8.0084   9.6307   9.6307   9.6325   9.6325   9.6964   9.7045
    11.3653  11.3669  11.4220  11.4220  11.4229  11.4229  13.2319  13.2319
    13.2658  13.2658  17.1121  17.1121  17.1134  17.1134

     occupation numbers 
     0.0313   0.0313   0.0313   0.0313   0.0313   0.0313   0.0313   0.0313
     0.0313   0.0313   0.0313   0.0313   0.0313   0.0313   0.0313   0.0313
     0.0313   0.0313   0.0313   0.0313   0.0313   0.0313   0.0313   0.0313
     0.0313   0.0313   0.0312   0.0312   0.0312   0.0312   0.0312   0.0312
     0.0309   0.0309   0.0307   0.0307   0.0307   0.0307   0.0000   0.0000
     0.0000   0.0000   0.0000   0.0000   0.0000   0.0000

          k = 0.4942-0.5706 0.1027 (  2198 PWs)   bands (ev):

   -19.7344 -19.6991  -6.9595  -6.6479  -6.1311  -5.8914  -5.5188  -5.3919
    -3.3065  -3.2557  -2.8798  -2.7097  -2.5313  -2.3888   5.8979   6.2565
     6.7250   6.9767   7.2032   7.3315   7.5038   7.6972   7.7795   7.9936
     8.2487   8.8547   9.0905   9.3189   9.6288   9.8068   9.9403  10.3513
    10.8286  11.2978  11.4003  11.4715  11.6076  11.6481  12.3171  12.7350
    13.4257  14.3648  16.9001  17.1055  17.3049  18.0101

     occupation numbers 
     0.1875   0.1875   0.1875   0.1875   0.1875   0.1875   0.1875   0.1875
     0.1875   0.1875   0.1875   0.1875   0.1875   0.1875   0.1875   0.1875
     0.1875   0.1875   0.1875   0.1875   0.1875   0.1875   0.1875   0.1875
     0.1875   0.1875   0.1875   0.1875   0.1875   0.1875   0.1875   0.1875
     0.1875   0.1864   0.1845   0.1822   0.1733   0.1691   0.0286   0.0013
     0.0000   0.0000   0.0000   0.0000   0.0000   0.0000

     the Fermi energy is    12.0211 ev

!    total energy              =    -538.32989999 Ry
     Harris-Foulkes estimate   =    -538.32989623 Ry
     estimated scf accuracy    <          4.1E-09 Ry

     The total energy is the sum of the following terms:

     one-electron contribution =     -32.93478787 Ry
     hartree contribution      =      83.66432456 Ry
     xc contribution           =    -199.58189647 Ry
     ewald contribution        =    -389.44315552 Ry
     Hubbard energy            =      -0.00080698 Ry
     smearing contrib. (-TS)   =      -0.03357772 Ry

     convergence has been achieved in  11 iterations

     init_run     :      7.14s CPU      7.34s WALL (       1 calls)
     electrons    :    150.37s CPU    153.20s WALL (       1 calls)

     Called by init_run:
     wfcinit      :      0.00s CPU      0.00s WALL (       1 calls)
     potinit      :      0.27s CPU      0.29s WALL (       1 calls)

     Called by electrons:
     c_bands      :     98.79s CPU     99.42s WALL (      11 calls)
     sum_band     :     29.85s CPU     30.23s WALL (      11 calls)
     v_of_rho     :      2.85s CPU      2.86s WALL (      12 calls)
     v_h          :      0.14s CPU      0.15s WALL (      12 calls)
     v_xc         :      2.70s CPU      2.71s WALL (      12 calls)
     newd         :     19.99s CPU     20.08s WALL (      12 calls)
     mix_rho      :      0.26s CPU      0.26s WALL (      11 calls)

     Called by c_bands:
     init_us_2    :      1.09s CPU      1.09s WALL (     308 calls)
     cegterg      :     95.77s CPU     96.14s WALL (     154 calls)

     Called by sum_band:
     sum_band:bec :      0.12s CPU      0.11s WALL (     154 calls)
     addusdens    :     13.58s CPU     13.59s WALL (      11 calls)

     Called by *egterg:
     h_psi        :     70.01s CPU     70.34s WALL (     600 calls)
     s_psi        :      3.98s CPU      4.00s WALL (     600 calls)
     g_psi        :      0.35s CPU      0.35s WALL (     446 calls)
     cdiaghg      :      8.86s CPU      8.87s WALL (     586 calls)
     cegterg:over :      4.77s CPU      4.77s WALL (     446 calls)
     cegterg:upda :      3.03s CPU      3.04s WALL (     446 calls)
     cegterg:last :      1.86s CPU      1.87s WALL (     168 calls)

     Called by h_psi:
     h_psi:vloc   :     57.15s CPU     57.46s WALL (     600 calls)
     h_psi:vnl    :      8.25s CPU      8.25s WALL (     600 calls)
     add_vuspsi   :      4.00s CPU      4.01s WALL (     600 calls)
     vhpsi        :      4.46s CPU      4.47s WALL (     600 calls)

     General routines
     calbec       :      8.88s CPU      8.94s WALL (    1508 calls)
     fft          :      1.84s CPU      2.01s WALL (     187 calls)
     ffts         :      0.05s CPU      0.17s WALL (      23 calls)
     fftw         :     56.09s CPU     56.37s WALL (   42856 calls)
     interpolate  :      0.31s CPU      0.59s WALL (      23 calls)
     davcio       :      0.00s CPU      0.52s WALL (     322 calls)

     Parallel routines
     fft_scatter  :     14.26s CPU     14.79s WALL (   43066 calls)
     Hubbard U routines
     new_ns       :      0.91s CPU      1.24s WALL (      11 calls)
     vhpsi        :      4.46s CPU      4.47s WALL (     600 calls)

     PWSCF        :  2m37.96s CPU     2m41.05s WALL


   This run was terminated on:  14:40: 4  11Nov2012            

=------------------------------------------------------------------------------=
