   JOB DONE.
=------------------------------------------------------------------------------=

     Program PWSCF v.5.0.1 starts on 11Nov2012 at  7:48:14 

     This program is part of the open-source Quantum ESPRESSO suite
     for quantum simulation of materials; please cite
         "P. Giannozzi et al., J. Phys.:Condens. Matter 21 395502 (2009);
          URL http://www.quantum-espresso.org", 
     in publications or presentations arising from this work. More details at
     http://www.quantum-espresso.org/quote.php

     Parallel version (MPI), running on     2 processors
     R & G space division:  proc/pool =    2

     Current dimensions of program PWSCF are:
     Max number of different atomic species (ntypx) = 10
     Max number of k-points (npk) =  40000
     Max angular momentum in pseudopotentials (lmaxx) =  3
     Reading input from CoLaO_U0_a-15.in
               file Co.pbe-nd-rrkjus.UPF: wavefunction(s)  4S 3D renormalized
               file O.pbe-rrkjus.UPF: wavefunction(s)  2S renormalized

     Subspace diagonalization in iterative solution of the eigenvalue problem:
     a serial algorithm will be used


     Parallelization info
     --------------------
     sticks:   dense  smooth     PW     G-vecs:    dense   smooth      PW
     Min        1112     444    131                34808     8786    1448
     Max        1113     445    132                34809     8787    1449
     Sum        2225     889    263                69617    17573    2897


     Title: 
     GGA + U, U = 1D-40, alpha = -0.150                                         


     bravais-lattice index     =            5
     lattice parameter (alat)  =      10.3292  a.u.
     unit-cell volume          =     793.0599 (a.u.)^3
     number of atoms/cell      =           10
     number of atomic types    =            4
     number of electrons       =        76.00
     number of Kohn-Sham states=           46
     kinetic-energy cutoff     =      30.0000  Ry
     charge density cutoff     =     300.0000  Ry
     convergence threshold     =      1.0E-08
     mixing beta               =       0.2000
     number of iterations used =            8  plain     mixing
     Exchange-correlation      =  SLA  PW   PBE  PBE ( 1 4 3 4 0)
     EXX-fraction              =        0.00

     celldm(1)=  10.329242  celldm(2)=   0.000000  celldm(3)=   0.000000
     celldm(4)=   0.488100  celldm(5)=   0.000000  celldm(6)=   0.000000

     crystal axes: (cart. coord. in units of alat)
               a(1) = (   0.505915  -0.292090   0.811624 )  
               a(2) = (   0.000000   0.584180   0.811624 )  
               a(3) = (  -0.505915  -0.292090   0.811624 )  

     reciprocal axes: (cart. coord. in units 2 pi/alat)
               b(1) = (  0.988308 -0.570600  0.410699 )  
               b(2) = (  0.000000  1.141200  0.410699 )  
               b(3) = ( -0.988308 -0.570600  0.410699 )  


     PseudoPot. # 1 for Co read from file:
     /home/mcurnan/dft-course/Project1/example_LaCoO3/Co.pbe-nd-rrkjus.UPF
     MD5 check sum: 3e47a84addf5e975e0edeaeee2a73f59
     Pseudo is Ultrasoft + core correction, Zval =  9.0
     Generated by new atomic code, or converted to UPF format
     Using radial grid of  961 points,  6 beta functions with: 
                l(1) =   0
                l(2) =   0
                l(3) =   1
                l(4) =   1
                l(5) =   2
                l(6) =   2
     Q(r) pseudized with 0 coefficients 


     PseudoPot. # 2 for La read from file:
     /home/mcurnan/dft-course/Project1/example_LaCoO3/La.pbe-nsp-van.UPF
     MD5 check sum: b2f11743f52dde65f77d1302becd7929
     Pseudo is Ultrasoft + core correction, Zval = 11.0
     Generated by new atomic code, or converted to UPF format
     Using radial grid of  907 points,  6 beta functions with: 
                l(1) =   0
                l(2) =   0
                l(3) =   1
                l(4) =   1
                l(5) =   2
                l(6) =   2
     Q(r) pseudized with  6 coefficients,  rinner =    1.200   1.200   1.200
                                                       1.200   1.200

     PseudoPot. # 3 for La read from file:
     /home/mcurnan/dft-course/Project1/example_LaCoO3/La.pbe-nsp-van.UPF
     MD5 check sum: b2f11743f52dde65f77d1302becd7929
     Pseudo is Ultrasoft + core correction, Zval = 11.0
     Generated by new atomic code, or converted to UPF format
     Using radial grid of  907 points,  6 beta functions with: 
                l(1) =   0
                l(2) =   0
                l(3) =   1
                l(4) =   1
                l(5) =   2
                l(6) =   2
     Q(r) pseudized with  6 coefficients,  rinner =    1.200   1.200   1.200
                                                       1.200   1.200

     PseudoPot. # 4 for O  read from file:
     /home/mcurnan/dft-course/Project1/example_LaCoO3/O.pbe-rrkjus.UPF
     MD5 check sum: 390ba29e75625707450f3bd3f0eb6be9
     Pseudo is Ultrasoft, Zval =  6.0
     Generated by new atomic code, or converted to UPF format
     Using radial grid of 1269 points,  4 beta functions with: 
                l(1) =   0
                l(2) =   0
                l(3) =   1
                l(4) =   1
     Q(r) pseudized with 0 coefficients 


     atomic species   valence    mass     pseudopotential
        Co1            9.00     1.00000     Co( 1.00)
        La1           11.00     1.00000     La( 1.00)
        La2           11.00     1.00000     La( 1.00)
        O1             6.00     1.00000     O ( 1.00)
 -----
     simplified LDA+U calculation, Hubbard_lmax = 2
     atomic species  L   Hubbard U  Hubbard alpha
        Co1          2    0.000000    0.000000
        La1          2    0.000000   -0.150000
        La2          2    0.000000    0.000000
        O1           1    0.000000    0.000000
 -----

      3 Sym. Ops. (no inversion) found


                                    s                        frac. trans.

      isym =  1     identity                                     

 cryst.   s( 1) = (     1          0          0      )
                  (     0          1          0      )
                  (     0          0          1      )

 cart.    s( 1) = (  1.0000000  0.0000000  0.0000000 )
                  (  0.0000000  1.0000000  0.0000000 )
                  (  0.0000000  0.0000000  1.0000000 )


      isym =  2     120 deg rotation - cryst. axis [0,0,1]       

 cryst.   s( 2) = (     0          1          0      )
                  (     0          0          1      )
                  (     1          0          0      )

 cart.    s( 2) = ( -0.5000000 -0.8660254  0.0000000 )
                  (  0.8660254 -0.5000000  0.0000000 )
                  (  0.0000000  0.0000000  1.0000000 )


      isym =  3     120 deg rotation - cryst. axis [0,0,-1]      

 cryst.   s( 3) = (     0          0          1      )
                  (     1          0          0      )
                  (     0          1          0      )

 cart.    s( 3) = ( -0.5000000  0.8660254  0.0000000 )
                  ( -0.8660254 -0.5000000  0.0000000 )
                  (  0.0000000  0.0000000  1.0000000 )


     point group C_3 (3)    
     there are  3 classes
     the character table:

       E     C3    C3^2 
A      1.00  1.00  1.00
E      1.00 -0.50 -0.50
E*     1.00 -0.50 -0.50
     imaginary part
A      0.00  0.00  0.00
E      0.00  0.87 -0.87
E*     0.00 -0.87  0.87

     the symmetry operations in each class:
     E        1
     C3       2
     C3^2     3

   Cartesian axes

     site n.     atom                  positions (alat units)
         1           Co1 tau(   1) = (   0.0000000   0.0000000   1.8261537  )
         2           Co1 tau(   2) = (   0.0000000   0.0000000   0.6087179  )
         3           La1 tau(   3) = (   0.0000000   0.0000000   0.0000000  )
         4           La2 tau(   4) = (   0.0000000   0.0000000   1.2174358  )
         5           O1  tau(   5) = (   0.2831100  -0.0928263   1.6236536  )
         6           O1  tau(   6) = (  -0.2219449  -0.1987674   1.6236536  )
         7           O1  tau(   7) = (  -0.0611651   0.2915936   1.6236536  )
         8           O1  tau(   8) = (   0.2228050   0.3849164   1.2170300  )
         9           O1  tau(   9) = (   0.2219449  -0.3854130   1.2170300  )
        10           O1  tau(  10) = (  -0.4447499   0.0004966   1.2170300  )

   Crystallographic axes

     site n.     atom                  positions (cryst. coord.)
         1           Co1 tau(   1) = (  0.7500000  0.7500000  0.7500000  )
         2           Co1 tau(   2) = (  0.2500000  0.2500000  0.2500000  )
         3           La1 tau(   3) = (  0.0000000  0.0000000  0.0000000  )
         4           La2 tau(   4) = (  0.5000000  0.5000000  0.5000000  )
         5           O1  tau(   5) = (  0.9996000  0.5609000  0.4400000  )
         6           O1  tau(   6) = (  0.5609000  0.4400000  0.9996000  )
         7           O1  tau(   7) = (  0.4400000  0.9996000  0.5609000  )
         8           O1  tau(   8) = (  0.5004000  0.9391000  0.0600000  )
         9           O1  tau(   9) = (  0.9391000  0.0600000  0.5004000  )
        10           O1  tau(  10) = (  0.0600000  0.5004000  0.9391000  )

     number of k points=    14  gaussian smearing, width (Ry)=  0.0300
                       cart. coord. in units 2pi/alat
        k(    1) = (   0.0000000   0.0000000   0.0000000), wk =   0.0312500
        k(    2) = (  -0.2470771  -0.1426500   0.1026748), wk =   0.1875000
        k(    3) = (   0.4941541   0.2853000  -0.2053496), wk =   0.0937500
        k(    4) = (  -0.2470771   0.1426500   0.2053496), wk =   0.1875000
        k(    5) = (   0.4941541   0.5706001  -0.1026748), wk =   0.1875000
        k(    6) = (   0.2470771   0.4279500   0.0000000), wk =   0.1875000
        k(    7) = (   0.4941541  -0.2853000  -0.4106993), wk =   0.0937500
        k(    8) = (   0.0000000   0.0000000   0.3080244), wk =   0.0625000
        k(    9) = (   0.7412312   0.4279500   0.0000000), wk =   0.1875000
        k(   10) = (   0.4941541   0.2853000   0.1026748), wk =   0.1875000
        k(   11) = (   0.7412312  -0.4279500  -0.3080244), wk =   0.1875000
        k(   12) = (   0.4941541  -0.5706001  -0.2053496), wk =   0.1875000
        k(   13) = (   0.0000000   0.0000000  -0.6160489), wk =   0.0312500
        k(   14) = (   0.4941541  -0.5706001   0.1026748), wk =   0.1875000

                       cryst. coord.
        k(    1) = (   0.0000000   0.0000000   0.0000000), wk =   0.0312500
        k(    2) = (   0.0000000   0.0000000   0.2500000), wk =   0.1875000
        k(    3) = (   0.0000000   0.0000000  -0.5000000), wk =   0.0937500
        k(    4) = (   0.0000000   0.2500000   0.2500000), wk =   0.1875000
        k(    5) = (   0.0000000   0.2500000  -0.5000000), wk =   0.1875000
        k(    6) = (   0.0000000   0.2500000  -0.2500000), wk =   0.1875000
        k(    7) = (   0.0000000  -0.5000000  -0.5000000), wk =   0.0937500
        k(    8) = (   0.2500000   0.2500000   0.2500000), wk =   0.0625000
        k(    9) = (   0.2500000   0.2500000  -0.5000000), wk =   0.1875000
        k(   10) = (   0.2500000   0.2500000  -0.2500000), wk =   0.1875000
        k(   11) = (   0.2500000  -0.5000000  -0.5000000), wk =   0.1875000
        k(   12) = (   0.2500000  -0.5000000  -0.2500000), wk =   0.1875000
        k(   13) = (  -0.5000000  -0.5000000  -0.5000000), wk =   0.0312500
        k(   14) = (   0.5000000  -0.2500000   0.0000000), wk =   0.1875000

     Dense  grid:    69617 G-vectors     FFT dimensions: (  60,  60,  60)

     Smooth grid:    17573 G-vectors     FFT dimensions: (  40,  40,  40)

     Largest allocated arrays     est. size (Mb)     dimensions
        Kohn-Sham Wavefunctions         0.78 Mb     (   1117,   46)
        Atomic wavefunctions            1.06 Mb     (   1117,   62)
        NL pseudopotentials             2.05 Mb     (   1117,  120)
        Each V/rho on FFT grid          1.65 Mb     ( 108000)
        Each G-vector array             0.27 Mb     (  34808)
        G-vector shells                 0.04 Mb     (   4682)
     Largest temporary arrays     est. size (Mb)     dimensions
        Auxiliary wavefunctions         3.14 Mb     (   1117,  184)
        Each subspace H/S matrix        0.52 Mb     ( 184, 184)
        Each <psi_i|beta_j> matrix      0.08 Mb     (    120,   46)
        Arrays for rho mixing          13.18 Mb     ( 108000,   8)

     Check: negative/imaginary core charge=   -0.000028    0.000000

     The initial density is read from file :
     /home/mcurnan/dft-course/Project1/example_LaCoO3/0/La/alpha/CoLaO_U0.save/charge-density.dat

 --- in v_hubbard ---
Hubbard energy   -0.0419
 -------
     Number of +U iterations with fixed ns =  0
     Starting occupations:
 --- enter write_ns ---
 LDA+U parameters:
U( 1)     =  0.00000000
alpha( 1) =  0.00000000
U( 2)     =  0.00000000
alpha( 2) = -0.15000000
U( 3)     =  0.00000000
alpha( 3) =  0.00000000
U( 4)     =  0.00000000
alpha( 4) =  0.00000000
atom    1   Tr[ns(na)] =   8.02205
    eigenvalues: 
  0.596  0.596  0.938  0.941  0.941
    eigenvectors:
  0.000  0.000  1.000  0.000  0.000
  0.334  0.321  0.000  0.004  0.341
  0.321  0.334  0.000  0.341  0.004
  0.288  0.057  0.000  0.515  0.140
  0.057  0.288  0.000  0.140  0.515
    occupations:
  0.938  0.000  0.000  0.000  0.000
  0.000  0.715  0.000 -0.060  0.152
  0.000  0.000  0.715  0.152  0.060
  0.000 -0.060  0.152  0.822  0.000
  0.000  0.152  0.060  0.000  0.822
atom    2   Tr[ns(na)] =   8.02143
    eigenvalues: 
  0.595  0.595  0.938  0.941  0.941
    eigenvectors:
  0.000  0.000  1.000  0.000  0.000
  0.638  0.017  0.000  0.223  0.122
  0.017  0.638  0.000  0.122  0.223
  0.015  0.330  0.000  0.470  0.185
  0.330  0.015  0.000  0.185  0.470
    occupations:
  0.938  0.000  0.000  0.000  0.000
  0.000  0.715  0.000  0.060  0.153
  0.000  0.000  0.715  0.153 -0.060
  0.000  0.060  0.153  0.822  0.000
  0.000  0.153 -0.060  0.000  0.822
atom    3   Tr[ns(na)] =   3.80283
    eigenvalues: 
  0.355  0.355  0.384  0.403  0.403
    eigenvectors:
  0.000  0.000  1.000  0.000  0.000
  0.781  0.140  0.000  0.012  0.068
  0.140  0.781  0.000  0.068  0.012
  0.013  0.067  0.000  0.780  0.140
  0.067  0.013  0.000  0.140  0.780
    occupations:
  0.384  0.000  0.000  0.000  0.000
  0.000  0.359  0.000  0.000  0.013
  0.000  0.000  0.359  0.013  0.000
  0.000  0.000  0.013  0.399  0.000
  0.000  0.013  0.000  0.000  0.399
atom    4   Tr[ns(na)] =   3.80283
    eigenvalues: 
  0.355  0.355  0.384  0.403  0.403
    eigenvectors:
  0.000  0.000  1.000  0.000  0.000
  0.781  0.140  0.000  0.012  0.068
  0.140  0.781  0.000  0.068  0.012
  0.013  0.067  0.000  0.780  0.140
  0.067  0.013  0.000  0.140  0.780
    occupations:
  0.384  0.000  0.000  0.000  0.000
  0.000  0.359  0.000  0.000  0.013
  0.000  0.000  0.359  0.013  0.000
  0.000  0.000  0.013  0.399  0.000
  0.000  0.013  0.000  0.000  0.399
atom    5   Tr[ns(na)] =   5.43358
    eigenvalues: 
  0.846  0.929  0.941
    eigenvectors:
  0.340  0.000  0.660
  0.496  0.250  0.255
  0.164  0.750  0.086
    occupations:
  0.909 -0.039  0.022
 -0.039  0.891  0.022
  0.022  0.022  0.917
atom    6   Tr[ns(na)] =   5.43358
    eigenvalues: 
  0.846  0.929  0.941
    eigenvectors:
  0.340  0.000  0.660
  0.494  0.250  0.256
  0.166  0.750  0.085
    occupations:
  0.909  0.039  0.022
  0.039  0.891 -0.022
  0.022 -0.022  0.917
atom    7   Tr[ns(na)] =   5.43358
    eigenvalues: 
  0.846  0.929  0.941
    eigenvectors:
  0.340  0.000  0.660
  0.000  1.000  0.000
  0.660  0.000  0.340
    occupations:
  0.909  0.000 -0.045
  0.000  0.929  0.000
 -0.045  0.000  0.879
atom    8   Tr[ns(na)] =   5.43358
    eigenvalues: 
  0.846  0.929  0.941
    eigenvectors:
  0.340  0.000  0.660
  0.496  0.250  0.255
  0.164  0.750  0.086
    occupations:
  0.909 -0.039  0.022
 -0.039  0.891  0.022
  0.022  0.022  0.917
atom    9   Tr[ns(na)] =   5.43358
    eigenvalues: 
  0.846  0.929  0.941
    eigenvectors:
  0.340  0.000  0.660
  0.494  0.250  0.256
  0.166  0.750  0.085
    occupations:
  0.909  0.039  0.022
  0.039  0.891 -0.022
  0.022 -0.022  0.917
atom   10   Tr[ns(na)] =   5.43358
    eigenvalues: 
  0.846  0.929  0.941
    eigenvectors:
  0.340  0.000  0.660
  0.000  1.000  0.000
  0.660  0.000  0.340
    occupations:
  0.909  0.000 -0.045
  0.000  0.929  0.000
 -0.045  0.000  0.879
N of occupied +U levels =  56.2506014
 --- exit write_ns ---
 LDA+U Projector read from file 
     Starting wfc from file

     total cpu time spent up to now is        8.6 secs

     per-process dynamical memory:    47.1 Mb

     Self-consistent Calculation

     iteration #  1     ecut=    30.00 Ry     beta=0.20
     Davidson diagonalization with overlap
     c_bands:  1 eigenvalues not converged
     c_bands:  1 eigenvalues not converged
     c_bands:  1 eigenvalues not converged
     c_bands:  1 eigenvalues not converged
     c_bands:  1 eigenvalues not converged
     c_bands:  1 eigenvalues not converged
     c_bands:  1 eigenvalues not converged
     c_bands:  1 eigenvalues not converged
     c_bands:  1 eigenvalues not converged
     c_bands:  1 eigenvalues not converged
     ethr =  1.00E-10,  avg # of iterations = 18.6
 --- enter write_ns ---
 LDA+U parameters:
U( 1)     =  0.00000000
alpha( 1) =  0.00000000
U( 2)     =  0.00000000
alpha( 2) = -0.15000000
U( 3)     =  0.00000000
alpha( 3) =  0.00000000
U( 4)     =  0.00000000
alpha( 4) =  0.00000000
atom    1   Tr[ns(na)] =   8.02098
    eigenvalues: 
  0.596  0.596  0.938  0.941  0.941
    eigenvectors:
  0.000  0.000  1.000  0.000  0.000
  0.334  0.321  0.000  0.004  0.342
  0.321  0.334  0.000  0.342  0.004
  0.289  0.057  0.000  0.515  0.140
  0.057  0.289  0.000  0.140  0.515
    occupations:
  0.938  0.000  0.000  0.000  0.000
  0.000  0.715  0.000 -0.061  0.152
  0.000  0.000  0.715  0.152  0.061
  0.000 -0.061  0.152  0.822  0.000
  0.000  0.152  0.061  0.000  0.822
atom    2   Tr[ns(na)] =   8.02039
    eigenvalues: 
  0.595  0.595  0.938  0.941  0.941
    eigenvectors:
  0.000  0.000  1.000  0.000  0.000
  0.639  0.016  0.000  0.223  0.122
  0.016  0.639  0.000  0.122  0.223
  0.016  0.329  0.000  0.471  0.184
  0.329  0.016  0.000  0.184  0.471
    occupations:
  0.938  0.000  0.000  0.000  0.000
  0.000  0.714  0.000  0.060  0.153
  0.000  0.000  0.714  0.153 -0.060
  0.000  0.060  0.153  0.822  0.000
  0.000  0.153 -0.060  0.000  0.822
atom    3   Tr[ns(na)] =   3.85834
    eigenvalues: 
  0.361  0.361  0.389  0.409  0.409
    eigenvectors:
  0.000  0.000  1.000  0.000  0.000
  0.786  0.138  0.000  0.011  0.065
  0.138  0.786  0.000  0.065  0.011
  0.012  0.064  0.000  0.784  0.140
  0.064  0.012  0.000  0.140  0.784
    occupations:
  0.389  0.000  0.000  0.000  0.000
  0.000  0.365  0.000  0.000  0.012
  0.000  0.000  0.365  0.012  0.000
  0.000  0.000  0.012  0.405  0.000
  0.000  0.012  0.000  0.000  0.405
atom    4   Tr[ns(na)] =   3.80536
    eigenvalues: 
  0.356  0.356  0.384  0.403  0.403
    eigenvectors:
  0.000  0.000  1.000  0.000  0.000
  0.782  0.139  0.000  0.012  0.067
  0.139  0.782  0.000  0.067  0.012
  0.012  0.067  0.000  0.781  0.140
  0.067  0.012  0.000  0.140  0.781
    occupations:
  0.384  0.000  0.000  0.000  0.000
  0.000  0.359  0.000  0.000  0.013
  0.000  0.000  0.359  0.013  0.000
  0.000  0.000  0.013  0.400  0.000
  0.000  0.013  0.000  0.000  0.400
atom    5   Tr[ns(na)] =   5.42985
    eigenvalues: 
  0.846  0.928  0.940
    eigenvectors:
  0.340  0.000  0.660
  0.495  0.250  0.255
  0.164  0.750  0.086
    occupations:
  0.908 -0.039  0.022
 -0.039  0.891  0.022
  0.022  0.022  0.916
atom    6   Tr[ns(na)] =   5.42985
    eigenvalues: 
  0.846  0.928  0.940
    eigenvectors:
  0.340  0.000  0.660
  0.494  0.250  0.256
  0.166  0.750  0.085
    occupations:
  0.908  0.039  0.022
  0.039  0.891 -0.022
  0.022 -0.022  0.916
atom    7   Tr[ns(na)] =   5.42985
    eigenvalues: 
  0.846  0.928  0.940
    eigenvectors:
  0.340  0.000  0.660
  0.000  1.000  0.000
  0.660  0.000  0.340
    occupations:
  0.908  0.000 -0.045
  0.000  0.928  0.000
 -0.045  0.000  0.878
atom    8   Tr[ns(na)] =   5.43014
    eigenvalues: 
  0.846  0.929  0.940
    eigenvectors:
  0.340  0.000  0.660
  0.495  0.250  0.255
  0.164  0.750  0.086
    occupations:
  0.908 -0.038  0.022
 -0.038  0.891  0.022
  0.022  0.022  0.916
atom    9   Tr[ns(na)] =   5.43014
    eigenvalues: 
  0.846  0.929  0.940
    eigenvectors:
  0.340  0.000  0.660
  0.494  0.250  0.256
  0.166  0.750  0.085
    occupations:
  0.908  0.038  0.022
  0.038  0.891 -0.022
  0.022 -0.022  0.916
atom   10   Tr[ns(na)] =   5.43014
    eigenvalues: 
  0.846  0.929  0.940
    eigenvectors:
  0.340  0.000  0.660
  0.000  1.000  0.000
  0.660  0.000  0.340
    occupations:
  0.908  0.000 -0.044
  0.000  0.929  0.000
 -0.044  0.000  0.878
N of occupied +U levels =  56.2850386
 --- exit write_ns ---
 --- in v_hubbard ---
Hubbard energy   -0.0420
 -------

     total cpu time spent up to now is       49.0 secs

     total energy              =    -538.37521731 Ry
     Harris-Foulkes estimate   =    -538.37528422 Ry
     estimated scf accuracy    <       0.00022094 Ry

     iteration #  2     ecut=    30.00 Ry     beta=0.20
     Davidson diagonalization with overlap
     ethr =  2.91E-07,  avg # of iterations =  1.3
 --- enter write_ns ---
 LDA+U parameters:
U( 1)     =  0.00000000
alpha( 1) =  0.00000000
U( 2)     =  0.00000000
alpha( 2) = -0.15000000
U( 3)     =  0.00000000
alpha( 3) =  0.00000000
U( 4)     =  0.00000000
alpha( 4) =  0.00000000
atom    1   Tr[ns(na)] =   8.02037
    eigenvalues: 
  0.596  0.596  0.938  0.941  0.941
    eigenvectors:
  0.000  0.000  1.000  0.000  0.000
  0.334  0.321  0.000  0.004  0.342
  0.321  0.334  0.000  0.342  0.004
  0.288  0.057  0.000  0.515  0.140
  0.057  0.288  0.000  0.140  0.515
    occupations:
  0.938  0.000  0.000  0.000  0.000
  0.000  0.715  0.000 -0.061  0.152
  0.000  0.000  0.715  0.152  0.061
  0.000 -0.061  0.152  0.822  0.000
  0.000  0.152  0.061  0.000  0.822
atom    2   Tr[ns(na)] =   8.01925
    eigenvalues: 
  0.595  0.595  0.938  0.941  0.941
    eigenvectors:
  0.000  0.000  1.000  0.000  0.000
  0.639  0.016  0.000  0.223  0.122
  0.016  0.639  0.000  0.122  0.223
  0.016  0.329  0.000  0.471  0.184
  0.329  0.016  0.000  0.184  0.471
    occupations:
  0.938  0.000  0.000  0.000  0.000
  0.000  0.714  0.000  0.060  0.153
  0.000  0.000  0.714  0.153 -0.060
  0.000  0.060  0.153  0.822  0.000
  0.000  0.153 -0.060  0.000  0.822
atom    3   Tr[ns(na)] =   3.85226
    eigenvalues: 
  0.361  0.361  0.389  0.408  0.408
    eigenvectors:
  0.000  0.000  1.000  0.000  0.000
  0.785  0.138  0.000  0.011  0.066
  0.138  0.785  0.000  0.066  0.011
  0.012  0.065  0.000  0.783  0.140
  0.065  0.012  0.000  0.140  0.783
    occupations:
  0.389  0.000  0.000  0.000  0.000
  0.000  0.364  0.000  0.000  0.013
  0.000  0.000  0.364  0.013  0.000
  0.000  0.000  0.013  0.404  0.000
  0.000  0.013  0.000  0.000  0.404
atom    4   Tr[ns(na)] =   3.80312
    eigenvalues: 
  0.355  0.355  0.384  0.403  0.403
    eigenvectors:
  0.000  0.000  1.000  0.000  0.000
  0.781  0.140  0.000  0.012  0.068
  0.140  0.781  0.000  0.068  0.012
  0.013  0.067  0.000  0.780  0.140
  0.067  0.013  0.000  0.140  0.780
    occupations:
  0.384  0.000  0.000  0.000  0.000
  0.000  0.359  0.000  0.000  0.013
  0.000  0.000  0.359  0.013  0.000
  0.000  0.000  0.013  0.400  0.000
  0.000  0.013  0.000  0.000  0.400
atom    5   Tr[ns(na)] =   5.43116
    eigenvalues: 
  0.846  0.929  0.941
    eigenvectors:
  0.340  0.000  0.660
  0.496  0.250  0.255
  0.164  0.750  0.085
    occupations:
  0.909 -0.039  0.022
 -0.039  0.891  0.022
  0.022  0.022  0.916
atom    6   Tr[ns(na)] =   5.43116
    eigenvalues: 
  0.846  0.929  0.941
    eigenvectors:
  0.340  0.000  0.660
  0.494  0.250  0.256
  0.166  0.750  0.085
    occupations:
  0.909  0.039  0.022
  0.039  0.891 -0.022
  0.022 -0.022  0.916
atom    7   Tr[ns(na)] =   5.43116
    eigenvalues: 
  0.846  0.929  0.941
    eigenvectors:
  0.340  0.000  0.660
  0.000  1.000  0.000
  0.660  0.000  0.340
    occupations:
  0.909  0.000 -0.045
  0.000  0.929  0.000
 -0.045  0.000  0.878
atom    8   Tr[ns(na)] =   5.43119
    eigenvalues: 
  0.846  0.929  0.940
    eigenvectors:
  0.340  0.000  0.660
  0.495  0.250  0.255
  0.164  0.750  0.086
    occupations:
  0.908 -0.039  0.022
 -0.039  0.891  0.022
  0.022  0.022  0.917
atom    9   Tr[ns(na)] =   5.43119
    eigenvalues: 
  0.846  0.929  0.940
    eigenvectors:
  0.340  0.000  0.660
  0.494  0.250  0.256
  0.166  0.750  0.085
    occupations:
  0.908  0.038  0.022
  0.038  0.891 -0.022
  0.022 -0.022  0.916
atom   10   Tr[ns(na)] =   5.43119
    eigenvalues: 
  0.846  0.929  0.940
    eigenvectors:
  0.340  0.000  0.660
  0.000  1.000  0.000
  0.660  0.000  0.340
    occupations:
  0.908  0.000 -0.044
  0.000  0.929  0.000
 -0.044  0.000  0.878
N of occupied +U levels =  56.2820424
 --- exit write_ns ---
 --- in v_hubbard ---
Hubbard energy   -0.0422
 -------

     total cpu time spent up to now is       62.0 secs

     total energy              =    -538.37519944 Ry
     Harris-Foulkes estimate   =    -538.37522873 Ry
     estimated scf accuracy    <       0.00006019 Ry

     iteration #  3     ecut=    30.00 Ry     beta=0.20
     Davidson diagonalization with overlap
     ethr =  7.92E-08,  avg # of iterations =  2.4
 --- enter write_ns ---
 LDA+U parameters:
U( 1)     =  0.00000000
alpha( 1) =  0.00000000
U( 2)     =  0.00000000
alpha( 2) = -0.15000000
U( 3)     =  0.00000000
alpha( 3) =  0.00000000
U( 4)     =  0.00000000
alpha( 4) =  0.00000000
atom    1   Tr[ns(na)] =   8.01909
    eigenvalues: 
  0.596  0.596  0.937  0.940  0.940
    eigenvectors:
  0.000  0.000  1.000  0.000  0.000
  0.334  0.321  0.000  0.004  0.341
  0.321  0.334  0.000  0.341  0.004
  0.288  0.057  0.000  0.515  0.140
  0.057  0.288  0.000  0.140  0.515
    occupations:
  0.937  0.000  0.000  0.000  0.000
  0.000  0.715  0.000 -0.060  0.152
  0.000  0.000  0.715  0.152  0.060
  0.000 -0.060  0.152  0.821  0.000
  0.000  0.152  0.060  0.000  0.821
atom    2   Tr[ns(na)] =   8.02351
    eigenvalues: 
  0.595  0.595  0.938  0.941  0.941
    eigenvectors:
  0.000  0.000  1.000  0.000  0.000
  0.639  0.016  0.000  0.223  0.122
  0.016  0.639  0.000  0.122  0.223
  0.016  0.329  0.000  0.471  0.184
  0.329  0.016  0.000  0.184  0.471
    occupations:
  0.938  0.000  0.000  0.000  0.000
  0.000  0.715  0.000  0.060  0.153
  0.000  0.000  0.715  0.153 -0.060
  0.000  0.060  0.153  0.822  0.000
  0.000  0.153 -0.060  0.000  0.822
atom    3   Tr[ns(na)] =   3.84542
    eigenvalues: 
  0.360  0.360  0.388  0.407  0.407
    eigenvectors:
  0.000  0.000  1.000  0.000  0.000
  0.784  0.138  0.000  0.011  0.066
  0.138  0.784  0.000  0.066  0.011
  0.012  0.065  0.000  0.783  0.140
  0.065  0.012  0.000  0.140  0.783
    occupations:
  0.388  0.000  0.000  0.000  0.000
  0.000  0.364  0.000  0.000  0.013
  0.000  0.000  0.364  0.013  0.000
  0.000  0.000  0.013  0.404  0.000
  0.000  0.013  0.000  0.000  0.404
atom    4   Tr[ns(na)] =   3.80100
    eigenvalues: 
  0.355  0.355  0.384  0.403  0.403
    eigenvectors:
  0.000  0.000  1.000  0.000  0.000
  0.781  0.139  0.000  0.012  0.068
  0.139  0.781  0.000  0.068  0.012
  0.013  0.067  0.000  0.780  0.140
  0.067  0.013  0.000  0.140  0.780
    occupations:
  0.384  0.000  0.000  0.000  0.000
  0.000  0.359  0.000  0.000  0.013
  0.000  0.000  0.359  0.013  0.000
  0.000  0.000  0.013  0.399  0.000
  0.000  0.013  0.000  0.000  0.399
atom    5   Tr[ns(na)] =   5.43174
    eigenvalues: 
  0.846  0.929  0.941
    eigenvectors:
  0.340  0.000  0.660
  0.495  0.250  0.255
  0.164  0.750  0.086
    occupations:
  0.909 -0.039  0.022
 -0.039  0.891  0.022
  0.022  0.022  0.916
atom    6   Tr[ns(na)] =   5.43174
    eigenvalues: 
  0.846  0.929  0.941
    eigenvectors:
  0.340  0.000  0.660
  0.494  0.250  0.256
  0.166  0.750  0.085
    occupations:
  0.909  0.039  0.022
  0.039  0.891 -0.022
  0.022 -0.022  0.916
atom    7   Tr[ns(na)] =   5.43174
    eigenvalues: 
  0.846  0.929  0.941
    eigenvectors:
  0.340  0.000  0.660
  0.000  1.000  0.000
  0.660  0.000  0.340
    occupations:
  0.909  0.000 -0.045
  0.000  0.929  0.000
 -0.045  0.000  0.878
atom    8   Tr[ns(na)] =   5.43175
    eigenvalues: 
  0.846  0.929  0.940
    eigenvectors:
  0.340  0.000  0.660
  0.495  0.250  0.255
  0.164  0.750  0.086
    occupations:
  0.908 -0.039  0.022
 -0.039  0.891  0.022
  0.022  0.022  0.917
atom    9   Tr[ns(na)] =   5.43175
    eigenvalues: 
  0.846  0.929  0.940
    eigenvectors:
  0.340  0.000  0.660
  0.494  0.250  0.256
  0.166  0.750  0.085
    occupations:
  0.908  0.039  0.022
  0.039  0.891 -0.022
  0.022 -0.022  0.917
atom   10   Tr[ns(na)] =   5.43175
    eigenvalues: 
  0.846  0.929  0.940
    eigenvectors:
  0.340  0.000  0.660
  0.000  1.000  0.000
  0.660  0.000  0.340
    occupations:
  0.908  0.000 -0.045
  0.000  0.929  0.000
 -0.045  0.000  0.878
N of occupied +U levels =  56.2794840
 --- exit write_ns ---
 --- in v_hubbard ---
Hubbard energy   -0.0422
 -------

     total cpu time spent up to now is       78.5 secs

     total energy              =    -538.37520915 Ry
     Harris-Foulkes estimate   =    -538.37521211 Ry
     estimated scf accuracy    <       0.00001916 Ry

     iteration #  4     ecut=    30.00 Ry     beta=0.20
     Davidson diagonalization with overlap
     ethr =  2.52E-08,  avg # of iterations =  1.0
 --- enter write_ns ---
 LDA+U parameters:
U( 1)     =  0.00000000
alpha( 1) =  0.00000000
U( 2)     =  0.00000000
alpha( 2) = -0.15000000
U( 3)     =  0.00000000
alpha( 3) =  0.00000000
U( 4)     =  0.00000000
alpha( 4) =  0.00000000
atom    1   Tr[ns(na)] =   8.02652
    eigenvalues: 
  0.596  0.596  0.938  0.941  0.941
    eigenvectors:
  0.000  0.000  1.000  0.000  0.000
  0.334  0.321  0.000  0.004  0.342
  0.321  0.334  0.000  0.342  0.004
  0.289  0.057  0.000  0.515  0.140
  0.057  0.289  0.000  0.140  0.515
    occupations:
  0.938  0.000  0.000  0.000  0.000
  0.000  0.715  0.000 -0.061  0.152
  0.000  0.000  0.715  0.152  0.061
  0.000 -0.061  0.152  0.822  0.000
  0.000  0.152  0.061  0.000  0.822
atom    2   Tr[ns(na)] =   8.01537
    eigenvalues: 
  0.595  0.595  0.937  0.940  0.940
    eigenvectors:
  0.000  0.000  1.000  0.000  0.000
  0.638  0.017  0.000  0.223  0.123
  0.017  0.638  0.000  0.123  0.223
  0.015  0.330  0.000  0.471  0.184
  0.330  0.015  0.000  0.184  0.471
    occupations:
  0.937  0.000  0.000  0.000  0.000
  0.000  0.714  0.000  0.060  0.153
  0.000  0.000  0.714  0.153 -0.060
  0.000  0.060  0.153  0.821  0.000
  0.000  0.153 -0.060  0.000  0.821
atom    3   Tr[ns(na)] =   3.84538
    eigenvalues: 
  0.360  0.360  0.388  0.407  0.407
    eigenvectors:
  0.000  0.000  1.000  0.000  0.000
  0.784  0.139  0.000  0.011  0.066
  0.139  0.784  0.000  0.066  0.011
  0.012  0.065  0.000  0.783  0.140
  0.065  0.012  0.000  0.140  0.783
    occupations:
  0.388  0.000  0.000  0.000  0.000
  0.000  0.364  0.000  0.000  0.013
  0.000  0.000  0.364  0.013  0.000
  0.000  0.000  0.013  0.404  0.000
  0.000  0.013  0.000  0.000  0.404
atom    4   Tr[ns(na)] =   3.80119
    eigenvalues: 
  0.355  0.355  0.384  0.403  0.403
    eigenvectors:
  0.000  0.000  1.000  0.000  0.000
  0.781  0.140  0.000  0.012  0.068
  0.140  0.781  0.000  0.068  0.012
  0.013  0.067  0.000  0.780  0.140
  0.067  0.013  0.000  0.140  0.780
    occupations:
  0.384  0.000  0.000  0.000  0.000
  0.000  0.359  0.000  0.000  0.013
  0.000  0.000  0.359  0.013  0.000
  0.000  0.000  0.013  0.399  0.000
  0.000  0.013  0.000  0.000  0.399
atom    5   Tr[ns(na)] =   5.43182
    eigenvalues: 
  0.846  0.929  0.941
    eigenvectors:
  0.340  0.000  0.660
  0.496  0.249  0.255
  0.164  0.751  0.085
    occupations:
  0.909 -0.039  0.022
 -0.039  0.891  0.022
  0.022  0.022  0.916
atom    6   Tr[ns(na)] =   5.43182
    eigenvalues: 
  0.846  0.929  0.941
    eigenvectors:
  0.340  0.000  0.660
  0.494  0.251  0.256
  0.166  0.749  0.085
    occupations:
  0.909  0.039  0.022
  0.039  0.891 -0.022
  0.022 -0.022  0.916
atom    7   Tr[ns(na)] =   5.43182
    eigenvalues: 
  0.846  0.929  0.941
    eigenvectors:
  0.340  0.000  0.660
  0.000  1.000  0.000
  0.660  0.000  0.340
    occupations:
  0.909  0.000 -0.045
  0.000  0.929  0.000
 -0.045  0.000  0.878
atom    8   Tr[ns(na)] =   5.43185
    eigenvalues: 
  0.846  0.929  0.940
    eigenvectors:
  0.340  0.000  0.660
  0.496  0.249  0.255
  0.164  0.751  0.085
    occupations:
  0.908 -0.039  0.022
 -0.039  0.891  0.022
  0.022  0.022  0.917
atom    9   Tr[ns(na)] =   5.43185
    eigenvalues: 
  0.846  0.929  0.940
    eigenvectors:
  0.340  0.000  0.660
  0.494  0.251  0.256
  0.166  0.749  0.085
    occupations:
  0.908  0.039  0.022
  0.039  0.891 -0.022
  0.022 -0.022  0.917
atom   10   Tr[ns(na)] =   5.43185
    eigenvalues: 
  0.846  0.929  0.940
    eigenvectors:
  0.340  0.000  0.660
  0.000  1.000  0.000
  0.660  0.000  0.340
    occupations:
  0.908  0.000 -0.045
  0.000  0.929  0.000
 -0.045  0.000  0.878
N of occupied +U levels =  56.2794599
 --- exit write_ns ---
 --- in v_hubbard ---
Hubbard energy   -0.0422
 -------

     total cpu time spent up to now is       91.0 secs

     total energy              =    -538.37520871 Ry
     Harris-Foulkes estimate   =    -538.37521282 Ry
     estimated scf accuracy    <       0.00005933 Ry

     iteration #  5     ecut=    30.00 Ry     beta=0.20
     Davidson diagonalization with overlap
     ethr =  2.52E-08,  avg # of iterations =  1.0
 --- enter write_ns ---
 LDA+U parameters:
U( 1)     =  0.00000000
alpha( 1) =  0.00000000
U( 2)     =  0.00000000
alpha( 2) = -0.15000000
U( 3)     =  0.00000000
alpha( 3) =  0.00000000
U( 4)     =  0.00000000
alpha( 4) =  0.00000000
atom    1   Tr[ns(na)] =   8.02058
    eigenvalues: 
  0.596  0.596  0.938  0.941  0.941
    eigenvectors:
  0.000  0.000  1.000  0.000  0.000
  0.334  0.321  0.000  0.004  0.342
  0.321  0.334  0.000  0.342  0.004
  0.288  0.057  0.000  0.515  0.140
  0.057  0.288  0.000  0.140  0.515
    occupations:
  0.938  0.000  0.000  0.000  0.000
  0.000  0.715  0.000 -0.060  0.152
  0.000  0.000  0.715  0.152  0.060
  0.000 -0.060  0.152  0.822  0.000
  0.000  0.152  0.060  0.000  0.822
atom    2   Tr[ns(na)] =   8.02064
    eigenvalues: 
  0.595  0.595  0.938  0.941  0.941
    eigenvectors:
  0.000  0.000  1.000  0.000  0.000
  0.638  0.016  0.000  0.223  0.122
  0.016  0.638  0.000  0.122  0.223
  0.016  0.329  0.000  0.470  0.184
  0.329  0.016  0.000  0.184  0.470
    occupations:
  0.938  0.000  0.000  0.000  0.000
  0.000  0.714  0.000  0.060  0.153
  0.000  0.000  0.714  0.153 -0.060
  0.000  0.060  0.153  0.822  0.000
  0.000  0.153 -0.060  0.000  0.822
atom    3   Tr[ns(na)] =   3.84531
    eigenvalues: 
  0.360  0.360  0.388  0.407  0.407
    eigenvectors:
  0.000  0.000  1.000  0.000  0.000
  0.784  0.139  0.000  0.011  0.066
  0.139  0.784  0.000  0.066  0.011
  0.012  0.065  0.000  0.783  0.140
  0.065  0.012  0.000  0.140  0.783
    occupations:
  0.388  0.000  0.000  0.000  0.000
  0.000  0.364  0.000  0.000  0.013
  0.000  0.000  0.364  0.013  0.000
  0.000  0.000  0.013  0.404  0.000
  0.000  0.013  0.000  0.000  0.404
atom    4   Tr[ns(na)] =   3.80152
    eigenvalues: 
  0.355  0.355  0.384  0.403  0.403
    eigenvectors:
  0.000  0.000  1.000  0.000  0.000
  0.781  0.140  0.000  0.012  0.068
  0.140  0.781  0.000  0.068  0.012
  0.013  0.067  0.000  0.780  0.140
  0.067  0.013  0.000  0.140  0.780
    occupations:
  0.384  0.000  0.000  0.000  0.000
  0.000  0.359  0.000  0.000  0.013
  0.000  0.000  0.359  0.013  0.000
  0.000  0.000  0.013  0.399  0.000
  0.000  0.013  0.000  0.000  0.399
atom    5   Tr[ns(na)] =   5.43188
    eigenvalues: 
  0.846  0.929  0.941
    eigenvectors:
  0.340  0.000  0.660
  0.496  0.250  0.255
  0.164  0.750  0.086
    occupations:
  0.909 -0.039  0.022
 -0.039  0.891  0.022
  0.022  0.022  0.916
atom    6   Tr[ns(na)] =   5.43188
    eigenvalues: 
  0.846  0.929  0.941
    eigenvectors:
  0.340  0.000  0.660
  0.494  0.250  0.256
  0.166  0.750  0.085
    occupations:
  0.909  0.039  0.022
  0.039  0.891 -0.022
  0.022 -0.022  0.916
atom    7   Tr[ns(na)] =   5.43188
    eigenvalues: 
  0.846  0.929  0.941
    eigenvectors:
  0.340  0.000  0.660
  0.000  1.000  0.000
  0.660  0.000  0.340
    occupations:
  0.909  0.000 -0.045
  0.000  0.929  0.000
 -0.045  0.000  0.878
atom    8   Tr[ns(na)] =   5.43193
    eigenvalues: 
  0.846  0.929  0.940
    eigenvectors:
  0.340  0.000  0.660
  0.495  0.250  0.255
  0.164  0.750  0.086
    occupations:
  0.908 -0.039  0.022
 -0.039  0.891  0.022
  0.022  0.022  0.917
atom    9   Tr[ns(na)] =   5.43193
    eigenvalues: 
  0.846  0.929  0.940
    eigenvectors:
  0.340  0.000  0.660
  0.494  0.250  0.256
  0.166  0.750  0.085
    occupations:
  0.908  0.039  0.022
  0.039  0.891 -0.022
  0.022 -0.022  0.917
atom   10   Tr[ns(na)] =   5.43193
    eigenvalues: 
  0.846  0.929  0.940
    eigenvectors:
  0.340  0.000  0.660
  0.000  1.000  0.000
  0.660  0.000  0.340
    occupations:
  0.908  0.000 -0.045
  0.000  0.929  0.000
 -0.045  0.000  0.878
N of occupied +U levels =  56.2794812
 --- exit write_ns ---
 --- in v_hubbard ---
Hubbard energy   -0.0423
 -------

     total cpu time spent up to now is      104.8 secs

     total energy              =    -538.37520962 Ry
     Harris-Foulkes estimate   =    -538.37521063 Ry
     estimated scf accuracy    <       0.00000268 Ry

     iteration #  6     ecut=    30.00 Ry     beta=0.20
     Davidson diagonalization with overlap
     ethr =  3.52E-09,  avg # of iterations =  2.0
 --- enter write_ns ---
 LDA+U parameters:
U( 1)     =  0.00000000
alpha( 1) =  0.00000000
U( 2)     =  0.00000000
alpha( 2) = -0.15000000
U( 3)     =  0.00000000
alpha( 3) =  0.00000000
U( 4)     =  0.00000000
alpha( 4) =  0.00000000
atom    1   Tr[ns(na)] =   8.02107
    eigenvalues: 
  0.596  0.596  0.938  0.941  0.941
    eigenvectors:
  0.000  0.000  1.000  0.000  0.000
  0.334  0.321  0.000  0.004  0.342
  0.321  0.334  0.000  0.342  0.004
  0.289  0.057  0.000  0.515  0.140
  0.057  0.289  0.000  0.140  0.515
    occupations:
  0.938  0.000  0.000  0.000  0.000
  0.000  0.715  0.000 -0.060  0.152
  0.000  0.000  0.715  0.152  0.060
  0.000 -0.060  0.152  0.822  0.000
  0.000  0.152  0.060  0.000  0.822
atom    2   Tr[ns(na)] =   8.02048
    eigenvalues: 
  0.595  0.595  0.938  0.941  0.941
    eigenvectors:
  0.000  0.000  1.000  0.000  0.000
  0.638  0.016  0.000  0.223  0.122
  0.016  0.638  0.000  0.122  0.223
  0.016  0.329  0.000  0.470  0.184
  0.329  0.016  0.000  0.184  0.470
    occupations:
  0.938  0.000  0.000  0.000  0.000
  0.000  0.714  0.000  0.060  0.153
  0.000  0.000  0.714  0.153 -0.060
  0.000  0.060  0.153  0.822  0.000
  0.000  0.153 -0.060  0.000  0.822
atom    3   Tr[ns(na)] =   3.84503
    eigenvalues: 
  0.360  0.360  0.388  0.407  0.407
    eigenvectors:
  0.000  0.000  1.000  0.000  0.000
  0.784  0.138  0.000  0.011  0.066
  0.138  0.784  0.000  0.066  0.011
  0.012  0.065  0.000  0.783  0.140
  0.065  0.012  0.000  0.140  0.783
    occupations:
  0.388  0.000  0.000  0.000  0.000
  0.000  0.364  0.000  0.000  0.013
  0.000  0.000  0.364  0.013  0.000
  0.000  0.000  0.013  0.404  0.000
  0.000  0.013  0.000  0.000  0.404
atom    4   Tr[ns(na)] =   3.80264
    eigenvalues: 
  0.355  0.355  0.384  0.403  0.403
    eigenvectors:
  0.000  0.000  1.000  0.000  0.000
  0.781  0.140  0.000  0.012  0.068
  0.140  0.781  0.000  0.068  0.012
  0.013  0.067  0.000  0.780  0.140
  0.067  0.013  0.000  0.140  0.780
    occupations:
  0.384  0.000  0.000  0.000  0.000
  0.000  0.359  0.000  0.000  0.013
  0.000  0.000  0.359  0.013  0.000
  0.000  0.000  0.013  0.399  0.000
  0.000  0.013  0.000  0.000  0.399
atom    5   Tr[ns(na)] =   5.43173
    eigenvalues: 
  0.846  0.929  0.941
    eigenvectors:
  0.340  0.000  0.660
  0.496  0.250  0.255
  0.164  0.750  0.085
    occupations:
  0.909 -0.039  0.022
 -0.039  0.891  0.022
  0.022  0.022  0.916
atom    6   Tr[ns(na)] =   5.43173
    eigenvalues: 
  0.846  0.929  0.941
    eigenvectors:
  0.340  0.000  0.660
  0.494  0.250  0.256
  0.166  0.750  0.085
    occupations:
  0.909  0.039  0.022
  0.039  0.891 -0.022
  0.022 -0.022  0.916
atom    7   Tr[ns(na)] =   5.43173
    eigenvalues: 
  0.846  0.929  0.941
    eigenvectors:
  0.340  0.000  0.660
  0.000  1.000  0.000
  0.660  0.000  0.340
    occupations:
  0.909  0.000 -0.045
  0.000  0.929  0.000
 -0.045  0.000  0.878
atom    8   Tr[ns(na)] =   5.43178
    eigenvalues: 
  0.846  0.929  0.940
    eigenvectors:
  0.340  0.000  0.660
  0.495  0.250  0.255
  0.164  0.750  0.086
    occupations:
  0.908 -0.039  0.022
 -0.039  0.891  0.022
  0.022  0.022  0.917
atom    9   Tr[ns(na)] =   5.43178
    eigenvalues: 
  0.846  0.929  0.940
    eigenvectors:
  0.340  0.000  0.660
  0.494  0.250  0.256
  0.166  0.750  0.085
    occupations:
  0.908  0.039  0.022
  0.039  0.891 -0.022
  0.022 -0.022  0.916
atom   10   Tr[ns(na)] =   5.43178
    eigenvalues: 
  0.846  0.929  0.940
    eigenvectors:
  0.340  0.000  0.660
  0.000  1.000  0.000
  0.660  0.000  0.340
    occupations:
  0.908  0.000 -0.045
  0.000  0.929  0.000
 -0.045  0.000  0.878
N of occupied +U levels =  56.2797438
 --- exit write_ns ---
 --- in v_hubbard ---
Hubbard energy   -0.0423
 -------

     total cpu time spent up to now is      120.4 secs

     total energy              =    -538.37520994 Ry
     Harris-Foulkes estimate   =    -538.37521004 Ry
     estimated scf accuracy    <       0.00000035 Ry

     iteration #  7     ecut=    30.00 Ry     beta=0.20
     Davidson diagonalization with overlap
     ethr =  4.65E-10,  avg # of iterations =  2.0
 --- enter write_ns ---
 LDA+U parameters:
U( 1)     =  0.00000000
alpha( 1) =  0.00000000
U( 2)     =  0.00000000
alpha( 2) = -0.15000000
U( 3)     =  0.00000000
alpha( 3) =  0.00000000
U( 4)     =  0.00000000
alpha( 4) =  0.00000000
atom    1   Tr[ns(na)] =   8.02111
    eigenvalues: 
  0.596  0.596  0.938  0.941  0.941
    eigenvectors:
  0.000  0.000  1.000  0.000  0.000
  0.334  0.321  0.000  0.004  0.342
  0.321  0.334  0.000  0.342  0.004
  0.288  0.057  0.000  0.515  0.140
  0.057  0.288  0.000  0.140  0.515
    occupations:
  0.938  0.000  0.000  0.000  0.000
  0.000  0.715  0.000 -0.060  0.152
  0.000  0.000  0.715  0.152  0.060
  0.000 -0.060  0.152  0.822  0.000
  0.000  0.152  0.060  0.000  0.822
atom    2   Tr[ns(na)] =   8.02045
    eigenvalues: 
  0.595  0.595  0.938  0.941  0.941
    eigenvectors:
  0.000  0.000  1.000  0.000  0.000
  0.638  0.016  0.000  0.223  0.122
  0.016  0.638  0.000  0.122  0.223
  0.016  0.330  0.000  0.470  0.184
  0.330  0.016  0.000  0.184  0.470
    occupations:
  0.938  0.000  0.000  0.000  0.000
  0.000  0.714  0.000  0.060  0.153
  0.000  0.000  0.714  0.153 -0.060
  0.000  0.060  0.153  0.822  0.000
  0.000  0.153 -0.060  0.000  0.822
atom    3   Tr[ns(na)] =   3.84471
    eigenvalues: 
  0.360  0.360  0.388  0.407  0.407
    eigenvectors:
  0.000  0.000  1.000  0.000  0.000
  0.784  0.139  0.000  0.011  0.066
  0.139  0.784  0.000  0.066  0.011
  0.012  0.065  0.000  0.783  0.140
  0.065  0.012  0.000  0.140  0.783
    occupations:
  0.388  0.000  0.000  0.000  0.000
  0.000  0.364  0.000  0.000  0.013
  0.000  0.000  0.364  0.013  0.000
  0.000  0.000  0.013  0.404  0.000
  0.000  0.013  0.000  0.000  0.404
atom    4   Tr[ns(na)] =   3.80235
    eigenvalues: 
  0.355  0.355  0.384  0.403  0.403
    eigenvectors:
  0.000  0.000  1.000  0.000  0.000
  0.781  0.140  0.000  0.012  0.068
  0.140  0.781  0.000  0.068  0.012
  0.013  0.067  0.000  0.780  0.140
  0.067  0.013  0.000  0.140  0.780
    occupations:
  0.384  0.000  0.000  0.000  0.000
  0.000  0.359  0.000  0.000  0.013
  0.000  0.000  0.359  0.013  0.000
  0.000  0.000  0.013  0.399  0.000
  0.000  0.013  0.000  0.000  0.399
atom    5   Tr[ns(na)] =   5.43180
    eigenvalues: 
  0.846  0.929  0.941
    eigenvectors:
  0.340  0.000  0.660
  0.496  0.250  0.255
  0.164  0.750  0.085
    occupations:
  0.909 -0.039  0.022
 -0.039  0.891  0.022
  0.022  0.022  0.916
atom    6   Tr[ns(na)] =   5.43180
    eigenvalues: 
  0.846  0.929  0.941
    eigenvectors:
  0.340  0.000  0.660
  0.494  0.250  0.256
  0.166  0.750  0.085
    occupations:
  0.909  0.039  0.022
  0.039  0.891 -0.022
  0.022 -0.022  0.916
atom    7   Tr[ns(na)] =   5.43180
    eigenvalues: 
  0.846  0.929  0.941
    eigenvectors:
  0.340  0.000  0.660
  0.000  1.000  0.000
  0.660  0.000  0.340
    occupations:
  0.909  0.000 -0.045
  0.000  0.929  0.000
 -0.045  0.000  0.878
atom    8   Tr[ns(na)] =   5.43184
    eigenvalues: 
  0.846  0.929  0.940
    eigenvectors:
  0.340  0.000  0.660
  0.495  0.250  0.255
  0.164  0.750  0.086
    occupations:
  0.908 -0.039  0.022
 -0.039  0.891  0.022
  0.022  0.022  0.917
atom    9   Tr[ns(na)] =   5.43184
    eigenvalues: 
  0.846  0.929  0.940
    eigenvectors:
  0.340  0.000  0.660
  0.494  0.250  0.256
  0.166  0.750  0.085
    occupations:
  0.908  0.039  0.022
  0.039  0.891 -0.022
  0.022 -0.022  0.917
atom   10   Tr[ns(na)] =   5.43184
    eigenvalues: 
  0.846  0.929  0.940
    eigenvectors:
  0.340  0.000  0.660
  0.000  1.000  0.000
  0.660  0.000  0.340
    occupations:
  0.908  0.000 -0.045
  0.000  0.929  0.000
 -0.045  0.000  0.878
N of occupied +U levels =  56.2795479
 --- exit write_ns ---
 --- in v_hubbard ---
Hubbard energy   -0.0424
 -------

     total cpu time spent up to now is      134.6 secs

     total energy              =    -538.37520997 Ry
     Harris-Foulkes estimate   =    -538.37520999 Ry
     estimated scf accuracy    <       0.00000011 Ry

     iteration #  8     ecut=    30.00 Ry     beta=0.20
     Davidson diagonalization with overlap
     ethr =  1.49E-10,  avg # of iterations =  2.0
 --- enter write_ns ---
 LDA+U parameters:
U( 1)     =  0.00000000
alpha( 1) =  0.00000000
U( 2)     =  0.00000000
alpha( 2) = -0.15000000
U( 3)     =  0.00000000
alpha( 3) =  0.00000000
U( 4)     =  0.00000000
alpha( 4) =  0.00000000
atom    1   Tr[ns(na)] =   8.02112
    eigenvalues: 
  0.596  0.596  0.938  0.941  0.941
    eigenvectors:
  0.000  0.000  1.000  0.000  0.000
  0.334  0.321  0.000  0.004  0.342
  0.321  0.334  0.000  0.342  0.004
  0.288  0.057  0.000  0.515  0.140
  0.057  0.288  0.000  0.140  0.515
    occupations:
  0.938  0.000  0.000  0.000  0.000
  0.000  0.715  0.000 -0.060  0.152
  0.000  0.000  0.715  0.152  0.060
  0.000 -0.060  0.152  0.822  0.000
  0.000  0.152  0.060  0.000  0.822
atom    2   Tr[ns(na)] =   8.02048
    eigenvalues: 
  0.595  0.595  0.938  0.941  0.941
    eigenvectors:
  0.000  0.000  1.000  0.000  0.000
  0.638  0.017  0.000  0.223  0.122
  0.017  0.638  0.000  0.122  0.223
  0.015  0.330  0.000  0.470  0.184
  0.330  0.015  0.000  0.184  0.470
    occupations:
  0.938  0.000  0.000  0.000  0.000
  0.000  0.714  0.000  0.060  0.153
  0.000  0.000  0.714  0.153 -0.060
  0.000  0.060  0.153  0.822  0.000
  0.000  0.153 -0.060  0.000  0.822
atom    3   Tr[ns(na)] =   3.84482
    eigenvalues: 
  0.360  0.360  0.388  0.407  0.407
    eigenvectors:
  0.000  0.000  1.000  0.000  0.000
  0.784  0.139  0.000  0.011  0.066
  0.139  0.784  0.000  0.066  0.011
  0.012  0.065  0.000  0.783  0.140
  0.065  0.012  0.000  0.140  0.783
    occupations:
  0.388  0.000  0.000  0.000  0.000
  0.000  0.364  0.000  0.000  0.013
  0.000  0.000  0.364  0.013  0.000
  0.000  0.000  0.013  0.404  0.000
  0.000  0.013  0.000  0.000  0.404
atom    4   Tr[ns(na)] =   3.80231
    eigenvalues: 
  0.355  0.355  0.384  0.403  0.403
    eigenvectors:
  0.000  0.000  1.000  0.000  0.000
  0.781  0.139  0.000  0.012  0.068
  0.139  0.781  0.000  0.068  0.012
  0.013  0.067  0.000  0.780  0.140
  0.067  0.013  0.000  0.140  0.780
    occupations:
  0.384  0.000  0.000  0.000  0.000
  0.000  0.359  0.000  0.000  0.013
  0.000  0.000  0.359  0.013  0.000
  0.000  0.000  0.013  0.399  0.000
  0.000  0.013  0.000  0.000  0.399
atom    5   Tr[ns(na)] =   5.43178
    eigenvalues: 
  0.846  0.929  0.941
    eigenvectors:
  0.340  0.000  0.660
  0.496  0.250  0.255
  0.164  0.750  0.085
    occupations:
  0.909 -0.039  0.022
 -0.039  0.891  0.022
  0.022  0.022  0.916
atom    6   Tr[ns(na)] =   5.43178
    eigenvalues: 
  0.846  0.929  0.941
    eigenvectors:
  0.340  0.000  0.660
  0.494  0.250  0.256
  0.166  0.750  0.085
    occupations:
  0.909  0.039  0.022
  0.039  0.891 -0.022
  0.022 -0.022  0.916
atom    7   Tr[ns(na)] =   5.43178
    eigenvalues: 
  0.846  0.929  0.941
    eigenvectors:
  0.340  0.000  0.660
  0.000  1.000  0.000
  0.660  0.000  0.340
    occupations:
  0.909  0.000 -0.045
  0.000  0.929  0.000
 -0.045  0.000  0.878
atom    8   Tr[ns(na)] =   5.43183
    eigenvalues: 
  0.846  0.929  0.940
    eigenvectors:
  0.340  0.000  0.660
  0.495  0.250  0.255
  0.164  0.750  0.086
    occupations:
  0.908 -0.039  0.022
 -0.039  0.891  0.022
  0.022  0.022  0.917
atom    9   Tr[ns(na)] =   5.43183
    eigenvalues: 
  0.846  0.929  0.940
    eigenvectors:
  0.340  0.000  0.660
  0.494  0.250  0.256
  0.166  0.750  0.085
    occupations:
  0.908  0.039  0.022
  0.039  0.891 -0.022
  0.022 -0.022  0.917
atom   10   Tr[ns(na)] =   5.43183
    eigenvalues: 
  0.846  0.929  0.940
    eigenvectors:
  0.340  0.000  0.660
  0.000  1.000  0.000
  0.660  0.000  0.340
    occupations:
  0.908  0.000 -0.045
  0.000  0.929  0.000
 -0.045  0.000  0.878
N of occupied +U levels =  56.2795699
 --- exit write_ns ---
 --- in v_hubbard ---
Hubbard energy   -0.0424
 -------

     total cpu time spent up to now is      149.6 secs

     End of self-consistent calculation

          k = 0.0000 0.0000 0.0000 (  2175 PWs)   bands (ev):

   -19.7783 -19.5890  -6.5485  -5.8595  -5.8595  -5.8174  -5.8174  -5.5221
    -3.7296  -3.2350  -3.1808  -3.1808  -3.0017  -3.0017   5.1835   6.9233
     6.9233   7.5131   7.5131   7.7096   7.8194   7.8194   7.8816   9.2941
     9.6131   9.6131   9.8609   9.9049   9.9049  10.4602  10.4602  10.6515
    10.6515  10.6723  10.8011  11.4969  11.4969  12.1699  12.2865  12.2865
    14.7591  14.7591  15.3723  15.3723  16.1337  16.7284

     occupation numbers 
     0.0313   0.0313   0.0313   0.0313   0.0313   0.0313   0.0313   0.0313
     0.0313   0.0313   0.0313   0.0313   0.0313   0.0313   0.0313   0.0313
     0.0313   0.0313   0.0313   0.0313   0.0313   0.0313   0.0313   0.0313
     0.0313   0.0313   0.0312   0.0312   0.0312   0.0312   0.0312   0.0312
     0.0312   0.0312   0.0312   0.0309   0.0309   0.0149   0.0100   0.0100
     0.0000   0.0000   0.0000   0.0000   0.0000   0.0000

          k =-0.2471-0.1427 0.1027 (  2181 PWs)   bands (ev):

   -19.7531 -19.6094  -6.7304  -6.3124  -5.9418  -5.8571  -5.6263  -5.4950
    -3.5522  -3.3596  -2.9079  -2.8774  -2.8253  -2.7278   5.5411   6.8671
     7.0224   7.0304   7.3318   7.5075   7.5675   7.8139   7.8588   8.6014
     8.6987   9.3404   9.6596   9.7922   9.8418  10.0213  10.3691  10.3809
    11.0241  11.0555  11.1391  11.8696  11.9216  11.9835  12.3439  12.4028
    14.3025  14.3094  15.7648  16.0226  16.9237  17.2217

     occupation numbers 
     0.1875   0.1875   0.1875   0.1875   0.1875   0.1875   0.1875   0.1875
     0.1875   0.1875   0.1875   0.1875   0.1875   0.1875   0.1875   0.1875
     0.1875   0.1875   0.1875   0.1875   0.1875   0.1875   0.1875   0.1875
     0.1875   0.1875   0.1875   0.1875   0.1875   0.1875   0.1875   0.1875
     0.1875   0.1875   0.1875   0.1568   0.1477   0.1351   0.0475   0.0361
     0.0000   0.0000   0.0000   0.0000   0.0000   0.0000

          k = 0.4942 0.2853-0.2053 (  2202 PWs)   bands (ev):

   -19.7162 -19.6418  -6.7591  -6.7146  -5.9688  -5.9583  -5.5311  -5.5244
    -3.3669  -3.3326  -2.7699  -2.7516  -2.5113  -2.4576   6.0590   6.0832
     7.2100   7.2251   7.2793   7.2984   7.6426   7.6703   7.9621   7.9966
     8.1825   8.2126   9.5299   9.5320   9.8680   9.8751  10.2732  10.2829
    11.4614  11.4649  11.5405  11.5451  11.7065  11.7106  13.2832  13.3119
    13.3704  13.3993  16.7668  16.8273  17.0672  17.1259

     occupation numbers 
     0.0938   0.0938   0.0938   0.0938   0.0938   0.0938   0.0938   0.0938
     0.0938   0.0938   0.0938   0.0938   0.0938   0.0938   0.0938   0.0938
     0.0938   0.0938   0.0938   0.0938   0.0938   0.0938   0.0938   0.0938
     0.0938   0.0938   0.0938   0.0938   0.0937   0.0937   0.0937   0.0937
     0.0930   0.0929   0.0922   0.0921   0.0880   0.0878   0.0000   0.0000
     0.0000   0.0000   0.0000   0.0000   0.0000   0.0000

          k =-0.2471 0.1427 0.2053 (  2195 PWs)   bands (ev):

   -19.7525 -19.6118  -6.8506  -6.2348  -6.0769  -5.8615  -5.6715  -5.4560
    -3.3795  -3.2306  -3.0749  -2.8638  -2.7866  -2.5359   5.5696   6.8387
     6.9215   7.1051   7.2319   7.4681   7.4764   7.8639   7.8660   8.6633
     8.9001   8.9034   9.2920   9.7861   9.9822  10.0915  10.1924  10.2905
    10.6757  11.3820  11.4078  11.4985  11.9202  11.9867  12.1601  12.7249
    13.6227  14.7744  15.9397  16.1473  16.9822  17.5050

     occupation numbers 
     0.1875   0.1875   0.1875   0.1875   0.1875   0.1875   0.1875   0.1875
     0.1875   0.1875   0.1875   0.1875   0.1875   0.1875   0.1875   0.1875
     0.1875   0.1875   0.1875   0.1875   0.1875   0.1875   0.1875   0.1875
     0.1875   0.1875   0.1875   0.1875   0.1875   0.1875   0.1875   0.1875
     0.1875   0.1868   0.1866   0.1853   0.1480   0.1344   0.0917   0.0044
     0.0000   0.0000   0.0000   0.0000   0.0000   0.0000

          k = 0.4942 0.5706-0.1027 (  2198 PWs)   bands (ev):

   -19.7280 -19.6351  -6.9587  -6.6615  -6.1332  -5.9052  -5.5237  -5.3773
    -3.2752  -3.2200  -2.8516  -2.6831  -2.5044  -2.3602   5.8932   6.2631
     6.8670   7.0265   7.2189   7.3288   7.5506   7.7993   7.9317   8.0639
     8.3586   8.9043   9.1593   9.3469   9.6608   9.8122   9.9651  10.3574
    11.0910  11.5302  11.6190  11.6911  11.8204  11.8447  12.3248  12.7278
    13.4145  14.3508  16.8614  17.0776  17.2747  17.9739

     occupation numbers 
     0.1875   0.1875   0.1875   0.1875   0.1875   0.1875   0.1875   0.1875
     0.1875   0.1875   0.1875   0.1875   0.1875   0.1875   0.1875   0.1875
     0.1875   0.1875   0.1875   0.1875   0.1875   0.1875   0.1875   0.1875
     0.1875   0.1875   0.1875   0.1875   0.1875   0.1875   0.1875   0.1875
     0.1875   0.1846   0.1814   0.1772   0.1640   0.1606   0.0515   0.0043
     0.0000   0.0000   0.0000   0.0000   0.0000   0.0000

          k = 0.2471 0.4280 0.0000 (  2203 PWs)   bands (ev):

   -19.7295 -19.6317  -6.8543  -6.6564  -6.0604  -5.9847  -5.4466  -5.3704
    -3.4790  -3.2632  -2.7767  -2.6917  -2.5370  -2.5328   5.8734   6.3067
     7.0746   7.1288   7.2189   7.3157   7.4518   7.7128   7.8129   8.1859
     8.4168   8.9288   9.4156   9.4669   9.7661   9.7882  10.0595  10.3609
    11.3907  11.3992  11.4275  11.6510  11.6607  11.9408  12.2725  13.3106
    13.3833  14.1456  16.3931  16.9544  17.3842  17.8885

     occupation numbers 
     0.1875   0.1875   0.1875   0.1875   0.1875   0.1875   0.1875   0.1875
     0.1875   0.1875   0.1875   0.1875   0.1875   0.1875   0.1875   0.1875
     0.1875   0.1875   0.1875   0.1875   0.1875   0.1875   0.1875   0.1875
     0.1875   0.1875   0.1875   0.1875   0.1875   0.1875   0.1875   0.1875
     0.1867   0.1866   0.1864   0.1798   0.1792   0.1440   0.0634   0.0000
     0.0000   0.0000   0.0000   0.0000   0.0000   0.0000

          k = 0.4942-0.2853-0.4107 (  2202 PWs)   bands (ev):

   -19.7391 -19.6295  -7.1577  -6.4522  -6.2367  -6.0061  -5.5509  -5.2762
    -3.1608  -3.0945  -3.0151  -2.6286  -2.4596  -2.1985   5.7858   6.3133
     6.4289   6.9170   7.1258   7.2328   7.8699   7.8992   8.1212   8.3091
     8.5838   8.5921   8.6336   9.4121   9.6684  10.0287  10.0644  10.4343
    10.6413  11.2854  11.5553  11.7432  11.8478  11.9616  12.0543  12.4427
    13.3144  14.7867  16.9945  17.2285  17.4646  17.5872

     occupation numbers 
     0.0938   0.0938   0.0938   0.0938   0.0938   0.0938   0.0938   0.0938
     0.0938   0.0938   0.0938   0.0938   0.0938   0.0938   0.0938   0.0938
     0.0938   0.0938   0.0938   0.0938   0.0938   0.0938   0.0938   0.0938
     0.0938   0.0938   0.0938   0.0938   0.0938   0.0937   0.0937   0.0937
     0.0937   0.0936   0.0919   0.0864   0.0801   0.0699   0.0593   0.0147
     0.0000   0.0000   0.0000   0.0000   0.0000   0.0000

          k = 0.0000 0.0000 0.3080 (  2187 PWs)   bands (ev):

   -19.7529 -19.6092  -6.6176  -6.0092  -5.9392  -5.9347  -5.8484  -5.8429
    -3.1757  -3.1050  -3.0614  -2.9357  -2.8895  -2.8511   5.5951   7.0167
     7.0205   7.1318   7.4298   7.4333   7.5170   7.8389   7.8507   8.8511
     8.8535   9.4289   9.4383   9.6506   9.6535   9.8705  10.1255  10.1300
    11.1408  11.1428  11.2070  11.8820  11.8831  11.9970  12.3241  12.3253
    14.2610  14.2649  15.8534  15.8656  16.8257  17.4348

     occupation numbers 
     0.0625   0.0625   0.0625   0.0625   0.0625   0.0625   0.0625   0.0625
     0.0625   0.0625   0.0625   0.0625   0.0625   0.0625   0.0625   0.0625
     0.0625   0.0625   0.0625   0.0625   0.0625   0.0625   0.0625   0.0625
     0.0625   0.0625   0.0625   0.0625   0.0625   0.0625   0.0625   0.0625
     0.0625   0.0625   0.0625   0.0516   0.0515   0.0440   0.0172   0.0171
     0.0000   0.0000   0.0000   0.0000   0.0000   0.0000

          k = 0.7412 0.4280 0.0000 (  2204 PWs)   bands (ev):

   -19.7293 -19.6315  -6.7406  -6.6189  -6.1549  -5.8408  -5.6733  -5.5562
    -3.1420  -3.0696  -3.0131  -2.6615  -2.6214  -2.5576   5.9137   6.4934
     7.0890   7.1968   7.2203   7.3375   7.4388   7.6503   7.9978   8.1418
     8.4457   8.8350   9.4662   9.4860   9.6021   9.6760   9.8504  10.2150
    11.3888  11.4004  11.4972  11.6801  11.7080  11.8721  12.2819  13.2352
    13.2982  14.1690  16.6440  16.6847  17.5527  17.7661

     occupation numbers 
     0.1875   0.1875   0.1875   0.1875   0.1875   0.1875   0.1875   0.1875
     0.1875   0.1875   0.1875   0.1875   0.1875   0.1875   0.1875   0.1875
     0.1875   0.1875   0.1875   0.1875   0.1875   0.1875   0.1875   0.1875
     0.1875   0.1875   0.1875   0.1875   0.1875   0.1875   0.1875   0.1875
     0.1867   0.1866   0.1853   0.1779   0.1759   0.1564   0.0612   0.0000
     0.0000   0.0000   0.0000   0.0000   0.0000   0.0000

          k = 0.4942 0.2853 0.1027 (  2211 PWs)   bands (ev):

   -19.7280 -19.6351  -6.9748  -6.5624  -6.3258  -5.7071  -5.6342  -5.3535
    -3.2860  -3.1382  -3.0001  -2.5844  -2.5340  -2.3529   5.9242   6.2313
     6.8217   7.0180   7.2049   7.2785   7.5706   7.8707   7.9701   8.0263
     8.3930   9.0328   9.1561   9.3968   9.5446   9.6704  10.0152  10.3804
    11.1052  11.5664  11.6923  11.6990  11.7569  11.7786  12.2770  12.7446
    13.4600  14.3325  16.8384  16.9016  17.5459  17.8871

     occupation numbers 
     0.1875   0.1875   0.1875   0.1875   0.1875   0.1875   0.1875   0.1875
     0.1875   0.1875   0.1875   0.1875   0.1875   0.1875   0.1875   0.1875
     0.1875   0.1875   0.1875   0.1875   0.1875   0.1875   0.1875   0.1875
     0.1875   0.1875   0.1875   0.1875   0.1875   0.1875   0.1875   0.1875
     0.1875   0.1835   0.1771   0.1766   0.1715   0.1692   0.0624   0.0038
     0.0000   0.0000   0.0000   0.0000   0.0000   0.0000

          k = 0.7412-0.4280-0.3080 (  2210 PWs)   bands (ev):

   -19.7278 -19.6349  -6.9111  -6.4698  -6.3029  -5.8110  -5.7682  -5.4775
    -3.0417  -3.0263  -2.9373  -2.7031  -2.5969  -2.4044   5.9830   6.3784
     6.9149   7.0042   7.2516   7.2626   7.5905   7.8908   8.0175   8.0565
     8.3691   9.0040   9.0150   9.5138   9.5371   9.5841   9.6565  10.2153
    11.1614  11.5870  11.6790  11.6893  11.8021  11.8432  12.2334  12.6923
    13.4078  14.3015  17.0215  17.0258  17.5151  17.8579

     occupation numbers 
     0.1875   0.1875   0.1875   0.1875   0.1875   0.1875   0.1875   0.1875
     0.1875   0.1875   0.1875   0.1875   0.1875   0.1875   0.1875   0.1875
     0.1875   0.1875   0.1875   0.1875   0.1875   0.1875   0.1875   0.1875
     0.1875   0.1875   0.1875   0.1875   0.1875   0.1875   0.1875   0.1875
     0.1874   0.1828   0.1780   0.1773   0.1664   0.1608   0.0730   0.0057
     0.0000   0.0000   0.0000   0.0000   0.0000   0.0000

          k = 0.4942-0.5706-0.2053 (  2206 PWs)   bands (ev):

   -19.7259 -19.6388  -6.8953  -6.8831  -6.0479  -6.0408  -5.4281  -5.4244
    -3.1350  -3.1107  -2.8089  -2.7672  -2.3635  -2.3573   6.0748   6.0860
     6.9884   7.0076   7.1334   7.1434   7.4049   7.4310   8.1920   8.2273
     8.7798   8.8011   9.0677   9.0716   9.5481   9.5515  10.1018  10.1037
    11.3739  11.3750  11.5742  11.5763  11.8430  11.8459  12.3073  12.3098
    13.9929  14.0013  17.3916  17.3953  17.8358  17.8404

     occupation numbers 
     0.1875   0.1875   0.1875   0.1875   0.1875   0.1875   0.1875   0.1875
     0.1875   0.1875   0.1875   0.1875   0.1875   0.1875   0.1875   0.1875
     0.1875   0.1875   0.1875   0.1875   0.1875   0.1875   0.1875   0.1875
     0.1875   0.1875   0.1875   0.1875   0.1875   0.1875   0.1875   0.1875
     0.1868   0.1868   0.1833   0.1832   0.1609   0.1604   0.0554   0.0549
     0.0000   0.0000   0.0000   0.0000   0.0000   0.0000

          k = 0.0000 0.0000-0.6160 (  2186 PWs)   bands (ev):

   -19.7157 -19.6414  -6.5494  -6.4980  -5.9623  -5.9623  -5.9236  -5.9236
    -2.8895  -2.8895  -2.8359  -2.8359  -2.7158  -2.6536   6.2841   6.3092
     7.2184   7.2184   7.2375   7.2375   7.8465   7.8736   8.0859   8.0859
     8.1228   8.1228   9.6397   9.6397   9.6465   9.6465   9.7079   9.7188
    11.5953  11.5972  11.6404  11.6404  11.6452  11.6452  13.2241  13.2241
    13.2523  13.2523  17.0489  17.0489  17.1116  17.1116

     occupation numbers 
     0.0313   0.0313   0.0313   0.0313   0.0313   0.0313   0.0313   0.0313
     0.0313   0.0313   0.0313   0.0313   0.0313   0.0313   0.0313   0.0313
     0.0313   0.0313   0.0313   0.0313   0.0313   0.0313   0.0313   0.0313
     0.0313   0.0313   0.0313   0.0313   0.0313   0.0313   0.0313   0.0313
     0.0304   0.0304   0.0301   0.0301   0.0300   0.0300   0.0000   0.0000
     0.0000   0.0000   0.0000   0.0000   0.0000   0.0000

          k = 0.4942-0.5706 0.1027 (  2198 PWs)   bands (ev):

   -19.7280 -19.6351  -6.9593  -6.6604  -6.1345  -5.9043  -5.5246  -5.3765
    -3.2759  -3.2200  -2.8518  -2.6821  -2.5050  -2.3598   5.8919   6.2650
     6.8637   7.0268   7.2253   7.3252   7.5512   7.8009   7.9114   8.0877
     8.3518   8.9105   9.1546   9.3453   9.6592   9.8133   9.9649  10.3588
    11.0902  11.5313  11.6198  11.6908  11.8210  11.8436  12.3244  12.7275
    13.4144  14.3506  16.8632  17.0748  17.2753  17.9745

     occupation numbers 
     0.1875   0.1875   0.1875   0.1875   0.1875   0.1875   0.1875   0.1875
     0.1875   0.1875   0.1875   0.1875   0.1875   0.1875   0.1875   0.1875
     0.1875   0.1875   0.1875   0.1875   0.1875   0.1875   0.1875   0.1875
     0.1875   0.1875   0.1875   0.1875   0.1875   0.1875   0.1875   0.1875
     0.1875   0.1846   0.1814   0.1772   0.1640   0.1608   0.0516   0.0043
     0.0000   0.0000   0.0000   0.0000   0.0000   0.0000

     the Fermi energy is    12.1522 ev

!    total energy              =    -538.37520998 Ry
     Harris-Foulkes estimate   =    -538.37520998 Ry
     estimated scf accuracy    <          4.3E-09 Ry

     The total energy is the sum of the following terms:

     one-electron contribution =     -32.84536853 Ry
     hartree contribution      =      83.54636376 Ry
     xc contribution           =    -199.54463921 Ry
     ewald contribution        =    -389.44315552 Ry
     Hubbard energy            =      -0.04238835 Ry
     smearing contrib. (-TS)   =      -0.04602214 Ry

     convergence has been achieved in   8 iterations

     init_run     :      7.88s CPU      8.11s WALL (       1 calls)
     electrons    :    139.43s CPU    141.06s WALL (       1 calls)

     Called by init_run:
     wfcinit      :      0.00s CPU      0.00s WALL (       1 calls)
     potinit      :      0.32s CPU      0.38s WALL (       1 calls)

     Called by electrons:
     c_bands      :     96.42s CPU     97.23s WALL (       8 calls)
     sum_band     :     25.25s CPU     25.46s WALL (       8 calls)
     v_of_rho     :      2.34s CPU      2.37s WALL (       9 calls)
     v_h          :      0.12s CPU      0.12s WALL (       9 calls)
     v_xc         :      2.22s CPU      2.24s WALL (       9 calls)
     newd         :     17.46s CPU     17.57s WALL (       9 calls)
     mix_rho      :      0.20s CPU      0.20s WALL (       8 calls)

     Called by c_bands:
     init_us_2    :      0.86s CPU      0.87s WALL (     224 calls)
     cegterg      :     94.13s CPU     94.78s WALL (     112 calls)

     Called by sum_band:
     sum_band:bec :      0.09s CPU      0.08s WALL (     112 calls)
     addusdens    :     10.85s CPU     10.86s WALL (       8 calls)

     Called by *egterg:
     h_psi        :     67.40s CPU     67.86s WALL (     535 calls)
     s_psi        :      3.53s CPU      3.54s WALL (     535 calls)
     g_psi        :      0.30s CPU      0.31s WALL (     423 calls)
     cdiaghg      :      9.42s CPU      9.45s WALL (     521 calls)
     cegterg:over :      5.56s CPU      5.68s WALL (     423 calls)
     cegterg:upda :      3.24s CPU      3.26s WALL (     423 calls)
     cegterg:last :      1.80s CPU      1.80s WALL (     126 calls)

     Called by h_psi:
     h_psi:vloc   :     55.57s CPU     55.90s WALL (     535 calls)
     h_psi:vnl    :      7.74s CPU      7.79s WALL (     535 calls)
     add_vuspsi   :      3.68s CPU      3.71s WALL (     535 calls)
     vhpsi        :      3.92s CPU      4.02s WALL (     535 calls)

     General routines
     calbec       :      8.10s CPU      8.20s WALL (    1294 calls)
     fft          :      1.69s CPU      1.72s WALL (     139 calls)
     ffts         :      0.05s CPU      0.05s WALL (      17 calls)
     fftw         :     50.74s CPU     50.96s WALL (   33768 calls)
     interpolate  :      0.27s CPU      0.28s WALL (      17 calls)
     davcio       :      0.00s CPU      0.27s WALL (     238 calls)

     Parallel routines
     fft_scatter  :     15.80s CPU     15.89s WALL (   33924 calls)
     Hubbard U routines
     new_ns       :      0.74s CPU      0.87s WALL (       8 calls)
     vhpsi        :      3.92s CPU      4.02s WALL (     535 calls)

     PWSCF        :  2m27.76s CPU     2m29.70s WALL


   This run was terminated on:   7:50:44  11Nov2012            

=------------------------------------------------------------------------------=
