 
Job started on n18 at Sat Nov  3 13:58:07 EDT 2012

     Program PWSCF v.5.0.1 starts on  3Nov2012 at 13:58:11 

     This program is part of the open-source Quantum ESPRESSO suite
     for quantum simulation of materials; please cite
         "P. Giannozzi et al., J. Phys.:Condens. Matter 21 395502 (2009);
          URL http://www.quantum-espresso.org", 
     in publications or presentations arising from this work. More details at
     http://www.quantum-espresso.org/quote.php

     Parallel version (MPI), running on     4 processors
     R & G space division:  proc/pool =    4

     Current dimensions of program PWSCF are:
     Max number of different atomic species (ntypx) = 10
     Max number of k-points (npk) =  40000
     Max angular momentum in pseudopotentials (lmaxx) =  3
     Reading input from NiO_U0_init.in
               file Ni.pbe-nd-rrkjus.UPF: wavefunction(s)  4S renormalized
               file Ni.pbe-nd-rrkjus.UPF: wavefunction(s)  4S renormalized
               file O.pbe-rrkjus.UPF: wavefunction(s)  2S renormalized
               file O.pbe-rrkjus.UPF: wavefunction(s)  2S renormalized

     Subspace diagonalization in iterative solution of the eigenvalue problem:
     a serial algorithm will be used


     Parallelization info
     --------------------
     sticks:   dense  smooth     PW     G-vecs:    dense   smooth      PW
     Min         370     148     46                10846     2748     482
     Max         371     149     47                10849     2765     485
     Sum        1481     593    185                43387    11019    1935


     Title: 
     GGA + U, U = 1D-40, initial SCF                                            


     bravais-lattice index     =            1
     lattice parameter (alat)  =       7.9000  a.u.
     unit-cell volume          =     493.0390 (a.u.)^3
     number of atoms/cell      =           16
     number of atomic types    =            4
     number of electrons       =       128.00
     number of Kohn-Sham states=           77
     kinetic-energy cutoff     =      30.0000  Ry
     charge density cutoff     =     300.0000  Ry
     convergence threshold     =      1.0E-08
     mixing beta               =       0.3000
     number of iterations used =            8  plain     mixing
     Exchange-correlation      =  SLA  PW   PBE  PBE ( 1 4 3 4 0)
     EXX-fraction              =        0.00

     celldm(1)=   7.900000  celldm(2)=   0.000000  celldm(3)=   0.000000
     celldm(4)=   0.000000  celldm(5)=   0.000000  celldm(6)=   0.000000

     crystal axes: (cart. coord. in units of alat)
               a(1) = (   1.000000   0.000000   0.000000 )  
               a(2) = (   0.000000   1.000000   0.000000 )  
               a(3) = (   0.000000   0.000000   1.000000 )  

     reciprocal axes: (cart. coord. in units 2 pi/alat)
               b(1) = (  1.000000  0.000000  0.000000 )  
               b(2) = (  0.000000  1.000000  0.000000 )  
               b(3) = (  0.000000  0.000000  1.000000 )  


     PseudoPot. # 1 for Ni read from file:
     /home/mcurnan/GGA+U_Corr/TestProj1_Code/example_NiO/Ni.pbe-nd-rrkjus.UPF
     MD5 check sum: 8081f0a005c9a5470caab1a58e82ecb2
     Pseudo is Ultrasoft + core correction, Zval = 10.0
     Generated by new atomic code, or converted to UPF format
     Using radial grid of 1203 points,  6 beta functions with: 
                l(1) =   0
                l(2) =   0
                l(3) =   1
                l(4) =   1
                l(5) =   2
                l(6) =   2
     Q(r) pseudized with 0 coefficients 


     PseudoPot. # 2 for Ni read from file:
     /home/mcurnan/GGA+U_Corr/TestProj1_Code/example_NiO/Ni.pbe-nd-rrkjus.UPF
     MD5 check sum: 8081f0a005c9a5470caab1a58e82ecb2
     Pseudo is Ultrasoft + core correction, Zval = 10.0
     Generated by new atomic code, or converted to UPF format
     Using radial grid of 1203 points,  6 beta functions with: 
                l(1) =   0
                l(2) =   0
                l(3) =   1
                l(4) =   1
                l(5) =   2
                l(6) =   2
     Q(r) pseudized with 0 coefficients 


     PseudoPot. # 3 for O  read from file:
     /home/mcurnan/GGA+U_Corr/TestProj1_Code/example_NiO/O.pbe-rrkjus.UPF
     MD5 check sum: 390ba29e75625707450f3bd3f0eb6be9
     Pseudo is Ultrasoft, Zval =  6.0
     Generated by new atomic code, or converted to UPF format
     Using radial grid of 1269 points,  4 beta functions with: 
                l(1) =   0
                l(2) =   0
                l(3) =   1
                l(4) =   1
     Q(r) pseudized with 0 coefficients 


     PseudoPot. # 4 for O  read from file:
     /home/mcurnan/GGA+U_Corr/TestProj1_Code/example_NiO/O.pbe-rrkjus.UPF
     MD5 check sum: 390ba29e75625707450f3bd3f0eb6be9
     Pseudo is Ultrasoft, Zval =  6.0
     Generated by new atomic code, or converted to UPF format
     Using radial grid of 1269 points,  4 beta functions with: 
                l(1) =   0
                l(2) =   0
                l(3) =   1
                l(4) =   1
     Q(r) pseudized with 0 coefficients 


     atomic species   valence    mass     pseudopotential
        Ni1           10.00     1.00000     Ni( 1.00)
        Ni2           10.00     1.00000     Ni( 1.00)
        O1             6.00     1.00000     O ( 1.00)
        O2             6.00     1.00000     O ( 1.00)
 -----
     simplified LDA+U calculation, Hubbard_lmax = 2
     atomic species  L   Hubbard U  Hubbard alpha
        Ni1          2    0.000000    0.000000
        Ni2          2    0.000000    0.000000
        O1           1    0.000000    0.000000
        O2           1    0.000000    0.000000
 -----

     24 Sym. Ops. (no inversion) found


                                    s                        frac. trans.

      isym =  1     identity                                     

 cryst.   s( 1) = (     1          0          0      )
                  (     0          1          0      )
                  (     0          0          1      )

 cart.    s( 1) = (  1.0000000  0.0000000  0.0000000 )
                  (  0.0000000  1.0000000  0.0000000 )
                  (  0.0000000  0.0000000  1.0000000 )


      isym =  2     180 deg rotation - cart. axis [0,0,1]        

 cryst.   s( 2) = (    -1          0          0      )
                  (     0         -1          0      )
                  (     0          0          1      )

 cart.    s( 2) = ( -1.0000000  0.0000000  0.0000000 )
                  (  0.0000000 -1.0000000  0.0000000 )
                  (  0.0000000  0.0000000  1.0000000 )


      isym =  3     180 deg rotation - cart. axis [0,1,0]        

 cryst.   s( 3) = (    -1          0          0      )
                  (     0          1          0      )
                  (     0          0         -1      )

 cart.    s( 3) = ( -1.0000000  0.0000000  0.0000000 )
                  (  0.0000000  1.0000000  0.0000000 )
                  (  0.0000000  0.0000000 -1.0000000 )


      isym =  4     180 deg rotation - cart. axis [1,0,0]        

 cryst.   s( 4) = (     1          0          0      )
                  (     0         -1          0      )
                  (     0          0         -1      )

 cart.    s( 4) = (  1.0000000  0.0000000  0.0000000 )
                  (  0.0000000 -1.0000000  0.0000000 )
                  (  0.0000000  0.0000000 -1.0000000 )


      isym =  5     120 deg rotation - cart. axis [-1,-1,-1]     

 cryst.   s( 5) = (     0          0          1      )
                  (     1          0          0      )
                  (     0          1          0      )

 cart.    s( 5) = (  0.0000000  1.0000000  0.0000000 )
                  (  0.0000000  0.0000000  1.0000000 )
                  (  1.0000000  0.0000000  0.0000000 )


      isym =  6     120 deg rotation - cart. axis [-1,1,1]       

 cryst.   s( 6) = (     0          0         -1      )
                  (    -1          0          0      )
                  (     0          1          0      )

 cart.    s( 6) = (  0.0000000 -1.0000000  0.0000000 )
                  (  0.0000000  0.0000000  1.0000000 )
                  ( -1.0000000  0.0000000  0.0000000 )


      isym =  7     120 deg rotation - cart. axis [1,1,-1]       

 cryst.   s( 7) = (     0          0         -1      )
                  (     1          0          0      )
                  (     0         -1          0      )

 cart.    s( 7) = (  0.0000000  1.0000000  0.0000000 )
                  (  0.0000000  0.0000000 -1.0000000 )
                  ( -1.0000000  0.0000000  0.0000000 )


      isym =  8     120 deg rotation - cart. axis [1,-1,1]       

 cryst.   s( 8) = (     0          0          1      )
                  (    -1          0          0      )
                  (     0         -1          0      )

 cart.    s( 8) = (  0.0000000 -1.0000000  0.0000000 )
                  (  0.0000000  0.0000000 -1.0000000 )
                  (  1.0000000  0.0000000  0.0000000 )


      isym =  9     120 deg rotation - cart. axis [1,1,1]        

 cryst.   s( 9) = (     0          1          0      )
                  (     0          0          1      )
                  (     1          0          0      )

 cart.    s( 9) = (  0.0000000  0.0000000  1.0000000 )
                  (  1.0000000  0.0000000  0.0000000 )
                  (  0.0000000  1.0000000  0.0000000 )


      isym = 10     120 deg rotation - cart. axis [-1,1,-1]      

 cryst.   s(10) = (     0         -1          0      )
                  (     0          0         -1      )
                  (     1          0          0      )

 cart.    s(10) = (  0.0000000  0.0000000  1.0000000 )
                  ( -1.0000000  0.0000000  0.0000000 )
                  (  0.0000000 -1.0000000  0.0000000 )


      isym = 11     120 deg rotation - cart. axis [1,-1,-1]      

 cryst.   s(11) = (     0         -1          0      )
                  (     0          0          1      )
                  (    -1          0          0      )

 cart.    s(11) = (  0.0000000  0.0000000 -1.0000000 )
                  ( -1.0000000  0.0000000  0.0000000 )
                  (  0.0000000  1.0000000  0.0000000 )


      isym = 12     120 deg rotation - cart. axis [-1,-1,1]      

 cryst.   s(12) = (     0          1          0      )
                  (     0          0         -1      )
                  (    -1          0          0      )

 cart.    s(12) = (  0.0000000  0.0000000 -1.0000000 )
                  (  1.0000000  0.0000000  0.0000000 )
                  (  0.0000000 -1.0000000  0.0000000 )


      isym = 13     inv. 180 deg rotation - cart. axis [1,1,0]   

 cryst.   s(13) = (     0         -1          0      )
                  (    -1          0          0      )
                  (     0          0          1      )

 cart.    s(13) = (  0.0000000 -1.0000000  0.0000000 )
                  ( -1.0000000  0.0000000  0.0000000 )
                  (  0.0000000  0.0000000  1.0000000 )


      isym = 14     inv. 180 deg rotation - cart. axis [1,-1,0]  

 cryst.   s(14) = (     0          1          0      )
                  (     1          0          0      )
                  (     0          0          1      )

 cart.    s(14) = (  0.0000000  1.0000000  0.0000000 )
                  (  1.0000000  0.0000000  0.0000000 )
                  (  0.0000000  0.0000000  1.0000000 )


      isym = 15     inv.  90 deg rotation - cart. axis [0,0,-1]  

 cryst.   s(15) = (     0          1          0      )
                  (    -1          0          0      )
                  (     0          0         -1      )

 cart.    s(15) = (  0.0000000 -1.0000000  0.0000000 )
                  (  1.0000000  0.0000000  0.0000000 )
                  (  0.0000000  0.0000000 -1.0000000 )


      isym = 16     inv.  90 deg rotation - cart. axis [0,0,1]   

 cryst.   s(16) = (     0         -1          0      )
                  (     1          0          0      )
                  (     0          0         -1      )

 cart.    s(16) = (  0.0000000  1.0000000  0.0000000 )
                  ( -1.0000000  0.0000000  0.0000000 )
                  (  0.0000000  0.0000000 -1.0000000 )


      isym = 17     inv. 180 deg rotation - cart. axis [1,0,1]   

 cryst.   s(17) = (     0          0         -1      )
                  (     0          1          0      )
                  (    -1          0          0      )

 cart.    s(17) = (  0.0000000  0.0000000 -1.0000000 )
                  (  0.0000000  1.0000000  0.0000000 )
                  ( -1.0000000  0.0000000  0.0000000 )


      isym = 18     inv. 180 deg rotation - cart. axis [-1,0,1]  

 cryst.   s(18) = (     0          0          1      )
                  (     0          1          0      )
                  (     1          0          0      )

 cart.    s(18) = (  0.0000000  0.0000000  1.0000000 )
                  (  0.0000000  1.0000000  0.0000000 )
                  (  1.0000000  0.0000000  0.0000000 )


      isym = 19     inv.  90 deg rotation - cart. axis [0,1,0]   

 cryst.   s(19) = (     0          0          1      )
                  (     0         -1          0      )
                  (    -1          0          0      )

 cart.    s(19) = (  0.0000000  0.0000000 -1.0000000 )
                  (  0.0000000 -1.0000000  0.0000000 )
                  (  1.0000000  0.0000000  0.0000000 )


      isym = 20     inv.  90 deg rotation - cart. axis [0,-1,0]  

 cryst.   s(20) = (     0          0         -1      )
                  (     0         -1          0      )
                  (     1          0          0      )

 cart.    s(20) = (  0.0000000  0.0000000  1.0000000 )
                  (  0.0000000 -1.0000000  0.0000000 )
                  ( -1.0000000  0.0000000  0.0000000 )


      isym = 21     inv. 180 deg rotation - cart. axis [0,1,1]   

 cryst.   s(21) = (     1          0          0      )
                  (     0          0         -1      )
                  (     0         -1          0      )

 cart.    s(21) = (  1.0000000  0.0000000  0.0000000 )
                  (  0.0000000  0.0000000 -1.0000000 )
                  (  0.0000000 -1.0000000  0.0000000 )


      isym = 22     inv. 180 deg rotation - cart. axis [0,1,-1]  

 cryst.   s(22) = (     1          0          0      )
                  (     0          0          1      )
                  (     0          1          0      )

 cart.    s(22) = (  1.0000000  0.0000000  0.0000000 )
                  (  0.0000000  0.0000000  1.0000000 )
                  (  0.0000000  1.0000000  0.0000000 )


      isym = 23     inv.  90 deg rotation - cart. axis [-1,0,0]  

 cryst.   s(23) = (    -1          0          0      )
                  (     0          0          1      )
                  (     0         -1          0      )

 cart.    s(23) = ( -1.0000000  0.0000000  0.0000000 )
                  (  0.0000000  0.0000000 -1.0000000 )
                  (  0.0000000  1.0000000  0.0000000 )


      isym = 24     inv.  90 deg rotation - cart. axis [1,0,0]   

 cryst.   s(24) = (    -1          0          0      )
                  (     0          0         -1      )
                  (     0          1          0      )

 cart.    s(24) = ( -1.0000000  0.0000000  0.0000000 )
                  (  0.0000000  0.0000000  1.0000000 )
                  (  0.0000000 -1.0000000  0.0000000 )


     point group T_d (-43m) 
     there are  5 classes
     the character table:

       E     8C3   3C2   6S4   6s_d 
A_1    1.00  1.00  1.00  1.00  1.00
A_2    1.00  1.00  1.00 -1.00 -1.00
E      2.00 -1.00  2.00  0.00  0.00
T_1    3.00  0.00 -1.00  1.00 -1.00
T_2    3.00  0.00 -1.00 -1.00  1.00

     the symmetry operations in each class:
     E        1
     3C2      2    3    4
     8C3      5    7    8    6   12    9   10   11
     6s_d    13   14   17   18   21   22
     6S4     15   16   20   19   23   24

   Cartesian axes

     site n.     atom                  positions (alat units)
         1           Ni1 tau(   1) = (   0.2500000  -0.2500000  -0.2500000  )
         2           Ni1 tau(   2) = (   0.7500000   0.2500000  -0.2500000  )
         3           Ni1 tau(   3) = (   0.7500000  -0.2500000   0.2500000  )
         4           Ni1 tau(   4) = (   0.2500000   0.2500000   0.2500000  )
         5           Ni2 tau(   5) = (   0.7500000  -0.2500000  -0.2500000  )
         6           Ni2 tau(   6) = (   0.2500000   0.2500000  -0.2500000  )
         7           Ni2 tau(   7) = (   0.2500000  -0.2500000   0.2500000  )
         8           Ni2 tau(   8) = (   0.7500000   0.2500000   0.2500000  )
         9           O1  tau(   9) = (   0.0000000   0.0000000   0.0000000  )
        10           O2  tau(  10) = (   0.5000000   0.0000000   0.0000000  )
        11           O2  tau(  11) = (   0.0000000   0.5000000   0.0000000  )
        12           O2  tau(  12) = (   0.0000000   0.0000000   0.5000000  )
        13           O2  tau(  13) = (   0.5000000   0.5000000   0.0000000  )
        14           O2  tau(  14) = (   0.5000000   0.0000000   0.5000000  )
        15           O2  tau(  15) = (   0.0000000   0.5000000   0.5000000  )
        16           O2  tau(  16) = (   0.5000000   0.5000000   0.5000000  )

   Crystallographic axes

     site n.     atom                  positions (cryst. coord.)
         1           Ni1 tau(   1) = (  0.2500000 -0.2500000 -0.2500000  )
         2           Ni1 tau(   2) = (  0.7500000  0.2500000 -0.2500000  )
         3           Ni1 tau(   3) = (  0.7500000 -0.2500000  0.2500000  )
         4           Ni1 tau(   4) = (  0.2500000  0.2500000  0.2500000  )
         5           Ni2 tau(   5) = (  0.7500000 -0.2500000 -0.2500000  )
         6           Ni2 tau(   6) = (  0.2500000  0.2500000 -0.2500000  )
         7           Ni2 tau(   7) = (  0.2500000 -0.2500000  0.2500000  )
         8           Ni2 tau(   8) = (  0.7500000  0.2500000  0.2500000  )
         9           O1  tau(   9) = (  0.0000000  0.0000000  0.0000000  )
        10           O2  tau(  10) = (  0.5000000  0.0000000  0.0000000  )
        11           O2  tau(  11) = (  0.0000000  0.5000000  0.0000000  )
        12           O2  tau(  12) = (  0.0000000  0.0000000  0.5000000  )
        13           O2  tau(  13) = (  0.5000000  0.5000000  0.0000000  )
        14           O2  tau(  14) = (  0.5000000  0.0000000  0.5000000  )
        15           O2  tau(  15) = (  0.0000000  0.5000000  0.5000000  )
        16           O2  tau(  16) = (  0.5000000  0.5000000  0.5000000  )

     number of k points=    10  gaussian smearing, width (Ry)=  0.0100
                       cart. coord. in units 2pi/alat
        k(    1) = (   0.0000000   0.0000000   0.0000000), wk =   0.0312500
        k(    2) = (   0.0000000   0.0000000   0.2500000), wk =   0.1875000
        k(    3) = (   0.0000000   0.0000000  -0.5000000), wk =   0.0937500
        k(    4) = (   0.0000000   0.2500000   0.2500000), wk =   0.3750000
        k(    5) = (   0.0000000   0.2500000  -0.5000000), wk =   0.3750000
        k(    6) = (   0.0000000  -0.5000000  -0.5000000), wk =   0.0937500
        k(    7) = (   0.2500000   0.2500000   0.2500000), wk =   0.2500000
        k(    8) = (   0.2500000   0.2500000  -0.5000000), wk =   0.3750000
        k(    9) = (   0.2500000  -0.5000000  -0.5000000), wk =   0.1875000
        k(   10) = (  -0.5000000  -0.5000000  -0.5000000), wk =   0.0312500

                       cryst. coord.
        k(    1) = (   0.0000000   0.0000000   0.0000000), wk =   0.0312500
        k(    2) = (   0.0000000   0.0000000   0.2500000), wk =   0.1875000
        k(    3) = (   0.0000000   0.0000000  -0.5000000), wk =   0.0937500
        k(    4) = (   0.0000000   0.2500000   0.2500000), wk =   0.3750000
        k(    5) = (   0.0000000   0.2500000  -0.5000000), wk =   0.3750000
        k(    6) = (   0.0000000  -0.5000000  -0.5000000), wk =   0.0937500
        k(    7) = (   0.2500000   0.2500000   0.2500000), wk =   0.2500000
        k(    8) = (   0.2500000   0.2500000  -0.5000000), wk =   0.3750000
        k(    9) = (   0.2500000  -0.5000000  -0.5000000), wk =   0.1875000
        k(   10) = (  -0.5000000  -0.5000000  -0.5000000), wk =   0.0312500

     Dense  grid:    43387 G-vectors     FFT dimensions: (  45,  45,  45)

     Smooth grid:    11019 G-vectors     FFT dimensions: (  27,  27,  27)

     Largest allocated arrays     est. size (Mb)     dimensions
        Kohn-Sham Wavefunctions         0.41 Mb     (    352,   77)
        Atomic wavefunctions            0.43 Mb     (    352,   80)
        NL pseudopotentials             1.12 Mb     (    352,  208)
        Each V/rho on FFT grid          0.37 Mb     (  24300)
        Each G-vector array             0.08 Mb     (  10846)
        G-vector shells                 0.00 Mb     (    398)
     Largest temporary arrays     est. size (Mb)     dimensions
        Auxiliary wavefunctions         1.65 Mb     (    352,  308)
        Each subspace H/S matrix        1.45 Mb     ( 308, 308)
        Each <psi_i|beta_j> matrix      0.24 Mb     (    208,   77)
        Arrays for rho mixing           2.97 Mb     (  24300,   8)
     writing wfc files to a dedicated directory

     Check: negative/imaginary core charge=   -0.000021    0.000000

     Initial potential from superposition of free atoms

     starting charge  127.99632, renormalised to  128.00000
 --- in v_hubbard ---
Hubbard energy    0.0000
 -------
     Number of +U iterations with fixed ns =  0
     Starting occupations:
 --- enter write_ns ---
 LDA+U parameters:
U( 1)     =  0.00000000
alpha( 1) =  0.00000000
U( 2)     =  0.00000000
alpha( 2) =  0.00000000
U( 3)     =  0.00000000
alpha( 3) =  0.00000000
U( 4)     =  0.00000000
alpha( 4) =  0.00000000
atom    1   Tr[ns(na)] =   8.00000
    eigenvalues: 
  0.800  0.800  0.800  0.800  0.800
    eigenvectors:
  1.000  0.000  0.000  0.000  0.000
  0.000  1.000  0.000  0.000  0.000
  0.000  0.000  1.000  0.000  0.000
  0.000  0.000  0.000  1.000  0.000
  0.000  0.000  0.000  0.000  1.000
    occupations:
  0.800  0.000  0.000  0.000  0.000
  0.000  0.800  0.000  0.000  0.000
  0.000  0.000  0.800  0.000  0.000
  0.000  0.000  0.000  0.800  0.000
  0.000  0.000  0.000  0.000  0.800
atom    2   Tr[ns(na)] =   8.00000
    eigenvalues: 
  0.800  0.800  0.800  0.800  0.800
    eigenvectors:
  1.000  0.000  0.000  0.000  0.000
  0.000  1.000  0.000  0.000  0.000
  0.000  0.000  1.000  0.000  0.000
  0.000  0.000  0.000  1.000  0.000
  0.000  0.000  0.000  0.000  1.000
    occupations:
  0.800  0.000  0.000  0.000  0.000
  0.000  0.800  0.000  0.000  0.000
  0.000  0.000  0.800  0.000  0.000
  0.000  0.000  0.000  0.800  0.000
  0.000  0.000  0.000  0.000  0.800
atom    3   Tr[ns(na)] =   8.00000
    eigenvalues: 
  0.800  0.800  0.800  0.800  0.800
    eigenvectors:
  1.000  0.000  0.000  0.000  0.000
  0.000  1.000  0.000  0.000  0.000
  0.000  0.000  1.000  0.000  0.000
  0.000  0.000  0.000  1.000  0.000
  0.000  0.000  0.000  0.000  1.000
    occupations:
  0.800  0.000  0.000  0.000  0.000
  0.000  0.800  0.000  0.000  0.000
  0.000  0.000  0.800  0.000  0.000
  0.000  0.000  0.000  0.800  0.000
  0.000  0.000  0.000  0.000  0.800
atom    4   Tr[ns(na)] =   8.00000
    eigenvalues: 
  0.800  0.800  0.800  0.800  0.800
    eigenvectors:
  1.000  0.000  0.000  0.000  0.000
  0.000  1.000  0.000  0.000  0.000
  0.000  0.000  1.000  0.000  0.000
  0.000  0.000  0.000  1.000  0.000
  0.000  0.000  0.000  0.000  1.000
    occupations:
  0.800  0.000  0.000  0.000  0.000
  0.000  0.800  0.000  0.000  0.000
  0.000  0.000  0.800  0.000  0.000
  0.000  0.000  0.000  0.800  0.000
  0.000  0.000  0.000  0.000  0.800
atom    5   Tr[ns(na)] =   8.00000
    eigenvalues: 
  0.800  0.800  0.800  0.800  0.800
    eigenvectors:
  1.000  0.000  0.000  0.000  0.000
  0.000  1.000  0.000  0.000  0.000
  0.000  0.000  1.000  0.000  0.000
  0.000  0.000  0.000  1.000  0.000
  0.000  0.000  0.000  0.000  1.000
    occupations:
  0.800  0.000  0.000  0.000  0.000
  0.000  0.800  0.000  0.000  0.000
  0.000  0.000  0.800  0.000  0.000
  0.000  0.000  0.000  0.800  0.000
  0.000  0.000  0.000  0.000  0.800
atom    6   Tr[ns(na)] =   8.00000
    eigenvalues: 
  0.800  0.800  0.800  0.800  0.800
    eigenvectors:
  1.000  0.000  0.000  0.000  0.000
  0.000  1.000  0.000  0.000  0.000
  0.000  0.000  1.000  0.000  0.000
  0.000  0.000  0.000  1.000  0.000
  0.000  0.000  0.000  0.000  1.000
    occupations:
  0.800  0.000  0.000  0.000  0.000
  0.000  0.800  0.000  0.000  0.000
  0.000  0.000  0.800  0.000  0.000
  0.000  0.000  0.000  0.800  0.000
  0.000  0.000  0.000  0.000  0.800
atom    7   Tr[ns(na)] =   8.00000
    eigenvalues: 
  0.800  0.800  0.800  0.800  0.800
    eigenvectors:
  1.000  0.000  0.000  0.000  0.000
  0.000  1.000  0.000  0.000  0.000
  0.000  0.000  1.000  0.000  0.000
  0.000  0.000  0.000  1.000  0.000
  0.000  0.000  0.000  0.000  1.000
    occupations:
  0.800  0.000  0.000  0.000  0.000
  0.000  0.800  0.000  0.000  0.000
  0.000  0.000  0.800  0.000  0.000
  0.000  0.000  0.000  0.800  0.000
  0.000  0.000  0.000  0.000  0.800
atom    8   Tr[ns(na)] =   8.00000
    eigenvalues: 
  0.800  0.800  0.800  0.800  0.800
    eigenvectors:
  1.000  0.000  0.000  0.000  0.000
  0.000  1.000  0.000  0.000  0.000
  0.000  0.000  1.000  0.000  0.000
  0.000  0.000  0.000  1.000  0.000
  0.000  0.000  0.000  0.000  1.000
    occupations:
  0.800  0.000  0.000  0.000  0.000
  0.000  0.800  0.000  0.000  0.000
  0.000  0.000  0.800  0.000  0.000
  0.000  0.000  0.000  0.800  0.000
  0.000  0.000  0.000  0.000  0.800
atom    9   Tr[ns(na)] =   4.00000
    eigenvalues: 
  0.667  0.667  0.667
    eigenvectors:
  1.000  0.000  0.000
  0.000  1.000  0.000
  0.000  0.000  1.000
    occupations:
  0.667  0.000  0.000
  0.000  0.667  0.000
  0.000  0.000  0.667
atom   10   Tr[ns(na)] =   4.00000
    eigenvalues: 
  0.667  0.667  0.667
    eigenvectors:
  1.000  0.000  0.000
  0.000  1.000  0.000
  0.000  0.000  1.000
    occupations:
  0.667  0.000  0.000
  0.000  0.667  0.000
  0.000  0.000  0.667
atom   11   Tr[ns(na)] =   4.00000
    eigenvalues: 
  0.667  0.667  0.667
    eigenvectors:
  1.000  0.000  0.000
  0.000  1.000  0.000
  0.000  0.000  1.000
    occupations:
  0.667  0.000  0.000
  0.000  0.667  0.000
  0.000  0.000  0.667
atom   12   Tr[ns(na)] =   4.00000
    eigenvalues: 
  0.667  0.667  0.667
    eigenvectors:
  1.000  0.000  0.000
  0.000  1.000  0.000
  0.000  0.000  1.000
    occupations:
  0.667  0.000  0.000
  0.000  0.667  0.000
  0.000  0.000  0.667
atom   13   Tr[ns(na)] =   4.00000
    eigenvalues: 
  0.667  0.667  0.667
    eigenvectors:
  1.000  0.000  0.000
  0.000  1.000  0.000
  0.000  0.000  1.000
    occupations:
  0.667  0.000  0.000
  0.000  0.667  0.000
  0.000  0.000  0.667
atom   14   Tr[ns(na)] =   4.00000
    eigenvalues: 
  0.667  0.667  0.667
    eigenvectors:
  1.000  0.000  0.000
  0.000  1.000  0.000
  0.000  0.000  1.000
    occupations:
  0.667  0.000  0.000
  0.000  0.667  0.000
  0.000  0.000  0.667
atom   15   Tr[ns(na)] =   4.00000
    eigenvalues: 
  0.667  0.667  0.667
    eigenvectors:
  1.000  0.000  0.000
  0.000  1.000  0.000
  0.000  0.000  1.000
    occupations:
  0.667  0.000  0.000
  0.000  0.667  0.000
  0.000  0.000  0.667
atom   16   Tr[ns(na)] =   4.00000
    eigenvalues: 
  0.667  0.667  0.667
    eigenvectors:
  1.000  0.000  0.000
  0.000  1.000  0.000
  0.000  0.000  1.000
    occupations:
  0.667  0.000  0.000
  0.000  0.667  0.000
  0.000  0.000  0.667
N of occupied +U levels =  96.0000000
 --- exit write_ns ---
 Atomic wfc used for LDA+U Projector are NOT orthogonalized
     Starting wfc are   80 randomized atomic wfcs

     total cpu time spent up to now is        5.6 secs

     per-process dynamical memory:    19.1 Mb

     Self-consistent Calculation

     iteration #  1     ecut=    30.00 Ry     beta=0.30
     Davidson diagonalization with overlap
     ethr =  1.00E-02,  avg # of iterations =  2.5
 --- enter write_ns ---
 LDA+U parameters:
U( 1)     =  0.00000000
alpha( 1) =  0.00000000
U( 2)     =  0.00000000
alpha( 2) =  0.00000000
U( 3)     =  0.00000000
alpha( 3) =  0.00000000
U( 4)     =  0.00000000
alpha( 4) =  0.00000000
atom    1   Tr[ns(na)] =   8.77461
    eigenvalues: 
  0.845  0.845  0.845  0.926  0.926
    eigenvectors:
  0.000  0.000  0.000  0.016  0.984
  0.027  0.639  0.333  0.000  0.000
  0.601  0.066  0.333  0.000  0.000
  0.000  0.000  0.000  0.984  0.016
  0.372  0.295  0.333  0.000  0.000
    occupations:
  0.926  0.000  0.000  0.000  0.000
  0.000  0.845  0.000  0.000  0.000
  0.000  0.000  0.845  0.000  0.000
  0.000  0.000  0.000  0.926  0.000
  0.000  0.000  0.000  0.000  0.845
atom    2   Tr[ns(na)] =   8.77461
    eigenvalues: 
  0.845  0.845  0.845  0.926  0.926
    eigenvectors:
  0.000  0.000  0.000  0.006  0.994
  0.664  0.002  0.333  0.000  0.000
  0.135  0.532  0.333  0.000  0.000
  0.000  0.000  0.000  0.994  0.006
  0.201  0.466  0.333  0.000  0.000
    occupations:
  0.926  0.000  0.000  0.000  0.000
  0.000  0.845  0.000  0.000  0.000
  0.000  0.000  0.845  0.000  0.000
  0.000  0.000  0.000  0.926  0.000
  0.000  0.000  0.000  0.000  0.845
atom    3   Tr[ns(na)] =   8.77461
    eigenvalues: 
  0.845  0.845  0.845  0.926  0.926
    eigenvectors:
  0.000  0.000  0.000  0.026  0.974
  0.042  0.624  0.333  0.000  0.000
  0.338  0.329  0.333  0.000  0.000
  0.000  0.000  0.000  0.974  0.026
  0.620  0.047  0.333  0.000  0.000
    occupations:
  0.926  0.000  0.000  0.000  0.000
  0.000  0.845  0.000  0.000  0.000
  0.000  0.000  0.845  0.000  0.000
  0.000  0.000  0.000  0.926  0.000
  0.000  0.000  0.000  0.000  0.845
atom    4   Tr[ns(na)] =   8.77461
    eigenvalues: 
  0.845  0.845  0.845  0.926  0.926
    eigenvectors:
  0.000  0.000  0.000  0.024  0.976
  0.497  0.170  0.333  0.000  0.000
  0.000  0.667  0.333  0.000  0.000
  0.000  0.000  0.000  0.976  0.024
  0.503  0.164  0.333  0.000  0.000
    occupations:
  0.926  0.000  0.000  0.000  0.000
  0.000  0.845  0.000  0.000  0.000
  0.000  0.000  0.845  0.000  0.000
  0.000  0.000  0.000  0.926  0.000
  0.000  0.000  0.000  0.000  0.845
atom    5   Tr[ns(na)] =   8.77461
    eigenvalues: 
  0.845  0.845  0.845  0.926  0.926
    eigenvectors:
  0.000  0.000  0.000  0.013  0.987
  0.333  0.428  0.239  0.000  0.000
  0.333  0.009  0.657  0.000  0.000
  0.000  0.000  0.000  0.987  0.013
  0.333  0.563  0.104  0.000  0.000
    occupations:
  0.926  0.000  0.000  0.000  0.000
  0.000  0.845  0.000  0.000  0.000
  0.000  0.000  0.845  0.000  0.000
  0.000  0.000  0.000  0.926  0.000
  0.000  0.000  0.000  0.000  0.845
atom    6   Tr[ns(na)] =   8.77461
    eigenvalues: 
  0.845  0.845  0.845  0.926  0.926
    eigenvectors:
  0.000  0.000  0.000  0.008  0.992
  0.333  0.050  0.617  0.000  0.000
  0.333  0.323  0.344  0.000  0.000
  0.000  0.000  0.000  0.992  0.008
  0.333  0.627  0.040  0.000  0.000
    occupations:
  0.926  0.000  0.000  0.000  0.000
  0.000  0.845  0.000  0.000  0.000
  0.000  0.000  0.845  0.000  0.000
  0.000  0.000  0.000  0.926  0.000
  0.000  0.000  0.000  0.000  0.845
atom    7   Tr[ns(na)] =   8.77461
    eigenvalues: 
  0.845  0.845  0.845  0.926  0.926
    eigenvectors:
  0.000  0.000  0.000  0.011  0.989
  0.333  0.662  0.005  0.000  0.000
  0.333  0.119  0.548  0.000  0.000
  0.000  0.000  0.000  0.989  0.011
  0.333  0.219  0.447  0.000  0.000
    occupations:
  0.926  0.000  0.000  0.000  0.000
  0.000  0.845  0.000  0.000  0.000
  0.000  0.000  0.845  0.000  0.000
  0.000  0.000  0.000  0.926  0.000
  0.000  0.000  0.000  0.000  0.845
atom    8   Tr[ns(na)] =   8.77461
    eigenvalues: 
  0.845  0.845  0.845  0.926  0.926
    eigenvectors:
  0.000  0.000  0.000  0.024  0.976
  0.333  0.042  0.625  0.000  0.000
  0.333  0.619  0.048  0.000  0.000
  0.000  0.000  0.000  0.976  0.024
  0.333  0.339  0.327  0.000  0.000
    occupations:
  0.926  0.000  0.000  0.000  0.000
  0.000  0.845  0.000  0.000  0.000
  0.000  0.000  0.845  0.000  0.000
  0.000  0.000  0.000  0.926  0.000
  0.000  0.000  0.000  0.000  0.845
atom    9   Tr[ns(na)] =   6.02502
    eigenvalues: 
  1.004  1.004  1.004
    eigenvectors:
  0.305  0.330  0.365
  0.404  0.032  0.564
  0.292  0.637  0.071
    occupations:
  1.004  0.000  0.000
  0.000  1.004  0.000
  0.000  0.000  1.004
atom   10   Tr[ns(na)] =   6.02504
    eigenvalues: 
  1.004  1.004  1.004
    eigenvectors:
  0.375  0.625  0.000
  0.000  0.000  1.000
  0.625  0.375  0.000
    occupations:
  1.004  0.000  0.000
  0.000  1.004  0.000
  0.000  0.000  1.004
atom   11   Tr[ns(na)] =   6.02504
    eigenvalues: 
  1.004  1.004  1.004
    eigenvectors:
  0.613  0.387  0.000
  0.387  0.613  0.000
  0.000  0.000  1.000
    occupations:
  1.004  0.000  0.000
  0.000  1.004  0.000
  0.000  0.000  1.004
atom   12   Tr[ns(na)] =   6.02504
    eigenvalues: 
  1.004  1.004  1.004
    eigenvectors:
  0.000  0.000  1.000
  0.349  0.651  0.000
  0.651  0.349  0.000
    occupations:
  1.004  0.000  0.000
  0.000  1.004  0.000
  0.000  0.000  1.004
atom   13   Tr[ns(na)] =   6.02503
    eigenvalues: 
  1.004  1.004  1.004
    eigenvectors:
  1.000  0.000  0.000
  0.000  0.248  0.752
  0.000  0.752  0.248
    occupations:
  1.004  0.000  0.000
  0.000  1.004  0.000
  0.000  0.000  1.004
atom   14   Tr[ns(na)] =   6.02503
    eigenvalues: 
  1.004  1.004  1.004
    eigenvectors:
  0.000  0.685  0.315
  0.000  0.315  0.685
  1.000  0.000  0.000
    occupations:
  1.004  0.000  0.000
  0.000  1.004  0.000
  0.000  0.000  1.004
atom   15   Tr[ns(na)] =   6.02503
    eigenvalues: 
  1.004  1.004  1.004
    eigenvectors:
  0.000  0.172  0.828
  1.000  0.000  0.000
  0.000  0.828  0.172
    occupations:
  1.004  0.000  0.000
  0.000  1.004  0.000
  0.000  0.000  1.004
atom   16   Tr[ns(na)] =   6.02505
    eigenvalues: 
  1.004  1.004  1.004
    eigenvectors:
  0.247  0.271  0.482
  0.619  0.005  0.376
  0.134  0.724  0.142
    occupations:
  1.004  0.000  0.000
  0.000  1.004  0.000
  0.000  0.000  1.004
N of occupied +U levels = 118.3971713
 --- exit write_ns ---
 --- in v_hubbard ---
Hubbard energy    0.0000
 -------

     total cpu time spent up to now is       13.7 secs

     total energy              =    -935.70093416 Ry
     Harris-Foulkes estimate   =    -937.77925943 Ry
     estimated scf accuracy    <       4.58559434 Ry

     iteration #  2     ecut=    30.00 Ry     beta=0.30
     Davidson diagonalization with overlap
     ethr =  3.58E-03,  avg # of iterations =  2.7
 --- enter write_ns ---
 LDA+U parameters:
U( 1)     =  0.00000000
alpha( 1) =  0.00000000
U( 2)     =  0.00000000
alpha( 2) =  0.00000000
U( 3)     =  0.00000000
alpha( 3) =  0.00000000
U( 4)     =  0.00000000
alpha( 4) =  0.00000000
atom    1   Tr[ns(na)] =   9.12402
    eigenvalues: 
  0.863  0.863  0.863  0.987  0.987
    eigenvectors:
  0.000  0.000  0.000  0.026  0.974
  0.333  0.026  0.640  0.000  0.000
  0.333  0.599  0.067  0.000  0.000
  0.000  0.000  0.000  0.974  0.026
  0.333  0.374  0.293  0.000  0.000
    occupations:
  0.987  0.000  0.000  0.000  0.000
  0.000  0.863  0.000  0.000  0.000
  0.000  0.000  0.863  0.000  0.000
  0.000  0.000  0.000  0.987  0.000
  0.000  0.000  0.000  0.000  0.863
atom    2   Tr[ns(na)] =   9.12402
    eigenvalues: 
  0.863  0.863  0.863  0.987  0.987
    eigenvectors:
  0.000  0.000  0.000  0.003  0.997
  0.333  0.654  0.013  0.000  0.000
  0.333  0.093  0.573  0.000  0.000
  0.000  0.000  0.000  0.997  0.003
  0.333  0.253  0.414  0.000  0.000
    occupations:
  0.987  0.000  0.000  0.000  0.000
  0.000  0.863  0.000  0.000  0.000
  0.000  0.000  0.863  0.000  0.000
  0.000  0.000  0.000  0.987  0.000
  0.000  0.000  0.000  0.000  0.863
atom    3   Tr[ns(na)] =   9.12402
    eigenvalues: 
  0.863  0.863  0.863  0.987  0.987
    eigenvectors:
  0.000  0.000  0.000  0.020  0.980
  0.333  0.046  0.621  0.000  0.000
  0.333  0.331  0.336  0.000  0.000
  0.000  0.000  0.000  0.980  0.020
  0.333  0.623  0.043  0.000  0.000
    occupations:
  0.987  0.000  0.000  0.000  0.000
  0.000  0.863  0.000  0.000  0.000
  0.000  0.000  0.863  0.000  0.000
  0.000  0.000  0.000  0.987  0.000
  0.000  0.000  0.000  0.000  0.863
atom    4   Tr[ns(na)] =   9.12402
    eigenvalues: 
  0.863  0.863  0.863  0.987  0.987
    eigenvectors:
  0.000  0.000  0.000  0.009  0.991
  0.333  0.464  0.203  0.000  0.000
  0.333  0.002  0.664  0.000  0.000
  0.000  0.000  0.000  0.991  0.009
  0.333  0.534  0.133  0.000  0.000
    occupations:
  0.987  0.000  0.000  0.000  0.000
  0.000  0.863  0.000  0.000  0.000
  0.000  0.000  0.863  0.000  0.000
  0.000  0.000  0.000  0.987  0.000
  0.000  0.000  0.000  0.000  0.863
atom    5   Tr[ns(na)] =   9.12407
    eigenvalues: 
  0.863  0.863  0.863  0.987  0.987
    eigenvectors:
  0.000  0.000  0.000  0.005  0.995
  0.333  0.306  0.361  0.000  0.000
  0.333  0.059  0.607  0.000  0.000
  0.000  0.000  0.000  0.995  0.005
  0.333  0.635  0.032  0.000  0.000
    occupations:
  0.987  0.000  0.000  0.000  0.000
  0.000  0.863  0.000  0.000  0.000
  0.000  0.000  0.863  0.000  0.000
  0.000  0.000  0.000  0.987  0.000
  0.000  0.000  0.000  0.000  0.863
atom    6   Tr[ns(na)] =   9.12407
    eigenvalues: 
  0.863  0.863  0.863  0.987  0.987
    eigenvectors:
  0.000  0.000  0.000  0.049  0.951
  0.333  0.047  0.620  0.000  0.000
  0.333  0.330  0.337  0.000  0.000
  0.000  0.000  0.000  0.951  0.049
  0.333  0.624  0.043  0.000  0.000
    occupations:
  0.987  0.000  0.000  0.000  0.000
  0.000  0.863  0.000  0.000  0.000
  0.000  0.000  0.863  0.000  0.000
  0.000  0.000  0.000  0.987  0.000
  0.000  0.000  0.000  0.000  0.863
atom    7   Tr[ns(na)] =   9.12407
    eigenvalues: 
  0.863  0.863  0.863  0.987  0.987
    eigenvectors:
  0.000  0.000  0.000  0.003  0.997
  0.333  0.666  0.000  0.000  0.000
  0.333  0.152  0.515  0.000  0.000
  0.000  0.000  0.000  0.997  0.003
  0.333  0.182  0.485  0.000  0.000
    occupations:
  0.987  0.000  0.000  0.000  0.000
  0.000  0.863  0.000  0.000  0.000
  0.000  0.000  0.863  0.000  0.000
  0.000  0.000  0.000  0.987  0.000
  0.000  0.000  0.000  0.000  0.863
atom    8   Tr[ns(na)] =   9.12407
    eigenvalues: 
  0.863  0.863  0.863  0.987  0.987
    eigenvectors:
  0.000  0.000  0.000  0.023  0.977
  0.333  0.028  0.638  0.000  0.000
  0.333  0.602  0.064  0.000  0.000
  0.000  0.000  0.000  0.977  0.023
  0.333  0.369  0.298  0.000  0.000
    occupations:
  0.987  0.000  0.000  0.000  0.000
  0.000  0.863  0.000  0.000  0.000
  0.000  0.000  0.863  0.000  0.000
  0.000  0.000  0.000  0.987  0.000
  0.000  0.000  0.000  0.000  0.863
atom    9   Tr[ns(na)] =   5.81870
    eigenvalues: 
  0.970  0.970  0.970
    eigenvectors:
  0.440  0.164  0.397
  0.510  0.008  0.483
  0.051  0.828  0.121
    occupations:
  0.970  0.000  0.000
  0.000  0.970  0.000
  0.000  0.000  0.970
atom   10   Tr[ns(na)] =   5.81884
    eigenvalues: 
  0.970  0.970  0.970
    eigenvectors:
  0.362  0.638  0.000
  0.000  0.000  1.000
  0.638  0.362  0.000
    occupations:
  0.970  0.000  0.000
  0.000  0.970  0.000
  0.000  0.000  0.970
atom   11   Tr[ns(na)] =   5.81884
    eigenvalues: 
  0.970  0.970  0.970
    eigenvectors:
  0.583  0.417  0.000
  0.417  0.583  0.000
  0.000  0.000  1.000
    occupations:
  0.970  0.000  0.000
  0.000  0.970  0.000
  0.000  0.000  0.970
atom   12   Tr[ns(na)] =   5.81884
    eigenvalues: 
  0.970  0.970  0.970
    eigenvectors:
  0.000  0.000  1.000
  0.436  0.564  0.000
  0.564  0.436  0.000
    occupations:
  0.970  0.000  0.000
  0.000  0.970  0.000
  0.000  0.000  0.970
atom   13   Tr[ns(na)] =   5.81880
    eigenvalues: 
  0.970  0.970  0.970
    eigenvectors:
  1.000  0.000  0.000
  0.000  0.242  0.758
  0.000  0.758  0.242
    occupations:
  0.970  0.000  0.000
  0.000  0.970  0.000
  0.000  0.000  0.970
atom   14   Tr[ns(na)] =   5.81880
    eigenvalues: 
  0.970  0.970  0.970
    eigenvectors:
  0.000  0.516  0.484
  0.000  0.484  0.516
  1.000  0.000  0.000
    occupations:
  0.970  0.000  0.000
  0.000  0.970  0.000
  0.000  0.000  0.970
atom   15   Tr[ns(na)] =   5.81880
    eigenvalues: 
  0.970  0.970  0.970
    eigenvectors:
  0.000  0.171  0.829
  1.000  0.000  0.000
  0.000  0.829  0.171
    occupations:
  0.970  0.000  0.000
  0.000  0.970  0.000
  0.000  0.000  0.970
atom   16   Tr[ns(na)] =   5.81884
    eigenvalues: 
  0.970  0.970  0.970
    eigenvectors:
  0.257  0.416  0.327
  0.360  0.045  0.595
  0.384  0.538  0.078
    occupations:
  0.970  0.000  0.000
  0.000  0.970  0.000
  0.000  0.000  0.970
N of occupied +U levels = 119.5428224
 --- exit write_ns ---
 --- in v_hubbard ---
Hubbard energy    0.0000
 -------

     total cpu time spent up to now is       20.2 secs

     total energy              =    -936.59407259 Ry
     Harris-Foulkes estimate   =    -936.62622089 Ry
     estimated scf accuracy    <       0.12114470 Ry

     iteration #  3     ecut=    30.00 Ry     beta=0.30
     Davidson diagonalization with overlap
     ethr =  9.46E-05,  avg # of iterations =  3.7
 --- enter write_ns ---
 LDA+U parameters:
U( 1)     =  0.00000000
alpha( 1) =  0.00000000
U( 2)     =  0.00000000
alpha( 2) =  0.00000000
U( 3)     =  0.00000000
alpha( 3) =  0.00000000
U( 4)     =  0.00000000
alpha( 4) =  0.00000000
atom    1   Tr[ns(na)] =   9.08009
    eigenvalues: 
  0.857  0.857  0.857  0.984  0.984
    eigenvectors:
  0.000  0.000  0.000  0.031  0.969
  0.022  0.644  0.333  0.000  0.000
  0.593  0.074  0.333  0.000  0.000
  0.000  0.000  0.000  0.969  0.031
  0.385  0.282  0.333  0.000  0.000
    occupations:
  0.984  0.000  0.000  0.000  0.000
  0.000  0.857  0.000  0.000  0.000
  0.000  0.000  0.857  0.000  0.000
  0.000  0.000  0.000  0.984  0.000
  0.000  0.000  0.000  0.000  0.857
atom    2   Tr[ns(na)] =   9.08009
    eigenvalues: 
  0.857  0.857  0.857  0.984  0.984
    eigenvectors:
  0.000  0.000  0.000  0.043  0.957
  0.661  0.005  0.333  0.000  0.000
  0.118  0.549  0.333  0.000  0.000
  0.000  0.000  0.000  0.957  0.043
  0.221  0.446  0.333  0.000  0.000
    occupations:
  0.984  0.000  0.000  0.000  0.000
  0.000  0.857  0.000  0.000  0.000
  0.000  0.000  0.857  0.000  0.000
  0.000  0.000  0.000  0.984  0.000
  0.000  0.000  0.000  0.000  0.857
atom    3   Tr[ns(na)] =   9.08009
    eigenvalues: 
  0.857  0.857  0.857  0.984  0.984
    eigenvectors:
  0.000  0.000  0.000  0.032  0.968
  0.046  0.620  0.333  0.000  0.000
  0.330  0.336  0.333  0.000  0.000
  0.000  0.000  0.000  0.968  0.032
  0.624  0.043  0.333  0.000  0.000
    occupations:
  0.984  0.000  0.000  0.000  0.000
  0.000  0.857  0.000  0.000  0.000
  0.000  0.000  0.857  0.000  0.000
  0.000  0.000  0.000  0.984  0.000
  0.000  0.000  0.000  0.000  0.857
atom    4   Tr[ns(na)] =   9.08009
    eigenvalues: 
  0.857  0.857  0.857  0.984  0.984
    eigenvectors:
  0.000  0.000  0.000  0.006  0.994
  0.451  0.215  0.333  0.000  0.000
  0.004  0.662  0.333  0.000  0.000
  0.000  0.000  0.000  0.994  0.006
  0.544  0.122  0.333  0.000  0.000
    occupations:
  0.984  0.000  0.000  0.000  0.000
  0.000  0.857  0.000  0.000  0.000
  0.000  0.000  0.857  0.000  0.000
  0.000  0.000  0.000  0.984  0.000
  0.000  0.000  0.000  0.000  0.857
atom    5   Tr[ns(na)] =   9.07973
    eigenvalues: 
  0.857  0.857  0.857  0.984  0.984
    eigenvectors:
  0.000  0.000  0.000  0.043  0.957
  0.666  0.001  0.333  0.000  0.000
  0.150  0.517  0.333  0.000  0.000
  0.000  0.000  0.000  0.957  0.043
  0.184  0.482  0.333  0.000  0.000
    occupations:
  0.984  0.000  0.000  0.000  0.000
  0.000  0.857  0.000  0.000  0.000
  0.000  0.000  0.857  0.000  0.000
  0.000  0.000  0.000  0.984  0.000
  0.000  0.000  0.000  0.000  0.857
atom    6   Tr[ns(na)] =   9.07973
    eigenvalues: 
  0.857  0.857  0.857  0.984  0.984
    eigenvectors:
  0.000  0.000  0.000  0.022  0.978
  0.042  0.625  0.333  0.000  0.000
  0.339  0.328  0.333  0.000  0.000
  0.000  0.000  0.000  0.978  0.022
  0.619  0.047  0.333  0.000  0.000
    occupations:
  0.984  0.000  0.000  0.000  0.000
  0.000  0.857  0.000  0.000  0.000
  0.000  0.000  0.857  0.000  0.000
  0.000  0.000  0.000  0.984  0.000
  0.000  0.000  0.000  0.000  0.857
atom    7   Tr[ns(na)] =   9.07973
    eigenvalues: 
  0.857  0.857  0.857  0.984  0.984
    eigenvectors:
  0.000  0.000  0.000  0.009  0.991
  0.666  0.001  0.333  0.000  0.000
  0.146  0.520  0.333  0.000  0.000
  0.000  0.000  0.000  0.991  0.009
  0.188  0.479  0.333  0.000  0.000
    occupations:
  0.984  0.000  0.000  0.000  0.000
  0.000  0.857  0.000  0.000  0.000
  0.000  0.000  0.857  0.000  0.000
  0.000  0.000  0.000  0.984  0.000
  0.000  0.000  0.000  0.000  0.857
atom    8   Tr[ns(na)] =   9.07973
    eigenvalues: 
  0.857  0.857  0.857  0.984  0.984
    eigenvectors:
  0.000  0.000  0.000  0.029  0.971
  0.032  0.635  0.333  0.000  0.000
  0.607  0.060  0.333  0.000  0.000
  0.000  0.000  0.000  0.971  0.029
  0.361  0.305  0.333  0.000  0.000
    occupations:
  0.984  0.000  0.000  0.000  0.000
  0.000  0.857  0.000  0.000  0.000
  0.000  0.000  0.857  0.000  0.000
  0.000  0.000  0.000  0.984  0.000
  0.000  0.000  0.000  0.000  0.857
atom    9   Tr[ns(na)] =   5.84270
    eigenvalues: 
  0.974  0.974  0.974
    eigenvectors:
  0.461  0.167  0.372
  0.491  0.013  0.496
  0.048  0.820  0.132
    occupations:
  0.974  0.000  0.000
  0.000  0.974  0.000
  0.000  0.000  0.974
atom   10   Tr[ns(na)] =   5.84265
    eigenvalues: 
  0.974  0.974  0.974
    eigenvectors:
  0.654  0.346  0.000
  0.000  0.000  1.000
  0.346  0.654  0.000
    occupations:
  0.974  0.000  0.000
  0.000  0.974  0.000
  0.000  0.000  0.974
atom   11   Tr[ns(na)] =   5.84265
    eigenvalues: 
  0.974  0.974  0.974
    eigenvectors:
  0.512  0.488  0.000
  0.488  0.512  0.000
  0.000  0.000  1.000
    occupations:
  0.974  0.000  0.000
  0.000  0.974  0.000
  0.000  0.000  0.974
atom   12   Tr[ns(na)] =   5.84265
    eigenvalues: 
  0.974  0.974  0.974
    eigenvectors:
  0.000  0.000  1.000
  0.165  0.835  0.000
  0.835  0.165  0.000
    occupations:
  0.974  0.000  0.000
  0.000  0.974  0.000
  0.000  0.000  0.974
atom   13   Tr[ns(na)] =   5.84268
    eigenvalues: 
  0.974  0.974  0.974
    eigenvectors:
  1.000  0.000  0.000
  0.000  0.243  0.757
  0.000  0.757  0.243
    occupations:
  0.974  0.000  0.000
  0.000  0.974  0.000
  0.000  0.000  0.974
atom   14   Tr[ns(na)] =   5.84268
    eigenvalues: 
  0.974  0.974  0.974
    eigenvectors:
  0.000  0.498  0.502
  0.000  0.502  0.498
  1.000  0.000  0.000
    occupations:
  0.974  0.000  0.000
  0.000  0.974  0.000
  0.000  0.000  0.974
atom   15   Tr[ns(na)] =   5.84268
    eigenvalues: 
  0.974  0.974  0.974
    eigenvectors:
  0.000  0.133  0.867
  1.000  0.000  0.000
  0.000  0.867  0.133
    occupations:
  0.974  0.000  0.000
  0.000  0.974  0.000
  0.000  0.000  0.974
atom   16   Tr[ns(na)] =   5.84268
    eigenvalues: 
  0.974  0.974  0.974
    eigenvectors:
  0.329  0.228  0.443
  0.550  0.002  0.448
  0.121  0.770  0.109
    occupations:
  0.974  0.000  0.000
  0.000  0.974  0.000
  0.000  0.000  0.974
N of occupied +U levels = 119.3806306
 --- exit write_ns ---
 --- in v_hubbard ---
Hubbard energy    0.0000
 -------

     total cpu time spent up to now is       27.1 secs

     total energy              =    -936.59834964 Ry
     Harris-Foulkes estimate   =    -936.60843840 Ry
     estimated scf accuracy    <       0.03607970 Ry

     iteration #  4     ecut=    30.00 Ry     beta=0.30
     Davidson diagonalization with overlap
     ethr =  2.82E-05,  avg # of iterations =  1.9
 --- enter write_ns ---
 LDA+U parameters:
U( 1)     =  0.00000000
alpha( 1) =  0.00000000
U( 2)     =  0.00000000
alpha( 2) =  0.00000000
U( 3)     =  0.00000000
alpha( 3) =  0.00000000
U( 4)     =  0.00000000
alpha( 4) =  0.00000000
atom    1   Tr[ns(na)] =   9.07610
    eigenvalues: 
  0.858  0.858  0.858  0.983  0.983
    eigenvectors:
  0.000  0.000  0.000  0.024  0.976
  0.333  0.036  0.631  0.000  0.000
  0.333  0.613  0.054  0.000  0.000
  0.000  0.000  0.000  0.976  0.024
  0.333  0.351  0.315  0.000  0.000
    occupations:
  0.983  0.000  0.000  0.000  0.000
  0.000  0.858  0.000  0.000  0.000
  0.000  0.000  0.858  0.000  0.000
  0.000  0.000  0.000  0.983  0.000
  0.000  0.000  0.000  0.000  0.858
atom    2   Tr[ns(na)] =   9.07610
    eigenvalues: 
  0.858  0.858  0.858  0.983  0.983
    eigenvectors:
  0.000  0.000  0.000  0.003  0.997
  0.333  0.666  0.001  0.000  0.000
  0.333  0.144  0.522  0.000  0.000
  0.000  0.000  0.000  0.997  0.003
  0.333  0.190  0.477  0.000  0.000
    occupations:
  0.983  0.000  0.000  0.000  0.000
  0.000  0.858  0.000  0.000  0.000
  0.000  0.000  0.858  0.000  0.000
  0.000  0.000  0.000  0.983  0.000
  0.000  0.000  0.000  0.000  0.858
atom    3   Tr[ns(na)] =   9.07610
    eigenvalues: 
  0.858  0.858  0.858  0.983  0.983
    eigenvectors:
  0.000  0.000  0.000  0.071  0.929
  0.333  0.042  0.625  0.000  0.000
  0.333  0.338  0.328  0.000  0.000
  0.000  0.000  0.000  0.929  0.071
  0.333  0.619  0.047  0.000  0.000
    occupations:
  0.983  0.000  0.000  0.000  0.000
  0.000  0.858  0.000  0.000  0.000
  0.000  0.000  0.858  0.000  0.000
  0.000  0.000  0.000  0.983  0.000
  0.000  0.000  0.000  0.000  0.858
atom    4   Tr[ns(na)] =   9.07610
    eigenvalues: 
  0.858  0.858  0.858  0.983  0.983
    eigenvectors:
  0.000  0.000  0.000  0.012  0.988
  0.333  0.546  0.121  0.000  0.000
  0.333  0.005  0.662  0.000  0.000
  0.000  0.000  0.000  0.988  0.012
  0.333  0.449  0.217  0.000  0.000
    occupations:
  0.983  0.000  0.000  0.000  0.000
  0.000  0.858  0.000  0.000  0.000
  0.000  0.000  0.858  0.000  0.000
  0.000  0.000  0.000  0.983  0.000
  0.000  0.000  0.000  0.000  0.858
atom    5   Tr[ns(na)] =   9.08046
    eigenvalues: 
  0.858  0.858  0.858  0.983  0.983
    eigenvectors:
  0.000  0.000  0.000  0.029  0.971
  0.333  0.394  0.273  0.000  0.000
  0.333  0.019  0.647  0.000  0.000
  0.000  0.000  0.000  0.971  0.029
  0.333  0.587  0.080  0.000  0.000
    occupations:
  0.983  0.000  0.000  0.000  0.000
  0.000  0.858  0.000  0.000  0.000
  0.000  0.000  0.858  0.000  0.000
  0.000  0.000  0.000  0.983  0.000
  0.000  0.000  0.000  0.000  0.858
atom    6   Tr[ns(na)] =   9.08046
    eigenvalues: 
  0.858  0.858  0.858  0.983  0.983
    eigenvectors:
  0.000  0.000  0.000  0.018  0.982
  0.333  0.045  0.622  0.000  0.000
  0.333  0.333  0.334  0.000  0.000
  0.000  0.000  0.000  0.982  0.018
  0.333  0.622  0.044  0.000  0.000
    occupations:
  0.983  0.000  0.000  0.000  0.000
  0.000  0.858  0.000  0.000  0.000
  0.000  0.000  0.858  0.000  0.000
  0.000  0.000  0.000  0.983  0.000
  0.000  0.000  0.000  0.000  0.858
atom    7   Tr[ns(na)] =   9.08046
    eigenvalues: 
  0.858  0.858  0.858  0.983  0.983
    eigenvectors:
  0.000  0.000  0.000  0.018  0.982
  0.333  0.666  0.001  0.000  0.000
  0.333  0.146  0.521  0.000  0.000
  0.000  0.000  0.000  0.982  0.018
  0.333  0.188  0.479  0.000  0.000
    occupations:
  0.983  0.000  0.000  0.000  0.000
  0.000  0.858  0.000  0.000  0.000
  0.000  0.000  0.858  0.000  0.000
  0.000  0.000  0.000  0.983  0.000
  0.000  0.000  0.000  0.000  0.858
atom    8   Tr[ns(na)] =   9.08046
    eigenvalues: 
  0.858  0.858  0.858  0.983  0.983
    eigenvectors:
  0.000  0.000  0.000  0.003  0.997
  0.333  0.043  0.624  0.000  0.000
  0.333  0.620  0.046  0.000  0.000
  0.000  0.000  0.000  0.997  0.003
  0.333  0.337  0.330  0.000  0.000
    occupations:
  0.983  0.000  0.000  0.000  0.000
  0.000  0.858  0.000  0.000  0.000
  0.000  0.000  0.858  0.000  0.000
  0.000  0.000  0.000  0.983  0.000
  0.000  0.000  0.000  0.000  0.858
atom    9   Tr[ns(na)] =   5.83813
    eigenvalues: 
  0.973  0.973  0.973
    eigenvectors:
  0.461  0.184  0.355
  0.461  0.004  0.535
  0.078  0.812  0.110
    occupations:
  0.973  0.000  0.000
  0.000  0.973  0.000
  0.000  0.000  0.973
atom   10   Tr[ns(na)] =   5.83836
    eigenvalues: 
  0.973  0.973  0.973
    eigenvectors:
  0.607  0.393  0.000
  0.000  0.000  1.000
  0.393  0.607  0.000
    occupations:
  0.973  0.000  0.000
  0.000  0.973  0.000
  0.000  0.000  0.973
atom   11   Tr[ns(na)] =   5.83836
    eigenvalues: 
  0.973  0.973  0.973
    eigenvectors:
  0.597  0.403  0.000
  0.403  0.597  0.000
  0.000  0.000  1.000
    occupations:
  0.973  0.000  0.000
  0.000  0.973  0.000
  0.000  0.000  0.973
atom   12   Tr[ns(na)] =   5.83836
    eigenvalues: 
  0.973  0.973  0.973
    eigenvectors:
  0.000  0.000  1.000
  0.481  0.519  0.000
  0.519  0.481  0.000
    occupations:
  0.973  0.000  0.000
  0.000  0.973  0.000
  0.000  0.000  0.973
atom   13   Tr[ns(na)] =   5.83838
    eigenvalues: 
  0.973  0.973  0.973
    eigenvectors:
  1.000  0.000  0.000
  0.000  0.276  0.724
  0.000  0.724  0.276
    occupations:
  0.973  0.000  0.000
  0.000  0.973  0.000
  0.000  0.000  0.973
atom   14   Tr[ns(na)] =   5.83838
    eigenvalues: 
  0.973  0.973  0.973
    eigenvectors:
  0.000  0.558  0.442
  0.000  0.442  0.558
  1.000  0.000  0.000
    occupations:
  0.973  0.000  0.000
  0.000  0.973  0.000
  0.000  0.000  0.973
atom   15   Tr[ns(na)] =   5.83838
    eigenvalues: 
  0.973  0.973  0.973
    eigenvectors:
  0.000  0.759  0.241
  1.000  0.000  0.000
  0.000  0.241  0.759
    occupations:
  0.973  0.000  0.000
  0.000  0.973  0.000
  0.000  0.000  0.973
atom   16   Tr[ns(na)] =   5.83844
    eigenvalues: 
  0.973  0.973  0.973
    eigenvectors:
  0.409  0.183  0.409
  0.525  0.003  0.472
  0.066  0.814  0.120
    occupations:
  0.973  0.000  0.000
  0.000  0.973  0.000
  0.000  0.000  0.973
N of occupied +U levels = 119.3330501
 --- exit write_ns ---
 --- in v_hubbard ---
Hubbard energy    0.0000
 -------

     total cpu time spent up to now is       33.2 secs

     total energy              =    -936.60093859 Ry
     Harris-Foulkes estimate   =    -936.60127493 Ry
     estimated scf accuracy    <       0.00195280 Ry

     iteration #  5     ecut=    30.00 Ry     beta=0.30
     Davidson diagonalization with overlap
     ethr =  1.53E-06,  avg # of iterations =  3.2
 --- enter write_ns ---
 LDA+U parameters:
U( 1)     =  0.00000000
alpha( 1) =  0.00000000
U( 2)     =  0.00000000
alpha( 2) =  0.00000000
U( 3)     =  0.00000000
alpha( 3) =  0.00000000
U( 4)     =  0.00000000
alpha( 4) =  0.00000000
atom    1   Tr[ns(na)] =   9.09635
    eigenvalues: 
  0.861  0.861  0.861  0.983  0.983
    eigenvectors:
  0.000  0.000  0.000  0.006  0.994
  0.027  0.640  0.333  0.000  0.000
  0.600  0.067  0.333  0.000  0.000
  0.000  0.000  0.000  0.994  0.006
  0.373  0.293  0.333  0.000  0.000
    occupations:
  0.983  0.000  0.000  0.000  0.000
  0.000  0.861  0.000  0.000  0.000
  0.000  0.000  0.861  0.000  0.000
  0.000  0.000  0.000  0.983  0.000
  0.000  0.000  0.000  0.000  0.861
atom    2   Tr[ns(na)] =   9.09635
    eigenvalues: 
  0.861  0.861  0.861  0.983  0.983
    eigenvectors:
  0.000  0.000  0.000  0.007  0.993
  0.667  0.000  0.333  0.000  0.000
  0.165  0.501  0.333  0.000  0.000
  0.000  0.000  0.000  0.993  0.007
  0.168  0.499  0.333  0.000  0.000
    occupations:
  0.983  0.000  0.000  0.000  0.000
  0.000  0.861  0.000  0.000  0.000
  0.000  0.000  0.861  0.000  0.000
  0.000  0.000  0.000  0.983  0.000
  0.000  0.000  0.000  0.000  0.861
atom    3   Tr[ns(na)] =   9.09635
    eigenvalues: 
  0.861  0.861  0.861  0.983  0.983
    eigenvectors:
  0.000  0.000  0.000  0.042  0.958
  0.040  0.626  0.333  0.000  0.000
  0.342  0.324  0.333  0.000  0.000
  0.000  0.000  0.000  0.958  0.042
  0.617  0.049  0.333  0.000  0.000
    occupations:
  0.983  0.000  0.000  0.000  0.000
  0.000  0.861  0.000  0.000  0.000
  0.000  0.000  0.861  0.000  0.000
  0.000  0.000  0.000  0.983  0.000
  0.000  0.000  0.000  0.000  0.861
atom    4   Tr[ns(na)] =   9.09635
    eigenvalues: 
  0.861  0.861  0.861  0.983  0.983
    eigenvectors:
  0.000  0.000  0.000  0.021  0.979
  0.444  0.223  0.333  0.000  0.000
  0.006  0.661  0.333  0.000  0.000
  0.000  0.000  0.000  0.979  0.021
  0.550  0.116  0.333  0.000  0.000
    occupations:
  0.983  0.000  0.000  0.000  0.000
  0.000  0.861  0.000  0.000  0.000
  0.000  0.000  0.861  0.000  0.000
  0.000  0.000  0.000  0.983  0.000
  0.000  0.000  0.000  0.000  0.861
atom    5   Tr[ns(na)] =   9.06124
    eigenvalues: 
  0.855  0.855  0.855  0.982  0.982
    eigenvectors:
  0.000  0.000  0.000  0.010  0.990
  0.279  0.388  0.333  0.000  0.000
  0.076  0.591  0.333  0.000  0.000
  0.000  0.000  0.000  0.990  0.010
  0.645  0.021  0.333  0.000  0.000
    occupations:
  0.982  0.000  0.000  0.000  0.000
  0.000  0.855  0.000  0.000  0.000
  0.000  0.000  0.855  0.000  0.000
  0.000  0.000  0.000  0.982  0.000
  0.000  0.000  0.000  0.000  0.855
atom    6   Tr[ns(na)] =   9.06124
    eigenvalues: 
  0.855  0.855  0.855  0.982  0.982
    eigenvectors:
  0.000  0.000  0.000  0.010  0.990
  0.041  0.625  0.333  0.000  0.000
  0.340  0.327  0.333  0.000  0.000
  0.000  0.000  0.000  0.990  0.010
  0.619  0.048  0.333  0.000  0.000
    occupations:
  0.982  0.000  0.000  0.000  0.000
  0.000  0.855  0.000  0.000  0.000
  0.000  0.000  0.855  0.000  0.000
  0.000  0.000  0.000  0.982  0.000
  0.000  0.000  0.000  0.000  0.855
atom    7   Tr[ns(na)] =   9.06124
    eigenvalues: 
  0.855  0.855  0.855  0.982  0.982
    eigenvectors:
  0.000  0.000  0.000  0.016  0.984
  0.662  0.004  0.333  0.000  0.000
  0.123  0.544  0.333  0.000  0.000
  0.000  0.000  0.000  0.984  0.016
  0.215  0.452  0.333  0.000  0.000
    occupations:
  0.982  0.000  0.000  0.000  0.000
  0.000  0.855  0.000  0.000  0.000
  0.000  0.000  0.855  0.000  0.000
  0.000  0.000  0.000  0.982  0.000
  0.000  0.000  0.000  0.000  0.855
atom    8   Tr[ns(na)] =   9.06124
    eigenvalues: 
  0.855  0.855  0.855  0.982  0.982
    eigenvectors:
  0.000  0.000  0.000  0.031  0.969
  0.020  0.647  0.333  0.000  0.000
  0.588  0.079  0.333  0.000  0.000
  0.000  0.000  0.000  0.969  0.031
  0.393  0.274  0.333  0.000  0.000
    occupations:
  0.982  0.000  0.000  0.000  0.000
  0.000  0.855  0.000  0.000  0.000
  0.000  0.000  0.855  0.000  0.000
  0.000  0.000  0.000  0.982  0.000
  0.000  0.000  0.000  0.000  0.855
atom    9   Tr[ns(na)] =   5.83914
    eigenvalues: 
  0.973  0.973  0.973
    eigenvectors:
  0.462  0.198  0.340
  0.474  0.013  0.513
  0.064  0.789  0.147
    occupations:
  0.973  0.000  0.000
  0.000  0.973  0.000
  0.000  0.000  0.973
atom   10   Tr[ns(na)] =   5.83879
    eigenvalues: 
  0.973  0.973  0.973
    eigenvectors:
  0.385  0.615  0.000
  0.000  0.000  1.000
  0.615  0.385  0.000
    occupations:
  0.973  0.000  0.000
  0.000  0.973  0.000
  0.000  0.000  0.973
atom   11   Tr[ns(na)] =   5.83879
    eigenvalues: 
  0.973  0.973  0.973
    eigenvectors:
  0.663  0.337  0.000
  0.337  0.663  0.000
  0.000  0.000  1.000
    occupations:
  0.973  0.000  0.000
  0.000  0.973  0.000
  0.000  0.000  0.973
atom   12   Tr[ns(na)] =   5.83879
    eigenvalues: 
  0.973  0.973  0.973
    eigenvectors:
  0.000  0.000  1.000
  0.207  0.793  0.000
  0.793  0.207  0.000
    occupations:
  0.973  0.000  0.000
  0.000  0.973  0.000
  0.000  0.000  0.973
atom   13   Tr[ns(na)] =   5.83872
    eigenvalues: 
  0.973  0.973  0.973
    eigenvectors:
  1.000  0.000  0.000
  0.000  0.356  0.644
  0.000  0.644  0.356
    occupations:
  0.973  0.000  0.000
  0.000  0.973  0.000
  0.000  0.000  0.973
atom   14   Tr[ns(na)] =   5.83872
    eigenvalues: 
  0.973  0.973  0.973
    eigenvectors:
  0.000  0.577  0.423
  0.000  0.423  0.577
  1.000  0.000  0.000
    occupations:
  0.973  0.000  0.000
  0.000  0.973  0.000
  0.000  0.000  0.973
atom   15   Tr[ns(na)] =   5.83872
    eigenvalues: 
  0.973  0.973  0.973
    eigenvectors:
  0.000  0.583  0.417
  1.000  0.000  0.000
  0.000  0.417  0.583
    occupations:
  0.973  0.000  0.000
  0.000  0.973  0.000
  0.000  0.000  0.973
atom   16   Tr[ns(na)] =   5.83859
    eigenvalues: 
  0.973  0.973  0.973
    eigenvectors:
  0.394  0.227  0.379
  0.559  0.022  0.419
  0.047  0.751  0.202
    occupations:
  0.973  0.000  0.000
  0.000  0.973  0.000
  0.000  0.000  0.973
N of occupied +U levels = 119.3405902
 --- exit write_ns ---
 --- in v_hubbard ---
Hubbard energy    0.0000
 -------

     total cpu time spent up to now is       39.8 secs

     total energy              =    -936.60089641 Ry
     Harris-Foulkes estimate   =    -936.60123862 Ry
     estimated scf accuracy    <       0.00338903 Ry

     iteration #  6     ecut=    30.00 Ry     beta=0.30
     Davidson diagonalization with overlap
     ethr =  1.53E-06,  avg # of iterations =  1.0
 --- enter write_ns ---
 LDA+U parameters:
U( 1)     =  0.00000000
alpha( 1) =  0.00000000
U( 2)     =  0.00000000
alpha( 2) =  0.00000000
U( 3)     =  0.00000000
alpha( 3) =  0.00000000
U( 4)     =  0.00000000
alpha( 4) =  0.00000000
atom    1   Tr[ns(na)] =   9.07528
    eigenvalues: 
  0.857  0.857  0.857  0.983  0.983
    eigenvectors:
  0.000  0.000  0.000  0.022  0.978
  0.031  0.635  0.333  0.000  0.000
  0.606  0.060  0.333  0.000  0.000
  0.000  0.000  0.000  0.978  0.022
  0.362  0.304  0.333  0.000  0.000
    occupations:
  0.983  0.000  0.000  0.000  0.000
  0.000  0.857  0.000  0.000  0.000
  0.000  0.000  0.857  0.000  0.000
  0.000  0.000  0.000  0.983  0.000
  0.000  0.000  0.000  0.000  0.857
atom    2   Tr[ns(na)] =   9.07528
    eigenvalues: 
  0.857  0.857  0.857  0.983  0.983
    eigenvectors:
  0.000  0.000  0.000  0.021  0.979
  0.660  0.007  0.333  0.000  0.000
  0.113  0.554  0.333  0.000  0.000
  0.000  0.000  0.000  0.979  0.021
  0.228  0.439  0.333  0.000  0.000
    occupations:
  0.983  0.000  0.000  0.000  0.000
  0.000  0.857  0.000  0.000  0.000
  0.000  0.000  0.857  0.000  0.000
  0.000  0.000  0.000  0.983  0.000
  0.000  0.000  0.000  0.000  0.857
atom    3   Tr[ns(na)] =   9.07528
    eigenvalues: 
  0.857  0.857  0.857  0.983  0.983
    eigenvectors:
  0.000  0.000  0.000  0.016  0.984
  0.045  0.622  0.333  0.000  0.000
  0.332  0.334  0.333  0.000  0.000
  0.000  0.000  0.000  0.984  0.016
  0.622  0.044  0.333  0.000  0.000
    occupations:
  0.983  0.000  0.000  0.000  0.000
  0.000  0.857  0.000  0.000  0.000
  0.000  0.000  0.857  0.000  0.000
  0.000  0.000  0.000  0.983  0.000
  0.000  0.000  0.000  0.000  0.857
atom    4   Tr[ns(na)] =   9.07528
    eigenvalues: 
  0.857  0.857  0.857  0.983  0.983
    eigenvectors:
  0.000  0.000  0.000  0.027  0.973
  0.514  0.152  0.333  0.000  0.000
  0.000  0.666  0.333  0.000  0.000
  0.000  0.000  0.000  0.973  0.027
  0.485  0.181  0.333  0.000  0.000
    occupations:
  0.983  0.000  0.000  0.000  0.000
  0.000  0.857  0.000  0.000  0.000
  0.000  0.000  0.857  0.000  0.000
  0.000  0.000  0.000  0.983  0.000
  0.000  0.000  0.000  0.000  0.857
atom    5   Tr[ns(na)] =   9.08240
    eigenvalues: 
  0.858  0.858  0.859  0.983  0.983
    eigenvectors:
  0.000  0.000  0.000  0.033  0.967
  0.595  0.072  0.333  0.000  0.000
  0.024  0.643  0.333  0.000  0.000
  0.000  0.000  0.000  0.967  0.033
  0.381  0.285  0.333  0.000  0.000
    occupations:
  0.983  0.000  0.000  0.000  0.000
  0.000  0.858  0.000  0.000  0.000
  0.000  0.000  0.858  0.000  0.000
  0.000  0.000  0.000  0.983  0.000
  0.000  0.000  0.000  0.000  0.858
atom    6   Tr[ns(na)] =   9.08240
    eigenvalues: 
  0.858  0.858  0.859  0.983  0.983
    eigenvectors:
  0.000  0.000  0.000  0.014  0.986
  0.048  0.619  0.333  0.000  0.000
  0.327  0.339  0.333  0.000  0.000
  0.000  0.000  0.000  0.986  0.014
  0.625  0.042  0.333  0.000  0.000
    occupations:
  0.983  0.000  0.000  0.000  0.000
  0.000  0.858  0.000  0.000  0.000
  0.000  0.000  0.858  0.000  0.000
  0.000  0.000  0.000  0.983  0.000
  0.000  0.000  0.000  0.000  0.858
atom    7   Tr[ns(na)] =   9.08240
    eigenvalues: 
  0.858  0.858  0.859  0.983  0.983
    eigenvectors:
  0.000  0.000  0.000  0.028  0.972
  0.664  0.003  0.333  0.000  0.000
  0.130  0.537  0.333  0.000  0.000
  0.000  0.000  0.000  0.972  0.028
  0.206  0.460  0.333  0.000  0.000
    occupations:
  0.983  0.000  0.000  0.000  0.000
  0.000  0.858  0.000  0.000  0.000
  0.000  0.000  0.858  0.000  0.000
  0.000  0.000  0.000  0.983  0.000
  0.000  0.000  0.000  0.000  0.858
atom    8   Tr[ns(na)] =   9.08240
    eigenvalues: 
  0.858  0.858  0.859  0.983  0.983
    eigenvectors:
  0.000  0.000  0.000  0.029  0.971
  0.022  0.645  0.333  0.000  0.000
  0.592  0.075  0.333  0.000  0.000
  0.000  0.000  0.000  0.971  0.029
  0.386  0.281  0.333  0.000  0.000
    occupations:
  0.983  0.000  0.000  0.000  0.000
  0.000  0.858  0.000  0.000  0.000
  0.000  0.000  0.858  0.000  0.000
  0.000  0.000  0.000  0.983  0.000
  0.000  0.000  0.000  0.000  0.858
atom    9   Tr[ns(na)] =   5.83908
    eigenvalues: 
  0.973  0.973  0.973
    eigenvectors:
  0.394  0.270  0.336
  0.418  0.005  0.577
  0.188  0.725  0.086
    occupations:
  0.973  0.000  0.000
  0.000  0.973  0.000
  0.000  0.000  0.973
atom   10   Tr[ns(na)] =   5.83883
    eigenvalues: 
  0.973  0.973  0.973
    eigenvectors:
  0.554  0.446  0.000
  0.000  0.000  1.000
  0.446  0.554  0.000
    occupations:
  0.973  0.000  0.000
  0.000  0.973  0.000
  0.000  0.000  0.973
atom   11   Tr[ns(na)] =   5.83883
    eigenvalues: 
  0.973  0.973  0.973
    eigenvectors:
  0.584  0.416  0.000
  0.416  0.584  0.000
  0.000  0.000  1.000
    occupations:
  0.973  0.000  0.000
  0.000  0.973  0.000
  0.000  0.000  0.973
atom   12   Tr[ns(na)] =   5.83883
    eigenvalues: 
  0.973  0.973  0.973
    eigenvectors:
  0.000  0.000  1.000
  0.698  0.302  0.000
  0.302  0.698  0.000
    occupations:
  0.973  0.000  0.000
  0.000  0.973  0.000
  0.000  0.000  0.973
atom   13   Tr[ns(na)] =   5.83880
    eigenvalues: 
  0.973  0.973  0.973
    eigenvectors:
  1.000  0.000  0.000
  0.000  0.130  0.870
  0.000  0.870  0.130
    occupations:
  0.973  0.000  0.000
  0.000  0.973  0.000
  0.000  0.000  0.973
atom   14   Tr[ns(na)] =   5.83880
    eigenvalues: 
  0.973  0.973  0.973
    eigenvectors:
  0.000  0.511  0.489
  0.000  0.489  0.511
  1.000  0.000  0.000
    occupations:
  0.973  0.000  0.000
  0.000  0.973  0.000
  0.000  0.000  0.973
atom   15   Tr[ns(na)] =   5.83880
    eigenvalues: 
  0.973  0.973  0.973
    eigenvectors:
  0.000  0.640  0.360
  1.000  0.000  0.000
  0.000  0.360  0.640
    occupations:
  0.973  0.000  0.000
  0.000  0.973  0.000
  0.000  0.000  0.973
atom   16   Tr[ns(na)] =   5.83872
    eigenvalues: 
  0.973  0.973  0.973
    eigenvectors:
  0.240  0.305  0.455
  0.512  0.035  0.453
  0.248  0.660  0.092
    occupations:
  0.973  0.000  0.000
  0.000  0.973  0.000
  0.000  0.000  0.973
N of occupied +U levels = 119.3413912
 --- exit write_ns ---
 --- in v_hubbard ---
Hubbard energy    0.0000
 -------

     total cpu time spent up to now is       45.9 secs

     total energy              =    -936.60107866 Ry
     Harris-Foulkes estimate   =    -936.60111337 Ry
     estimated scf accuracy    <       0.00040841 Ry

     iteration #  7     ecut=    30.00 Ry     beta=0.30
     Davidson diagonalization with overlap
     ethr =  3.19E-07,  avg # of iterations =  1.0
 --- enter write_ns ---
 LDA+U parameters:
U( 1)     =  0.00000000
alpha( 1) =  0.00000000
U( 2)     =  0.00000000
alpha( 2) =  0.00000000
U( 3)     =  0.00000000
alpha( 3) =  0.00000000
U( 4)     =  0.00000000
alpha( 4) =  0.00000000
atom    1   Tr[ns(na)] =   9.07891
    eigenvalues: 
  0.858  0.858  0.858  0.983  0.983
    eigenvectors:
  0.000  0.000  0.000  0.008  0.992
  0.333  0.029  0.637  0.000  0.000
  0.333  0.604  0.063  0.000  0.000
  0.000  0.000  0.000  0.992  0.008
  0.333  0.367  0.300  0.000  0.000
    occupations:
  0.983  0.000  0.000  0.000  0.000
  0.000  0.858  0.000  0.000  0.000
  0.000  0.000  0.858  0.000  0.000
  0.000  0.000  0.000  0.983  0.000
  0.000  0.000  0.000  0.000  0.858
atom    2   Tr[ns(na)] =   9.07891
    eigenvalues: 
  0.858  0.858  0.858  0.983  0.983
    eigenvectors:
  0.000  0.000  0.000  0.012  0.988
  0.333  0.667  0.000  0.000  0.000
  0.333  0.160  0.507  0.000  0.000
  0.000  0.000  0.000  0.988  0.012
  0.333  0.173  0.493  0.000  0.000
    occupations:
  0.983  0.000  0.000  0.000  0.000
  0.000  0.858  0.000  0.000  0.000
  0.000  0.000  0.858  0.000  0.000
  0.000  0.000  0.000  0.983  0.000
  0.000  0.000  0.000  0.000  0.858
atom    3   Tr[ns(na)] =   9.07891
    eigenvalues: 
  0.858  0.858  0.858  0.983  0.983
    eigenvectors:
  0.000  0.000  0.000  0.053  0.947
  0.333  0.043  0.624  0.000  0.000
  0.333  0.337  0.330  0.000  0.000
  0.000  0.000  0.000  0.947  0.053
  0.333  0.620  0.046  0.000  0.000
    occupations:
  0.983  0.000  0.000  0.000  0.000
  0.000  0.858  0.000  0.000  0.000
  0.000  0.000  0.858  0.000  0.000
  0.000  0.000  0.000  0.983  0.000
  0.000  0.000  0.000  0.000  0.858
atom    4   Tr[ns(na)] =   9.07891
    eigenvalues: 
  0.858  0.858  0.858  0.983  0.983
    eigenvectors:
  0.000  0.000  0.000  0.013  0.987
  0.333  0.626  0.041  0.000  0.000
  0.333  0.049  0.618  0.000  0.000
  0.000  0.000  0.000  0.987  0.013
  0.333  0.325  0.341  0.000  0.000
    occupations:
  0.983  0.000  0.000  0.000  0.000
  0.000  0.858  0.000  0.000  0.000
  0.000  0.000  0.858  0.000  0.000
  0.000  0.000  0.000  0.983  0.000
  0.000  0.000  0.000  0.000  0.858
atom    5   Tr[ns(na)] =   9.07889
    eigenvalues: 
  0.858  0.858  0.858  0.983  0.983
    eigenvectors:
  0.000  0.000  0.000  0.029  0.971
  0.333  0.511  0.155  0.000  0.000
  0.333  0.000  0.666  0.000  0.000
  0.000  0.000  0.000  0.971  0.029
  0.333  0.488  0.178  0.000  0.000
    occupations:
  0.983  0.000  0.000  0.000  0.000
  0.000  0.858  0.000  0.000  0.000
  0.000  0.000  0.858  0.000  0.000
  0.000  0.000  0.000  0.983  0.000
  0.000  0.000  0.000  0.000  0.858
atom    6   Tr[ns(na)] =   9.07889
    eigenvalues: 
  0.858  0.858  0.858  0.983  0.983
    eigenvectors:
  0.000  0.000  0.000  0.021  0.979
  0.333  0.039  0.628  0.000  0.000
  0.333  0.345  0.322  0.000  0.000
  0.000  0.000  0.000  0.979  0.021
  0.333  0.616  0.051  0.000  0.000
    occupations:
  0.983  0.000  0.000  0.000  0.000
  0.000  0.858  0.000  0.000  0.000
  0.000  0.000  0.858  0.000  0.000
  0.000  0.000  0.000  0.983  0.000
  0.000  0.000  0.000  0.000  0.858
atom    7   Tr[ns(na)] =   9.07889
    eigenvalues: 
  0.858  0.858  0.858  0.983  0.983
    eigenvectors:
  0.000  0.000  0.000  0.003  0.997
  0.333  0.667  0.000  0.000  0.000
  0.333  0.160  0.507  0.000  0.000
  0.000  0.000  0.000  0.997  0.003
  0.333  0.173  0.493  0.000  0.000
    occupations:
  0.983  0.000  0.000  0.000  0.000
  0.000  0.858  0.000  0.000  0.000
  0.000  0.000  0.858  0.000  0.000
  0.000  0.000  0.000  0.983  0.000
  0.000  0.000  0.000  0.000  0.858
atom    8   Tr[ns(na)] =   9.07889
    eigenvalues: 
  0.858  0.858  0.858  0.983  0.983
    eigenvectors:
  0.000  0.000  0.000  0.018  0.982
  0.333  0.027  0.640  0.000  0.000
  0.333  0.600  0.066  0.000  0.000
  0.000  0.000  0.000  0.982  0.018
  0.333  0.373  0.294  0.000  0.000
    occupations:
  0.983  0.000  0.000  0.000  0.000
  0.000  0.858  0.000  0.000  0.000
  0.000  0.000  0.858  0.000  0.000
  0.000  0.000  0.000  0.983  0.000
  0.000  0.000  0.000  0.000  0.858
atom    9   Tr[ns(na)] =   5.83860
    eigenvalues: 
  0.973  0.973  0.973
    eigenvectors:
  0.478  0.158  0.364
  0.449  0.002  0.549
  0.073  0.840  0.087
    occupations:
  0.973  0.000  0.000
  0.000  0.973  0.000
  0.000  0.000  0.973
atom   10   Tr[ns(na)] =   5.83896
    eigenvalues: 
  0.973  0.973  0.973
    eigenvectors:
  0.000  0.180  0.820
  1.000  0.000  0.000
  0.000  0.820  0.180
    occupations:
  0.973  0.000  0.000
  0.000  0.973  0.000
  0.000  0.000  0.973
atom   11   Tr[ns(na)] =   5.83896
    eigenvalues: 
  0.973  0.973  0.973
    eigenvectors:
  0.000  0.526  0.474
  0.000  0.474  0.526
  1.000  0.000  0.000
    occupations:
  0.973  0.000  0.000
  0.000  0.973  0.000
  0.000  0.000  0.973
atom   12   Tr[ns(na)] =   5.83896
    eigenvalues: 
  0.973  0.973  0.973
    eigenvectors:
  1.000  0.000  0.000
  0.000  0.213  0.787
  0.000  0.787  0.213
    occupations:
  0.973  0.000  0.000
  0.000  0.973  0.000
  0.000  0.000  0.973
atom   13   Tr[ns(na)] =   5.83912
    eigenvalues: 
  0.973  0.973  0.973
    eigenvectors:
  1.000  0.000  0.000
  0.000  0.686  0.314
  0.000  0.314  0.686
    occupations:
  0.973  0.000  0.000
  0.000  0.973  0.000
  0.000  0.000  0.973
atom   14   Tr[ns(na)] =   5.83912
    eigenvalues: 
  0.973  0.973  0.973
    eigenvectors:
  0.000  0.598  0.402
  0.000  0.402  0.598
  1.000  0.000  0.000
    occupations:
  0.973  0.000  0.000
  0.000  0.973  0.000
  0.000  0.000  0.973
atom   15   Tr[ns(na)] =   5.83912
    eigenvalues: 
  0.973  0.973  0.973
    eigenvectors:
  0.000  0.151  0.849
  1.000  0.000  0.000
  0.000  0.849  0.151
    occupations:
  0.973  0.000  0.000
  0.000  0.973  0.000
  0.000  0.000  0.973
atom   16   Tr[ns(na)] =   5.83930
    eigenvalues: 
  0.973  0.973  0.973
    eigenvectors:
  0.480  0.171  0.349
  0.474  0.018  0.508
  0.046  0.811  0.143
    occupations:
  0.973  0.000  0.000
  0.000  0.973  0.000
  0.000  0.000  0.973
N of occupied +U levels = 119.3433442
 --- exit write_ns ---
 --- in v_hubbard ---
Hubbard energy    0.0000
 -------

     total cpu time spent up to now is       50.9 secs

     total energy              =    -936.60110423 Ry
     Harris-Foulkes estimate   =    -936.60109175 Ry
     estimated scf accuracy    <       0.00000427 Ry

     iteration #  8     ecut=    30.00 Ry     beta=0.30
     Davidson diagonalization with overlap
     ethr =  3.33E-09,  avg # of iterations =  2.0
 --- enter write_ns ---
 LDA+U parameters:
U( 1)     =  0.00000000
alpha( 1) =  0.00000000
U( 2)     =  0.00000000
alpha( 2) =  0.00000000
U( 3)     =  0.00000000
alpha( 3) =  0.00000000
U( 4)     =  0.00000000
alpha( 4) =  0.00000000
atom    1   Tr[ns(na)] =   9.07895
    eigenvalues: 
  0.858  0.858  0.858  0.983  0.983
    eigenvectors:
  0.000  0.000  0.000  0.030  0.970
  0.333  0.029  0.638  0.000  0.000
  0.333  0.603  0.064  0.000  0.000
  0.000  0.000  0.000  0.970  0.030
  0.333  0.368  0.298  0.000  0.000
    occupations:
  0.983  0.000  0.000  0.000  0.000
  0.000  0.858  0.000  0.000  0.000
  0.000  0.000  0.858  0.000  0.000
  0.000  0.000  0.000  0.983  0.000
  0.000  0.000  0.000  0.000  0.858
atom    2   Tr[ns(na)] =   9.07895
    eigenvalues: 
  0.858  0.858  0.858  0.983  0.983
    eigenvectors:
  0.000  0.000  0.000  0.018  0.982
  0.333  0.666  0.001  0.000  0.000
  0.333  0.147  0.519  0.000  0.000
  0.000  0.000  0.000  0.982  0.018
  0.333  0.187  0.480  0.000  0.000
    occupations:
  0.983  0.000  0.000  0.000  0.000
  0.000  0.858  0.000  0.000  0.000
  0.000  0.000  0.858  0.000  0.000
  0.000  0.000  0.000  0.983  0.000
  0.000  0.000  0.000  0.000  0.858
atom    3   Tr[ns(na)] =   9.07895
    eigenvalues: 
  0.858  0.858  0.858  0.983  0.983
    eigenvectors:
  0.000  0.000  0.000  0.006  0.994
  0.333  0.042  0.624  0.000  0.000
  0.333  0.338  0.328  0.000  0.000
  0.000  0.000  0.000  0.994  0.006
  0.333  0.620  0.047  0.000  0.000
    occupations:
  0.983  0.000  0.000  0.000  0.000
  0.000  0.858  0.000  0.000  0.000
  0.000  0.000  0.858  0.000  0.000
  0.000  0.000  0.000  0.983  0.000
  0.000  0.000  0.000  0.000  0.858
atom    4   Tr[ns(na)] =   9.07895
    eigenvalues: 
  0.858  0.858  0.858  0.983  0.983
    eigenvectors:
  0.000  0.000  0.000  0.021  0.979
  0.333  0.443  0.223  0.000  0.000
  0.333  0.006  0.661  0.000  0.000
  0.000  0.000  0.000  0.979  0.021
  0.333  0.551  0.116  0.000  0.000
    occupations:
  0.983  0.000  0.000  0.000  0.000
  0.000  0.858  0.000  0.000  0.000
  0.000  0.000  0.858  0.000  0.000
  0.000  0.000  0.000  0.983  0.000
  0.000  0.000  0.000  0.000  0.858
atom    5   Tr[ns(na)] =   9.07897
    eigenvalues: 
  0.858  0.858  0.858  0.983  0.983
    eigenvectors:
  0.000  0.000  0.000  0.019  0.981
  0.333  0.483  0.184  0.000  0.000
  0.333  0.001  0.666  0.000  0.000
  0.000  0.000  0.000  0.981  0.019
  0.333  0.517  0.150  0.000  0.000
    occupations:
  0.983  0.000  0.000  0.000  0.000
  0.000  0.858  0.000  0.000  0.000
  0.000  0.000  0.858  0.000  0.000
  0.000  0.000  0.000  0.983  0.000
  0.000  0.000  0.000  0.000  0.858
atom    6   Tr[ns(na)] =   9.07897
    eigenvalues: 
  0.858  0.858  0.858  0.983  0.983
    eigenvectors:
  0.000  0.000  0.000  0.012  0.988
  0.333  0.035  0.632  0.000  0.000
  0.333  0.354  0.313  0.000  0.000
  0.000  0.000  0.000  0.988  0.012
  0.333  0.611  0.055  0.000  0.000
    occupations:
  0.983  0.000  0.000  0.000  0.000
  0.000  0.858  0.000  0.000  0.000
  0.000  0.000  0.858  0.000  0.000
  0.000  0.000  0.000  0.983  0.000
  0.000  0.000  0.000  0.000  0.858
atom    7   Tr[ns(na)] =   9.07897
    eigenvalues: 
  0.858  0.858  0.858  0.983  0.983
    eigenvectors:
  0.000  0.000  0.000  0.032  0.968
  0.333  0.662  0.005  0.000  0.000
  0.333  0.119  0.548  0.000  0.000
  0.000  0.000  0.000  0.968  0.032
  0.333  0.219  0.447  0.000  0.000
    occupations:
  0.983  0.000  0.000  0.000  0.000
  0.000  0.858  0.000  0.000  0.000
  0.000  0.000  0.858  0.000  0.000
  0.000  0.000  0.000  0.983  0.000
  0.000  0.000  0.000  0.000  0.858
atom    8   Tr[ns(na)] =   9.07897
    eigenvalues: 
  0.858  0.858  0.858  0.983  0.983
    eigenvectors:
  0.000  0.000  0.000  0.022  0.978
  0.333  0.031  0.636  0.000  0.000
  0.333  0.606  0.061  0.000  0.000
  0.000  0.000  0.000  0.978  0.022
  0.333  0.363  0.303  0.000  0.000
    occupations:
  0.983  0.000  0.000  0.000  0.000
  0.000  0.858  0.000  0.000  0.000
  0.000  0.000  0.858  0.000  0.000
  0.000  0.000  0.000  0.983  0.000
  0.000  0.000  0.000  0.000  0.858
atom    9   Tr[ns(na)] =   5.83899
    eigenvalues: 
  0.973  0.973  0.973
    eigenvectors:
  0.483  0.150  0.366
  0.460  0.006  0.534
  0.057  0.844  0.100
    occupations:
  0.973  0.000  0.000
  0.000  0.973  0.000
  0.000  0.000  0.973
atom   10   Tr[ns(na)] =   5.83900
    eigenvalues: 
  0.973  0.973  0.973
    eigenvectors:
  0.415  0.585  0.000
  0.000  0.000  1.000
  0.585  0.415  0.000
    occupations:
  0.973  0.000  0.000
  0.000  0.973  0.000
  0.000  0.000  0.973
atom   11   Tr[ns(na)] =   5.83900
    eigenvalues: 
  0.973  0.973  0.973
    eigenvectors:
  0.626  0.374  0.000
  0.374  0.626  0.000
  0.000  0.000  1.000
    occupations:
  0.973  0.000  0.000
  0.000  0.973  0.000
  0.000  0.000  0.973
atom   12   Tr[ns(na)] =   5.83900
    eigenvalues: 
  0.973  0.973  0.973
    eigenvectors:
  0.000  0.000  1.000
  0.233  0.767  0.000
  0.767  0.233  0.000
    occupations:
  0.973  0.000  0.000
  0.000  0.973  0.000
  0.000  0.000  0.973
atom   13   Tr[ns(na)] =   5.83897
    eigenvalues: 
  0.973  0.973  0.973
    eigenvectors:
  1.000  0.000  0.000
  0.000  0.146  0.854
  0.000  0.854  0.146
    occupations:
  0.973  0.000  0.000
  0.000  0.973  0.000
  0.000  0.000  0.973
atom   14   Tr[ns(na)] =   5.83897
    eigenvalues: 
  0.973  0.973  0.973
    eigenvectors:
  0.000  0.584  0.416
  0.000  0.416  0.584
  1.000  0.000  0.000
    occupations:
  0.973  0.000  0.000
  0.000  0.973  0.000
  0.000  0.000  0.973
atom   15   Tr[ns(na)] =   5.83897
    eigenvalues: 
  0.973  0.973  0.973
    eigenvectors:
  0.000  0.513  0.487
  1.000  0.000  0.000
  0.000  0.487  0.513
    occupations:
  0.973  0.000  0.000
  0.000  0.973  0.000
  0.000  0.000  0.973
atom   16   Tr[ns(na)] =   5.83895
    eigenvalues: 
  0.973  0.973  0.973
    eigenvectors:
  0.248  0.305  0.447
  0.692  0.007  0.301
  0.060  0.688  0.252
    occupations:
  0.973  0.000  0.000
  0.000  0.973  0.000
  0.000  0.000  0.973
N of occupied +U levels = 119.3435530
 --- exit write_ns ---
 --- in v_hubbard ---
Hubbard energy    0.0000
 -------

     total cpu time spent up to now is       57.2 secs

     total energy              =    -936.60111165 Ry
[...]
  0.000  0.276  0.724
    occupations:
  0.973  0.000  0.000
  0.000  0.973  0.000
  0.000  0.000  0.973
atom   14   Tr[ns(na)] =   5.83898
    eigenvalues: 
  0.973  0.973  0.973
    eigenvectors:
  0.000  0.521  0.479
  0.000  0.479  0.521
  1.000  0.000  0.000
    occupations:
  0.973  0.000  0.000
  0.000  0.973  0.000
  0.000  0.000  0.973
atom   15   Tr[ns(na)] =   5.83898
    eigenvalues: 
  0.973  0.973  0.973
    eigenvectors:
  0.000  0.099  0.901
  1.000  0.000  0.000
  0.000  0.901  0.099
    occupations:
  0.973  0.000  0.000
  0.000  0.973  0.000
  0.000  0.000  0.973
atom   16   Tr[ns(na)] =   5.83888
    eigenvalues: 
  0.973  0.973  0.973
    eigenvectors:
  0.232  0.368  0.400
  0.452  0.043  0.505
  0.316  0.589  0.095
    occupations:
  0.973  0.000  0.000
  0.000  0.973  0.000
  0.000  0.000  0.973
N of occupied +U levels = 119.3444748
 --- exit write_ns ---
 --- in v_hubbard ---
Hubbard energy    0.0643
 -------

     total cpu time spent up to now is       48.0 secs

     End of self-consistent calculation

          k = 0.0000 0.0000 0.0000 (  1357 PWs)   bands (ev):

     0.7712   4.5478   4.5596   4.5596   5.6436   5.6545   5.6545   9.6126
    13.1148  13.1148  13.1148  14.8371  14.8371  14.8371  17.1242  17.1242
    17.1242  17.1608  17.1608  17.1608  21.2316  21.2316  21.2316  21.2495
    21.2495  21.2495  21.7834  21.7834  22.9398  22.9398  22.9398  23.1252
    23.1252  23.1252  23.9530  23.9530  23.9530  25.7772  25.7772  25.7772
    25.9043  25.9043  25.9043  25.9046  25.9046  25.9046  27.6834  27.6834
    27.6834  27.7386  27.7411  27.7411  27.9446  27.9447  27.9447  28.9101
    28.9101  28.9101  29.2950  29.2950  29.2950  29.4081  29.4081  31.2043
    31.2043  31.2043  31.2046  31.2046  31.2046  31.7588  31.7588  31.7588
    38.6482  38.6556  38.6556  38.6556  40.6905

     occupation numbers 
     0.0313   0.0313   0.0313   0.0313   0.0313   0.0313   0.0313   0.0313
     0.0313   0.0313   0.0313   0.0313   0.0313   0.0313   0.0313   0.0313
     0.0313   0.0313   0.0313   0.0313   0.0313   0.0313   0.0313   0.0313
     0.0313   0.0313   0.0313   0.0313   0.0313   0.0313   0.0313   0.0313
     0.0313   0.0313   0.0313   0.0313   0.0313   0.0313   0.0313   0.0313
     0.0313   0.0313   0.0313   0.0313   0.0313   0.0313   0.0313   0.0313
     0.0313   0.0313   0.0313   0.0313   0.0313   0.0313   0.0313   0.0313
     0.0313   0.0313   0.0312   0.0312   0.0312   0.0312   0.0312   0.0000
     0.0000   0.0000   0.0000   0.0000   0.0000   0.0000   0.0000   0.0000
     0.0000   0.0000   0.0000   0.0000   0.0000

          k = 0.0000 0.0000 0.2500 (  1346 PWs)   bands (ev):

     1.1741   3.7449   4.6902   4.6971   5.4601   5.4664   6.0110   8.5808
    13.5678  13.5678  14.4507  15.1150  15.1150  16.3230  16.3230  16.4709
    16.7234  16.7234  17.6996  17.7324  20.3335  20.5914  20.6118  21.5294
    21.5294  21.5681  21.5681  21.9397  22.7562  23.2018  23.2018  23.2748
    23.3588  23.3588  23.5064  23.5064  23.8332  23.9952  23.9952  24.6623
    26.1740  26.1743  26.6057  26.6057  27.6121  27.6122  27.7211  27.8052
    27.8052  27.9060  28.0661  28.0974  28.0987  28.1534  28.3584  28.3584
    28.8420  28.8420  29.0337  29.0337  29.3115  29.3915  29.4066  30.4476
    30.4477  30.4938  30.4938  30.7572  30.7572  30.7711  30.7711  31.5489
    39.2476  39.3975  40.4053  40.4053  40.5628

     occupation numbers 
     0.1875   0.1875   0.1875   0.1875   0.1875   0.1875   0.1875   0.1875
     0.1875   0.1875   0.1875   0.1875   0.1875   0.1875   0.1875   0.1875
     0.1875   0.1875   0.1875   0.1875   0.1875   0.1875   0.1875   0.1875
     0.1875   0.1875   0.1875   0.1875   0.1875   0.1875   0.1875   0.1875
     0.1875   0.1875   0.1875   0.1875   0.1875   0.1875   0.1875   0.1875
     0.1875   0.1875   0.1875   0.1875   0.1875   0.1875   0.1875   0.1875
     0.1875   0.1875   0.1875   0.1875   0.1875   0.1875   0.1875   0.1875
     0.1875   0.1875   0.1875   0.1875   0.1875   0.1874   0.1874   0.0000
     0.0000   0.0000   0.0000   0.0000   0.0000   0.0000   0.0000   0.0000
     0.0000   0.0000   0.0000   0.0000   0.0000

          k = 0.0000 0.0000-0.5000 (  1406 PWs)   bands (ev):

     2.2786   2.2969   5.0411   5.0554   5.0581   5.0610   7.0455   7.0591
    14.7691  14.7691  14.8113  14.8113  15.8345  15.8345  15.8708  15.8708
    17.3399  17.3694  19.1119  19.1119  19.1130  19.1627  19.7039  19.7293
    22.3156  22.3156  22.3304  22.3304  22.3340  22.3343  22.5062  22.5062
    22.5212  22.5212  23.6489  23.6489  23.6490  23.6490  25.7539  25.7552
    26.2638  26.2659  26.8616  26.8620  26.8621  26.8621  27.8129  27.8129
    28.3487  28.3487  28.3487  28.3487  28.7715  28.7715  28.7722  28.7722
    29.0984  29.1007  29.1011  29.1025  29.3513  29.3513  29.5532  29.5532
    29.5545  29.5545  29.6373  29.6373  29.6379  29.6379  30.8288  30.8294
    40.0980  40.1016  40.7989  40.8032  42.9038

     occupation numbers 
     0.0938   0.0938   0.0938   0.0938   0.0938   0.0938   0.0938   0.0938
     0.0938   0.0938   0.0938   0.0938   0.0938   0.0938   0.0938   0.0938
     0.0938   0.0938   0.0938   0.0938   0.0938   0.0938   0.0938   0.0938
     0.0938   0.0938   0.0938   0.0938   0.0938   0.0938   0.0938   0.0938
     0.0938   0.0938   0.0938   0.0938   0.0938   0.0938   0.0938   0.0938
     0.0938   0.0938   0.0938   0.0938   0.0938   0.0938   0.0938   0.0938
     0.0938   0.0938   0.0938   0.0938   0.0938   0.0938   0.0938   0.0938
     0.0937   0.0937   0.0937   0.0937   0.0937   0.0937   0.0896   0.0896
     0.0895   0.0895   0.0747   0.0747   0.0745   0.0745   0.0000   0.0000
     0.0000   0.0000   0.0000   0.0000   0.0000

          k = 0.0000 0.2500 0.2500 (  1364 PWs)   bands (ev):

     1.5566   3.9530   3.9656   4.8574   5.1621   5.7759   5.7858   7.8870
    13.9614  14.8087  14.8117  15.2978  15.5522  16.1440  16.1833  16.6193
    17.2754  17.2861  17.5259  17.5709  19.9781  20.3669  20.5656  20.6483
    20.6506  21.7969  21.8138  21.8687  23.0694  23.0756  23.0792  23.1893
    23.1894  23.2813  23.5174  23.5280  23.7375  24.0564  24.0566  25.3870
    26.1562  26.5435  26.5436  26.6736  26.6743  27.1835  27.4142  27.5179
    27.5179  27.7472  28.0911  28.0911  28.2628  28.3173  28.4997  28.6026
    28.6889  28.9472  29.0054  29.0462  29.1438  29.1440  29.4310  29.9587
    29.9590  30.0781  30.0790  30.1573  30.5301  30.5309  31.2459  31.6606
    40.1267  40.3085  41.1574  41.1577  41.2086

     occupation numbers 
     0.3750   0.3750   0.3750   0.3750   0.3750   0.3750   0.3750   0.3750
     0.3750   0.3750   0.3750   0.3750   0.3750   0.3750   0.3750   0.3750
     0.3750   0.3750   0.3750   0.3750   0.3750   0.3750   0.3750   0.3750
     0.3750   0.3750   0.3750   0.3750   0.3750   0.3750   0.3750   0.3750
     0.3750   0.3750   0.3750   0.3750   0.3750   0.3750   0.3750   0.3750
     0.3750   0.3750   0.3750   0.3750   0.3750   0.3750   0.3750   0.3750
     0.3750   0.3750   0.3750   0.3750   0.3750   0.3750   0.3750   0.3750
     0.3750   0.3750   0.3750   0.3750   0.3750   0.3750   0.3744   0.0023
     0.0022   0.0000   0.0000   0.0000   0.0000   0.0000   0.0000   0.0000
     0.0000   0.0000   0.0000   0.0000   0.0000

          k = 0.0000 0.2500-0.5000 (  1370 PWs)   bands (ev):

     2.5991   2.6138   4.5150   4.5238   5.2819   5.2921   6.6710   6.6821
    14.9650  15.0052  15.7220  15.7336  15.7602  15.7676  16.3690  16.3931
    17.5556  17.5841  18.6090  18.6252  18.8844  18.9112  20.2488  20.2659
    20.6243  20.6404  22.4084  22.4226  22.4825  22.4917  22.5585  22.5744
    23.2570  23.2590  23.7553  23.7556  24.0979  24.0981  25.6962  25.6975
    26.5662  26.5666  26.5733  26.5745  26.7173  26.7174  27.3566  27.3567
    27.3783  27.3787  27.4760  27.4768  27.7285  27.7285  28.2237  28.2243
    28.9842  28.9862  29.0190  29.0197  29.2216  29.2217  29.5121  29.5126
    29.7767  29.7776  29.8816  29.8820  30.8619  30.8624  31.2010  31.2013
    40.9464  40.9504  41.4120  41.4160  42.5737

     occupation numbers 
     0.3750   0.3750   0.3750   0.3750   0.3750   0.3750   0.3750   0.3750
     0.3750   0.3750   0.3750   0.3750   0.3750   0.3750   0.3750   0.3750
     0.3750   0.3750   0.3750   0.3750   0.3750   0.3750   0.3750   0.3750
     0.3750   0.3750   0.3750   0.3750   0.3750   0.3750   0.3750   0.3750
     0.3750   0.3750   0.3750   0.3750   0.3750   0.3750   0.3750   0.3750
     0.3750   0.3750   0.3750   0.3750   0.3750   0.3750   0.3750   0.3750
     0.3750   0.3750   0.3750   0.3750   0.3750   0.3750   0.3750   0.3750
     0.3750   0.3750   0.3750   0.3750   0.3750   0.3750   0.3688   0.3687
     0.1003   0.0991   0.0163   0.0162   0.0000   0.0000   0.0000   0.0000
     0.0000   0.0000   0.0000   0.0000   0.0000

          k = 0.0000-0.5000-0.5000 (  1356 PWs)   bands (ev):

     3.4476   3.4655   3.4740   3.4740   5.8994   5.9178   5.9213   5.9213
    15.3845  15.3845  15.3858  15.4643  17.5002  17.5014  17.5231  17.5231
    17.6676  17.6698  17.7021  17.7021  18.6323  18.6342  18.6611  18.6611
    21.5770  21.5805  21.6032  21.6032  22.5596  22.5596  22.5608  22.5913
    23.7765  23.7768  23.7773  23.7773  25.2235  25.2239  25.2239  25.2245
    26.3029  26.3029  26.3032  26.3035  26.7764  26.7764  26.7765  26.7766
    26.9467  26.9474  26.9477  26.9477  27.2358  27.2365  27.2372  27.2372
    28.8563  28.8588  28.8594  28.8594  29.3813  29.3825  29.3825  29.3827
    30.0193  30.0193  30.0199  30.0208  31.4332  31.4332  31.4339  31.4345
    42.1966  42.1987  42.1987  42.2022  42.3952

     occupation numbers 
     0.0938   0.0938   0.0938   0.0938   0.0938   0.0938   0.0938   0.0938
     0.0938   0.0938   0.0938   0.0938   0.0938   0.0938   0.0938   0.0938
     0.0938   0.0938   0.0938   0.0938   0.0938   0.0938   0.0938   0.0938
     0.0938   0.0938   0.0938   0.0938   0.0938   0.0938   0.0938   0.0938
     0.0938   0.0938   0.0938   0.0938   0.0938   0.0938   0.0938   0.0938
     0.0938   0.0938   0.0938   0.0938   0.0938   0.0938   0.0938   0.0938
     0.0938   0.0938   0.0938   0.0938   0.0938   0.0938   0.0938   0.0938
     0.0938   0.0938   0.0938   0.0938   0.0937   0.0937   0.0937   0.0937
     0.0001   0.0001   0.0001   0.0001   0.0000   0.0000   0.0000   0.0000
     0.0000   0.0000   0.0000   0.0000   0.0000

          k = 0.2500 0.2500 0.2500 (  1382 PWs)   bands (ev):

     1.9196   4.1705   4.1869   4.1869   5.4451   5.4580   5.4580   7.3176
    15.1384  15.1403  15.1403  15.8012  15.8012  16.5845  16.5845  16.6212
    17.1681  17.1936  17.1936  18.2601  20.0937  20.1082  20.1082  20.3781
    20.3781  21.3574  21.7879  21.7879  21.8029  22.5986  22.6069  22.6069
    23.5500  23.5504  23.5504  24.2988  24.2995  24.2995  24.6665  24.6665
    26.5069  26.5069  26.5071  26.9553  26.9554  26.9554  26.9964  26.9979
    26.9979  27.6107  27.6107  27.9981  28.3136  28.3136  28.3410  28.3414
    28.3414  28.9193  28.9193  28.9194  28.9829  29.1712  29.1716  29.1716
    30.1540  30.1545  30.1545  30.8149  30.8149  30.8149  30.9464  30.9464
    40.6884  40.7521  41.5444  41.5448  41.5448

     occupation numbers 
     0.2500   0.2500   0.2500   0.2500   0.2500   0.2500   0.2500   0.2500
     0.2500   0.2500   0.2500   0.2500   0.2500   0.2500   0.2500   0.2500
     0.2500   0.2500   0.2500   0.2500   0.2500   0.2500   0.2500   0.2500
     0.2500   0.2500   0.2500   0.2500   0.2500   0.2500   0.2500   0.2500
     0.2500   0.2500   0.2500   0.2500   0.2500   0.2500   0.2500   0.2500
     0.2500   0.2500   0.2500   0.2500   0.2500   0.2500   0.2500   0.2500
     0.2500   0.2500   0.2500   0.2500   0.2500   0.2500   0.2500   0.2500
     0.2500   0.2500   0.2500   0.2500   0.2500   0.2500   0.2500   0.2500
     0.0000   0.0000   0.0000   0.0000   0.0000   0.0000   0.0000   0.0000
     0.0000   0.0000   0.0000   0.0000   0.0000

          k = 0.2500 0.2500-0.5000 (  1378 PWs)   bands (ev):

     2.9085   2.9202   4.7533   4.7694   4.7741   4.7747   6.2593   6.2680
    15.9378  15.9383  15.9673  15.9750  16.3691  16.3920  16.4338  16.4678
    17.7811  17.8086  18.5659  18.5665  18.5715  18.6134  20.3051  20.3218
    20.3271  20.3418  21.4849  21.5025  22.0681  22.0739  22.0815  22.0845
    23.8532  23.8552  24.1831  24.1832  24.1833  24.1836  25.6902  25.6914
    26.0375  26.0379  26.4153  26.4155  26.4156  26.4157  27.0648  27.0649
    27.1710  27.1714  27.8574  27.8594  27.8601  27.8604  27.8850  27.8858
    28.6957  28.6957  28.6962  28.6964  29.1705  29.1706  29.7056  29.7058
    29.7075  29.7082  30.5946  30.5949  30.5950  30.5952  31.0269  31.0271
    41.2897  41.2936  41.7913  41.7950  42.4708

     occupation numbers 
     0.3750   0.3750   0.3750   0.3750   0.3750   0.3750   0.3750   0.3750
     0.3750   0.3750   0.3750   0.3750   0.3750   0.3750   0.3750   0.3750
     0.3750   0.3750   0.3750   0.3750   0.3750   0.3750   0.3750   0.3750
     0.3750   0.3750   0.3750   0.3750   0.3750   0.3750   0.3750   0.3750
     0.3750   0.3750   0.3750   0.3750   0.3750   0.3750   0.3750   0.3750
     0.3750   0.3750   0.3750   0.3750   0.3750   0.3750   0.3750   0.3750
     0.3750   0.3750   0.3750   0.3750   0.3750   0.3750   0.3750   0.3750
     0.3750   0.3750   0.3750   0.3750   0.3750   0.3750   0.2052   0.2049
     0.2023   0.2011   0.0000   0.0000   0.0000   0.0000   0.0000   0.0000
     0.0000   0.0000   0.0000   0.0000   0.0000

          k = 0.2500-0.5000-0.5000 (  1360 PWs)   bands (ev):

     3.7305   3.7452   3.7529   3.7529   5.4280   5.4413   5.4454   5.4454
    16.2979  16.2979  16.2986  16.3649  17.6726  17.6739  17.6975  17.6975
    18.0015  18.0015  18.0286  18.0286  18.4784  18.4802  18.5083  18.5083
    20.9319  20.9340  20.9569  20.9569  21.4695  21.4699  21.4699  21.5025
    24.2796  24.2798  24.2798  24.2800  25.2345  25.2349  25.2349  25.2355
    25.9381  25.9385  25.9385  25.9386  26.3357  26.3357  26.3358  26.3359
    27.0104  27.0115  27.0118  27.0118  28.3971  28.3976  28.3977  28.3977
    28.4612  28.4630  28.4635  28.4635  29.4182  29.4192  29.4192  29.4195
    30.0497  30.0497  30.0500  30.0501  30.9586  30.9586  30.9591  30.9597
    41.9813  41.9845  41.9845  41.9870  42.1913

     occupation numbers 
     0.1875   0.1875   0.1875   0.1875   0.1875   0.1875   0.1875   0.1875
     0.1875   0.1875   0.1875   0.1875   0.1875   0.1875   0.1875   0.1875
     0.1875   0.1875   0.1875   0.1875   0.1875   0.1875   0.1875   0.1875
     0.1875   0.1875   0.1875   0.1875   0.1875   0.1875   0.1875   0.1875
     0.1875   0.1875   0.1875   0.1875   0.1875   0.1875   0.1875   0.1875
     0.1875   0.1875   0.1875   0.1875   0.1875   0.1875   0.1875   0.1875
     0.1875   0.1875   0.1875   0.1875   0.1875   0.1875   0.1875   0.1875
     0.1875   0.1875   0.1875   0.1875   0.1873   0.1873   0.1873   0.1873
     0.0001   0.0001   0.0001   0.0001   0.0000   0.0000   0.0000   0.0000
     0.0000   0.0000   0.0000   0.0000   0.0000

          k =-0.5000-0.5000-0.5000 (  1376 PWs)   bands (ev):

     4.4709   4.5031   4.5031   4.5031   4.5041   4.5154   4.5154   4.5154
    18.0833  18.0833  18.0857  18.0857  18.0857  18.0865  18.0865  18.0865
    18.0868  18.0868  18.0868  18.0872  18.0872  18.1556  18.1556  18.1556
    20.0624  20.0683  20.0683  20.0683  20.0695  20.1032  20.1032  20.1032
    25.3917  25.3917  25.3917  25.3917  25.3917  25.3917  25.3920  25.3920
    25.3926  25.3926  25.3926  25.3926  25.3926  25.3927  25.3927  25.3927
    27.6595  27.6631  27.6631  27.6631  27.6632  27.6640  27.6640  27.6640
    29.8054  29.8054  29.8054  29.8055  29.8055  29.8061  29.8061  29.8061
    29.8062  29.8062  29.8062  29.8063  29.8063  29.8063  29.8067  29.8067
    41.9703  41.9713  41.9752  41.9752  41.9752

     occupation numbers 
     0.0313   0.0313   0.0313   0.0313   0.0313   0.0313   0.0313   0.0313
     0.0313   0.0313   0.0313   0.0313   0.0313   0.0313   0.0313   0.0313
     0.0313   0.0313   0.0313   0.0313   0.0313   0.0313   0.0313   0.0313
     0.0313   0.0313   0.0313   0.0313   0.0313   0.0313   0.0313   0.0313
     0.0313   0.0313   0.0313   0.0313   0.0313   0.0313   0.0313   0.0313
     0.0313   0.0313   0.0313   0.0313   0.0313   0.0313   0.0313   0.0313
     0.0313   0.0313   0.0313   0.0313   0.0313   0.0313   0.0313   0.0313
     0.0056   0.0056   0.0056   0.0056   0.0056   0.0055   0.0055   0.0055
     0.0055   0.0055   0.0055   0.0055   0.0055   0.0055   0.0055   0.0055
     0.0000   0.0000   0.0000   0.0000   0.0000

     the Fermi energy is    29.7170 ev

!    total energy              =    -936.53676095 Ry
     Harris-Foulkes estimate   =    -936.53676095 Ry
     estimated scf accuracy    <          3.8E-09 Ry

     The total energy is the sum of the following terms:

     one-electron contribution =     252.29305008 Ry
     hartree contribution      =      94.79462564 Ry
     xc contribution           =    -307.26532576 Ry
     ewald contribution        =    -976.41473137 Ry
     Hubbard energy            =       0.06434168 Ry
     smearing contrib. (-TS)   =      -0.00872123 Ry

     convergence has been achieved in   7 iterations

     init_run     :      3.04s CPU      3.27s WALL (       1 calls)
     electrons    :     43.39s CPU     44.15s WALL (       1 calls)

     Called by init_run:
     wfcinit      :      0.25s CPU      0.40s WALL (       1 calls)
     potinit      :      0.08s CPU      0.10s WALL (       1 calls)

     Called by electrons:
     c_bands      :     32.70s CPU     33.04s WALL (       7 calls)
     sum_band     :      6.29s CPU      6.35s WALL (       7 calls)
     v_of_rho     :      0.44s CPU      0.44s WALL (       8 calls)
     v_h          :      0.02s CPU      0.02s WALL (       8 calls)
     v_xc         :      0.42s CPU      0.42s WALL (       8 calls)
     newd         :      4.40s CPU      4.45s WALL (       8 calls)
     mix_rho      :      0.04s CPU      0.04s WALL (       7 calls)

     Called by c_bands:
     init_us_2    :      0.20s CPU      0.20s WALL (     150 calls)
     cegterg      :     31.98s CPU     32.29s WALL (      70 calls)

     Called by sum_band:
     sum_band:bec :      0.15s CPU      0.16s WALL (      70 calls)
     addusdens    :      3.07s CPU      3.08s WALL (       7 calls)

     Called by *egterg:
     h_psi        :     12.85s CPU     13.03s WALL (     304 calls)
     s_psi        :      1.58s CPU      1.59s WALL (     314 calls)
     g_psi        :      0.09s CPU      0.08s WALL (     234 calls)
     cdiaghg      :     12.49s CPU     12.51s WALL (     294 calls)
     cegterg:over :      1.96s CPU      2.01s WALL (     234 calls)
     cegterg:upda :      0.91s CPU      0.93s WALL (     234 calls)
     cegterg:last :      0.63s CPU      0.64s WALL (      76 calls)

     Called by h_psi:
     h_psi:vloc   :      7.92s CPU      8.05s WALL (     304 calls)
     h_psi:vnl    :      3.21s CPU      3.24s WALL (     304 calls)
     add_vuspsi   :      1.50s CPU      1.51s WALL (     304 calls)
     vhpsi        :      1.69s CPU      1.72s WALL (     304 calls)

     General routines
     calbec       :      3.73s CPU      3.79s WALL (     758 calls)
     fft          :      0.41s CPU      0.42s WALL (     123 calls)
     ffts         :      0.01s CPU      0.01s WALL (      15 calls)
     fftw         :      8.38s CPU      8.60s WALL (   30884 calls)
     interpolate  :      0.05s CPU      0.05s WALL (      15 calls)
     davcio       :      0.00s CPU      0.17s WALL (     170 calls)

     Parallel routines
     fft_scatter  :      2.76s CPU      3.00s WALL (   31022 calls)
     Hubbard U routines
     new_ns       :      0.30s CPU      0.33s WALL (       7 calls)
     vhpsi        :      1.69s CPU      1.72s WALL (     304 calls)

     PWSCF        :    46.90s CPU        48.02s WALL


   This run was terminated on:  14: 5:39   3Nov2012            

=------------------------------------------------------------------------------=
   JOB DONE.
=------------------------------------------------------------------------------=
 
Job Ended on n18 at Sat Nov  3 14:05:40 EDT 2012
 
