   JOB DONE.
=------------------------------------------------------------------------------=

     Program PWSCF v.5.0.1 starts on 13Nov2012 at 12:11:20 

     This program is part of the open-source Quantum ESPRESSO suite
     for quantum simulation of materials; please cite
         "P. Giannozzi et al., J. Phys.:Condens. Matter 21 395502 (2009);
          URL http://www.quantum-espresso.org", 
     in publications or presentations arising from this work. More details at
     http://www.quantum-espresso.org/quote.php

     Parallel version (MPI), running on     2 processors
     R & G space division:  proc/pool =    2

     Current dimensions of program PWSCF are:
     Max number of different atomic species (ntypx) = 10
     Max number of k-points (npk) =  40000
     Max angular momentum in pseudopotentials (lmaxx) =  3
     Reading input from CoLaO_U0_a-10.in
               file Co.pbe-nd-rrkjus.UPF: wavefunction(s)  4S 3D renormalized
               file Co.pbe-nd-rrkjus.UPF: wavefunction(s)  4S 3D renormalized
               file O.pbe-rrkjus.UPF: wavefunction(s)  2S renormalized

     Subspace diagonalization in iterative solution of the eigenvalue problem:
     a serial algorithm will be used


     Parallelization info
     --------------------
     sticks:   dense  smooth     PW     G-vecs:    dense   smooth      PW
     Min        1112     444    131                34808     8786    1448
     Max        1113     445    132                34809     8787    1449
     Sum        2225     889    263                69617    17573    2897


     Title: 
     GGA + U, U = 1D-40, alpha = -0.100                                         


     bravais-lattice index     =            5
     lattice parameter (alat)  =      10.3292  a.u.
     unit-cell volume          =     793.0599 (a.u.)^3
     number of atoms/cell      =           10
     number of atomic types    =            4
     number of electrons       =        76.00
     number of Kohn-Sham states=           46
     kinetic-energy cutoff     =      30.0000  Ry
     charge density cutoff     =     300.0000  Ry
     convergence threshold     =      1.0E-08
     mixing beta               =       0.2000
     number of iterations used =            8  plain     mixing
     Exchange-correlation      =  SLA  PW   PBE  PBE ( 1 4 3 4 0)
     EXX-fraction              =        0.00

     celldm(1)=  10.329242  celldm(2)=   0.000000  celldm(3)=   0.000000
     celldm(4)=   0.488100  celldm(5)=   0.000000  celldm(6)=   0.000000

     crystal axes: (cart. coord. in units of alat)
               a(1) = (   0.505915  -0.292090   0.811624 )  
               a(2) = (   0.000000   0.584180   0.811624 )  
               a(3) = (  -0.505915  -0.292090   0.811624 )  

     reciprocal axes: (cart. coord. in units 2 pi/alat)
               b(1) = (  0.988308 -0.570600  0.410699 )  
               b(2) = (  0.000000  1.141200  0.410699 )  
               b(3) = ( -0.988308 -0.570600  0.410699 )  


     PseudoPot. # 1 for Co read from file:
     /home/mcurnan/dft-course/Project1/example_LaCoO3/Co.pbe-nd-rrkjus.UPF
     MD5 check sum: 3e47a84addf5e975e0edeaeee2a73f59
     Pseudo is Ultrasoft + core correction, Zval =  9.0
     Generated by new atomic code, or converted to UPF format
     Using radial grid of  961 points,  6 beta functions with: 
                l(1) =   0
                l(2) =   0
                l(3) =   1
                l(4) =   1
                l(5) =   2
                l(6) =   2
     Q(r) pseudized with 0 coefficients 


     PseudoPot. # 2 for Co read from file:
     /home/mcurnan/dft-course/Project1/example_LaCoO3/Co.pbe-nd-rrkjus.UPF
     MD5 check sum: 3e47a84addf5e975e0edeaeee2a73f59
     Pseudo is Ultrasoft + core correction, Zval =  9.0
     Generated by new atomic code, or converted to UPF format
     Using radial grid of  961 points,  6 beta functions with: 
                l(1) =   0
                l(2) =   0
                l(3) =   1
                l(4) =   1
                l(5) =   2
                l(6) =   2
     Q(r) pseudized with 0 coefficients 


     PseudoPot. # 3 for La read from file:
     /home/mcurnan/dft-course/Project1/example_LaCoO3/La.pbe-nsp-van.UPF
     MD5 check sum: b2f11743f52dde65f77d1302becd7929
     Pseudo is Ultrasoft + core correction, Zval = 11.0
     Generated by new atomic code, or converted to UPF format
     Using radial grid of  907 points,  6 beta functions with: 
                l(1) =   0
                l(2) =   0
                l(3) =   1
                l(4) =   1
                l(5) =   2
                l(6) =   2
     Q(r) pseudized with  6 coefficients,  rinner =    1.200   1.200   1.200
                                                       1.200   1.200

     PseudoPot. # 4 for O  read from file:
     /home/mcurnan/dft-course/Project1/example_LaCoO3/O.pbe-rrkjus.UPF
     MD5 check sum: 390ba29e75625707450f3bd3f0eb6be9
     Pseudo is Ultrasoft, Zval =  6.0
     Generated by new atomic code, or converted to UPF format
     Using radial grid of 1269 points,  4 beta functions with: 
                l(1) =   0
                l(2) =   0
                l(3) =   1
                l(4) =   1
     Q(r) pseudized with 0 coefficients 


     atomic species   valence    mass     pseudopotential
        Co1            9.00     1.00000     Co( 1.00)
        Co2            9.00     1.00000     Co( 1.00)
        La1           11.00     1.00000     La( 1.00)
        O1             6.00     1.00000     O ( 1.00)

     Starting magnetic structure 
     atomic species   magnetization
        Co1          1.000
        Co2          1.000
        La1          0.000
        O1           0.000
 -----
     simplified LDA+U calculation, Hubbard_lmax = 2
     atomic species  L   Hubbard U  Hubbard alpha
        Co1          2    0.000000   -0.100000
        Co2          2    0.000000    0.000000
        La1          2    0.000000    0.000000
        O1           1    0.000000    0.000000
 -----

      6 Sym. Ops., with inversion, found


                                    s                        frac. trans.

      isym =  1     identity                                     

 cryst.   s( 1) = (     1          0          0      )
                  (     0          1          0      )
                  (     0          0          1      )

 cart.    s( 1) = (  1.0000000  0.0000000  0.0000000 )
                  (  0.0000000  1.0000000  0.0000000 )
                  (  0.0000000  0.0000000  1.0000000 )


      isym =  2     120 deg rotation - cryst. axis [0,0,1]       

 cryst.   s( 2) = (     0          1          0      )
                  (     0          0          1      )
                  (     1          0          0      )

 cart.    s( 2) = ( -0.5000000 -0.8660254  0.0000000 )
                  (  0.8660254 -0.5000000  0.0000000 )
                  (  0.0000000  0.0000000  1.0000000 )


      isym =  3     120 deg rotation - cryst. axis [0,0,-1]      

 cryst.   s( 3) = (     0          0          1      )
                  (     1          0          0      )
                  (     0          1          0      )

 cart.    s( 3) = ( -0.5000000  0.8660254  0.0000000 )
                  ( -0.8660254 -0.5000000  0.0000000 )
                  (  0.0000000  0.0000000  1.0000000 )


      isym =  4     inversion                                    

 cryst.   s( 4) = (    -1          0          0      )
                  (     0         -1          0      )
                  (     0          0         -1      )

 cart.    s( 4) = ( -1.0000000  0.0000000  0.0000000 )
                  (  0.0000000 -1.0000000  0.0000000 )
                  (  0.0000000  0.0000000 -1.0000000 )


      isym =  5     inv. 180 deg rotation - cart. axis [0,1,0]   

 cryst.   s( 5) = (     0         -1          0      )
                  (     0          0         -1      )
                  (    -1          0          0      )

 cart.    s( 5) = (  0.5000000  0.8660254  0.0000000 )
                  ( -0.8660254  0.5000000  0.0000000 )
                  (  0.0000000  0.0000000 -1.0000000 )


      isym =  6     inv. 180 deg rotation - cart. axis [1,0,0]   

 cryst.   s( 6) = (     0          0         -1      )
                  (    -1          0          0      )
                  (     0         -1          0      )

 cart.    s( 6) = (  0.5000000 -0.8660254  0.0000000 )
                  (  0.8660254  0.5000000  0.0000000 )
                  (  0.0000000  0.0000000 -1.0000000 )


     point group S_6 (-3)   
     there are  6 classes
     the character table:

       E     C3    C3^2  i     S6^5  S6   
A_g    1.00  1.00  1.00  1.00  1.00  1.00
E_g    1.00 -0.50 -0.50  1.00 -0.50 -0.50
E_g*   1.00 -0.50 -0.50  1.00 -0.50 -0.50
A_u    1.00  1.00  1.00 -1.00 -1.00 -1.00
E_u    1.00 -0.50 -0.50 -1.00  0.50  0.50
E_u*   1.00 -0.50 -0.50 -1.00  0.50  0.50
     imaginary part
A_g    0.00  0.00  0.00  0.00  0.00  0.00
E_g    0.00  0.87 -0.87  0.00  0.87 -0.87
E_g*   0.00 -0.87  0.87  0.00 -0.87  0.87
A_u    0.00  0.00  0.00  0.00  0.00  0.00
E_u    0.00  0.87 -0.87  0.00 -0.87  0.87
E_u*   0.00 -0.87  0.87  0.00  0.87 -0.87

     the symmetry operations in each class:
     E        1
     C3       2
     C3^2     3
     i        4
     S6^5     5
     S6       6

   Cartesian axes

     site n.     atom                  positions (alat units)
         1           Co1 tau(   1) = (   0.0000000   0.0000000   0.0000000  )
         2           Co2 tau(   2) = (   0.0000000   0.0000000   1.2174358  )
         3           La1 tau(   3) = (   0.0000000   0.0000000   0.6087179  )
         4           La1 tau(   4) = (   0.0000000   0.0000000   1.8261537  )
         5           O1  tau(   5) = (  -0.2839701  -0.0933228   1.0141240  )
         6           O1  tau(   6) = (   0.0611651   0.2925867   1.0141240  )
         7           O1  tau(   7) = (   0.2228050  -0.1992639   1.0141240  )
         8           O1  tau(   8) = (  -0.0611651  -0.2925867   1.4207476  )
         9           O1  tau(   9) = (   0.2839701   0.0933228   1.4207476  )
        10           O1  tau(  10) = (  -0.2228050   0.1992639   1.4207476  )

   Crystallographic axes

     site n.     atom                  positions (cryst. coord.)
         1           Co1 tau(   1) = (  0.0000000  0.0000000  0.0000000  )
         2           Co2 tau(   2) = (  0.5000000  0.5000000  0.5000000  )
         3           La1 tau(   3) = (  0.2500000  0.2500000  0.2500000  )
         4           La1 tau(   4) = (  0.7500000  0.7500000  0.7500000  )
         5           O1  tau(   5) = (  0.1891000  0.3100000  0.7504000  )
         6           O1  tau(   6) = (  0.3100000  0.7504000  0.1891000  )
         7           O1  tau(   7) = (  0.7504000  0.1891000  0.3100000  )
         8           O1  tau(   8) = (  0.6900000  0.2496000  0.8109000  )
         9           O1  tau(   9) = (  0.8109000  0.6900000  0.2496000  )
        10           O1  tau(  10) = (  0.2496000  0.8109000  0.6900000  )

     number of k points=    28  gaussian smearing, width (Ry)=  0.0300
                       cart. coord. in units 2pi/alat
        k(    1) = (   0.0000000   0.0000000   0.0000000), wk =   0.0156250
        k(    2) = (  -0.2470771  -0.1426500   0.1026748), wk =   0.0937500
        k(    3) = (   0.4941541   0.2853000  -0.2053496), wk =   0.0468750
        k(    4) = (  -0.2470771   0.1426500   0.2053496), wk =   0.0937500
        k(    5) = (   0.4941541   0.5706001  -0.1026748), wk =   0.0937500
        k(    6) = (   0.2470771   0.4279500   0.0000000), wk =   0.0937500
        k(    7) = (   0.4941541  -0.2853000  -0.4106993), wk =   0.0468750
        k(    8) = (   0.0000000   0.0000000   0.3080244), wk =   0.0312500
        k(    9) = (   0.7412312   0.4279500   0.0000000), wk =   0.0937500
        k(   10) = (   0.4941541   0.2853000   0.1026748), wk =   0.0937500
        k(   11) = (   0.7412312  -0.4279500  -0.3080244), wk =   0.0937500
        k(   12) = (   0.4941541  -0.5706001  -0.2053496), wk =   0.0937500
        k(   13) = (   0.0000000   0.0000000  -0.6160489), wk =   0.0156250
        k(   14) = (   0.4941541  -0.5706001   0.1026748), wk =   0.0937500
        k(   15) = (   0.0000000   0.0000000   0.0000000), wk =   0.0156250
        k(   16) = (  -0.2470771  -0.1426500   0.1026748), wk =   0.0937500
        k(   17) = (   0.4941541   0.2853000  -0.2053496), wk =   0.0468750
        k(   18) = (  -0.2470771   0.1426500   0.2053496), wk =   0.0937500
        k(   19) = (   0.4941541   0.5706001  -0.1026748), wk =   0.0937500
        k(   20) = (   0.2470771   0.4279500   0.0000000), wk =   0.0937500
        k(   21) = (   0.4941541  -0.2853000  -0.4106993), wk =   0.0468750
        k(   22) = (   0.0000000   0.0000000   0.3080244), wk =   0.0312500
        k(   23) = (   0.7412312   0.4279500   0.0000000), wk =   0.0937500
        k(   24) = (   0.4941541   0.2853000   0.1026748), wk =   0.0937500
        k(   25) = (   0.7412312  -0.4279500  -0.3080244), wk =   0.0937500
        k(   26) = (   0.4941541  -0.5706001  -0.2053496), wk =   0.0937500
        k(   27) = (   0.0000000   0.0000000  -0.6160489), wk =   0.0156250
        k(   28) = (   0.4941541  -0.5706001   0.1026748), wk =   0.0937500

                       cryst. coord.
        k(    1) = (   0.0000000   0.0000000   0.0000000), wk =   0.0156250
        k(    2) = (   0.0000000   0.0000000   0.2500000), wk =   0.0937500
        k(    3) = (   0.0000000   0.0000000  -0.5000000), wk =   0.0468750
        k(    4) = (   0.0000000   0.2500000   0.2500000), wk =   0.0937500
        k(    5) = (   0.0000000   0.2500000  -0.5000000), wk =   0.0937500
        k(    6) = (   0.0000000   0.2500000  -0.2500000), wk =   0.0937500
        k(    7) = (   0.0000000  -0.5000000  -0.5000000), wk =   0.0468750
        k(    8) = (   0.2500000   0.2500000   0.2500000), wk =   0.0312500
        k(    9) = (   0.2500000   0.2500000  -0.5000000), wk =   0.0937500
        k(   10) = (   0.2500000   0.2500000  -0.2500000), wk =   0.0937500
        k(   11) = (   0.2500000  -0.5000000  -0.5000000), wk =   0.0937500
        k(   12) = (   0.2500000  -0.5000000  -0.2500000), wk =   0.0937500
        k(   13) = (  -0.5000000  -0.5000000  -0.5000000), wk =   0.0156250
        k(   14) = (   0.5000000  -0.2500000   0.0000000), wk =   0.0937500
        k(   15) = (   0.0000000   0.0000000   0.0000000), wk =   0.0156250
        k(   16) = (   0.0000000   0.0000000   0.2500000), wk =   0.0937500
        k(   17) = (   0.0000000   0.0000000  -0.5000000), wk =   0.0468750
        k(   18) = (   0.0000000   0.2500000   0.2500000), wk =   0.0937500
        k(   19) = (   0.0000000   0.2500000  -0.5000000), wk =   0.0937500
        k(   20) = (   0.0000000   0.2500000  -0.2500000), wk =   0.0937500
        k(   21) = (   0.0000000  -0.5000000  -0.5000000), wk =   0.0468750
        k(   22) = (   0.2500000   0.2500000   0.2500000), wk =   0.0312500
        k(   23) = (   0.2500000   0.2500000  -0.5000000), wk =   0.0937500
        k(   24) = (   0.2500000   0.2500000  -0.2500000), wk =   0.0937500
        k(   25) = (   0.2500000  -0.5000000  -0.5000000), wk =   0.0937500
        k(   26) = (   0.2500000  -0.5000000  -0.2500000), wk =   0.0937500
        k(   27) = (  -0.5000000  -0.5000000  -0.5000000), wk =   0.0156250
        k(   28) = (   0.5000000  -0.2500000   0.0000000), wk =   0.0937500

     Dense  grid:    69617 G-vectors     FFT dimensions: (  60,  60,  60)

     Smooth grid:    17573 G-vectors     FFT dimensions: (  40,  40,  40)

     Largest allocated arrays     est. size (Mb)     dimensions
        Kohn-Sham Wavefunctions         0.78 Mb     (   1117,   46)
        Atomic wavefunctions            1.06 Mb     (   1117,   62)
        NL pseudopotentials             2.05 Mb     (   1117,  120)
        Each V/rho on FFT grid          3.30 Mb     ( 108000,   2)
        Each G-vector array             0.27 Mb     (  34808)
        G-vector shells                 0.04 Mb     (   4682)
     Largest temporary arrays     est. size (Mb)     dimensions
        Auxiliary wavefunctions         3.14 Mb     (   1117,  184)
        Each subspace H/S matrix        0.52 Mb     ( 184, 184)
        Each <psi_i|beta_j> matrix      0.08 Mb     (    120,   46)
        Arrays for rho mixing          13.18 Mb     ( 108000,   8)

     Check: negative/imaginary core charge=   -0.000028    0.000000

     The initial density is read from file :
     /home/mcurnan/dft-course/Project1/example_LaCoO3/0/Co/alpha/CoLaO_U0.save/charge-density.dat

 --- in v_hubbard ---
Hubbard energy   -0.0584
 -------
     Number of +U iterations with fixed ns =  0
     Starting occupations:
 --- enter write_ns ---
 LDA+U parameters:
U( 1)     =  0.00000000
alpha( 1) = -0.10000000
U( 2)     =  0.00000000
alpha( 2) =  0.00000000
U( 3)     =  0.00000000
alpha( 3) =  0.00000000
U( 4)     =  0.00000000
alpha( 4) =  0.00000000
atom    1   Tr[ns(na)] (up, down, total) =   4.56612  3.37352  7.93963
   spin  1
    eigenvalues: 
  0.785  0.785  0.999  0.999  0.999
    eigenvectors:
  0.000  0.000  0.000  0.000  1.000
  0.422  0.224  0.056  0.298  0.000
  0.224  0.422  0.298  0.056  0.000
  0.346  0.008  0.556  0.090  0.000
  0.008  0.346  0.090  0.556  0.000
    occupations:
  0.999  0.000  0.000  0.000  0.000
  0.000  0.861  0.000 -0.073  0.072
  0.000  0.000  0.861  0.072  0.073
  0.000 -0.073  0.072  0.923  0.000
  0.000  0.072  0.073  0.000  0.923
   spin  2
    eigenvalues: 
  0.474  0.474  0.773  0.826  0.826
    eigenvectors:
  0.000  0.000  1.000  0.000  0.000
  0.276  0.363  0.000  0.034  0.327
  0.363  0.276  0.000  0.327  0.034
  0.279  0.082  0.000  0.476  0.163
  0.082  0.279  0.000  0.163  0.476
    occupations:
  0.773  0.000  0.000  0.000  0.000
  0.000  0.601  0.000 -0.037  0.165
  0.000  0.000  0.601  0.165  0.037
  0.000 -0.037  0.165  0.699  0.000
  0.000  0.165  0.037  0.000  0.699
atomic mag. moment =     1.192598
atom    2   Tr[ns(na)] (up, down, total) =   4.67274  3.22494  7.89767
   spin  1
    eigenvalues: 
  0.838  0.838  0.999  0.999  0.999
    eigenvectors:
  0.000  0.000  0.000  0.000  1.000
  0.643  0.003  0.325  0.029  0.000
  0.003  0.643  0.029  0.325  0.000
  0.153  0.201  0.499  0.147  0.000
  0.201  0.153  0.147  0.499  0.000
    occupations:
  0.999  0.000  0.000  0.000  0.000
  0.000  0.895  0.000  0.054  0.054
  0.000  0.000  0.895  0.054 -0.054
  0.000  0.054  0.054  0.942  0.000
  0.000  0.054 -0.054  0.000  0.942
   spin  2
    eigenvalues: 
  0.459  0.459  0.730  0.788  0.788
    eigenvectors:
  0.000  0.000  1.000  0.000  0.000
  0.510  0.125  0.000  0.190  0.175
  0.125  0.510  0.000  0.175  0.190
  0.019  0.346  0.000  0.447  0.189
  0.346  0.019  0.000  0.189  0.447
    occupations:
  0.730  0.000  0.000  0.000  0.000
  0.000  0.579  0.000  0.036  0.154
  0.000  0.000  0.579  0.154 -0.036
  0.000  0.036  0.154  0.668  0.000
  0.000  0.154 -0.036  0.000  0.668
atomic mag. moment =     1.447801
atom    3   Tr[ns(na)] (up, down, total) =   1.91460  1.90025  3.81485
   spin  1
    eigenvalues: 
  0.357  0.357  0.387  0.407  0.407
    eigenvectors:
  0.000  0.000  1.000  0.000  0.000
  0.786  0.138  0.000  0.011  0.065
  0.138  0.786  0.000  0.065  0.011
  0.012  0.064  0.000  0.785  0.139
  0.064  0.012  0.000  0.139  0.785
    occupations:
  0.387  0.000  0.000  0.000  0.000
  0.000  0.361  0.000  0.000  0.013
  0.000  0.000  0.361  0.013  0.000
  0.000  0.000  0.013  0.403  0.000
  0.000  0.013  0.000  0.000  0.403
   spin  2
    eigenvalues: 
  0.353  0.353  0.387  0.404  0.404
    eigenvectors:
  0.000  0.000  1.000  0.000  0.000
  0.766  0.145  0.000  0.013  0.077
  0.145  0.766  0.000  0.077  0.013
  0.015  0.075  0.000  0.767  0.143
  0.075  0.015  0.000  0.143  0.767
    occupations:
  0.387  0.000  0.000  0.000  0.000
  0.000  0.358  0.000  0.000  0.015
  0.000  0.000  0.358  0.015  0.000
  0.000  0.000  0.015  0.399  0.000
  0.000  0.015  0.000  0.000  0.399
atomic mag. moment =     0.014350
atom    4   Tr[ns(na)] (up, down, total) =   1.91460  1.90025  3.81485
   spin  1
    eigenvalues: 
  0.357  0.357  0.387  0.407  0.407
    eigenvectors:
  0.000  0.000  1.000  0.000  0.000
  0.786  0.138  0.000  0.011  0.065
  0.138  0.786  0.000  0.065  0.011
  0.012  0.064  0.000  0.785  0.139
  0.064  0.012  0.000  0.139  0.785
    occupations:
  0.387  0.000  0.000  0.000  0.000
  0.000  0.361  0.000  0.000  0.013
  0.000  0.000  0.361  0.013  0.000
  0.000  0.000  0.013  0.403  0.000
  0.000  0.013  0.000  0.000  0.403
   spin  2
    eigenvalues: 
  0.353  0.353  0.387  0.404  0.404
    eigenvectors:
  0.000  0.000  1.000  0.000  0.000
  0.766  0.145  0.000  0.013  0.077
  0.145  0.766  0.000  0.077  0.013
  0.015  0.074  0.000  0.767  0.143
  0.074  0.015  0.000  0.143  0.767
    occupations:
  0.387  0.000  0.000  0.000  0.000
  0.000  0.358  0.000  0.000  0.015
  0.000  0.000  0.358  0.015  0.000
  0.000  0.000  0.015  0.399  0.000
  0.000  0.015  0.000  0.000  0.399
atomic mag. moment =     0.014350
atom    5   Tr[ns(na)] (up, down, total) =   2.74224  2.70309  5.44533
   spin  1
    eigenvalues: 
  0.844  0.947  0.951
    eigenvectors:
  0.337  0.000  0.663
  0.487  0.256  0.257
  0.176  0.744  0.080
    occupations:
  0.915  0.044  0.026
  0.044  0.898 -0.030
  0.026 -0.030  0.929
   spin  2
    eigenvalues: 
  0.864  0.920  0.920
    eigenvectors:
  0.333  0.051  0.615
  0.486  0.406  0.108
  0.181  0.543  0.276
    occupations:
  0.901  0.022  0.014
  0.022  0.893 -0.016
  0.014 -0.016  0.910
atomic mag. moment =     0.039149
atom    6   Tr[ns(na)] (up, down, total) =   2.74224  2.70309  5.44533
   spin  1
    eigenvalues: 
  0.844  0.947  0.951
    eigenvectors:
  0.337  0.000  0.663
  0.000  1.000  0.000
  0.663  0.000  0.337
    occupations:
  0.915  0.001 -0.051
  0.001  0.947  0.001
 -0.051  0.001  0.880
   spin  2
    eigenvalues: 
  0.864  0.920  0.920
    eigenvectors:
  0.333  0.051  0.615
  0.000  0.915  0.085
  0.666  0.034  0.300
    occupations:
  0.901  0.001 -0.026
  0.001  0.920  0.001
 -0.026  0.001  0.883
atomic mag. moment =     0.039149
atom    7   Tr[ns(na)] (up, down, total) =   2.74224  2.70309  5.44533
   spin  1
    eigenvalues: 
  0.844  0.947  0.951
    eigenvectors:
  0.337  0.000  0.663
  0.508  0.244  0.248
  0.155  0.756  0.089
    occupations:
  0.915 -0.044  0.025
 -0.044  0.896  0.029
  0.025  0.029  0.932
   spin  2
    eigenvalues: 
  0.864  0.920  0.920
    eigenvectors:
  0.333  0.051  0.615
  0.514  0.102  0.384
  0.153  0.846  0.000
    occupations:
  0.901 -0.023  0.013
 -0.023  0.891  0.016
  0.013  0.016  0.911
atomic mag. moment =     0.039149
atom    8   Tr[ns(na)] (up, down, total) =   2.74224  2.70309  5.44533
   spin  1
    eigenvalues: 
  0.844  0.947  0.951
    eigenvectors:
  0.337  0.000  0.663
  0.000  1.000  0.000
  0.663  0.000  0.337
    occupations:
  0.915  0.001 -0.051
  0.001  0.947  0.001
 -0.051  0.001  0.880
   spin  2
    eigenvalues: 
  0.864  0.920  0.920
    eigenvectors:
  0.333  0.051  0.615
  0.000  0.915  0.085
  0.666  0.034  0.300
    occupations:
  0.901  0.001 -0.026
  0.001  0.920  0.001
 -0.026  0.001  0.883
atomic mag. moment =     0.039149
atom    9   Tr[ns(na)] (up, down, total) =   2.74224  2.70309  5.44533
   spin  1
    eigenvalues: 
  0.844  0.947  0.951
    eigenvectors:
  0.337  0.000  0.663
  0.487  0.256  0.257
  0.176  0.744  0.080
    occupations:
  0.915  0.044  0.026
  0.044  0.898 -0.030
  0.026 -0.030  0.929
   spin  2
    eigenvalues: 
  0.864  0.920  0.920
    eigenvectors:
  0.333  0.051  0.615
  0.486  0.406  0.108
  0.181  0.543  0.276
    occupations:
  0.901  0.022  0.014
  0.022  0.893 -0.016
  0.014 -0.016  0.910
atomic mag. moment =     0.039149
atom   10   Tr[ns(na)] (up, down, total) =   2.74224  2.70309  5.44533
   spin  1
    eigenvalues: 
  0.844  0.947  0.951
    eigenvectors:
  0.337  0.000  0.663
  0.508  0.244  0.248
  0.155  0.756  0.089
    occupations:
  0.915 -0.044  0.025
 -0.044  0.896  0.029
  0.025  0.029  0.932
   spin  2
    eigenvalues: 
  0.864  0.920  0.920
    eigenvectors:
  0.333  0.051  0.615
  0.514  0.102  0.384
  0.153  0.846  0.000
    occupations:
  0.901 -0.023  0.013
 -0.023  0.891  0.016
  0.013  0.016  0.911
atomic mag. moment =     0.039149
N of occupied +U levels =  56.1389605
 --- exit write_ns ---
 LDA+U Projector read from file 
     Starting wfc from file

     total cpu time spent up to now is        8.6 secs

     per-process dynamical memory:    66.8 Mb

     Self-consistent Calculation

     iteration #  1     ecut=    30.00 Ry     beta=0.20
     Davidson diagonalization with overlap
     c_bands:  1 eigenvalues not converged
     c_bands:  1 eigenvalues not converged
     c_bands:  1 eigenvalues not converged
     c_bands:  1 eigenvalues not converged
     c_bands:  1 eigenvalues not converged
     c_bands:  1 eigenvalues not converged
     c_bands:  1 eigenvalues not converged
     c_bands:  1 eigenvalues not converged
     c_bands:  1 eigenvalues not converged
     c_bands:  1 eigenvalues not converged
     c_bands:  1 eigenvalues not converged
     ethr =  1.00E-10,  avg # of iterations = 13.5
 --- enter write_ns ---
 LDA+U parameters:
U( 1)     =  0.00000000
alpha( 1) = -0.10000000
U( 2)     =  0.00000000
alpha( 2) =  0.00000000
U( 3)     =  0.00000000
alpha( 3) =  0.00000000
U( 4)     =  0.00000000
alpha( 4) =  0.00000000
atom    1   Tr[ns(na)] (up, down, total) =   4.58225  3.46555  8.04780
   spin  1
    eigenvalues: 
  0.793  0.793  0.999  0.999  0.999
    eigenvectors:
  0.000  0.000  0.000  0.000  1.000
  0.422  0.224  0.055  0.298  0.000
  0.224  0.422  0.298  0.055  0.000
  0.346  0.008  0.556  0.090  0.000
  0.008  0.346  0.090  0.556  0.000
    occupations:
  0.999  0.000  0.000  0.000  0.000
  0.000  0.866  0.000 -0.070  0.069
  0.000  0.000  0.866  0.069  0.070
  0.000 -0.070  0.069  0.926  0.000
  0.000  0.069  0.070  0.000  0.926
   spin  2
    eigenvalues: 
  0.483  0.483  0.801  0.850  0.850
    eigenvectors:
  0.000  0.000  1.000  0.000  0.000
  0.278  0.361  0.000  0.031  0.330
  0.361  0.278  0.000  0.330  0.031
  0.281  0.080  0.000  0.478  0.162
  0.080  0.281  0.000  0.162  0.478
    occupations:
  0.801  0.000  0.000  0.000  0.000
  0.000  0.615  0.000 -0.040  0.172
  0.000  0.000  0.615  0.172  0.040
  0.000 -0.040  0.172  0.717  0.000
  0.000  0.172  0.040  0.000  0.717
atomic mag. moment =     1.116695
atom    2   Tr[ns(na)] (up, down, total) =   4.66152  3.16241  7.82393
   spin  1
    eigenvalues: 
  0.832  0.832  0.999  0.999  0.999
    eigenvectors:
  0.000  0.000  0.000  0.000  1.000
  0.643  0.003  0.325  0.029  0.000
  0.003  0.643  0.029  0.325  0.000
  0.152  0.202  0.499  0.147  0.000
  0.202  0.152  0.147  0.499  0.000
    occupations:
  0.999  0.000  0.000  0.000  0.000
  0.000  0.891  0.000  0.056  0.056
  0.000  0.000  0.891  0.056 -0.056
  0.000  0.056  0.056  0.940  0.000
  0.000  0.056 -0.056  0.000  0.940
   spin  2
    eigenvalues: 
  0.459  0.459  0.708  0.769  0.769
    eigenvectors:
  0.000  0.000  1.000  0.000  0.000
  0.478  0.157  0.000  0.184  0.182
  0.157  0.478  0.000  0.182  0.184
  0.034  0.332  0.000  0.446  0.189
  0.332  0.034  0.000  0.189  0.446
    occupations:
  0.708  0.000  0.000  0.000  0.000
  0.000  0.572  0.000  0.031  0.146
  0.000  0.000  0.572  0.146 -0.031
  0.000  0.031  0.146  0.655  0.000
  0.000  0.146 -0.031  0.000  0.655
atomic mag. moment =     1.499117
atom    3   Tr[ns(na)] (up, down, total) =   1.91433  1.89968  3.81402
   spin  1
    eigenvalues: 
  0.357  0.357  0.387  0.407  0.407
    eigenvectors:
  0.000  0.000  1.000  0.000  0.000
  0.786  0.138  0.000  0.011  0.065
  0.138  0.786  0.000  0.065  0.011
  0.012  0.064  0.000  0.785  0.139
  0.064  0.012  0.000  0.139  0.785
    occupations:
  0.387  0.000  0.000  0.000  0.000
  0.000  0.361  0.000  0.000  0.013
  0.000  0.000  0.361  0.013  0.000
  0.000  0.000  0.013  0.403  0.000
  0.000  0.013  0.000  0.000  0.403
   spin  2
    eigenvalues: 
  0.353  0.353  0.387  0.404  0.404
    eigenvectors:
  0.000  0.000  1.000  0.000  0.000
  0.765  0.145  0.000  0.013  0.078
  0.145  0.765  0.000  0.078  0.013
  0.016  0.074  0.000  0.767  0.143
  0.074  0.016  0.000  0.143  0.767
    occupations:
  0.387  0.000  0.000  0.000  0.000
  0.000  0.357  0.000  0.000  0.015
  0.000  0.000  0.357  0.015  0.000
  0.000  0.000  0.015  0.399  0.000
  0.000  0.015  0.000  0.000  0.399
atomic mag. moment =     0.014648
atom    4   Tr[ns(na)] (up, down, total) =   1.91433  1.89968  3.81402
   spin  1
    eigenvalues: 
  0.357  0.357  0.387  0.407  0.407
    eigenvectors:
  0.000  0.000  1.000  0.000  0.000
  0.787  0.138  0.000  0.011  0.065
  0.138  0.787  0.000  0.065  0.011
  0.012  0.064  0.000  0.785  0.139
  0.064  0.012  0.000  0.139  0.785
    occupations:
  0.387  0.000  0.000  0.000  0.000
  0.000  0.361  0.000  0.000  0.013
  0.000  0.000  0.361  0.013  0.000
  0.000  0.000  0.013  0.403  0.000
  0.000  0.013  0.000  0.000  0.403
   spin  2
    eigenvalues: 
  0.353  0.353  0.387  0.404  0.404
    eigenvectors:
  0.000  0.000  1.000  0.000  0.000
  0.765  0.145  0.000  0.013  0.078
  0.145  0.765  0.000  0.078  0.013
  0.016  0.074  0.000  0.767  0.143
  0.074  0.016  0.000  0.143  0.767
    occupations:
  0.387  0.000  0.000  0.000  0.000
  0.000  0.357  0.000  0.000  0.015
  0.000  0.000  0.357  0.015  0.000
  0.000  0.000  0.015  0.399  0.000
  0.000  0.015  0.000  0.000  0.399
atomic mag. moment =     0.014648
atom    5   Tr[ns(na)] (up, down, total) =   2.74019  2.70070  5.44089
   spin  1
    eigenvalues: 
  0.842  0.947  0.951
    eigenvectors:
  0.337  0.000  0.663
  0.489  0.255  0.256
  0.174  0.745  0.081
    occupations:
  0.914  0.044  0.026
  0.044  0.897 -0.030
  0.026 -0.030  0.929
   spin  2
    eigenvalues: 
  0.863  0.919  0.919
    eigenvectors:
  0.334  0.054  0.612
  0.475  0.426  0.099
  0.191  0.519  0.289
    occupations:
  0.900  0.022  0.014
  0.022  0.892 -0.017
  0.014 -0.017  0.908
atomic mag. moment =     0.039492
atom    6   Tr[ns(na)] (up, down, total) =   2.74019  2.70070  5.44089
   spin  1
    eigenvalues: 
  0.842  0.947  0.951
    eigenvectors:
  0.337  0.000  0.663
  0.000  1.000  0.000
  0.663  0.000  0.337
    occupations:
  0.914  0.001 -0.052
  0.001  0.947  0.001
 -0.052  0.001  0.879
   spin  2
    eigenvalues: 
  0.863  0.919  0.919
    eigenvectors:
  0.334  0.054  0.612
  0.001  0.904  0.095
  0.665  0.042  0.293
    occupations:
  0.900  0.001 -0.027
  0.001  0.919  0.002
 -0.027  0.002  0.882
atomic mag. moment =     0.039492
atom    7   Tr[ns(na)] (up, down, total) =   2.74019  2.70070  5.44089
   spin  1
    eigenvalues: 
  0.842  0.947  0.951
    eigenvectors:
  0.337  0.000  0.663
  0.505  0.245  0.249
  0.158  0.755  0.088
    occupations:
  0.914 -0.045  0.025
 -0.045  0.895  0.029
  0.025  0.029  0.931
   spin  2
    eigenvalues: 
  0.863  0.919  0.919
    eigenvectors:
  0.334  0.054  0.612
  0.524  0.089  0.388
  0.143  0.857  0.000
    occupations:
  0.900 -0.024  0.012
 -0.024  0.890  0.015
  0.012  0.015  0.911
atomic mag. moment =     0.039492
atom    8   Tr[ns(na)] (up, down, total) =   2.74019  2.70070  5.44089
   spin  1
    eigenvalues: 
  0.842  0.947  0.951
    eigenvectors:
  0.337  0.000  0.663
  0.000  1.000  0.000
  0.663  0.000  0.337
    occupations:
  0.914  0.001 -0.052
  0.001  0.947  0.001
 -0.052  0.001  0.879
   spin  2
    eigenvalues: 
  0.863  0.919  0.919
    eigenvectors:
  0.334  0.054  0.612
  0.001  0.904  0.095
  0.665  0.042  0.293
    occupations:
  0.900  0.001 -0.027
  0.001  0.919  0.002
 -0.027  0.002  0.882
atomic mag. moment =     0.039492
atom    9   Tr[ns(na)] (up, down, total) =   2.74019  2.70070  5.44089
   spin  1
    eigenvalues: 
  0.842  0.947  0.951
    eigenvectors:
  0.337  0.000  0.663
  0.489  0.255  0.256
  0.174  0.745  0.081
    occupations:
  0.914  0.044  0.026
  0.044  0.897 -0.030
  0.026 -0.030  0.929
   spin  2
    eigenvalues: 
  0.863  0.919  0.919
    eigenvectors:
  0.334  0.054  0.612
  0.475  0.426  0.099
  0.191  0.519  0.289
    occupations:
  0.900  0.022  0.014
  0.022  0.892 -0.017
  0.014 -0.017  0.908
atomic mag. moment =     0.039492
atom   10   Tr[ns(na)] (up, down, total) =   2.74019  2.70070  5.44089
   spin  1
    eigenvalues: 
  0.842  0.947  0.951
    eigenvectors:
  0.337  0.000  0.663
  0.505  0.245  0.249
  0.158  0.755  0.088
    occupations:
  0.914 -0.045  0.025
 -0.045  0.895  0.029
  0.025  0.029  0.931
   spin  2
    eigenvalues: 
  0.863  0.919  0.919
    eigenvectors:
  0.334  0.054  0.612
  0.524  0.089  0.388
  0.143  0.857  0.000
    occupations:
  0.900 -0.024  0.012
 -0.024  0.890  0.015
  0.012  0.015  0.911
atomic mag. moment =     0.039492
N of occupied +U levels =  56.1451253
 --- exit write_ns ---
 --- in v_hubbard ---
Hubbard energy   -0.0585
 -------

     total cpu time spent up to now is       55.6 secs

     total energy              =    -538.40946340 Ry
     Harris-Foulkes estimate   =    -538.41418083 Ry
     estimated scf accuracy    <       0.01429533 Ry

     total magnetization       =     3.52 Bohr mag/cell
     absolute magnetization    =     3.67 Bohr mag/cell

     iteration #  2     ecut=    30.00 Ry     beta=0.20
     Davidson diagonalization with overlap
     ethr =  1.88E-05,  avg # of iterations =  2.0
 --- enter write_ns ---
 LDA+U parameters:
U( 1)     =  0.00000000
alpha( 1) = -0.10000000
U( 2)     =  0.00000000
alpha( 2) =  0.00000000
U( 3)     =  0.00000000
alpha( 3) =  0.00000000
U( 4)     =  0.00000000
alpha( 4) =  0.00000000
atom    1   Tr[ns(na)] (up, down, total) =   4.45843  2.86312  7.32155
   spin  1
    eigenvalues: 
  0.732  0.732  0.998  0.998  0.998
    eigenvectors:
  0.000  0.000  0.000  0.000  1.000
  0.422  0.225  0.054  0.299  0.000
  0.225  0.422  0.299  0.054  0.000
  0.345  0.008  0.556  0.091  0.000
  0.008  0.345  0.091  0.556  0.000
    occupations:
  0.998  0.000  0.000  0.000  0.000
  0.000  0.826  0.000 -0.090  0.090
  0.000  0.000  0.826  0.090  0.090
  0.000 -0.090  0.090  0.904  0.000
  0.000  0.090  0.090  0.000  0.904
   spin  2
    eigenvalues: 
  0.450  0.450  0.607  0.678  0.678
    eigenvectors:
  0.000  0.000  1.000  0.000  0.000
  0.248  0.382  0.000  0.080  0.289
  0.382  0.248  0.000  0.289  0.080
  0.252  0.117  0.000  0.450  0.181
  0.117  0.252  0.000  0.181  0.450
    occupations:
  0.607  0.000  0.000  0.000  0.000
  0.000  0.534  0.000 -0.009  0.109
  0.000  0.000  0.534  0.109  0.009
  0.000 -0.009  0.109  0.594  0.000
  0.000  0.109  0.009  0.000  0.594
atomic mag. moment =     1.595307
atom    2   Tr[ns(na)] (up, down, total) =   4.77446  3.68392  8.45839
   spin  1
    eigenvalues: 
  0.889  0.889  0.999  0.999  0.999
    eigenvectors:
  0.000  0.000  1.000  0.000  0.000
  0.642  0.003  0.000  0.328  0.027
  0.003  0.642  0.000  0.027  0.328
  0.157  0.198  0.000  0.501  0.145
  0.198  0.157  0.000  0.145  0.501
    occupations:
  0.999  0.000  0.000  0.000  0.000
  0.000  0.928  0.000  0.038  0.037
  0.000  0.000  0.928  0.037 -0.038
  0.000  0.038  0.037  0.960  0.000
  0.000  0.037 -0.038  0.000  0.960
   spin  2
    eigenvalues: 
  0.487  0.487  0.881  0.915  0.915
    eigenvectors:
  0.000  0.000  1.000  0.000  0.000
  0.598  0.041  0.000  0.210  0.151
  0.041  0.598  0.000  0.151  0.210
  0.000  0.361  0.000  0.450  0.189
  0.361  0.000  0.000  0.189  0.450
    occupations:
  0.881  0.000  0.000  0.000  0.000
  0.000  0.641  0.000  0.059  0.197
  0.000  0.000  0.641  0.197 -0.059
  0.000  0.059  0.197  0.760  0.000
  0.000  0.197 -0.059  0.000  0.760
atomic mag. moment =     1.090542
atom    3   Tr[ns(na)] (up, down, total) =   1.91473  1.89934  3.81407
   spin  1
    eigenvalues: 
  0.357  0.357  0.387  0.407  0.407
    eigenvectors:
  0.000  0.000  1.000  0.000  0.000
  0.787  0.138  0.000  0.010  0.065
  0.138  0.787  0.000  0.065  0.010
  0.012  0.063  0.000  0.785  0.139
  0.063  0.012  0.000  0.139  0.785
    occupations:
  0.387  0.000  0.000  0.000  0.000
  0.000  0.361  0.000  0.000  0.013
  0.000  0.000  0.361  0.013  0.000
  0.000  0.000  0.013  0.403  0.000
  0.000  0.013  0.000  0.000  0.403
   spin  2
    eigenvalues: 
  0.353  0.353  0.387  0.404  0.404
    eigenvectors:
  0.000  0.000  1.000  0.000  0.000
  0.768  0.141  0.000  0.017  0.074
  0.141  0.768  0.000  0.074  0.017
  0.012  0.079  0.000  0.766  0.143
  0.079  0.012  0.000  0.143  0.766
    occupations:
  0.387  0.000  0.000  0.000  0.000
  0.000  0.357  0.000  0.001  0.015
  0.000  0.000  0.357  0.015 -0.001
  0.000  0.001  0.015  0.399  0.000
  0.000  0.015 -0.001  0.000  0.399
atomic mag. moment =     0.015384
atom    4   Tr[ns(na)] (up, down, total) =   1.91473  1.89934  3.81407
   spin  1
    eigenvalues: 
  0.357  0.357  0.387  0.407  0.407
    eigenvectors:
  0.000  0.000  1.000  0.000  0.000
  0.787  0.138  0.000  0.010  0.065
  0.138  0.787  0.000  0.065  0.010
  0.012  0.063  0.000  0.785  0.139
  0.063  0.012  0.000  0.139  0.785
    occupations:
  0.387  0.000  0.000  0.000  0.000
  0.000  0.361  0.000  0.000  0.013
  0.000  0.000  0.361  0.013  0.000
  0.000  0.000  0.013  0.403  0.000
  0.000  0.013  0.000  0.000  0.403
   spin  2
    eigenvalues: 
  0.353  0.353  0.387  0.404  0.404
    eigenvectors:
  0.000  0.000  1.000  0.000  0.000
  0.768  0.142  0.000  0.017  0.074
  0.142  0.768  0.000  0.074  0.017
  0.012  0.079  0.000  0.766  0.143
  0.079  0.012  0.000  0.143  0.766
    occupations:
  0.387  0.000  0.000  0.000  0.000
  0.000  0.357  0.000  0.001  0.015
  0.000  0.000  0.357  0.015 -0.001
  0.000  0.001  0.015  0.399  0.000
  0.000  0.015 -0.001  0.000  0.399
atomic mag. moment =     0.015384
atom    5   Tr[ns(na)] (up, down, total) =   2.74899  2.70377  5.45276
   spin  1
    eigenvalues: 
  0.849  0.948  0.951
    eigenvectors:
  0.335  0.002  0.663
  0.465  0.271  0.264
  0.200  0.727  0.073
    occupations:
  0.917  0.040  0.026
  0.040  0.903 -0.030
  0.026 -0.030  0.929
   spin  2
    eigenvalues: 
  0.863  0.920  0.921
    eigenvectors:
  0.332  0.026  0.642
  0.549  0.096  0.354
  0.119  0.878  0.004
    occupations:
  0.902  0.024  0.011
  0.024  0.889 -0.014
  0.011 -0.014  0.913
atomic mag. moment =     0.045214
atom    6   Tr[ns(na)] (up, down, total) =   2.74899  2.70377  5.45276
   spin  1
    eigenvalues: 
  0.849  0.948  0.951
    eigenvectors:
  0.335  0.002  0.663
  0.002  0.997  0.001
  0.663  0.001  0.337
    occupations:
  0.917  0.003 -0.048
  0.003  0.948  0.004
 -0.048  0.004  0.884
   spin  2
    eigenvalues: 
  0.863  0.920  0.921
    eigenvectors:
  0.332  0.026  0.642
  0.005  0.934  0.060
  0.663  0.040  0.298
    occupations:
  0.902 -0.002 -0.027
 -0.002  0.920 -0.003
 -0.027 -0.003  0.883
atomic mag. moment =     0.045214
atom    7   Tr[ns(na)] (up, down, total) =   2.74899  2.70377  5.45276
   spin  1
    eigenvalues: 
  0.849  0.948  0.951
    eigenvectors:
  0.335  0.002  0.663
  0.530  0.229  0.241
  0.135  0.769  0.096
    occupations:
  0.917 -0.043  0.022
 -0.043  0.897  0.026
  0.022  0.026  0.935
   spin  2
    eigenvalues: 
  0.863  0.920  0.921
    eigenvectors:
  0.332  0.026  0.642
  0.447  0.430  0.122
  0.221  0.544  0.236
    occupations:
  0.902 -0.022  0.016
 -0.022  0.895  0.018
  0.016  0.018  0.908
atomic mag. moment =     0.045214
atom    8   Tr[ns(na)] (up, down, total) =   2.74899  2.70377  5.45276
   spin  1
    eigenvalues: 
  0.849  0.948  0.951
    eigenvectors:
  0.335  0.002  0.663
  0.002  0.997  0.001
  0.663  0.001  0.337
    occupations:
  0.917  0.003 -0.048
  0.003  0.948  0.004
 -0.048  0.004  0.884
   spin  2
    eigenvalues: 
  0.863  0.920  0.921
    eigenvectors:
  0.332  0.026  0.642
  0.005  0.934  0.060
  0.663  0.040  0.298
    occupations:
  0.902 -0.002 -0.027
 -0.002  0.920 -0.003
 -0.027 -0.003  0.883
atomic mag. moment =     0.045214
atom    9   Tr[ns(na)] (up, down, total) =   2.74899  2.70377  5.45276
   spin  1
    eigenvalues: 
  0.849  0.948  0.951
    eigenvectors:
  0.335  0.002  0.663
  0.465  0.271  0.264
  0.200  0.727  0.073
    occupations:
  0.917  0.040  0.026
  0.040  0.903 -0.030
  0.026 -0.030  0.929
   spin  2
    eigenvalues: 
  0.863  0.920  0.921
    eigenvectors:
  0.332  0.026  0.642
  0.549  0.096  0.354
  0.119  0.878  0.004
    occupations:
  0.902  0.024  0.011
  0.024  0.889 -0.014
  0.011 -0.014  0.913
atomic mag. moment =     0.045214
atom   10   Tr[ns(na)] (up, down, total) =   2.74899  2.70377  5.45276
   spin  1
    eigenvalues: 
  0.849  0.948  0.951
    eigenvectors:
  0.335  0.002  0.663
  0.530  0.229  0.241
  0.135  0.769  0.096
    occupations:
  0.917 -0.043  0.022
 -0.043  0.897  0.026
  0.022  0.026  0.935
   spin  2
    eigenvalues: 
  0.863  0.920  0.921
    eigenvectors:
  0.332  0.026  0.642
  0.447  0.430  0.122
  0.221  0.544  0.236
    occupations:
  0.902 -0.022  0.016
 -0.022  0.895  0.018
  0.016  0.018  0.908
atomic mag. moment =     0.045214
N of occupied +U levels =  56.1246376
 --- exit write_ns ---
 --- in v_hubbard ---
Hubbard energy   -0.0584
 -------

     total cpu time spent up to now is       77.6 secs

     total energy              =    -538.39820238 Ry
     Harris-Foulkes estimate   =    -538.43038552 Ry
     estimated scf accuracy    <       0.70461465 Ry

     total magnetization       =     3.65 Bohr mag/cell
     absolute magnetization    =     3.78 Bohr mag/cell

     iteration #  3     ecut=    30.00 Ry     beta=0.20
     Davidson diagonalization with overlap
     ethr =  1.88E-05,  avg # of iterations =  2.0
 --- enter write_ns ---
 LDA+U parameters:
U( 1)     =  0.00000000
alpha( 1) = -0.10000000
U( 2)     =  0.00000000
alpha( 2) =  0.00000000
U( 3)     =  0.00000000
alpha( 3) =  0.00000000
U( 4)     =  0.00000000
alpha( 4) =  0.00000000
atom    1   Tr[ns(na)] (up, down, total) =   4.56429  3.39282  7.95711
   spin  1
    eigenvalues: 
  0.784  0.784  0.999  0.999  0.999
    eigenvectors:
  0.000  0.000  0.000  0.000  1.000
  0.422  0.224  0.055  0.298  0.000
  0.224  0.422  0.298  0.055  0.000
  0.346  0.008  0.556  0.090  0.000
  0.008  0.346  0.090  0.556  0.000
    occupations:
  0.999  0.000  0.000  0.000  0.000
  0.000  0.860  0.000 -0.073  0.072
  0.000  0.000  0.860  0.072  0.073
  0.000 -0.073  0.072  0.923  0.000
  0.000  0.072  0.073  0.000  0.923
   spin  2
    eigenvalues: 
  0.477  0.477  0.778  0.830  0.830
    eigenvectors:
  0.000  0.000  1.000  0.000  0.000
  0.277  0.362  0.000  0.033  0.328
  0.362  0.277  0.000  0.328  0.033
  0.279  0.082  0.000  0.476  0.163
  0.082  0.279  0.000  0.163  0.476
    occupations:
  0.778  0.000  0.000  0.000  0.000
  0.000  0.604  0.000 -0.037  0.166
  0.000  0.000  0.604  0.166  0.037
  0.000 -0.037  0.166  0.703  0.000
  0.000  0.166  0.037  0.000  0.703
atomic mag. moment =     1.171473
atom    2   Tr[ns(na)] (up, down, total) =   4.67368  3.21988  7.89356
   spin  1
    eigenvalues: 
  0.838  0.838  0.999  0.999  0.999
    eigenvectors:
  0.000  0.000  0.000  0.000  1.000
  0.643  0.003  0.325  0.029  0.000
  0.003  0.643  0.029  0.325  0.000
  0.153  0.201  0.499  0.147  0.000
  0.201  0.153  0.147  0.499  0.000
    occupations:
  0.999  0.000  0.000  0.000  0.000
  0.000  0.895  0.000  0.054  0.054
  0.000  0.000  0.895  0.054 -0.054
  0.000  0.054  0.054  0.942  0.000
  0.000  0.054 -0.054  0.000  0.942
   spin  2
    eigenvalues: 
  0.460  0.460  0.728  0.786  0.786
    eigenvectors:
  0.000  0.000  1.000  0.000  0.000
  0.507  0.128  0.000  0.189  0.176
  0.128  0.507  0.000  0.176  0.189
  0.020  0.344  0.000  0.447  0.188
  0.344  0.020  0.000  0.188  0.447
    occupations:
  0.728  0.000  0.000  0.000  0.000
  0.000  0.579  0.000  0.035  0.153
  0.000  0.000  0.579  0.153 -0.035
  0.000  0.035  0.153  0.667  0.000
  0.000  0.153 -0.035  0.000  0.667
atomic mag. moment =     1.453799
atom    3   Tr[ns(na)] (up, down, total) =   1.91410  1.89963  3.81373
   spin  1
    eigenvalues: 
  0.357  0.357  0.387  0.407  0.407
    eigenvectors:
  0.000  0.000  1.000  0.000  0.000
  0.787  0.137  0.000  0.011  0.065
  0.137  0.787  0.000  0.065  0.011
  0.012  0.064  0.000  0.785  0.139
  0.064  0.012  0.000  0.139  0.785
    occupations:
  0.387  0.000  0.000  0.000  0.000
  0.000  0.361  0.000  0.000  0.013
  0.000  0.000  0.361  0.013  0.000
  0.000  0.000  0.013  0.403  0.000
  0.000  0.013  0.000  0.000  0.403
   spin  2
    eigenvalues: 
  0.353  0.353  0.387  0.404  0.404
    eigenvectors:
  0.000  0.000  1.000  0.000  0.000
  0.765  0.145  0.000  0.013  0.077
  0.145  0.765  0.000  0.077  0.013
  0.015  0.075  0.000  0.767  0.143
  0.075  0.015  0.000  0.143  0.767
    occupations:
  0.387  0.000  0.000  0.000  0.000
  0.000  0.357  0.000  0.000  0.015
  0.000  0.000  0.357  0.015  0.000
  0.000  0.000  0.015  0.399  0.000
  0.000  0.015  0.000  0.000  0.399
atomic mag. moment =     0.014465
atom    4   Tr[ns(na)] (up, down, total) =   1.91410  1.89963  3.81373
   spin  1
    eigenvalues: 
  0.357  0.357  0.387  0.407  0.407
    eigenvectors:
  0.000  0.000  1.000  0.000  0.000
  0.787  0.138  0.000  0.011  0.065
  0.138  0.787  0.000  0.065  0.011
  0.012  0.064  0.000  0.785  0.139
  0.064  0.012  0.000  0.139  0.785
    occupations:
  0.387  0.000  0.000  0.000  0.000
  0.000  0.361  0.000  0.000  0.013
  0.000  0.000  0.361  0.013  0.000
  0.000  0.000  0.013  0.403  0.000
  0.000  0.013  0.000  0.000  0.403
   spin  2
    eigenvalues: 
  0.353  0.353  0.387  0.404  0.404
    eigenvectors:
  0.000  0.000  1.000  0.000  0.000
  0.766  0.144  0.000  0.013  0.077
  0.144  0.766  0.000  0.077  0.013
  0.015  0.075  0.000  0.767  0.143
  0.075  0.015  0.000  0.143  0.767
    occupations:
  0.387  0.000  0.000  0.000  0.000
  0.000  0.357  0.000  0.000  0.015
  0.000  0.000  0.357  0.015  0.000
  0.000  0.000  0.015  0.399  0.000
  0.000  0.015  0.000  0.000  0.399
atomic mag. moment =     0.014465
atom    5   Tr[ns(na)] (up, down, total) =   2.74188  2.70232  5.44420
   spin  1
    eigenvalues: 
  0.843  0.947  0.951
    eigenvectors:
  0.337  0.000  0.663
  0.486  0.257  0.257
  0.177  0.743  0.080
    occupations:
  0.915  0.044  0.026
  0.044  0.898 -0.030
  0.026 -0.030  0.929
   spin  2
    eigenvalues: 
  0.864  0.919  0.919
    eigenvectors:
  0.333  0.088  0.578
  0.484  0.444  0.072
  0.182  0.468  0.350
    occupations:
  0.901  0.022  0.014
  0.022  0.892 -0.017
  0.014 -0.017  0.909
atomic mag. moment =     0.039562
atom    6   Tr[ns(na)] (up, down, total) =   2.74188  2.70232  5.44420
   spin  1
    eigenvalues: 
  0.843  0.947  0.951
    eigenvectors:
  0.337  0.000  0.663
  0.000  1.000  0.000
  0.663  0.000  0.337
    occupations:
  0.915  0.001 -0.051
  0.001  0.947  0.001
 -0.051  0.001  0.880
   spin  2
    eigenvalues: 
  0.864  0.919  0.919
    eigenvectors:
  0.333  0.088  0.578
  0.000  0.856  0.143
  0.666  0.055  0.279
    occupations:
  0.901  0.001 -0.026
  0.001  0.919  0.001
 -0.026  0.001  0.882
atomic mag. moment =     0.039562
atom    7   Tr[ns(na)] (up, down, total) =   2.74188  2.70232  5.44420
   spin  1
    eigenvalues: 
  0.843  0.947  0.951
    eigenvectors:
  0.337  0.000  0.663
  0.508  0.243  0.248
  0.155  0.757  0.089
    occupations:
  0.915 -0.045  0.025
 -0.045  0.895  0.029
  0.025  0.029  0.932
   spin  2
    eigenvalues: 
  0.864  0.919  0.919
    eigenvectors:
  0.333  0.088  0.578
  0.515  0.067  0.418
  0.152  0.844  0.004
    occupations:
  0.901 -0.023  0.013
 -0.023  0.891  0.016
  0.013  0.016  0.911
atomic mag. moment =     0.039562
atom    8   Tr[ns(na)] (up, down, total) =   2.74188  2.70232  5.44420
   spin  1
    eigenvalues: 
  0.843  0.947  0.951
    eigenvectors:
  0.337  0.000  0.663
  0.000  1.000  0.000
  0.663  0.000  0.337
    occupations:
  0.915  0.001 -0.051
  0.001  0.947  0.001
 -0.051  0.001  0.880
   spin  2
    eigenvalues: 
  0.864  0.919  0.919
    eigenvectors:
  0.333  0.088  0.578
  0.000  0.856  0.143
  0.666  0.055  0.279
    occupations:
  0.901  0.001 -0.026
  0.001  0.919  0.001
 -0.026  0.001  0.882
atomic mag. moment =     0.039562
atom    9   Tr[ns(na)] (up, down, total) =   2.74188  2.70232  5.44420
   spin  1
    eigenvalues: 
  0.843  0.947  0.951
    eigenvectors:
  0.337  0.000  0.663
  0.486  0.257  0.257
  0.177  0.743  0.080
    occupations:
  0.915  0.044  0.026
  0.044  0.898 -0.030
  0.026 -0.030  0.929
   spin  2
    eigenvalues: 
  0.864  0.919  0.919
    eigenvectors:
  0.333  0.088  0.578
  0.484  0.444  0.072
  0.182  0.468  0.350
    occupations:
  0.901  0.022  0.014
  0.022  0.892 -0.017
  0.014 -0.017  0.909
atomic mag. moment =     0.039562
atom   10   Tr[ns(na)] (up, down, total) =   2.74188  2.70232  5.44420
   spin  1
    eigenvalues: 
  0.843  0.947  0.951
    eigenvectors:
  0.337  0.000  0.663
  0.508  0.243  0.248
  0.155  0.757  0.089
    occupations:
  0.915 -0.045  0.025
 -0.045  0.895  0.029
  0.025  0.029  0.932
   spin  2
    eigenvalues: 
  0.864  0.919  0.919
    eigenvectors:
  0.333  0.088  0.578
  0.515  0.067  0.418
  0.152  0.844  0.004
    occupations:
  0.901 -0.023  0.013
 -0.023  0.891  0.016
  0.013  0.016  0.911
atomic mag. moment =     0.039562
N of occupied +U levels =  56.1433433
 --- exit write_ns ---
 --- in v_hubbard ---
Hubbard energy   -0.0584
 -------

     total cpu time spent up to now is       99.9 secs

     total energy              =    -538.41374080 Ry
     Harris-Foulkes estimate   =    -538.41369072 Ry
     estimated scf accuracy    <       0.00002605 Ry

     total magnetization       =     3.53 Bohr mag/cell
     absolute magnetization    =     3.68 Bohr mag/cell

     iteration #  4     ecut=    30.00 Ry     beta=0.20
     Davidson diagonalization with overlap
     ethr =  3.43E-08,  avg # of iterations =  3.7
 --- enter write_ns ---
 LDA+U parameters:
U( 1)     =  0.00000000
alpha( 1) = -0.10000000
U( 2)     =  0.00000000
alpha( 2) =  0.00000000
U( 3)     =  0.00000000
alpha( 3) =  0.00000000
U( 4)     =  0.00000000
alpha( 4) =  0.00000000
atom    1   Tr[ns(na)] (up, down, total) =   4.56378  3.39511  7.95890
   spin  1
    eigenvalues: 
  0.784  0.784  0.999  0.999  0.999
    eigenvectors:
  0.000  0.000  0.000  0.000  1.000
  0.422  0.224  0.055  0.298  0.000
  0.224  0.422  0.298  0.055  0.000
  0.346  0.008  0.556  0.090  0.000
  0.008  0.346  0.090  0.556  0.000
    occupations:
  0.999  0.000  0.000  0.000  0.000
  0.000  0.860  0.000 -0.073  0.072
  0.000  0.000  0.860  0.072  0.073
  0.000 -0.073  0.072  0.923  0.000
  0.000  0.072  0.073  0.000  0.923
   spin  2
    eigenvalues: 
  0.477  0.477  0.779  0.831  0.831
    eigenvectors:
  0.000  0.000  1.000  0.000  0.000
  0.277  0.362  0.000  0.033  0.328
  0.362  0.277  0.000  0.328  0.033
  0.279  0.082  0.000  0.477  0.163
  0.082  0.279  0.000  0.163  0.477
    occupations:
  0.779  0.000  0.000  0.000  0.000
  0.000  0.605  0.000 -0.037  0.166
  0.000  0.000  0.605  0.166  0.037
  0.000 -0.037  0.166  0.703  0.000
  0.000  0.166  0.037  0.000  0.703
atomic mag. moment =     1.168672
atom    2   Tr[ns(na)] (up, down, total) =   4.67393  3.21893  7.89286
   spin  1
    eigenvalues: 
  0.839  0.839  0.999  0.999  0.999
    eigenvectors:
  0.000  0.000  0.000  0.000  1.000
  0.643  0.003  0.325  0.029  0.000
  0.003  0.643  0.029  0.325  0.000
  0.153  0.201  0.499  0.147  0.000
  0.201  0.153  0.147  0.499  0.000
    occupations:
  0.999  0.000  0.000  0.000  0.000
  0.000  0.895  0.000  0.054  0.054
  0.000  0.000  0.895  0.054 -0.054
  0.000  0.054  0.054  0.942  0.000
  0.000  0.054 -0.054  0.000  0.942
   spin  2
    eigenvalues: 
  0.460  0.460  0.727  0.786  0.786
    eigenvectors:
  0.000  0.000  1.000  0.000  0.000
  0.507  0.129  0.000  0.188  0.176
  0.129  0.507  0.000  0.176  0.188
  0.021  0.344  0.000  0.447  0.188
  0.344  0.021  0.000  0.188  0.447
    occupations:
  0.727  0.000  0.000  0.000  0.000
  0.000  0.579  0.000  0.035  0.153
  0.000  0.000  0.579  0.153 -0.035
  0.000  0.035  0.153  0.667  0.000
  0.000  0.153 -0.035  0.000  0.667
atomic mag. moment =     1.455002
atom    3   Tr[ns(na)] (up, down, total) =   1.91417  1.89972  3.81389
   spin  1
    eigenvalues: 
  0.357  0.357  0.387  0.407  0.407
    eigenvectors:
  0.000  0.000  1.000  0.000  0.000
  0.787  0.137  0.000  0.011  0.065
  0.137  0.787  0.000  0.065  0.011
  0.012  0.064  0.000  0.785  0.139
  0.064  0.012  0.000  0.139  0.785
    occupations:
  0.387  0.000  0.000  0.000  0.000
  0.000  0.361  0.000  0.000  0.013
  0.000  0.000  0.361  0.013  0.000
  0.000  0.000  0.013  0.403  0.000
  0.000  0.013  0.000  0.000  0.403
   spin  2
    eigenvalues: 
  0.353  0.353  0.387  0.404  0.404
    eigenvectors:
  0.000  0.000  1.000  0.000  0.000
  0.765  0.145  0.000  0.013  0.077
  0.145  0.765  0.000  0.077  0.013
  0.015  0.074  0.000  0.767  0.143
  0.074  0.015  0.000  0.143  0.767
    occupations:
  0.387  0.000  0.000  0.000  0.000
  0.000  0.357  0.000  0.000  0.015
  0.000  0.000  0.357  0.015  0.000
  0.000  0.000  0.015  0.399  0.000
  0.000  0.015  0.000  0.000  0.399
atomic mag. moment =     0.014452
atom    4   Tr[ns(na)] (up, down, total) =   1.91417  1.89972  3.81389
   spin  1
    eigenvalues: 
  0.357  0.357  0.387  0.407  0.407
    eigenvectors:
  0.000  0.000  1.000  0.000  0.000
  0.787  0.137  0.000  0.011  0.065
  0.137  0.787  0.000  0.065  0.011
  0.012  0.064  0.000  0.785  0.139
  0.064  0.012  0.000  0.139  0.785
    occupations:
  0.387  0.000  0.000  0.000  0.000
  0.000  0.361  0.000  0.000  0.013
  0.000  0.000  0.361  0.013  0.000
  0.000  0.000  0.013  0.403  0.000
  0.000  0.013  0.000  0.000  0.403
   spin  2
    eigenvalues: 
  0.353  0.353  0.387  0.404  0.404
    eigenvectors:
  0.000  0.000  1.000  0.000  0.000
  0.766  0.145  0.000  0.013  0.077
  0.145  0.766  0.000  0.077  0.013
  0.015  0.074  0.000  0.767  0.143
  0.074  0.015  0.000  0.143  0.767
    occupations:
  0.387  0.000  0.000  0.000  0.000
  0.000  0.357  0.000  0.000  0.015
  0.000  0.000  0.357  0.015  0.000
  0.000  0.000  0.015  0.399  0.000
  0.000  0.015  0.000  0.000  0.399
atomic mag. moment =     0.014452
atom    5   Tr[ns(na)] (up, down, total) =   2.74180  2.70222  5.44402
   spin  1
    eigenvalues: 
  0.843  0.947  0.951
    eigenvectors:
  0.337  0.000  0.663
  0.486  0.257  0.257
  0.177  0.743  0.080
    occupations:
  0.915  0.044  0.026
  0.044  0.898 -0.030
  0.026 -0.030  0.929
   spin  2
    eigenvalues: 
  0.863  0.919  0.919
    eigenvectors:
  0.333  0.077  0.589
  0.484  0.435  0.081
  0.183  0.488  0.330
    occupations:
  0.901  0.022  0.014
  0.022  0.892 -0.017
  0.014 -0.017  0.909
atomic mag. moment =     0.039585
atom    6   Tr[ns(na)] (up, down, total) =   2.74180  2.70222  5.44402
   spin  1
    eigenvalues: 
  0.843  0.947  0.951
    eigenvectors:
  0.337  0.000  0.663
  0.000  1.000  0.000
  0.663  0.000  0.337
    occupations:
  0.915  0.001 -0.051
  0.001  0.947  0.001
 -0.051  0.001  0.880
   spin  2
    eigenvalues: 
  0.863  0.919  0.919
    eigenvectors:
  0.333  0.077  0.589
  0.000  0.873  0.126
  0.666  0.049  0.285
    occupations:
  0.901  0.001 -0.026
  0.001  0.919  0.001
 -0.026  0.001  0.882
atomic mag. moment =     0.039585
atom    7   Tr[ns(na)] (up, down, total) =   2.74180  2.70222  5.44402
   spin  1
    eigenvalues: 
  0.843  0.947  0.951
    eigenvectors:
  0.337  0.000  0.663
  0.509  0.243  0.248
  0.155  0.756  0.089
    occupations:
  0.915 -0.045  0.025
 -0.045  0.895  0.029
  0.025  0.029  0.932
   spin  2
    eigenvalues: 
  0.863  0.919  0.919
    eigenvectors:
  0.333  0.077  0.589
  0.515  0.076  0.409
  0.151  0.847  0.002
    occupations:
  0.901 -0.023  0.013
 -0.023  0.891  0.016
  0.013  0.016  0.911
atomic mag. moment =     0.039585
atom    8   Tr[ns(na)] (up, down, total) =   2.74180  2.70222  5.44402
   spin  1
    eigenvalues: 
  0.843  0.947  0.951
    eigenvectors:
  0.337  0.000  0.663
  0.000  1.000  0.000
  0.663  0.000  0.337
    occupations:
  0.915  0.001 -0.051
  0.001  0.947  0.001
 -0.051  0.001  0.880
   spin  2
    eigenvalues: 
  0.863  0.919  0.919
    eigenvectors:
  0.333  0.077  0.589
  0.000  0.873  0.126
  0.666  0.049  0.285
    occupations:
  0.901  0.001 -0.026
  0.001  0.919  0.001
 -0.026  0.001  0.882
atomic mag. moment =     0.039585
atom    9   Tr[ns(na)] (up, down, total) =   2.74180  2.70222  5.44402
   spin  1
    eigenvalues: 
  0.843  0.947  0.951
    eigenvectors:
  0.337  0.000  0.663
  0.486  0.257  0.257
  0.177  0.743  0.080
    occupations:
  0.915  0.044  0.026
  0.044  0.898 -0.030
  0.026 -0.030  0.929
   spin  2
    eigenvalues: 
  0.863  0.919  0.919
    eigenvectors:
  0.333  0.077  0.589
  0.484  0.435  0.081
  0.183  0.488  0.330
    occupations:
  0.901  0.022  0.014
  0.022  0.892 -0.017
  0.014 -0.017  0.909
atomic mag. moment =     0.039585
atom   10   Tr[ns(na)] (up, down, total) =   2.74180  2.70222  5.44402
   spin  1
    eigenvalues: 
  0.843  0.947  0.951
    eigenvectors:
  0.337  0.000  0.663
  0.509  0.243  0.248
  0.155  0.756  0.089
    occupations:
  0.915 -0.045  0.025
 -0.045  0.895  0.029
  0.025  0.029  0.932
   spin  2
    eigenvalues: 
  0.863  0.919  0.919
    eigenvectors:
  0.333  0.077  0.589
  0.515  0.076  0.409
  0.151  0.847  0.002
    occupations:
  0.901 -0.023  0.013
 -0.023  0.891  0.016
  0.013  0.016  0.911
atomic mag. moment =     0.039585
N of occupied +U levels =  56.1436375
 --- exit write_ns ---
 --- in v_hubbard ---
Hubbard energy   -0.0584
 -------

     total cpu time spent up to now is      127.9 secs

     total energy              =    -538.41378651 Ry
     Harris-Foulkes estimate   =    -538.41375492 Ry
     estimated scf accuracy    <       0.00005096 Ry

     total magnetization       =     3.53 Bohr mag/cell
     absolute magnetization    =     3.68 Bohr mag/cell

     iteration #  5     ecut=    30.00 Ry     beta=0.20
     Davidson diagonalization with overlap
     ethr =  3.43E-08,  avg # of iterations =  1.0
 --- enter write_ns ---
 LDA+U parameters:
U( 1)     =  0.00000000
alpha( 1) = -0.10000000
U( 2)     =  0.00000000
alpha( 2) =  0.00000000
U( 3)     =  0.00000000
alpha( 3) =  0.00000000
U( 4)     =  0.00000000
alpha( 4) =  0.00000000
atom    1   Tr[ns(na)] (up, down, total) =   4.56069  3.39431  7.95500
   spin  1
    eigenvalues: 
  0.782  0.782  0.999  0.999  0.999
    eigenvectors:
  0.000  0.000  0.000  0.000  1.000
  0.422  0.224  0.055  0.298  0.000
  0.224  0.422  0.298  0.055  0.000
  0.346  0.008  0.556  0.090  0.000
  0.008  0.346  0.090  0.556  0.000
    occupations:
  0.999  0.000  0.000  0.000  0.000
  0.000  0.859  0.000 -0.073  0.073
  0.000  0.000  0.859  0.073  0.073
  0.000 -0.073  0.073  0.922  0.000
  0.000  0.073  0.073  0.000  0.922
   spin  2
    eigenvalues: 
  0.477  0.477  0.779  0.831  0.831
    eigenvectors:
  0.000  0.000  1.000  0.000  0.000
  0.277  0.362  0.000  0.033  0.328
  0.362  0.277  0.000  0.328  0.033
  0.278  0.082  0.000  0.477  0.163
  0.082  0.278  0.000  0.163  0.477
    occupations:
  0.779  0.000  0.000  0.000  0.000
  0.000  0.605  0.000 -0.037  0.166
  0.000  0.000  0.605  0.166  0.037
  0.000 -0.037  0.166  0.703  0.000
  0.000  0.166  0.037  0.000  0.703
atomic mag. moment =     1.166383
atom    2   Tr[ns(na)] (up, down, total) =   4.67561  3.22135  7.89696
   spin  1
    eigenvalues: 
  0.839  0.839  0.999  0.999  0.999
    eigenvectors:
  0.000  0.000  0.000  0.000  1.000
  0.643  0.003  0.325  0.029  0.000
  0.003  0.643  0.029  0.325  0.000
  0.153  0.201  0.499  0.147  0.000
  0.201  0.153  0.147  0.499  0.000
    occupations:
  0.999  0.000  0.000  0.000  0.000
  0.000  0.896  0.000  0.054  0.054
  0.000  0.000  0.896  0.054 -0.054
  0.000  0.054  0.054  0.942  0.000
  0.000  0.054 -0.054  0.000  0.942
   spin  2
    eigenvalues: 
  0.460  0.460  0.728  0.787  0.787
    eigenvectors:
  0.000  0.000  1.000  0.000  0.000
  0.507  0.128  0.000  0.189  0.176
  0.128  0.507  0.000  0.176  0.189
  0.021  0.344  0.000  0.447  0.188
  0.344  0.021  0.000  0.188  0.447
    occupations:
  0.728  0.000  0.000  0.000  0.000
  0.000  0.579  0.000  0.035  0.153
  0.000  0.000  0.579  0.153 -0.035
  0.000  0.035  0.153  0.667  0.000
  0.000  0.153 -0.035  0.000  0.667
atomic mag. moment =     1.454258
atom    3   Tr[ns(na)] (up, down, total) =   1.91425  1.89984  3.81409
   spin  1
    eigenvalues: 
  0.357  0.357  0.387  0.407  0.407
    eigenvectors:
  0.000  0.000  1.000  0.000  0.000
  0.787  0.138  0.000  0.011  0.065
  0.138  0.787  0.000  0.065  0.011
  0.012  0.064  0.000  0.785  0.139
  0.064  0.012  0.000  0.139  0.785
    occupations:
  0.387  0.000  0.000  0.000  0.000
  0.000  0.361  0.000  0.000  0.013
  0.000  0.000  0.361  0.013  0.000
  0.000  0.000  0.013  0.403  0.000
  0.000  0.013  0.000  0.000  0.403
   spin  2
    eigenvalues: 
  0.353  0.353  0.387  0.404  0.404
    eigenvectors:
  0.000  0.000  1.000  0.000  0.000
  0.766  0.144  0.000  0.013  0.077
  0.144  0.766  0.000  0.077  0.013
  0.015  0.074  0.000  0.767  0.143
  0.074  0.015  0.000  0.143  0.767
    occupations:
  0.387  0.000  0.000  0.000  0.000
  0.000  0.357  0.000  0.000  0.015
  0.000  0.000  0.357  0.015  0.000
  0.000  0.000  0.015  0.399  0.000
  0.000  0.015  0.000  0.000  0.399
atomic mag. moment =     0.014418
atom    4   Tr[ns(na)] (up, down, total) =   1.91425  1.89984  3.81409
   spin  1
    eigenvalues: 
  0.357  0.357  0.387  0.407  0.407
    eigenvectors:
  0.000  0.000  1.000  0.000  0.000
  0.787  0.138  0.000  0.011  0.065
  0.138  0.787  0.000  0.065  0.011
  0.012  0.064  0.000  0.785  0.139
  0.064  0.012  0.000  0.139  0.785
    occupations:
  0.387  0.000  0.000  0.000  0.000
  0.000  0.361  0.000  0.000  0.013
  0.000  0.000  0.361  0.013  0.000
  0.000  0.000  0.013  0.403  0.000
  0.000  0.013  0.000  0.000  0.403
   spin  2
    eigenvalues: 
  0.353  0.353  0.387  0.404  0.404
    eigenvectors:
  0.000  0.000  1.000  0.000  0.000
  0.766  0.145  0.000  0.013  0.077
  0.145  0.766  0.000  0.077  0.013
  0.015  0.074  0.000  0.767  0.143
  0.074  0.015  0.000  0.143  0.767
    occupations:
  0.387  0.000  0.000  0.000  0.000
  0.000  0.357  0.000  0.000  0.015
  0.000  0.000  0.357  0.015  0.000
  0.000  0.000  0.015  0.399  0.000
  0.000  0.015  0.000  0.000  0.399
atomic mag. moment =     0.014418
atom    5   Tr[ns(na)] (up, down, total) =   2.74182  2.70217  5.44399
   spin  1
    eigenvalues: 
  0.843  0.947  0.951
    eigenvectors:
  0.337  0.000  0.663
  0.486  0.257  0.257
  0.178  0.743  0.080
    occupations:
  0.915  0.044  0.026
  0.044  0.898 -0.030
  0.026 -0.030  0.929
   spin  2
    eigenvalues: 
  0.863  0.919  0.919
    eigenvectors:
  0.333  0.062  0.605
  0.484  0.420  0.096
  0.182  0.518  0.299
    occupations:
  0.901  0.022  0.014
  0.022  0.892 -0.017
  0.014 -0.017  0.909
atomic mag. moment =     0.039652
atom    6   Tr[ns(na)] (up, down, total) =   2.74182  2.70217  5.44399
   spin  1
    eigenvalues: 
  0.843  0.947  0.951
    eigenvectors:
  0.337  0.000  0.663
  0.000  1.000  0.000
  0.663  0.000  0.337
    occupations:
  0.915  0.001 -0.051
  0.001  0.947  0.001
 -0.051  0.001  0.880
   spin  2
    eigenvalues: 
  0.863  0.919  0.919
    eigenvectors:
  0.333  0.062  0.605
  0.000  0.898  0.102
  0.666  0.041  0.293
    occupations:
  0.901  0.001 -0.026
  0.001  0.919  0.001
 -0.026  0.001  0.882
atomic mag. moment =     0.039652
atom    7   Tr[ns(na)] (up, down, total) =   2.74182  2.70217  5.44399
   spin  1
    eigenvalues: 
  0.843  0.947  0.951
    eigenvectors:
  0.337  0.000  0.663
  0.509  0.243  0.248
  0.154  0.757  0.089
    occupations:
  0.915 -0.045  0.025
 -0.045  0.895  0.029
  0.025  0.029  0.932
   spin  2
    eigenvalues: 
  0.863  0.919  0.919
    eigenvectors:
  0.333  0.062  0.605
  0.515  0.090  0.395
  0.151  0.849  0.000
    occupations:
  0.901 -0.023  0.013
 -0.023  0.891  0.016
  0.013  0.016  0.911
atomic mag. moment =     0.039652
atom    8   Tr[ns(na)] (up, down, total) =   2.74182  2.70217  5.44399
   spin  1
    eigenvalues: 
  0.843  0.947  0.951
    eigenvectors:
  0.337  0.000  0.663
  0.000  1.000  0.000
  0.663  0.000  0.337
    occupations:
  0.915  0.001 -0.051
  0.001  0.947  0.001
 -0.051  0.001  0.880
   spin  2
    eigenvalues: 
  0.863  0.919  0.919
    eigenvectors:
  0.333  0.062  0.605
  0.000  0.898  0.102
  0.666  0.041  0.293
    occupations:
  0.901  0.001 -0.026
  0.001  0.919  0.001
 -0.026  0.001  0.882
atomic mag. moment =     0.039652
atom    9   Tr[ns(na)] (up, down, total) =   2.74182  2.70217  5.44399
   spin  1
    eigenvalues: 
  0.843  0.947  0.951
    eigenvectors:
  0.337  0.000  0.663
  0.486  0.257  0.257
  0.178  0.743  0.080
    occupations:
  0.915  0.044  0.026
  0.044  0.898 -0.030
  0.026 -0.030  0.929
   spin  2
    eigenvalues: 
  0.863  0.919  0.919
    eigenvectors:
  0.333  0.062  0.605
  0.484  0.420  0.096
  0.182  0.518  0.299
    occupations:
  0.901  0.022  0.014
  0.022  0.892 -0.017
  0.014 -0.017  0.909
atomic mag. moment =     0.039652
atom   10   Tr[ns(na)] (up, down, total) =   2.74182  2.70217  5.44399
   spin  1
    eigenvalues: 
  0.843  0.947  0.951
    eigenvectors:
  0.337  0.000  0.663
  0.509  0.243  0.248
  0.154  0.757  0.089
    occupations:
  0.915 -0.045  0.025
 -0.045  0.895  0.029
  0.025  0.029  0.932
   spin  2
    eigenvalues: 
  0.863  0.919  0.919
    eigenvectors:
  0.333  0.062  0.605
  0.515  0.090  0.395
  0.151  0.849  0.000
    occupations:
  0.901 -0.023  0.013
 -0.023  0.891  0.016
  0.013  0.016  0.911
atomic mag. moment =     0.039652
N of occupied +U levels =  56.1440669
 --- exit write_ns ---
 --- in v_hubbard ---
Hubbard energy   -0.0585
 -------

     total cpu time spent up to now is      149.2 secs

     total energy              =    -538.41380795 Ry
     Harris-Foulkes estimate   =    -538.41378885 Ry
     estimated scf accuracy    <       0.00000785 Ry

     total magnetization       =     3.52 Bohr mag/cell
     absolute magnetization    =     3.67 Bohr mag/cell

     iteration #  6     ecut=    30.00 Ry     beta=0.20
     Davidson diagonalization with overlap
     ethr =  1.03E-08,  avg # of iterations =  2.0
 --- enter write_ns ---
 LDA+U parameters:
U( 1)     =  0.00000000
alpha( 1) = -0.10000000
U( 2)     =  0.00000000
alpha( 2) =  0.00000000
U( 3)     =  0.00000000
alpha( 3) =  0.00000000
U( 4)     =  0.00000000
alpha( 4) =  0.00000000
atom    1   Tr[ns(na)] (up, down, total) =   4.55690  3.40147  7.95837
   spin  1
    eigenvalues: 
  0.780  0.780  0.999  0.999  0.999
    eigenvectors:
  0.000  0.000  0.000  0.000  1.000
  0.422  0.224  0.055  0.298  0.000
  0.224  0.422  0.298  0.055  0.000
  0.346  0.008  0.556  0.090  0.000
  0.008  0.346  0.090  0.556  0.000
    occupations:
  0.999  0.000  0.000  0.000  0.000
  0.000  0.858  0.000 -0.074  0.073
  0.000  0.000  0.858  0.073  0.074
  0.000 -0.074  0.073  0.921  0.000
  0.000  0.073  0.074  0.000  0.921
   spin  2
    eigenvalues: 
  0.478  0.478  0.781  0.832  0.832
    eigenvectors:
  0.000  0.000  1.000  0.000  0.000
  0.277  0.363  0.000  0.033  0.328
  0.363  0.277  0.000  0.328  0.033
  0.279  0.082  0.000  0.477  0.163
  0.082  0.279  0.000  0.163  0.477
    occupations:
  0.781  0.000  0.000  0.000  0.000
  0.000  0.606  0.000 -0.037  0.166
  0.000  0.000  0.606  0.166  0.037
  0.000 -0.037  0.166  0.705  0.000
  0.000  0.166  0.037  0.000  0.705
atomic mag. moment =     1.155427
atom    2   Tr[ns(na)] (up, down, total) =   4.67704  3.21641  7.89346
   spin  1
    eigenvalues: 
  0.840  0.840  0.999  0.999  0.999
    eigenvectors:
  0.000  0.000  0.000  0.000  1.000
  0.643  0.003  0.325  0.029  0.000
  0.003  0.643  0.029  0.325  0.000
  0.153  0.201  0.499  0.147  0.000
  0.201  0.153  0.147  0.499  0.000
    occupations:
  0.999  0.000  0.000  0.000  0.000
  0.000  0.896  0.000  0.054  0.054
  0.000  0.000  0.896  0.054 -0.054
  0.000  0.054  0.054  0.943  0.000
  0.000  0.054 -0.054  0.000  0.943
   spin  2
    eigenvalues: 
  0.460  0.460  0.726  0.785  0.785
    eigenvectors:
  0.000  0.000  1.000  0.000  0.000
  0.505  0.130  0.000  0.188  0.177
  0.130  0.505  0.000  0.177  0.188
  0.021  0.344  0.000  0.446  0.188
  0.344  0.021  0.000  0.188  0.446
    occupations:
  0.726  0.000  0.000  0.000  0.000
  0.000  0.579  0.000  0.035  0.153
  0.000  0.000  0.579  0.153 -0.035
  0.000  0.035  0.153  0.666  0.000
  0.000  0.153 -0.035  0.000  0.666
atomic mag. moment =     1.460633
atom    3   Tr[ns(na)] (up, down, total) =   1.91432  1.89996  3.81428
   spin  1
    eigenvalues: 
  0.357  0.357  0.387  0.407  0.407
    eigenvectors:
  0.000  0.000  1.000  0.000  0.000
  0.787  0.137  0.000  0.011  0.065
  0.137  0.787  0.000  0.065  0.011
  0.012  0.064  0.000  0.785  0.139
  0.064  0.012  0.000  0.139  0.785
    occupations:
  0.387  0.000  0.000  0.000  0.000
  0.000  0.361  0.000  0.000  0.013
  0.000  0.000  0.361  0.013  0.000
  0.000  0.000  0.013  0.403  0.000
  0.000  0.013  0.000  0.000  0.403
   spin  2
    eigenvalues: 
  0.353  0.353  0.387  0.404  0.404
    eigenvectors:
  0.000  0.000  1.000  0.000  0.000
  0.765  0.145  0.000  0.013  0.077
  0.145  0.765  0.000  0.077  0.013
  0.016  0.074  0.000  0.767  0.143
  0.074  0.016  0.000  0.143  0.767
    occupations:
  0.387  0.000  0.000  0.000  0.000
  0.000  0.357  0.000  0.000  0.015
  0.000  0.000  0.357  0.015  0.000
  0.000  0.000  0.015  0.399  0.000
  0.000  0.015  0.000  0.000  0.399
atomic mag. moment =     0.014352
atom    4   Tr[ns(na)] (up, down, total) =   1.91432  1.89996  3.81428
   spin  1
    eigenvalues: 
  0.357  0.357  0.387  0.407  0.407
    eigenvectors:
  0.000  0.000  1.000  0.000  0.000
  0.787  0.137  0.000  0.011  0.065
  0.137  0.787  0.000  0.065  0.011
  0.012  0.064  0.000  0.785  0.139
  0.064  0.012  0.000  0.139  0.785
    occupations:
  0.387  0.000  0.000  0.000  0.000
  0.000  0.361  0.000  0.000  0.013
  0.000  0.000  0.361  0.013  0.000
  0.000  0.000  0.013  0.403  0.000
  0.000  0.013  0.000  0.000  0.403
   spin  2
    eigenvalues: 
  0.353  0.353  0.387  0.404  0.404
    eigenvectors:
  0.000  0.000  1.000  0.000  0.000
  0.766  0.145  0.000  0.013  0.077
  0.145  0.766  0.000  0.077  0.013
  0.015  0.074  0.000  0.767  0.143
  0.074  0.015  0.000  0.143  0.767
    occupations:
  0.387  0.000  0.000  0.000  0.000
  0.000  0.357  0.000  0.000  0.015
  0.000  0.000  0.357  0.015  0.000
  0.000  0.000  0.015  0.399  0.000
  0.000  0.015  0.000  0.000  0.399
atomic mag. moment =     0.014352
atom    5   Tr[ns(na)] (up, down, total) =   2.74188  2.70215  5.44403
   spin  1
    eigenvalues: 
  0.843  0.947  0.951
    eigenvectors:
  0.337  0.000  0.663
  0.485  0.257  0.257
  0.178  0.743  0.079
    occupations:
  0.915  0.044  0.026
  0.044  0.898 -0.030
  0.026 -0.030  0.929
   spin  2
    eigenvalues: 
  0.863  0.919  0.919
    eigenvectors:
  0.333  0.044  0.623
  0.483  0.401  0.116
  0.183  0.555  0.261
    occupations:
  0.901  0.022  0.014
  0.022  0.892 -0.017
  0.014 -0.017  0.909
atomic mag. moment =     0.039722
atom    6   Tr[ns(na)] (up, down, total) =   2.74188  2.70215  5.44403
   spin  1
    eigenvalues: 
  0.843  0.947  0.951
    eigenvectors:
  0.337  0.000  0.663
  0.000  1.000  0.000
  0.663  0.000  0.337
    occupations:
  0.915  0.001 -0.051
  0.001  0.947  0.001
 -0.051  0.001  0.880
   spin  2
    eigenvalues: 
  0.863  0.919  0.919
    eigenvectors:
  0.333  0.044  0.623
  0.001  0.925  0.074
  0.666  0.031  0.303
    occupations:
  0.901  0.001 -0.026
  0.001  0.919  0.001
 -0.026  0.001  0.882
atomic mag. moment =     0.039722
atom    7   Tr[ns(na)] (up, down, total) =   2.74188  2.70215  5.44403
   spin  1
    eigenvalues: 
  0.843  0.947  0.951
    eigenvectors:
  0.337  0.000  0.663
  0.509  0.243  0.248
  0.154  0.757  0.089
    occupations:
  0.915 -0.045  0.025
 -0.045  0.895  0.029
  0.025  0.029  0.932
   spin  2
    eigenvalues: 
  0.863  0.919  0.919
    eigenvectors:
  0.333  0.044  0.623
  0.516  0.108  0.376
  0.150  0.848  0.002
    occupations:
  0.901 -0.023  0.013
 -0.023  0.891  0.016
  0.013  0.016  0.911
atomic mag. moment =     0.039722
atom    8   Tr[ns(na)] (up, down, total) =   2.74188  2.70215  5.44403
   spin  1
    eigenvalues: 
  0.843  0.947  0.951
    eigenvectors:
  0.337  0.000  0.663
  0.000  1.000  0.000
  0.663  0.000  0.337
    occupations:
  0.915  0.001 -0.051
  0.001  0.947  0.001
 -0.051  0.001  0.880
   spin  2
    eigenvalues: 
  0.863  0.919  0.919
    eigenvectors:
  0.333  0.044  0.623
  0.001  0.925  0.074
  0.666  0.031  0.303
    occupations:
  0.901  0.001 -0.026
  0.001  0.919  0.001
 -0.026  0.001  0.882
atomic mag. moment =     0.039722
atom    9   Tr[ns(na)] (up, down, total) =   2.74188  2.70215  5.44403
   spin  1
    eigenvalues: 
  0.843  0.947  0.951
    eigenvectors:
  0.337  0.000  0.663
  0.485  0.257  0.257
  0.178  0.743  0.079
    occupations:
  0.915  0.044  0.026
  0.044  0.898 -0.030
  0.026 -0.030  0.929
   spin  2
    eigenvalues: 
  0.863  0.919  0.919
    eigenvectors:
  0.333  0.044  0.623
  0.483  0.401  0.116
  0.183  0.555  0.261
    occupations:
  0.901  0.022  0.014
  0.022  0.892 -0.017
  0.014 -0.017  0.909
atomic mag. moment =     0.039722
atom   10   Tr[ns(na)] (up, down, total) =   2.74188  2.70215  5.44403
   spin  1
    eigenvalues: 
  0.843  0.947  0.951
    eigenvectors:
  0.337  0.000  0.663
  0.509  0.243  0.248
  0.154  0.757  0.089
    occupations:
  0.915 -0.045  0.025
 -0.045  0.895  0.029
  0.025  0.029  0.932
   spin  2
    eigenvalues: 
  0.863  0.919  0.919
    eigenvectors:
  0.333  0.044  0.623
  0.516  0.108  0.376
  0.150  0.848  0.002
    occupations:
  0.901 -0.023  0.013
 -0.023  0.891  0.016
  0.013  0.016  0.911
atomic mag. moment =     0.039722
N of occupied +U levels =  56.1445702
 --- exit write_ns ---
 --- in v_hubbard ---
Hubbard energy   -0.0585
 -------

     total cpu time spent up to now is      171.9 secs

     total energy              =    -538.41382736 Ry
     Harris-Foulkes estimate   =    -538.41381299 Ry
     estimated scf accuracy    <       0.00001371 Ry

     total magnetization       =     3.52 Bohr mag/cell
     absolute magnetization    =     3.67 Bohr mag/cell

     iteration #  7     ecut=    30.00 Ry     beta=0.20
     Davidson diagonalization with overlap
     ethr =  1.03E-08,  avg # of iterations =  1.1
 --- enter write_ns ---
 LDA+U parameters:
U( 1)     =  0.00000000
alpha( 1) = -0.10000000
U( 2)     =  0.00000000
alpha( 2) =  0.00000000
U( 3)     =  0.00000000
alpha( 3) =  0.00000000
U( 4)     =  0.00000000
alpha( 4) =  0.00000000
atom    1   Tr[ns(na)] (up, down, total) =   4.55526  3.40223  7.95749
   spin  1
    eigenvalues: 
  0.780  0.780  0.999  0.999  0.999
    eigenvectors:
  0.000  0.000  0.000  0.000  1.000
  0.422  0.224  0.055  0.299  0.000
  0.224  0.422  0.299  0.055  0.000
  0.346  0.008  0.556  0.090  0.000
  0.008  0.346  0.090  0.556  0.000
    occupations:
  0.999  0.000  0.000  0.000  0.000
  0.000  0.857  0.000 -0.074  0.074
  0.000  0.000  0.857  0.074  0.074
  0.000 -0.074  0.074  0.921  0.000
  0.000  0.074  0.074  0.000  0.921
   spin  2
    eigenvalues: 
  0.478  0.478  0.781  0.833  0.833
    eigenvectors:
  0.000  0.000  1.000  0.000  0.000
  0.278  0.362  0.000  0.033  0.327
  0.362  0.278  0.000  0.327  0.033
  0.278  0.082  0.000  0.477  0.163
  0.082  0.278  0.000  0.163  0.477
    occupations:
  0.781  0.000  0.000  0.000  0.000
  0.000  0.606  0.000 -0.037  0.166
  0.000  0.000  0.606  0.166  0.037
  0.000 -0.037  0.166  0.705  0.000
  0.000  0.166  0.037  0.000  0.705
atomic mag. moment =     1.153033
atom    2   Tr[ns(na)] (up, down, total) =   4.67848  3.21766  7.89615
   spin  1
    eigenvalues: 
  0.841  0.841  0.999  0.999  0.999
    eigenvectors:
  0.000  0.000  0.000  0.000  1.000
  0.643  0.003  0.325  0.029  0.000
  0.003  0.643  0.029  0.325  0.000
  0.152  0.202  0.499  0.147  0.000
  0.202  0.152  0.147  0.499  0.000
    occupations:
  0.999  0.000  0.000  0.000  0.000
  0.000  0.897  0.000  0.053  0.053
  0.000  0.000  0.897  0.053 -0.053
  0.000  0.053  0.053  0.943  0.000
  0.000  0.053 -0.053  0.000  0.943
   spin  2
    eigenvalues: 
  0.460  0.460  0.727  0.785  0.785
    eigenvectors:
  0.000  0.000  1.000  0.000  0.000
  0.504  0.131  0.000  0.188  0.177
  0.131  0.504  0.000  0.177  0.188
  0.022  0.343  0.000  0.447  0.188
  0.343  0.022  0.000  0.188  0.447
    occupations:
  0.727  0.000  0.000  0.000  0.000
  0.000  0.579  0.000  0.035  0.153
  0.000  0.000  0.579  0.153 -0.035
  0.000  0.035  0.153  0.667  0.000
  0.000  0.153 -0.035  0.000  0.667
atomic mag. moment =     1.460824
atom    3   Tr[ns(na)] (up, down, total) =   1.91423  1.89986  3.81410
   spin  1
    eigenvalues: 
  0.357  0.357  0.387  0.407  0.407
    eigenvectors:
  0.000  0.000  1.000  0.000  0.000
  0.787  0.138  0.000  0.011  0.065
  0.138  0.787  0.000  0.065  0.011
  0.012  0.064  0.000  0.785  0.139
  0.064  0.012  0.000  0.139  0.785
    occupations:
  0.387  0.000  0.000  0.000  0.000
  0.000  0.361  0.000  0.000  0.013
  0.000  0.000  0.361  0.013  0.000
  0.000  0.000  0.013  0.403  0.000
  0.000  0.013  0.000  0.000  0.403
   spin  2
    eigenvalues: 
  0.353  0.353  0.387  0.404  0.404
    eigenvectors:
  0.000  0.000  1.000  0.000  0.000
  0.766  0.145  0.000  0.013  0.077
  0.145  0.766  0.000  0.077  0.013
  0.015  0.074  0.000  0.767  0.143
  0.074  0.015  0.000  0.143  0.767
    occupations:
  0.387  0.000  0.000  0.000  0.000
  0.000  0.357  0.000  0.000  0.015
  0.000  0.000  0.357  0.015  0.000
  0.000  0.000  0.015  0.399  0.000
  0.000  0.015  0.000  0.000  0.399
atomic mag. moment =     0.014372
atom    4   Tr[ns(na)] (up, down, total) =   1.91423  1.89986  3.81410
   spin  1
    eigenvalues: 
  0.357  0.357  0.387  0.407  0.407
    eigenvectors:
  0.000  0.000  1.000  0.000  0.000
  0.787  0.138  0.000  0.011  0.065
  0.138  0.787  0.000  0.065  0.011
  0.012  0.064  0.000  0.785  0.139
  0.064  0.012  0.000  0.139  0.785
    occupations:
  0.387  0.000  0.000  0.000  0.000
  0.000  0.361  0.000  0.000  0.013
  0.000  0.000  0.361  0.013  0.000
  0.000  0.000  0.013  0.403  0.000
  0.000  0.013  0.000  0.000  0.403
   spin  2
    eigenvalues: 
  0.353  0.353  0.387  0.404  0.404
    eigenvectors:
  0.000  0.000  1.000  0.000  0.000
  0.765  0.145  0.000  0.013  0.077
  0.145  0.765  0.000  0.077  0.013
  0.015  0.074  0.000  0.767  0.143
  0.074  0.015  0.000  0.143  0.767
    occupations:
  0.387  0.000  0.000  0.000  0.000
  0.000  0.357  0.000  0.000  0.015
  0.000  0.000  0.357  0.015  0.000
  0.000  0.000  0.015  0.399  0.000
  0.000  0.015  0.000  0.000  0.399
atomic mag. moment =     0.014372
atom    5   Tr[ns(na)] (up, down, total) =   2.74183  2.70198  5.44381
   spin  1
    eigenvalues: 
  0.843  0.947  0.951
    eigenvectors:
  0.337  0.000  0.663
  0.485  0.257  0.258
  0.178  0.742  0.079
    occupations:
  0.915  0.044  0.026
  0.044  0.898 -0.030
  0.026 -0.030  0.929
   spin  2
    eigenvalues: 
  0.863  0.919  0.919
    eigenvectors:
  0.334  0.040  0.626
  0.483  0.396  0.121
  0.183  0.564  0.253
    occupations:
  0.901  0.022  0.014
  0.022  0.892 -0.017
  0.014 -0.017  0.909
atomic mag. moment =     0.039841
atom    6   Tr[ns(na)] (up, down, total) =   2.74183  2.70198  5.44381
   spin  1
    eigenvalues: 
  0.843  0.947  0.951
    eigenvectors:
  0.337  0.000  0.663
  0.000  1.000  0.000
  0.663  0.000  0.337
    occupations:
  0.915  0.001 -0.051
  0.001  0.947  0.001
 -0.051  0.001  0.880
   spin  2
    eigenvalues: 
  0.863  0.919  0.919
    eigenvectors:
  0.334  0.040  0.626
  0.001  0.931  0.069
  0.666  0.029  0.305
    occupations:
  0.901  0.001 -0.026
  0.001  0.919  0.001
 -0.026  0.001  0.882
atomic mag. moment =     0.039841
atom    7   Tr[ns(na)] (up, down, total) =   2.74183  2.70198  5.44381
   spin  1
    eigenvalues: 
  0.843  0.947  0.951
    eigenvectors:
  0.337  0.000  0.663
  0.510  0.243  0.248
  0.154  0.757  0.089
    occupations:
  0.915 -0.045  0.025
 -0.045  0.895  0.029
  0.025  0.029  0.932
   spin  2
    eigenvalues: 
[...]
     0.0937   0.0937   0.0937   0.0937   0.0937   0.0937   0.0936   0.0869
     0.0063   0.0000   0.0000   0.0000   0.0000   0.0000

          k = 0.4942-0.5706-0.2053 (  2206 PWs)   bands (ev):

   -19.6755 -19.6754  -6.8655  -6.8615  -6.0139  -6.0122  -5.4076  -5.4056
    -3.1209  -3.1206  -2.7792  -2.7786  -2.3536  -2.3517   5.9144   5.9483
     6.7861   6.8396   6.8822   6.8986   7.3553   7.3568   7.8705   7.9429
     8.7513   8.7620   8.8711   8.8797   9.4730   9.4966   9.9671   9.9940
    10.6040  10.6725  10.7794  10.8917  11.0798  11.1504  11.4228  11.4902
    13.3041  13.3636  17.4311  17.4317  17.8803  17.8824

     occupation numbers 
     0.0938   0.0938   0.0938   0.0938   0.0938   0.0938   0.0938   0.0938
     0.0938   0.0938   0.0938   0.0938   0.0938   0.0938   0.0938   0.0938
     0.0938   0.0938   0.0938   0.0938   0.0938   0.0938   0.0938   0.0938
     0.0938   0.0938   0.0938   0.0938   0.0938   0.0938   0.0937   0.0937
     0.0937   0.0937   0.0937   0.0937   0.0937   0.0937   0.0936   0.0935
     0.0000   0.0000   0.0000   0.0000   0.0000   0.0000

          k = 0.0000 0.0000-0.6160 (  2186 PWs)   bands (ev):

   -19.6777 -19.6768  -6.4939  -6.4834  -5.9180  -5.9180  -5.9135  -5.9135
    -2.8566  -2.8566  -2.8538  -2.8538  -2.6807  -2.6806   6.2809   6.2936
     6.8948   6.8948   6.9891   6.9891   7.6506   7.6989   7.8270   7.8270
     7.8843   7.8843   9.5382   9.5382   9.5813   9.5813   9.6705   9.6976
    10.6479  10.8209  10.8209  10.9211  11.0633  11.0633  12.3975  12.3975
    12.6683  12.6683  17.1195  17.1195  17.1212  17.1212

     occupation numbers 
     0.0156   0.0156   0.0156   0.0156   0.0156   0.0156   0.0156   0.0156
     0.0156   0.0156   0.0156   0.0156   0.0156   0.0156   0.0156   0.0156
     0.0156   0.0156   0.0156   0.0156   0.0156   0.0156   0.0156   0.0156
     0.0156   0.0156   0.0156   0.0156   0.0156   0.0156   0.0156   0.0156
     0.0156   0.0156   0.0156   0.0156   0.0156   0.0156   0.0054   0.0054
     0.0014   0.0014   0.0000   0.0000   0.0000   0.0000

          k = 0.4942-0.5706 0.1027 (  2198 PWs)   bands (ev):

   -19.6965 -19.6564  -6.9390  -6.6263  -6.1072  -5.8683  -5.4923  -5.3635
    -3.2694  -3.2210  -2.8439  -2.6745  -2.4951  -2.3549   5.8181   6.1286
     6.6084   6.7132   7.0680   7.2592   7.4013   7.6009   7.7019   7.8456
     8.1646   8.7201   8.9876   9.2110   9.5014   9.7372   9.8528  10.2851
    10.3859  10.7293  10.8891  10.9741  11.0967  11.1985  11.5353  11.9008
    12.7204  13.7136  16.9167  17.1149  17.3189  18.0265

     occupation numbers 
     0.0938   0.0938   0.0938   0.0938   0.0938   0.0938   0.0938   0.0938
     0.0938   0.0938   0.0938   0.0938   0.0938   0.0938   0.0938   0.0938
     0.0938   0.0938   0.0938   0.0938   0.0938   0.0938   0.0938   0.0938
     0.0938   0.0938   0.0938   0.0938   0.0938   0.0938   0.0938   0.0937
     0.0937   0.0937   0.0937   0.0937   0.0937   0.0937   0.0933   0.0849
     0.0060   0.0000   0.0000   0.0000   0.0000   0.0000

 ------ SPIN DOWN ----------


          k = 0.0000 0.0000 0.0000 (  2175 PWs)   bands (ev):

   -19.7635 -19.5904  -6.4400  -5.7187  -5.7187  -5.7145  -5.7145  -5.3672
    -3.7225  -3.2336  -3.1281  -3.1281  -2.9769  -2.9769   5.2470   7.2363
     7.2363   7.5826   7.5826   7.7757   8.0076   8.0076   8.0518   9.4320
     9.7416   9.7416  10.0539  10.1091  10.1091  10.5875  10.5875  10.7845
    11.1778  11.1778  11.2681  12.1179  12.1179  12.6710  12.9928  12.9928
    15.3480  15.3480  15.4953  15.4953  16.2180  16.8213

     occupation numbers 
     0.0156   0.0156   0.0156   0.0156   0.0156   0.0156   0.0156   0.0156
     0.0156   0.0156   0.0156   0.0156   0.0156   0.0156   0.0156   0.0156
     0.0156   0.0156   0.0156   0.0156   0.0156   0.0156   0.0156   0.0156
     0.0156   0.0156   0.0156   0.0156   0.0156   0.0156   0.0156   0.0156
     0.0156   0.0156   0.0156   0.0111   0.0111   0.0014   0.0001   0.0001
     0.0000   0.0000   0.0000   0.0000   0.0000   0.0000

          k =-0.2471-0.1427 0.1027 (  2181 PWs)   bands (ev):

   -19.7356 -19.6137  -6.6267  -6.1896  -5.8308  -5.7396  -5.4948  -5.3582
    -3.5377  -3.3439  -2.8674  -2.8458  -2.7784  -2.7051   5.6127   6.9500
     7.3054   7.3227   7.4570   7.6709   7.6772   8.0115   8.0313   8.8020
     8.8691   9.5113   9.7963   9.9920  10.0509  10.1810  10.5297  10.5392
    11.5104  11.5547  11.6100  12.3109  12.3535  12.4849  13.1371  13.1839
    14.9115  14.9251  15.8865  16.1277  17.0105  17.3132

     occupation numbers 
     0.0938   0.0938   0.0938   0.0938   0.0938   0.0938   0.0938   0.0938
     0.0938   0.0938   0.0938   0.0938   0.0938   0.0938   0.0938   0.0938
     0.0938   0.0938   0.0938   0.0938   0.0938   0.0938   0.0938   0.0938
     0.0938   0.0938   0.0938   0.0937   0.0937   0.0937   0.0937   0.0937
     0.0934   0.0932   0.0928   0.0430   0.0375   0.0225   0.0001   0.0001
     0.0000   0.0000   0.0000   0.0000   0.0000   0.0000

          k = 0.4942 0.2853-0.2053 (  2202 PWs)   bands (ev):

   -19.6728 -19.6720  -6.6299  -6.6206  -5.8566  -5.8485  -5.4048  -5.3973
    -3.3343  -3.3301  -2.7246  -2.7208  -2.4525  -2.4504   6.1619   6.1620
     7.3853   7.4473   7.4565   7.5302   7.8242   7.8745   8.1232   8.1681
     8.3800   8.4322   9.6998   9.7246  10.0235  10.0261  10.4432  10.4444
    11.8963  11.9929  11.9948  12.0881  12.1483  12.2297  13.9016  13.9715
    14.0598  14.1291  16.8872  16.8927  17.1845  17.1890

     occupation numbers 
     0.0469   0.0469   0.0469   0.0469   0.0469   0.0469   0.0469   0.0469
     0.0469   0.0469   0.0469   0.0469   0.0469   0.0469   0.0469   0.0469
     0.0469   0.0469   0.0469   0.0469   0.0469   0.0469   0.0469   0.0469
     0.0469   0.0469   0.0469   0.0469   0.0469   0.0469   0.0469   0.0469
     0.0426   0.0394   0.0393   0.0350   0.0317   0.0267   0.0000   0.0000
     0.0000   0.0000   0.0000   0.0000   0.0000   0.0000

          k =-0.2471 0.1427 0.2053 (  2195 PWs)   bands (ev):

   -19.7309 -19.6164  -6.7549  -6.1320  -5.9641  -5.7168  -5.5409  -5.3322
    -3.3620  -3.2237  -3.0410  -2.8262  -2.7450  -2.4994   5.6624   6.9764
     7.2327   7.2738   7.3794   7.5587   7.6417   8.0430   8.0657   8.8291
     9.0936   9.0980   9.4613   9.9554  10.1222  10.2524  10.3320  10.4539
    11.1980  11.8312  11.9358  12.0051  12.3717  12.4936  12.9143  13.4727
    14.2884  15.3853  16.0388  16.2484  17.0800  17.5782

     occupation numbers 
     0.0938   0.0938   0.0938   0.0938   0.0938   0.0938   0.0938   0.0938
     0.0938   0.0938   0.0938   0.0938   0.0938   0.0938   0.0938   0.0938
     0.0938   0.0938   0.0938   0.0938   0.0938   0.0938   0.0938   0.0938
     0.0938   0.0938   0.0938   0.0937   0.0937   0.0937   0.0937   0.0937
     0.0937   0.0881   0.0829   0.0778   0.0353   0.0216   0.0013   0.0000
     0.0000   0.0000   0.0000   0.0000   0.0000   0.0000

          k = 0.4942 0.5706-0.1027 (  2198 PWs)   bands (ev):

   -19.6911 -19.6512  -6.8608  -6.5504  -6.0328  -5.7884  -5.3874  -5.2512
    -3.2605  -3.2110  -2.8199  -2.6466  -2.4633  -2.3217   6.0193   6.3969
     7.0282   7.2841   7.3791   7.4702   7.7274   7.9901   8.1239   8.2458
     8.5332   9.0703   9.3288   9.5125   9.8506   9.9667  10.1270  10.5166
    11.5831  11.9615  12.0846  12.1683  12.3069  12.3285  13.1232  13.4770
    14.1125  14.9779  16.9547  17.1767  17.3652  18.0670

     occupation numbers 
     0.0938   0.0938   0.0938   0.0938   0.0938   0.0938   0.0938   0.0938
     0.0938   0.0938   0.0938   0.0938   0.0938   0.0938   0.0938   0.0938
     0.0938   0.0938   0.0938   0.0938   0.0938   0.0938   0.0938   0.0938
     0.0938   0.0938   0.0938   0.0938   0.0938   0.0937   0.0937   0.0937
     0.0930   0.0811   0.0704   0.0611   0.0435   0.0407   0.0002   0.0000
     0.0000   0.0000   0.0000   0.0000   0.0000   0.0000

          k = 0.2471 0.4280 0.0000 (  2203 PWs)   bands (ev):

   -19.7008 -19.6435  -6.7507  -6.5420  -5.9503  -5.8752  -5.3130  -5.2386
    -3.4671  -3.2548  -2.7420  -2.6489  -2.5075  -2.4916   5.9765   6.4204
     7.2436   7.3761   7.4266   7.5151   7.5643   7.8963   8.0057   8.3698
     8.6260   9.1013   9.5595   9.6691   9.9374   9.9458  10.2097  10.5283
    11.8446  11.8606  11.9275  12.1221  12.1541  12.4238  13.0896  13.9360
    14.1055  14.7848  16.4968  17.0460  17.4637  17.9690

     occupation numbers 
     0.0938   0.0938   0.0938   0.0938   0.0938   0.0938   0.0938   0.0938
     0.0938   0.0938   0.0938   0.0938   0.0938   0.0938   0.0938   0.0938
     0.0938   0.0938   0.0938   0.0938   0.0938   0.0938   0.0938   0.0938
     0.0938   0.0938   0.0938   0.0938   0.0937   0.0937   0.0937   0.0937
     0.0876   0.0869   0.0834   0.0664   0.0628   0.0291   0.0002   0.0000
     0.0000   0.0000   0.0000   0.0000   0.0000   0.0000

          k = 0.4942-0.2853-0.4107 (  2202 PWs)   bands (ev):

   -19.6978 -19.6421  -7.0737  -6.3643  -6.1475  -5.8478  -5.4154  -5.1533
    -3.1519  -3.0896  -2.9904  -2.5887  -2.4125  -2.1589   5.9364   6.5037
     6.5962   7.2195   7.2252   7.3243   8.0679   8.1384   8.2552   8.3694
     8.7122   8.8307   8.8504   9.5425   9.7772  10.1543  10.1794  10.5961
    11.1800  11.8629  11.9865  12.2221  12.3581  12.4374  12.8502  13.2370
    14.0369  15.4076  17.0848  17.3352  17.5648  17.6315

     occupation numbers 
     0.0469   0.0469   0.0469   0.0469   0.0469   0.0469   0.0469   0.0469
     0.0469   0.0469   0.0469   0.0469   0.0469   0.0469   0.0469   0.0469
     0.0469   0.0469   0.0469   0.0469   0.0469   0.0469   0.0469   0.0469
     0.0469   0.0469   0.0469   0.0469   0.0469   0.0469   0.0469   0.0469
     0.0469   0.0434   0.0397   0.0272   0.0185   0.0138   0.0011   0.0000
     0.0000   0.0000   0.0000   0.0000   0.0000   0.0000

          k = 0.0000 0.0000 0.3080 (  2187 PWs)   bands (ev):

   -19.7354 -19.6135  -6.5124  -5.8754  -5.8185  -5.8185  -5.7305  -5.7305
    -3.1494  -3.0387  -3.0387  -2.9287  -2.8355  -2.8355   5.6641   7.2052
     7.3056   7.3056   7.5489   7.5489   7.6749   8.0402   8.0402   9.0412
     9.0412   9.5777   9.5784   9.8498   9.8498  10.0578  10.2904  10.2904
    11.6252  11.6252  11.6448  12.3270  12.3270  12.5036  13.1160  13.1160
    14.8735  14.8735  15.9743  15.9743  16.9110  17.5354

     occupation numbers 
     0.0313   0.0313   0.0313   0.0313   0.0313   0.0313   0.0313   0.0313
     0.0313   0.0313   0.0313   0.0313   0.0313   0.0313   0.0313   0.0313
     0.0313   0.0313   0.0313   0.0313   0.0313   0.0313   0.0313   0.0313
     0.0313   0.0313   0.0313   0.0313   0.0313   0.0312   0.0312   0.0312
     0.0309   0.0309   0.0308   0.0136   0.0136   0.0069   0.0001   0.0001
     0.0000   0.0000   0.0000   0.0000   0.0000   0.0000

          k = 0.7412 0.4280 0.0000 (  2204 PWs)   bands (ev):

   -19.7006 -19.6433  -6.6346  -6.5055  -6.0465  -5.7226  -5.5622  -5.4262
    -3.1150  -3.0368  -2.9973  -2.6141  -2.5992  -2.5157   6.0224   6.6071
     7.2518   7.4139   7.4249   7.5292   7.5667   7.8490   8.1901   8.3473
     8.6698   8.9768   9.6331   9.6557   9.7590   9.8279  10.0295  10.3742
    11.8404  11.8636  11.9913  12.1367  12.1979  12.3872  13.0821  13.8601
    14.0299  14.8110  16.7586  16.7676  17.6350  17.8511

     occupation numbers 
     0.0938   0.0938   0.0938   0.0938   0.0938   0.0938   0.0938   0.0938
     0.0938   0.0938   0.0938   0.0938   0.0938   0.0938   0.0938   0.0938
     0.0938   0.0938   0.0938   0.0938   0.0938   0.0938   0.0938   0.0938
     0.0938   0.0938   0.0938   0.0938   0.0938   0.0938   0.0937   0.0937
     0.0878   0.0868   0.0789   0.0648   0.0574   0.0334   0.0003   0.0000
     0.0000   0.0000   0.0000   0.0000   0.0000   0.0000

          k = 0.4942 0.2853 0.1027 (  2211 PWs)   bands (ev):

   -19.6912 -19.6512  -6.8773  -6.4469  -6.2272  -5.5824  -5.5104  -5.2252
    -3.2743  -3.1228  -2.9728  -2.5440  -2.4964  -2.3133   6.0443   6.3719
     6.9926   7.2875   7.3348   7.4436   7.7219   8.0301   8.1865   8.2191
     8.5777   9.1987   9.3326   9.5663   9.7207   9.8249  10.1841  10.5313
    11.5805  12.0186  12.1101  12.1960  12.2517  12.2732  13.0861  13.4865
    14.1564  14.9630  16.9434  16.9804  17.6458  17.9825

     occupation numbers 
     0.0938   0.0938   0.0938   0.0938   0.0938   0.0938   0.0938   0.0938
     0.0938   0.0938   0.0938   0.0938   0.0938   0.0938   0.0938   0.0938
     0.0938   0.0938   0.0938   0.0938   0.0938   0.0938   0.0938   0.0938
     0.0938   0.0938   0.0938   0.0938   0.0938   0.0938   0.0937   0.0937
     0.0930   0.0767   0.0677   0.0577   0.0506   0.0478   0.0002   0.0000
     0.0000   0.0000   0.0000   0.0000   0.0000   0.0000

          k = 0.7412-0.4280-0.3080 (  2210 PWs)   bands (ev):

   -19.6909 -19.6510  -6.8132  -6.3533  -6.2046  -5.6887  -5.6455  -5.3579
    -3.0209  -2.9953  -2.9191  -2.6710  -2.5522  -2.3651   6.1073   6.5281
     7.0757   7.2710   7.3866   7.3975   7.7403   8.0740   8.2107   8.2571
     8.5743   9.1649   9.1808   9.6704   9.7039   9.7628   9.8278  10.3702
    11.6316  12.0220  12.0993  12.1820  12.2896  12.3420  13.0477  13.4452
    14.1086  14.9294  17.1166  17.1275  17.6131  17.9526

     occupation numbers 
     0.0938   0.0938   0.0938   0.0938   0.0938   0.0938   0.0938   0.0938
     0.0938   0.0938   0.0938   0.0938   0.0938   0.0938   0.0938   0.0938
     0.0938   0.0938   0.0938   0.0938   0.0938   0.0938   0.0938   0.0938
     0.0938   0.0938   0.0938   0.0938   0.0938   0.0938   0.0938   0.0937
     0.0926   0.0764   0.0689   0.0594   0.0457   0.0390   0.0004   0.0000
     0.0000   0.0000   0.0000   0.0000   0.0000   0.0000

          k = 0.4942-0.5706-0.2053 (  2206 PWs)   bands (ev):

   -19.6702 -19.6701  -6.7899  -6.7853  -5.9366  -5.9348  -5.2997  -5.2964
    -3.1133  -3.1130  -2.7534  -2.7529  -2.3197  -2.3171   6.2065   6.2563
     7.1556   7.1664   7.3282   7.3465   7.5646   7.5869   8.3987   8.4617
     8.9248   8.9286   9.2264   9.2278   9.6993   9.7096  10.2662  10.2715
    11.8339  11.8489  12.0015  12.0683  12.3268  12.3644  13.1031  13.1327
    14.6374  14.6613  17.4954  17.4962  17.9103  17.9123

     occupation numbers 
     0.0938   0.0938   0.0938   0.0938   0.0938   0.0938   0.0938   0.0938
     0.0938   0.0938   0.0938   0.0938   0.0938   0.0938   0.0938   0.0938
     0.0938   0.0938   0.0938   0.0938   0.0938   0.0938   0.0938   0.0938
     0.0938   0.0938   0.0938   0.0938   0.0938   0.0938   0.0937   0.0937
     0.0880   0.0874   0.0781   0.0721   0.0409   0.0362   0.0002   0.0001
     0.0000   0.0000   0.0000   0.0000   0.0000   0.0000

          k = 0.0000 0.0000-0.6160 (  2186 PWs)   bands (ev):

   -19.6724 -19.6715  -6.4140  -6.4019  -5.8342  -5.8342  -5.8275  -5.8275
    -2.8247  -2.8247  -2.8205  -2.8205  -2.6640  -2.6635   6.3767   6.3768
     7.4010   7.4010   7.4757   7.4757   7.9819   8.0212   8.2883   8.2883
     8.3411   8.3411   9.8074   9.8074   9.8170   9.8170   9.8597   9.8662
    12.0450  12.0754  12.0754  12.1382  12.1614  12.1614  13.8350  13.8350
    13.9969  13.9969  17.1772  17.1772  17.1826  17.1826

     occupation numbers 
     0.0156   0.0156   0.0156   0.0156   0.0156   0.0156   0.0156   0.0156
     0.0156   0.0156   0.0156   0.0156   0.0156   0.0156   0.0156   0.0156
     0.0156   0.0156   0.0156   0.0156   0.0156   0.0156   0.0156   0.0156
     0.0156   0.0156   0.0156   0.0156   0.0156   0.0156   0.0156   0.0156
     0.0124   0.0119   0.0119   0.0108   0.0103   0.0103   0.0000   0.0000
     0.0000   0.0000   0.0000   0.0000   0.0000   0.0000

          k = 0.4942-0.5706 0.1027 (  2198 PWs)   bands (ev):

   -19.6911 -19.6512  -6.8617  -6.5509  -6.0316  -5.7842  -5.3895  -5.2532
    -3.2616  -3.2108  -2.8195  -2.6452  -2.4641  -2.3216   6.0149   6.4042
     7.0204   7.2943   7.4105   7.4490   7.7096   7.9893   8.0839   8.2921
     8.5267   9.0806   9.3245   9.5092   9.8468   9.9712  10.1273  10.5164
    11.5791  12.0048  12.0445  12.1719  12.3070  12.3279  13.1195  13.4760
    14.1123  14.9801  16.9570  17.1745  17.3655  18.0675

     occupation numbers 
     0.0938   0.0938   0.0938   0.0938   0.0938   0.0938   0.0938   0.0938
     0.0938   0.0938   0.0938   0.0938   0.0938   0.0938   0.0938   0.0938
     0.0938   0.0938   0.0938   0.0938   0.0938   0.0938   0.0938   0.0938
     0.0938   0.0938   0.0938   0.0938   0.0938   0.0937   0.0937   0.0937
     0.0930   0.0778   0.0744   0.0606   0.0435   0.0408   0.0002   0.0000
     0.0000   0.0000   0.0000   0.0000   0.0000   0.0000

     the Fermi energy is    12.2805 ev

!    total energy              =    -538.41387141 Ry
     Harris-Foulkes estimate   =    -538.41386846 Ry
     estimated scf accuracy    <          5.3E-09 Ry

     The total energy is the sum of the following terms:

     one-electron contribution =     -32.75907068 Ry
     hartree contribution      =      83.54181622 Ry
     xc contribution           =    -199.65558314 Ry
     ewald contribution        =    -389.44315552 Ry
     Hubbard energy            =      -0.05853234 Ry
     smearing contrib. (-TS)   =      -0.03934596 Ry

     total magnetization       =     3.52 Bohr mag/cell
     absolute magnetization    =     3.67 Bohr mag/cell

     convergence has been achieved in  16 iterations

     init_run     :      7.98s CPU      8.08s WALL (       1 calls)
     electrons    :    396.94s CPU    399.65s WALL (       1 calls)

     Called by init_run:
     wfcinit      :      0.00s CPU      0.00s WALL (       1 calls)
     potinit      :      0.79s CPU      0.81s WALL (       1 calls)

     Called by electrons:
     c_bands      :    270.75s CPU    271.73s WALL (      16 calls)
     sum_band     :     80.26s CPU     80.72s WALL (      16 calls)
     v_of_rho     :     12.00s CPU     12.11s WALL (      17 calls)
     v_h          :      0.23s CPU      0.23s WALL (      17 calls)
     v_xc         :     11.78s CPU     11.88s WALL (      17 calls)
     newd         :     34.38s CPU     34.44s WALL (      17 calls)
     mix_rho      :      0.85s CPU      0.85s WALL (      16 calls)

     Called by c_bands:
     init_us_2    :      3.07s CPU      3.07s WALL (     896 calls)
     cegterg      :    262.08s CPU    262.71s WALL (     448 calls)

     Called by sum_band:
     sum_band:bec :      0.32s CPU      0.33s WALL (     448 calls)
     addusdens    :     31.95s CPU     32.03s WALL (      16 calls)

     Called by *egterg:
     h_psi        :    197.48s CPU    197.96s WALL (    1715 calls)
     s_psi        :     11.38s CPU     11.39s WALL (    1715 calls)
     g_psi        :      0.97s CPU      0.98s WALL (    1267 calls)
     cdiaghg      :     19.22s CPU     19.24s WALL (    1687 calls)
     cegterg:over :     12.48s CPU     12.50s WALL (    1267 calls)
     cegterg:upda :      8.20s CPU      8.20s WALL (    1267 calls)
     cegterg:last :      4.95s CPU      4.97s WALL (     474 calls)

     Called by h_psi:
     h_psi:vloc   :    160.71s CPU    161.16s WALL (    1715 calls)
     h_psi:vnl    :     23.34s CPU     23.33s WALL (    1715 calls)
     add_vuspsi   :     11.44s CPU     11.42s WALL (    1715 calls)
     vhpsi        :     13.00s CPU     13.06s WALL (    1715 calls)

     General routines
     calbec       :     24.87s CPU     24.89s WALL (    4326 calls)
     fft          :      4.98s CPU      5.06s WALL (     515 calls)
     ffts         :      0.16s CPU      0.19s WALL (      66 calls)
     fftw         :    158.66s CPU    159.13s WALL (  121558 calls)
     interpolate  :      0.88s CPU      0.95s WALL (      66 calls)
     davcio       :      0.01s CPU      0.65s WALL (     924 calls)

     Parallel routines
     fft_scatter  :     39.62s CPU     39.51s WALL (  122139 calls)
     Hubbard U routines
     new_ns       :      2.54s CPU      2.81s WALL (      16 calls)
     vhpsi        :     13.00s CPU     13.06s WALL (    1715 calls)

     PWSCF        :  6m45.38s CPU     6m48.22s WALL


   This run was terminated on:  12:18: 8  13Nov2012            

=------------------------------------------------------------------------------=
