   JOB DONE.
=------------------------------------------------------------------------------=

     Program PWSCF v.5.0.1 starts on 13Nov2012 at 12:26:20 

     This program is part of the open-source Quantum ESPRESSO suite
     for quantum simulation of materials; please cite
         "P. Giannozzi et al., J. Phys.:Condens. Matter 21 395502 (2009);
          URL http://www.quantum-espresso.org", 
     in publications or presentations arising from this work. More details at
     http://www.quantum-espresso.org/quote.php

     Parallel version (MPI), running on     2 processors
     R & G space division:  proc/pool =    2

     Current dimensions of program PWSCF are:
     Max number of different atomic species (ntypx) = 10
     Max number of k-points (npk) =  40000
     Max angular momentum in pseudopotentials (lmaxx) =  3
     Reading input from CoLaO_U0_a5.in
               file Co.pbe-nd-rrkjus.UPF: wavefunction(s)  4S 3D renormalized
               file Co.pbe-nd-rrkjus.UPF: wavefunction(s)  4S 3D renormalized
               file O.pbe-rrkjus.UPF: wavefunction(s)  2S renormalized

     Subspace diagonalization in iterative solution of the eigenvalue problem:
     a serial algorithm will be used


     Parallelization info
     --------------------
     sticks:   dense  smooth     PW     G-vecs:    dense   smooth      PW
     Min        1112     444    131                34808     8786    1448
     Max        1113     445    132                34809     8787    1449
     Sum        2225     889    263                69617    17573    2897


     Title: 
     GGA + U, U = 1D-40, alpha = 0.050                                          


     bravais-lattice index     =            5
     lattice parameter (alat)  =      10.3292  a.u.
     unit-cell volume          =     793.0599 (a.u.)^3
     number of atoms/cell      =           10
     number of atomic types    =            4
     number of electrons       =        76.00
     number of Kohn-Sham states=           46
     kinetic-energy cutoff     =      30.0000  Ry
     charge density cutoff     =     300.0000  Ry
     convergence threshold     =      1.0E-08
     mixing beta               =       0.2000
     number of iterations used =            8  plain     mixing
     Exchange-correlation      =  SLA  PW   PBE  PBE ( 1 4 3 4 0)
     EXX-fraction              =        0.00

     celldm(1)=  10.329242  celldm(2)=   0.000000  celldm(3)=   0.000000
     celldm(4)=   0.488100  celldm(5)=   0.000000  celldm(6)=   0.000000

     crystal axes: (cart. coord. in units of alat)
               a(1) = (   0.505915  -0.292090   0.811624 )  
               a(2) = (   0.000000   0.584180   0.811624 )  
               a(3) = (  -0.505915  -0.292090   0.811624 )  

     reciprocal axes: (cart. coord. in units 2 pi/alat)
               b(1) = (  0.988308 -0.570600  0.410699 )  
               b(2) = (  0.000000  1.141200  0.410699 )  
               b(3) = ( -0.988308 -0.570600  0.410699 )  


     PseudoPot. # 1 for Co read from file:
     /home/mcurnan/dft-course/Project1/example_LaCoO3/Co.pbe-nd-rrkjus.UPF
     MD5 check sum: 3e47a84addf5e975e0edeaeee2a73f59
     Pseudo is Ultrasoft + core correction, Zval =  9.0
     Generated by new atomic code, or converted to UPF format
     Using radial grid of  961 points,  6 beta functions with: 
                l(1) =   0
                l(2) =   0
                l(3) =   1
                l(4) =   1
                l(5) =   2
                l(6) =   2
     Q(r) pseudized with 0 coefficients 


     PseudoPot. # 2 for Co read from file:
     /home/mcurnan/dft-course/Project1/example_LaCoO3/Co.pbe-nd-rrkjus.UPF
     MD5 check sum: 3e47a84addf5e975e0edeaeee2a73f59
     Pseudo is Ultrasoft + core correction, Zval =  9.0
     Generated by new atomic code, or converted to UPF format
     Using radial grid of  961 points,  6 beta functions with: 
                l(1) =   0
                l(2) =   0
                l(3) =   1
                l(4) =   1
                l(5) =   2
                l(6) =   2
     Q(r) pseudized with 0 coefficients 


     PseudoPot. # 3 for La read from file:
     /home/mcurnan/dft-course/Project1/example_LaCoO3/La.pbe-nsp-van.UPF
     MD5 check sum: b2f11743f52dde65f77d1302becd7929
     Pseudo is Ultrasoft + core correction, Zval = 11.0
     Generated by new atomic code, or converted to UPF format
     Using radial grid of  907 points,  6 beta functions with: 
                l(1) =   0
                l(2) =   0
                l(3) =   1
                l(4) =   1
                l(5) =   2
                l(6) =   2
     Q(r) pseudized with  6 coefficients,  rinner =    1.200   1.200   1.200
                                                       1.200   1.200

     PseudoPot. # 4 for O  read from file:
     /home/mcurnan/dft-course/Project1/example_LaCoO3/O.pbe-rrkjus.UPF
     MD5 check sum: 390ba29e75625707450f3bd3f0eb6be9
     Pseudo is Ultrasoft, Zval =  6.0
     Generated by new atomic code, or converted to UPF format
     Using radial grid of 1269 points,  4 beta functions with: 
                l(1) =   0
                l(2) =   0
                l(3) =   1
                l(4) =   1
     Q(r) pseudized with 0 coefficients 


     atomic species   valence    mass     pseudopotential
        Co1            9.00     1.00000     Co( 1.00)
        Co2            9.00     1.00000     Co( 1.00)
        La1           11.00     1.00000     La( 1.00)
        O1             6.00     1.00000     O ( 1.00)

     Starting magnetic structure 
     atomic species   magnetization
        Co1          1.000
        Co2          1.000
        La1          0.000
        O1           0.000
 -----
     simplified LDA+U calculation, Hubbard_lmax = 2
     atomic species  L   Hubbard U  Hubbard alpha
        Co1          2    0.000000    0.050000
        Co2          2    0.000000    0.000000
        La1          2    0.000000    0.000000
        O1           1    0.000000    0.000000
 -----

      6 Sym. Ops., with inversion, found


                                    s                        frac. trans.

      isym =  1     identity                                     

 cryst.   s( 1) = (     1          0          0      )
                  (     0          1          0      )
                  (     0          0          1      )

 cart.    s( 1) = (  1.0000000  0.0000000  0.0000000 )
                  (  0.0000000  1.0000000  0.0000000 )
                  (  0.0000000  0.0000000  1.0000000 )


      isym =  2     120 deg rotation - cryst. axis [0,0,1]       

 cryst.   s( 2) = (     0          1          0      )
                  (     0          0          1      )
                  (     1          0          0      )

 cart.    s( 2) = ( -0.5000000 -0.8660254  0.0000000 )
                  (  0.8660254 -0.5000000  0.0000000 )
                  (  0.0000000  0.0000000  1.0000000 )


      isym =  3     120 deg rotation - cryst. axis [0,0,-1]      

 cryst.   s( 3) = (     0          0          1      )
                  (     1          0          0      )
                  (     0          1          0      )

 cart.    s( 3) = ( -0.5000000  0.8660254  0.0000000 )
                  ( -0.8660254 -0.5000000  0.0000000 )
                  (  0.0000000  0.0000000  1.0000000 )


      isym =  4     inversion                                    

 cryst.   s( 4) = (    -1          0          0      )
                  (     0         -1          0      )
                  (     0          0         -1      )

 cart.    s( 4) = ( -1.0000000  0.0000000  0.0000000 )
                  (  0.0000000 -1.0000000  0.0000000 )
                  (  0.0000000  0.0000000 -1.0000000 )


      isym =  5     inv. 180 deg rotation - cart. axis [0,1,0]   

 cryst.   s( 5) = (     0         -1          0      )
                  (     0          0         -1      )
                  (    -1          0          0      )

 cart.    s( 5) = (  0.5000000  0.8660254  0.0000000 )
                  ( -0.8660254  0.5000000  0.0000000 )
                  (  0.0000000  0.0000000 -1.0000000 )


      isym =  6     inv. 180 deg rotation - cart. axis [1,0,0]   

 cryst.   s( 6) = (     0          0         -1      )
                  (    -1          0          0      )
                  (     0         -1          0      )

 cart.    s( 6) = (  0.5000000 -0.8660254  0.0000000 )
                  (  0.8660254  0.5000000  0.0000000 )
                  (  0.0000000  0.0000000 -1.0000000 )


     point group S_6 (-3)   
     there are  6 classes
     the character table:

       E     C3    C3^2  i     S6^5  S6   
A_g    1.00  1.00  1.00  1.00  1.00  1.00
E_g    1.00 -0.50 -0.50  1.00 -0.50 -0.50
E_g*   1.00 -0.50 -0.50  1.00 -0.50 -0.50
A_u    1.00  1.00  1.00 -1.00 -1.00 -1.00
E_u    1.00 -0.50 -0.50 -1.00  0.50  0.50
E_u*   1.00 -0.50 -0.50 -1.00  0.50  0.50
     imaginary part
A_g    0.00  0.00  0.00  0.00  0.00  0.00
E_g    0.00  0.87 -0.87  0.00  0.87 -0.87
E_g*   0.00 -0.87  0.87  0.00 -0.87  0.87
A_u    0.00  0.00  0.00  0.00  0.00  0.00
E_u    0.00  0.87 -0.87  0.00 -0.87  0.87
E_u*   0.00 -0.87  0.87  0.00  0.87 -0.87

     the symmetry operations in each class:
     E        1
     C3       2
     C3^2     3
     i        4
     S6^5     5
     S6       6

   Cartesian axes

     site n.     atom                  positions (alat units)
         1           Co1 tau(   1) = (   0.0000000   0.0000000   0.0000000  )
         2           Co2 tau(   2) = (   0.0000000   0.0000000   1.2174358  )
         3           La1 tau(   3) = (   0.0000000   0.0000000   0.6087179  )
         4           La1 tau(   4) = (   0.0000000   0.0000000   1.8261537  )
         5           O1  tau(   5) = (  -0.2839701  -0.0933228   1.0141240  )
         6           O1  tau(   6) = (   0.0611651   0.2925867   1.0141240  )
         7           O1  tau(   7) = (   0.2228050  -0.1992639   1.0141240  )
         8           O1  tau(   8) = (  -0.0611651  -0.2925867   1.4207476  )
         9           O1  tau(   9) = (   0.2839701   0.0933228   1.4207476  )
        10           O1  tau(  10) = (  -0.2228050   0.1992639   1.4207476  )

   Crystallographic axes

     site n.     atom                  positions (cryst. coord.)
         1           Co1 tau(   1) = (  0.0000000  0.0000000  0.0000000  )
         2           Co2 tau(   2) = (  0.5000000  0.5000000  0.5000000  )
         3           La1 tau(   3) = (  0.2500000  0.2500000  0.2500000  )
         4           La1 tau(   4) = (  0.7500000  0.7500000  0.7500000  )
         5           O1  tau(   5) = (  0.1891000  0.3100000  0.7504000  )
         6           O1  tau(   6) = (  0.3100000  0.7504000  0.1891000  )
         7           O1  tau(   7) = (  0.7504000  0.1891000  0.3100000  )
         8           O1  tau(   8) = (  0.6900000  0.2496000  0.8109000  )
         9           O1  tau(   9) = (  0.8109000  0.6900000  0.2496000  )
        10           O1  tau(  10) = (  0.2496000  0.8109000  0.6900000  )

     number of k points=    28  gaussian smearing, width (Ry)=  0.0300
                       cart. coord. in units 2pi/alat
        k(    1) = (   0.0000000   0.0000000   0.0000000), wk =   0.0156250
        k(    2) = (  -0.2470771  -0.1426500   0.1026748), wk =   0.0937500
        k(    3) = (   0.4941541   0.2853000  -0.2053496), wk =   0.0468750
        k(    4) = (  -0.2470771   0.1426500   0.2053496), wk =   0.0937500
        k(    5) = (   0.4941541   0.5706001  -0.1026748), wk =   0.0937500
        k(    6) = (   0.2470771   0.4279500   0.0000000), wk =   0.0937500
        k(    7) = (   0.4941541  -0.2853000  -0.4106993), wk =   0.0468750
        k(    8) = (   0.0000000   0.0000000   0.3080244), wk =   0.0312500
        k(    9) = (   0.7412312   0.4279500   0.0000000), wk =   0.0937500
        k(   10) = (   0.4941541   0.2853000   0.1026748), wk =   0.0937500
        k(   11) = (   0.7412312  -0.4279500  -0.3080244), wk =   0.0937500
        k(   12) = (   0.4941541  -0.5706001  -0.2053496), wk =   0.0937500
        k(   13) = (   0.0000000   0.0000000  -0.6160489), wk =   0.0156250
        k(   14) = (   0.4941541  -0.5706001   0.1026748), wk =   0.0937500
        k(   15) = (   0.0000000   0.0000000   0.0000000), wk =   0.0156250
        k(   16) = (  -0.2470771  -0.1426500   0.1026748), wk =   0.0937500
        k(   17) = (   0.4941541   0.2853000  -0.2053496), wk =   0.0468750
        k(   18) = (  -0.2470771   0.1426500   0.2053496), wk =   0.0937500
        k(   19) = (   0.4941541   0.5706001  -0.1026748), wk =   0.0937500
        k(   20) = (   0.2470771   0.4279500   0.0000000), wk =   0.0937500
        k(   21) = (   0.4941541  -0.2853000  -0.4106993), wk =   0.0468750
        k(   22) = (   0.0000000   0.0000000   0.3080244), wk =   0.0312500
        k(   23) = (   0.7412312   0.4279500   0.0000000), wk =   0.0937500
        k(   24) = (   0.4941541   0.2853000   0.1026748), wk =   0.0937500
        k(   25) = (   0.7412312  -0.4279500  -0.3080244), wk =   0.0937500
        k(   26) = (   0.4941541  -0.5706001  -0.2053496), wk =   0.0937500
        k(   27) = (   0.0000000   0.0000000  -0.6160489), wk =   0.0156250
        k(   28) = (   0.4941541  -0.5706001   0.1026748), wk =   0.0937500

                       cryst. coord.
        k(    1) = (   0.0000000   0.0000000   0.0000000), wk =   0.0156250
        k(    2) = (   0.0000000   0.0000000   0.2500000), wk =   0.0937500
        k(    3) = (   0.0000000   0.0000000  -0.5000000), wk =   0.0468750
        k(    4) = (   0.0000000   0.2500000   0.2500000), wk =   0.0937500
        k(    5) = (   0.0000000   0.2500000  -0.5000000), wk =   0.0937500
        k(    6) = (   0.0000000   0.2500000  -0.2500000), wk =   0.0937500
        k(    7) = (   0.0000000  -0.5000000  -0.5000000), wk =   0.0468750
        k(    8) = (   0.2500000   0.2500000   0.2500000), wk =   0.0312500
        k(    9) = (   0.2500000   0.2500000  -0.5000000), wk =   0.0937500
        k(   10) = (   0.2500000   0.2500000  -0.2500000), wk =   0.0937500
        k(   11) = (   0.2500000  -0.5000000  -0.5000000), wk =   0.0937500
        k(   12) = (   0.2500000  -0.5000000  -0.2500000), wk =   0.0937500
        k(   13) = (  -0.5000000  -0.5000000  -0.5000000), wk =   0.0156250
        k(   14) = (   0.5000000  -0.2500000   0.0000000), wk =   0.0937500
        k(   15) = (   0.0000000   0.0000000   0.0000000), wk =   0.0156250
        k(   16) = (   0.0000000   0.0000000   0.2500000), wk =   0.0937500
        k(   17) = (   0.0000000   0.0000000  -0.5000000), wk =   0.0468750
        k(   18) = (   0.0000000   0.2500000   0.2500000), wk =   0.0937500
        k(   19) = (   0.0000000   0.2500000  -0.5000000), wk =   0.0937500
        k(   20) = (   0.0000000   0.2500000  -0.2500000), wk =   0.0937500
        k(   21) = (   0.0000000  -0.5000000  -0.5000000), wk =   0.0468750
        k(   22) = (   0.2500000   0.2500000   0.2500000), wk =   0.0312500
        k(   23) = (   0.2500000   0.2500000  -0.5000000), wk =   0.0937500
        k(   24) = (   0.2500000   0.2500000  -0.2500000), wk =   0.0937500
        k(   25) = (   0.2500000  -0.5000000  -0.5000000), wk =   0.0937500
        k(   26) = (   0.2500000  -0.5000000  -0.2500000), wk =   0.0937500
        k(   27) = (  -0.5000000  -0.5000000  -0.5000000), wk =   0.0156250
        k(   28) = (   0.5000000  -0.2500000   0.0000000), wk =   0.0937500

     Dense  grid:    69617 G-vectors     FFT dimensions: (  60,  60,  60)

     Smooth grid:    17573 G-vectors     FFT dimensions: (  40,  40,  40)

     Largest allocated arrays     est. size (Mb)     dimensions
        Kohn-Sham Wavefunctions         0.78 Mb     (   1117,   46)
        Atomic wavefunctions            1.06 Mb     (   1117,   62)
        NL pseudopotentials             2.05 Mb     (   1117,  120)
        Each V/rho on FFT grid          3.30 Mb     ( 108000,   2)
        Each G-vector array             0.27 Mb     (  34808)
        G-vector shells                 0.04 Mb     (   4682)
     Largest temporary arrays     est. size (Mb)     dimensions
        Auxiliary wavefunctions         3.14 Mb     (   1117,  184)
        Each subspace H/S matrix        0.52 Mb     ( 184, 184)
        Each <psi_i|beta_j> matrix      0.08 Mb     (    120,   46)
        Arrays for rho mixing          13.18 Mb     ( 108000,   8)

     Check: negative/imaginary core charge=   -0.000028    0.000000

     The initial density is read from file :
     /home/mcurnan/dft-course/Project1/example_LaCoO3/0/Co/alpha/CoLaO_U0.save/charge-density.dat

 --- in v_hubbard ---
Hubbard energy    0.0292
 -------
     Number of +U iterations with fixed ns =  0
     Starting occupations:
 --- enter write_ns ---
 LDA+U parameters:
U( 1)     =  0.00000000
alpha( 1) =  0.05000000
U( 2)     =  0.00000000
alpha( 2) =  0.00000000
U( 3)     =  0.00000000
alpha( 3) =  0.00000000
U( 4)     =  0.00000000
alpha( 4) =  0.00000000
atom    1   Tr[ns(na)] (up, down, total) =   4.56612  3.37352  7.93963
   spin  1
    eigenvalues: 
  0.785  0.785  0.999  0.999  0.999
    eigenvectors:
  0.000  0.000  0.000  0.000  1.000
  0.422  0.224  0.056  0.298  0.000
  0.224  0.422  0.298  0.056  0.000
  0.346  0.008  0.556  0.090  0.000
  0.008  0.346  0.090  0.556  0.000
    occupations:
  0.999  0.000  0.000  0.000  0.000
  0.000  0.861  0.000 -0.073  0.072
  0.000  0.000  0.861  0.072  0.073
  0.000 -0.073  0.072  0.923  0.000
  0.000  0.072  0.073  0.000  0.923
   spin  2
    eigenvalues: 
  0.474  0.474  0.773  0.826  0.826
    eigenvectors:
  0.000  0.000  1.000  0.000  0.000
  0.276  0.363  0.000  0.034  0.327
  0.363  0.276  0.000  0.327  0.034
  0.279  0.082  0.000  0.476  0.163
  0.082  0.279  0.000  0.163  0.476
    occupations:
  0.773  0.000  0.000  0.000  0.000
  0.000  0.601  0.000 -0.037  0.165
  0.000  0.000  0.601  0.165  0.037
  0.000 -0.037  0.165  0.699  0.000
  0.000  0.165  0.037  0.000  0.699
atomic mag. moment =     1.192598
atom    2   Tr[ns(na)] (up, down, total) =   4.67274  3.22494  7.89767
   spin  1
    eigenvalues: 
  0.838  0.838  0.999  0.999  0.999
    eigenvectors:
  0.000  0.000  0.000  0.000  1.000
  0.643  0.003  0.325  0.029  0.000
  0.003  0.643  0.029  0.325  0.000
  0.153  0.201  0.499  0.147  0.000
  0.201  0.153  0.147  0.499  0.000
    occupations:
  0.999  0.000  0.000  0.000  0.000
  0.000  0.895  0.000  0.054  0.054
  0.000  0.000  0.895  0.054 -0.054
  0.000  0.054  0.054  0.942  0.000
  0.000  0.054 -0.054  0.000  0.942
   spin  2
    eigenvalues: 
  0.459  0.459  0.730  0.788  0.788
    eigenvectors:
  0.000  0.000  1.000  0.000  0.000
  0.510  0.125  0.000  0.190  0.175
  0.125  0.510  0.000  0.175  0.190
  0.019  0.346  0.000  0.447  0.189
  0.346  0.019  0.000  0.189  0.447
    occupations:
  0.730  0.000  0.000  0.000  0.000
  0.000  0.579  0.000  0.036  0.154
  0.000  0.000  0.579  0.154 -0.036
  0.000  0.036  0.154  0.668  0.000
  0.000  0.154 -0.036  0.000  0.668
atomic mag. moment =     1.447801
atom    3   Tr[ns(na)] (up, down, total) =   1.91460  1.90025  3.81485
   spin  1
    eigenvalues: 
  0.357  0.357  0.387  0.407  0.407
    eigenvectors:
  0.000  0.000  1.000  0.000  0.000
  0.786  0.138  0.000  0.011  0.065
  0.138  0.786  0.000  0.065  0.011
  0.012  0.064  0.000  0.785  0.139
  0.064  0.012  0.000  0.139  0.785
    occupations:
  0.387  0.000  0.000  0.000  0.000
  0.000  0.361  0.000  0.000  0.013
  0.000  0.000  0.361  0.013  0.000
  0.000  0.000  0.013  0.403  0.000
  0.000  0.013  0.000  0.000  0.403
   spin  2
    eigenvalues: 
  0.353  0.353  0.387  0.404  0.404
    eigenvectors:
  0.000  0.000  1.000  0.000  0.000
  0.766  0.145  0.000  0.013  0.077
  0.145  0.766  0.000  0.077  0.013
  0.015  0.075  0.000  0.767  0.143
  0.075  0.015  0.000  0.143  0.767
    occupations:
  0.387  0.000  0.000  0.000  0.000
  0.000  0.358  0.000  0.000  0.015
  0.000  0.000  0.358  0.015  0.000
  0.000  0.000  0.015  0.399  0.000
  0.000  0.015  0.000  0.000  0.399
atomic mag. moment =     0.014350
atom    4   Tr[ns(na)] (up, down, total) =   1.91460  1.90025  3.81485
   spin  1
    eigenvalues: 
  0.357  0.357  0.387  0.407  0.407
    eigenvectors:
  0.000  0.000  1.000  0.000  0.000
  0.786  0.138  0.000  0.011  0.065
  0.138  0.786  0.000  0.065  0.011
  0.012  0.064  0.000  0.785  0.139
  0.064  0.012  0.000  0.139  0.785
    occupations:
  0.387  0.000  0.000  0.000  0.000
  0.000  0.361  0.000  0.000  0.013
  0.000  0.000  0.361  0.013  0.000
  0.000  0.000  0.013  0.403  0.000
  0.000  0.013  0.000  0.000  0.403
   spin  2
    eigenvalues: 
  0.353  0.353  0.387  0.404  0.404
    eigenvectors:
  0.000  0.000  1.000  0.000  0.000
  0.766  0.145  0.000  0.013  0.077
  0.145  0.766  0.000  0.077  0.013
  0.015  0.074  0.000  0.767  0.143
  0.074  0.015  0.000  0.143  0.767
    occupations:
  0.387  0.000  0.000  0.000  0.000
  0.000  0.358  0.000  0.000  0.015
  0.000  0.000  0.358  0.015  0.000
  0.000  0.000  0.015  0.399  0.000
  0.000  0.015  0.000  0.000  0.399
atomic mag. moment =     0.014350
atom    5   Tr[ns(na)] (up, down, total) =   2.74224  2.70309  5.44533
   spin  1
    eigenvalues: 
  0.844  0.947  0.951
    eigenvectors:
  0.337  0.000  0.663
  0.487  0.256  0.257
  0.176  0.744  0.080
    occupations:
  0.915  0.044  0.026
  0.044  0.898 -0.030
  0.026 -0.030  0.929
   spin  2
    eigenvalues: 
  0.864  0.920  0.920
    eigenvectors:
  0.333  0.051  0.615
  0.486  0.406  0.108
  0.181  0.543  0.276
    occupations:
  0.901  0.022  0.014
  0.022  0.893 -0.016
  0.014 -0.016  0.910
atomic mag. moment =     0.039149
atom    6   Tr[ns(na)] (up, down, total) =   2.74224  2.70309  5.44533
   spin  1
    eigenvalues: 
  0.844  0.947  0.951
    eigenvectors:
  0.337  0.000  0.663
  0.000  1.000  0.000
  0.663  0.000  0.337
    occupations:
  0.915  0.001 -0.051
  0.001  0.947  0.001
 -0.051  0.001  0.880
   spin  2
    eigenvalues: 
  0.864  0.920  0.920
    eigenvectors:
  0.333  0.051  0.615
  0.000  0.915  0.085
  0.666  0.034  0.300
    occupations:
  0.901  0.001 -0.026
  0.001  0.920  0.001
 -0.026  0.001  0.883
atomic mag. moment =     0.039149
atom    7   Tr[ns(na)] (up, down, total) =   2.74224  2.70309  5.44533
   spin  1
    eigenvalues: 
  0.844  0.947  0.951
    eigenvectors:
  0.337  0.000  0.663
  0.508  0.244  0.248
  0.155  0.756  0.089
    occupations:
  0.915 -0.044  0.025
 -0.044  0.896  0.029
  0.025  0.029  0.932
   spin  2
    eigenvalues: 
  0.864  0.920  0.920
    eigenvectors:
  0.333  0.051  0.615
  0.514  0.102  0.384
  0.153  0.846  0.000
    occupations:
  0.901 -0.023  0.013
 -0.023  0.891  0.016
  0.013  0.016  0.911
atomic mag. moment =     0.039149
atom    8   Tr[ns(na)] (up, down, total) =   2.74224  2.70309  5.44533
   spin  1
    eigenvalues: 
  0.844  0.947  0.951
    eigenvectors:
  0.337  0.000  0.663
  0.000  1.000  0.000
  0.663  0.000  0.337
    occupations:
  0.915  0.001 -0.051
  0.001  0.947  0.001
 -0.051  0.001  0.880
   spin  2
    eigenvalues: 
  0.864  0.920  0.920
    eigenvectors:
  0.333  0.051  0.615
  0.000  0.915  0.085
  0.666  0.034  0.300
    occupations:
  0.901  0.001 -0.026
  0.001  0.920  0.001
 -0.026  0.001  0.883
atomic mag. moment =     0.039149
atom    9   Tr[ns(na)] (up, down, total) =   2.74224  2.70309  5.44533
   spin  1
    eigenvalues: 
  0.844  0.947  0.951
    eigenvectors:
  0.337  0.000  0.663
  0.487  0.256  0.257
  0.176  0.744  0.080
    occupations:
  0.915  0.044  0.026
  0.044  0.898 -0.030
  0.026 -0.030  0.929
   spin  2
    eigenvalues: 
  0.864  0.920  0.920
    eigenvectors:
  0.333  0.051  0.615
  0.486  0.406  0.108
  0.181  0.543  0.276
    occupations:
  0.901  0.022  0.014
  0.022  0.893 -0.016
  0.014 -0.016  0.910
atomic mag. moment =     0.039149
atom   10   Tr[ns(na)] (up, down, total) =   2.74224  2.70309  5.44533
   spin  1
    eigenvalues: 
  0.844  0.947  0.951
    eigenvectors:
  0.337  0.000  0.663
  0.508  0.244  0.248
  0.155  0.756  0.089
    occupations:
  0.915 -0.044  0.025
 -0.044  0.896  0.029
  0.025  0.029  0.932
   spin  2
    eigenvalues: 
  0.864  0.920  0.920
    eigenvectors:
  0.333  0.051  0.615
  0.514  0.102  0.384
  0.153  0.846  0.000
    occupations:
  0.901 -0.023  0.013
 -0.023  0.891  0.016
  0.013  0.016  0.911
atomic mag. moment =     0.039149
N of occupied +U levels =  56.1389605
 --- exit write_ns ---
 LDA+U Projector read from file 
     Starting wfc from file

     total cpu time spent up to now is        8.7 secs

     per-process dynamical memory:    66.8 Mb

     Self-consistent Calculation

     iteration #  1     ecut=    30.00 Ry     beta=0.20
     Davidson diagonalization with overlap
     c_bands:  1 eigenvalues not converged
     c_bands:  1 eigenvalues not converged
     c_bands:  1 eigenvalues not converged
     c_bands:  1 eigenvalues not converged
     c_bands:  1 eigenvalues not converged
     c_bands:  1 eigenvalues not converged
     c_bands:  1 eigenvalues not converged
     c_bands:  1 eigenvalues not converged
     c_bands:  1 eigenvalues not converged
     c_bands:  1 eigenvalues not converged
     c_bands:  1 eigenvalues not converged
     ethr =  1.00E-10,  avg # of iterations = 13.1
 --- enter write_ns ---
 LDA+U parameters:
U( 1)     =  0.00000000
alpha( 1) =  0.05000000
U( 2)     =  0.00000000
alpha( 2) =  0.00000000
U( 3)     =  0.00000000
alpha( 3) =  0.00000000
U( 4)     =  0.00000000
alpha( 4) =  0.00000000
atom    1   Tr[ns(na)] (up, down, total) =   4.55784  3.32495  7.88278
   spin  1
    eigenvalues: 
  0.781  0.781  0.999  0.999  0.999
    eigenvectors:
  0.000  0.000  0.000  0.000  1.000
  0.423  0.224  0.056  0.298  0.000
  0.224  0.423  0.298  0.056  0.000
  0.346  0.008  0.556  0.090  0.000
  0.008  0.346  0.090  0.556  0.000
    occupations:
  0.999  0.000  0.000  0.000  0.000
  0.000  0.858  0.000 -0.074  0.073
  0.000  0.000  0.858  0.073  0.074
  0.000 -0.074  0.073  0.922  0.000
  0.000  0.073  0.074  0.000  0.922
   spin  2
    eigenvalues: 
  0.470  0.470  0.758  0.813  0.813
    eigenvectors:
  0.000  0.000  1.000  0.000  0.000
  0.274  0.365  0.000  0.036  0.326
  0.365  0.274  0.000  0.326  0.036
  0.278  0.083  0.000  0.474  0.164
  0.083  0.278  0.000  0.164  0.474
    occupations:
  0.758  0.000  0.000  0.000  0.000
  0.000  0.594  0.000 -0.035  0.161
  0.000  0.000  0.594  0.161  0.035
  0.000 -0.035  0.161  0.689  0.000
  0.000  0.161  0.035  0.000  0.689
atomic mag. moment =     1.232887
atom    2   Tr[ns(na)] (up, down, total) =   4.67865  3.25724  7.93588
   spin  1
    eigenvalues: 
  0.841  0.841  0.999  0.999  0.999
    eigenvectors:
  0.000  0.000  0.000  0.000  1.000
  0.643  0.003  0.326  0.028  0.000
  0.003  0.643  0.028  0.326  0.000
  0.153  0.201  0.500  0.146  0.000
  0.201  0.153  0.146  0.500  0.000
    occupations:
  0.999  0.000  0.000  0.000  0.000
  0.000  0.897  0.000  0.054  0.053
  0.000  0.000  0.897  0.053 -0.054
  0.000  0.054  0.053  0.943  0.000
  0.000  0.053 -0.054  0.000  0.943
   spin  2
    eigenvalues: 
  0.460  0.460  0.741  0.798  0.798
    eigenvectors:
  0.000  0.000  1.000  0.000  0.000
  0.527  0.109  0.000  0.192  0.172
  0.109  0.527  0.000  0.172  0.192
  0.013  0.351  0.000  0.447  0.188
  0.351  0.013  0.000  0.188  0.447
    occupations:
  0.741  0.000  0.000  0.000  0.000
  0.000  0.583  0.000  0.038  0.158
  0.000  0.000  0.583  0.158 -0.038
  0.000  0.038  0.158  0.675  0.000
  0.000  0.158 -0.038  0.000  0.675
atomic mag. moment =     1.421409
atom    3   Tr[ns(na)] (up, down, total) =   1.91467  1.90050  3.81517
   spin  1
    eigenvalues: 
  0.357  0.357  0.387  0.407  0.407
    eigenvectors:
  0.000  0.000  1.000  0.000  0.000
  0.787  0.137  0.000  0.011  0.065
  0.137  0.787  0.000  0.065  0.011
  0.012  0.064  0.000  0.785  0.139
  0.064  0.012  0.000  0.139  0.785
    occupations:
  0.387  0.000  0.000  0.000  0.000
  0.000  0.361  0.000  0.000  0.013
  0.000  0.000  0.361  0.013  0.000
  0.000  0.000  0.013  0.403  0.000
  0.000  0.013  0.000  0.000  0.403
   spin  2
    eigenvalues: 
  0.353  0.353  0.387  0.404  0.404
    eigenvectors:
  0.000  0.000  1.000  0.000  0.000
  0.766  0.144  0.000  0.013  0.077
  0.144  0.766  0.000  0.077  0.013
  0.015  0.075  0.000  0.768  0.143
  0.075  0.015  0.000  0.143  0.768
    occupations:
  0.387  0.000  0.000  0.000  0.000
  0.000  0.358  0.000  0.000  0.015
  0.000  0.000  0.358  0.015  0.000
  0.000  0.000  0.015  0.399  0.000
  0.000  0.015  0.000  0.000  0.399
atomic mag. moment =     0.014169
atom    4   Tr[ns(na)] (up, down, total) =   1.91467  1.90050  3.81517
   spin  1
    eigenvalues: 
  0.357  0.357  0.387  0.407  0.407
    eigenvectors:
  0.000  0.000  1.000  0.000  0.000
  0.787  0.137  0.000  0.011  0.065
  0.137  0.787  0.000  0.065  0.011
  0.012  0.064  0.000  0.785  0.139
  0.064  0.012  0.000  0.139  0.785
    occupations:
  0.387  0.000  0.000  0.000  0.000
  0.000  0.361  0.000  0.000  0.013
  0.000  0.000  0.361  0.013  0.000
  0.000  0.000  0.013  0.403  0.000
  0.000  0.013  0.000  0.000  0.403
   spin  2
    eigenvalues: 
  0.353  0.353  0.387  0.404  0.404
    eigenvectors:
  0.000  0.000  1.000  0.000  0.000
  0.766  0.145  0.000  0.013  0.076
  0.145  0.766  0.000  0.076  0.013
  0.015  0.075  0.000  0.767  0.143
  0.075  0.015  0.000  0.143  0.767
    occupations:
  0.387  0.000  0.000  0.000  0.000
  0.000  0.358  0.000  0.000  0.015
  0.000  0.000  0.358  0.015  0.000
  0.000  0.000  0.015  0.399  0.000
  0.000  0.015  0.000  0.000  0.399
atomic mag. moment =     0.014169
atom    5   Tr[ns(na)] (up, down, total) =   2.74336  2.70436  5.44773
   spin  1
    eigenvalues: 
  0.845  0.947  0.951
    eigenvectors:
  0.337  0.000  0.663
  0.486  0.257  0.257
  0.178  0.743  0.080
    occupations:
  0.915  0.043  0.026
  0.043  0.898 -0.030
  0.026 -0.030  0.930
   spin  2
    eigenvalues: 
  0.865  0.920  0.920
    eigenvectors:
  0.333  0.017  0.650
  0.492  0.343  0.166
  0.175  0.640  0.185
    occupations:
  0.901  0.022  0.013
  0.022  0.893 -0.016
  0.013 -0.016  0.910
atomic mag. moment =     0.038998
atom    6   Tr[ns(na)] (up, down, total) =   2.74336  2.70436  5.44773
   spin  1
    eigenvalues: 
  0.845  0.947  0.951
    eigenvectors:
  0.337  0.000  0.663
  0.000  1.000  0.000
  0.663  0.000  0.337
    occupations:
  0.915  0.001 -0.050
  0.001  0.947  0.001
 -0.050  0.001  0.881
   spin  2
    eigenvalues: 
  0.865  0.920  0.920
    eigenvectors:
  0.333  0.017  0.650
  0.000  0.971  0.029
  0.667  0.011  0.322
    occupations:
  0.901  0.000 -0.026
  0.000  0.920  0.001
 -0.026  0.001  0.883
atomic mag. moment =     0.038998
atom    7   Tr[ns(na)] (up, down, total) =   2.74336  2.70436  5.44773
   spin  1
    eigenvalues: 
  0.845  0.947  0.951
    eigenvectors:
  0.337  0.000  0.663
  0.509  0.243  0.248
  0.154  0.757  0.089
    occupations:
  0.915 -0.044  0.024
 -0.044  0.896  0.028
  0.024  0.028  0.932
   spin  2
    eigenvalues: 
  0.865  0.920  0.920
    eigenvectors:
  0.333  0.017  0.650
  0.508  0.160  0.332
  0.158  0.823  0.019
    occupations:
  0.901 -0.023  0.013
 -0.023  0.892  0.016
  0.013  0.016  0.911
atomic mag. moment =     0.038998
atom    8   Tr[ns(na)] (up, down, total) =   2.74336  2.70436  5.44773
   spin  1
    eigenvalues: 
  0.845  0.947  0.951
    eigenvectors:
  0.337  0.000  0.663
  0.000  1.000  0.000
  0.663  0.000  0.337
    occupations:
  0.915  0.001 -0.050
  0.001  0.947  0.001
 -0.050  0.001  0.881
   spin  2
    eigenvalues: 
  0.865  0.920  0.920
    eigenvectors:
  0.333  0.017  0.650
  0.000  0.971  0.029
  0.667  0.011  0.322
    occupations:
  0.901  0.000 -0.026
  0.000  0.920  0.001
 -0.026  0.001  0.883
atomic mag. moment =     0.038998
atom    9   Tr[ns(na)] (up, down, total) =   2.74336  2.70436  5.44773
   spin  1
    eigenvalues: 
  0.845  0.947  0.951
    eigenvectors:
  0.337  0.000  0.663
  0.486  0.257  0.257
  0.178  0.743  0.080
    occupations:
  0.915  0.043  0.026
  0.043  0.898 -0.030
  0.026 -0.030  0.930
   spin  2
    eigenvalues: 
  0.865  0.920  0.920
    eigenvectors:
  0.333  0.017  0.650
  0.492  0.343  0.166
  0.175  0.640  0.185
    occupations:
  0.901  0.022  0.013
  0.022  0.893 -0.016
  0.013 -0.016  0.910
atomic mag. moment =     0.038998
atom   10   Tr[ns(na)] (up, down, total) =   2.74336  2.70436  5.44773
   spin  1
    eigenvalues: 
  0.845  0.947  0.951
    eigenvectors:
  0.337  0.000  0.663
  0.509  0.243  0.248
  0.154  0.757  0.089
    occupations:
  0.915 -0.044  0.024
 -0.044  0.896  0.028
  0.024  0.028  0.932
   spin  2
    eigenvalues: 
  0.865  0.920  0.920
    eigenvectors:
  0.333  0.017  0.650
  0.508  0.160  0.332
  0.158  0.823  0.019
    occupations:
  0.901 -0.023  0.013
 -0.023  0.892  0.016
  0.013  0.016  0.911
atomic mag. moment =     0.038998
N of occupied +U levels =  56.1353579
 --- exit write_ns ---
 --- in v_hubbard ---
Hubbard energy    0.0291
 -------

     total cpu time spent up to now is       52.0 secs

     total energy              =    -538.32506801 Ry
     Harris-Foulkes estimate   =    -538.32635208 Ry
     estimated scf accuracy    <       0.00389316 Ry

     total magnetization       =     3.56 Bohr mag/cell
     absolute magnetization    =     3.71 Bohr mag/cell

     iteration #  2     ecut=    30.00 Ry     beta=0.20
     Davidson diagonalization with overlap
     ethr =  5.12E-06,  avg # of iterations =  2.0
 --- enter write_ns ---
 LDA+U parameters:
U( 1)     =  0.00000000
alpha( 1) =  0.05000000
U( 2)     =  0.00000000
alpha( 2) =  0.00000000
U( 3)     =  0.00000000
alpha( 3) =  0.00000000
U( 4)     =  0.00000000
alpha( 4) =  0.00000000
atom    1   Tr[ns(na)] (up, down, total) =   4.62835  3.61834  8.24670
   spin  1
    eigenvalues: 
  0.816  0.816  0.999  0.999  0.999
    eigenvectors:
  0.000  0.000  0.000  0.000  1.000
  0.424  0.222  0.058  0.296  0.000
  0.222  0.424  0.296  0.058  0.000
  0.347  0.007  0.556  0.089  0.000
  0.007  0.347  0.089  0.556  0.000
    occupations:
  0.999  0.000  0.000  0.000  0.000
  0.000  0.881  0.000 -0.063  0.061
  0.000  0.000  0.881  0.061  0.063
  0.000 -0.063  0.061  0.934  0.000
  0.000  0.061  0.063  0.000  0.934
   spin  2
    eigenvalues: 
  0.488  0.488  0.854  0.894  0.894
    eigenvectors:
  0.000  0.000  1.000  0.000  0.000
  0.283  0.357  0.000  0.025  0.334
  0.357  0.283  0.000  0.334  0.025
  0.285  0.075  0.000  0.482  0.158
  0.075  0.285  0.000  0.158  0.482
    occupations:
  0.854  0.000  0.000  0.000  0.000
  0.000  0.634  0.000 -0.049  0.188
  0.000  0.000  0.634  0.188  0.049
  0.000 -0.049  0.188  0.748  0.000
  0.000  0.188  0.049  0.000  0.748
atomic mag. moment =     1.010010
atom    2   Tr[ns(na)] (up, down, total) =   4.61885  2.95401  7.57286
   spin  1
    eigenvalues: 
  0.811  0.811  0.999  0.999  0.999
    eigenvectors:
  0.000  0.000  0.000  0.000  1.000
  0.643  0.003  0.325  0.029  0.000
  0.003  0.643  0.029  0.325  0.000
  0.152  0.202  0.499  0.147  0.000
  0.202  0.152  0.147  0.499  0.000
    occupations:
  0.999  0.000  0.000  0.000  0.000
  0.000  0.878  0.000  0.063  0.064
  0.000  0.000  0.878  0.064 -0.063
  0.000  0.063  0.064  0.932  0.000
  0.000  0.064 -0.063  0.000  0.932
   spin  2
    eigenvalues: 
  0.447  0.447  0.642  0.709  0.709
    eigenvectors:
  0.000  0.000  1.000  0.000  0.000
  0.376  0.255  0.000  0.167  0.202
  0.255  0.376  0.000  0.202  0.167
  0.093  0.276  0.000  0.443  0.188
  0.276  0.093  0.000  0.188  0.443
    occupations:
  0.642  0.000  0.000  0.000  0.000
  0.000  0.544  0.000  0.020  0.125
  0.000  0.000  0.544  0.125 -0.020
  0.000  0.020  0.125  0.612  0.000
  0.000  0.125 -0.020  0.000  0.612
atomic mag. moment =     1.664834
atom    3   Tr[ns(na)] (up, down, total) =   1.91496  1.90068  3.81564
   spin  1
    eigenvalues: 
  0.357  0.357  0.387  0.407  0.407
    eigenvectors:
  0.000  0.000  1.000  0.000  0.000
  0.787  0.137  0.000  0.011  0.065
  0.137  0.787  0.000  0.065  0.011
  0.012  0.064  0.000  0.785  0.139
  0.064  0.012  0.000  0.139  0.785
    occupations:
  0.387  0.000  0.000  0.000  0.000
  0.000  0.361  0.000  0.000  0.013
  0.000  0.000  0.361  0.013  0.000
  0.000  0.000  0.013  0.403  0.000
  0.000  0.013  0.000  0.000  0.403
   spin  2
    eigenvalues: 
  0.353  0.353  0.387  0.404  0.404
    eigenvectors:
  0.000  0.000  1.000  0.000  0.000
  0.763  0.147  0.000  0.011  0.079
  0.147  0.763  0.000  0.079  0.011
  0.018  0.073  0.000  0.767  0.143
  0.073  0.018  0.000  0.143  0.767
    occupations:
  0.387  0.000  0.000  0.000  0.000
  0.000  0.358  0.000 -0.001  0.015
  0.000  0.000  0.358  0.015  0.001
  0.000 -0.001  0.015  0.399  0.000
  0.000  0.015  0.001  0.000  0.399
atomic mag. moment =     0.014281
atom    4   Tr[ns(na)] (up, down, total) =   1.91496  1.90068  3.81564
   spin  1
    eigenvalues: 
  0.357  0.357  0.387  0.407  0.407
    eigenvectors:
  0.000  0.000  1.000  0.000  0.000
  0.787  0.137  0.000  0.011  0.065
  0.137  0.787  0.000  0.065  0.011
  0.012  0.064  0.000  0.785  0.139
  0.064  0.012  0.000  0.139  0.785
    occupations:
  0.387  0.000  0.000  0.000  0.000
  0.000  0.361  0.000  0.000  0.013
  0.000  0.000  0.361  0.013  0.000
  0.000  0.000  0.013  0.403  0.000
  0.000  0.013  0.000  0.000  0.403
   spin  2
    eigenvalues: 
  0.353  0.353  0.387  0.404  0.404
    eigenvectors:
  0.000  0.000  1.000  0.000  0.000
  0.763  0.147  0.000  0.011  0.079
  0.147  0.763  0.000  0.079  0.011
  0.018  0.073  0.000  0.767  0.143
  0.073  0.018  0.000  0.143  0.767
    occupations:
  0.387  0.000  0.000  0.000  0.000
  0.000  0.358  0.000 -0.001  0.015
  0.000  0.000  0.358  0.015  0.001
  0.000 -0.001  0.015  0.399  0.000
  0.000  0.015  0.001  0.000  0.399
atomic mag. moment =     0.014281
atom    5   Tr[ns(na)] (up, down, total) =   2.74241  2.70425  5.44666
   spin  1
    eigenvalues: 
  0.844  0.947  0.951
    eigenvectors:
  0.337  0.000  0.663
  0.498  0.248  0.253
  0.165  0.752  0.084
    occupations:
  0.915  0.044  0.025
  0.044  0.897 -0.029
  0.025 -0.029  0.931
   spin  2
    eigenvalues: 
  0.864  0.920  0.921
    eigenvectors:
  0.332  0.018  0.650
  0.451  0.409  0.141
  0.217  0.574  0.209
    occupations:
  0.902  0.022  0.015
  0.022  0.895 -0.017
  0.015 -0.017  0.908
atomic mag. moment =     0.038159
atom    6   Tr[ns(na)] (up, down, total) =   2.74241  2.70425  5.44666
   spin  1
    eigenvalues: 
  0.844  0.947  0.951
    eigenvectors:
  0.337  0.000  0.663
  0.000  1.000  0.000
  0.663  0.000  0.337
    occupations:
  0.915  0.000 -0.051
  0.000  0.947  0.000
 -0.051  0.000  0.880
   spin  2
    eigenvalues: 
  0.864  0.920  0.921
    eigenvectors:
  0.332  0.018  0.650
  0.005  0.952  0.044
  0.663  0.031  0.306
    occupations:
  0.902  0.002 -0.027
  0.002  0.920  0.003
 -0.027  0.003  0.883
atomic mag. moment =     0.038159
atom    7   Tr[ns(na)] (up, down, total) =   2.74241  2.70425  5.44666
   spin  1
    eigenvalues: 
  0.844  0.947  0.951
    eigenvectors:
  0.337  0.000  0.663
  0.496  0.252  0.252
  0.167  0.748  0.085
    occupations:
  0.915 -0.044  0.025
 -0.044  0.897  0.029
  0.025  0.029  0.930
   spin  2
    eigenvalues: 
  0.864  0.920  0.921
    eigenvectors:
  0.332  0.018  0.650
  0.546  0.113  0.341
  0.121  0.869  0.009
    occupations:
  0.902 -0.024  0.011
 -0.024  0.889  0.014
  0.011  0.014  0.913
atomic mag. moment =     0.038159
atom    8   Tr[ns(na)] (up, down, total) =   2.74241  2.70425  5.44666
   spin  1
    eigenvalues: 
  0.844  0.947  0.951
    eigenvectors:
  0.337  0.000  0.663
  0.000  1.000  0.000
  0.663  0.000  0.337
    occupations:
  0.915  0.000 -0.051
  0.000  0.947  0.000
 -0.051  0.000  0.880
   spin  2
    eigenvalues: 
  0.864  0.920  0.921
    eigenvectors:
  0.332  0.018  0.650
  0.005  0.952  0.044
  0.663  0.031  0.306
    occupations:
  0.902  0.002 -0.027
  0.002  0.920  0.003
 -0.027  0.003  0.883
atomic mag. moment =     0.038159
atom    9   Tr[ns(na)] (up, down, total) =   2.74241  2.70425  5.44666
   spin  1
    eigenvalues: 
  0.844  0.947  0.951
    eigenvectors:
  0.337  0.000  0.663
  0.498  0.248  0.253
  0.165  0.752  0.084
    occupations:
  0.915  0.044  0.025
  0.044  0.897 -0.029
  0.025 -0.029  0.931
   spin  2
    eigenvalues: 
  0.864  0.920  0.921
    eigenvectors:
  0.332  0.018  0.650
  0.451  0.409  0.141
  0.217  0.574  0.209
    occupations:
  0.902  0.022  0.015
  0.022  0.895 -0.017
  0.015 -0.017  0.908
atomic mag. moment =     0.038159
atom   10   Tr[ns(na)] (up, down, total) =   2.74241  2.70425  5.44666
   spin  1
    eigenvalues: 
  0.844  0.947  0.951
    eigenvectors:
  0.337  0.000  0.663
  0.496  0.252  0.252
  0.167  0.748  0.085
    occupations:
  0.915 -0.044  0.025
 -0.044  0.897  0.029
  0.025  0.029  0.930
   spin  2
    eigenvalues: 
  0.864  0.920  0.921
    eigenvectors:
  0.332  0.018  0.650
  0.546  0.113  0.341
  0.121  0.869  0.009
    occupations:
  0.902 -0.024  0.011
 -0.024  0.889  0.014
  0.011  0.014  0.913
atomic mag. moment =     0.038159
N of occupied +U levels =  56.1308206
 --- exit write_ns ---
 --- in v_hubbard ---
Hubbard energy    0.0292
 -------

     total cpu time spent up to now is       73.8 secs

     total energy              =    -538.32184823 Ry
     Harris-Foulkes estimate   =    -538.33085415 Ry
     estimated scf accuracy    <       0.20222406 Ry

     total magnetization       =     3.57 Bohr mag/cell
     absolute magnetization    =     3.72 Bohr mag/cell

     iteration #  3     ecut=    30.00 Ry     beta=0.20
     Davidson diagonalization with overlap
     ethr =  5.12E-06,  avg # of iterations =  2.0
 --- enter write_ns ---
 LDA+U parameters:
U( 1)     =  0.00000000
alpha( 1) =  0.05000000
U( 2)     =  0.00000000
alpha( 2) =  0.00000000
U( 3)     =  0.00000000
alpha( 3) =  0.00000000
U( 4)     =  0.00000000
alpha( 4) =  0.00000000
atom    1   Tr[ns(na)] (up, down, total) =   4.56779  3.36585  7.93365
   spin  1
    eigenvalues: 
  0.786  0.786  0.999  0.999  0.999
    eigenvectors:
  0.000  0.000  0.000  0.000  1.000
  0.423  0.224  0.056  0.298  0.000
  0.224  0.423  0.298  0.056  0.000
  0.346  0.008  0.556  0.090  0.000
  0.008  0.346  0.090  0.556  0.000
    occupations:
  0.999  0.000  0.000  0.000  0.000
  0.000  0.861  0.000 -0.072  0.071
  0.000  0.000  0.861  0.071  0.072
  0.000 -0.072  0.071  0.923  0.000
  0.000  0.071  0.072  0.000  0.923
   spin  2
    eigenvalues: 
  0.473  0.473  0.771  0.824  0.824
    eigenvectors:
  0.000  0.000  1.000  0.000  0.000
  0.275  0.364  0.000  0.034  0.327
  0.364  0.275  0.000  0.327  0.034
  0.279  0.082  0.000  0.476  0.163
  0.082  0.279  0.000  0.163  0.476
    occupations:
  0.771  0.000  0.000  0.000  0.000
  0.000  0.600  0.000 -0.036  0.164
  0.000  0.000  0.600  0.164  0.036
  0.000 -0.036  0.164  0.697  0.000
  0.000  0.164  0.036  0.000  0.697
atomic mag. moment =     1.201938
atom    2   Tr[ns(na)] (up, down, total) =   4.67235  3.22835  7.90069
   spin  1
    eigenvalues: 
  0.838  0.838  0.999  0.999  0.999
    eigenvectors:
  0.000  0.000  0.000  0.000  1.000
  0.643  0.003  0.325  0.029  0.000
  0.003  0.643  0.029  0.325  0.000
  0.153  0.201  0.499  0.147  0.000
  0.201  0.153  0.147  0.499  0.000
    occupations:
  0.999  0.000  0.000  0.000  0.000
  0.000  0.895  0.000  0.055  0.054
  0.000  0.000  0.895  0.054 -0.055
  0.000  0.055  0.054  0.942  0.000
  0.000  0.054 -0.055  0.000  0.942
   spin  2
    eigenvalues: 
  0.460  0.460  0.731  0.789  0.789
    eigenvectors:
  0.000  0.000  1.000  0.000  0.000
  0.513  0.122  0.000  0.190  0.175
  0.122  0.513  0.000  0.175  0.190
  0.018  0.346  0.000  0.447  0.188
  0.346  0.018  0.000  0.188  0.447
    occupations:
  0.731  0.000  0.000  0.000  0.000
  0.000  0.580  0.000  0.036  0.154
  0.000  0.000  0.580  0.154 -0.036
  0.000  0.036  0.154  0.669  0.000
  0.000  0.154 -0.036  0.000  0.669
atomic mag. moment =     1.443998
atom    3   Tr[ns(na)] (up, down, total) =   1.91486  1.90055  3.81541
   spin  1
    eigenvalues: 
  0.357  0.357  0.387  0.407  0.407
    eigenvectors:
  0.000  0.000  1.000  0.000  0.000
  0.787  0.137  0.000  0.011  0.065
  0.137  0.787  0.000  0.065  0.011
  0.012  0.064  0.000  0.785  0.139
  0.064  0.012  0.000  0.139  0.785
    occupations:
  0.387  0.000  0.000  0.000  0.000
  0.000  0.361  0.000  0.000  0.013
  0.000  0.000  0.361  0.013  0.000
  0.000  0.000  0.013  0.403  0.000
  0.000  0.013  0.000  0.000  0.403
   spin  2
    eigenvalues: 
  0.353  0.353  0.387  0.404  0.404
    eigenvectors:
  0.000  0.000  1.000  0.000  0.000
  0.765  0.145  0.000  0.013  0.077
  0.145  0.765  0.000  0.077  0.013
  0.015  0.074  0.000  0.767  0.143
  0.074  0.015  0.000  0.143  0.767
    occupations:
  0.387  0.000  0.000  0.000  0.000
  0.000  0.358  0.000  0.000  0.015
  0.000  0.000  0.358  0.015  0.000
  0.000  0.000  0.015  0.399  0.000
  0.000  0.015  0.000  0.000  0.399
atomic mag. moment =     0.014315
atom    4   Tr[ns(na)] (up, down, total) =   1.91486  1.90055  3.81541
   spin  1
    eigenvalues: 
  0.357  0.357  0.387  0.407  0.407
    eigenvectors:
  0.000  0.000  1.000  0.000  0.000
  0.786  0.138  0.000  0.011  0.065
  0.138  0.786  0.000  0.065  0.011
  0.012  0.064  0.000  0.785  0.139
  0.064  0.012  0.000  0.139  0.785
    occupations:
  0.387  0.000  0.000  0.000  0.000
  0.000  0.361  0.000  0.000  0.013
  0.000  0.000  0.361  0.013  0.000
  0.000  0.000  0.013  0.403  0.000
  0.000  0.013  0.000  0.000  0.403
   spin  2
    eigenvalues: 
  0.353  0.353  0.387  0.404  0.404
    eigenvectors:
  0.000  0.000  1.000  0.000  0.000
  0.766  0.145  0.000  0.013  0.077
  0.145  0.766  0.000  0.077  0.013
  0.015  0.074  0.000  0.767  0.143
  0.074  0.015  0.000  0.143  0.767
    occupations:
  0.387  0.000  0.000  0.000  0.000
  0.000  0.358  0.000  0.000  0.015
  0.000  0.000  0.358  0.015  0.000
  0.000  0.000  0.015  0.399  0.000
  0.000  0.015  0.000  0.000  0.399
atomic mag. moment =     0.014315
atom    5   Tr[ns(na)] (up, down, total) =   2.74219  2.70314  5.44532
   spin  1
    eigenvalues: 
  0.844  0.947  0.951
    eigenvectors:
  0.337  0.000  0.663
  0.487  0.256  0.257
  0.176  0.744  0.080
    occupations:
  0.915  0.044  0.026
  0.044  0.898 -0.030
  0.026 -0.030  0.929
   spin  2
    eigenvalues: 
  0.864  0.920  0.920
    eigenvectors:
  0.333  0.034  0.632
  0.487  0.382  0.131
  0.180  0.584  0.236
    occupations:
  0.901  0.022  0.014
  0.022  0.893 -0.016
  0.014 -0.016  0.910
atomic mag. moment =     0.039051
atom    6   Tr[ns(na)] (up, down, total) =   2.74219  2.70314  5.44532
   spin  1
    eigenvalues: 
  0.844  0.947  0.951
    eigenvectors:
  0.337  0.000  0.663
  0.000  1.000  0.000
  0.663  0.000  0.337
    occupations:
  0.915  0.001 -0.051
  0.001  0.947  0.001
 -0.051  0.001  0.880
   spin  2
    eigenvalues: 
  0.864  0.920  0.920
    eigenvectors:
  0.333  0.034  0.632
  0.000  0.942  0.058
  0.666  0.024  0.310
    occupations:
  0.901  0.001 -0.026
  0.001  0.920  0.001
 -0.026  0.001  0.883
atomic mag. moment =     0.039051
atom    7   Tr[ns(na)] (up, down, total) =   2.74219  2.70314  5.44532
   spin  1
    eigenvalues: 
  0.844  0.947  0.951
    eigenvectors:
  0.337  0.000  0.663
  0.507  0.244  0.249
  0.156  0.756  0.089
    occupations:
  0.915 -0.044  0.025
 -0.044  0.896  0.029
  0.025  0.029  0.932
   spin  2
    eigenvalues: 
  0.864  0.920  0.920
    eigenvectors:
  0.333  0.034  0.632
  0.513  0.124  0.363
  0.154  0.841  0.005
    occupations:
  0.901 -0.023  0.013
 -0.023  0.891  0.016
  0.013  0.016  0.911
atomic mag. moment =     0.039051
atom    8   Tr[ns(na)] (up, down, total) =   2.74219  2.70314  5.44532
   spin  1
    eigenvalues: 
  0.844  0.947  0.951
    eigenvectors:
  0.337  0.000  0.663
  0.000  1.000  0.000
  0.663  0.000  0.337
    occupations:
  0.915  0.001 -0.051
  0.001  0.947  0.001
 -0.051  0.001  0.880
   spin  2
    eigenvalues: 
  0.864  0.920  0.920
    eigenvectors:
  0.333  0.034  0.632
  0.000  0.942  0.058
  0.666  0.024  0.310
    occupations:
  0.901  0.001 -0.026
  0.001  0.920  0.001
 -0.026  0.001  0.883
atomic mag. moment =     0.039051
atom    9   Tr[ns(na)] (up, down, total) =   2.74219  2.70314  5.44532
   spin  1
    eigenvalues: 
  0.844  0.947  0.951
    eigenvectors:
  0.337  0.000  0.663
  0.487  0.256  0.257
  0.176  0.744  0.080
    occupations:
  0.915  0.044  0.026
  0.044  0.898 -0.030
  0.026 -0.030  0.929
   spin  2
    eigenvalues: 
  0.864  0.920  0.920
    eigenvectors:
  0.333  0.034  0.632
  0.487  0.382  0.131
  0.180  0.584  0.236
    occupations:
  0.901  0.022  0.014
  0.022  0.893 -0.016
  0.014 -0.016  0.910
atomic mag. moment =     0.039051
atom   10   Tr[ns(na)] (up, down, total) =   2.74219  2.70314  5.44532
   spin  1
    eigenvalues: 
  0.844  0.947  0.951
    eigenvectors:
  0.337  0.000  0.663
  0.507  0.244  0.249
  0.156  0.756  0.089
    occupations:
  0.915 -0.044  0.025
 -0.044  0.896  0.029
  0.025  0.029  0.932
   spin  2
    eigenvalues: 
  0.864  0.920  0.920
    eigenvectors:
  0.333  0.034  0.632
  0.513  0.124  0.363
  0.154  0.841  0.005
    occupations:
  0.901 -0.023  0.013
 -0.023  0.891  0.016
  0.013  0.016  0.911
atomic mag. moment =     0.039051
N of occupied +U levels =  56.1370892
 --- exit write_ns ---
 --- in v_hubbard ---
Hubbard energy    0.0292
 -------

     total cpu time spent up to now is       95.5 secs

     total energy              =    -538.32623258 Ry
     Harris-Foulkes estimate   =    -538.32622104 Ry
     estimated scf accuracy    <       0.00001374 Ry

     total magnetization       =     3.55 Bohr mag/cell
     absolute magnetization    =     3.70 Bohr mag/cell

     iteration #  4     ecut=    30.00 Ry     beta=0.20
     Davidson diagonalization with overlap
     ethr =  1.81E-08,  avg # of iterations =  3.6
 --- enter write_ns ---
 LDA+U parameters:
U( 1)     =  0.00000000
alpha( 1) =  0.05000000
U( 2)     =  0.00000000
alpha( 2) =  0.00000000
U( 3)     =  0.00000000
alpha( 3) =  0.00000000
U( 4)     =  0.00000000
alpha( 4) =  0.00000000
atom    1   Tr[ns(na)] (up, down, total) =   4.56747  3.36303  7.93051
   spin  1
    eigenvalues: 
  0.786  0.786  0.999  0.999  0.999
    eigenvectors:
  0.000  0.000  0.000  0.000  1.000
  0.423  0.223  0.056  0.298  0.000
  0.223  0.423  0.298  0.056  0.000
  0.346  0.008  0.556  0.090  0.000
  0.008  0.346  0.090  0.556  0.000
    occupations:
  0.999  0.000  0.000  0.000  0.000
  0.000  0.861  0.000 -0.072  0.071
  0.000  0.000  0.861  0.071  0.072
  0.000 -0.072  0.071  0.923  0.000
  0.000  0.071  0.072  0.000  0.923
   spin  2
    eigenvalues: 
  0.473  0.473  0.770  0.824  0.824
    eigenvectors:
  0.000  0.000  1.000  0.000  0.000
  0.275  0.364  0.000  0.034  0.327
  0.364  0.275  0.000  0.327  0.034
  0.279  0.082  0.000  0.476  0.163
  0.082  0.279  0.000  0.163  0.476
    occupations:
  0.770  0.000  0.000  0.000  0.000
  0.000  0.599  0.000 -0.036  0.164
  0.000  0.000  0.599  0.164  0.036
  0.000 -0.036  0.164  0.697  0.000
  0.000  0.164  0.036  0.000  0.697
atomic mag. moment =     1.204438
atom    2   Tr[ns(na)] (up, down, total) =   4.67212  3.22771  7.89983
   spin  1
    eigenvalues: 
  0.838  0.838  0.999  0.999  0.999
    eigenvectors:
  0.000  0.000  0.000  0.000  1.000
  0.643  0.003  0.325  0.029  0.000
  0.003  0.643  0.029  0.325  0.000
  0.153  0.201  0.500  0.147  0.000
  0.201  0.153  0.147  0.500  0.000
    occupations:
  0.999  0.000  0.000  0.000  0.000
  0.000  0.895  0.000  0.055  0.054
  0.000  0.000  0.895  0.054 -0.055
  0.000  0.055  0.054  0.942  0.000
  0.000  0.054 -0.055  0.000  0.942
   spin  2
    eigenvalues: 
  0.459  0.459  0.731  0.789  0.789
    eigenvectors:
  0.000  0.000  1.000  0.000  0.000
  0.515  0.120  0.000  0.190  0.175
  0.120  0.515  0.000  0.175  0.190
  0.017  0.347  0.000  0.447  0.188
  0.347  0.017  0.000  0.188  0.447
    occupations:
  0.731  0.000  0.000  0.000  0.000
  0.000  0.579  0.000  0.036  0.154
  0.000  0.000  0.579  0.154 -0.036
  0.000  0.036  0.154  0.669  0.000
  0.000  0.154 -0.036  0.000  0.669
atomic mag. moment =     1.444411
atom    3   Tr[ns(na)] (up, down, total) =   1.91480  1.90052  3.81532
   spin  1
    eigenvalues: 
  0.357  0.357  0.387  0.407  0.407
    eigenvectors:
  0.000  0.000  1.000  0.000  0.000
  0.786  0.138  0.000  0.011  0.065
  0.138  0.786  0.000  0.065  0.011
  0.012  0.064  0.000  0.785  0.139
  0.064  0.012  0.000  0.139  0.785
    occupations:
  0.387  0.000  0.000  0.000  0.000
  0.000  0.361  0.000  0.000  0.013
  0.000  0.000  0.361  0.013  0.000
  0.000  0.000  0.013  0.403  0.000
  0.000  0.013  0.000  0.000  0.403
   spin  2
    eigenvalues: 
  0.353  0.353  0.387  0.404  0.404
    eigenvectors:
  0.000  0.000  1.000  0.000  0.000
  0.766  0.144  0.000  0.013  0.077
  0.144  0.766  0.000  0.077  0.013
  0.015  0.075  0.000  0.768  0.143
  0.075  0.015  0.000  0.143  0.768
    occupations:
  0.387  0.000  0.000  0.000  0.000
  0.000  0.358  0.000  0.000  0.015
  0.000  0.000  0.358  0.015  0.000
  0.000  0.000  0.015  0.399  0.000
  0.000  0.015  0.000  0.000  0.399
atomic mag. moment =     0.014274
atom    4   Tr[ns(na)] (up, down, total) =   1.91480  1.90052  3.81532
   spin  1
    eigenvalues: 
  0.357  0.357  0.387  0.407  0.407
    eigenvectors:
  0.000  0.000  1.000  0.000  0.000
  0.787  0.137  0.000  0.011  0.065
  0.137  0.787  0.000  0.065  0.011
  0.012  0.064  0.000  0.785  0.139
  0.064  0.012  0.000  0.139  0.785
    occupations:
  0.387  0.000  0.000  0.000  0.000
  0.000  0.361  0.000  0.000  0.013
  0.000  0.000  0.361  0.013  0.000
  0.000  0.000  0.013  0.403  0.000
  0.000  0.013  0.000  0.000  0.403
   spin  2
    eigenvalues: 
  0.353  0.353  0.387  0.404  0.404
    eigenvectors:
  0.000  0.000  1.000  0.000  0.000
  0.766  0.145  0.000  0.013  0.077
  0.145  0.766  0.000  0.077  0.013
  0.015  0.075  0.000  0.768  0.143
  0.075  0.015  0.000  0.143  0.768
    occupations:
  0.387  0.000  0.000  0.000  0.000
  0.000  0.358  0.000  0.000  0.015
  0.000  0.000  0.358  0.015  0.000
  0.000  0.000  0.015  0.399  0.000
  0.000  0.015  0.000  0.000  0.399
atomic mag. moment =     0.014274
atom    5   Tr[ns(na)] (up, down, total) =   2.74246  2.70348  5.44593
   spin  1
    eigenvalues: 
  0.844  0.947  0.951
    eigenvectors:
  0.337  0.000  0.663
  0.487  0.256  0.257
  0.176  0.744  0.080
    occupations:
  0.915  0.043  0.026
  0.043  0.898 -0.030
  0.026 -0.030  0.929
   spin  2
    eigenvalues: 
  0.864  0.920  0.920
    eigenvectors:
  0.333  0.036  0.630
  0.487  0.385  0.128
  0.180  0.579  0.241
    occupations:
  0.901  0.022  0.014
  0.022  0.893 -0.016
  0.014 -0.016  0.910
atomic mag. moment =     0.038978
atom    6   Tr[ns(na)] (up, down, total) =   2.74246  2.70348  5.44593
   spin  1
    eigenvalues: 
  0.844  0.947  0.951
    eigenvectors:
  0.337  0.000  0.663
  0.000  1.000  0.000
  0.663  0.000  0.337
    occupations:
  0.915  0.001 -0.051
  0.001  0.947  0.001
 -0.051  0.001  0.880
   spin  2
    eigenvalues: 
  0.864  0.920  0.920
    eigenvectors:
  0.333  0.036  0.630
  0.000  0.939  0.061
  0.666  0.025  0.309
    occupations:
  0.901  0.001 -0.026
  0.001  0.920  0.001
 -0.026  0.001  0.883
atomic mag. moment =     0.038978
atom    7   Tr[ns(na)] (up, down, total) =   2.74246  2.70348  5.44593
   spin  1
    eigenvalues: 
  0.844  0.947  0.951
    eigenvectors:
  0.337  0.000  0.663
  0.507  0.244  0.249
  0.156  0.756  0.088
    occupations:
  0.915 -0.044  0.025
 -0.044  0.896  0.029
  0.025  0.029  0.932
   spin  2
    eigenvalues: 
  0.864  0.920  0.920
    eigenvectors:
  0.333  0.036  0.630
  0.513  0.122  0.366
  0.154  0.842  0.004
    occupations:
  0.901 -0.023  0.013
 -0.023  0.891  0.016
  0.013  0.016  0.911
atomic mag. moment =     0.038978
atom    8   Tr[ns(na)] (up, down, total) =   2.74246  2.70348  5.44593
   spin  1
    eigenvalues: 
  0.844  0.947  0.951
    eigenvectors:
  0.337  0.000  0.663
  0.000  1.000  0.000
  0.663  0.000  0.337
    occupations:
  0.915  0.001 -0.051
  0.001  0.947  0.001
 -0.051  0.001  0.880
   spin  2
    eigenvalues: 
  0.864  0.920  0.920
    eigenvectors:
  0.333  0.036  0.630
  0.000  0.939  0.061
  0.666  0.025  0.309
    occupations:
  0.901  0.001 -0.026
  0.001  0.920  0.001
 -0.026  0.001  0.883
atomic mag. moment =     0.038978
atom    9   Tr[ns(na)] (up, down, total) =   2.74246  2.70348  5.44593
   spin  1
    eigenvalues: 
  0.844  0.947  0.951
    eigenvectors:
  0.337  0.000  0.663
  0.487  0.256  0.257
  0.176  0.744  0.080
    occupations:
  0.915  0.043  0.026
  0.043  0.898 -0.030
  0.026 -0.030  0.929
   spin  2
    eigenvalues: 
  0.864  0.920  0.920
    eigenvectors:
  0.333  0.036  0.630
  0.487  0.385  0.128
  0.180  0.579  0.241
    occupations:
  0.901  0.022  0.014
  0.022  0.893 -0.016
  0.014 -0.016  0.910
atomic mag. moment =     0.038978
atom   10   Tr[ns(na)] (up, down, total) =   2.74246  2.70348  5.44593
   spin  1
    eigenvalues: 
  0.844  0.947  0.951
    eigenvectors:
  0.337  0.000  0.663
  0.507  0.244  0.249
  0.156  0.756  0.088
    occupations:
  0.915 -0.044  0.025
 -0.044  0.896  0.029
  0.025  0.029  0.932
   spin  2
    eigenvalues: 
  0.864  0.920  0.920
    eigenvectors:
  0.333  0.036  0.630
  0.513  0.122  0.366
  0.154  0.842  0.004
    occupations:
  0.901 -0.023  0.013
 -0.023  0.891  0.016
  0.013  0.016  0.911
atomic mag. moment =     0.038978
N of occupied +U levels =  56.1365793
 --- exit write_ns ---
 --- in v_hubbard ---
Hubbard energy    0.0292
 -------

     total cpu time spent up to now is      121.3 secs

     total energy              =    -538.32624699 Ry
     Harris-Foulkes estimate   =    -538.32623783 Ry
     estimated scf accuracy    <       0.00000936 Ry

     total magnetization       =     3.55 Bohr mag/cell
     absolute magnetization    =     3.70 Bohr mag/cell

     iteration #  5     ecut=    30.00 Ry     beta=0.20
     Davidson diagonalization with overlap
     ethr =  1.23E-08,  avg # of iterations =  1.0
 --- enter write_ns ---
 LDA+U parameters:
U( 1)     =  0.00000000
alpha( 1) =  0.05000000
U( 2)     =  0.00000000
alpha( 2) =  0.00000000
U( 3)     =  0.00000000
alpha( 3) =  0.00000000
U( 4)     =  0.00000000
alpha( 4) =  0.00000000
atom    1   Tr[ns(na)] (up, down, total) =   4.56920  3.36159  7.93080
   spin  1
    eigenvalues: 
  0.787  0.787  0.999  0.999  0.999
    eigenvectors:
  0.000  0.000  0.000  0.000  1.000
  0.423  0.223  0.056  0.298  0.000
  0.223  0.423  0.298  0.056  0.000
  0.346  0.008  0.556  0.090  0.000
  0.008  0.346  0.090  0.556  0.000
    occupations:
  0.999  0.000  0.000  0.000  0.000
  0.000  0.862  0.000 -0.072  0.071
  0.000  0.000  0.862  0.071  0.072
  0.000 -0.072  0.071  0.924  0.000
  0.000  0.071  0.072  0.000  0.924
   spin  2
    eigenvalues: 
  0.473  0.473  0.770  0.823  0.823
    eigenvectors:
  0.000  0.000  1.000  0.000  0.000
  0.275  0.364  0.000  0.034  0.327
  0.364  0.275  0.000  0.327  0.034
  0.279  0.082  0.000  0.475  0.164
  0.082  0.279  0.000  0.164  0.475
    occupations:
  0.770  0.000  0.000  0.000  0.000
  0.000  0.599  0.000 -0.036  0.164
  0.000  0.000  0.599  0.164  0.036
  0.000 -0.036  0.164  0.697  0.000
  0.000  0.164  0.036  0.000  0.697
atomic mag. moment =     1.207610
atom    2   Tr[ns(na)] (up, down, total) =   4.67113  3.22703  7.89816
   spin  1
    eigenvalues: 
  0.837  0.837  0.999  0.999  0.999
    eigenvectors:
  0.000  0.000  0.000  0.000  1.000
  0.643  0.003  0.325  0.028  0.000
  0.003  0.643  0.028  0.325  0.000
  0.153  0.201  0.499  0.147  0.000
  0.201  0.153  0.147  0.499  0.000
    occupations:
  0.999  0.000  0.000  0.000  0.000
  0.000  0.894  0.000  0.055  0.055
  0.000  0.000  0.894  0.055 -0.055
  0.000  0.055  0.055  0.942  0.000
  0.000  0.055 -0.055  0.000  0.942
   spin  2
    eigenvalues: 
  0.459  0.459  0.731  0.789  0.789
    eigenvectors:
  0.000  0.000  1.000  0.000  0.000
  0.515  0.120  0.000  0.190  0.175
  0.120  0.515  0.000  0.175  0.190
  0.017  0.347  0.000  0.447  0.188
  0.347  0.017  0.000  0.188  0.447
    occupations:
  0.731  0.000  0.000  0.000  0.000
  0.000  0.579  0.000  0.036  0.154
  0.000  0.000  0.579  0.154 -0.036
  0.000  0.036  0.154  0.669  0.000
  0.000  0.154 -0.036  0.000  0.669
atomic mag. moment =     1.444096
atom    3   Tr[ns(na)] (up, down, total) =   1.91470  1.90042  3.81511
   spin  1
    eigenvalues: 
  0.357  0.357  0.387  0.407  0.407
    eigenvectors:
  0.000  0.000  1.000  0.000  0.000
  0.786  0.138  0.000  0.011  0.065
  0.138  0.786  0.000  0.065  0.011
  0.012  0.064  0.000  0.785  0.139
  0.064  0.012  0.000  0.139  0.785
    occupations:
  0.387  0.000  0.000  0.000  0.000
  0.000  0.361  0.000  0.000  0.013
  0.000  0.000  0.361  0.013  0.000
  0.000  0.000  0.013  0.403  0.000
  0.000  0.013  0.000  0.000  0.403
   spin  2
    eigenvalues: 
  0.353  0.353  0.387  0.404  0.404
    eigenvectors:
  0.000  0.000  1.000  0.000  0.000
  0.766  0.145  0.000  0.013  0.077
  0.145  0.766  0.000  0.077  0.013
  0.015  0.075  0.000  0.767  0.143
  0.075  0.015  0.000  0.143  0.767
    occupations:
  0.387  0.000  0.000  0.000  0.000
  0.000  0.358  0.000  0.000  0.015
  0.000  0.000  0.358  0.015  0.000
  0.000  0.000  0.015  0.399  0.000
  0.000  0.015  0.000  0.000  0.399
atomic mag. moment =     0.014283
atom    4   Tr[ns(na)] (up, down, total) =   1.91470  1.90042  3.81511
   spin  1
    eigenvalues: 
  0.357  0.357  0.387  0.407  0.407
    eigenvectors:
  0.000  0.000  1.000  0.000  0.000
  0.786  0.138  0.000  0.011  0.065
  0.138  0.786  0.000  0.065  0.011
  0.012  0.064  0.000  0.785  0.139
  0.064  0.012  0.000  0.139  0.785
    occupations:
  0.387  0.000  0.000  0.000  0.000
  0.000  0.361  0.000  0.000  0.013
  0.000  0.000  0.361  0.013  0.000
  0.000  0.000  0.013  0.403  0.000
  0.000  0.013  0.000  0.000  0.403
   spin  2
    eigenvalues: 
  0.353  0.353  0.387  0.404  0.404
    eigenvectors:
  0.000  0.000  1.000  0.000  0.000
  0.766  0.144  0.000  0.013  0.077
  0.144  0.766  0.000  0.077  0.013
  0.015  0.075  0.000  0.767  0.143
  0.075  0.015  0.000  0.143  0.767
    occupations:
  0.387  0.000  0.000  0.000  0.000
  0.000  0.358  0.000  0.000  0.015
  0.000  0.000  0.358  0.015  0.000
  0.000  0.000  0.015  0.399  0.000
  0.000  0.015  0.000  0.000  0.399
atomic mag. moment =     0.014283
atom    5   Tr[ns(na)] (up, down, total) =   2.74254  2.70361  5.44615
   spin  1
    eigenvalues: 
  0.844  0.947  0.951
    eigenvectors:
  0.337  0.000  0.663
  0.488  0.256  0.257
  0.176  0.744  0.080
    occupations:
  0.915  0.043  0.026
  0.043  0.898 -0.030
  0.026 -0.030  0.930
   spin  2
    eigenvalues: 
  0.864  0.920  0.920
    eigenvectors:
  0.333  0.040  0.627
  0.487  0.389  0.124
  0.180  0.571  0.249
    occupations:
  0.901  0.022  0.014
  0.022  0.893 -0.016
  0.014 -0.016  0.910
atomic mag. moment =     0.038923
atom    6   Tr[ns(na)] (up, down, total) =   2.74254  2.70361  5.44615
   spin  1
    eigenvalues: 
  0.844  0.947  0.951
    eigenvectors:
  0.337  0.000  0.663
  0.000  1.000  0.000
  0.663  0.000  0.337
    occupations:
  0.915  0.001 -0.051
  0.001  0.947  0.001
 -0.051  0.001  0.880
   spin  2
    eigenvalues: 
  0.864  0.920  0.920
    eigenvectors:
  0.333  0.040  0.627
  0.000  0.934  0.066
  0.666  0.026  0.307
    occupations:
  0.901  0.001 -0.026
  0.001  0.920  0.001
 -0.026  0.001  0.883
atomic mag. moment =     0.038923
atom    7   Tr[ns(na)] (up, down, total) =   2.74254  2.70361  5.44615
   spin  1
    eigenvalues: 
  0.844  0.947  0.951
    eigenvectors:
  0.337  0.000  0.663
  0.507  0.244  0.249
  0.156  0.756  0.088
    occupations:
  0.915 -0.044  0.025
 -0.044  0.896  0.029
  0.025  0.029  0.932
   spin  2
    eigenvalues: 
  0.864  0.920  0.920
    eigenvectors:
  0.333  0.040  0.627
  0.513  0.117  0.370
  0.154  0.843  0.003
    occupations:
  0.901 -0.023  0.013
 -0.023  0.891  0.016
  0.013  0.016  0.911
atomic mag. moment =     0.038923
atom    8   Tr[ns(na)] (up, down, total) =   2.74254  2.70361  5.44615
   spin  1
    eigenvalues: 
  0.844  0.947  0.951
    eigenvectors:
  0.337  0.000  0.663
  0.000  1.000  0.000
  0.663  0.000  0.337
    occupations:
  0.915  0.001 -0.051
  0.001  0.947  0.001
 -0.051  0.001  0.880
   spin  2
    eigenvalues: 
  0.864  0.920  0.920
    eigenvectors:
  0.333  0.040  0.627
  0.000  0.934  0.066
  0.666  0.026  0.307
    occupations:
  0.901  0.001 -0.026
  0.001  0.920  0.001
 -0.026  0.001  0.883
atomic mag. moment =     0.038923
atom    9   Tr[ns(na)] (up, down, total) =   2.74254  2.70361  5.44615
   spin  1
    eigenvalues: 
  0.844  0.947  0.951
    eigenvectors:
  0.337  0.000  0.663
  0.488  0.256  0.257
  0.176  0.744  0.080
    occupations:
  0.915  0.043  0.026
  0.043  0.898 -0.030
  0.026 -0.030  0.930
   spin  2
    eigenvalues: 
  0.864  0.920  0.920
    eigenvectors:
  0.333  0.040  0.627
  0.487  0.389  0.124
  0.180  0.571  0.249
    occupations:
  0.901  0.022  0.014
  0.022  0.893 -0.016
  0.014 -0.016  0.910
atomic mag. moment =     0.038923
atom   10   Tr[ns(na)] (up, down, total) =   2.74254  2.70361  5.44615
   spin  1
    eigenvalues: 
  0.844  0.947  0.951
    eigenvectors:
  0.337  0.000  0.663
  0.507  0.244  0.249
  0.156  0.756  0.088
    occupations:
  0.915 -0.044  0.025
 -0.044  0.896  0.029
  0.025  0.029  0.932
   spin  2
    eigenvalues: 
  0.864  0.920  0.920
    eigenvectors:
  0.333  0.040  0.627
  0.513  0.117  0.370
  0.154  0.843  0.003
    occupations:
  0.901 -0.023  0.013
 -0.023  0.891  0.016
  0.013  0.016  0.911
atomic mag. moment =     0.038923
N of occupied +U levels =  56.1360979
 --- exit write_ns ---
 --- in v_hubbard ---
Hubbard energy    0.0291
 -------

     total cpu time spent up to now is      142.6 secs

     total energy              =    -538.32625407 Ry
     Harris-Foulkes estimate   =    -538.32624790 Ry
     estimated scf accuracy    <       0.00000268 Ry

     total magnetization       =     3.55 Bohr mag/cell
     absolute magnetization    =     3.70 Bohr mag/cell

     iteration #  6     ecut=    30.00 Ry     beta=0.20
     Davidson diagonalization with overlap
     ethr =  3.52E-09,  avg # of iterations =  1.1
 --- enter write_ns ---
 LDA+U parameters:
U( 1)     =  0.00000000
alpha( 1) =  0.05000000
U( 2)     =  0.00000000
alpha( 2) =  0.00000000
U( 3)     =  0.00000000
alpha( 3) =  0.00000000
U( 4)     =  0.00000000
alpha( 4) =  0.00000000
atom    1   Tr[ns(na)] (up, down, total) =   4.57009  3.36018  7.93026
   spin  1
    eigenvalues: 
  0.787  0.787  0.999  0.999  0.999
    eigenvectors:
  0.000  0.000  0.000  0.000  1.000
  0.423  0.223  0.057  0.297  0.000
  0.223  0.423  0.297  0.057  0.000
  0.346  0.008  0.556  0.090  0.000
  0.008  0.346  0.090  0.556  0.000
    occupations:
  0.999  0.000  0.000  0.000  0.000
  0.000  0.862  0.000 -0.072  0.071
  0.000  0.000  0.862  0.071  0.072
  0.000 -0.072  0.071  0.924  0.000
  0.000  0.071  0.072  0.000  0.924
   spin  2
    eigenvalues: 
  0.473  0.473  0.769  0.823  0.823
    eigenvectors:
  0.000  0.000  1.000  0.000  0.000
  0.275  0.364  0.000  0.034  0.327
  0.364  0.275  0.000  0.327  0.034
  0.279  0.082  0.000  0.475  0.163
  0.082  0.279  0.000  0.163  0.475
    occupations:
  0.769  0.000  0.000  0.000  0.000
  0.000  0.599  0.000 -0.036  0.164
  0.000  0.000  0.599  0.164  0.036
  0.000 -0.036  0.164  0.696  0.000
  0.000  0.164  0.036  0.000  0.696
atomic mag. moment =     1.209909
atom    2   Tr[ns(na)] (up, down, total) =   4.67077  3.22804  7.89881
   spin  1
    eigenvalues: 
  0.837  0.837  0.999  0.999  0.999
    eigenvectors:
  0.000  0.000  0.000  0.000  1.000
  0.643  0.003  0.325  0.029  0.000
  0.003  0.643  0.029  0.325  0.000
  0.153  0.201  0.500  0.146  0.000
  0.201  0.153  0.146  0.500  0.000
    occupations:
  0.999  0.000  0.000  0.000  0.000
  0.000  0.894  0.000  0.055  0.055
  0.000  0.000  0.894  0.055 -0.055
  0.000  0.055  0.055  0.942  0.000
  0.000  0.055 -0.055  0.000  0.942
   spin  2
    eigenvalues: 
  0.459  0.459  0.731  0.789  0.789
    eigenvectors:
  0.000  0.000  1.000  0.000  0.000
  0.516  0.120  0.000  0.190  0.175
  0.120  0.516  0.000  0.175  0.190
  0.017  0.347  0.000  0.447  0.188
  0.347  0.017  0.000  0.188  0.447
    occupations:
  0.731  0.000  0.000  0.000  0.000
  0.000  0.579  0.000  0.036  0.155
  0.000  0.000  0.579  0.155 -0.036
  0.000  0.036  0.155  0.669  0.000
  0.000  0.155 -0.036  0.000  0.669
atomic mag. moment =     1.442734
atom    3   Tr[ns(na)] (up, down, total) =   1.91468  1.90038  3.81506
   spin  1
    eigenvalues: 
  0.357  0.357  0.387  0.407  0.407
    eigenvectors:
  0.000  0.000  1.000  0.000  0.000
  0.787  0.137  0.000  0.011  0.065
  0.137  0.787  0.000  0.065  0.011
  0.012  0.064  0.000  0.785  0.139
  0.064  0.012  0.000  0.139  0.785
    occupations:
  0.387  0.000  0.000  0.000  0.000
  0.000  0.361  0.000  0.000  0.013
  0.000  0.000  0.361  0.013  0.000
  0.000  0.000  0.013  0.403  0.000
  0.000  0.013  0.000  0.000  0.403
   spin  2
    eigenvalues: 
  0.353  0.353  0.387  0.404  0.404
    eigenvectors:
  0.000  0.000  1.000  0.000  0.000
  0.765  0.145  0.000  0.013  0.077
  0.145  0.765  0.000  0.077  0.013
  0.015  0.075  0.000  0.767  0.143
  0.075  0.015  0.000  0.143  0.767
    occupations:
  0.387  0.000  0.000  0.000  0.000
  0.000  0.358  0.000  0.000  0.015
  0.000  0.000  0.358  0.015  0.000
  0.000  0.000  0.015  0.399  0.000
  0.000  0.015  0.000  0.000  0.399
atomic mag. moment =     0.014295
atom    4   Tr[ns(na)] (up, down, total) =   1.91468  1.90038  3.81506
   spin  1
    eigenvalues: 
  0.357  0.357  0.387  0.407  0.407
    eigenvectors:
  0.000  0.000  1.000  0.000  0.000
  0.786  0.138  0.000  0.011  0.065
  0.138  0.786  0.000  0.065  0.011
  0.012  0.064  0.000  0.785  0.139
  0.064  0.012  0.000  0.139  0.785
    occupations:
  0.387  0.000  0.000  0.000  0.000
  0.000  0.361  0.000  0.000  0.013
  0.000  0.000  0.361  0.013  0.000
  0.000  0.000  0.013  0.403  0.000
  0.000  0.013  0.000  0.000  0.403
   spin  2
    eigenvalues: 
  0.353  0.353  0.387  0.404  0.404
    eigenvectors:
  0.000  0.000  1.000  0.000  0.000
  0.765  0.145  0.000  0.013  0.077
  0.145  0.765  0.000  0.077  0.013
  0.015  0.075  0.000  0.767  0.143
  0.075  0.015  0.000  0.143  0.767
    occupations:
  0.387  0.000  0.000  0.000  0.000
  0.000  0.358  0.000  0.000  0.015
  0.000  0.000  0.358  0.015  0.000
  0.000  0.000  0.015  0.399  0.000
  0.000  0.015  0.000  0.000  0.399
atomic mag. moment =     0.014295
atom    5   Tr[ns(na)] (up, down, total) =   2.74252  2.70361  5.44613
   spin  1
    eigenvalues: 
  0.844  0.947  0.951
    eigenvectors:
  0.337  0.000  0.663
  0.488  0.256  0.257
  0.176  0.744  0.080
    occupations:
  0.915  0.043  0.026
  0.043  0.898 -0.030
  0.026 -0.030  0.930
   spin  2
    eigenvalues: 
  0.864  0.920  0.920
    eigenvectors:
  0.333  0.042  0.625
  0.487  0.392  0.121
  0.179  0.566  0.255
    occupations:
  0.901  0.022  0.014
  0.022  0.893 -0.016
  0.014 -0.016  0.910
atomic mag. moment =     0.038908
atom    6   Tr[ns(na)] (up, down, total) =   2.74252  2.70361  5.44613
   spin  1
    eigenvalues: 
  0.844  0.947  0.951
    eigenvectors:
  0.337  0.000  0.663
  0.000  1.000  0.000
  0.663  0.000  0.337
    occupations:
  0.915  0.001 -0.051
  0.001  0.947  0.001
 -0.051  0.001  0.880
   spin  2
    eigenvalues: 
  0.864  0.920  0.920
    eigenvectors:
  0.333  0.042  0.625
  0.000  0.930  0.069
  0.666  0.028  0.306
    occupations:
  0.901  0.001 -0.026
  0.001  0.920  0.001
 -0.026  0.001  0.883
atomic mag. moment =     0.038908
atom    7   Tr[ns(na)] (up, down, total) =   2.74252  2.70361  5.44613
   spin  1
    eigenvalues: 
  0.844  0.947  0.951
    eigenvectors:
  0.337  0.000  0.663
  0.507  0.244  0.249
  0.156  0.756  0.088
    occupations:
  0.915 -0.044  0.025
 -0.044  0.896  0.029
  0.025  0.029  0.932
   spin  2
    eigenvalues: 
  0.864  0.920  0.920
    eigenvectors:
  0.333  0.042  0.625
  0.512  0.114  0.373
  0.154  0.844  0.002
    occupations:
  0.901 -0.023  0.013
 -0.023  0.891  0.016
  0.013  0.016  0.911
atomic mag. moment =     0.038908
atom    8   Tr[ns(na)] (up, down, total) =   2.74252  2.70361  5.44613
   spin  1
    eigenvalues: 
  0.844  0.947  0.951
    eigenvectors:
  0.337  0.000  0.663
  0.000  1.000  0.000
  0.663  0.000  0.337
    occupations:
  0.915  0.001 -0.051
  0.001  0.947  0.001
 -0.051  0.001  0.880
   spin  2
    eigenvalues: 
  0.864  0.920  0.920
    eigenvectors:
  0.333  0.042  0.625
  0.000  0.930  0.069
  0.666  0.028  0.306
    occupations:
  0.901  0.001 -0.026
  0.001  0.920  0.001
 -0.026  0.001  0.883
atomic mag. moment =     0.038908
atom    9   Tr[ns(na)] (up, down, total) =   2.74252  2.70361  5.44613
   spin  1
    eigenvalues: 
  0.844  0.947  0.951
    eigenvectors:
  0.337  0.000  0.663
  0.488  0.256  0.257
  0.176  0.744  0.080
    occupations:
  0.915  0.043  0.026
  0.043  0.898 -0.030
  0.026 -0.030  0.930
   spin  2
    eigenvalues: 
  0.864  0.920  0.920
    eigenvectors:
  0.333  0.042  0.625
  0.487  0.392  0.121
  0.179  0.566  0.255
    occupations:
  0.901  0.022  0.014
  0.022  0.893 -0.016
  0.014 -0.016  0.910
atomic mag. moment =     0.038908
atom   10   Tr[ns(na)] (up, down, total) =   2.74252  2.70361  5.44613
   spin  1
    eigenvalues: 
  0.844  0.947  0.951
    eigenvectors:
  0.337  0.000  0.663
  0.507  0.244  0.249
  0.156  0.756  0.088
    occupations:
  0.915 -0.044  0.025
 -0.044  0.896  0.029
  0.025  0.029  0.932
   spin  2
    eigenvalues: 
  0.864  0.920  0.920
    eigenvectors:
  0.333  0.042  0.625
  0.512  0.114  0.373
  0.154  0.844  0.002
    occupations:
  0.901 -0.023  0.013
 -0.023  0.891  0.016
  0.013  0.016  0.911
atomic mag. moment =     0.038908
N of occupied +U levels =  56.1359918
 --- exit write_ns ---
 --- in v_hubbard ---
Hubbard energy    0.0291
 -------

     total cpu time spent up to now is      165.1 secs

     total energy              =    -538.32625776 Ry
     Harris-Foulkes estimate   =    -538.32625433 Ry
     estimated scf accuracy    <       0.00000290 Ry

     total magnetization       =     3.55 Bohr mag/cell
     absolute magnetization    =     3.71 Bohr mag/cell

     iteration #  7     ecut=    30.00 Ry     beta=0.20
     Davidson diagonalization with overlap
     ethr =  3.52E-09,  avg # of iterations =  1.6
 --- enter write_ns ---
 LDA+U parameters:
U( 1)     =  0.00000000
alpha( 1) =  0.05000000
U( 2)     =  0.00000000
alpha( 2) =  0.00000000
U( 3)     =  0.00000000
alpha( 3) =  0.00000000
U( 4)     =  0.00000000
alpha( 4) =  0.00000000
atom    1   Tr[ns(na)] (up, down, total) =   4.57237  3.35823  7.93060
   spin  1
    eigenvalues: 
  0.788  0.788  0.999  0.999  0.999
    eigenvectors:
  0.000  0.000  0.000  0.000  1.000
  0.423  0.224  0.056  0.297  0.000
  0.224  0.423  0.297  0.056  0.000
  0.346  0.008  0.556  0.090  0.000
  0.008  0.346  0.090  0.556  0.000
    occupations:
  0.999  0.000  0.000  0.000  0.000
  0.000  0.863  0.000 -0.072  0.071
  0.000  0.000  0.863  0.071  0.072
  0.000 -0.072  0.071  0.924  0.000
  0.000  0.071  0.072  0.000  0.924
   spin  2
    eigenvalues: 
  0.472  0.472  0.769  0.822  0.822
    eigenvectors:
  0.000  0.000  1.000  0.000  0.000
  0.275  0.364  0.000  0.034  0.327
  0.364  0.275  0.000  0.327  0.034
  0.279  0.082  0.000  0.475  0.164
  0.082  0.279  0.000  0.164  0.475
    occupations:
  0.769  0.000  0.000  0.000  0.000
  0.000  0.599  0.000 -0.036  0.164
  0.000  0.000  0.599  0.164  0.036
  0.000 -0.036  0.164  0.696  0.000
  0.000  0.164  0.036  0.000  0.696
atomic mag. moment =     1.214134
atom    2   Tr[ns(na)] (up, down, total) =   4.66953  3.22933  7.89886
   spin  1
    eigenvalues: 
  0.836  0.836  0.999  0.999  0.999
    eigenvectors:
  0.000  0.000  0.000  0.000  1.000
  0.643  0.003  0.325  0.028  0.000
  0.003  0.643  0.028  0.325  0.000
  0.153  0.201  0.499  0.147  0.000
  0.201  0.153  0.147  0.499  0.000
    occupations:
  0.999  0.000  0.000  0.000  0.000
  0.000  0.894  0.000  0.055  0.055
  0.000  0.000  0.894  0.055 -0.055
  0.000  0.055  0.055  0.941  0.000
  0.000  0.055 -0.055  0.000  0.941
   spin  2
    eigenvalues: 
  0.459  0.459  0.732  0.789  0.789
    eigenvectors:
  0.000  0.000  1.000  0.000  0.000
  0.518  0.118  0.000  0.190  0.174
  0.118  0.518  0.000  0.174  0.190
  0.016  0.348  0.000  0.447  0.188
  0.348  0.016  0.000  0.188  0.447
    occupations:
  0.732  0.000  0.000  0.000  0.000
  0.000  0.580  0.000  0.036  0.155
  0.000  0.000  0.580  0.155 -0.036
  0.000  0.036  0.155  0.669  0.000
  0.000  0.155 -0.036  0.000  0.669
atomic mag. moment =     1.440204
atom    3   Tr[ns(na)] (up, down, total) =   1.91475  1.90044  3.81519
   spin  1
    eigenvalues: 
  0.357  0.357  0.387  0.407  0.407
    eigenvectors:
  0.000  0.000  1.000  0.000  0.000
  0.786  0.138  0.000  0.011  0.065
  0.138  0.786  0.000  0.065  0.011
  0.012  0.064  0.000  0.785  0.139
  0.064  0.012  0.000  0.139  0.785
    occupations:
  0.387  0.000  0.000  0.000  0.000
  0.000  0.361  0.000  0.000  0.013
  0.000  0.000  0.361  0.013  0.000
  0.000  0.000  0.013  0.403  0.000
  0.000  0.013  0.000  0.000  0.403
   spin  2
    eigenvalues: 
  0.353  0.353  0.387  0.404  0.404
    eigenvectors:
  0.000  0.000  1.000  0.000  0.000
  0.766  0.144  0.000  0.013  0.077
  0.144  0.766  0.000  0.077  0.013
  0.015  0.075  0.000  0.767  0.143
  0.075  0.015  0.000  0.143  0.767
    occupations:
  0.387  0.000  0.000  0.000  0.000
  0.000  0.358  0.000  0.000  0.015
  0.000  0.000  0.358  0.015  0.000
  0.000  0.000  0.015  0.399  0.000
  0.000  0.015  0.000  0.000  0.399
atomic mag. moment =     0.014315
atom    4   Tr[ns(na)] (up, down, total) =   1.91475  1.90044  3.81519
   spin  1
    eigenvalues: 
  0.357  0.357  0.387  0.407  0.407
    eigenvectors:
  0.000  0.000  1.000  0.000  0.000
  0.786  0.138  0.000  0.011  0.065
  0.138  0.786  0.000  0.065  0.011
  0.012  0.064  0.000  0.785  0.139
  0.064  0.012  0.000  0.139  0.785
    occupations:
  0.387  0.000  0.000  0.000  0.000
  0.000  0.361  0.000  0.000  0.013
  0.000  0.000  0.361  0.013  0.000
  0.000  0.000  0.013  0.403  0.000
  0.000  0.013  0.000  0.000  0.403
   spin  2
    eigenvalues: 
  0.353  0.353  0.387  0.404  0.404
    eigenvectors:
  0.000  0.000  1.000  0.000  0.000
  0.766  0.145  0.000  0.013  0.077
  0.145  0.766  0.000  0.077  0.013
  0.015  0.075  0.000  0.767  0.143
  0.075  0.015  0.000  0.143  0.767
    occupations:
  0.387  0.000  0.000  0.000  0.000
  0.000  0.358  0.000  0.000  0.015
  0.000  0.000  0.358  0.015  0.000
  0.000  0.000  0.015  0.399  0.000
  0.000  0.015  0.000  0.000  0.399
atomic mag. moment =     0.014315
atom    5   Tr[ns(na)] (up, down, total) =   2.74244  2.70358  5.44602
   spin  1
    eigenvalues: 
  0.844  0.947  0.951
    eigenvectors:
  0.337  0.000  0.663
  0.488  0.256  0.257
  0.175  0.744  0.080
    occupations:
  0.915  0.044  0.026
  0.044  0.898 -0.030
  0.026 -0.030  0.930
   spin  2
    eigenvalues: 
  0.864  0.920  0.920
    eigenvectors:
  0.333  0.052  0.615
  0.487  0.404  0.109
  0.179  0.545  0.276
    occupations:
  0.901  0.022  0.014
  0.022  0.893 -0.016
  0.014 -0.016  0.910
atomic mag. moment =     0.038857
atom    6   Tr[ns(na)] (up, down, total) =   2.74244  2.70358  5.44602
   spin  1
    eigenvalues: 
  0.844  0.947  0.951
    eigenvectors:
  0.337  0.000  0.663
  0.000  1.000  0.000
  0.663  0.000  0.337
    occupations:
  0.915  0.001 -0.051
  0.001  0.947  0.001
 -0.051  0.001  0.880
   spin  2
    eigenvalues: 
  0.864  0.920  0.920
    eigenvectors:
  0.333  0.052  0.615
  0.000  0.915  0.084
  0.666  0.033  0.301
    occupations:
  0.901  0.001 -0.026
  0.001  0.920  0.001
 -0.026  0.001  0.883
atomic mag. moment =     0.038857
atom    7   Tr[ns(na)] (up, down, total) =   2.74244  2.70358  5.44602
   spin  1
    eigenvalues: 
  0.844  0.947  0.951
    eigenvectors:
  0.337  0.000  0.663
  0.507  0.244  0.249
  0.156  0.755  0.088
    occupations:
  0.915 -0.044  0.025
 -0.044  0.896  0.029
  0.025  0.029  0.932
   spin  2
    eigenvalues: 
[...]
     0.0937   0.0937   0.0937   0.0937   0.0937   0.0937   0.0937   0.0873
     0.0085   0.0000   0.0000   0.0000   0.0000   0.0000

          k = 0.4942-0.5706-0.2053 (  2206 PWs)   bands (ev):

   -19.6687 -19.6687  -6.8601  -6.8466  -6.0058  -6.0046  -5.3909  -5.3879
    -3.1147  -3.1142  -2.7725  -2.7715  -2.3472  -2.3445   5.9324   5.9524
     6.8187   6.8467   6.9087   6.9134   7.3662   7.3669   7.9182   7.9442
     8.7638   8.7678   8.8886   8.8925   9.4885   9.4985   9.9845   9.9959
    10.6643  10.6976  10.8058  10.8462  11.0815  11.1109  11.4380  11.4659
    13.3025  13.3302  17.4372  17.4374  17.8855  17.8880

     occupation numbers 
     0.0938   0.0938   0.0938   0.0938   0.0938   0.0938   0.0938   0.0938
     0.0938   0.0938   0.0938   0.0938   0.0938   0.0938   0.0938   0.0938
     0.0938   0.0938   0.0938   0.0938   0.0938   0.0938   0.0938   0.0938
     0.0938   0.0938   0.0938   0.0938   0.0938   0.0938   0.0937   0.0937
     0.0937   0.0937   0.0937   0.0937   0.0937   0.0937   0.0936   0.0936
     0.0000   0.0000   0.0000   0.0000   0.0000   0.0000

          k = 0.0000 0.0000-0.6160 (  2186 PWs)   bands (ev):

   -19.6708 -19.6705  -6.4896  -6.4746  -5.9062  -5.9062  -5.8980  -5.8980
    -2.8471  -2.8471  -2.8470  -2.8470  -2.6746  -2.6745   6.2903   6.2938
     6.9359   6.9359   6.9795   6.9795   7.6865   7.7020   7.8677   7.8677
     7.8902   7.8902   9.5560   9.5560   9.5813   9.5813   9.6841   9.7026
    10.7317  10.8412  10.8961  10.8961  10.9956  10.9956  12.4630  12.4630
    12.5860  12.5860  17.1247  17.1247  17.1259  17.1259

     occupation numbers 
     0.0156   0.0156   0.0156   0.0156   0.0156   0.0156   0.0156   0.0156
     0.0156   0.0156   0.0156   0.0156   0.0156   0.0156   0.0156   0.0156
     0.0156   0.0156   0.0156   0.0156   0.0156   0.0156   0.0156   0.0156
     0.0156   0.0156   0.0156   0.0156   0.0156   0.0156   0.0156   0.0156
     0.0156   0.0156   0.0156   0.0156   0.0156   0.0156   0.0045   0.0045
     0.0025   0.0025   0.0000   0.0000   0.0000   0.0000

          k = 0.4942-0.5706 0.1027 (  2198 PWs)   bands (ev):

   -19.6902 -19.6494  -6.9291  -6.6169  -6.0993  -5.8602  -5.4772  -5.3432
    -3.2624  -3.2146  -2.8372  -2.6677  -2.4885  -2.3476   5.8249   6.1407
     6.6330   6.7371   7.0853   7.2634   7.4121   7.6225   7.7195   7.8751
     8.1751   8.7405   8.9995   9.2197   9.5115   9.7483   9.8634  10.2943
    10.4102  10.7825  10.9092  10.9485  11.0980  11.1531  11.5220  11.9126
    12.6937  13.6969  16.9225  17.1204  17.3244  18.0310

     occupation numbers 
     0.0938   0.0938   0.0938   0.0938   0.0938   0.0938   0.0938   0.0938
     0.0938   0.0938   0.0938   0.0938   0.0938   0.0938   0.0938   0.0938
     0.0938   0.0938   0.0938   0.0938   0.0938   0.0938   0.0938   0.0938
     0.0938   0.0938   0.0938   0.0938   0.0938   0.0938   0.0938   0.0937
     0.0937   0.0937   0.0937   0.0937   0.0937   0.0937   0.0934   0.0854
     0.0081   0.0000   0.0000   0.0000   0.0000   0.0000

 ------ SPIN DOWN ----------


          k = 0.0000 0.0000 0.0000 (  2175 PWs)   bands (ev):

   -19.7575 -19.5844  -6.4374  -5.7150  -5.7150  -5.6985  -5.6985  -5.3638
    -3.7140  -3.2280  -3.1177  -3.1177  -2.9715  -2.9715   5.2436   7.2704
     7.2704   7.5827   7.5827   7.7762   8.0342   8.0342   8.0779   9.4367
     9.7465   9.7465  10.0644  10.1173  10.1173  10.5915  10.5915  10.7879
    11.2173  11.2173  11.3040  12.1520  12.1520  12.6889  13.0151  13.0151
    15.3596  15.3596  15.5012  15.5012  16.2213  16.8251

     occupation numbers 
     0.0156   0.0156   0.0156   0.0156   0.0156   0.0156   0.0156   0.0156
     0.0156   0.0156   0.0156   0.0156   0.0156   0.0156   0.0156   0.0156
     0.0156   0.0156   0.0156   0.0156   0.0156   0.0156   0.0156   0.0156
     0.0156   0.0156   0.0156   0.0156   0.0156   0.0156   0.0156   0.0156
     0.0156   0.0156   0.0156   0.0109   0.0109   0.0014   0.0001   0.0001
     0.0000   0.0000   0.0000   0.0000   0.0000   0.0000

          k =-0.2471-0.1427 0.1027 (  2181 PWs)   bands (ev):

   -19.7296 -19.6072  -6.6237  -6.1850  -5.8198  -5.7291  -5.4858  -5.3490
    -3.5301  -3.3372  -2.8595  -2.8392  -2.7714  -2.6992   5.6101   6.9509
     7.3359   7.3556   7.4691   7.6812   7.6866   8.0352   8.0552   8.8154
     8.8816   9.5223   9.8019  10.0020  10.0612  10.1874  10.5354  10.5460
    11.5443  11.5892  11.6403  12.3350  12.3749  12.5039  13.1641  13.2110
    14.9253  14.9378  15.8919  16.1330  17.0142  17.3172

     occupation numbers 
     0.0938   0.0938   0.0938   0.0938   0.0938   0.0938   0.0938   0.0938
     0.0938   0.0938   0.0938   0.0938   0.0938   0.0938   0.0938   0.0938
     0.0938   0.0938   0.0938   0.0938   0.0938   0.0938   0.0938   0.0938
     0.0938   0.0938   0.0938   0.0937   0.0937   0.0937   0.0937   0.0937
     0.0933   0.0931   0.0927   0.0424   0.0374   0.0226   0.0001   0.0001
     0.0000   0.0000   0.0000   0.0000   0.0000   0.0000

          k = 0.4942 0.2853-0.2053 (  2202 PWs)   bands (ev):

   -19.6660 -19.6656  -6.6281  -6.6156  -5.8452  -5.8391  -5.3945  -5.3870
    -3.3264  -3.3244  -2.7160  -2.7153  -2.4471  -2.4449   6.1635   6.1642
     7.4227   7.4436   7.4982   7.5253   7.8536   7.8786   8.1547   8.1739
     8.4134   8.4381   9.7203   9.7261  10.0275  10.0337  10.4468  10.4543
    11.9538  11.9906  12.0486  12.0839  12.1973  12.2270  13.9685  14.0347
    14.0383  14.1039  16.8923  16.8976  17.1885  17.1937

     occupation numbers 
     0.0469   0.0469   0.0469   0.0469   0.0469   0.0469   0.0469   0.0469
     0.0469   0.0469   0.0469   0.0469   0.0469   0.0469   0.0469   0.0469
     0.0469   0.0469   0.0469   0.0469   0.0469   0.0469   0.0469   0.0469
     0.0469   0.0469   0.0469   0.0469   0.0469   0.0469   0.0469   0.0469
     0.0415   0.0403   0.0379   0.0363   0.0300   0.0282   0.0000   0.0000
     0.0000   0.0000   0.0000   0.0000   0.0000   0.0000

          k =-0.2471 0.1427 0.2053 (  2195 PWs)   bands (ev):

   -19.7249 -19.6096  -6.7497  -6.1252  -5.9584  -5.7083  -5.5336  -5.3179
    -3.3550  -3.2175  -3.0337  -2.8196  -2.7386  -2.4927   5.6623   6.9874
     7.2670   7.2978   7.3862   7.5605   7.6568   8.0664   8.0892   8.8368
     9.1093   9.1119   9.4693   9.9625  10.1283  10.2596  10.3375  10.4608
    11.2380  11.8602  11.9688  12.0326  12.3919  12.5123  12.9389  13.5028
    14.3018  15.3975  16.0442  16.2535  17.0837  17.5818

     occupation numbers 
     0.0938   0.0938   0.0938   0.0938   0.0938   0.0938   0.0938   0.0938
     0.0938   0.0938   0.0938   0.0938   0.0938   0.0938   0.0938   0.0938
     0.0938   0.0938   0.0938   0.0938   0.0938   0.0938   0.0938   0.0938
     0.0938   0.0938   0.0938   0.0937   0.0937   0.0937   0.0937   0.0937
     0.0937   0.0878   0.0820   0.0772   0.0352   0.0217   0.0013   0.0000
     0.0000   0.0000   0.0000   0.0000   0.0000   0.0000

          k = 0.4942 0.5706-0.1027 (  2198 PWs)   bands (ev):

   -19.6848 -19.6442  -6.8545  -6.5462  -6.0251  -5.7797  -5.3780  -5.2388
    -3.2541  -3.2045  -2.8132  -2.6404  -2.4578  -2.3159   6.0232   6.4076
     7.0472   7.3147   7.4034   7.4705   7.7350   8.0058   8.1314   8.2756
     8.5464   9.0833   9.3408   9.5206   9.8594   9.9742  10.1347  10.5221
    11.6161  12.0072  12.1017  12.1931  12.3276  12.3414  13.1511  13.5105
    14.1241  14.9917  16.9599  17.1820  17.3699  18.0720

     occupation numbers 
     0.0938   0.0938   0.0938   0.0938   0.0938   0.0938   0.0938   0.0938
     0.0938   0.0938   0.0938   0.0938   0.0938   0.0938   0.0938   0.0938
     0.0938   0.0938   0.0938   0.0938   0.0938   0.0938   0.0938   0.0938
     0.0938   0.0938   0.0938   0.0938   0.0938   0.0937   0.0937   0.0937
     0.0929   0.0793   0.0708   0.0605   0.0434   0.0416   0.0002   0.0000
     0.0000   0.0000   0.0000   0.0000   0.0000   0.0000

          k = 0.2471 0.4280 0.0000 (  2203 PWs)   bands (ev):

   -19.6945 -19.6368  -6.7465  -6.5356  -5.9458  -5.8652  -5.3027  -5.2255
    -3.4598  -3.2487  -2.7358  -2.6432  -2.5015  -2.4851   5.9785   6.4255
     7.2645   7.4042   7.4490   7.5198   7.5736   7.9161   8.0277   8.3883
     8.6436   9.1094   9.5675   9.6838   9.9467   9.9506  10.2155  10.5353
    11.8781  11.8912  11.9596  12.1512  12.1647  12.4418  13.1181  13.9964
    14.0866  14.7987  16.5017  17.0514  17.4683  17.9732

     occupation numbers 
     0.0938   0.0938   0.0938   0.0938   0.0938   0.0938   0.0938   0.0938
     0.0938   0.0938   0.0938   0.0938   0.0938   0.0938   0.0938   0.0938
     0.0938   0.0938   0.0938   0.0938   0.0938   0.0938   0.0938   0.0938
     0.0938   0.0938   0.0938   0.0938   0.0937   0.0937   0.0937   0.0937
     0.0870   0.0864   0.0826   0.0654   0.0639   0.0293   0.0002   0.0000
     0.0000   0.0000   0.0000   0.0000   0.0000   0.0000

          k = 0.4942-0.2853-0.4107 (  2202 PWs)   bands (ev):

   -19.6919 -19.6346  -7.0651  -6.3604  -6.1437  -5.8354  -5.4119  -5.1366
    -3.1453  -3.0839  -2.9835  -2.5834  -2.4072  -2.1529   5.9452   6.5210
     6.6220   7.2203   7.2595   7.3252   8.0905   8.1617   8.2592   8.3688
     8.7164   8.8526   8.8724   9.5468   9.7810  10.1584  10.1825  10.6032
    11.2219  11.8988  12.0229  12.2409  12.3836  12.4516  12.8766  13.2706
    14.0511  15.4198  17.0898  17.3405  17.5689  17.6357

     occupation numbers 
     0.0469   0.0469   0.0469   0.0469   0.0469   0.0469   0.0469   0.0469
     0.0469   0.0469   0.0469   0.0469   0.0469   0.0469   0.0469   0.0469
     0.0469   0.0469   0.0469   0.0469   0.0469   0.0469   0.0469   0.0469
     0.0469   0.0469   0.0469   0.0469   0.0469   0.0469   0.0469   0.0469
     0.0469   0.0430   0.0390   0.0273   0.0181   0.0141   0.0011   0.0000
     0.0000   0.0000   0.0000   0.0000   0.0000   0.0000

          k = 0.0000 0.0000 0.3080 (  2187 PWs)   bands (ev):

   -19.7294 -19.6070  -6.5095  -5.8716  -5.8097  -5.8097  -5.7193  -5.7193
    -3.1430  -3.0307  -3.0307  -2.9229  -2.8286  -2.8286   5.6611   7.2063
     7.3378   7.3378   7.5529   7.5529   7.7000   8.0642   8.0642   9.0538
     9.0538   9.5831   9.5862   9.8593   9.8593  10.0686  10.2974  10.2974
    11.6572  11.6572  11.6745  12.3503  12.3503  12.5223  13.1433  13.1433
    14.8868  14.8868  15.9796  15.9796  16.9143  17.5394

     occupation numbers 
     0.0313   0.0313   0.0313   0.0313   0.0313   0.0313   0.0313   0.0313
     0.0313   0.0313   0.0313   0.0313   0.0313   0.0313   0.0313   0.0313
     0.0313   0.0313   0.0313   0.0313   0.0313   0.0313   0.0313   0.0313
     0.0313   0.0313   0.0313   0.0313   0.0313   0.0312   0.0312   0.0312
     0.0308   0.0308   0.0308   0.0135   0.0135   0.0069   0.0001   0.0001
     0.0000   0.0000   0.0000   0.0000   0.0000   0.0000

          k = 0.7412 0.4280 0.0000 (  2204 PWs)   bands (ev):

   -19.6943 -19.6366  -6.6305  -6.4990  -6.0394  -5.7158  -5.5492  -5.4160
    -3.1078  -3.0295  -2.9913  -2.6085  -2.5931  -2.5092   6.0251   6.6123
     7.2759   7.4375   7.4440   7.5390   7.5761   7.8684   8.2132   8.3659
     8.6872   8.9844   9.6393   9.6697   9.7662   9.8342  10.0374  10.3808
    11.8709  11.8972  12.0217  12.1652  12.2088  12.4060  13.1109  13.9231
    14.0096  14.8248  16.7635  16.7727  17.6390  17.8562

     occupation numbers 
     0.0938   0.0938   0.0938   0.0938   0.0938   0.0938   0.0938   0.0938
     0.0938   0.0938   0.0938   0.0938   0.0938   0.0938   0.0938   0.0938
     0.0938   0.0938   0.0938   0.0938   0.0938   0.0938   0.0938   0.0938
     0.0938   0.0938   0.0938   0.0938   0.0938   0.0938   0.0937   0.0937
     0.0874   0.0862   0.0781   0.0638   0.0586   0.0335   0.0002   0.0000
     0.0000   0.0000   0.0000   0.0000   0.0000   0.0000

          k = 0.4942 0.2853 0.1027 (  2211 PWs)   bands (ev):

   -19.6848 -19.6442  -6.8709  -6.4419  -6.2211  -5.5714  -5.5047  -5.2107
    -3.2676  -3.1168  -2.9657  -2.5386  -2.4907  -2.3072   6.0495   6.3800
     7.0147   7.3194   7.3383   7.4573   7.7329   8.0481   8.2115   8.2305
     8.5936   9.2087   9.3440   9.5753   9.7304   9.8315  10.1912  10.5373
    11.6144  12.0511  12.1516  12.2097  12.2737  12.2830  13.1151  13.5198
    14.1682  14.9763  16.9483  16.9852  17.6504  17.9874

     occupation numbers 
     0.0938   0.0938   0.0938   0.0938   0.0938   0.0938   0.0938   0.0938
     0.0938   0.0938   0.0938   0.0938   0.0938   0.0938   0.0938   0.0938
     0.0938   0.0938   0.0938   0.0938   0.0938   0.0938   0.0938   0.0938
     0.0938   0.0938   0.0938   0.0938   0.0938   0.0938   0.0937   0.0937
     0.0929   0.0756   0.0654   0.0585   0.0504   0.0492   0.0002   0.0000
     0.0000   0.0000   0.0000   0.0000   0.0000   0.0000

          k = 0.7412-0.4280-0.3080 (  2210 PWs)   bands (ev):

   -19.6846 -19.6440  -6.8063  -6.3479  -6.1984  -5.6837  -5.6348  -5.3439
    -3.0142  -2.9884  -2.9131  -2.6652  -2.5462  -2.3592   6.1129   6.5379
     7.0987   7.3024   7.3889   7.4102   7.7505   8.0930   8.2318   8.2715
     8.5906   9.1748   9.1917   9.6770   9.7119   9.7736   9.8356  10.3766
    11.6642  12.0558  12.1357  12.1966  12.3059  12.3589  13.0775  13.4794
    14.1204  14.9426  17.1216  17.1324  17.6175  17.9570

     occupation numbers 
     0.0938   0.0938   0.0938   0.0938   0.0938   0.0938   0.0938   0.0938
     0.0938   0.0938   0.0938   0.0938   0.0938   0.0938   0.0938   0.0938
     0.0938   0.0938   0.0938   0.0938   0.0938   0.0938   0.0938   0.0938
     0.0938   0.0938   0.0938   0.0938   0.0938   0.0938   0.0938   0.0937
     0.0925   0.0752   0.0671   0.0601   0.0462   0.0394   0.0003   0.0000
     0.0000   0.0000   0.0000   0.0000   0.0000   0.0000

          k = 0.4942-0.5706-0.2053 (  2206 PWs)   bands (ev):

   -19.6634 -19.6634  -6.7873  -6.7738  -5.9320  -5.9307  -5.2862  -5.2839
    -3.1072  -3.1066  -2.7476  -2.7466  -2.3143  -2.3112   6.2327   6.2483
     7.1811   7.1829   7.3505   7.3572   7.5818   7.5915   8.4360   8.4682
     8.9323   8.9337   9.2381   9.2383   9.7088   9.7142  10.2746  10.2772
    11.8715  11.8774  12.0476  12.0738  12.3572  12.3727  13.1415  13.1540
    14.6588  14.6681  17.5006  17.5013  17.9152  17.9174

     occupation numbers 
     0.0938   0.0938   0.0938   0.0938   0.0938   0.0938   0.0938   0.0938
     0.0938   0.0938   0.0938   0.0938   0.0938   0.0938   0.0938   0.0938
     0.0938   0.0938   0.0938   0.0938   0.0938   0.0938   0.0938   0.0938
     0.0938   0.0938   0.0938   0.0938   0.0938   0.0938   0.0937   0.0937
     0.0873   0.0871   0.0759   0.0735   0.0396   0.0376   0.0002   0.0001
     0.0000   0.0000   0.0000   0.0000   0.0000   0.0000

          k = 0.0000 0.0000-0.6160 (  2186 PWs)   bands (ev):

   -19.6656 -19.6652  -6.4125  -6.3968  -5.8242  -5.8242  -5.8172  -5.8172
    -2.8158  -2.8158  -2.8151  -2.8151  -2.6585  -2.6581   6.3769   6.3792
     7.4433   7.4433   7.4704   7.4704   8.0074   8.0279   8.3223   8.3223
     8.3466   8.3466   9.8198   9.8198   9.8215   9.8215   9.8635   9.8741
    12.0985  12.1269  12.1269  12.1342  12.1584  12.1584  13.9036  13.9036
    13.9715  13.9715  17.1825  17.1825  17.1866  17.1866

     occupation numbers 
     0.0156   0.0156   0.0156   0.0156   0.0156   0.0156   0.0156   0.0156
     0.0156   0.0156   0.0156   0.0156   0.0156   0.0156   0.0156   0.0156
     0.0156   0.0156   0.0156   0.0156   0.0156   0.0156   0.0156   0.0156
     0.0156   0.0156   0.0156   0.0156   0.0156   0.0156   0.0156   0.0156
     0.0118   0.0114   0.0114   0.0112   0.0108   0.0108   0.0000   0.0000
     0.0000   0.0000   0.0000   0.0000   0.0000   0.0000

          k = 0.4942-0.5706 0.1027 (  2198 PWs)   bands (ev):

   -19.6848 -19.6442  -6.8548  -6.5447  -6.0271  -5.7800  -5.3785  -5.2369
    -3.2547  -3.2045  -2.8136  -2.6395  -2.4585  -2.3153   6.0218   6.4092
     7.0451   7.3186   7.4156   7.4605   7.7282   8.0070   8.1134   8.2981
     8.5444   9.0888   9.3361   9.5183   9.8565   9.9767  10.1347  10.5234
    11.6143  12.0252  12.0862  12.1931  12.3313  12.3377  13.1489  13.5106
    14.1240  14.9925  16.9621  17.1793  17.3705  18.0714

     occupation numbers 
     0.0938   0.0938   0.0938   0.0938   0.0938   0.0938   0.0938   0.0938
     0.0938   0.0938   0.0938   0.0938   0.0938   0.0938   0.0938   0.0938
     0.0938   0.0938   0.0938   0.0938   0.0938   0.0938   0.0938   0.0938
     0.0938   0.0938   0.0938   0.0938   0.0938   0.0937   0.0937   0.0937
     0.0929   0.0778   0.0723   0.0605   0.0429   0.0421   0.0002   0.0000
     0.0000   0.0000   0.0000   0.0000   0.0000   0.0000

     the Fermi energy is    12.3007 ev

!    total energy              =    -538.32627244 Ry
     Harris-Foulkes estimate   =    -538.32626908 Ry
     estimated scf accuracy    <          8.6E-09 Ry

     The total energy is the sum of the following terms:

     one-electron contribution =     -32.73791023 Ry
     hartree contribution      =      83.51828614 Ry
     xc contribution           =    -199.65239426 Ry
     ewald contribution        =    -389.44315552 Ry
     Hubbard energy            =       0.02912661 Ry
     smearing contrib. (-TS)   =      -0.04022519 Ry

     total magnetization       =     3.55 Bohr mag/cell
     absolute magnetization    =     3.71 Bohr mag/cell

     convergence has been achieved in  14 iterations

     init_run     :      8.09s CPU      8.17s WALL (       1 calls)
     electrons    :    363.59s CPU    366.18s WALL (       1 calls)

     Called by init_run:
     wfcinit      :      0.00s CPU      0.00s WALL (       1 calls)
     potinit      :      0.80s CPU      0.82s WALL (       1 calls)

     Called by electrons:
     c_bands      :    250.52s CPU    251.71s WALL (      14 calls)
     sum_band     :     72.20s CPU     72.60s WALL (      14 calls)
     v_of_rho     :     10.68s CPU     10.76s WALL (      15 calls)
     v_h          :      0.22s CPU      0.22s WALL (      15 calls)
     v_xc         :     10.45s CPU     10.54s WALL (      15 calls)
     newd         :     30.89s CPU     30.93s WALL (      15 calls)
     mix_rho      :      0.79s CPU      0.79s WALL (      14 calls)

     Called by c_bands:
     init_us_2    :      2.89s CPU      2.89s WALL (     784 calls)
     cegterg      :    242.63s CPU    243.09s WALL (     392 calls)

     Called by sum_band:
     sum_band:bec :      0.31s CPU      0.29s WALL (     392 calls)
     addusdens    :     27.52s CPU     27.56s WALL (      14 calls)

     Called by *egterg:
     h_psi        :    181.25s CPU    181.63s WALL (    1610 calls)
     s_psi        :     10.62s CPU     10.64s WALL (    1610 calls)
     g_psi        :      0.90s CPU      0.89s WALL (    1218 calls)
     cdiaghg      :     18.46s CPU     18.47s WALL (    1582 calls)
     cegterg:over :     11.93s CPU     11.91s WALL (    1218 calls)
     cegterg:upda :      7.75s CPU      7.78s WALL (    1218 calls)
     cegterg:last :      4.60s CPU      4.60s WALL (     414 calls)

     Called by h_psi:
     h_psi:vloc   :    146.95s CPU    147.25s WALL (    1610 calls)
     h_psi:vnl    :     22.12s CPU     22.17s WALL (    1610 calls)
     add_vuspsi   :     10.66s CPU     10.67s WALL (    1610 calls)
     vhpsi        :     11.81s CPU     11.83s WALL (    1610 calls)

     General routines
     calbec       :     23.65s CPU     23.72s WALL (    4004 calls)
     fft          :      4.57s CPU      4.60s WALL (     453 calls)
     ffts         :      0.15s CPU      0.15s WALL (      58 calls)
     fftw         :    141.05s CPU    141.28s WALL (  107962 calls)
     interpolate  :      0.85s CPU      0.85s WALL (      58 calls)
     davcio       :      0.01s CPU      0.70s WALL (     812 calls)

     Parallel routines
     fft_scatter  :     35.68s CPU     35.71s WALL (  108473 calls)
     Hubbard U routines
     new_ns       :      2.33s CPU      2.63s WALL (      14 calls)
     vhpsi        :     11.81s CPU     11.83s WALL (    1610 calls)

     PWSCF        :  6m12.14s CPU     6m14.84s WALL


   This run was terminated on:  12:32:35  13Nov2012            

=------------------------------------------------------------------------------=
