   JOB DONE.
=------------------------------------------------------------------------------=

     Program PWSCF v.5.0.1 starts on 11Nov2012 at 15:12:52 

     This program is part of the open-source Quantum ESPRESSO suite
     for quantum simulation of materials; please cite
         "P. Giannozzi et al., J. Phys.:Condens. Matter 21 395502 (2009);
          URL http://www.quantum-espresso.org", 
     in publications or presentations arising from this work. More details at
     http://www.quantum-espresso.org/quote.php

     Parallel version (MPI), running on     2 processors
     R & G space division:  proc/pool =    2

     Current dimensions of program PWSCF are:
     Max number of different atomic species (ntypx) = 10
     Max number of k-points (npk) =  40000
     Max angular momentum in pseudopotentials (lmaxx) =  3
     Reading input from CoLaO_U300_a15.in
               file Co.pbe-nd-rrkjus.UPF: wavefunction(s)  4S 3D renormalized
               file Co.pbe-nd-rrkjus.UPF: wavefunction(s)  4S 3D renormalized
               file O.pbe-rrkjus.UPF: wavefunction(s)  2S renormalized

     Subspace diagonalization in iterative solution of the eigenvalue problem:
     a serial algorithm will be used


     Parallelization info
     --------------------
     sticks:   dense  smooth     PW     G-vecs:    dense   smooth      PW
     Min        1112     444    131                34808     8786    1448
     Max        1113     445    132                34809     8787    1449
     Sum        2225     889    263                69617    17573    2897


     Title: 
     GGA + U, U = 3.000, alpha = 0.150                                          


     bravais-lattice index     =            5
     lattice parameter (alat)  =      10.3292  a.u.
     unit-cell volume          =     793.0599 (a.u.)^3
     number of atoms/cell      =           10
     number of atomic types    =            4
     number of electrons       =        76.00
     number of Kohn-Sham states=           46
     kinetic-energy cutoff     =      30.0000  Ry
     charge density cutoff     =     300.0000  Ry
     convergence threshold     =      1.0E-08
     mixing beta               =       0.2000
     number of iterations used =            8  plain     mixing
     Exchange-correlation      =  SLA  PW   PBE  PBE ( 1 4 3 4 0)
     EXX-fraction              =        0.00

     celldm(1)=  10.329242  celldm(2)=   0.000000  celldm(3)=   0.000000
     celldm(4)=   0.488100  celldm(5)=   0.000000  celldm(6)=   0.000000

     crystal axes: (cart. coord. in units of alat)
               a(1) = (   0.505915  -0.292090   0.811624 )  
               a(2) = (   0.000000   0.584180   0.811624 )  
               a(3) = (  -0.505915  -0.292090   0.811624 )  

     reciprocal axes: (cart. coord. in units 2 pi/alat)
               b(1) = (  0.988308 -0.570600  0.410699 )  
               b(2) = (  0.000000  1.141200  0.410699 )  
               b(3) = ( -0.988308 -0.570600  0.410699 )  


     PseudoPot. # 1 for Co read from file:
     /home/mcurnan/dft-course/Project1/example_LaCoO3/Co.pbe-nd-rrkjus.UPF
     MD5 check sum: 3e47a84addf5e975e0edeaeee2a73f59
     Pseudo is Ultrasoft + core correction, Zval =  9.0
     Generated by new atomic code, or converted to UPF format
     Using radial grid of  961 points,  6 beta functions with: 
                l(1) =   0
                l(2) =   0
                l(3) =   1
                l(4) =   1
                l(5) =   2
                l(6) =   2
     Q(r) pseudized with 0 coefficients 


     PseudoPot. # 2 for Co read from file:
     /home/mcurnan/dft-course/Project1/example_LaCoO3/Co.pbe-nd-rrkjus.UPF
     MD5 check sum: 3e47a84addf5e975e0edeaeee2a73f59
     Pseudo is Ultrasoft + core correction, Zval =  9.0
     Generated by new atomic code, or converted to UPF format
     Using radial grid of  961 points,  6 beta functions with: 
                l(1) =   0
                l(2) =   0
                l(3) =   1
                l(4) =   1
                l(5) =   2
                l(6) =   2
     Q(r) pseudized with 0 coefficients 


     PseudoPot. # 3 for La read from file:
     /home/mcurnan/dft-course/Project1/example_LaCoO3/La.pbe-nsp-van.UPF
     MD5 check sum: b2f11743f52dde65f77d1302becd7929
     Pseudo is Ultrasoft + core correction, Zval = 11.0
     Generated by new atomic code, or converted to UPF format
     Using radial grid of  907 points,  6 beta functions with: 
                l(1) =   0
                l(2) =   0
                l(3) =   1
                l(4) =   1
                l(5) =   2
                l(6) =   2
     Q(r) pseudized with  6 coefficients,  rinner =    1.200   1.200   1.200
                                                       1.200   1.200

     PseudoPot. # 4 for O  read from file:
     /home/mcurnan/dft-course/Project1/example_LaCoO3/O.pbe-rrkjus.UPF
     MD5 check sum: 390ba29e75625707450f3bd3f0eb6be9
     Pseudo is Ultrasoft, Zval =  6.0
     Generated by new atomic code, or converted to UPF format
     Using radial grid of 1269 points,  4 beta functions with: 
                l(1) =   0
                l(2) =   0
                l(3) =   1
                l(4) =   1
     Q(r) pseudized with 0 coefficients 


     atomic species   valence    mass     pseudopotential
        Co1            9.00     1.00000     Co( 1.00)
        Co2            9.00     1.00000     Co( 1.00)
        La1           11.00     1.00000     La( 1.00)
        O1             6.00     1.00000     O ( 1.00)
 -----
     simplified LDA+U calculation, Hubbard_lmax = 2
     atomic species  L   Hubbard U  Hubbard alpha
        Co1          2    3.000000    0.150000
        Co2          2    3.000000    0.000000
        La1          2    0.000000    0.000000
        O1           1    0.000000    0.000000
 -----

      6 Sym. Ops., with inversion, found


                                    s                        frac. trans.

      isym =  1     identity                                     

 cryst.   s( 1) = (     1          0          0      )
                  (     0          1          0      )
                  (     0          0          1      )

 cart.    s( 1) = (  1.0000000  0.0000000  0.0000000 )
                  (  0.0000000  1.0000000  0.0000000 )
                  (  0.0000000  0.0000000  1.0000000 )


      isym =  2     120 deg rotation - cryst. axis [0,0,1]       

 cryst.   s( 2) = (     0          1          0      )
                  (     0          0          1      )
                  (     1          0          0      )

 cart.    s( 2) = ( -0.5000000 -0.8660254  0.0000000 )
                  (  0.8660254 -0.5000000  0.0000000 )
                  (  0.0000000  0.0000000  1.0000000 )


      isym =  3     120 deg rotation - cryst. axis [0,0,-1]      

 cryst.   s( 3) = (     0          0          1      )
                  (     1          0          0      )
                  (     0          1          0      )

 cart.    s( 3) = ( -0.5000000  0.8660254  0.0000000 )
                  ( -0.8660254 -0.5000000  0.0000000 )
                  (  0.0000000  0.0000000  1.0000000 )


      isym =  4     inversion                                    

 cryst.   s( 4) = (    -1          0          0      )
                  (     0         -1          0      )
                  (     0          0         -1      )

 cart.    s( 4) = ( -1.0000000  0.0000000  0.0000000 )
                  (  0.0000000 -1.0000000  0.0000000 )
                  (  0.0000000  0.0000000 -1.0000000 )


      isym =  5     inv. 180 deg rotation - cart. axis [0,1,0]   

 cryst.   s( 5) = (     0         -1          0      )
                  (     0          0         -1      )
                  (    -1          0          0      )

 cart.    s( 5) = (  0.5000000  0.8660254  0.0000000 )
                  ( -0.8660254  0.5000000  0.0000000 )
                  (  0.0000000  0.0000000 -1.0000000 )


      isym =  6     inv. 180 deg rotation - cart. axis [1,0,0]   

 cryst.   s( 6) = (     0          0         -1      )
                  (    -1          0          0      )
                  (     0         -1          0      )

 cart.    s( 6) = (  0.5000000 -0.8660254  0.0000000 )
                  (  0.8660254  0.5000000  0.0000000 )
                  (  0.0000000  0.0000000 -1.0000000 )


     point group S_6 (-3)   
     there are  6 classes
     the character table:

       E     C3    C3^2  i     S6^5  S6   
A_g    1.00  1.00  1.00  1.00  1.00  1.00
E_g    1.00 -0.50 -0.50  1.00 -0.50 -0.50
E_g*   1.00 -0.50 -0.50  1.00 -0.50 -0.50
A_u    1.00  1.00  1.00 -1.00 -1.00 -1.00
E_u    1.00 -0.50 -0.50 -1.00  0.50  0.50
E_u*   1.00 -0.50 -0.50 -1.00  0.50  0.50
     imaginary part
A_g    0.00  0.00  0.00  0.00  0.00  0.00
E_g    0.00  0.87 -0.87  0.00  0.87 -0.87
E_g*   0.00 -0.87  0.87  0.00 -0.87  0.87
A_u    0.00  0.00  0.00  0.00  0.00  0.00
E_u    0.00  0.87 -0.87  0.00 -0.87  0.87
E_u*   0.00 -0.87  0.87  0.00  0.87 -0.87

     the symmetry operations in each class:
     E        1
     C3       2
     C3^2     3
     i        4
     S6^5     5
     S6       6

   Cartesian axes

     site n.     atom                  positions (alat units)
         1           Co1 tau(   1) = (   0.0000000   0.0000000   0.0000000  )
         2           Co2 tau(   2) = (   0.0000000   0.0000000   1.2174358  )
         3           La1 tau(   3) = (   0.0000000   0.0000000   0.6087179  )
         4           La1 tau(   4) = (   0.0000000   0.0000000   1.8261537  )
         5           O1  tau(   5) = (  -0.2839701  -0.0933228   1.0141240  )
         6           O1  tau(   6) = (   0.0611651   0.2925867   1.0141240  )
         7           O1  tau(   7) = (   0.2228050  -0.1992639   1.0141240  )
         8           O1  tau(   8) = (  -0.0611651  -0.2925867   1.4207476  )
         9           O1  tau(   9) = (   0.2839701   0.0933228   1.4207476  )
        10           O1  tau(  10) = (  -0.2228050   0.1992639   1.4207476  )

   Crystallographic axes

     site n.     atom                  positions (cryst. coord.)
         1           Co1 tau(   1) = (  0.0000000  0.0000000  0.0000000  )
         2           Co2 tau(   2) = (  0.5000000  0.5000000  0.5000000  )
         3           La1 tau(   3) = (  0.2500000  0.2500000  0.2500000  )
         4           La1 tau(   4) = (  0.7500000  0.7500000  0.7500000  )
         5           O1  tau(   5) = (  0.1891000  0.3100000  0.7504000  )
         6           O1  tau(   6) = (  0.3100000  0.7504000  0.1891000  )
         7           O1  tau(   7) = (  0.7504000  0.1891000  0.3100000  )
         8           O1  tau(   8) = (  0.6900000  0.2496000  0.8109000  )
         9           O1  tau(   9) = (  0.8109000  0.6900000  0.2496000  )
        10           O1  tau(  10) = (  0.2496000  0.8109000  0.6900000  )

     number of k points=    14  gaussian smearing, width (Ry)=  0.0300
                       cart. coord. in units 2pi/alat
        k(    1) = (   0.0000000   0.0000000   0.0000000), wk =   0.0312500
        k(    2) = (  -0.2470771  -0.1426500   0.1026748), wk =   0.1875000
        k(    3) = (   0.4941541   0.2853000  -0.2053496), wk =   0.0937500
        k(    4) = (  -0.2470771   0.1426500   0.2053496), wk =   0.1875000
        k(    5) = (   0.4941541   0.5706001  -0.1026748), wk =   0.1875000
        k(    6) = (   0.2470771   0.4279500   0.0000000), wk =   0.1875000
        k(    7) = (   0.4941541  -0.2853000  -0.4106993), wk =   0.0937500
        k(    8) = (   0.0000000   0.0000000   0.3080244), wk =   0.0625000
        k(    9) = (   0.7412312   0.4279500   0.0000000), wk =   0.1875000
        k(   10) = (   0.4941541   0.2853000   0.1026748), wk =   0.1875000
        k(   11) = (   0.7412312  -0.4279500  -0.3080244), wk =   0.1875000
        k(   12) = (   0.4941541  -0.5706001  -0.2053496), wk =   0.1875000
        k(   13) = (   0.0000000   0.0000000  -0.6160489), wk =   0.0312500
        k(   14) = (   0.4941541  -0.5706001   0.1026748), wk =   0.1875000

                       cryst. coord.
        k(    1) = (   0.0000000   0.0000000   0.0000000), wk =   0.0312500
        k(    2) = (   0.0000000   0.0000000   0.2500000), wk =   0.1875000
        k(    3) = (   0.0000000   0.0000000  -0.5000000), wk =   0.0937500
        k(    4) = (   0.0000000   0.2500000   0.2500000), wk =   0.1875000
        k(    5) = (   0.0000000   0.2500000  -0.5000000), wk =   0.1875000
        k(    6) = (   0.0000000   0.2500000  -0.2500000), wk =   0.1875000
        k(    7) = (   0.0000000  -0.5000000  -0.5000000), wk =   0.0937500
        k(    8) = (   0.2500000   0.2500000   0.2500000), wk =   0.0625000
        k(    9) = (   0.2500000   0.2500000  -0.5000000), wk =   0.1875000
        k(   10) = (   0.2500000   0.2500000  -0.2500000), wk =   0.1875000
        k(   11) = (   0.2500000  -0.5000000  -0.5000000), wk =   0.1875000
        k(   12) = (   0.2500000  -0.5000000  -0.2500000), wk =   0.1875000
        k(   13) = (  -0.5000000  -0.5000000  -0.5000000), wk =   0.0312500
        k(   14) = (   0.5000000  -0.2500000   0.0000000), wk =   0.1875000

     Dense  grid:    69617 G-vectors     FFT dimensions: (  60,  60,  60)

     Smooth grid:    17573 G-vectors     FFT dimensions: (  40,  40,  40)

     Largest allocated arrays     est. size (Mb)     dimensions
        Kohn-Sham Wavefunctions         0.78 Mb     (   1117,   46)
        Atomic wavefunctions            1.06 Mb     (   1117,   62)
        NL pseudopotentials             2.05 Mb     (   1117,  120)
        Each V/rho on FFT grid          1.65 Mb     ( 108000)
        Each G-vector array             0.27 Mb     (  34808)
        G-vector shells                 0.04 Mb     (   4682)
     Largest temporary arrays     est. size (Mb)     dimensions
        Auxiliary wavefunctions         3.14 Mb     (   1117,  184)
        Each subspace H/S matrix        0.52 Mb     ( 184, 184)
        Each <psi_i|beta_j> matrix      0.08 Mb     (    120,   46)
        Arrays for rho mixing          13.18 Mb     ( 108000,   8)

     Check: negative/imaginary core charge=   -0.000028    0.000000

     The initial density is read from file :
     /home/mcurnan/dft-course/Project1/example_LaCoO3/300/Co/alpha/CoLaO_U300.save/charge-density.dat

 --- in v_hubbard ---
Hubbard energy    0.3755
 -------
     Number of +U iterations with fixed ns =  0
     Starting occupations:
 --- enter write_ns ---
 LDA+U parameters:
U( 1)     =  3.00000000
alpha( 1) =  0.15000000
U( 2)     =  3.00000000
alpha( 2) =  0.00000000
U( 3)     =  0.00000000
alpha( 3) =  0.00000000
U( 4)     =  0.00000000
alpha( 4) =  0.00000000
atom    1   Tr[ns(na)] =   8.02206
    eigenvalues: 
  0.596  0.596  0.938  0.941  0.941
    eigenvectors:
  0.000  0.000  1.000  0.000  0.000
  0.333  0.322  0.000  0.004  0.341
  0.322  0.333  0.000  0.341  0.004
  0.289  0.056  0.000  0.515  0.140
  0.056  0.289  0.000  0.140  0.515
    occupations:
  0.938  0.000  0.000  0.000  0.000
  0.000  0.715  0.000 -0.060  0.152
  0.000  0.000  0.715  0.152  0.060
  0.000 -0.060  0.152  0.822  0.000
  0.000  0.152  0.060  0.000  0.822
atom    2   Tr[ns(na)] =   8.02145
    eigenvalues: 
  0.595  0.595  0.938  0.941  0.941
    eigenvectors:
  0.000  0.000  1.000  0.000  0.000
  0.640  0.015  0.000  0.223  0.122
  0.015  0.640  0.000  0.122  0.223
  0.017  0.329  0.000  0.470  0.185
  0.329  0.017  0.000  0.185  0.470
    occupations:
  0.938  0.000  0.000  0.000  0.000
  0.000  0.715  0.000  0.060  0.153
  0.000  0.000  0.715  0.153 -0.060
  0.000  0.060  0.153  0.822  0.000
  0.000  0.153 -0.060  0.000  0.822
atom    3   Tr[ns(na)] =   3.80284
    eigenvalues: 
  0.355  0.355  0.384  0.403  0.403
    eigenvectors:
  0.000  0.000  1.000  0.000  0.000
  0.781  0.139  0.000  0.012  0.068
  0.139  0.781  0.000  0.068  0.012
  0.013  0.067  0.000  0.780  0.141
  0.067  0.013  0.000  0.141  0.780
    occupations:
  0.384  0.000  0.000  0.000  0.000
  0.000  0.359  0.000  0.000  0.013
  0.000  0.000  0.359  0.013  0.000
  0.000  0.000  0.013  0.399  0.000
  0.000  0.013  0.000  0.000  0.399
atom    4   Tr[ns(na)] =   3.80284
    eigenvalues: 
  0.355  0.355  0.384  0.403  0.403
    eigenvectors:
  0.000  0.000  1.000  0.000  0.000
  0.782  0.139  0.000  0.012  0.068
  0.139  0.782  0.000  0.068  0.012
  0.012  0.067  0.000  0.780  0.141
  0.067  0.012  0.000  0.141  0.780
    occupations:
  0.384  0.000  0.000  0.000  0.000
  0.000  0.359  0.000  0.000  0.013
  0.000  0.000  0.359  0.013  0.000
  0.000  0.000  0.013  0.399  0.000
  0.000  0.013  0.000  0.000  0.399
atom    5   Tr[ns(na)] =   5.43357
    eigenvalues: 
  0.846  0.929  0.941
    eigenvectors:
  0.340  0.000  0.660
  0.494  0.250  0.256
  0.166  0.750  0.085
    occupations:
  0.909  0.039  0.022
  0.039  0.891 -0.022
  0.022 -0.022  0.917
atom    6   Tr[ns(na)] =   5.43357
    eigenvalues: 
  0.846  0.929  0.941
    eigenvectors:
  0.340  0.000  0.660
  0.000  1.000  0.000
  0.660  0.000  0.340
    occupations:
  0.909  0.000 -0.045
  0.000  0.929  0.000
 -0.045  0.000  0.879
atom    7   Tr[ns(na)] =   5.43357
    eigenvalues: 
  0.846  0.929  0.941
    eigenvectors:
  0.340  0.000  0.660
  0.496  0.250  0.255
  0.164  0.750  0.086
    occupations:
  0.909 -0.039  0.022
 -0.039  0.891  0.022
  0.022  0.022  0.917
atom    8   Tr[ns(na)] =   5.43357
    eigenvalues: 
  0.846  0.929  0.941
    eigenvectors:
  0.340  0.000  0.660
  0.000  1.000  0.000
  0.660  0.000  0.340
    occupations:
  0.909  0.000 -0.045
  0.000  0.929  0.000
 -0.045  0.000  0.879
atom    9   Tr[ns(na)] =   5.43357
    eigenvalues: 
  0.846  0.929  0.941
    eigenvectors:
  0.340  0.000  0.660
  0.494  0.250  0.256
  0.166  0.750  0.085
    occupations:
  0.909  0.039  0.022
  0.039  0.891 -0.022
  0.022 -0.022  0.917
atom   10   Tr[ns(na)] =   5.43357
    eigenvalues: 
  0.846  0.929  0.941
    eigenvectors:
  0.340  0.000  0.660
  0.496  0.250  0.255
  0.164  0.750  0.086
    occupations:
  0.909 -0.039  0.022
 -0.039  0.891  0.022
  0.022  0.022  0.917
N of occupied +U levels =  56.2506062
 --- exit write_ns ---
 LDA+U Projector read from file 
     Starting wfc from file

     total cpu time spent up to now is        8.4 secs

     per-process dynamical memory:    46.9 Mb

     Self-consistent Calculation

     iteration #  1     ecut=    30.00 Ry     beta=0.20
     Davidson diagonalization with overlap
     c_bands:  1 eigenvalues not converged
     c_bands:  1 eigenvalues not converged
     c_bands:  1 eigenvalues not converged
     c_bands:  1 eigenvalues not converged
     c_bands:  1 eigenvalues not converged
     c_bands:  1 eigenvalues not converged
     ethr =  1.00E-10,  avg # of iterations = 15.3
 --- enter write_ns ---
 LDA+U parameters:
U( 1)     =  3.00000000
alpha( 1) =  0.15000000
U( 2)     =  3.00000000
alpha( 2) =  0.00000000
U( 3)     =  0.00000000
alpha( 3) =  0.00000000
U( 4)     =  0.00000000
alpha( 4) =  0.00000000
atom    1   Tr[ns(na)] =   8.08651
    eigenvalues: 
  0.550  0.550  0.980  0.980  0.983
    eigenvectors:
  0.000  0.000  0.000  0.000  1.000
  0.328  0.326  0.005  0.341  0.000
  0.326  0.328  0.341  0.005  0.000
  0.287  0.059  0.512  0.142  0.000
  0.059  0.287  0.142  0.512  0.000
    occupations:
  0.983  0.000  0.000  0.000  0.000
  0.000  0.699  0.000 -0.073  0.191
  0.000  0.000  0.699  0.191  0.073
  0.000 -0.073  0.191  0.832  0.000
  0.000  0.191  0.073  0.000  0.832
atom    2   Tr[ns(na)] =   8.16136
    eigenvalues: 
  0.562  0.562  0.985  0.985  0.987
    eigenvectors:
  0.000  0.000  0.000  0.000  1.000
  0.637  0.017  0.222  0.124  0.000
  0.017  0.637  0.124  0.222  0.000
  0.014  0.331  0.469  0.185  0.000
  0.331  0.014  0.185  0.469  0.000
    occupations:
  0.987  0.000  0.000  0.000  0.000
  0.000  0.708  0.000  0.073  0.188
  0.000  0.000  0.708  0.188 -0.073
  0.000  0.073  0.188  0.839  0.000
  0.000  0.188 -0.073  0.000  0.839
atom    3   Tr[ns(na)] =   3.79662
    eigenvalues: 
  0.356  0.356  0.382  0.402  0.402
    eigenvectors:
  0.000  0.000  1.000  0.000  0.000
  0.779  0.140  0.000  0.012  0.069
  0.140  0.779  0.000  0.069  0.012
  0.013  0.069  0.000  0.778  0.141
  0.069  0.013  0.000  0.141  0.778
    occupations:
  0.382  0.000  0.000  0.000  0.000
  0.000  0.360  0.000  0.000  0.013
  0.000  0.000  0.360  0.013  0.000
  0.000  0.000  0.013  0.398  0.000
  0.000  0.013  0.000  0.000  0.398
atom    4   Tr[ns(na)] =   3.79662
    eigenvalues: 
  0.356  0.356  0.382  0.402  0.402
    eigenvectors:
  0.000  0.000  1.000  0.000  0.000
  0.779  0.140  0.000  0.012  0.069
  0.140  0.779  0.000  0.069  0.012
  0.013  0.069  0.000  0.778  0.141
  0.069  0.013  0.000  0.141  0.778
    occupations:
  0.382  0.000  0.000  0.000  0.000
  0.000  0.360  0.000  0.000  0.013
  0.000  0.000  0.360  0.013  0.000
  0.000  0.000  0.013  0.398  0.000
  0.000  0.013  0.000  0.000  0.398
atom    5   Tr[ns(na)] =   5.41026
    eigenvalues: 
  0.834  0.927  0.944
    eigenvectors:
  0.340  0.000  0.660
  0.501  0.242  0.256
  0.159  0.758  0.084
    occupations:
  0.907  0.045  0.026
  0.045  0.885 -0.023
  0.026 -0.023  0.913
atom    6   Tr[ns(na)] =   5.41026
    eigenvalues: 
  0.834  0.927  0.944
    eigenvectors:
  0.340  0.000  0.660
  0.000  1.000  0.000
  0.660  0.000  0.340
    occupations:
  0.907 -0.001 -0.052
 -0.001  0.927 -0.001
 -0.052 -0.001  0.872
atom    7   Tr[ns(na)] =   5.41026
    eigenvalues: 
  0.834  0.927  0.944
    eigenvectors:
  0.340  0.000  0.660
  0.489  0.258  0.254
  0.171  0.742  0.086
    occupations:
  0.907 -0.045  0.026
 -0.045  0.886  0.024
  0.026  0.024  0.912
atom    8   Tr[ns(na)] =   5.41026
    eigenvalues: 
  0.834  0.927  0.944
    eigenvectors:
  0.340  0.000  0.660
  0.000  1.000  0.000
  0.660  0.000  0.340
    occupations:
  0.907 -0.001 -0.052
 -0.001  0.927 -0.001
 -0.052 -0.001  0.872
atom    9   Tr[ns(na)] =   5.41026
    eigenvalues: 
  0.834  0.927  0.944
    eigenvectors:
  0.340  0.000  0.660
  0.501  0.242  0.256
  0.159  0.758  0.084
    occupations:
  0.907  0.045  0.026
  0.045  0.885 -0.023
  0.026 -0.023  0.913
atom   10   Tr[ns(na)] =   5.41026
    eigenvalues: 
  0.834  0.927  0.944
    eigenvectors:
  0.340  0.000  0.660
  0.489  0.258  0.254
  0.171  0.742  0.086
    occupations:
  0.907 -0.045  0.026
 -0.045  0.886  0.024
  0.026  0.024  0.912
N of occupied +U levels =  56.3026430
 --- exit write_ns ---
 --- in v_hubbard ---
Hubbard energy    0.3667
 -------

     total cpu time spent up to now is       56.5 secs

     total energy              =    -537.98118684 Ry
     Harris-Foulkes estimate   =    -537.98391391 Ry
     estimated scf accuracy    <       0.02064517 Ry

     iteration #  2     ecut=    30.00 Ry     beta=0.20
     Davidson diagonalization with overlap
     ethr =  2.72E-05,  avg # of iterations =  2.0
 --- enter write_ns ---
 LDA+U parameters:
U( 1)     =  3.00000000
alpha( 1) =  0.15000000
U( 2)     =  3.00000000
alpha( 2) =  0.00000000
U( 3)     =  0.00000000
alpha( 3) =  0.00000000
U( 4)     =  0.00000000
alpha( 4) =  0.00000000
atom    1   Tr[ns(na)] =   8.07261
    eigenvalues: 
  0.538  0.538  0.986  0.986  0.988
    eigenvectors:
  0.000  0.000  0.000  0.000  1.000
  0.333  0.322  0.004  0.341  0.000
  0.322  0.333  0.341  0.004  0.000
  0.288  0.056  0.516  0.140  0.000
  0.056  0.288  0.140  0.516  0.000
    occupations:
  0.988  0.000  0.000  0.000  0.000
  0.000  0.692  0.000 -0.079  0.198
  0.000  0.000  0.692  0.198  0.079
  0.000 -0.079  0.198  0.832  0.000
  0.000  0.198  0.079  0.000  0.832
atom    2   Tr[ns(na)] =   7.98811
    eigenvalues: 
  0.524  0.524  0.982  0.982  0.984
    eigenvectors:
  0.000  0.000  0.000  0.000  1.000
  0.637  0.019  0.219  0.125  0.000
  0.019  0.637  0.125  0.219  0.000
  0.013  0.332  0.470  0.185  0.000
  0.332  0.013  0.185  0.470  0.000
    occupations:
  0.984  0.000  0.000  0.000  0.000
  0.000  0.681  0.000  0.077  0.203
  0.000  0.000  0.681  0.203 -0.077
  0.000  0.077  0.203  0.824  0.000
  0.000  0.203 -0.077  0.000  0.824
atom    3   Tr[ns(na)] =   3.79408
    eigenvalues: 
  0.356  0.356  0.382  0.402  0.402
    eigenvectors:
  0.000  0.000  1.000  0.000  0.000
  0.781  0.139  0.000  0.011  0.068
  0.139  0.781  0.000  0.068  0.011
  0.013  0.067  0.000  0.779  0.141
  0.067  0.013  0.000  0.141  0.779
    occupations:
  0.382  0.000  0.000  0.000  0.000
  0.000  0.359  0.000  0.000  0.013
  0.000  0.000  0.359  0.013  0.000
  0.000  0.000  0.013  0.398  0.000
  0.000  0.013  0.000  0.000  0.398
atom    4   Tr[ns(na)] =   3.79408
    eigenvalues: 
  0.356  0.356  0.382  0.402  0.402
    eigenvectors:
  0.000  0.000  1.000  0.000  0.000
  0.781  0.140  0.000  0.011  0.068
  0.140  0.781  0.000  0.068  0.011
  0.013  0.067  0.000  0.780  0.141
  0.067  0.013  0.000  0.141  0.780
    occupations:
  0.382  0.000  0.000  0.000  0.000
  0.000  0.359  0.000  0.000  0.013
  0.000  0.000  0.359  0.013  0.000
  0.000  0.000  0.013  0.398  0.000
  0.000  0.013  0.000  0.000  0.398
atom    5   Tr[ns(na)] =   5.43975
    eigenvalues: 
  0.843  0.931  0.946
    eigenvectors:
  0.337  0.000  0.663
  0.490  0.258  0.252
  0.172  0.742  0.085
    occupations:
  0.912  0.042  0.025
  0.042  0.892 -0.023
  0.025 -0.023  0.917
atom    6   Tr[ns(na)] =   5.43975
    eigenvalues: 
  0.843  0.931  0.946
    eigenvectors:
  0.337  0.000  0.663
  0.000  1.000  0.000
  0.663  0.000  0.337
    occupations:
  0.912  0.000 -0.049
  0.000  0.931  0.001
 -0.049  0.001  0.878
atom    7   Tr[ns(na)] =   5.43975
    eigenvalues: 
  0.843  0.931  0.946
    eigenvectors:
  0.337  0.000  0.663
  0.504  0.242  0.254
  0.159  0.758  0.083
    occupations:
  0.912 -0.043  0.024
 -0.043  0.890  0.022
  0.024  0.022  0.918
atom    8   Tr[ns(na)] =   5.43975
    eigenvalues: 
  0.843  0.931  0.946
    eigenvectors:
  0.337  0.000  0.663
  0.000  1.000  0.000
  0.663  0.000  0.337
    occupations:
  0.912  0.000 -0.049
  0.000  0.931  0.001
 -0.049  0.001  0.878
atom    9   Tr[ns(na)] =   5.43975
    eigenvalues: 
  0.843  0.931  0.946
    eigenvectors:
  0.337  0.000  0.663
  0.490  0.258  0.252
  0.172  0.742  0.085
    occupations:
  0.912  0.042  0.025
  0.042  0.892 -0.023
  0.025 -0.023  0.917
atom   10   Tr[ns(na)] =   5.43975
    eigenvalues: 
  0.843  0.931  0.946
    eigenvectors:
  0.337  0.000  0.663
  0.504  0.242  0.254
  0.159  0.758  0.083
    occupations:
  0.912 -0.043  0.024
 -0.043  0.890  0.022
  0.024  0.022  0.918
N of occupied +U levels =  56.2873727
 --- exit write_ns ---
 --- in v_hubbard ---
Hubbard energy    0.3632
 -------

     total cpu time spent up to now is       72.1 secs

     total energy              =    -537.98364859 Ry
     Harris-Foulkes estimate   =    -537.98460658 Ry
     estimated scf accuracy    <       0.01943500 Ry

     iteration #  3     ecut=    30.00 Ry     beta=0.20
     Davidson diagonalization with overlap
     ethr =  2.56E-05,  avg # of iterations =  1.0
 --- enter write_ns ---
 LDA+U parameters:
U( 1)     =  3.00000000
alpha( 1) =  0.15000000
U( 2)     =  3.00000000
alpha( 2) =  0.00000000
U( 3)     =  0.00000000
alpha( 3) =  0.00000000
U( 4)     =  0.00000000
alpha( 4) =  0.00000000
atom    1   Tr[ns(na)] =   8.02038
    eigenvalues: 
  0.530  0.530  0.982  0.982  0.985
    eigenvectors:
  0.000  0.000  0.000  0.000  1.000
  0.332  0.324  0.004  0.340  0.000
  0.324  0.332  0.340  0.004  0.000
  0.286  0.058  0.515  0.141  0.000
  0.058  0.286  0.141  0.515  0.000
    occupations:
  0.985  0.000  0.000  0.000  0.000
  0.000  0.686  0.000 -0.077  0.200
  0.000  0.000  0.686  0.200  0.077
  0.000 -0.077  0.200  0.827  0.000
  0.000  0.200  0.077  0.000  0.827
atom    2   Tr[ns(na)] =   8.07507
    eigenvalues: 
  0.539  0.539  0.986  0.986  0.988
    eigenvectors:
  0.000  0.000  0.000  0.000  1.000
  0.639  0.017  0.222  0.122  0.000
  0.017  0.639  0.122  0.222  0.000
  0.015  0.329  0.471  0.185  0.000
  0.329  0.015  0.185  0.471  0.000
    occupations:
  0.988  0.000  0.000  0.000  0.000
  0.000  0.693  0.000  0.077  0.198
  0.000  0.000  0.693  0.198 -0.077
  0.000  0.077  0.198  0.832  0.000
  0.000  0.198 -0.077  0.000  0.832
atom    3   Tr[ns(na)] =   3.79403
    eigenvalues: 
  0.356  0.356  0.382  0.402  0.402
    eigenvectors:
  0.000  0.000  1.000  0.000  0.000
  0.781  0.139  0.000  0.012  0.068
  0.139  0.781  0.000  0.068  0.012
  0.012  0.067  0.000  0.779  0.141
  0.067  0.012  0.000  0.141  0.779
    occupations:
  0.382  0.000  0.000  0.000  0.000
  0.000  0.359  0.000  0.000  0.013
  0.000  0.000  0.359  0.013  0.000
  0.000  0.000  0.013  0.398  0.000
  0.000  0.013  0.000  0.000  0.398
atom    4   Tr[ns(na)] =   3.79403
    eigenvalues: 
  0.356  0.356  0.382  0.402  0.402
    eigenvectors:
  0.000  0.000  1.000  0.000  0.000
  0.781  0.139  0.000  0.012  0.068
  0.139  0.781  0.000  0.068  0.012
  0.012  0.067  0.000  0.780  0.141
  0.067  0.012  0.000  0.141  0.780
    occupations:
  0.382  0.000  0.000  0.000  0.000
  0.000  0.359  0.000  0.000  0.013
  0.000  0.000  0.359  0.013  0.000
  0.000  0.000  0.013  0.398  0.000
  0.000  0.013  0.000  0.000  0.398
atom    5   Tr[ns(na)] =   5.43446
    eigenvalues: 
  0.841  0.930  0.946
    eigenvectors:
  0.338  0.000  0.662
  0.502  0.244  0.255
  0.161  0.756  0.083
    occupations:
  0.911  0.043  0.024
  0.043  0.890 -0.023
  0.024 -0.023  0.917
atom    6   Tr[ns(na)] =   5.43446
    eigenvalues: 
  0.841  0.930  0.946
    eigenvectors:
  0.338  0.000  0.662
  0.000  1.000  0.000
  0.662  0.000  0.338
    occupations:
  0.911  0.000 -0.050
  0.000  0.930  0.000
 -0.050  0.000  0.877
atom    7   Tr[ns(na)] =   5.43446
    eigenvalues: 
  0.841  0.930  0.946
    eigenvectors:
  0.338  0.000  0.662
  0.492  0.256  0.252
  0.170  0.744  0.086
    occupations:
  0.911 -0.043  0.025
 -0.043  0.890  0.023
  0.025  0.023  0.916
atom    8   Tr[ns(na)] =   5.43446
    eigenvalues: 
  0.841  0.930  0.946
    eigenvectors:
  0.338  0.000  0.662
  0.000  1.000  0.000
  0.662  0.000  0.338
    occupations:
  0.911  0.000 -0.050
  0.000  0.930  0.000
 -0.050  0.000  0.877
atom    9   Tr[ns(na)] =   5.43446
    eigenvalues: 
  0.841  0.930  0.946
    eigenvectors:
  0.338  0.000  0.662
  0.502  0.244  0.255
  0.161  0.756  0.083
    occupations:
  0.911  0.043  0.024
  0.043  0.890 -0.023
  0.024 -0.023  0.917
atom   10   Tr[ns(na)] =   5.43446
    eigenvalues: 
  0.841  0.930  0.946
    eigenvectors:
  0.338  0.000  0.662
  0.492  0.256  0.252
  0.170  0.744  0.086
    occupations:
  0.911 -0.043  0.025
 -0.043  0.890  0.023
  0.025  0.023  0.916
N of occupied +U levels =  56.2902609
 --- exit write_ns ---
 --- in v_hubbard ---
Hubbard energy    0.3587
 -------

     total cpu time spent up to now is       88.7 secs

     total energy              =    -537.98489997 Ry
     Harris-Foulkes estimate   =    -537.98455931 Ry
     estimated scf accuracy    <       0.00923911 Ry

     iteration #  4     ecut=    30.00 Ry     beta=0.20
     Davidson diagonalization with overlap
     ethr =  1.22E-05,  avg # of iterations =  1.0
 --- enter write_ns ---
 LDA+U parameters:
U( 1)     =  3.00000000
alpha( 1) =  0.15000000
U( 2)     =  3.00000000
alpha( 2) =  0.00000000
U( 3)     =  0.00000000
alpha( 3) =  0.00000000
U( 4)     =  0.00000000
alpha( 4) =  0.00000000
atom    1   Tr[ns(na)] =   8.06053
    eigenvalues: 
  0.537  0.537  0.985  0.985  0.987
    eigenvectors:
  0.000  0.000  0.000  0.000  1.000
  0.333  0.323  0.004  0.340  0.000
  0.323  0.333  0.340  0.004  0.000
  0.286  0.057  0.516  0.140  0.000
  0.057  0.286  0.140  0.516  0.000
    occupations:
  0.987  0.000  0.000  0.000  0.000
  0.000  0.691  0.000 -0.077  0.198
  0.000  0.000  0.691  0.198  0.077
  0.000 -0.077  0.198  0.831  0.000
  0.000  0.198  0.077  0.000  0.831
atom    2   Tr[ns(na)] =   8.04910
    eigenvalues: 
  0.535  0.535  0.984  0.984  0.987
    eigenvectors:
  0.000  0.000  0.000  0.000  1.000
  0.638  0.018  0.220  0.124  0.000
  0.018  0.638  0.124  0.220  0.000
  0.013  0.330  0.471  0.185  0.000
  0.330  0.013  0.185  0.471  0.000
    occupations:
  0.987  0.000  0.000  0.000  0.000
  0.000  0.689  0.000  0.077  0.199
  0.000  0.000  0.689  0.199 -0.077
  0.000  0.077  0.199  0.830  0.000
  0.000  0.199 -0.077  0.000  0.830
atom    3   Tr[ns(na)] =   3.79437
    eigenvalues: 
  0.356  0.356  0.382  0.402  0.402
    eigenvectors:
  0.000  0.000  1.000  0.000  0.000
  0.781  0.139  0.000  0.012  0.068
  0.139  0.781  0.000  0.068  0.012
  0.013  0.067  0.000  0.780  0.141
  0.067  0.013  0.000  0.141  0.780
    occupations:
  0.382  0.000  0.000  0.000  0.000
  0.000  0.359  0.000  0.000  0.012
  0.000  0.000  0.359  0.012  0.000
  0.000  0.000  0.012  0.398  0.000
  0.000  0.012  0.000  0.000  0.398
atom    4   Tr[ns(na)] =   3.79437
    eigenvalues: 
  0.356  0.356  0.382  0.402  0.402
    eigenvectors:
  0.000  0.000  1.000  0.000  0.000
  0.781  0.139  0.000  0.012  0.068
  0.139  0.781  0.000  0.068  0.012
  0.013  0.067  0.000  0.780  0.141
  0.067  0.013  0.000  0.141  0.780
    occupations:
  0.382  0.000  0.000  0.000  0.000
  0.000  0.359  0.000  0.000  0.012
  0.000  0.000  0.359  0.012  0.000
  0.000  0.000  0.012  0.398  0.000
  0.000  0.012  0.000  0.000  0.398
atom    5   Tr[ns(na)] =   5.43203
    eigenvalues: 
  0.840  0.930  0.946
    eigenvectors:
  0.338  0.000  0.662
  0.496  0.250  0.254
  0.166  0.750  0.084
    occupations:
  0.910  0.043  0.025
  0.043  0.890 -0.023
  0.025 -0.023  0.916
atom    6   Tr[ns(na)] =   5.43203
    eigenvalues: 
  0.840  0.930  0.946
    eigenvectors:
  0.338  0.000  0.662
  0.000  1.000  0.000
  0.662  0.000  0.338
    occupations:
  0.910  0.000 -0.050
  0.000  0.930  0.000
 -0.050  0.000  0.876
atom    7   Tr[ns(na)] =   5.43203
    eigenvalues: 
  0.840  0.930  0.946
    eigenvectors:
  0.338  0.000  0.662
  0.497  0.250  0.253
  0.165  0.750  0.085
    occupations:
  0.910 -0.043  0.025
 -0.043  0.889  0.023
  0.025  0.023  0.916
atom    8   Tr[ns(na)] =   5.43203
    eigenvalues: 
  0.840  0.930  0.946
    eigenvectors:
  0.338  0.000  0.662
  0.000  1.000  0.000
  0.662  0.000  0.338
    occupations:
  0.910  0.000 -0.050
  0.000  0.930  0.000
 -0.050  0.000  0.876
atom    9   Tr[ns(na)] =   5.43203
    eigenvalues: 
  0.840  0.930  0.946
    eigenvectors:
  0.338  0.000  0.662
  0.496  0.250  0.254
  0.166  0.750  0.084
    occupations:
  0.910  0.043  0.025
  0.043  0.890 -0.023
  0.025 -0.023  0.916
atom   10   Tr[ns(na)] =   5.43203
    eigenvalues: 
  0.840  0.930  0.946
    eigenvectors:
  0.338  0.000  0.662
  0.497  0.250  0.253
  0.165  0.750  0.085
    occupations:
  0.910 -0.043  0.025
 -0.043  0.889  0.023
  0.025  0.023  0.916
N of occupied +U levels =  56.2905375
 --- exit write_ns ---
 --- in v_hubbard ---
Hubbard energy    0.3229
 -------

     total cpu time spent up to now is      106.6 secs

     total energy              =    -537.98655790 Ry
     Harris-Foulkes estimate   =    -537.98511411 Ry
     estimated scf accuracy    <       0.00635381 Ry

     iteration #  5     ecut=    30.00 Ry     beta=0.20
     Davidson diagonalization with overlap
     ethr =  8.36E-06,  avg # of iterations =  1.0
 --- enter write_ns ---
 LDA+U parameters:
U( 1)     =  3.00000000
alpha( 1) =  0.15000000
U( 2)     =  3.00000000
alpha( 2) =  0.00000000
U( 3)     =  0.00000000
alpha( 3) =  0.00000000
U( 4)     =  0.00000000
alpha( 4) =  0.00000000
atom    1   Tr[ns(na)] =   8.04123
    eigenvalues: 
  0.529  0.529  0.987  0.987  0.989
    eigenvectors:
  0.000  0.000  0.000  0.000  1.000
  0.337  0.322  0.004  0.337  0.000
  0.322  0.337  0.337  0.004  0.000
  0.283  0.058  0.518  0.141  0.000
  0.058  0.283  0.141  0.518  0.000
    occupations:
  0.989  0.000  0.000  0.000  0.000
  0.000  0.685  0.000 -0.079  0.202
  0.000  0.000  0.685  0.202  0.079
  0.000 -0.079  0.202  0.831  0.000
  0.000  0.202  0.079  0.000  0.831
atom    2   Tr[ns(na)] =   8.05632
    eigenvalues: 
  0.531  0.531  0.988  0.988  0.990
    eigenvectors:
  0.000  0.000  0.000  0.000  1.000
  0.639  0.019  0.219  0.122  0.000
  0.019  0.639  0.122  0.219  0.000
  0.013  0.328  0.474  0.185  0.000
  0.328  0.013  0.185  0.474  0.000
    occupations:
  0.990  0.000  0.000  0.000  0.000
  0.000  0.687  0.000  0.079  0.202
  0.000  0.000  0.687  0.202 -0.079
  0.000  0.079  0.202  0.832  0.000
  0.000  0.202 -0.079  0.000  0.832
atom    3   Tr[ns(na)] =   3.79656
    eigenvalues: 
  0.356  0.356  0.382  0.402  0.402
    eigenvectors:
  0.000  0.000  1.000  0.000  0.000
  0.784  0.138  0.000  0.011  0.067
  0.138  0.784  0.000  0.067  0.011
  0.012  0.066  0.000  0.781  0.140
  0.066  0.012  0.000  0.140  0.781
    occupations:
  0.382  0.000  0.000  0.000  0.000
  0.000  0.360  0.000  0.000  0.012
  0.000  0.000  0.360  0.012  0.000
  0.000  0.000  0.012  0.398  0.000
  0.000  0.012  0.000  0.000  0.398
atom    4   Tr[ns(na)] =   3.79656
    eigenvalues: 
  0.356  0.356  0.382  0.402  0.402
    eigenvectors:
  0.000  0.000  1.000  0.000  0.000
  0.783  0.138  0.000  0.011  0.067
  0.138  0.783  0.000  0.067  0.011
  0.012  0.066  0.000  0.781  0.140
  0.066  0.012  0.000  0.140  0.781
    occupations:
  0.382  0.000  0.000  0.000  0.000
  0.000  0.360  0.000  0.000  0.012
  0.000  0.000  0.360  0.012  0.000
  0.000  0.000  0.012  0.398  0.000
  0.000  0.012  0.000  0.000  0.398
atom    5   Tr[ns(na)] =   5.43228
    eigenvalues: 
  0.840  0.930  0.946
    eigenvectors:
  0.338  0.000  0.662
  0.499  0.248  0.254
  0.164  0.752  0.084
    occupations:
  0.910  0.043  0.025
  0.043  0.889 -0.023
  0.025 -0.023  0.916
atom    6   Tr[ns(na)] =   5.43228
    eigenvalues: 
  0.840  0.930  0.946
    eigenvectors:
  0.338  0.000  0.662
  0.000  1.000  0.000
  0.662  0.000  0.338
    occupations:
  0.910  0.000 -0.050
  0.000  0.930  0.000
 -0.050  0.000  0.876
atom    7   Tr[ns(na)] =   5.43228
    eigenvalues: 
  0.840  0.930  0.946
    eigenvectors:
  0.338  0.000  0.662
  0.495  0.252  0.253
  0.168  0.748  0.085
    occupations:
  0.910 -0.043  0.025
 -0.043  0.890  0.023
  0.025  0.023  0.916
atom    8   Tr[ns(na)] =   5.43228
    eigenvalues: 
  0.840  0.930  0.946
    eigenvectors:
  0.338  0.000  0.662
  0.000  1.000  0.000
  0.662  0.000  0.338
    occupations:
  0.910  0.000 -0.050
  0.000  0.930  0.000
 -0.050  0.000  0.876
atom    9   Tr[ns(na)] =   5.43228
    eigenvalues: 
  0.840  0.930  0.946
    eigenvectors:
  0.338  0.000  0.662
  0.499  0.248  0.254
  0.164  0.752  0.084
    occupations:
  0.910  0.043  0.025
  0.043  0.889 -0.023
  0.025 -0.023  0.916
atom   10   Tr[ns(na)] =   5.43228
    eigenvalues: 
  0.840  0.930  0.946
    eigenvectors:
  0.338  0.000  0.662
  0.495  0.252  0.253
  0.168  0.748  0.085
    occupations:
  0.910 -0.043  0.025
 -0.043  0.890  0.023
  0.025  0.023  0.916
N of occupied +U levels =  56.2843311
 --- exit write_ns ---
 --- in v_hubbard ---
Hubbard energy    0.3235
 -------

     total cpu time spent up to now is      123.9 secs

     total energy              =    -537.98703849 Ry
     Harris-Foulkes estimate   =    -537.98694355 Ry
     estimated scf accuracy    <       0.00009211 Ry

     iteration #  6     ecut=    30.00 Ry     beta=0.20
     Davidson diagonalization with overlap
     ethr =  1.21E-07,  avg # of iterations =  3.1
 --- enter write_ns ---
 LDA+U parameters:
U( 1)     =  3.00000000
alpha( 1) =  0.15000000
U( 2)     =  3.00000000
alpha( 2) =  0.00000000
U( 3)     =  0.00000000
alpha( 3) =  0.00000000
U( 4)     =  0.00000000
alpha( 4) =  0.00000000
atom    1   Tr[ns(na)] =   8.03351
    eigenvalues: 
  0.527  0.527  0.987  0.987  0.989
    eigenvectors:
  0.000  0.000  0.000  0.000  1.000
  0.336  0.322  0.004  0.338  0.000
  0.322  0.336  0.338  0.004  0.000
  0.284  0.058  0.518  0.141  0.000
  0.058  0.284  0.141  0.518  0.000
    occupations:
  0.989  0.000  0.000  0.000  0.000
  0.000  0.684  0.000 -0.079  0.203
  0.000  0.000  0.684  0.203  0.079
  0.000 -0.079  0.203  0.830  0.000
  0.000  0.203  0.079  0.000  0.830
atom    2   Tr[ns(na)] =   8.05171
    eigenvalues: 
  0.530  0.530  0.988  0.988  0.990
    eigenvectors:
  0.000  0.000  0.000  0.000  1.000
  0.640  0.019  0.220  0.122  0.000
  0.019  0.640  0.122  0.220  0.000
  0.014  0.328  0.474  0.184  0.000
  0.328  0.014  0.184  0.474  0.000
    occupations:
  0.990  0.000  0.000  0.000  0.000
  0.000  0.686  0.000  0.079  0.202
  0.000  0.000  0.686  0.202 -0.079
  0.000  0.079  0.202  0.831  0.000
  0.000  0.202 -0.079  0.000  0.831
atom    3   Tr[ns(na)] =   3.79620
    eigenvalues: 
  0.356  0.356  0.382  0.402  0.402
    eigenvectors:
  0.000  0.000  1.000  0.000  0.000
  0.783  0.139  0.000  0.012  0.067
  0.139  0.783  0.000  0.067  0.012
  0.012  0.066  0.000  0.781  0.141
  0.066  0.012  0.000  0.141  0.781
    occupations:
  0.382  0.000  0.000  0.000  0.000
  0.000  0.360  0.000  0.000  0.012
  0.000  0.000  0.360  0.012  0.000
  0.000  0.000  0.012  0.398  0.000
  0.000  0.012  0.000  0.000  0.398
atom    4   Tr[ns(na)] =   3.79620
    eigenvalues: 
  0.356  0.356  0.382  0.402  0.402
    eigenvectors:
  0.000  0.000  1.000  0.000  0.000
  0.783  0.139  0.000  0.012  0.067
  0.139  0.783  0.000  0.067  0.012
  0.012  0.066  0.000  0.781  0.141
  0.066  0.012  0.000  0.141  0.781
    occupations:
  0.382  0.000  0.000  0.000  0.000
  0.000  0.360  0.000  0.000  0.012
  0.000  0.000  0.360  0.012  0.000
  0.000  0.000  0.012  0.398  0.000
  0.000  0.012  0.000  0.000  0.398
atom    5   Tr[ns(na)] =   5.43418
    eigenvalues: 
  0.841  0.930  0.946
    eigenvectors:
  0.338  0.000  0.662
  0.499  0.247  0.254
  0.163  0.753  0.084
    occupations:
  0.911  0.043  0.025
  0.043  0.890 -0.023
  0.025 -0.023  0.917
atom    6   Tr[ns(na)] =   5.43418
    eigenvalues: 
  0.841  0.930  0.946
    eigenvectors:
  0.338  0.000  0.662
  0.000  1.000  0.000
  0.662  0.000  0.338
    occupations:
  0.911  0.000 -0.050
  0.000  0.930  0.000
 -0.050  0.000  0.876
atom    7   Tr[ns(na)] =   5.43418
    eigenvalues: 
  0.841  0.930  0.946
    eigenvectors:
  0.338  0.000  0.662
  0.495  0.253  0.253
  0.168  0.747  0.085
    occupations:
  0.911 -0.043  0.025
 -0.043  0.890  0.023
  0.025  0.023  0.916
atom    8   Tr[ns(na)] =   5.43418
    eigenvalues: 
  0.841  0.930  0.946
    eigenvectors:
  0.338  0.000  0.662
  0.000  1.000  0.000
  0.662  0.000  0.338
    occupations:
  0.911  0.000 -0.050
  0.000  0.930  0.000
 -0.050  0.000  0.876
atom    9   Tr[ns(na)] =   5.43418
    eigenvalues: 
  0.841  0.930  0.946
    eigenvectors:
  0.338  0.000  0.662
  0.499  0.247  0.254
  0.163  0.753  0.084
    occupations:
  0.911  0.043  0.025
  0.043  0.890 -0.023
  0.025 -0.023  0.917
atom   10   Tr[ns(na)] =   5.43418
    eigenvalues: 
  0.841  0.930  0.946
    eigenvectors:
  0.338  0.000  0.662
  0.495  0.253  0.253
  0.168  0.747  0.085
    occupations:
  0.911 -0.043  0.025
 -0.043  0.890  0.023
  0.025  0.023  0.916
N of occupied +U levels =  56.2826870
 --- exit write_ns ---
 --- in v_hubbard ---
Hubbard energy    0.3231
 -------

     total cpu time spent up to now is      144.4 secs

     total energy              =    -537.98711599 Ry
     Harris-Foulkes estimate   =    -537.98706666 Ry
     estimated scf accuracy    <       0.00003173 Ry

     iteration #  7     ecut=    30.00 Ry     beta=0.20
     Davidson diagonalization with overlap
     ethr =  4.17E-08,  avg # of iterations =  1.6
 --- enter write_ns ---
 LDA+U parameters:
U( 1)     =  3.00000000
alpha( 1) =  0.15000000
U( 2)     =  3.00000000
alpha( 2) =  0.00000000
U( 3)     =  0.00000000
alpha( 3) =  0.00000000
U( 4)     =  0.00000000
alpha( 4) =  0.00000000
atom    1   Tr[ns(na)] =   8.03465
    eigenvalues: 
  0.527  0.527  0.987  0.987  0.989
    eigenvectors:
  0.000  0.000  0.000  0.000  1.000
  0.336  0.322  0.004  0.338  0.000
  0.322  0.336  0.338  0.004  0.000
  0.285  0.057  0.517  0.141  0.000
  0.057  0.285  0.141  0.517  0.000
    occupations:
  0.989  0.000  0.000  0.000  0.000
  0.000  0.684  0.000 -0.080  0.203
  0.000  0.000  0.684  0.203  0.080
  0.000 -0.080  0.203  0.830  0.000
  0.000  0.203  0.080  0.000  0.830
atom    2   Tr[ns(na)] =   8.04954
    eigenvalues: 
  0.529  0.529  0.988  0.988  0.990
    eigenvectors:
  0.000  0.000  0.000  0.000  1.000
  0.639  0.019  0.220  0.122  0.000
  0.019  0.639  0.122  0.220  0.000
  0.014  0.328  0.473  0.185  0.000
  0.328  0.014  0.185  0.473  0.000
    occupations:
  0.990  0.000  0.000  0.000  0.000
  0.000  0.686  0.000  0.079  0.203
  0.000  0.000  0.686  0.203 -0.079
  0.000  0.079  0.203  0.831  0.000
  0.000  0.203 -0.079  0.000  0.831
atom    3   Tr[ns(na)] =   3.79536
    eigenvalues: 
  0.356  0.356  0.382  0.402  0.402
    eigenvectors:
  0.000  0.000  1.000  0.000  0.000
  0.783  0.138  0.000  0.012  0.067
  0.138  0.783  0.000  0.067  0.012
  0.012  0.067  0.000  0.780  0.141
  0.067  0.012  0.000  0.141  0.780
    occupations:
  0.382  0.000  0.000  0.000  0.000
  0.000  0.360  0.000  0.000  0.012
  0.000  0.000  0.360  0.012  0.000
  0.000  0.000  0.012  0.398  0.000
  0.000  0.012  0.000  0.000  0.398
atom    4   Tr[ns(na)] =   3.79536
    eigenvalues: 
  0.356  0.356  0.382  0.402  0.402
    eigenvectors:
  0.000  0.000  1.000  0.000  0.000
  0.782  0.139  0.000  0.012  0.067
  0.139  0.782  0.000  0.067  0.012
  0.012  0.067  0.000  0.780  0.141
  0.067  0.012  0.000  0.141  0.780
    occupations:
  0.382  0.000  0.000  0.000  0.000
  0.000  0.360  0.000  0.000  0.012
  0.000  0.000  0.360  0.012  0.000
  0.000  0.000  0.012  0.398  0.000
  0.000  0.012  0.000  0.000  0.398
atom    5   Tr[ns(na)] =   5.43447
    eigenvalues: 
  0.841  0.930  0.946
    eigenvectors:
  0.338  0.000  0.662
  0.499  0.248  0.254
  0.164  0.752  0.084
    occupations:
  0.911  0.043  0.025
  0.043  0.890 -0.023
  0.025 -0.023  0.917
atom    6   Tr[ns(na)] =   5.43447
    eigenvalues: 
  0.841  0.930  0.946
    eigenvectors:
  0.338  0.000  0.662
  0.000  1.000  0.000
  0.662  0.000  0.338
    occupations:
  0.911  0.000 -0.050
  0.000  0.930  0.000
 -0.050  0.000  0.877
atom    7   Tr[ns(na)] =   5.43447
    eigenvalues: 
  0.841  0.930  0.946
    eigenvectors:
  0.338  0.000  0.662
  0.495  0.252  0.253
  0.167  0.748  0.085
    occupations:
  0.911 -0.043  0.025
 -0.043  0.890  0.023
  0.025  0.023  0.916
atom    8   Tr[ns(na)] =   5.43447
    eigenvalues: 
  0.841  0.930  0.946
    eigenvectors:
  0.338  0.000  0.662
  0.000  1.000  0.000
  0.662  0.000  0.338
    occupations:
  0.911  0.000 -0.050
  0.000  0.930  0.000
 -0.050  0.000  0.877
atom    9   Tr[ns(na)] =   5.43447
    eigenvalues: 
  0.841  0.930  0.946
    eigenvectors:
  0.338  0.000  0.662
  0.499  0.248  0.254
  0.164  0.752  0.084
    occupations:
  0.911  0.043  0.025
  0.043  0.890 -0.023
  0.025 -0.023  0.917
atom   10   Tr[ns(na)] =   5.43447
    eigenvalues: 
  0.841  0.930  0.946
    eigenvectors:
  0.338  0.000  0.662
  0.495  0.252  0.253
  0.167  0.748  0.085
    occupations:
  0.911 -0.043  0.025
 -0.043  0.890  0.023
  0.025  0.023  0.916
N of occupied +U levels =  56.2817494
 --- exit write_ns ---
 --- in v_hubbard ---
Hubbard energy    0.3234
 -------

     total cpu time spent up to now is      158.9 secs

     total energy              =    -537.98717540 Ry
     Harris-Foulkes estimate   =    -537.98711925 Ry
     estimated scf accuracy    <       0.00000926 Ry

     iteration #  8     ecut=    30.00 Ry     beta=0.20
     Davidson diagonalization with overlap
     ethr =  1.22E-08,  avg # of iterations =  1.0
 --- enter write_ns ---
 LDA+U parameters:
U( 1)     =  3.00000000
alpha( 1) =  0.15000000
U( 2)     =  3.00000000
alpha( 2) =  0.00000000
U( 3)     =  0.00000000
alpha( 3) =  0.00000000
U( 4)     =  0.00000000
alpha( 4) =  0.00000000
atom    1   Tr[ns(na)] =   8.03560
    eigenvalues: 
  0.527  0.527  0.987  0.987  0.989
    eigenvectors:
  0.000  0.000  0.000  0.000  1.000
  0.335  0.323  0.004  0.338  0.000
  0.323  0.335  0.338  0.004  0.000
  0.285  0.057  0.517  0.141  0.000
  0.057  0.285  0.141  0.517  0.000
    occupations:
  0.989  0.000  0.000  0.000  0.000
  0.000  0.685  0.000 -0.079  0.203
  0.000  0.000  0.685  0.203  0.079
  0.000 -0.079  0.203  0.830  0.000
  0.000  0.203  0.079  0.000  0.830
atom    2   Tr[ns(na)] =   8.05178
    eigenvalues: 
  0.530  0.530  0.988  0.988  0.990
    eigenvectors:
  0.000  0.000  0.000  0.000  1.000
  0.639  0.018  0.220  0.122  0.000
  0.018  0.639  0.122  0.220  0.000
  0.014  0.328  0.473  0.185  0.000
  0.328  0.014  0.185  0.473  0.000
    occupations:
  0.990  0.000  0.000  0.000  0.000
  0.000  0.687  0.000  0.079  0.202
  0.000  0.000  0.687  0.202 -0.079
  0.000  0.079  0.202  0.831  0.000
  0.000  0.202 -0.079  0.000  0.831
atom    3   Tr[ns(na)] =   3.79549
    eigenvalues: 
  0.356  0.356  0.382  0.402  0.402
    eigenvectors:
  0.000  0.000  1.000  0.000  0.000
  0.782  0.139  0.000  0.012  0.067
  0.139  0.782  0.000  0.067  0.012
  0.012  0.067  0.000  0.780  0.141
  0.067  0.012  0.000  0.141  0.780
    occupations:
  0.382  0.000  0.000  0.000  0.000
  0.000  0.360  0.000  0.000  0.012
  0.000  0.000  0.360  0.012  0.000
  0.000  0.000  0.012  0.398  0.000
  0.000  0.012  0.000  0.000  0.398
atom    4   Tr[ns(na)] =   3.79549
    eigenvalues: 
  0.356  0.356  0.382  0.402  0.402
    eigenvectors:
  0.000  0.000  1.000  0.000  0.000
  0.782  0.139  0.000  0.012  0.067
  0.139  0.782  0.000  0.067  0.012
  0.012  0.067  0.000  0.780  0.141
  0.067  0.012  0.000  0.141  0.780
    occupations:
  0.382  0.000  0.000  0.000  0.000
  0.000  0.360  0.000  0.000  0.012
  0.000  0.000  0.360  0.012  0.000
  0.000  0.000  0.012  0.398  0.000
  0.000  0.012  0.000  0.000  0.398
atom    5   Tr[ns(na)] =   5.43396
    eigenvalues: 
  0.841  0.930  0.946
    eigenvectors:
  0.338  0.000  0.662
  0.499  0.247  0.254
  0.164  0.753  0.084
    occupations:
  0.911  0.043  0.025
  0.043  0.890 -0.023
  0.025 -0.023  0.917
atom    6   Tr[ns(na)] =   5.43396
    eigenvalues: 
  0.841  0.930  0.946
    eigenvectors:
  0.338  0.000  0.662
  0.000  1.000  0.000
  0.662  0.000  0.338
    occupations:
  0.911  0.000 -0.050
  0.000  0.930  0.000
 -0.050  0.000  0.876
atom    7   Tr[ns(na)] =   5.43396
    eigenvalues: 
  0.841  0.930  0.946
    eigenvectors:
  0.338  0.000  0.662
  0.495  0.253  0.253
  0.168  0.747  0.085
    occupations:
  0.911 -0.043  0.025
 -0.043  0.890  0.023
  0.025  0.023  0.916
atom    8   Tr[ns(na)] =   5.43396
    eigenvalues: 
  0.841  0.930  0.946
    eigenvectors:
  0.338  0.000  0.662
  0.000  1.000  0.000
  0.662  0.000  0.338
    occupations:
  0.911  0.000 -0.050
  0.000  0.930  0.000
 -0.050  0.000  0.876
atom    9   Tr[ns(na)] =   5.43396
    eigenvalues: 
  0.841  0.930  0.946
    eigenvectors:
  0.338  0.000  0.662
  0.499  0.247  0.254
  0.164  0.753  0.084
    occupations:
  0.911  0.043  0.025
  0.043  0.890 -0.023
  0.025 -0.023  0.917
atom   10   Tr[ns(na)] =   5.43396
    eigenvalues: 
  0.841  0.930  0.946
    eigenvectors:
  0.338  0.000  0.662
  0.495  0.253  0.253
  0.168  0.747  0.085
    occupations:
  0.911 -0.043  0.025
 -0.043  0.890  0.023
  0.025  0.023  0.916
N of occupied +U levels =  56.2821036
 --- exit write_ns ---
 --- in v_hubbard ---
Hubbard energy    0.3236
 -------

     total cpu time spent up to now is      174.2 secs

     total energy              =    -537.98720895 Ry
     Harris-Foulkes estimate   =    -537.98717631 Ry
     estimated scf accuracy    <       0.00000078 Ry

     iteration #  9     ecut=    30.00 Ry     beta=0.20
     Davidson diagonalization with overlap
     ethr =  1.03E-09,  avg # of iterations =  2.5
 --- enter write_ns ---
 LDA+U parameters:
U( 1)     =  3.00000000
alpha( 1) =  0.15000000
U( 2)     =  3.00000000
alpha( 2) =  0.00000000
U( 3)     =  0.00000000
alpha( 3) =  0.00000000
U( 4)     =  0.00000000
alpha( 4) =  0.00000000
atom    1   Tr[ns(na)] =   8.03526
    eigenvalues: 
  0.527  0.527  0.987  0.987  0.989
    eigenvectors:
  0.000  0.000  0.000  0.000  1.000
  0.335  0.323  0.004  0.338  0.000
  0.323  0.335  0.338  0.004  0.000
  0.285  0.057  0.517  0.140  0.000
  0.057  0.285  0.140  0.517  0.000
    occupations:
  0.989  0.000  0.000  0.000  0.000
  0.000  0.684  0.000 -0.080  0.203
  0.000  0.000  0.684  0.203  0.080
  0.000 -0.080  0.203  0.830  0.000
  0.000  0.203  0.080  0.000  0.830
atom    2   Tr[ns(na)] =   8.05199
    eigenvalues: 
  0.530  0.530  0.988  0.988  0.990
    eigenvectors:
  0.000  0.000  0.000  0.000  1.000
  0.640  0.018  0.220  0.122  0.000
  0.018  0.640  0.122  0.220  0.000
  0.014  0.328  0.473  0.185  0.000
  0.328  0.014  0.185  0.473  0.000
    occupations:
  0.990  0.000  0.000  0.000  0.000
  0.000  0.687  0.000  0.079  0.202
  0.000  0.000  0.687  0.202 -0.079
  0.000  0.079  0.202  0.831  0.000
  0.000  0.202 -0.079  0.000  0.831
atom    3   Tr[ns(na)] =   3.79576
    eigenvalues: 
  0.356  0.356  0.382  0.402  0.402
    eigenvectors:
  0.000  0.000  1.000  0.000  0.000
  0.782  0.139  0.000  0.012  0.067
  0.139  0.782  0.000  0.067  0.012
  0.012  0.067  0.000  0.780  0.141
  0.067  0.012  0.000  0.141  0.780
    occupations:
  0.382  0.000  0.000  0.000  0.000
  0.000  0.360  0.000  0.000  0.012
  0.000  0.000  0.360  0.012  0.000
  0.000  0.000  0.012  0.398  0.000
  0.000  0.012  0.000  0.000  0.398
atom    4   Tr[ns(na)] =   3.79576
    eigenvalues: 
  0.356  0.356  0.382  0.402  0.402
    eigenvectors:
  0.000  0.000  1.000  0.000  0.000
  0.783  0.139  0.000  0.012  0.067
  0.139  0.783  0.000  0.067  0.012
  0.012  0.067  0.000  0.780  0.141
  0.067  0.012  0.000  0.141  0.780
    occupations:
  0.382  0.000  0.000  0.000  0.000
  0.000  0.360  0.000  0.000  0.012
  0.000  0.000  0.360  0.012  0.000
  0.000  0.000  0.012  0.398  0.000
  0.000  0.012  0.000  0.000  0.398
atom    5   Tr[ns(na)] =   5.43390
    eigenvalues: 
  0.841  0.930  0.946
    eigenvectors:
  0.338  0.000  0.662
  0.499  0.247  0.254
  0.164  0.753  0.084
    occupations:
  0.911  0.043  0.025
  0.043  0.890 -0.023
  0.025 -0.023  0.917
atom    6   Tr[ns(na)] =   5.43390
    eigenvalues: 
  0.841  0.930  0.946
    eigenvectors:
  0.338  0.000  0.662
  0.000  1.000  0.000
  0.662  0.000  0.338
    occupations:
  0.911  0.000 -0.050
  0.000  0.930  0.000
 -0.050  0.000  0.876
atom    7   Tr[ns(na)] =   5.43390
    eigenvalues: 
  0.841  0.930  0.946
    eigenvectors:
  0.338  0.000  0.662
  0.495  0.253  0.253
  0.168  0.747  0.085
    occupations:
  0.911 -0.043  0.025
 -0.043  0.890  0.023
  0.025  0.023  0.916
atom    8   Tr[ns(na)] =   5.43390
    eigenvalues: 
  0.841  0.930  0.946
    eigenvectors:
  0.338  0.000  0.662
  0.000  1.000  0.000
  0.662  0.000  0.338
    occupations:
  0.911  0.000 -0.050
  0.000  0.930  0.000
 -0.050  0.000  0.876
atom    9   Tr[ns(na)] =   5.43390
    eigenvalues: 
  0.841  0.930  0.946
    eigenvectors:
  0.338  0.000  0.662
  0.499  0.247  0.254
  0.164  0.753  0.084
    occupations:
  0.911  0.043  0.025
  0.043  0.890 -0.023
  0.025 -0.023  0.917
atom   10   Tr[ns(na)] =   5.43390
    eigenvalues: 
  0.841  0.930  0.946
    eigenvectors:
  0.338  0.000  0.662
  0.495  0.253  0.253
  0.168  0.747  0.085
    occupations:
  0.911 -0.043  0.025
 -0.043  0.890  0.023
  0.025  0.023  0.916
N of occupied +U levels =  56.2821627
 --- exit write_ns ---
 --- in v_hubbard ---
Hubbard energy    0.3237
 -------

     total cpu time spent up to now is      192.1 secs

     total energy              =    -537.98723067 Ry
     Harris-Foulkes estimate   =    -537.98720911 Ry
     estimated scf accuracy    <       0.00000017 Ry

     iteration # 10     ecut=    30.00 Ry     beta=0.20
     Davidson diagonalization with overlap
     ethr =  2.28E-10,  avg # of iterations =  1.3
 --- enter write_ns ---
 LDA+U parameters:
U( 1)     =  3.00000000
alpha( 1) =  0.15000000
U( 2)     =  3.00000000
alpha( 2) =  0.00000000
U( 3)     =  0.00000000
alpha( 3) =  0.00000000
U( 4)     =  0.00000000
alpha( 4) =  0.00000000
atom    1   Tr[ns(na)] =   8.03553
    eigenvalues: 
  0.527  0.527  0.987  0.987  0.989
    eigenvectors:
  0.000  0.000  0.000  0.000  1.000
  0.335  0.323  0.004  0.338  0.000
  0.323  0.335  0.338  0.004  0.000
  0.285  0.057  0.517  0.140  0.000
  0.057  0.285  0.140  0.517  0.000
    occupations:
  0.989  0.000  0.000  0.000  0.000
  0.000  0.684  0.000 -0.080  0.203
  0.000  0.000  0.684  0.203  0.080
  0.000 -0.080  0.203  0.830  0.000
  0.000  0.203  0.080  0.000  0.830
atom    2   Tr[ns(na)] =   8.05195
    eigenvalues: 
  0.530  0.530  0.988  0.988  0.990
    eigenvectors:
  0.000  0.000  0.000  0.000  1.000
  0.639  0.019  0.220  0.122  0.000
  0.019  0.639  0.122  0.220  0.000
  0.014  0.328  0.473  0.185  0.000
  0.328  0.014  0.185  0.473  0.000
    occupations:
  0.990  0.000  0.000  0.000  0.000
  0.000  0.687  0.000  0.079  0.202
  0.000  0.000  0.687  0.202 -0.079
  0.000  0.079  0.202  0.831  0.000
  0.000  0.202 -0.079  0.000  0.831
atom    3   Tr[ns(na)] =   3.79572
    eigenvalues: 
  0.356  0.356  0.382  0.402  0.402
    eigenvectors:
  0.000  0.000  1.000  0.000  0.000
  0.782  0.139  0.000  0.012  0.067
  0.139  0.782  0.000  0.067  0.012
  0.012  0.067  0.000  0.780  0.141
  0.067  0.012  0.000  0.141  0.780
    occupations:
  0.382  0.000  0.000  0.000  0.000
  0.000  0.360  0.000  0.000  0.012
  0.000  0.000  0.360  0.012  0.000
  0.000  0.000  0.012  0.398  0.000
  0.000  0.012  0.000  0.000  0.398
atom    4   Tr[ns(na)] =   3.79572
    eigenvalues: 
  0.356  0.356  0.382  0.402  0.402
    eigenvectors:
  0.000  0.000  1.000  0.000  0.000
  0.782  0.139  0.000  0.012  0.067
  0.139  0.782  0.000  0.067  0.012
  0.012  0.067  0.000  0.780  0.141
  0.067  0.012  0.000  0.141  0.780
    occupations:
  0.382  0.000  0.000  0.000  0.000
  0.000  0.360  0.000  0.000  0.012
  0.000  0.000  0.360  0.012  0.000
  0.000  0.000  0.012  0.398  0.000
  0.000  0.012  0.000  0.000  0.398
atom    5   Tr[ns(na)] =   5.43387
    eigenvalues: 
  0.841  0.930  0.946
    eigenvectors:
  0.338  0.000  0.662
  0.499  0.247  0.254
  0.164  0.753  0.084
    occupations:
  0.911  0.043  0.025
  0.043  0.890 -0.023
  0.025 -0.023  0.917
atom    6   Tr[ns(na)] =   5.43387
    eigenvalues: 
  0.841  0.930  0.946
    eigenvectors:
  0.338  0.000  0.662
  0.000  1.000  0.000
  0.662  0.000  0.338
    occupations:
  0.911  0.000 -0.050
  0.000  0.930  0.000
 -0.050  0.000  0.876
atom    7   Tr[ns(na)] =   5.43387
    eigenvalues: 
  0.841  0.930  0.946
    eigenvectors:
  0.338  0.000  0.662
  0.495  0.253  0.253
  0.168  0.747  0.085
    occupations:
  0.911 -0.043  0.025
 -0.043  0.890  0.023
  0.025  0.023  0.916
atom    8   Tr[ns(na)] =   5.43387
    eigenvalues: 
  0.841  0.930  0.946
    eigenvectors:
  0.338  0.000  0.662
  0.000  1.000  0.000
  0.662  0.000  0.338
    occupations:
  0.911  0.000 -0.050
  0.000  0.930  0.000
 -0.050  0.000  0.876
atom    9   Tr[ns(na)] =   5.43387
    eigenvalues: 
  0.841  0.930  0.946
    eigenvectors:
  0.338  0.000  0.662
  0.499  0.247  0.254
  0.164  0.753  0.084
    occupations:
  0.911  0.043  0.025
  0.043  0.890 -0.023
  0.025 -0.023  0.917
atom   10   Tr[ns(na)] =   5.43387
    eigenvalues: 
  0.841  0.930  0.946
    eigenvectors:
  0.338  0.000  0.662
  0.495  0.253  0.253
  0.168  0.747  0.085
    occupations:
  0.911 -0.043  0.025
 -0.043  0.890  0.023
  0.025  0.023  0.916
N of occupied +U levels =  56.2821425
 --- exit write_ns ---
 --- in v_hubbard ---
Hubbard energy    0.3238
 -------

     total cpu time spent up to now is      208.0 secs

     total energy              =    -537.98724468 Ry
     Harris-Foulkes estimate   =    -537.98723069 Ry
     estimated scf accuracy    <       0.00000016 Ry

     iteration # 11     ecut=    30.00 Ry     beta=0.20
     Davidson diagonalization with overlap
     ethr =  2.10E-10,  avg # of iterations =  2.0
 --- enter write_ns ---
 LDA+U parameters:
U( 1)     =  3.00000000
alpha( 1) =  0.15000000
U( 2)     =  3.00000000
alpha( 2) =  0.00000000
U( 3)     =  0.00000000
alpha( 3) =  0.00000000
U( 4)     =  0.00000000
alpha( 4) =  0.00000000
atom    1   Tr[ns(na)] =   8.03527
    eigenvalues: 
  0.527  0.527  0.987  0.987  0.989
    eigenvectors:
  0.000  0.000  0.000  0.000  1.000
  0.336  0.322  0.004  0.338  0.000
  0.322  0.336  0.338  0.004  0.000
  0.285  0.057  0.517  0.140  0.000
  0.057  0.285  0.140  0.517  0.000
    occupations:
  0.989  0.000  0.000  0.000  0.000
  0.000  0.684  0.000 -0.080  0.203
  0.000  0.000  0.684  0.203  0.080
  0.000 -0.080  0.203  0.830  0.000
  0.000  0.203  0.080  0.000  0.830
atom    2   Tr[ns(na)] =   8.05178
    eigenvalues: 
  0.530  0.530  0.988  0.988  0.990
    eigenvectors:
  0.000  0.000  0.000  0.000  1.000
  0.639  0.019  0.220  0.122  0.000
  0.019  0.639  0.122  0.220  0.000
  0.014  0.328  0.473  0.185  0.000
  0.328  0.014  0.185  0.473  0.000
    occupations:
  0.990  0.000  0.000  0.000  0.000
  0.000  0.687  0.000  0.079  0.202
  0.000  0.000  0.687  0.202 -0.079
  0.000  0.079  0.202  0.831  0.000
  0.000  0.202 -0.079  0.000  0.831
atom    3   Tr[ns(na)] =   3.79561
    eigenvalues: 
  0.356  0.356  0.382  0.402  0.402
    eigenvectors:
  0.000  0.000  1.000  0.000  0.000
  0.782  0.139  0.000  0.012  0.067
  0.139  0.782  0.000  0.067  0.012
  0.012  0.067  0.000  0.780  0.141
  0.067  0.012  0.000  0.141  0.780
    occupations:
  0.382  0.000  0.000  0.000  0.000
  0.000  0.360  0.000  0.000  0.012
  0.000  0.000  0.360  0.012  0.000
  0.000  0.000  0.012  0.398  0.000
  0.000  0.012  0.000  0.000  0.398
atom    4   Tr[ns(na)] =   3.79561
    eigenvalues: 
  0.356  0.356  0.382  0.402  0.402
    eigenvectors:
  0.000  0.000  1.000  0.000  0.000
  0.782  0.139  0.000  0.012  0.067
  0.139  0.782  0.000  0.067  0.012
  0.012  0.067  0.000  0.780  0.141
  0.067  0.012  0.000  0.141  0.780
    occupations:
  0.382  0.000  0.000  0.000  0.000
  0.000  0.360  0.000  0.000  0.012
  0.000  0.000  0.360  0.012  0.000
  0.000  0.000  0.012  0.398  0.000
  0.000  0.012  0.000  0.000  0.398
atom    5   Tr[ns(na)] =   5.43396
    eigenvalues: 
  0.841  0.930  0.946
    eigenvectors:
  0.338  0.000  0.662
  0.499  0.247  0.254
  0.164  0.753  0.084
    occupations:
  0.911  0.043  0.025
  0.043  0.890 -0.023
  0.025 -0.023  0.917
atom    6   Tr[ns(na)] =   5.43396
    eigenvalues: 
  0.841  0.930  0.946
    eigenvectors:
  0.338  0.000  0.662
  0.000  1.000  0.000
  0.662  0.000  0.338
    occupations:
  0.911  0.000 -0.050
  0.000  0.930  0.000
 -0.050  0.000  0.876
atom    7   Tr[ns(na)] =   5.43396
    eigenvalues: 
  0.841  0.930  0.946
    eigenvectors:
  0.338  0.000  0.662
  0.495  0.253  0.253
  0.168  0.747  0.085
    occupations:
  0.911 -0.043  0.025
 -0.043  0.890  0.023
  0.025  0.023  0.916
atom    8   Tr[ns(na)] =   5.43396
    eigenvalues: 
  0.841  0.930  0.946
    eigenvectors:
  0.338  0.000  0.662
  0.000  1.000  0.000
  0.662  0.000  0.338
    occupations:
  0.911  0.000 -0.050
  0.000  0.930  0.000
 -0.050  0.000  0.876
atom    9   Tr[ns(na)] =   5.43396
    eigenvalues: 
  0.841  0.930  0.946
    eigenvectors:
  0.338  0.000  0.662
  0.499  0.247  0.254
  0.164  0.753  0.084
    occupations:
  0.911  0.043  0.025
  0.043  0.890 -0.023
  0.025 -0.023  0.917
atom   10   Tr[ns(na)] =   5.43396
    eigenvalues: 
  0.841  0.930  0.946
    eigenvectors:
  0.338  0.000  0.662
  0.495  0.253  0.253
  0.168  0.747  0.085
    occupations:
  0.911 -0.043  0.025
 -0.043  0.890  0.023
  0.025  0.023  0.916
N of occupied +U levels =  56.2820391
 --- exit write_ns ---
 --- in v_hubbard ---
Hubbard energy    0.3238
 -------

     total cpu time spent up to now is      226.2 secs

     total energy              =    -537.98725351 Ry
     Harris-Foulkes estimate   =    -537.98724470 Ry
     estimated scf accuracy    <       0.00000002 Ry

     iteration # 12     ecut=    30.00 Ry     beta=0.20
     Davidson diagonalization with overlap
     ethr =  2.62E-11,  avg # of iterations =  2.0
 --- enter write_ns ---
 LDA+U parameters:
U( 1)     =  3.00000000
alpha( 1) =  0.15000000
U( 2)     =  3.00000000
alpha( 2) =  0.00000000
U( 3)     =  0.00000000
alpha( 3) =  0.00000000
U( 4)     =  0.00000000
alpha( 4) =  0.00000000
atom    1   Tr[ns(na)] =   8.03532
    eigenvalues: 
  0.527  0.527  0.987  0.987  0.989
    eigenvectors:
  0.000  0.000  0.000  0.000  1.000
  0.336  0.322  0.004  0.338  0.000
  0.322  0.336  0.338  0.004  0.000
  0.285  0.057  0.517  0.140  0.000
  0.057  0.285  0.140  0.517  0.000
    occupations:
  0.989  0.000  0.000  0.000  0.000
  0.000  0.684  0.000 -0.080  0.203
  0.000  0.000  0.684  0.203  0.080
  0.000 -0.080  0.203  0.830  0.000
  0.000  0.203  0.080  0.000  0.830
atom    2   Tr[ns(na)] =   8.05192
    eigenvalues: 
  0.530  0.530  0.988  0.988  0.990
    eigenvectors:
  0.000  0.000  0.000  0.000  1.000
  0.639  0.019  0.220  0.122  0.000
  0.019  0.639  0.122  0.220  0.000
  0.014  0.328  0.473  0.185  0.000
  0.328  0.014  0.185  0.473  0.000
    occupations:
  0.990  0.000  0.000  0.000  0.000
  0.000  0.687  0.000  0.079  0.202
  0.000  0.000  0.687  0.202 -0.079
  0.000  0.079  0.202  0.831  0.000
  0.000  0.202 -0.079  0.000  0.831
atom    3   Tr[ns(na)] =   3.79566
    eigenvalues: 
  0.356  0.356  0.382  0.402  0.402
    eigenvectors:
  0.000  0.000  1.000  0.000  0.000
  0.782  0.139  0.000  0.012  0.067
  0.139  0.782  0.000  0.067  0.012
  0.012  0.067  0.000  0.780  0.141
  0.067  0.012  0.000  0.141  0.780
    occupations:
  0.382  0.000  0.000  0.000  0.000
  0.000  0.360  0.000  0.000  0.012
  0.000  0.000  0.360  0.012  0.000
  0.000  0.000  0.012  0.398  0.000
  0.000  0.012  0.000  0.000  0.398
atom    4   Tr[ns(na)] =   3.79566
    eigenvalues: 
  0.356  0.356  0.382  0.402  0.402
    eigenvectors:
  0.000  0.000  1.000  0.000  0.000
  0.783  0.138  0.000  0.012  0.067
  0.138  0.783  0.000  0.067  0.012
  0.012  0.067  0.000  0.780  0.141
  0.067  0.012  0.000  0.141  0.780
    occupations:
  0.382  0.000  0.000  0.000  0.000
  0.000  0.360  0.000  0.000  0.012
  0.000  0.000  0.360  0.012  0.000
  0.000  0.000  0.012  0.398  0.000
  0.000  0.012  0.000  0.000  0.398
atom    5   Tr[ns(na)] =   5.43392
    eigenvalues: 
  0.841  0.930  0.946
    eigenvectors:
  0.338  0.000  0.662
  0.499  0.247  0.254
  0.164  0.753  0.084
    occupations:
  0.911  0.043  0.025
  0.043  0.890 -0.023
  0.025 -0.023  0.917
atom    6   Tr[ns(na)] =   5.43392
    eigenvalues: 
  0.841  0.930  0.946
    eigenvectors:
  0.338  0.000  0.662
  0.000  1.000  0.000
  0.662  0.000  0.338
    occupations:
  0.911  0.000 -0.050
  0.000  0.930  0.000
 -0.050  0.000  0.876
atom    7   Tr[ns(na)] =   5.43392
    eigenvalues: 
  0.841  0.930  0.946
    eigenvectors:
  0.338  0.000  0.662
  0.495  0.253  0.253
  0.168  0.747  0.085
    occupations:
  0.911 -0.043  0.025
 -0.043  0.890  0.023
  0.025  0.023  0.916
atom    8   Tr[ns(na)] =   5.43392
    eigenvalues: 
  0.841  0.930  0.946
    eigenvectors:
  0.338  0.000  0.662
  0.000  1.000  0.000
  0.662  0.000  0.338
    occupations:
  0.911  0.000 -0.050
  0.000  0.930  0.000
 -0.050  0.000  0.876
atom    9   Tr[ns(na)] =   5.43392
    eigenvalues: 
  0.841  0.930  0.946
    eigenvectors:
  0.338  0.000  0.662
  0.499  0.247  0.254
  0.164  0.753  0.084
    occupations:
  0.911  0.043  0.025
  0.043  0.890 -0.023
  0.025 -0.023  0.917
atom   10   Tr[ns(na)] =   5.43392
    eigenvalues: 
  0.841  0.930  0.946
    eigenvectors:
  0.338  0.000  0.662
  0.495  0.253  0.253
  0.168  0.747  0.085
    occupations:
  0.911 -0.043  0.025
 -0.043  0.890  0.023
  0.025  0.023  0.916
N of occupied +U levels =  56.2820819
 --- exit write_ns ---
 --- in v_hubbard ---
Hubbard energy    0.3238
 -------

     total cpu time spent up to now is      244.9 secs

     total energy              =    -537.98725922 Ry
     Harris-Foulkes estimate   =    -537.98725351 Ry
     estimated scf accuracy    <       0.00000002 Ry

     iteration # 13     ecut=    30.00 Ry     beta=0.20
     Davidson diagonalization with overlap
     ethr =  2.35E-11,  avg # of iterations =  1.3
 --- enter write_ns ---
 LDA+U parameters:
U( 1)     =  3.00000000
alpha( 1) =  0.15000000
U( 2)     =  3.00000000
alpha( 2) =  0.00000000
U( 3)     =  0.00000000
alpha( 3) =  0.00000000
U( 4)     =  0.00000000
alpha( 4) =  0.00000000
atom    1   Tr[ns(na)] =   8.03530
    eigenvalues: 
  0.527  0.527  0.987  0.987  0.989
    eigenvectors:
  0.000  0.000  0.000  0.000  1.000
  0.336  0.322  0.004  0.338  0.000
  0.322  0.336  0.338  0.004  0.000
  0.285  0.057  0.517  0.141  0.000
  0.057  0.285  0.141  0.517  0.000
    occupations:
  0.989  0.000  0.000  0.000  0.000
  0.000  0.684  0.000 -0.080  0.203
  0.000  0.000  0.684  0.203  0.080
  0.000 -0.080  0.203  0.830  0.000
  0.000  0.203  0.080  0.000  0.830
atom    2   Tr[ns(na)] =   8.05187
    eigenvalues: 
  0.530  0.530  0.988  0.988  0.990
    eigenvectors:
  0.000  0.000  0.000  0.000  1.000
  0.639  0.018  0.220  0.122  0.000
  0.018  0.639  0.122  0.220  0.000
  0.014  0.328  0.473  0.185  0.000
  0.328  0.014  0.185  0.473  0.000
    occupations:
  0.990  0.000  0.000  0.000  0.000
  0.000  0.687  0.000  0.079  0.202
  0.000  0.000  0.687  0.202 -0.079
  0.000  0.079  0.202  0.831  0.000
  0.000  0.202 -0.079  0.000  0.831
atom    3   Tr[ns(na)] =   3.79566
    eigenvalues: 
  0.356  0.356  0.382  0.402  0.402
    eigenvectors:
  0.000  0.000  1.000  0.000  0.000
  0.782  0.139  0.000  0.012  0.067
  0.139  0.782  0.000  0.067  0.012
  0.012  0.067  0.000  0.780  0.141
  0.067  0.012  0.000  0.141  0.780
    occupations:
  0.382  0.000  0.000  0.000  0.000
  0.000  0.360  0.000  0.000  0.012
  0.000  0.000  0.360  0.012  0.000
  0.000  0.000  0.012  0.398  0.000
  0.000  0.012  0.000  0.000  0.398
atom    4   Tr[ns(na)] =   3.79566
    eigenvalues: 
  0.356  0.356  0.382  0.402  0.402
    eigenvectors:
  0.000  0.000  1.000  0.000  0.000
  0.782  0.139  0.000  0.012  0.067
  0.139  0.782  0.000  0.067  0.012
  0.012  0.067  0.000  0.780  0.141
  0.067  0.012  0.000  0.141  0.780
    occupations:
  0.382  0.000  0.000  0.000  0.000
  0.000  0.360  0.000  0.000  0.012
  0.000  0.000  0.360  0.012  0.000
  0.000  0.000  0.012  0.398  0.000
  0.000  0.012  0.000  0.000  0.398
atom    5   Tr[ns(na)] =   5.43393
    eigenvalues: 
  0.841  0.930  0.946
    eigenvectors:
  0.338  0.000  0.662
  0.499  0.247  0.254
  0.164  0.753  0.084
    occupations:
  0.911  0.043  0.025
  0.043  0.890 -0.023
  0.025 -0.023  0.917
atom    6   Tr[ns(na)] =   5.43393
    eigenvalues: 
  0.841  0.930  0.946
    eigenvectors:
  0.338  0.000  0.662
  0.000  1.000  0.000
  0.662  0.000  0.338
    occupations:
  0.911  0.000 -0.050
  0.000  0.930  0.000
 -0.050  0.000  0.876
atom    7   Tr[ns(na)] =   5.43393
    eigenvalues: 
  0.841  0.930  0.946
    eigenvectors:
  0.338  0.000  0.662
  0.495  0.253  0.253
  0.168  0.747  0.085
    occupations:
  0.911 -0.043  0.025
 -0.043  0.890  0.023
  0.025  0.023  0.916
atom    8   Tr[ns(na)] =   5.43393
    eigenvalues: 
  0.841  0.930  0.946
    eigenvectors:
  0.338  0.000  0.662
  0.000  1.000  0.000
  0.662  0.000  0.338
    occupations:
  0.911  0.000 -0.050
  0.000  0.930  0.000
 -0.050  0.000  0.876
atom    9   Tr[ns(na)] =   5.43393
    eigenvalues: 
  0.841  0.930  0.946
    eigenvectors:
  0.338  0.000  0.662
  0.499  0.247  0.254
  0.164  0.753  0.084
    occupations:
  0.911  0.043  0.025
  0.043  0.890 -0.023
  0.025 -0.023  0.917
atom   10   Tr[ns(na)] =   5.43393
    eigenvalues: 
  0.841  0.930  0.946
    eigenvectors:
  0.338  0.000  0.662
  0.495  0.253  0.253
  0.168  0.747  0.085
    occupations:
  0.911 -0.043  0.025
 -0.043  0.890  0.023
  0.025  0.023  0.916
N of occupied +U levels =  56.2820767
 --- exit write_ns ---
 --- in v_hubbard ---
Hubbard energy    0.3238
 -------

     total cpu time spent up to now is      259.9 secs

     End of self-consistent calculation

          k = 0.0000 0.0000 0.0000 (  2175 PWs)   bands (ev):

   -19.7908 -19.6175  -6.5461  -5.8308  -5.8308  -5.8200  -5.8200  -5.4802
    -3.8071  -3.2536  -3.2253  -3.2253  -3.0190  -3.0190   5.1794   6.8535
     6.8535   7.1955   7.1955   7.2284   7.5141   7.5141   7.7112   9.1470
     9.2986   9.3373   9.3373   9.6258   9.6258  10.0354  10.0354  10.2540
    10.4620  10.4620  10.6779  11.1454  11.1454  11.5388  11.9795  11.9795
    14.7411  14.7411  15.4336  15.4336  16.2023  16.7896

     occupation numbers 
     0.0313   0.0313   0.0313   0.0313   0.0313   0.0313   0.0313   0.0313
     0.0313   0.0313   0.0313   0.0313   0.0313   0.0313   0.0313   0.0313
     0.0313   0.0313   0.0313   0.0313   0.0313   0.0313   0.0313   0.0313
     0.0313   0.0313   0.0313   0.0312   0.0312   0.0312   0.0312   0.0312
     0.0312   0.0312   0.0312   0.0306   0.0306   0.0235   0.0062   0.0062
     0.0000   0.0000   0.0000   0.0000   0.0000   0.0000

          k =-0.2471-0.1427 0.1027 (  2181 PWs)   bands (ev):

   -19.7646 -19.6499  -6.7241  -6.2891  -5.9392  -5.8415  -5.6043  -5.4717
    -3.6053  -3.3934  -2.9297  -2.8996  -2.8503  -2.7570   5.5347   6.8132
     6.8392   6.9498   6.9735   7.2064   7.2457   7.4803   7.6096   8.2924
     8.2977   8.8477   9.6013   9.7216   9.7332   9.9825  10.2293  10.2475
    10.4109  10.4196  10.4754  11.2151  11.3011  11.3230  12.3087  12.3793
    14.2888  14.2988  15.8210  16.0751  16.9763  17.2704

     occupation numbers 
     0.1875   0.1875   0.1875   0.1875   0.1875   0.1875   0.1875   0.1875
     0.1875   0.1875   0.1875   0.1875   0.1875   0.1875   0.1875   0.1875
     0.1875   0.1875   0.1875   0.1875   0.1875   0.1875   0.1875   0.1875
     0.1875   0.1875   0.1875   0.1875   0.1875   0.1875   0.1875   0.1875
     0.1875   0.1875   0.1875   0.1808   0.1752   0.1732   0.0044   0.0024
     0.0000   0.0000   0.0000   0.0000   0.0000   0.0000

          k = 0.4942 0.2853-0.2053 (  2202 PWs)   bands (ev):

   -19.7111 -19.7098  -6.7239  -6.7101  -5.9605  -5.9442  -5.5211  -5.5030
    -3.3821  -3.3820  -2.7881  -2.7864  -2.5021  -2.5001   5.9876   5.9912
     7.0429   7.0558   7.1845   7.2001   7.4366   7.4422   7.5180   7.5296
     7.7503   7.7620   9.4401   9.4549   9.8588   9.8682  10.2661  10.2790
    10.6333  10.6586  10.7899  10.8140  11.0519  11.0722  13.2757  13.3151
    13.3598  13.3991  16.8372  16.8423  17.1334  17.1381

     occupation numbers 
     0.0938   0.0938   0.0938   0.0938   0.0938   0.0938   0.0938   0.0938
     0.0938   0.0938   0.0938   0.0938   0.0938   0.0938   0.0938   0.0938
     0.0938   0.0938   0.0938   0.0938   0.0938   0.0938   0.0938   0.0938
     0.0938   0.0938   0.0937   0.0937   0.0937   0.0937   0.0937   0.0937
     0.0937   0.0937   0.0937   0.0937   0.0929   0.0927   0.0000   0.0000
     0.0000   0.0000   0.0000   0.0000   0.0000   0.0000

          k =-0.2471 0.1427 0.2053 (  2195 PWs)   bands (ev):

   -19.7581 -19.6580  -6.8474  -6.2311  -6.0636  -5.8238  -5.6492  -5.4504
    -3.4182  -3.2597  -3.0999  -2.8917  -2.8186  -2.5534   5.5677   6.5495
     6.7239   6.8538   7.1770   7.3165   7.3927   7.4297   7.4839   8.3619
     8.3650   8.7608   9.2497   9.3567   9.8749   9.9124  10.0209  10.0951
    10.2707  10.8107  10.9548  10.9662  11.2319  11.3051  11.8996  12.7246
    13.6200  14.7583  15.9982  16.2000  17.0395  17.5411

     occupation numbers 
     0.1875   0.1875   0.1875   0.1875   0.1875   0.1875   0.1875   0.1875
     0.1875   0.1875   0.1875   0.1875   0.1875   0.1875   0.1875   0.1875
     0.1875   0.1875   0.1875   0.1875   0.1875   0.1875   0.1875   0.1875
     0.1875   0.1875   0.1875   0.1875   0.1875   0.1875   0.1875   0.1875
     0.1875   0.1874   0.1869   0.1868   0.1800   0.1748   0.0536   0.0001
     0.0000   0.0000   0.0000   0.0000   0.0000   0.0000

          k = 0.4942 0.5706-0.1027 (  2198 PWs)   bands (ev):

   -19.7245 -19.6976  -6.9487  -6.6420  -6.1217  -5.8832  -5.5043  -5.3735
    -3.3056  -3.2505  -2.8718  -2.7033  -2.5229  -2.3797   5.8482   6.1851
     6.4100   6.9219   7.1183   7.2509   7.3297   7.4959   7.5189   7.6808
     8.0474   8.6222   8.9597   9.2501   9.5632   9.7881   9.8682  10.3194
    10.3707  10.8039  10.9079  10.9858  11.1249  11.2389  12.3022  12.7303
    13.4134  14.3389  16.9092  17.1188  17.3125  18.0194

     occupation numbers 
     0.1875   0.1875   0.1875   0.1875   0.1875   0.1875   0.1875   0.1875
     0.1875   0.1875   0.1875   0.1875   0.1875   0.1875   0.1875   0.1875
     0.1875   0.1875   0.1875   0.1875   0.1875   0.1875   0.1875   0.1875
     0.1875   0.1875   0.1875   0.1875   0.1875   0.1875   0.1875   0.1875
     0.1875   0.1874   0.1871   0.1866   0.1843   0.1796   0.0047   0.0001
     0.0000   0.0000   0.0000   0.0000   0.0000   0.0000

          k = 0.2471 0.4280 0.0000 (  2203 PWs)   bands (ev):

   -19.7356 -19.6847  -6.8424  -6.6337  -6.0470  -5.9699  -5.4297  -5.3575
    -3.5249  -3.2898  -2.7957  -2.7032  -2.5661  -2.5554   5.8549   6.1939
     6.6937   7.0164   7.0790   7.1489   7.3667   7.3715   7.4322   7.7603
     7.9657   8.9026   8.9118   9.3713   9.7474   9.7648  10.0447  10.3416
    10.6259  10.6602  10.8172  10.9371  10.9527  11.3280  12.2188  13.3061
    13.3830  14.1348  16.4389  16.9982  17.4243  17.9300

     occupation numbers 
     0.1875   0.1875   0.1875   0.1875   0.1875   0.1875   0.1875   0.1875
     0.1875   0.1875   0.1875   0.1875   0.1875   0.1875   0.1875   0.1875
     0.1875   0.1875   0.1875   0.1875   0.1875   0.1875   0.1875   0.1875
     0.1875   0.1875   0.1875   0.1875   0.1875   0.1875   0.1875   0.1875
     0.1875   0.1875   0.1874   0.1870   0.1869   0.1728   0.0089   0.0000
     0.0000   0.0000   0.0000   0.0000   0.0000   0.0000

          k = 0.4942-0.2853-0.4107 (  2202 PWs)   bands (ev):

   -19.7250 -19.6982  -7.1573  -6.4486  -6.2343  -5.9556  -5.5277  -5.2768
    -3.1932  -3.1131  -3.0429  -2.6436  -2.4750  -2.2162   5.7749   5.8973
     6.1867   6.8412   7.1477   7.2569   7.3423   7.5060   7.9982   8.0053
     8.1665   8.3054   8.6059   9.4054   9.4177   9.6783  10.0345  10.0682
    10.4170  10.7164  10.8747  11.0204  11.1509  11.3693  11.8431  12.4123
    13.3167  14.7722  17.0479  17.2708  17.5232  17.6154

     occupation numbers 
     0.0938   0.0938   0.0938   0.0938   0.0938   0.0938   0.0938   0.0938
     0.0938   0.0938   0.0938   0.0938   0.0938   0.0938   0.0938   0.0938
     0.0938   0.0938   0.0938   0.0938   0.0938   0.0938   0.0938   0.0938
     0.0938   0.0938   0.0938   0.0937   0.0937   0.0937   0.0937   0.0937
     0.0937   0.0937   0.0936   0.0931   0.0918   0.0842   0.0334   0.0009
     0.0000   0.0000   0.0000   0.0000   0.0000   0.0000

          k = 0.0000 0.0000 0.3080 (  2187 PWs)   bands (ev):

   -19.7643 -19.6507  -6.6126  -5.9805  -5.9265  -5.9265  -5.8312  -5.8312
    -3.2055  -3.1197  -3.1197  -2.9634  -2.8906  -2.8906   5.5999   6.9019
     6.9433   6.9433   7.1093   7.1883   7.1883   7.4997   7.4997   8.4730
     8.4730   8.8775   9.4416   9.5508   9.5508   9.7314  10.1183  10.1183
    10.4504  10.4504  10.6678  11.2640  11.2640  11.3156  12.2822  12.2822
    14.2502  14.2502  15.9161  15.9161  16.8823  17.4840

     occupation numbers 
     0.0625   0.0625   0.0625   0.0625   0.0625   0.0625   0.0625   0.0625
     0.0625   0.0625   0.0625   0.0625   0.0625   0.0625   0.0625   0.0625
     0.0625   0.0625   0.0625   0.0625   0.0625   0.0625   0.0625   0.0625
     0.0625   0.0625   0.0625   0.0625   0.0625   0.0625   0.0625   0.0625
     0.0625   0.0625   0.0625   0.0593   0.0593   0.0580   0.0018   0.0018
     0.0000   0.0000   0.0000   0.0000   0.0000   0.0000

          k = 0.7412 0.4280 0.0000 (  2204 PWs)   bands (ev):

   -19.7351 -19.6858  -6.7281  -6.5978  -6.1366  -5.8255  -5.6736  -5.5384
    -3.1767  -3.0879  -3.0389  -2.6714  -2.6532  -2.5790   5.8963   6.4461
     6.5959   7.0344   7.1102   7.2462   7.2864   7.4117   7.4932   7.7075
     8.0508   8.7097   8.9769   9.4561   9.5417   9.6785   9.8359  10.2217
    10.6288  10.7711  10.8333  11.0099  11.0481  11.1477  12.2191  13.2276
    13.2996  14.1615  16.6913  16.7293  17.5942  17.7988

     occupation numbers 
     0.1875   0.1875   0.1875   0.1875   0.1875   0.1875   0.1875   0.1875
     0.1875   0.1875   0.1875   0.1875   0.1875   0.1875   0.1875   0.1875
     0.1875   0.1875   0.1875   0.1875   0.1875   0.1875   0.1875   0.1875
     0.1875   0.1875   0.1875   0.1875   0.1875   0.1875   0.1875   0.1875
     0.1875   0.1874   0.1873   0.1864   0.1859   0.1836   0.0088   0.0000
     0.0000   0.0000   0.0000   0.0000   0.0000   0.0000

          k = 0.4942 0.2853 0.1027 (  2211 PWs)   bands (ev):

   -19.7251 -19.6970  -6.9648  -6.5377  -6.3163  -5.6897  -5.6179  -5.3447
    -3.3192  -3.1598  -3.0296  -2.5972  -2.5575  -2.3718   5.8843   6.1599
     6.3639   6.9049   7.1436   7.1741   7.3637   7.4511   7.6156   7.6626
     8.0872   8.6740   8.9556   9.3833   9.4106   9.6511   9.9810  10.2331
    10.4522  10.8702  11.0063  11.0239  11.0634  11.0934  12.2575  12.7449
    13.4599  14.3204  16.8898  16.9390  17.5835  17.9316

     occupation numbers 
     0.1875   0.1875   0.1875   0.1875   0.1875   0.1875   0.1875   0.1875
     0.1875   0.1875   0.1875   0.1875   0.1875   0.1875   0.1875   0.1875
     0.1875   0.1875   0.1875   0.1875   0.1875   0.1875   0.1875   0.1875
     0.1875   0.1875   0.1875   0.1875   0.1875   0.1875   0.1875   0.1875
     0.1875   0.1872   0.1864   0.1862   0.1857   0.1851   0.0067   0.0000
     0.0000   0.0000   0.0000   0.0000   0.0000   0.0000

          k = 0.7412-0.4280-0.3080 (  2210 PWs)   bands (ev):

   -19.7248 -19.6979  -6.9007  -6.4466  -6.2943  -5.7912  -5.7515  -5.4740
    -3.0657  -3.0498  -2.9591  -2.7251  -2.6177  -2.4220   5.9607   6.3062
     6.4060   6.8837   7.1107   7.2230   7.4011   7.4868   7.6518   7.6803
     8.0613   8.6861   8.8365   9.3703   9.4814   9.4973   9.6487  10.1648
    10.4964  10.8734  10.9678  11.0121  11.1345  11.1536  12.2175  12.6976
    13.4091  14.2903  17.0643  17.0734  17.5518  17.9066

     occupation numbers 
     0.1875   0.1875   0.1875   0.1875   0.1875   0.1875   0.1875   0.1875
     0.1875   0.1875   0.1875   0.1875   0.1875   0.1875   0.1875   0.1875
     0.1875   0.1875   0.1875   0.1875   0.1875   0.1875   0.1875   0.1875
     0.1875   0.1875   0.1875   0.1875   0.1875   0.1875   0.1875   0.1875
     0.1875   0.1872   0.1868   0.1864   0.1840   0.1834   0.0090   0.0001
     0.0000   0.0000   0.0000   0.0000   0.0000   0.0000

          k = 0.4942-0.5706-0.2053 (  2206 PWs)   bands (ev):

   -19.7120 -19.7120  -6.8827  -6.8634  -6.0301  -6.0290  -5.4190  -5.4125
    -3.1483  -3.1473  -2.8105  -2.8091  -2.3785  -2.3753   6.0323   6.0457
     6.5518   6.5538   7.0320   7.0390   7.3380   7.3422   7.6919   7.7005
     8.6730   8.6786   8.8085   8.8167   9.5038   9.5045  10.0492  10.0518
    10.6643  10.6692  10.8658  10.8753  11.1917  11.1970  12.2670  12.2751
    13.9856  13.9939  17.4309  17.4315  17.8731  17.8756

     occupation numbers 
     0.1875   0.1875   0.1875   0.1875   0.1875   0.1875   0.1875   0.1875
     0.1875   0.1875   0.1875   0.1875   0.1875   0.1875   0.1875   0.1875
     0.1875   0.1875   0.1875   0.1875   0.1875   0.1875   0.1875   0.1875
     0.1875   0.1875   0.1875   0.1875   0.1875   0.1875   0.1875   0.1875
     0.1875   0.1875   0.1873   0.1872   0.1820   0.1817   0.0062   0.0058
     0.0000   0.0000   0.0000   0.0000   0.0000   0.0000

          k = 0.0000 0.0000-0.6160 (  2186 PWs)   bands (ev):

   -19.7117 -19.7104  -6.5127  -6.4955  -5.9397  -5.9397  -5.9227  -5.9227
    -2.8895  -2.8895  -2.8874  -2.8874  -2.6999  -2.6997   6.2240   6.2258
     7.1043   7.1043   7.1196   7.1196   7.4305   7.4316   7.6989   7.6989
     7.7115   7.7115   9.5951   9.5951   9.6083   9.6083   9.6699   9.6835
    10.8485  10.8687  10.9403  10.9403  10.9624  10.9624  13.2156  13.2156
    13.2552  13.2552  17.1203  17.1203  17.1230  17.1230

     occupation numbers 
     0.0313   0.0313   0.0313   0.0313   0.0313   0.0313   0.0313   0.0313
     0.0313   0.0313   0.0313   0.0313   0.0313   0.0313   0.0313   0.0313
     0.0313   0.0313   0.0313   0.0313   0.0313   0.0313   0.0313   0.0313
     0.0313   0.0313   0.0312   0.0312   0.0312   0.0312   0.0312   0.0312
     0.0312   0.0312   0.0312   0.0312   0.0311   0.0311   0.0000   0.0000
     0.0000   0.0000   0.0000   0.0000   0.0000   0.0000

          k = 0.4942-0.5706 0.1027 (  2198 PWs)   bands (ev):

   -19.7245 -19.6976  -6.9484  -6.6391  -6.1261  -5.8869  -5.5036  -5.3688
    -3.3057  -3.2505  -2.8729  -2.7029  -2.5235  -2.3787   5.8503   6.1770
     6.4149   6.9207   7.1168   7.2517   7.3257   7.4972   7.5293   7.6770
     8.0504   8.6209   8.9576   9.2505   9.5614   9.7868   9.8682  10.3221
    10.3703  10.7965  10.9151  10.9842  11.1321  11.2334  12.3019  12.7304
    13.4136  14.3383  16.9113  17.1159  17.3131  18.0191

     occupation numbers 
     0.1875   0.1875   0.1875   0.1875   0.1875   0.1875   0.1875   0.1875
     0.1875   0.1875   0.1875   0.1875   0.1875   0.1875   0.1875   0.1875
     0.1875   0.1875   0.1875   0.1875   0.1875   0.1875   0.1875   0.1875
     0.1875   0.1875   0.1875   0.1875   0.1875   0.1875   0.1875   0.1875
     0.1875   0.1874   0.1871   0.1866   0.1841   0.1799   0.0047   0.0001
     0.0000   0.0000   0.0000   0.0000   0.0000   0.0000

     the Fermi energy is    11.7363 ev

!    total energy              =    -537.98726927 Ry
     Harris-Foulkes estimate   =    -537.98725923 Ry
     estimated scf accuracy    <          1.8E-09 Ry

     The total energy is the sum of the following terms:

     one-electron contribution =     -32.88680278 Ry
     hartree contribution      =      83.63659328 Ry
     xc contribution           =    -199.60457138 Ry
     ewald contribution        =    -389.44315552 Ry
     Hubbard energy            =       0.32376675 Ry
     smearing contrib. (-TS)   =      -0.01309961 Ry

     convergence has been achieved in  13 iterations

     init_run     :      7.66s CPU      7.89s WALL (       1 calls)
     electrons    :    241.45s CPU    251.50s WALL (       1 calls)

     Called by init_run:
     wfcinit      :      0.00s CPU      0.00s WALL (       1 calls)
     potinit      :      0.31s CPU      0.47s WALL (       1 calls)

     Called by electrons:
     c_bands      :    159.01s CPU    165.97s WALL (      13 calls)
     sum_band     :     47.96s CPU     49.23s WALL (      13 calls)
     v_of_rho     :      4.21s CPU      4.27s WALL (      14 calls)
     v_h          :      0.24s CPU      0.24s WALL (      14 calls)
     v_xc         :      3.97s CPU      4.03s WALL (      14 calls)
     newd         :     31.46s CPU     31.88s WALL (      14 calls)
     mix_rho      :      0.41s CPU      0.41s WALL (      13 calls)

     Called by c_bands:
     init_us_2    :      1.48s CPU      1.49s WALL (     364 calls)
     cegterg      :    154.99s CPU    161.62s WALL (     182 calls)

     Called by sum_band:
     sum_band:bec :      0.14s CPU      0.14s WALL (     182 calls)
     addusdens    :     20.42s CPU     20.44s WALL (      13 calls)

     Called by *egterg:
     h_psi        :    116.56s CPU    121.89s WALL (     674 calls)
     s_psi        :      5.94s CPU      5.98s WALL (     674 calls)
     g_psi        :      0.44s CPU      0.44s WALL (     492 calls)
     cdiaghg      :      9.25s CPU      9.37s WALL (     660 calls)
     cegterg:over :      8.11s CPU      8.76s WALL (     492 calls)
     cegterg:upda :      4.55s CPU      4.56s WALL (     492 calls)
     cegterg:last :      3.52s CPU      3.52s WALL (     204 calls)

     Called by h_psi:
     h_psi:vloc   :     96.22s CPU    100.86s WALL (     674 calls)
     h_psi:vnl    :     12.75s CPU     13.17s WALL (     674 calls)
     add_vuspsi   :      5.86s CPU      6.00s WALL (     674 calls)
     vhpsi        :      7.27s CPU      7.50s WALL (     674 calls)

     General routines
     calbec       :     14.83s CPU     15.46s WALL (    1712 calls)
     fft          :      3.02s CPU      3.35s WALL (     219 calls)
     ffts         :      0.08s CPU      0.15s WALL (      27 calls)
     fftw         :     90.02s CPU     95.49s WALL (   50452 calls)
     interpolate  :      0.52s CPU      0.71s WALL (      27 calls)
     davcio       :      0.01s CPU      0.48s WALL (     378 calls)

     Parallel routines
     fft_scatter  :     36.61s CPU     42.03s WALL (   50698 calls)
     Hubbard U routines
     new_ns       :      1.65s CPU      1.87s WALL (      13 calls)
     vhpsi        :      7.27s CPU      7.50s WALL (     674 calls)

     PWSCF        :  4m 9.56s CPU     4m19.94s WALL


   This run was terminated on:  15:17:12  11Nov2012            

=------------------------------------------------------------------------------=
