   JOB DONE.
=------------------------------------------------------------------------------=

     Program PWSCF v.5.0.1 starts on 11Nov2012 at 15: 4: 8 

     This program is part of the open-source Quantum ESPRESSO suite
     for quantum simulation of materials; please cite
         "P. Giannozzi et al., J. Phys.:Condens. Matter 21 395502 (2009);
          URL http://www.quantum-espresso.org", 
     in publications or presentations arising from this work. More details at
     http://www.quantum-espresso.org/quote.php

     Parallel version (MPI), running on     2 processors
     R & G space division:  proc/pool =    2

     Current dimensions of program PWSCF are:
     Max number of different atomic species (ntypx) = 10
     Max number of k-points (npk) =  40000
     Max angular momentum in pseudopotentials (lmaxx) =  3
     Reading input from CoLaO_U300_a5.in
               file Co.pbe-nd-rrkjus.UPF: wavefunction(s)  4S 3D renormalized
               file Co.pbe-nd-rrkjus.UPF: wavefunction(s)  4S 3D renormalized
               file O.pbe-rrkjus.UPF: wavefunction(s)  2S renormalized

     Subspace diagonalization in iterative solution of the eigenvalue problem:
     a serial algorithm will be used


     Parallelization info
     --------------------
     sticks:   dense  smooth     PW     G-vecs:    dense   smooth      PW
     Min        1112     444    131                34808     8786    1448
     Max        1113     445    132                34809     8787    1449
     Sum        2225     889    263                69617    17573    2897


     Title: 
     GGA + U, U = 3.000, alpha = 0.050                                          


     bravais-lattice index     =            5
     lattice parameter (alat)  =      10.3292  a.u.
     unit-cell volume          =     793.0599 (a.u.)^3
     number of atoms/cell      =           10
     number of atomic types    =            4
     number of electrons       =        76.00
     number of Kohn-Sham states=           46
     kinetic-energy cutoff     =      30.0000  Ry
     charge density cutoff     =     300.0000  Ry
     convergence threshold     =      1.0E-08
     mixing beta               =       0.2000
     number of iterations used =            8  plain     mixing
     Exchange-correlation      =  SLA  PW   PBE  PBE ( 1 4 3 4 0)
     EXX-fraction              =        0.00

     celldm(1)=  10.329242  celldm(2)=   0.000000  celldm(3)=   0.000000
     celldm(4)=   0.488100  celldm(5)=   0.000000  celldm(6)=   0.000000

     crystal axes: (cart. coord. in units of alat)
               a(1) = (   0.505915  -0.292090   0.811624 )  
               a(2) = (   0.000000   0.584180   0.811624 )  
               a(3) = (  -0.505915  -0.292090   0.811624 )  

     reciprocal axes: (cart. coord. in units 2 pi/alat)
               b(1) = (  0.988308 -0.570600  0.410699 )  
               b(2) = (  0.000000  1.141200  0.410699 )  
               b(3) = ( -0.988308 -0.570600  0.410699 )  


     PseudoPot. # 1 for Co read from file:
     /home/mcurnan/dft-course/Project1/example_LaCoO3/Co.pbe-nd-rrkjus.UPF
     MD5 check sum: 3e47a84addf5e975e0edeaeee2a73f59
     Pseudo is Ultrasoft + core correction, Zval =  9.0
     Generated by new atomic code, or converted to UPF format
     Using radial grid of  961 points,  6 beta functions with: 
                l(1) =   0
                l(2) =   0
                l(3) =   1
                l(4) =   1
                l(5) =   2
                l(6) =   2
     Q(r) pseudized with 0 coefficients 


     PseudoPot. # 2 for Co read from file:
     /home/mcurnan/dft-course/Project1/example_LaCoO3/Co.pbe-nd-rrkjus.UPF
     MD5 check sum: 3e47a84addf5e975e0edeaeee2a73f59
     Pseudo is Ultrasoft + core correction, Zval =  9.0
     Generated by new atomic code, or converted to UPF format
     Using radial grid of  961 points,  6 beta functions with: 
                l(1) =   0
                l(2) =   0
                l(3) =   1
                l(4) =   1
                l(5) =   2
                l(6) =   2
     Q(r) pseudized with 0 coefficients 


     PseudoPot. # 3 for La read from file:
     /home/mcurnan/dft-course/Project1/example_LaCoO3/La.pbe-nsp-van.UPF
     MD5 check sum: b2f11743f52dde65f77d1302becd7929
     Pseudo is Ultrasoft + core correction, Zval = 11.0
     Generated by new atomic code, or converted to UPF format
     Using radial grid of  907 points,  6 beta functions with: 
                l(1) =   0
                l(2) =   0
                l(3) =   1
                l(4) =   1
                l(5) =   2
                l(6) =   2
     Q(r) pseudized with  6 coefficients,  rinner =    1.200   1.200   1.200
                                                       1.200   1.200

     PseudoPot. # 4 for O  read from file:
     /home/mcurnan/dft-course/Project1/example_LaCoO3/O.pbe-rrkjus.UPF
     MD5 check sum: 390ba29e75625707450f3bd3f0eb6be9
     Pseudo is Ultrasoft, Zval =  6.0
     Generated by new atomic code, or converted to UPF format
     Using radial grid of 1269 points,  4 beta functions with: 
                l(1) =   0
                l(2) =   0
                l(3) =   1
                l(4) =   1
     Q(r) pseudized with 0 coefficients 


     atomic species   valence    mass     pseudopotential
        Co1            9.00     1.00000     Co( 1.00)
        Co2            9.00     1.00000     Co( 1.00)
        La1           11.00     1.00000     La( 1.00)
        O1             6.00     1.00000     O ( 1.00)
 -----
     simplified LDA+U calculation, Hubbard_lmax = 2
     atomic species  L   Hubbard U  Hubbard alpha
        Co1          2    3.000000    0.050000
        Co2          2    3.000000    0.000000
        La1          2    0.000000    0.000000
        O1           1    0.000000    0.000000
 -----

      6 Sym. Ops., with inversion, found


                                    s                        frac. trans.

      isym =  1     identity                                     

 cryst.   s( 1) = (     1          0          0      )
                  (     0          1          0      )
                  (     0          0          1      )

 cart.    s( 1) = (  1.0000000  0.0000000  0.0000000 )
                  (  0.0000000  1.0000000  0.0000000 )
                  (  0.0000000  0.0000000  1.0000000 )


      isym =  2     120 deg rotation - cryst. axis [0,0,1]       

 cryst.   s( 2) = (     0          1          0      )
                  (     0          0          1      )
                  (     1          0          0      )

 cart.    s( 2) = ( -0.5000000 -0.8660254  0.0000000 )
                  (  0.8660254 -0.5000000  0.0000000 )
                  (  0.0000000  0.0000000  1.0000000 )


      isym =  3     120 deg rotation - cryst. axis [0,0,-1]      

 cryst.   s( 3) = (     0          0          1      )
                  (     1          0          0      )
                  (     0          1          0      )

 cart.    s( 3) = ( -0.5000000  0.8660254  0.0000000 )
                  ( -0.8660254 -0.5000000  0.0000000 )
                  (  0.0000000  0.0000000  1.0000000 )


      isym =  4     inversion                                    

 cryst.   s( 4) = (    -1          0          0      )
                  (     0         -1          0      )
                  (     0          0         -1      )

 cart.    s( 4) = ( -1.0000000  0.0000000  0.0000000 )
                  (  0.0000000 -1.0000000  0.0000000 )
                  (  0.0000000  0.0000000 -1.0000000 )


      isym =  5     inv. 180 deg rotation - cart. axis [0,1,0]   

 cryst.   s( 5) = (     0         -1          0      )
                  (     0          0         -1      )
                  (    -1          0          0      )

 cart.    s( 5) = (  0.5000000  0.8660254  0.0000000 )
                  ( -0.8660254  0.5000000  0.0000000 )
                  (  0.0000000  0.0000000 -1.0000000 )


      isym =  6     inv. 180 deg rotation - cart. axis [1,0,0]   

 cryst.   s( 6) = (     0          0         -1      )
                  (    -1          0          0      )
                  (     0         -1          0      )

 cart.    s( 6) = (  0.5000000 -0.8660254  0.0000000 )
                  (  0.8660254  0.5000000  0.0000000 )
                  (  0.0000000  0.0000000 -1.0000000 )


     point group S_6 (-3)   
     there are  6 classes
     the character table:

       E     C3    C3^2  i     S6^5  S6   
A_g    1.00  1.00  1.00  1.00  1.00  1.00
E_g    1.00 -0.50 -0.50  1.00 -0.50 -0.50
E_g*   1.00 -0.50 -0.50  1.00 -0.50 -0.50
A_u    1.00  1.00  1.00 -1.00 -1.00 -1.00
E_u    1.00 -0.50 -0.50 -1.00  0.50  0.50
E_u*   1.00 -0.50 -0.50 -1.00  0.50  0.50
     imaginary part
A_g    0.00  0.00  0.00  0.00  0.00  0.00
E_g    0.00  0.87 -0.87  0.00  0.87 -0.87
E_g*   0.00 -0.87  0.87  0.00 -0.87  0.87
A_u    0.00  0.00  0.00  0.00  0.00  0.00
E_u    0.00  0.87 -0.87  0.00 -0.87  0.87
E_u*   0.00 -0.87  0.87  0.00  0.87 -0.87

     the symmetry operations in each class:
     E        1
     C3       2
     C3^2     3
     i        4
     S6^5     5
     S6       6

   Cartesian axes

     site n.     atom                  positions (alat units)
         1           Co1 tau(   1) = (   0.0000000   0.0000000   0.0000000  )
         2           Co2 tau(   2) = (   0.0000000   0.0000000   1.2174358  )
         3           La1 tau(   3) = (   0.0000000   0.0000000   0.6087179  )
         4           La1 tau(   4) = (   0.0000000   0.0000000   1.8261537  )
         5           O1  tau(   5) = (  -0.2839701  -0.0933228   1.0141240  )
         6           O1  tau(   6) = (   0.0611651   0.2925867   1.0141240  )
         7           O1  tau(   7) = (   0.2228050  -0.1992639   1.0141240  )
         8           O1  tau(   8) = (  -0.0611651  -0.2925867   1.4207476  )
         9           O1  tau(   9) = (   0.2839701   0.0933228   1.4207476  )
        10           O1  tau(  10) = (  -0.2228050   0.1992639   1.4207476  )

   Crystallographic axes

     site n.     atom                  positions (cryst. coord.)
         1           Co1 tau(   1) = (  0.0000000  0.0000000  0.0000000  )
         2           Co2 tau(   2) = (  0.5000000  0.5000000  0.5000000  )
         3           La1 tau(   3) = (  0.2500000  0.2500000  0.2500000  )
         4           La1 tau(   4) = (  0.7500000  0.7500000  0.7500000  )
         5           O1  tau(   5) = (  0.1891000  0.3100000  0.7504000  )
         6           O1  tau(   6) = (  0.3100000  0.7504000  0.1891000  )
         7           O1  tau(   7) = (  0.7504000  0.1891000  0.3100000  )
         8           O1  tau(   8) = (  0.6900000  0.2496000  0.8109000  )
         9           O1  tau(   9) = (  0.8109000  0.6900000  0.2496000  )
        10           O1  tau(  10) = (  0.2496000  0.8109000  0.6900000  )

     number of k points=    14  gaussian smearing, width (Ry)=  0.0300
                       cart. coord. in units 2pi/alat
        k(    1) = (   0.0000000   0.0000000   0.0000000), wk =   0.0312500
        k(    2) = (  -0.2470771  -0.1426500   0.1026748), wk =   0.1875000
        k(    3) = (   0.4941541   0.2853000  -0.2053496), wk =   0.0937500
        k(    4) = (  -0.2470771   0.1426500   0.2053496), wk =   0.1875000
        k(    5) = (   0.4941541   0.5706001  -0.1026748), wk =   0.1875000
        k(    6) = (   0.2470771   0.4279500   0.0000000), wk =   0.1875000
        k(    7) = (   0.4941541  -0.2853000  -0.4106993), wk =   0.0937500
        k(    8) = (   0.0000000   0.0000000   0.3080244), wk =   0.0625000
        k(    9) = (   0.7412312   0.4279500   0.0000000), wk =   0.1875000
        k(   10) = (   0.4941541   0.2853000   0.1026748), wk =   0.1875000
        k(   11) = (   0.7412312  -0.4279500  -0.3080244), wk =   0.1875000
        k(   12) = (   0.4941541  -0.5706001  -0.2053496), wk =   0.1875000
        k(   13) = (   0.0000000   0.0000000  -0.6160489), wk =   0.0312500
        k(   14) = (   0.4941541  -0.5706001   0.1026748), wk =   0.1875000

                       cryst. coord.
        k(    1) = (   0.0000000   0.0000000   0.0000000), wk =   0.0312500
        k(    2) = (   0.0000000   0.0000000   0.2500000), wk =   0.1875000
        k(    3) = (   0.0000000   0.0000000  -0.5000000), wk =   0.0937500
        k(    4) = (   0.0000000   0.2500000   0.2500000), wk =   0.1875000
        k(    5) = (   0.0000000   0.2500000  -0.5000000), wk =   0.1875000
        k(    6) = (   0.0000000   0.2500000  -0.2500000), wk =   0.1875000
        k(    7) = (   0.0000000  -0.5000000  -0.5000000), wk =   0.0937500
        k(    8) = (   0.2500000   0.2500000   0.2500000), wk =   0.0625000
        k(    9) = (   0.2500000   0.2500000  -0.5000000), wk =   0.1875000
        k(   10) = (   0.2500000   0.2500000  -0.2500000), wk =   0.1875000
        k(   11) = (   0.2500000  -0.5000000  -0.5000000), wk =   0.1875000
        k(   12) = (   0.2500000  -0.5000000  -0.2500000), wk =   0.1875000
        k(   13) = (  -0.5000000  -0.5000000  -0.5000000), wk =   0.0312500
        k(   14) = (   0.5000000  -0.2500000   0.0000000), wk =   0.1875000

     Dense  grid:    69617 G-vectors     FFT dimensions: (  60,  60,  60)

     Smooth grid:    17573 G-vectors     FFT dimensions: (  40,  40,  40)

     Largest allocated arrays     est. size (Mb)     dimensions
        Kohn-Sham Wavefunctions         0.78 Mb     (   1117,   46)
        Atomic wavefunctions            1.06 Mb     (   1117,   62)
        NL pseudopotentials             2.05 Mb     (   1117,  120)
        Each V/rho on FFT grid          1.65 Mb     ( 108000)
        Each G-vector array             0.27 Mb     (  34808)
        G-vector shells                 0.04 Mb     (   4682)
     Largest temporary arrays     est. size (Mb)     dimensions
        Auxiliary wavefunctions         3.14 Mb     (   1117,  184)
        Each subspace H/S matrix        0.52 Mb     ( 184, 184)
        Each <psi_i|beta_j> matrix      0.08 Mb     (    120,   46)
        Arrays for rho mixing          13.18 Mb     ( 108000,   8)

     Check: negative/imaginary core charge=   -0.000028    0.000000

     The initial density is read from file :
     /home/mcurnan/dft-course/Project1/example_LaCoO3/300/Co/alpha/CoLaO_U300.save/charge-density.dat

 --- in v_hubbard ---
Hubbard energy    0.3166
 -------
     Number of +U iterations with fixed ns =  0
     Starting occupations:
 --- enter write_ns ---
 LDA+U parameters:
U( 1)     =  3.00000000
alpha( 1) =  0.05000000
U( 2)     =  3.00000000
alpha( 2) =  0.00000000
U( 3)     =  0.00000000
alpha( 3) =  0.00000000
U( 4)     =  0.00000000
alpha( 4) =  0.00000000
atom    1   Tr[ns(na)] =   8.02206
    eigenvalues: 
  0.596  0.596  0.938  0.941  0.941
    eigenvectors:
  0.000  0.000  1.000  0.000  0.000
  0.333  0.322  0.000  0.004  0.341
  0.322  0.333  0.000  0.341  0.004
  0.289  0.056  0.000  0.515  0.140
  0.056  0.289  0.000  0.140  0.515
    occupations:
  0.938  0.000  0.000  0.000  0.000
  0.000  0.715  0.000 -0.060  0.152
  0.000  0.000  0.715  0.152  0.060
  0.000 -0.060  0.152  0.822  0.000
  0.000  0.152  0.060  0.000  0.822
atom    2   Tr[ns(na)] =   8.02145
    eigenvalues: 
  0.595  0.595  0.938  0.941  0.941
    eigenvectors:
  0.000  0.000  1.000  0.000  0.000
  0.640  0.015  0.000  0.223  0.122
  0.015  0.640  0.000  0.122  0.223
  0.017  0.329  0.000  0.470  0.185
  0.329  0.017  0.000  0.185  0.470
    occupations:
  0.938  0.000  0.000  0.000  0.000
  0.000  0.715  0.000  0.060  0.153
  0.000  0.000  0.715  0.153 -0.060
  0.000  0.060  0.153  0.822  0.000
  0.000  0.153 -0.060  0.000  0.822
atom    3   Tr[ns(na)] =   3.80284
    eigenvalues: 
  0.355  0.355  0.384  0.403  0.403
    eigenvectors:
  0.000  0.000  1.000  0.000  0.000
  0.781  0.139  0.000  0.012  0.068
  0.139  0.781  0.000  0.068  0.012
  0.013  0.067  0.000  0.780  0.141
  0.067  0.013  0.000  0.141  0.780
    occupations:
  0.384  0.000  0.000  0.000  0.000
  0.000  0.359  0.000  0.000  0.013
  0.000  0.000  0.359  0.013  0.000
  0.000  0.000  0.013  0.399  0.000
  0.000  0.013  0.000  0.000  0.399
atom    4   Tr[ns(na)] =   3.80284
    eigenvalues: 
  0.355  0.355  0.384  0.403  0.403
    eigenvectors:
  0.000  0.000  1.000  0.000  0.000
  0.782  0.139  0.000  0.012  0.068
  0.139  0.782  0.000  0.068  0.012
  0.012  0.067  0.000  0.780  0.141
  0.067  0.012  0.000  0.141  0.780
    occupations:
  0.384  0.000  0.000  0.000  0.000
  0.000  0.359  0.000  0.000  0.013
  0.000  0.000  0.359  0.013  0.000
  0.000  0.000  0.013  0.399  0.000
  0.000  0.013  0.000  0.000  0.399
atom    5   Tr[ns(na)] =   5.43357
    eigenvalues: 
  0.846  0.929  0.941
    eigenvectors:
  0.340  0.000  0.660
  0.494  0.250  0.256
  0.166  0.750  0.085
    occupations:
  0.909  0.039  0.022
  0.039  0.891 -0.022
  0.022 -0.022  0.917
atom    6   Tr[ns(na)] =   5.43357
    eigenvalues: 
  0.846  0.929  0.941
    eigenvectors:
  0.340  0.000  0.660
  0.000  1.000  0.000
  0.660  0.000  0.340
    occupations:
  0.909  0.000 -0.045
  0.000  0.929  0.000
 -0.045  0.000  0.879
atom    7   Tr[ns(na)] =   5.43357
    eigenvalues: 
  0.846  0.929  0.941
    eigenvectors:
  0.340  0.000  0.660
  0.496  0.250  0.255
  0.164  0.750  0.086
    occupations:
  0.909 -0.039  0.022
 -0.039  0.891  0.022
  0.022  0.022  0.917
atom    8   Tr[ns(na)] =   5.43357
    eigenvalues: 
  0.846  0.929  0.941
    eigenvectors:
  0.340  0.000  0.660
  0.000  1.000  0.000
  0.660  0.000  0.340
    occupations:
  0.909  0.000 -0.045
  0.000  0.929  0.000
 -0.045  0.000  0.879
atom    9   Tr[ns(na)] =   5.43357
    eigenvalues: 
  0.846  0.929  0.941
    eigenvectors:
  0.340  0.000  0.660
  0.494  0.250  0.256
  0.166  0.750  0.085
    occupations:
  0.909  0.039  0.022
  0.039  0.891 -0.022
  0.022 -0.022  0.917
atom   10   Tr[ns(na)] =   5.43357
    eigenvalues: 
  0.846  0.929  0.941
    eigenvectors:
  0.340  0.000  0.660
  0.496  0.250  0.255
  0.164  0.750  0.086
    occupations:
  0.909 -0.039  0.022
 -0.039  0.891  0.022
  0.022  0.022  0.917
N of occupied +U levels =  56.2506062
 --- exit write_ns ---
 LDA+U Projector read from file 
     Starting wfc from file

     total cpu time spent up to now is        8.4 secs

     per-process dynamical memory:    46.9 Mb

     Self-consistent Calculation

     iteration #  1     ecut=    30.00 Ry     beta=0.20
     Davidson diagonalization with overlap
     c_bands:  1 eigenvalues not converged
     c_bands:  1 eigenvalues not converged
     c_bands:  1 eigenvalues not converged
     c_bands:  1 eigenvalues not converged
     c_bands:  1 eigenvalues not converged
     c_bands:  1 eigenvalues not converged
     ethr =  1.00E-10,  avg # of iterations = 15.7
 --- enter write_ns ---
 LDA+U parameters:
U( 1)     =  3.00000000
alpha( 1) =  0.05000000
U( 2)     =  3.00000000
alpha( 2) =  0.00000000
U( 3)     =  0.00000000
alpha( 3) =  0.00000000
U( 4)     =  0.00000000
alpha( 4) =  0.00000000
atom    1   Tr[ns(na)] =   8.13194
    eigenvalues: 
  0.559  0.559  0.982  0.982  0.984
    eigenvectors:
  0.000  0.000  0.000  0.000  1.000
  0.329  0.325  0.005  0.341  0.000
  0.325  0.329  0.341  0.005  0.000
  0.288  0.058  0.513  0.142  0.000
  0.058  0.288  0.142  0.513  0.000
    occupations:
  0.984  0.000  0.000  0.000  0.000
  0.000  0.705  0.000 -0.072  0.188
  0.000  0.000  0.705  0.188  0.072
  0.000 -0.072  0.188  0.836  0.000
  0.000  0.188  0.072  0.000  0.836
atom    2   Tr[ns(na)] =   8.15168
    eigenvalues: 
  0.561  0.561  0.984  0.984  0.986
    eigenvectors:
  0.000  0.000  0.000  0.000  1.000
  0.636  0.019  0.221  0.125  0.000
  0.019  0.636  0.125  0.221  0.000
  0.013  0.333  0.469  0.185  0.000
  0.333  0.013  0.185  0.469  0.000
    occupations:
  0.986  0.000  0.000  0.000  0.000
  0.000  0.707  0.000  0.072  0.188
  0.000  0.000  0.707  0.188 -0.072
  0.000  0.072  0.188  0.838  0.000
  0.000  0.188 -0.072  0.000  0.838
atom    3   Tr[ns(na)] =   3.79587
    eigenvalues: 
  0.356  0.356  0.382  0.402  0.402
    eigenvectors:
  0.000  0.000  1.000  0.000  0.000
  0.779  0.140  0.000  0.012  0.070
  0.140  0.779  0.000  0.070  0.012
  0.013  0.069  0.000  0.777  0.141
  0.069  0.013  0.000  0.141  0.777
    occupations:
  0.382  0.000  0.000  0.000  0.000
  0.000  0.360  0.000  0.000  0.013
  0.000  0.000  0.360  0.013  0.000
  0.000  0.000  0.013  0.398  0.000
  0.000  0.013  0.000  0.000  0.398
atom    4   Tr[ns(na)] =   3.79587
    eigenvalues: 
  0.356  0.356  0.382  0.402  0.402
    eigenvectors:
  0.000  0.000  1.000  0.000  0.000
  0.779  0.140  0.000  0.012  0.070
  0.140  0.779  0.000  0.070  0.012
  0.013  0.069  0.000  0.777  0.141
  0.069  0.013  0.000  0.141  0.777
    occupations:
  0.382  0.000  0.000  0.000  0.000
  0.000  0.360  0.000  0.000  0.013
  0.000  0.000  0.360  0.013  0.000
  0.000  0.000  0.013  0.398  0.000
  0.000  0.013  0.000  0.000  0.398
atom    5   Tr[ns(na)] =   5.40533
    eigenvalues: 
  0.833  0.926  0.944
    eigenvectors:
  0.340  0.000  0.660
  0.497  0.247  0.256
  0.163  0.753  0.084
    occupations:
  0.906  0.046  0.026
  0.046  0.884 -0.024
  0.026 -0.024  0.912
atom    6   Tr[ns(na)] =   5.40533
    eigenvalues: 
  0.833  0.926  0.944
    eigenvectors:
  0.340  0.000  0.660
  0.000  1.000  0.000
  0.660  0.000  0.340
    occupations:
  0.906  0.000 -0.053
  0.000  0.926  0.000
 -0.053  0.000  0.871
atom    7   Tr[ns(na)] =   5.40533
    eigenvalues: 
  0.833  0.926  0.944
    eigenvectors:
  0.340  0.000  0.660
  0.493  0.253  0.255
  0.167  0.747  0.086
    occupations:
  0.906 -0.045  0.026
 -0.045  0.885  0.024
  0.026  0.024  0.912
atom    8   Tr[ns(na)] =   5.40533
    eigenvalues: 
  0.833  0.926  0.944
    eigenvectors:
  0.340  0.000  0.660
  0.000  1.000  0.000
  0.660  0.000  0.340
    occupations:
  0.906  0.000 -0.053
  0.000  0.926  0.000
 -0.053  0.000  0.871
atom    9   Tr[ns(na)] =   5.40533
    eigenvalues: 
  0.833  0.926  0.944
    eigenvectors:
  0.340  0.000  0.660
  0.497  0.247  0.256
  0.163  0.753  0.084
    occupations:
  0.906  0.046  0.026
  0.046  0.884 -0.024
  0.026 -0.024  0.912
atom   10   Tr[ns(na)] =   5.40533
    eigenvalues: 
  0.833  0.926  0.944
    eigenvectors:
  0.340  0.000  0.660
  0.493  0.253  0.255
  0.167  0.747  0.086
    occupations:
  0.906 -0.045  0.026
 -0.045  0.885  0.024
  0.026  0.024  0.912
N of occupied +U levels =  56.3073003
 --- exit write_ns ---
 --- in v_hubbard ---
Hubbard energy    0.3075
 -------

     total cpu time spent up to now is       42.5 secs

     total energy              =    -538.04007902 Ry
     Harris-Foulkes estimate   =    -538.04351582 Ry
     estimated scf accuracy    <       0.02178844 Ry

     iteration #  2     ecut=    30.00 Ry     beta=0.20
     Davidson diagonalization with overlap
     ethr =  2.87E-05,  avg # of iterations =  1.4
 --- enter write_ns ---
 LDA+U parameters:
U( 1)     =  3.00000000
alpha( 1) =  0.05000000
U( 2)     =  3.00000000
alpha( 2) =  0.00000000
U( 3)     =  0.00000000
alpha( 3) =  0.00000000
U( 4)     =  0.00000000
alpha( 4) =  0.00000000
atom    1   Tr[ns(na)] =   8.04319
    eigenvalues: 
  0.533  0.533  0.984  0.984  0.987
    eigenvectors:
  0.000  0.000  0.000  0.000  1.000
  0.332  0.323  0.004  0.341  0.000
  0.323  0.332  0.341  0.004  0.000
  0.288  0.057  0.515  0.140  0.000
  0.057  0.288  0.140  0.515  0.000
    occupations:
  0.987  0.000  0.000  0.000  0.000
  0.000  0.689  0.000 -0.078  0.199
  0.000  0.000  0.689  0.199  0.078
  0.000 -0.078  0.199  0.829  0.000
  0.000  0.199  0.078  0.000  0.829
atom    2   Tr[ns(na)] =   8.02011
    eigenvalues: 
  0.528  0.528  0.984  0.984  0.986
    eigenvectors:
  0.000  0.000  0.000  0.000  1.000
  0.638  0.018  0.221  0.124  0.000
  0.018  0.638  0.124  0.221  0.000
  0.014  0.331  0.470  0.185  0.000
  0.331  0.014  0.185  0.470  0.000
    occupations:
  0.986  0.000  0.000  0.000  0.000
  0.000  0.685  0.000  0.078  0.202
  0.000  0.000  0.685  0.202 -0.078
  0.000  0.078  0.202  0.827  0.000
  0.000  0.202 -0.078  0.000  0.827
atom    3   Tr[ns(na)] =   3.79321
    eigenvalues: 
  0.355  0.355  0.382  0.402  0.402
    eigenvectors:
  0.000  0.000  1.000  0.000  0.000
  0.781  0.140  0.000  0.012  0.068
  0.140  0.781  0.000  0.068  0.012
  0.013  0.067  0.000  0.779  0.141
  0.067  0.013  0.000  0.141  0.779
    occupations:
  0.382  0.000  0.000  0.000  0.000
  0.000  0.359  0.000  0.000  0.013
  0.000  0.000  0.359  0.013  0.000
  0.000  0.000  0.013  0.398  0.000
  0.000  0.013  0.000  0.000  0.398
atom    4   Tr[ns(na)] =   3.79321
    eigenvalues: 
  0.355  0.355  0.382  0.402  0.402
    eigenvectors:
  0.000  0.000  1.000  0.000  0.000
  0.781  0.139  0.000  0.012  0.068
  0.139  0.781  0.000  0.068  0.012
  0.013  0.067  0.000  0.779  0.141
  0.067  0.013  0.000  0.141  0.779
    occupations:
  0.382  0.000  0.000  0.000  0.000
  0.000  0.359  0.000  0.000  0.013
  0.000  0.000  0.359  0.013  0.000
  0.000  0.000  0.013  0.398  0.000
  0.000  0.013  0.000  0.000  0.398
atom    5   Tr[ns(na)] =   5.44014
    eigenvalues: 
  0.843  0.931  0.947
    eigenvectors:
  0.337  0.000  0.663
  0.495  0.252  0.253
  0.167  0.748  0.084
    occupations:
  0.912  0.042  0.025
  0.042  0.891 -0.023
  0.025 -0.023  0.917
atom    6   Tr[ns(na)] =   5.44014
    eigenvalues: 
  0.843  0.931  0.947
    eigenvectors:
  0.337  0.000  0.663
  0.000  1.000  0.000
  0.663  0.000  0.337
    occupations:
  0.912  0.000 -0.049
  0.000  0.931  0.000
 -0.049  0.000  0.878
atom    7   Tr[ns(na)] =   5.44014
    eigenvalues: 
  0.843  0.931  0.947
    eigenvectors:
  0.337  0.000  0.663
  0.499  0.248  0.253
  0.164  0.752  0.084
    occupations:
  0.912 -0.042  0.024
 -0.042  0.891  0.023
  0.024  0.023  0.918
atom    8   Tr[ns(na)] =   5.44014
    eigenvalues: 
  0.843  0.931  0.947
    eigenvectors:
  0.337  0.000  0.663
  0.000  1.000  0.000
  0.663  0.000  0.337
    occupations:
  0.912  0.000 -0.049
  0.000  0.931  0.000
 -0.049  0.000  0.878
atom    9   Tr[ns(na)] =   5.44014
    eigenvalues: 
  0.843  0.931  0.947
    eigenvectors:
  0.337  0.000  0.663
  0.495  0.252  0.253
  0.167  0.748  0.084
    occupations:
  0.912  0.042  0.025
  0.042  0.891 -0.023
  0.025 -0.023  0.917
atom   10   Tr[ns(na)] =   5.44014
    eigenvalues: 
  0.843  0.931  0.947
    eigenvectors:
  0.337  0.000  0.663
  0.499  0.248  0.253
  0.164  0.752  0.084
    occupations:
  0.912 -0.042  0.024
 -0.042  0.891  0.023
  0.024  0.023  0.918
N of occupied +U levels =  56.2905819
 --- exit write_ns ---
 --- in v_hubbard ---
Hubbard energy    0.3033
 -------

     total cpu time spent up to now is       54.5 secs

     total energy              =    -538.04347729 Ry
     Harris-Foulkes estimate   =    -538.04344538 Ry
     estimated scf accuracy    <       0.01442168 Ry

     iteration #  3     ecut=    30.00 Ry     beta=0.20
     Davidson diagonalization with overlap
     ethr =  1.90E-05,  avg # of iterations =  1.0
 --- enter write_ns ---
 LDA+U parameters:
U( 1)     =  3.00000000
alpha( 1) =  0.05000000
U( 2)     =  3.00000000
alpha( 2) =  0.00000000
U( 3)     =  0.00000000
alpha( 3) =  0.00000000
U( 4)     =  0.00000000
alpha( 4) =  0.00000000
atom    1   Tr[ns(na)] =   8.04482
    eigenvalues: 
  0.535  0.535  0.983  0.983  0.985
    eigenvectors:
  0.000  0.000  0.000  0.000  1.000
  0.332  0.324  0.004  0.340  0.000
  0.324  0.332  0.340  0.004  0.000
  0.287  0.058  0.515  0.141  0.000
  0.058  0.287  0.141  0.515  0.000
    occupations:
  0.985  0.000  0.000  0.000  0.000
  0.000  0.689  0.000 -0.077  0.198
  0.000  0.000  0.689  0.198  0.077
  0.000 -0.077  0.198  0.829  0.000
  0.000  0.198  0.077  0.000  0.829
atom    2   Tr[ns(na)] =   8.06739
    eigenvalues: 
  0.538  0.538  0.985  0.985  0.987
    eigenvectors:
  0.000  0.000  0.000  0.000  1.000
  0.638  0.018  0.221  0.123  0.000
  0.018  0.638  0.123  0.221  0.000
  0.014  0.330  0.471  0.185  0.000
  0.330  0.014  0.185  0.471  0.000
    occupations:
  0.987  0.000  0.000  0.000  0.000
  0.000  0.692  0.000  0.077  0.198
  0.000  0.000  0.692  0.198 -0.077
  0.000  0.077  0.198  0.831  0.000
  0.000  0.198 -0.077  0.000  0.831
atom    3   Tr[ns(na)] =   3.79333
    eigenvalues: 
  0.356  0.356  0.382  0.402  0.402
    eigenvectors:
  0.000  0.000  1.000  0.000  0.000
  0.781  0.139  0.000  0.012  0.068
  0.139  0.781  0.000  0.068  0.012
  0.013  0.067  0.000  0.779  0.141
  0.067  0.013  0.000  0.141  0.779
    occupations:
  0.382  0.000  0.000  0.000  0.000
  0.000  0.359  0.000  0.000  0.013
  0.000  0.000  0.359  0.013  0.000
  0.000  0.000  0.013  0.398  0.000
  0.000  0.013  0.000  0.000  0.398
atom    4   Tr[ns(na)] =   3.79333
    eigenvalues: 
  0.356  0.356  0.382  0.402  0.402
    eigenvectors:
  0.000  0.000  1.000  0.000  0.000
  0.781  0.139  0.000  0.012  0.068
  0.139  0.781  0.000  0.068  0.012
  0.013  0.067  0.000  0.779  0.141
  0.067  0.013  0.000  0.141  0.779
    occupations:
  0.382  0.000  0.000  0.000  0.000
  0.000  0.359  0.000  0.000  0.013
  0.000  0.000  0.359  0.013  0.000
  0.000  0.000  0.013  0.398  0.000
  0.000  0.013  0.000  0.000  0.398
atom    5   Tr[ns(na)] =   5.43254
    eigenvalues: 
  0.841  0.930  0.946
    eigenvectors:
  0.338  0.000  0.662
  0.499  0.247  0.254
  0.163  0.753  0.084
    occupations:
  0.910  0.043  0.025
  0.043  0.889 -0.023
  0.025 -0.023  0.916
atom    6   Tr[ns(na)] =   5.43254
    eigenvalues: 
  0.841  0.930  0.946
    eigenvectors:
  0.338  0.000  0.662
  0.000  1.000  0.000
  0.662  0.000  0.338
    occupations:
  0.910  0.000 -0.050
  0.000  0.930  0.000
 -0.050  0.000  0.876
atom    7   Tr[ns(na)] =   5.43254
    eigenvalues: 
  0.841  0.930  0.946
    eigenvectors:
  0.338  0.000  0.662
  0.494  0.253  0.253
  0.168  0.747  0.085
    occupations:
  0.910 -0.043  0.025
 -0.043  0.890  0.023
  0.025  0.023  0.916
atom    8   Tr[ns(na)] =   5.43254
    eigenvalues: 
  0.841  0.930  0.946
    eigenvectors:
  0.338  0.000  0.662
  0.000  1.000  0.000
  0.662  0.000  0.338
    occupations:
  0.910  0.000 -0.050
  0.000  0.930  0.000
 -0.050  0.000  0.876
atom    9   Tr[ns(na)] =   5.43254
    eigenvalues: 
  0.841  0.930  0.946
    eigenvectors:
  0.338  0.000  0.662
  0.499  0.247  0.254
  0.163  0.753  0.084
    occupations:
  0.910  0.043  0.025
  0.043  0.889 -0.023
  0.025 -0.023  0.916
atom   10   Tr[ns(na)] =   5.43254
    eigenvalues: 
  0.841  0.930  0.946
    eigenvectors:
  0.338  0.000  0.662
  0.494  0.253  0.253
  0.168  0.747  0.085
    occupations:
  0.910 -0.043  0.025
 -0.043  0.890  0.023
  0.025  0.023  0.916
N of occupied +U levels =  56.2941163
 --- exit write_ns ---
 --- in v_hubbard ---
Hubbard energy    0.2923
 -------

     total cpu time spent up to now is       66.0 secs

     total energy              =    -538.04489850 Ry
     Harris-Foulkes estimate   =    -538.04379570 Ry
     estimated scf accuracy    <       0.00778272 Ry

     iteration #  4     ecut=    30.00 Ry     beta=0.20
     Davidson diagonalization with overlap
     ethr =  1.02E-05,  avg # of iterations =  1.0
 --- enter write_ns ---
 LDA+U parameters:
U( 1)     =  3.00000000
alpha( 1) =  0.05000000
U( 2)     =  3.00000000
alpha( 2) =  0.00000000
U( 3)     =  0.00000000
alpha( 3) =  0.00000000
U( 4)     =  0.00000000
alpha( 4) =  0.00000000
atom    1   Tr[ns(na)] =   8.09643
    eigenvalues: 
  0.543  0.543  0.987  0.987  0.989
    eigenvectors:
  0.000  0.000  0.000  0.000  1.000
  0.335  0.322  0.004  0.340  0.000
  0.322  0.335  0.340  0.004  0.000
  0.286  0.057  0.517  0.140  0.000
  0.057  0.286  0.140  0.517  0.000
    occupations:
  0.989  0.000  0.000  0.000  0.000
  0.000  0.695  0.000 -0.077  0.196
  0.000  0.000  0.695  0.196  0.077
  0.000 -0.077  0.196  0.834  0.000
  0.000  0.196  0.077  0.000  0.834
atom    2   Tr[ns(na)] =   8.02159
    eigenvalues: 
  0.529  0.529  0.984  0.984  0.986
    eigenvectors:
  0.000  0.000  0.000  0.000  1.000
  0.637  0.020  0.218  0.125  0.000
  0.020  0.637  0.125  0.218  0.000
  0.012  0.331  0.471  0.185  0.000
  0.331  0.012  0.185  0.471  0.000
    occupations:
  0.986  0.000  0.000  0.000  0.000
  0.000  0.685  0.000  0.077  0.202
  0.000  0.000  0.685  0.202 -0.077
  0.000  0.077  0.202  0.828  0.000
  0.000  0.202 -0.077  0.000  0.828
atom    3   Tr[ns(na)] =   3.79439
    eigenvalues: 
  0.356  0.356  0.382  0.402  0.402
    eigenvectors:
  0.000  0.000  1.000  0.000  0.000
  0.782  0.139  0.000  0.011  0.068
  0.139  0.782  0.000  0.068  0.011
  0.013  0.067  0.000  0.780  0.141
  0.067  0.013  0.000  0.141  0.780
    occupations:
  0.382  0.000  0.000  0.000  0.000
  0.000  0.359  0.000  0.000  0.012
  0.000  0.000  0.359  0.012  0.000
  0.000  0.000  0.012  0.398  0.000
  0.000  0.012  0.000  0.000  0.398
atom    4   Tr[ns(na)] =   3.79439
    eigenvalues: 
  0.356  0.356  0.382  0.402  0.402
    eigenvectors:
  0.000  0.000  1.000  0.000  0.000
  0.782  0.139  0.000  0.011  0.068
  0.139  0.782  0.000  0.068  0.011
  0.013  0.067  0.000  0.780  0.141
  0.067  0.013  0.000  0.141  0.780
    occupations:
  0.382  0.000  0.000  0.000  0.000
  0.000  0.359  0.000  0.000  0.012
  0.000  0.000  0.359  0.012  0.000
  0.000  0.000  0.012  0.398  0.000
  0.000  0.012  0.000  0.000  0.398
atom    5   Tr[ns(na)] =   5.43096
    eigenvalues: 
  0.840  0.929  0.946
    eigenvectors:
  0.338  0.000  0.662
  0.491  0.257  0.253
  0.172  0.743  0.085
    occupations:
  0.910  0.043  0.025
  0.043  0.890 -0.024
  0.025 -0.024  0.916
atom    6   Tr[ns(na)] =   5.43096
    eigenvalues: 
  0.840  0.929  0.946
    eigenvectors:
  0.338  0.000  0.662
  0.000  1.000  0.000
  0.662  0.000  0.338
    occupations:
  0.910  0.000 -0.050
  0.000  0.929  0.001
 -0.050  0.001  0.876
atom    7   Tr[ns(na)] =   5.43096
    eigenvalues: 
  0.840  0.929  0.946
    eigenvectors:
  0.338  0.000  0.662
  0.503  0.243  0.254
  0.160  0.757  0.084
    occupations:
  0.910 -0.044  0.025
 -0.044  0.889  0.023
  0.025  0.023  0.917
atom    8   Tr[ns(na)] =   5.43096
    eigenvalues: 
  0.840  0.929  0.946
    eigenvectors:
  0.338  0.000  0.662
  0.000  1.000  0.000
  0.662  0.000  0.338
    occupations:
  0.910  0.000 -0.050
  0.000  0.929  0.001
 -0.050  0.001  0.876
atom    9   Tr[ns(na)] =   5.43096
    eigenvalues: 
  0.840  0.929  0.946
    eigenvectors:
  0.338  0.000  0.662
  0.491  0.257  0.253
  0.172  0.743  0.085
    occupations:
  0.910  0.043  0.025
  0.043  0.890 -0.024
  0.025 -0.024  0.916
atom   10   Tr[ns(na)] =   5.43096
    eigenvalues: 
  0.840  0.929  0.946
    eigenvectors:
  0.338  0.000  0.662
  0.503  0.243  0.254
  0.160  0.757  0.084
    occupations:
  0.910 -0.044  0.025
 -0.044  0.889  0.023
  0.025  0.023  0.917
N of occupied +U levels =  56.2925734
 --- exit write_ns ---
 --- in v_hubbard ---
Hubbard energy    0.2649
 -------

     total cpu time spent up to now is       78.7 secs

     total energy              =    -538.04561583 Ry
     Harris-Foulkes estimate   =    -538.04533733 Ry
     estimated scf accuracy    <       0.00740033 Ry

     iteration #  5     ecut=    30.00 Ry     beta=0.20
     Davidson diagonalization with overlap
     ethr =  9.74E-06,  avg # of iterations =  1.0
 --- enter write_ns ---
 LDA+U parameters:
U( 1)     =  3.00000000
alpha( 1) =  0.05000000
U( 2)     =  3.00000000
alpha( 2) =  0.00000000
U( 3)     =  0.00000000
alpha( 3) =  0.00000000
U( 4)     =  0.00000000
alpha( 4) =  0.00000000
atom    1   Tr[ns(na)] =   8.05332
    eigenvalues: 
  0.532  0.532  0.987  0.987  0.989
    eigenvectors:
  0.000  0.000  0.000  0.000  1.000
  0.337  0.322  0.004  0.337  0.000
  0.322  0.337  0.337  0.004  0.000
  0.284  0.058  0.518  0.141  0.000
  0.058  0.284  0.141  0.518  0.000
    occupations:
  0.989  0.000  0.000  0.000  0.000
  0.000  0.687  0.000 -0.079  0.201
  0.000  0.000  0.687  0.201  0.079
  0.000 -0.079  0.201  0.832  0.000
  0.000  0.201  0.079  0.000  0.832
atom    2   Tr[ns(na)] =   8.05736
    eigenvalues: 
  0.532  0.532  0.988  0.988  0.990
    eigenvectors:
  0.000  0.000  0.000  0.000  1.000
  0.639  0.019  0.219  0.122  0.000
  0.019  0.639  0.122  0.219  0.000
  0.013  0.328  0.474  0.185  0.000
  0.328  0.013  0.185  0.474  0.000
    occupations:
  0.990  0.000  0.000  0.000  0.000
  0.000  0.687  0.000  0.078  0.201
  0.000  0.000  0.687  0.201 -0.078
  0.000  0.078  0.201  0.832  0.000
  0.000  0.201 -0.078  0.000  0.832
atom    3   Tr[ns(na)] =   3.79662
    eigenvalues: 
  0.356  0.356  0.382  0.402  0.402
    eigenvectors:
  0.000  0.000  1.000  0.000  0.000
  0.783  0.138  0.000  0.011  0.067
  0.138  0.783  0.000  0.067  0.011
  0.012  0.066  0.000  0.781  0.140
  0.066  0.012  0.000  0.140  0.781
    occupations:
  0.382  0.000  0.000  0.000  0.000
  0.000  0.360  0.000  0.000  0.012
  0.000  0.000  0.360  0.012  0.000
  0.000  0.000  0.012  0.398  0.000
  0.000  0.012  0.000  0.000  0.398
atom    4   Tr[ns(na)] =   3.79662
    eigenvalues: 
  0.356  0.356  0.382  0.402  0.402
    eigenvectors:
  0.000  0.000  1.000  0.000  0.000
  0.783  0.139  0.000  0.011  0.067
  0.139  0.783  0.000  0.067  0.011
  0.012  0.066  0.000  0.781  0.140
  0.066  0.012  0.000  0.140  0.781
    occupations:
  0.382  0.000  0.000  0.000  0.000
  0.000  0.360  0.000  0.000  0.012
  0.000  0.000  0.360  0.012  0.000
  0.000  0.000  0.012  0.398  0.000
  0.000  0.012  0.000  0.000  0.398
atom    5   Tr[ns(na)] =   5.43081
    eigenvalues: 
  0.840  0.930  0.946
    eigenvectors:
  0.338  0.000  0.662
  0.498  0.249  0.254
  0.165  0.751  0.084
    occupations:
  0.910  0.043  0.025
  0.043  0.889 -0.023
  0.025 -0.023  0.916
atom    6   Tr[ns(na)] =   5.43081
    eigenvalues: 
  0.840  0.930  0.946
    eigenvectors:
  0.338  0.000  0.662
  0.000  1.000  0.000
  0.662  0.000  0.338
    occupations:
  0.910  0.000 -0.050
  0.000  0.930  0.000
 -0.050  0.000  0.876
atom    7   Tr[ns(na)] =   5.43081
    eigenvalues: 
  0.840  0.930  0.946
    eigenvectors:
  0.338  0.000  0.662
  0.496  0.251  0.253
  0.166  0.749  0.085
    occupations:
  0.910 -0.043  0.025
 -0.043  0.889  0.023
  0.025  0.023  0.916
atom    8   Tr[ns(na)] =   5.43081
    eigenvalues: 
  0.840  0.930  0.946
    eigenvectors:
  0.338  0.000  0.662
  0.000  1.000  0.000
  0.662  0.000  0.338
    occupations:
  0.910  0.000 -0.050
  0.000  0.930  0.000
 -0.050  0.000  0.876
atom    9   Tr[ns(na)] =   5.43081
    eigenvalues: 
  0.840  0.930  0.946
    eigenvectors:
  0.338  0.000  0.662
  0.498  0.249  0.254
  0.165  0.751  0.084
    occupations:
  0.910  0.043  0.025
  0.043  0.889 -0.023
  0.025 -0.023  0.916
atom   10   Tr[ns(na)] =   5.43081
    eigenvalues: 
  0.840  0.930  0.946
    eigenvectors:
  0.338  0.000  0.662
  0.496  0.251  0.253
  0.166  0.749  0.085
    occupations:
  0.910 -0.043  0.025
 -0.043  0.889  0.023
  0.025  0.023  0.916
N of occupied +U levels =  56.2887458
 --- exit write_ns ---
 --- in v_hubbard ---
Hubbard energy    0.2642
 -------

     total cpu time spent up to now is       95.0 secs

     total energy              =    -538.04616010 Ry
     Harris-Foulkes estimate   =    -538.04608874 Ry
     estimated scf accuracy    <       0.00008681 Ry

     iteration #  6     ecut=    30.00 Ry     beta=0.20
     Davidson diagonalization with overlap
     ethr =  1.14E-07,  avg # of iterations =  2.9
 --- enter write_ns ---
 LDA+U parameters:
U( 1)     =  3.00000000
alpha( 1) =  0.05000000
U( 2)     =  3.00000000
alpha( 2) =  0.00000000
U( 3)     =  0.00000000
alpha( 3) =  0.00000000
U( 4)     =  0.00000000
alpha( 4) =  0.00000000
atom    1   Tr[ns(na)] =   8.04741
    eigenvalues: 
  0.530  0.530  0.987  0.987  0.989
    eigenvectors:
  0.000  0.000  0.000  0.000  1.000
  0.336  0.322  0.004  0.338  0.000
  0.322  0.336  0.338  0.004  0.000
  0.284  0.057  0.518  0.141  0.000
  0.057  0.284  0.141  0.518  0.000
    occupations:
  0.989  0.000  0.000  0.000  0.000
  0.000  0.686  0.000 -0.079  0.202
  0.000  0.000  0.686  0.202  0.079
  0.000 -0.079  0.202  0.831  0.000
  0.000  0.202  0.079  0.000  0.831
atom    2   Tr[ns(na)] =   8.05255
    eigenvalues: 
  0.530  0.530  0.988  0.988  0.990
    eigenvectors:
  0.000  0.000  0.000  0.000  1.000
  0.639  0.019  0.219  0.122  0.000
  0.019  0.639  0.122  0.219  0.000
  0.013  0.328  0.474  0.185  0.000
  0.328  0.013  0.185  0.474  0.000
    occupations:
  0.990  0.000  0.000  0.000  0.000
  0.000  0.687  0.000  0.079  0.202
  0.000  0.000  0.687  0.202 -0.079
  0.000  0.079  0.202  0.832  0.000
  0.000  0.202 -0.079  0.000  0.832
atom    3   Tr[ns(na)] =   3.79593
    eigenvalues: 
  0.356  0.356  0.382  0.402  0.402
    eigenvectors:
  0.000  0.000  1.000  0.000  0.000
  0.783  0.138  0.000  0.011  0.067
  0.138  0.783  0.000  0.067  0.011
  0.012  0.066  0.000  0.781  0.140
  0.066  0.012  0.000  0.140  0.781
    occupations:
  0.382  0.000  0.000  0.000  0.000
  0.000  0.360  0.000  0.000  0.012
  0.000  0.000  0.360  0.012  0.000
  0.000  0.000  0.012  0.398  0.000
  0.000  0.012  0.000  0.000  0.398
atom    4   Tr[ns(na)] =   3.79593
    eigenvalues: 
  0.356  0.356  0.382  0.402  0.402
    eigenvectors:
  0.000  0.000  1.000  0.000  0.000
  0.783  0.139  0.000  0.011  0.067
  0.139  0.783  0.000  0.067  0.011
  0.012  0.066  0.000  0.781  0.140
  0.066  0.012  0.000  0.140  0.781
    occupations:
  0.382  0.000  0.000  0.000  0.000
  0.000  0.360  0.000  0.000  0.012
  0.000  0.000  0.360  0.012  0.000
  0.000  0.000  0.012  0.398  0.000
  0.000  0.012  0.000  0.000  0.398
atom    5   Tr[ns(na)] =   5.43253
    eigenvalues: 
  0.840  0.930  0.946
    eigenvectors:
  0.338  0.000  0.662
  0.498  0.249  0.254
  0.165  0.751  0.084
    occupations:
  0.910  0.043  0.025
  0.043  0.889 -0.023
  0.025 -0.023  0.916
atom    6   Tr[ns(na)] =   5.43253
    eigenvalues: 
  0.840  0.930  0.946
    eigenvectors:
  0.338  0.000  0.662
  0.000  1.000  0.000
  0.662  0.000  0.338
    occupations:
  0.910  0.000 -0.050
  0.000  0.930  0.000
 -0.050  0.000  0.876
atom    7   Tr[ns(na)] =   5.43253
    eigenvalues: 
  0.840  0.930  0.946
    eigenvectors:
  0.338  0.000  0.662
  0.496  0.251  0.253
  0.166  0.749  0.085
    occupations:
  0.910 -0.043  0.025
 -0.043  0.890  0.023
  0.025  0.023  0.916
atom    8   Tr[ns(na)] =   5.43253
    eigenvalues: 
  0.840  0.930  0.946
    eigenvectors:
  0.338  0.000  0.662
  0.000  1.000  0.000
  0.662  0.000  0.338
    occupations:
  0.910  0.000 -0.050
  0.000  0.930  0.000
 -0.050  0.000  0.876
atom    9   Tr[ns(na)] =   5.43253
    eigenvalues: 
  0.840  0.930  0.946
    eigenvectors:
  0.338  0.000  0.662
  0.498  0.249  0.254
  0.165  0.751  0.084
    occupations:
  0.910  0.043  0.025
  0.043  0.889 -0.023
  0.025 -0.023  0.916
atom   10   Tr[ns(na)] =   5.43253
    eigenvalues: 
  0.840  0.930  0.946
    eigenvectors:
  0.338  0.000  0.662
  0.496  0.251  0.253
  0.166  0.749  0.085
    occupations:
  0.910 -0.043  0.025
 -0.043  0.890  0.023
  0.025  0.023  0.916
N of occupied +U levels =  56.2870231
 --- exit write_ns ---
 --- in v_hubbard ---
Hubbard energy    0.2641
 -------

     total cpu time spent up to now is      113.7 secs

     total energy              =    -538.04622989 Ry
     Harris-Foulkes estimate   =    -538.04617865 Ry
     estimated scf accuracy    <       0.00002673 Ry

     iteration #  7     ecut=    30.00 Ry     beta=0.20
     Davidson diagonalization with overlap
     ethr =  3.52E-08,  avg # of iterations =  2.0
 --- enter write_ns ---
 LDA+U parameters:
U( 1)     =  3.00000000
alpha( 1) =  0.05000000
U( 2)     =  3.00000000
alpha( 2) =  0.00000000
U( 3)     =  0.00000000
alpha( 3) =  0.00000000
U( 4)     =  0.00000000
alpha( 4) =  0.00000000
atom    1   Tr[ns(na)] =   8.04649
    eigenvalues: 
  0.530  0.530  0.987  0.987  0.989
    eigenvectors:
  0.000  0.000  0.000  0.000  1.000
  0.335  0.323  0.004  0.338  0.000
  0.323  0.335  0.338  0.004  0.000
  0.285  0.057  0.517  0.141  0.000
  0.057  0.285  0.141  0.517  0.000
    occupations:
  0.989  0.000  0.000  0.000  0.000
  0.000  0.686  0.000 -0.079  0.202
  0.000  0.000  0.686  0.202  0.079
  0.000 -0.079  0.202  0.831  0.000
  0.000  0.202  0.079  0.000  0.831
atom    2   Tr[ns(na)] =   8.04927
    eigenvalues: 
  0.530  0.530  0.988  0.988  0.990
    eigenvectors:
  0.000  0.000  0.000  0.000  1.000
  0.639  0.019  0.220  0.122  0.000
  0.019  0.639  0.122  0.220  0.000
  0.014  0.328  0.473  0.185  0.000
  0.328  0.014  0.185  0.473  0.000
    occupations:
  0.990  0.000  0.000  0.000  0.000
  0.000  0.686  0.000  0.079  0.203
  0.000  0.000  0.686  0.203 -0.079
  0.000  0.079  0.203  0.831  0.000
  0.000  0.203 -0.079  0.000  0.831
atom    3   Tr[ns(na)] =   3.79417
    eigenvalues: 
  0.356  0.356  0.382  0.402  0.402
    eigenvectors:
  0.000  0.000  1.000  0.000  0.000
  0.782  0.139  0.000  0.012  0.067
  0.139  0.782  0.000  0.067  0.012
  0.012  0.067  0.000  0.780  0.141
  0.067  0.012  0.000  0.141  0.780
    occupations:
  0.382  0.000  0.000  0.000  0.000
  0.000  0.359  0.000  0.000  0.012
  0.000  0.000  0.359  0.012  0.000
  0.000  0.000  0.012  0.398  0.000
  0.000  0.012  0.000  0.000  0.398
atom    4   Tr[ns(na)] =   3.79417
    eigenvalues: 
  0.356  0.356  0.382  0.402  0.402
    eigenvectors:
  0.000  0.000  1.000  0.000  0.000
  0.782  0.139  0.000  0.012  0.067
  0.139  0.782  0.000  0.067  0.012
  0.012  0.067  0.000  0.780  0.141
  0.067  0.012  0.000  0.141  0.780
    occupations:
  0.382  0.000  0.000  0.000  0.000
  0.000  0.359  0.000  0.000  0.012
  0.000  0.000  0.359  0.012  0.000
  0.000  0.000  0.012  0.398  0.000
  0.000  0.012  0.000  0.000  0.398
atom    5   Tr[ns(na)] =   5.43354
    eigenvalues: 
  0.841  0.930  0.946
    eigenvectors:
  0.338  0.000  0.662
  0.497  0.249  0.254
  0.165  0.751  0.084
    occupations:
  0.911  0.043  0.025
  0.043  0.890 -0.023
  0.025 -0.023  0.917
atom    6   Tr[ns(na)] =   5.43354
    eigenvalues: 
  0.841  0.930  0.946
    eigenvectors:
  0.338  0.000  0.662
  0.000  1.000  0.000
  0.662  0.000  0.338
    occupations:
  0.911  0.000 -0.050
  0.000  0.930  0.000
 -0.050  0.000  0.876
atom    7   Tr[ns(na)] =   5.43354
    eigenvalues: 
  0.841  0.930  0.946
    eigenvectors:
  0.338  0.000  0.662
  0.496  0.251  0.253
  0.166  0.749  0.085
    occupations:
  0.911 -0.043  0.025
 -0.043  0.890  0.023
  0.025  0.023  0.916
atom    8   Tr[ns(na)] =   5.43354
    eigenvalues: 
  0.841  0.930  0.946
    eigenvectors:
  0.338  0.000  0.662
  0.000  1.000  0.000
  0.662  0.000  0.338
    occupations:
  0.911  0.000 -0.050
  0.000  0.930  0.000
 -0.050  0.000  0.876
atom    9   Tr[ns(na)] =   5.43354
    eigenvalues: 
  0.841  0.930  0.946
    eigenvectors:
  0.338  0.000  0.662
  0.497  0.249  0.254
  0.165  0.751  0.084
    occupations:
  0.911  0.043  0.025
  0.043  0.890 -0.023
  0.025 -0.023  0.917
atom   10   Tr[ns(na)] =   5.43354
    eigenvalues: 
  0.841  0.930  0.946
    eigenvectors:
  0.338  0.000  0.662
  0.496  0.251  0.253
  0.166  0.749  0.085
    occupations:
  0.911 -0.043  0.025
 -0.043  0.890  0.023
  0.025  0.023  0.916
N of occupied +U levels =  56.2853559
 --- exit write_ns ---
 --- in v_hubbard ---
Hubbard energy    0.2645
 -------

     total cpu time spent up to now is      131.0 secs

     total energy              =    -538.04628552 Ry
     Harris-Foulkes estimate   =    -538.04623519 Ry
     estimated scf accuracy    <       0.00001892 Ry

     iteration #  8     ecut=    30.00 Ry     beta=0.20
     Davidson diagonalization with overlap
     ethr =  2.49E-08,  avg # of iterations =  1.0
 --- enter write_ns ---
 LDA+U parameters:
U( 1)     =  3.00000000
alpha( 1) =  0.05000000
U( 2)     =  3.00000000
alpha( 2) =  0.00000000
U( 3)     =  0.00000000
alpha( 3) =  0.00000000
U( 4)     =  0.00000000
alpha( 4) =  0.00000000
atom    1   Tr[ns(na)] =   8.04799
    eigenvalues: 
  0.530  0.530  0.987  0.987  0.989
    eigenvectors:
  0.000  0.000  0.000  0.000  1.000
  0.335  0.323  0.004  0.338  0.000
  0.323  0.335  0.338  0.004  0.000
  0.285  0.057  0.517  0.141  0.000
  0.057  0.285  0.141  0.517  0.000
    occupations:
  0.989  0.000  0.000  0.000  0.000
  0.000  0.687  0.000 -0.079  0.202
  0.000  0.000  0.687  0.202  0.079
  0.000 -0.079  0.202  0.831  0.000
  0.000  0.202  0.079  0.000  0.831
atom    2   Tr[ns(na)] =   8.05293
    eigenvalues: 
  0.530  0.530  0.988  0.988  0.990
    eigenvectors:
  0.000  0.000  0.000  0.000  1.000
  0.639  0.019  0.220  0.122  0.000
  0.019  0.639  0.122  0.220  0.000
  0.014  0.328  0.473  0.185  0.000
  0.328  0.014  0.185  0.473  0.000
    occupations:
  0.990  0.000  0.000  0.000  0.000
  0.000  0.687  0.000  0.079  0.202
  0.000  0.000  0.687  0.202 -0.079
  0.000  0.079  0.202  0.831  0.000
  0.000  0.202 -0.079  0.000  0.831
atom    3   Tr[ns(na)] =   3.79472
    eigenvalues: 
  0.356  0.356  0.382  0.402  0.402
    eigenvectors:
  0.000  0.000  1.000  0.000  0.000
  0.782  0.139  0.000  0.012  0.067
  0.139  0.782  0.000  0.067  0.012
  0.012  0.067  0.000  0.781  0.141
  0.067  0.012  0.000  0.141  0.781
    occupations:
  0.382  0.000  0.000  0.000  0.000
  0.000  0.360  0.000  0.000  0.012
  0.000  0.000  0.360  0.012  0.000
  0.000  0.000  0.012  0.398  0.000
  0.000  0.012  0.000  0.000  0.398
atom    4   Tr[ns(na)] =   3.79472
    eigenvalues: 
  0.356  0.356  0.382  0.402  0.402
    eigenvectors:
  0.000  0.000  1.000  0.000  0.000
  0.782  0.139  0.000  0.012  0.067
  0.139  0.782  0.000  0.067  0.012
  0.012  0.067  0.000  0.780  0.141
  0.067  0.012  0.000  0.141  0.780
    occupations:
  0.382  0.000  0.000  0.000  0.000
  0.000  0.360  0.000  0.000  0.012
  0.000  0.000  0.360  0.012  0.000
  0.000  0.000  0.012  0.398  0.000
  0.000  0.012  0.000  0.000  0.398
atom    5   Tr[ns(na)] =   5.43263
    eigenvalues: 
  0.840  0.930  0.946
    eigenvectors:
  0.338  0.000  0.662
  0.497  0.249  0.254
  0.165  0.751  0.084
    occupations:
  0.910  0.043  0.025
  0.043  0.889 -0.023
  0.025 -0.023  0.916
atom    6   Tr[ns(na)] =   5.43263
    eigenvalues: 
  0.840  0.930  0.946
    eigenvectors:
  0.338  0.000  0.662
  0.000  1.000  0.000
  0.662  0.000  0.338
    occupations:
  0.910  0.000 -0.050
  0.000  0.930  0.000
 -0.050  0.000  0.876
atom    7   Tr[ns(na)] =   5.43263
    eigenvalues: 
  0.840  0.930  0.946
    eigenvectors:
  0.338  0.000  0.662
  0.496  0.251  0.253
  0.166  0.749  0.085
    occupations:
  0.910 -0.043  0.025
 -0.043  0.890  0.023
  0.025  0.023  0.916
atom    8   Tr[ns(na)] =   5.43263
    eigenvalues: 
  0.840  0.930  0.946
    eigenvectors:
  0.338  0.000  0.662
  0.000  1.000  0.000
  0.662  0.000  0.338
    occupations:
  0.910  0.000 -0.050
  0.000  0.930  0.000
 -0.050  0.000  0.876
atom    9   Tr[ns(na)] =   5.43263
    eigenvalues: 
  0.840  0.930  0.946
    eigenvectors:
  0.338  0.000  0.662
  0.497  0.249  0.254
  0.165  0.751  0.084
    occupations:
  0.910  0.043  0.025
  0.043  0.889 -0.023
  0.025 -0.023  0.916
atom   10   Tr[ns(na)] =   5.43263
    eigenvalues: 
  0.840  0.930  0.946
    eigenvectors:
  0.338  0.000  0.662
  0.496  0.251  0.253
  0.166  0.749  0.085
    occupations:
  0.910 -0.043  0.025
 -0.043  0.890  0.023
  0.025  0.023  0.916
N of occupied +U levels =  56.2861304
 --- exit write_ns ---
 --- in v_hubbard ---
Hubbard energy    0.2647
 -------

     total cpu time spent up to now is      146.3 secs

     total energy              =    -538.04631759 Ry
     Harris-Foulkes estimate   =    -538.04628781 Ry
     estimated scf accuracy    <       0.00000126 Ry

     iteration #  9     ecut=    30.00 Ry     beta=0.20
     Davidson diagonalization with overlap
     ethr =  1.66E-09,  avg # of iterations =  2.1
 --- enter write_ns ---
 LDA+U parameters:
U( 1)     =  3.00000000
alpha( 1) =  0.05000000
U( 2)     =  3.00000000
alpha( 2) =  0.00000000
U( 3)     =  0.00000000
alpha( 3) =  0.00000000
U( 4)     =  0.00000000
alpha( 4) =  0.00000000
atom    1   Tr[ns(na)] =   8.04804
    eigenvalues: 
  0.530  0.530  0.987  0.987  0.989
    eigenvectors:
  0.000  0.000  0.000  0.000  1.000
  0.335  0.322  0.004  0.338  0.000
  0.322  0.335  0.338  0.004  0.000
  0.285  0.057  0.517  0.141  0.000
  0.057  0.285  0.141  0.517  0.000
    occupations:
  0.989  0.000  0.000  0.000  0.000
  0.000  0.687  0.000 -0.079  0.202
  0.000  0.000  0.687  0.202  0.079
  0.000 -0.079  0.202  0.831  0.000
  0.000  0.202  0.079  0.000  0.831
atom    2   Tr[ns(na)] =   8.05221
    eigenvalues: 
  0.530  0.530  0.988  0.988  0.990
    eigenvectors:
  0.000  0.000  0.000  0.000  1.000
  0.639  0.019  0.220  0.122  0.000
  0.019  0.639  0.122  0.220  0.000
  0.014  0.328  0.473  0.185  0.000
  0.328  0.014  0.185  0.473  0.000
    occupations:
  0.990  0.000  0.000  0.000  0.000
  0.000  0.687  0.000  0.079  0.202
  0.000  0.000  0.687  0.202 -0.079
  0.000  0.079  0.202  0.831  0.000
  0.000  0.202 -0.079  0.000  0.831
atom    3   Tr[ns(na)] =   3.79517
    eigenvalues: 
  0.356  0.356  0.382  0.402  0.402
    eigenvectors:
  0.000  0.000  1.000  0.000  0.000
  0.782  0.139  0.000  0.012  0.067
  0.139  0.782  0.000  0.067  0.012
  0.012  0.067  0.000  0.780  0.141
  0.067  0.012  0.000  0.141  0.780
    occupations:
  0.382  0.000  0.000  0.000  0.000
  0.000  0.360  0.000  0.000  0.012
  0.000  0.000  0.360  0.012  0.000
  0.000  0.000  0.012  0.398  0.000
  0.000  0.012  0.000  0.000  0.398
atom    4   Tr[ns(na)] =   3.79517
    eigenvalues: 
  0.356  0.356  0.382  0.402  0.402
    eigenvectors:
  0.000  0.000  1.000  0.000  0.000
  0.782  0.139  0.000  0.012  0.067
  0.139  0.782  0.000  0.067  0.012
  0.012  0.067  0.000  0.780  0.141
  0.067  0.012  0.000  0.141  0.780
    occupations:
  0.382  0.000  0.000  0.000  0.000
  0.000  0.360  0.000  0.000  0.012
  0.000  0.000  0.360  0.012  0.000
  0.000  0.000  0.012  0.398  0.000
  0.000  0.012  0.000  0.000  0.398
atom    5   Tr[ns(na)] =   5.43261
    eigenvalues: 
  0.840  0.930  0.946
    eigenvectors:
  0.338  0.000  0.662
  0.497  0.249  0.254
  0.165  0.751  0.084
    occupations:
  0.910  0.043  0.025
  0.043  0.889 -0.023
  0.025 -0.023  0.916
atom    6   Tr[ns(na)] =   5.43261
    eigenvalues: 
  0.840  0.930  0.946
    eigenvectors:
  0.338  0.000  0.662
  0.000  1.000  0.000
  0.662  0.000  0.338
    occupations:
  0.910  0.000 -0.050
  0.000  0.930  0.000
 -0.050  0.000  0.876
atom    7   Tr[ns(na)] =   5.43261
    eigenvalues: 
  0.840  0.930  0.946
    eigenvectors:
  0.338  0.000  0.662
  0.496  0.251  0.253
  0.166  0.749  0.085
    occupations:
  0.910 -0.043  0.025
 -0.043  0.890  0.023
  0.025  0.023  0.916
atom    8   Tr[ns(na)] =   5.43261
    eigenvalues: 
  0.840  0.930  0.946
    eigenvectors:
  0.338  0.000  0.662
  0.000  1.000  0.000
  0.662  0.000  0.338
    occupations:
  0.910  0.000 -0.050
  0.000  0.930  0.000
 -0.050  0.000  0.876
atom    9   Tr[ns(na)] =   5.43261
    eigenvalues: 
  0.840  0.930  0.946
    eigenvectors:
  0.338  0.000  0.662
  0.497  0.249  0.254
  0.165  0.751  0.084
    occupations:
  0.910  0.043  0.025
  0.043  0.889 -0.023
  0.025 -0.023  0.916
atom   10   Tr[ns(na)] =   5.43261
    eigenvalues: 
  0.840  0.930  0.946
    eigenvectors:
  0.338  0.000  0.662
  0.496  0.251  0.253
  0.166  0.749  0.085
    occupations:
  0.910 -0.043  0.025
 -0.043  0.890  0.023
  0.025  0.023  0.916
N of occupied +U levels =  56.2862728
 --- exit write_ns ---
 --- in v_hubbard ---
Hubbard energy    0.2647
 -------

     total cpu time spent up to now is      165.7 secs

     total energy              =    -538.04633837 Ry
     Harris-Foulkes estimate   =    -538.04631786 Ry
     estimated scf accuracy    <       0.00000023 Ry

     iteration # 10     ecut=    30.00 Ry     beta=0.20
     Davidson diagonalization with overlap
     ethr =  3.00E-10,  avg # of iterations =  2.1
 --- enter write_ns ---
 LDA+U parameters:
U( 1)     =  3.00000000
alpha( 1) =  0.05000000
U( 2)     =  3.00000000
alpha( 2) =  0.00000000
U( 3)     =  0.00000000
alpha( 3) =  0.00000000
U( 4)     =  0.00000000
alpha( 4) =  0.00000000
atom    1   Tr[ns(na)] =   8.04850
    eigenvalues: 
  0.531  0.531  0.987  0.987  0.989
    eigenvectors:
  0.000  0.000  0.000  0.000  1.000
  0.336  0.322  0.004  0.338  0.000
  0.322  0.336  0.338  0.004  0.000
  0.285  0.057  0.517  0.141  0.000
  0.057  0.285  0.141  0.517  0.000
    occupations:
  0.989  0.000  0.000  0.000  0.000
  0.000  0.687  0.000 -0.079  0.202
  0.000  0.000  0.687  0.202  0.079
  0.000 -0.079  0.202  0.831  0.000
  0.000  0.202  0.079  0.000  0.831
atom    2   Tr[ns(na)] =   8.05231
    eigenvalues: 
  0.530  0.530  0.988  0.988  0.990
    eigenvectors:
  0.000  0.000  0.000  0.000  1.000
  0.639  0.019  0.220  0.122  0.000
  0.019  0.639  0.122  0.220  0.000
  0.014  0.328  0.473  0.185  0.000
  0.328  0.014  0.185  0.473  0.000
    occupations:
  0.990  0.000  0.000  0.000  0.000
  0.000  0.687  0.000  0.079  0.202
  0.000  0.000  0.687  0.202 -0.079
  0.000  0.079  0.202  0.831  0.000
  0.000  0.202 -0.079  0.000  0.831
atom    3   Tr[ns(na)] =   3.79493
    eigenvalues: 
  0.356  0.356  0.382  0.402  0.402
    eigenvectors:
  0.000  0.000  1.000  0.000  0.000
  0.782  0.139  0.000  0.012  0.067
  0.139  0.782  0.000  0.067  0.012
  0.012  0.067  0.000  0.780  0.141
  0.067  0.012  0.000  0.141  0.780
    occupations:
  0.382  0.000  0.000  0.000  0.000
  0.000  0.360  0.000  0.000  0.012
  0.000  0.000  0.360  0.012  0.000
  0.000  0.000  0.012  0.398  0.000
  0.000  0.012  0.000  0.000  0.398
atom    4   Tr[ns(na)] =   3.79493
    eigenvalues: 
  0.356  0.356  0.382  0.402  0.402
    eigenvectors:
  0.000  0.000  1.000  0.000  0.000
  0.782  0.139  0.000  0.012  0.067
  0.139  0.782  0.000  0.067  0.012
  0.012  0.067  0.000  0.780  0.141
  0.067  0.012  0.000  0.141  0.780
    occupations:
  0.382  0.000  0.000  0.000  0.000
  0.000  0.360  0.000  0.000  0.012
  0.000  0.000  0.360  0.012  0.000
  0.000  0.000  0.012  0.398  0.000
  0.000  0.012  0.000  0.000  0.398
atom    5   Tr[ns(na)] =   5.43258
    eigenvalues: 
  0.840  0.930  0.946
    eigenvectors:
  0.338  0.000  0.662
  0.497  0.249  0.254
  0.165  0.751  0.084
    occupations:
  0.910  0.043  0.025
  0.043  0.889 -0.023
  0.025 -0.023  0.916
atom    6   Tr[ns(na)] =   5.43258
    eigenvalues: 
  0.840  0.930  0.946
    eigenvectors:
  0.338  0.000  0.662
  0.000  1.000  0.000
  0.662  0.000  0.338
    occupations:
  0.910  0.000 -0.050
  0.000  0.930  0.000
 -0.050  0.000  0.876
atom    7   Tr[ns(na)] =   5.43258
    eigenvalues: 
  0.840  0.930  0.946
    eigenvectors:
  0.338  0.000  0.662
  0.496  0.251  0.253
  0.166  0.749  0.085
    occupations:
  0.910 -0.043  0.025
 -0.043  0.890  0.023
  0.025  0.023  0.916
atom    8   Tr[ns(na)] =   5.43258
    eigenvalues: 
  0.840  0.930  0.946
    eigenvectors:
  0.338  0.000  0.662
  0.000  1.000  0.000
  0.662  0.000  0.338
    occupations:
  0.910  0.000 -0.050
  0.000  0.930  0.000
 -0.050  0.000  0.876
atom    9   Tr[ns(na)] =   5.43258
    eigenvalues: 
  0.840  0.930  0.946
    eigenvectors:
  0.338  0.000  0.662
  0.497  0.249  0.254
  0.165  0.751  0.084
    occupations:
  0.910  0.043  0.025
  0.043  0.889 -0.023
  0.025 -0.023  0.916
atom   10   Tr[ns(na)] =   5.43258
    eigenvalues: 
  0.840  0.930  0.946
    eigenvectors:
  0.338  0.000  0.662
  0.496  0.251  0.253
  0.166  0.749  0.085
    occupations:
  0.910 -0.043  0.025
 -0.043  0.890  0.023
  0.025  0.023  0.916
N of occupied +U levels =  56.2861476
 --- exit write_ns ---
 --- in v_hubbard ---
Hubbard energy    0.2648
 -------

     total cpu time spent up to now is      184.5 secs

     total energy              =    -538.04635133 Ry
     Harris-Foulkes estimate   =    -538.04633844 Ry
     estimated scf accuracy    <       0.00000027 Ry

     iteration # 11     ecut=    30.00 Ry     beta=0.20
     Davidson diagonalization with overlap
     ethr =  3.00E-10,  avg # of iterations =  1.2
 --- enter write_ns ---
 LDA+U parameters:
U( 1)     =  3.00000000
alpha( 1) =  0.05000000
U( 2)     =  3.00000000
alpha( 2) =  0.00000000
U( 3)     =  0.00000000
alpha( 3) =  0.00000000
U( 4)     =  0.00000000
alpha( 4) =  0.00000000
atom    1   Tr[ns(na)] =   8.04809
    eigenvalues: 
  0.530  0.530  0.987  0.987  0.989
    eigenvectors:
  0.000  0.000  0.000  0.000  1.000
  0.336  0.322  0.004  0.338  0.000
  0.322  0.336  0.338  0.004  0.000
  0.285  0.057  0.517  0.141  0.000
  0.057  0.285  0.141  0.517  0.000
    occupations:
  0.989  0.000  0.000  0.000  0.000
  0.000  0.687  0.000 -0.079  0.202
  0.000  0.000  0.687  0.202  0.079
  0.000 -0.079  0.202  0.831  0.000
  0.000  0.202  0.079  0.000  0.831
atom    2   Tr[ns(na)] =   8.05220
    eigenvalues: 
  0.530  0.530  0.988  0.988  0.990
    eigenvectors:
  0.000  0.000  0.000  0.000  1.000
  0.639  0.019  0.220  0.122  0.000
  0.019  0.639  0.122  0.220  0.000
  0.014  0.328  0.473  0.185  0.000
  0.328  0.014  0.185  0.473  0.000
    occupations:
  0.990  0.000  0.000  0.000  0.000
  0.000  0.687  0.000  0.079  0.202
  0.000  0.000  0.687  0.202 -0.079
  0.000  0.079  0.202  0.831  0.000
  0.000  0.202 -0.079  0.000  0.831
atom    3   Tr[ns(na)] =   3.79495
    eigenvalues: 
  0.356  0.356  0.382  0.402  0.402
    eigenvectors:
  0.000  0.000  1.000  0.000  0.000
  0.782  0.139  0.000  0.012  0.067
  0.139  0.782  0.000  0.067  0.012
  0.012  0.067  0.000  0.780  0.141
  0.067  0.012  0.000  0.141  0.780
    occupations:
  0.382  0.000  0.000  0.000  0.000
  0.000  0.360  0.000  0.000  0.012
  0.000  0.000  0.360  0.012  0.000
  0.000  0.000  0.012  0.398  0.000
  0.000  0.012  0.000  0.000  0.398
atom    4   Tr[ns(na)] =   3.79495
    eigenvalues: 
  0.356  0.356  0.382  0.402  0.402
    eigenvectors:
  0.000  0.000  1.000  0.000  0.000
  0.782  0.139  0.000  0.012  0.067
  0.139  0.782  0.000  0.067  0.012
  0.012  0.067  0.000  0.780  0.141
  0.067  0.012  0.000  0.141  0.780
    occupations:
  0.382  0.000  0.000  0.000  0.000
  0.000  0.360  0.000  0.000  0.012
  0.000  0.000  0.360  0.012  0.000
  0.000  0.000  0.012  0.398  0.000
  0.000  0.012  0.000  0.000  0.398
atom    5   Tr[ns(na)] =   5.43265
    eigenvalues: 
  0.840  0.930  0.946
    eigenvectors:
  0.338  0.000  0.662
  0.497  0.249  0.254
  0.165  0.751  0.084
    occupations:
  0.910  0.043  0.025
  0.043  0.889 -0.023
  0.025 -0.023  0.916
atom    6   Tr[ns(na)] =   5.43265
    eigenvalues: 
  0.840  0.930  0.946
    eigenvectors:
  0.338  0.000  0.662
  0.000  1.000  0.000
  0.662  0.000  0.338
    occupations:
  0.910  0.000 -0.050
  0.000  0.930  0.000
 -0.050  0.000  0.876
atom    7   Tr[ns(na)] =   5.43265
    eigenvalues: 
  0.840  0.930  0.946
    eigenvectors:
  0.338  0.000  0.662
  0.496  0.251  0.253
  0.166  0.749  0.085
    occupations:
  0.910 -0.043  0.025
 -0.043  0.890  0.023
  0.025  0.023  0.916
atom    8   Tr[ns(na)] =   5.43265
    eigenvalues: 
  0.840  0.930  0.946
    eigenvectors:
  0.338  0.000  0.662
  0.000  1.000  0.000
  0.662  0.000  0.338
    occupations:
  0.910  0.000 -0.050
  0.000  0.930  0.000
 -0.050  0.000  0.876
atom    9   Tr[ns(na)] =   5.43265
    eigenvalues: 
  0.840  0.930  0.946
    eigenvectors:
  0.338  0.000  0.662
  0.497  0.249  0.254
  0.165  0.751  0.084
    occupations:
  0.910  0.043  0.025
  0.043  0.889 -0.023
  0.025 -0.023  0.916
atom   10   Tr[ns(na)] =   5.43265
    eigenvalues: 
  0.840  0.930  0.946
    eigenvectors:
  0.338  0.000  0.662
  0.496  0.251  0.253
  0.166  0.749  0.085
    occupations:
  0.910 -0.043  0.025
 -0.043  0.890  0.023
  0.025  0.023  0.916
N of occupied +U levels =  56.2861071
 --- exit write_ns ---
 --- in v_hubbard ---
Hubbard energy    0.2648
 -------

     total cpu time spent up to now is      201.6 secs

     total energy              =    -538.04635983 Ry
     Harris-Foulkes estimate   =    -538.04635136 Ry
     estimated scf accuracy    <       0.00000002 Ry

     iteration # 12     ecut=    30.00 Ry     beta=0.20
     Davidson diagonalization with overlap
     ethr =  2.00E-11,  avg # of iterations =  2.1
 --- enter write_ns ---
 LDA+U parameters:
U( 1)     =  3.00000000
alpha( 1) =  0.05000000
U( 2)     =  3.00000000
alpha( 2) =  0.00000000
U( 3)     =  0.00000000
alpha( 3) =  0.00000000
U( 4)     =  0.00000000
alpha( 4) =  0.00000000
atom    1   Tr[ns(na)] =   8.04806
    eigenvalues: 
  0.530  0.530  0.987  0.987  0.989
    eigenvectors:
  0.000  0.000  0.000  0.000  1.000
  0.336  0.322  0.004  0.338  0.000
  0.322  0.336  0.338  0.004  0.000
  0.285  0.057  0.517  0.141  0.000
  0.057  0.285  0.141  0.517  0.000
    occupations:
  0.989  0.000  0.000  0.000  0.000
  0.000  0.687  0.000 -0.079  0.202
  0.000  0.000  0.687  0.202  0.079
  0.000 -0.079  0.202  0.831  0.000
  0.000  0.202  0.079  0.000  0.831
atom    2   Tr[ns(na)] =   8.05224
    eigenvalues: 
  0.530  0.530  0.988  0.988  0.990
    eigenvectors:
  0.000  0.000  0.000  0.000  1.000
  0.639  0.019  0.220  0.122  0.000
  0.019  0.639  0.122  0.220  0.000
  0.014  0.328  0.473  0.185  0.000
  0.328  0.014  0.185  0.473  0.000
    occupations:
  0.990  0.000  0.000  0.000  0.000
  0.000  0.687  0.000  0.079  0.202
  0.000  0.000  0.687  0.202 -0.079
  0.000  0.079  0.202  0.831  0.000
  0.000  0.202 -0.079  0.000  0.831
atom    3   Tr[ns(na)] =   3.79502
    eigenvalues: 
  0.356  0.356  0.382  0.402  0.402
    eigenvectors:
  0.000  0.000  1.000  0.000  0.000
  0.783  0.139  0.000  0.012  0.067
  0.139  0.783  0.000  0.067  0.012
  0.012  0.067  0.000  0.780  0.141
  0.067  0.012  0.000  0.141  0.780
    occupations:
  0.382  0.000  0.000  0.000  0.000
  0.000  0.360  0.000  0.000  0.012
  0.000  0.000  0.360  0.012  0.000
  0.000  0.000  0.012  0.398  0.000
  0.000  0.012  0.000  0.000  0.398
atom    4   Tr[ns(na)] =   3.79502
    eigenvalues: 
  0.356  0.356  0.382  0.402  0.402
    eigenvectors:
  0.000  0.000  1.000  0.000  0.000
  0.782  0.139  0.000  0.012  0.067
  0.139  0.782  0.000  0.067  0.012
  0.012  0.067  0.000  0.781  0.141
  0.067  0.012  0.000  0.141  0.781
    occupations:
  0.382  0.000  0.000  0.000  0.000
  0.000  0.360  0.000  0.000  0.012
  0.000  0.000  0.360  0.012  0.000
  0.000  0.000  0.012  0.398  0.000
  0.000  0.012  0.000  0.000  0.398
atom    5   Tr[ns(na)] =   5.43264
    eigenvalues: 
  0.840  0.930  0.946
    eigenvectors:
  0.338  0.000  0.662
  0.497  0.249  0.254
  0.165  0.751  0.084
    occupations:
  0.910  0.043  0.025
  0.043  0.889 -0.023
  0.025 -0.023  0.916
atom    6   Tr[ns(na)] =   5.43264
    eigenvalues: 
  0.840  0.930  0.946
    eigenvectors:
  0.338  0.000  0.662
  0.000  1.000  0.000
  0.662  0.000  0.338
    occupations:
  0.910  0.000 -0.050
  0.000  0.930  0.000
 -0.050  0.000  0.876
atom    7   Tr[ns(na)] =   5.43264
    eigenvalues: 
  0.840  0.930  0.946
    eigenvectors:
  0.338  0.000  0.662
  0.496  0.251  0.253
  0.166  0.749  0.085
    occupations:
  0.910 -0.043  0.025
 -0.043  0.890  0.023
  0.025  0.023  0.916
atom    8   Tr[ns(na)] =   5.43264
    eigenvalues: 
  0.840  0.930  0.946
    eigenvectors:
  0.338  0.000  0.662
  0.000  1.000  0.000
  0.662  0.000  0.338
    occupations:
  0.910  0.000 -0.050
  0.000  0.930  0.000
 -0.050  0.000  0.876
atom    9   Tr[ns(na)] =   5.43264
    eigenvalues: 
  0.840  0.930  0.946
    eigenvectors:
  0.338  0.000  0.662
  0.497  0.249  0.254
  0.165  0.751  0.084
    occupations:
  0.910  0.043  0.025
  0.043  0.889 -0.023
  0.025 -0.023  0.916
atom   10   Tr[ns(na)] =   5.43264
    eigenvalues: 
  0.840  0.930  0.946
    eigenvectors:
  0.338  0.000  0.662
  0.496  0.251  0.253
  0.166  0.749  0.085
    occupations:
  0.910 -0.043  0.025
 -0.043  0.890  0.023
  0.025  0.023  0.916
N of occupied +U levels =  56.2861514
 --- exit write_ns ---
 --- in v_hubbard ---
Hubbard energy    0.2648
 -------

     total cpu time spent up to now is      220.8 secs

     total energy              =    -538.04636527 Ry
     Harris-Foulkes estimate   =    -538.04635983 Ry
     estimated scf accuracy    <       0.00000001 Ry

     iteration # 13     ecut=    30.00 Ry     beta=0.20
     Davidson diagonalization with overlap
     ethr =  1.45E-11,  avg # of iterations =  2.0
 --- enter write_ns ---
 LDA+U parameters:
U( 1)     =  3.00000000
alpha( 1) =  0.05000000
U( 2)     =  3.00000000
alpha( 2) =  0.00000000
U( 3)     =  0.00000000
alpha( 3) =  0.00000000
U( 4)     =  0.00000000
alpha( 4) =  0.00000000
atom    1   Tr[ns(na)] =   8.04809
    eigenvalues: 
  0.530  0.530  0.987  0.987  0.989
    eigenvectors:
  0.000  0.000  0.000  0.000  1.000
  0.335  0.322  0.004  0.338  0.000
  0.322  0.335  0.338  0.004  0.000
  0.285  0.057  0.517  0.141  0.000
  0.057  0.285  0.141  0.517  0.000
    occupations:
  0.989  0.000  0.000  0.000  0.000
  0.000  0.687  0.000 -0.079  0.202
  0.000  0.000  0.687  0.202  0.079
  0.000 -0.079  0.202  0.831  0.000
  0.000  0.202  0.079  0.000  0.831
atom    2   Tr[ns(na)] =   8.05219
    eigenvalues: 
  0.530  0.530  0.988  0.988  0.990
    eigenvectors:
  0.000  0.000  0.000  0.000  1.000
  0.639  0.019  0.220  0.122  0.000
  0.019  0.639  0.122  0.220  0.000
  0.014  0.328  0.473  0.185  0.000
  0.328  0.014  0.185  0.473  0.000
    occupations:
  0.990  0.000  0.000  0.000  0.000
  0.000  0.687  0.000  0.079  0.202
  0.000  0.000  0.687  0.202 -0.079
  0.000  0.079  0.202  0.831  0.000
  0.000  0.202 -0.079  0.000  0.831
atom    3   Tr[ns(na)] =   3.79500
    eigenvalues: 
  0.356  0.356  0.382  0.402  0.402
    eigenvectors:
  0.000  0.000  1.000  0.000  0.000
  0.782  0.139  0.000  0.012  0.067
  0.139  0.782  0.000  0.067  0.012
  0.012  0.067  0.000  0.781  0.141
  0.067  0.012  0.000  0.141  0.781
    occupations:
  0.382  0.000  0.000  0.000  0.000
  0.000  0.360  0.000  0.000  0.012
  0.000  0.000  0.360  0.012  0.000
  0.000  0.000  0.012  0.398  0.000
  0.000  0.012  0.000  0.000  0.398
atom    4   Tr[ns(na)] =   3.79500
    eigenvalues: 
  0.356  0.356  0.382  0.402  0.402
    eigenvectors:
  0.000  0.000  1.000  0.000  0.000
  0.782  0.139  0.000  0.012  0.067
  0.139  0.782  0.000  0.067  0.012
  0.012  0.067  0.000  0.780  0.141
  0.067  0.012  0.000  0.141  0.780
    occupations:
  0.382  0.000  0.000  0.000  0.000
  0.000  0.360  0.000  0.000  0.012
  0.000  0.000  0.360  0.012  0.000
  0.000  0.000  0.012  0.398  0.000
  0.000  0.012  0.000  0.000  0.398
atom    5   Tr[ns(na)] =   5.43264
    eigenvalues: 
  0.840  0.930  0.946
    eigenvectors:
  0.338  0.000  0.662
  0.497  0.249  0.254
  0.165  0.751  0.084
    occupations:
  0.910  0.043  0.025
  0.043  0.889 -0.023
  0.025 -0.023  0.916
atom    6   Tr[ns(na)] =   5.43264
    eigenvalues: 
  0.840  0.930  0.946
    eigenvectors:
  0.338  0.000  0.662
  0.000  1.000  0.000
  0.662  0.000  0.338
    occupations:
  0.910  0.000 -0.050
  0.000  0.930  0.000
 -0.050  0.000  0.876
atom    7   Tr[ns(na)] =   5.43264
    eigenvalues: 
  0.840  0.930  0.946
    eigenvectors:
  0.338  0.000  0.662
  0.496  0.251  0.253
  0.166  0.749  0.085
    occupations:
  0.910 -0.043  0.025
 -0.043  0.890  0.023
  0.025  0.023  0.916
atom    8   Tr[ns(na)] =   5.43264
    eigenvalues: 
  0.840  0.930  0.946
    eigenvectors:
  0.338  0.000  0.662
  0.000  1.000  0.000
  0.662  0.000  0.338
    occupations:
  0.910  0.000 -0.050
  0.000  0.930  0.000
 -0.050  0.000  0.876
atom    9   Tr[ns(na)] =   5.43264
    eigenvalues: 
  0.840  0.930  0.946
    eigenvectors:
  0.338  0.000  0.662
  0.497  0.249  0.254
  0.165  0.751  0.084
    occupations:
  0.910  0.043  0.025
  0.043  0.889 -0.023
  0.025 -0.023  0.916
atom   10   Tr[ns(na)] =   5.43264
    eigenvalues: 
  0.840  0.930  0.946
    eigenvectors:
  0.338  0.000  0.662
  0.496  0.251  0.253
  0.166  0.749  0.085
    occupations:
  0.910 -0.043  0.025
 -0.043  0.890  0.023
  0.025  0.023  0.916
N of occupied +U levels =  56.2861377
 --- exit write_ns ---
 --- in v_hubbard ---
Hubbard energy    0.2648
 -------

     total cpu time spent up to now is      239.1 secs

     End of self-consistent calculation

          k = 0.0000 0.0000 0.0000 (  2175 PWs)   bands (ev):

   -19.7949 -19.6217  -6.5494  -5.8439  -5.8439  -5.8240  -5.8240  -5.4843
    -3.8134  -3.2574  -3.2332  -3.2332  -3.0230  -3.0230   5.1810   6.8325
     6.8325   7.1762   7.1762   7.2098   7.5126   7.5126   7.7096   9.1305
     9.2941   9.3204   9.3204   9.6213   9.6213  10.0291  10.0291  10.2484
    10.4576  10.4576  10.6736  11.1375  11.1375  11.5372  11.9735  11.9735
    14.7414  14.7414  15.4296  15.4296  16.1998  16.7867

     occupation numbers 
     0.0313   0.0313   0.0313   0.0313   0.0313   0.0313   0.0313   0.0313
     0.0313   0.0313   0.0313   0.0313   0.0313   0.0313   0.0313   0.0313
     0.0313   0.0313   0.0313   0.0313   0.0313   0.0313   0.0313   0.0313
     0.0313   0.0313   0.0313   0.0312   0.0312   0.0312   0.0312   0.0312
     0.0312   0.0312   0.0312   0.0306   0.0306   0.0234   0.0063   0.0063
     0.0000   0.0000   0.0000   0.0000   0.0000   0.0000

          k =-0.2471-0.1427 0.1027 (  2181 PWs)   bands (ev):

   -19.7688 -19.6544  -6.7275  -6.2938  -5.9484  -5.8509  -5.6122  -5.4802
    -3.6109  -3.3984  -2.9356  -2.9046  -2.8556  -2.7614   5.5353   6.7967
     6.8349   6.9312   6.9553   7.1897   7.2284   7.4742   7.6034   8.2787
     8.2844   8.8344   9.5943   9.7146   9.7277   9.9765  10.2219  10.2410
    10.4050  10.4139  10.4684  11.2119  11.2980  11.3204  12.3020  12.3727
    14.2879  14.2977  15.8173  16.0712  16.9736  17.2674

     occupation numbers 
     0.1875   0.1875   0.1875   0.1875   0.1875   0.1875   0.1875   0.1875
     0.1875   0.1875   0.1875   0.1875   0.1875   0.1875   0.1875   0.1875
     0.1875   0.1875   0.1875   0.1875   0.1875   0.1875   0.1875   0.1875
     0.1875   0.1875   0.1875   0.1875   0.1875   0.1875   0.1875   0.1875
     0.1875   0.1875   0.1875   0.1808   0.1750   0.1730   0.0045   0.0025
     0.0000   0.0000   0.0000   0.0000   0.0000   0.0000

          k = 0.4942 0.2853-0.2053 (  2202 PWs)   bands (ev):

   -19.7153 -19.7148  -6.7270  -6.7143  -5.9646  -5.9580  -5.5251  -5.5171
    -3.3880  -3.3860  -2.7929  -2.7922  -2.5061  -2.5042   5.9838   5.9858
     7.0329   7.0399   7.1779   7.1822   7.4204   7.4333   7.5028   7.5140
     7.7347   7.7466   9.4361   9.4452   9.8545   9.8624  10.2616  10.2726
    10.6300  10.6510  10.7864  10.8072  11.0482  11.0670  13.2725  13.3113
    13.3566  13.3952  16.8336  16.8386  17.1308  17.1346

     occupation numbers 
     0.0938   0.0938   0.0938   0.0938   0.0938   0.0938   0.0938   0.0938
     0.0938   0.0938   0.0938   0.0938   0.0938   0.0938   0.0938   0.0938
     0.0938   0.0938   0.0938   0.0938   0.0938   0.0938   0.0938   0.0938
     0.0938   0.0938   0.0937   0.0937   0.0937   0.0937   0.0937   0.0937
     0.0937   0.0937   0.0937   0.0937   0.0929   0.0927   0.0000   0.0000
     0.0000   0.0000   0.0000   0.0000   0.0000   0.0000

          k =-0.2471 0.1427 0.2053 (  2195 PWs)   bands (ev):

   -19.7623 -19.6628  -6.8524  -6.2373  -6.0691  -5.8315  -5.6561  -5.4623
    -3.4234  -3.2642  -3.1054  -2.8966  -2.8237  -2.5584   5.5665   6.5302
     6.7143   6.8326   7.1642   7.3011   7.3770   7.4245   7.4816   8.3467
     8.3506   8.7557   9.2390   9.3451   9.8698   9.9064  10.0151  10.0900
    10.2657  10.8053  10.9481  10.9607  11.2286  11.3027  11.8923  12.7192
    13.6170  14.7586  15.9943  16.1962  17.0368  17.5385

     occupation numbers 
     0.1875   0.1875   0.1875   0.1875   0.1875   0.1875   0.1875   0.1875
     0.1875   0.1875   0.1875   0.1875   0.1875   0.1875   0.1875   0.1875
     0.1875   0.1875   0.1875   0.1875   0.1875   0.1875   0.1875   0.1875
     0.1875   0.1875   0.1875   0.1875   0.1875   0.1875   0.1875   0.1875
     0.1875   0.1874   0.1869   0.1868   0.1798   0.1746   0.0541   0.0001
     0.0000   0.0000   0.0000   0.0000   0.0000   0.0000

          k = 0.4942 0.5706-0.1027 (  2198 PWs)   bands (ev):

   -19.7289 -19.7026  -6.9544  -6.6462  -6.1285  -5.8908  -5.5129  -5.3843
    -3.3102  -3.2551  -2.8768  -2.7081  -2.5272  -2.3841   5.8441   6.1716
     6.3973   6.9035   7.1064   7.2399   7.3129   7.4873   7.5149   7.6606
     8.0383   8.6091   8.9535   9.2438   9.5570   9.7819   9.8624  10.3136
    10.3648  10.7981  10.9037  10.9813  11.1214  11.2348  12.2951  12.7246
    13.4101  14.3381  16.9056  17.1150  17.3089  18.0157

     occupation numbers 
     0.1875   0.1875   0.1875   0.1875   0.1875   0.1875   0.1875   0.1875
     0.1875   0.1875   0.1875   0.1875   0.1875   0.1875   0.1875   0.1875
     0.1875   0.1875   0.1875   0.1875   0.1875   0.1875   0.1875   0.1875
     0.1875   0.1875   0.1875   0.1875   0.1875   0.1875   0.1875   0.1875
     0.1875   0.1874   0.1871   0.1866   0.1843   0.1795   0.0048   0.0001
     0.0000   0.0000   0.0000   0.0000   0.0000   0.0000

          k = 0.2471 0.4280 0.0000 (  2203 PWs)   bands (ev):

   -19.7401 -19.6894  -6.8466  -6.6396  -6.0516  -5.9785  -5.4390  -5.3687
    -3.5302  -3.2941  -2.8004  -2.7076  -2.5705  -2.5605   5.8518   6.1855
     6.6795   7.0010   7.0663   7.1341   7.3532   7.3624   7.4193   7.7458
     7.9500   8.8907   8.9054   9.3657   9.7418   9.7595  10.0398  10.3360
    10.6196  10.6541  10.8121  10.9325  10.9481  11.3248  12.2114  13.3025
    13.3796  14.1335  16.4354  16.9942  17.4211  17.9264

     occupation numbers 
     0.1875   0.1875   0.1875   0.1875   0.1875   0.1875   0.1875   0.1875
     0.1875   0.1875   0.1875   0.1875   0.1875   0.1875   0.1875   0.1875
     0.1875   0.1875   0.1875   0.1875   0.1875   0.1875   0.1875   0.1875
     0.1875   0.1875   0.1875   0.1875   0.1875   0.1875   0.1875   0.1875
     0.1875   0.1875   0.1874   0.1870   0.1869   0.1726   0.0090   0.0000
     0.0000   0.0000   0.0000   0.0000   0.0000   0.0000

          k = 0.4942-0.2853-0.4107 (  2202 PWs)   bands (ev):

   -19.7291 -19.7036  -7.1646  -6.4526  -6.2382  -5.9662  -5.5318  -5.2907
    -3.1979  -3.1171  -3.0479  -2.6478  -2.4792  -2.2208   5.7692   5.8772
     6.1733   6.8201   7.1457   7.2550   7.3253   7.4891   7.9811   7.9883
     8.1627   8.3041   8.6019   9.3882   9.4134   9.6744  10.0302  10.0643
    10.4116  10.7079  10.8690  11.0159  11.1472  11.3657  11.8349  12.4051
    13.3128  14.7725  17.0442  17.2666  17.5200  17.6125

     occupation numbers 
     0.0938   0.0938   0.0938   0.0938   0.0938   0.0938   0.0938   0.0938
     0.0938   0.0938   0.0938   0.0938   0.0938   0.0938   0.0938   0.0938
     0.0938   0.0938   0.0938   0.0938   0.0938   0.0938   0.0938   0.0938
     0.0938   0.0938   0.0938   0.0937   0.0937   0.0937   0.0937   0.0937
     0.0937   0.0937   0.0936   0.0931   0.0917   0.0841   0.0337   0.0009
     0.0000   0.0000   0.0000   0.0000   0.0000   0.0000

          k = 0.0000 0.0000 0.3080 (  2187 PWs)   bands (ev):

   -19.7685 -19.6553  -6.6160  -5.9846  -5.9345  -5.9345  -5.8406  -5.8406
    -3.2103  -3.1260  -3.1260  -2.9677  -2.8957  -2.8957   5.6011   6.8832
     6.9244   6.9244   7.1066   7.1727   7.1727   7.4918   7.4918   8.4589
     8.4589   8.8634   9.4370   9.5444   9.5444   9.7267  10.1127  10.1127
    10.4430  10.4430  10.6625  11.2606  11.2606  11.3134  12.2753  12.2753
    14.2492  14.2492  15.9124  15.9124  16.8799  17.4810

     occupation numbers 
     0.0625   0.0625   0.0625   0.0625   0.0625   0.0625   0.0625   0.0625
     0.0625   0.0625   0.0625   0.0625   0.0625   0.0625   0.0625   0.0625
     0.0625   0.0625   0.0625   0.0625   0.0625   0.0625   0.0625   0.0625
     0.0625   0.0625   0.0625   0.0625   0.0625   0.0625   0.0625   0.0625
     0.0625   0.0625   0.0625   0.0593   0.0593   0.0579   0.0019   0.0019
     0.0000   0.0000   0.0000   0.0000   0.0000   0.0000

          k = 0.7412 0.4280 0.0000 (  2204 PWs)   bands (ev):

   -19.7395 -19.6906  -6.7323  -6.6037  -6.1430  -5.8318  -5.6845  -5.5476
    -3.1824  -3.0928  -3.0434  -2.6757  -2.6578  -2.5840   5.8924   6.4406
     6.5777   7.0196   7.0976   7.2334   7.2743   7.4029   7.4774   7.6922
     8.0350   8.7003   8.9683   9.4509   9.5364   9.6735   9.8306  10.2163
    10.6228  10.7655  10.8282  11.0054  11.0432  11.1447  12.2115  13.2241
    13.2957  14.1603  16.6878  16.7255  17.5915  17.7950

     occupation numbers 
     0.1875   0.1875   0.1875   0.1875   0.1875   0.1875   0.1875   0.1875
     0.1875   0.1875   0.1875   0.1875   0.1875   0.1875   0.1875   0.1875
     0.1875   0.1875   0.1875   0.1875   0.1875   0.1875   0.1875   0.1875
     0.1875   0.1875   0.1875   0.1875   0.1875   0.1875   0.1875   0.1875
     0.1875   0.1874   0.1873   0.1864   0.1859   0.1835   0.0090   0.0000
     0.0000   0.0000   0.0000   0.0000   0.0000   0.0000

          k = 0.4942 0.2853 0.1027 (  2211 PWs)   bands (ev):

   -19.7295 -19.7019  -6.9706  -6.5426  -6.3219  -5.6990  -5.6235  -5.3570
    -3.3239  -3.1641  -3.0348  -2.6014  -2.5619  -2.3765   5.8789   6.1517
     6.3469   6.8874   7.1308   7.1669   7.3531   7.4378   7.5992   7.6489
     8.0774   8.6623   8.9488   9.3768   9.4043   9.6461   9.9755  10.2263
    10.4469  10.8651  11.0026  11.0194  11.0589  11.0893  12.2502  12.7390
    13.4567  14.3196  16.8861  16.9356  17.5801  17.9279

     occupation numbers 
     0.1875   0.1875   0.1875   0.1875   0.1875   0.1875   0.1875   0.1875
     0.1875   0.1875   0.1875   0.1875   0.1875   0.1875   0.1875   0.1875
     0.1875   0.1875   0.1875   0.1875   0.1875   0.1875   0.1875   0.1875
     0.1875   0.1875   0.1875   0.1875   0.1875   0.1875   0.1875   0.1875
     0.1875   0.1872   0.1864   0.1862   0.1856   0.1850   0.0068   0.0000
     0.0000   0.0000   0.0000   0.0000   0.0000   0.0000

          k = 0.7412-0.4280-0.3080 (  2210 PWs)   bands (ev):

   -19.7292 -19.7029  -6.9069  -6.4518  -6.3000  -5.7961  -5.7609  -5.4858
    -3.0708  -3.0548  -2.9635  -2.7295  -2.6225  -2.4267   5.9558   6.2966
     6.3880   6.8652   7.1013   7.2157   7.3904   7.4714   7.6360   7.6674
     8.0509   8.6743   8.8305   9.3640   9.4750   9.4920   9.6430  10.1592
    10.4904  10.8687  10.9634  11.0077  11.1305  11.1501  12.2098  12.6915
    13.4056  14.2896  17.0606  17.0698  17.5485  17.9032

     occupation numbers 
     0.1875   0.1875   0.1875   0.1875   0.1875   0.1875   0.1875   0.1875
     0.1875   0.1875   0.1875   0.1875   0.1875   0.1875   0.1875   0.1875
     0.1875   0.1875   0.1875   0.1875   0.1875   0.1875   0.1875   0.1875
     0.1875   0.1875   0.1875   0.1875   0.1875   0.1875   0.1875   0.1875
     0.1875   0.1872   0.1868   0.1864   0.1840   0.1834   0.0091   0.0001
     0.0000   0.0000   0.0000   0.0000   0.0000   0.0000

          k = 0.4942-0.5706-0.2053 (  2206 PWs)   bands (ev):

   -19.7167 -19.7167  -6.8864  -6.8724  -6.0347  -6.0334  -5.4282  -5.4255
    -3.1525  -3.1519  -2.8149  -2.8139  -2.3827  -2.3799   6.0297   6.0325
     6.5351   6.5361   7.0240   7.0245   7.3292   7.3308   7.6712   7.6876
     8.6650   8.6693   8.8041   8.8104   9.4983   9.4992  10.0442  10.0460
    10.6589  10.6630  10.8610  10.8690  11.1879  11.1934  12.2607  12.2662
    13.9834  13.9929  17.4271  17.4275  17.8695  17.8719

     occupation numbers 
     0.1875   0.1875   0.1875   0.1875   0.1875   0.1875   0.1875   0.1875
     0.1875   0.1875   0.1875   0.1875   0.1875   0.1875   0.1875   0.1875
     0.1875   0.1875   0.1875   0.1875   0.1875   0.1875   0.1875   0.1875
     0.1875   0.1875   0.1875   0.1875   0.1875   0.1875   0.1875   0.1875
     0.1875   0.1875   0.1873   0.1872   0.1819   0.1817   0.0062   0.0060
     0.0000   0.0000   0.0000   0.0000   0.0000   0.0000

          k = 0.0000 0.0000-0.6160 (  2186 PWs)   bands (ev):

   -19.7159 -19.7154  -6.5157  -6.4997  -5.9437  -5.9437  -5.9362  -5.9362
    -2.8941  -2.8941  -2.8937  -2.8937  -2.7039  -2.7038   6.2193   6.2223
     7.0953   7.0953   7.1017   7.1017   7.4112   7.4268   7.6839   7.6839
     7.6953   7.6953   9.5909   9.5909   9.6009   9.6009   9.6657   9.6777
    10.8449  10.8636  10.9368  10.9368  10.9564  10.9564  13.2125  13.2125
    13.2507  13.2507  17.1172  17.1172  17.1194  17.1194

     occupation numbers 
     0.0313   0.0313   0.0313   0.0313   0.0313   0.0313   0.0313   0.0313
     0.0313   0.0313   0.0313   0.0313   0.0313   0.0313   0.0313   0.0313
     0.0313   0.0313   0.0313   0.0313   0.0313   0.0313   0.0313   0.0313
     0.0313   0.0313   0.0312   0.0312   0.0312   0.0312   0.0312   0.0312
     0.0312   0.0312   0.0312   0.0312   0.0311   0.0311   0.0000   0.0000
     0.0000   0.0000   0.0000   0.0000   0.0000   0.0000

          k = 0.4942-0.5706 0.1027 (  2198 PWs)   bands (ev):

   -19.7289 -19.7026  -6.9546  -6.6447  -6.1306  -5.8913  -5.5132  -5.3822
    -3.3107  -3.2551  -2.8773  -2.7073  -2.5278  -2.3836   5.8431   6.1727
     6.3954   6.9042   7.1068   7.2416   7.3184   7.4795   7.5079   7.6675
     8.0415   8.6110   8.9509   9.2435   9.5547   9.7817   9.8623  10.3159
    10.3643  10.7916  10.9102  10.9797  11.1284  11.2296  12.2949  12.7245
    13.4101  14.3377  16.9075  17.1121  17.3095  18.0158

     occupation numbers 
     0.1875   0.1875   0.1875   0.1875   0.1875   0.1875   0.1875   0.1875
     0.1875   0.1875   0.1875   0.1875   0.1875   0.1875   0.1875   0.1875
     0.1875   0.1875   0.1875   0.1875   0.1875   0.1875   0.1875   0.1875
     0.1875   0.1875   0.1875   0.1875   0.1875   0.1875   0.1875   0.1875
     0.1875   0.1874   0.1871   0.1866   0.1841   0.1798   0.0048   0.0001
     0.0000   0.0000   0.0000   0.0000   0.0000   0.0000

     the Fermi energy is    11.7312 ev

!    total energy              =    -538.04637486 Ry
     Harris-Foulkes estimate   =    -538.04636527 Ry
     estimated scf accuracy    <          1.1E-09 Ry

     The total energy is the sum of the following terms:

     one-electron contribution =     -32.90115719 Ry
     hartree contribution      =      83.65352128 Ry
     xc contribution           =    -199.60714447 Ry
     ewald contribution        =    -389.44315552 Ry
     Hubbard energy            =       0.26478150 Ry
     smearing contrib. (-TS)   =      -0.01322045 Ry

     convergence has been achieved in  13 iterations

     init_run     :      7.20s CPU      7.42s WALL (       1 calls)
     electrons    :    222.84s CPU    230.62s WALL (       1 calls)

     Called by init_run:
     wfcinit      :      0.00s CPU      0.00s WALL (       1 calls)
     potinit      :      0.28s CPU      0.37s WALL (       1 calls)

     Called by electrons:
     c_bands      :    142.64s CPU    147.56s WALL (      13 calls)
     sum_band     :     46.74s CPU     48.20s WALL (      13 calls)
     v_of_rho     :      3.98s CPU      4.02s WALL (      14 calls)
     v_h          :      0.22s CPU      0.22s WALL (      14 calls)
     v_xc         :      3.77s CPU      3.79s WALL (      14 calls)
     newd         :     30.25s CPU     30.65s WALL (      14 calls)
     mix_rho      :      0.47s CPU      0.47s WALL (      13 calls)

     Called by c_bands:
     init_us_2    :      1.46s CPU      1.47s WALL (     364 calls)
     cegterg      :    138.82s CPU    143.35s WALL (     182 calls)

     Called by sum_band:
     sum_band:bec :      0.14s CPU      0.14s WALL (     182 calls)
     addusdens    :     19.10s CPU     19.44s WALL (      13 calls)

     Called by *egterg:
     h_psi        :    105.38s CPU    108.91s WALL (     681 calls)
     s_psi        :      5.43s CPU      5.46s WALL (     681 calls)
     g_psi        :      0.43s CPU      0.45s WALL (     499 calls)
     cdiaghg      :      8.46s CPU      8.72s WALL (     667 calls)
     cegterg:over :      7.26s CPU      7.64s WALL (     499 calls)
     cegterg:upda :      4.16s CPU      4.17s WALL (     499 calls)
     cegterg:last :      2.72s CPU      2.73s WALL (     206 calls)

     Called by h_psi:
     h_psi:vloc   :     86.37s CPU     89.51s WALL (     681 calls)
     h_psi:vnl    :     11.77s CPU     11.84s WALL (     681 calls)
     add_vuspsi   :      5.40s CPU      5.42s WALL (     681 calls)
     vhpsi        :      7.01s CPU      7.31s WALL (     681 calls)

     General routines
     calbec       :     14.06s CPU     14.47s WALL (    1726 calls)
     fft          :      4.10s CPU      4.19s WALL (     219 calls)
     ffts         :      0.08s CPU      0.08s WALL (      27 calls)
     fftw         :     83.83s CPU     87.52s WALL (   51460 calls)
     interpolate  :      0.45s CPU      0.46s WALL (      27 calls)
     davcio       :      0.00s CPU      0.54s WALL (     378 calls)

     Parallel routines
     fft_scatter  :     32.35s CPU     35.77s WALL (   51706 calls)
     Hubbard U routines
     new_ns       :      1.45s CPU      1.72s WALL (      13 calls)
     vhpsi        :      7.01s CPU      7.31s WALL (     681 calls)

     PWSCF        :  3m50.63s CPU     3m59.08s WALL


   This run was terminated on:  15: 8: 7  11Nov2012            

=------------------------------------------------------------------------------=
