   JOB DONE.
=------------------------------------------------------------------------------=

     Program PWSCF v.5.0.1 starts on 11Nov2012 at 15: 8:11 

     This program is part of the open-source Quantum ESPRESSO suite
     for quantum simulation of materials; please cite
         "P. Giannozzi et al., J. Phys.:Condens. Matter 21 395502 (2009);
          URL http://www.quantum-espresso.org", 
     in publications or presentations arising from this work. More details at
     http://www.quantum-espresso.org/quote.php

     Parallel version (MPI), running on     2 processors
     R & G space division:  proc/pool =    2

     Current dimensions of program PWSCF are:
     Max number of different atomic species (ntypx) = 10
     Max number of k-points (npk) =  40000
     Max angular momentum in pseudopotentials (lmaxx) =  3
     Reading input from CoLaO_U300_a10.in
               file Co.pbe-nd-rrkjus.UPF: wavefunction(s)  4S 3D renormalized
               file Co.pbe-nd-rrkjus.UPF: wavefunction(s)  4S 3D renormalized
               file O.pbe-rrkjus.UPF: wavefunction(s)  2S renormalized

     Subspace diagonalization in iterative solution of the eigenvalue problem:
     a serial algorithm will be used


     Parallelization info
     --------------------
     sticks:   dense  smooth     PW     G-vecs:    dense   smooth      PW
     Min        1112     444    131                34808     8786    1448
     Max        1113     445    132                34809     8787    1449
     Sum        2225     889    263                69617    17573    2897


     Title: 
     GGA + U, U = 3.000, alpha = 0.100                                          


     bravais-lattice index     =            5
     lattice parameter (alat)  =      10.3292  a.u.
     unit-cell volume          =     793.0599 (a.u.)^3
     number of atoms/cell      =           10
     number of atomic types    =            4
     number of electrons       =        76.00
     number of Kohn-Sham states=           46
     kinetic-energy cutoff     =      30.0000  Ry
     charge density cutoff     =     300.0000  Ry
     convergence threshold     =      1.0E-08
     mixing beta               =       0.2000
     number of iterations used =            8  plain     mixing
     Exchange-correlation      =  SLA  PW   PBE  PBE ( 1 4 3 4 0)
     EXX-fraction              =        0.00

     celldm(1)=  10.329242  celldm(2)=   0.000000  celldm(3)=   0.000000
     celldm(4)=   0.488100  celldm(5)=   0.000000  celldm(6)=   0.000000

     crystal axes: (cart. coord. in units of alat)
               a(1) = (   0.505915  -0.292090   0.811624 )  
               a(2) = (   0.000000   0.584180   0.811624 )  
               a(3) = (  -0.505915  -0.292090   0.811624 )  

     reciprocal axes: (cart. coord. in units 2 pi/alat)
               b(1) = (  0.988308 -0.570600  0.410699 )  
               b(2) = (  0.000000  1.141200  0.410699 )  
               b(3) = ( -0.988308 -0.570600  0.410699 )  


     PseudoPot. # 1 for Co read from file:
     /home/mcurnan/dft-course/Project1/example_LaCoO3/Co.pbe-nd-rrkjus.UPF
     MD5 check sum: 3e47a84addf5e975e0edeaeee2a73f59
     Pseudo is Ultrasoft + core correction, Zval =  9.0
     Generated by new atomic code, or converted to UPF format
     Using radial grid of  961 points,  6 beta functions with: 
                l(1) =   0
                l(2) =   0
                l(3) =   1
                l(4) =   1
                l(5) =   2
                l(6) =   2
     Q(r) pseudized with 0 coefficients 


     PseudoPot. # 2 for Co read from file:
     /home/mcurnan/dft-course/Project1/example_LaCoO3/Co.pbe-nd-rrkjus.UPF
     MD5 check sum: 3e47a84addf5e975e0edeaeee2a73f59
     Pseudo is Ultrasoft + core correction, Zval =  9.0
     Generated by new atomic code, or converted to UPF format
     Using radial grid of  961 points,  6 beta functions with: 
                l(1) =   0
                l(2) =   0
                l(3) =   1
                l(4) =   1
                l(5) =   2
                l(6) =   2
     Q(r) pseudized with 0 coefficients 


     PseudoPot. # 3 for La read from file:
     /home/mcurnan/dft-course/Project1/example_LaCoO3/La.pbe-nsp-van.UPF
     MD5 check sum: b2f11743f52dde65f77d1302becd7929
     Pseudo is Ultrasoft + core correction, Zval = 11.0
     Generated by new atomic code, or converted to UPF format
     Using radial grid of  907 points,  6 beta functions with: 
                l(1) =   0
                l(2) =   0
                l(3) =   1
                l(4) =   1
                l(5) =   2
                l(6) =   2
     Q(r) pseudized with  6 coefficients,  rinner =    1.200   1.200   1.200
                                                       1.200   1.200

     PseudoPot. # 4 for O  read from file:
     /home/mcurnan/dft-course/Project1/example_LaCoO3/O.pbe-rrkjus.UPF
     MD5 check sum: 390ba29e75625707450f3bd3f0eb6be9
     Pseudo is Ultrasoft, Zval =  6.0
     Generated by new atomic code, or converted to UPF format
     Using radial grid of 1269 points,  4 beta functions with: 
                l(1) =   0
                l(2) =   0
                l(3) =   1
                l(4) =   1
     Q(r) pseudized with 0 coefficients 


     atomic species   valence    mass     pseudopotential
        Co1            9.00     1.00000     Co( 1.00)
        Co2            9.00     1.00000     Co( 1.00)
        La1           11.00     1.00000     La( 1.00)
        O1             6.00     1.00000     O ( 1.00)
 -----
     simplified LDA+U calculation, Hubbard_lmax = 2
     atomic species  L   Hubbard U  Hubbard alpha
        Co1          2    3.000000    0.100000
        Co2          2    3.000000    0.000000
        La1          2    0.000000    0.000000
        O1           1    0.000000    0.000000
 -----

      6 Sym. Ops., with inversion, found


                                    s                        frac. trans.

      isym =  1     identity                                     

 cryst.   s( 1) = (     1          0          0      )
                  (     0          1          0      )
                  (     0          0          1      )

 cart.    s( 1) = (  1.0000000  0.0000000  0.0000000 )
                  (  0.0000000  1.0000000  0.0000000 )
                  (  0.0000000  0.0000000  1.0000000 )


      isym =  2     120 deg rotation - cryst. axis [0,0,1]       

 cryst.   s( 2) = (     0          1          0      )
                  (     0          0          1      )
                  (     1          0          0      )

 cart.    s( 2) = ( -0.5000000 -0.8660254  0.0000000 )
                  (  0.8660254 -0.5000000  0.0000000 )
                  (  0.0000000  0.0000000  1.0000000 )


      isym =  3     120 deg rotation - cryst. axis [0,0,-1]      

 cryst.   s( 3) = (     0          0          1      )
                  (     1          0          0      )
                  (     0          1          0      )

 cart.    s( 3) = ( -0.5000000  0.8660254  0.0000000 )
                  ( -0.8660254 -0.5000000  0.0000000 )
                  (  0.0000000  0.0000000  1.0000000 )


      isym =  4     inversion                                    

 cryst.   s( 4) = (    -1          0          0      )
                  (     0         -1          0      )
                  (     0          0         -1      )

 cart.    s( 4) = ( -1.0000000  0.0000000  0.0000000 )
                  (  0.0000000 -1.0000000  0.0000000 )
                  (  0.0000000  0.0000000 -1.0000000 )


      isym =  5     inv. 180 deg rotation - cart. axis [0,1,0]   

 cryst.   s( 5) = (     0         -1          0      )
                  (     0          0         -1      )
                  (    -1          0          0      )

 cart.    s( 5) = (  0.5000000  0.8660254  0.0000000 )
                  ( -0.8660254  0.5000000  0.0000000 )
                  (  0.0000000  0.0000000 -1.0000000 )


      isym =  6     inv. 180 deg rotation - cart. axis [1,0,0]   

 cryst.   s( 6) = (     0          0         -1      )
                  (    -1          0          0      )
                  (     0         -1          0      )

 cart.    s( 6) = (  0.5000000 -0.8660254  0.0000000 )
                  (  0.8660254  0.5000000  0.0000000 )
                  (  0.0000000  0.0000000 -1.0000000 )


     point group S_6 (-3)   
     there are  6 classes
     the character table:

       E     C3    C3^2  i     S6^5  S6   
A_g    1.00  1.00  1.00  1.00  1.00  1.00
E_g    1.00 -0.50 -0.50  1.00 -0.50 -0.50
E_g*   1.00 -0.50 -0.50  1.00 -0.50 -0.50
A_u    1.00  1.00  1.00 -1.00 -1.00 -1.00
E_u    1.00 -0.50 -0.50 -1.00  0.50  0.50
E_u*   1.00 -0.50 -0.50 -1.00  0.50  0.50
     imaginary part
A_g    0.00  0.00  0.00  0.00  0.00  0.00
E_g    0.00  0.87 -0.87  0.00  0.87 -0.87
E_g*   0.00 -0.87  0.87  0.00 -0.87  0.87
A_u    0.00  0.00  0.00  0.00  0.00  0.00
E_u    0.00  0.87 -0.87  0.00 -0.87  0.87
E_u*   0.00 -0.87  0.87  0.00  0.87 -0.87

     the symmetry operations in each class:
     E        1
     C3       2
     C3^2     3
     i        4
     S6^5     5
     S6       6

   Cartesian axes

     site n.     atom                  positions (alat units)
         1           Co1 tau(   1) = (   0.0000000   0.0000000   0.0000000  )
         2           Co2 tau(   2) = (   0.0000000   0.0000000   1.2174358  )
         3           La1 tau(   3) = (   0.0000000   0.0000000   0.6087179  )
         4           La1 tau(   4) = (   0.0000000   0.0000000   1.8261537  )
         5           O1  tau(   5) = (  -0.2839701  -0.0933228   1.0141240  )
         6           O1  tau(   6) = (   0.0611651   0.2925867   1.0141240  )
         7           O1  tau(   7) = (   0.2228050  -0.1992639   1.0141240  )
         8           O1  tau(   8) = (  -0.0611651  -0.2925867   1.4207476  )
         9           O1  tau(   9) = (   0.2839701   0.0933228   1.4207476  )
        10           O1  tau(  10) = (  -0.2228050   0.1992639   1.4207476  )

   Crystallographic axes

     site n.     atom                  positions (cryst. coord.)
         1           Co1 tau(   1) = (  0.0000000  0.0000000  0.0000000  )
         2           Co2 tau(   2) = (  0.5000000  0.5000000  0.5000000  )
         3           La1 tau(   3) = (  0.2500000  0.2500000  0.2500000  )
         4           La1 tau(   4) = (  0.7500000  0.7500000  0.7500000  )
         5           O1  tau(   5) = (  0.1891000  0.3100000  0.7504000  )
         6           O1  tau(   6) = (  0.3100000  0.7504000  0.1891000  )
         7           O1  tau(   7) = (  0.7504000  0.1891000  0.3100000  )
         8           O1  tau(   8) = (  0.6900000  0.2496000  0.8109000  )
         9           O1  tau(   9) = (  0.8109000  0.6900000  0.2496000  )
        10           O1  tau(  10) = (  0.2496000  0.8109000  0.6900000  )

     number of k points=    14  gaussian smearing, width (Ry)=  0.0300
                       cart. coord. in units 2pi/alat
        k(    1) = (   0.0000000   0.0000000   0.0000000), wk =   0.0312500
        k(    2) = (  -0.2470771  -0.1426500   0.1026748), wk =   0.1875000
        k(    3) = (   0.4941541   0.2853000  -0.2053496), wk =   0.0937500
        k(    4) = (  -0.2470771   0.1426500   0.2053496), wk =   0.1875000
        k(    5) = (   0.4941541   0.5706001  -0.1026748), wk =   0.1875000
        k(    6) = (   0.2470771   0.4279500   0.0000000), wk =   0.1875000
        k(    7) = (   0.4941541  -0.2853000  -0.4106993), wk =   0.0937500
        k(    8) = (   0.0000000   0.0000000   0.3080244), wk =   0.0625000
        k(    9) = (   0.7412312   0.4279500   0.0000000), wk =   0.1875000
        k(   10) = (   0.4941541   0.2853000   0.1026748), wk =   0.1875000
        k(   11) = (   0.7412312  -0.4279500  -0.3080244), wk =   0.1875000
        k(   12) = (   0.4941541  -0.5706001  -0.2053496), wk =   0.1875000
        k(   13) = (   0.0000000   0.0000000  -0.6160489), wk =   0.0312500
        k(   14) = (   0.4941541  -0.5706001   0.1026748), wk =   0.1875000

                       cryst. coord.
        k(    1) = (   0.0000000   0.0000000   0.0000000), wk =   0.0312500
        k(    2) = (   0.0000000   0.0000000   0.2500000), wk =   0.1875000
        k(    3) = (   0.0000000   0.0000000  -0.5000000), wk =   0.0937500
        k(    4) = (   0.0000000   0.2500000   0.2500000), wk =   0.1875000
        k(    5) = (   0.0000000   0.2500000  -0.5000000), wk =   0.1875000
        k(    6) = (   0.0000000   0.2500000  -0.2500000), wk =   0.1875000
        k(    7) = (   0.0000000  -0.5000000  -0.5000000), wk =   0.0937500
        k(    8) = (   0.2500000   0.2500000   0.2500000), wk =   0.0625000
        k(    9) = (   0.2500000   0.2500000  -0.5000000), wk =   0.1875000
        k(   10) = (   0.2500000   0.2500000  -0.2500000), wk =   0.1875000
        k(   11) = (   0.2500000  -0.5000000  -0.5000000), wk =   0.1875000
        k(   12) = (   0.2500000  -0.5000000  -0.2500000), wk =   0.1875000
        k(   13) = (  -0.5000000  -0.5000000  -0.5000000), wk =   0.0312500
        k(   14) = (   0.5000000  -0.2500000   0.0000000), wk =   0.1875000

     Dense  grid:    69617 G-vectors     FFT dimensions: (  60,  60,  60)

     Smooth grid:    17573 G-vectors     FFT dimensions: (  40,  40,  40)

     Largest allocated arrays     est. size (Mb)     dimensions
        Kohn-Sham Wavefunctions         0.78 Mb     (   1117,   46)
        Atomic wavefunctions            1.06 Mb     (   1117,   62)
        NL pseudopotentials             2.05 Mb     (   1117,  120)
        Each V/rho on FFT grid          1.65 Mb     ( 108000)
        Each G-vector array             0.27 Mb     (  34808)
        G-vector shells                 0.04 Mb     (   4682)
     Largest temporary arrays     est. size (Mb)     dimensions
        Auxiliary wavefunctions         3.14 Mb     (   1117,  184)
        Each subspace H/S matrix        0.52 Mb     ( 184, 184)
        Each <psi_i|beta_j> matrix      0.08 Mb     (    120,   46)
        Arrays for rho mixing          13.18 Mb     ( 108000,   8)

     Check: negative/imaginary core charge=   -0.000028    0.000000

     The initial density is read from file :
     /home/mcurnan/dft-course/Project1/example_LaCoO3/300/Co/alpha/CoLaO_U300.save/charge-density.dat

 --- in v_hubbard ---
Hubbard energy    0.3460
 -------
     Number of +U iterations with fixed ns =  0
     Starting occupations:
 --- enter write_ns ---
 LDA+U parameters:
U( 1)     =  3.00000000
alpha( 1) =  0.10000000
U( 2)     =  3.00000000
alpha( 2) =  0.00000000
U( 3)     =  0.00000000
alpha( 3) =  0.00000000
U( 4)     =  0.00000000
alpha( 4) =  0.00000000
atom    1   Tr[ns(na)] =   8.02206
    eigenvalues: 
  0.596  0.596  0.938  0.941  0.941
    eigenvectors:
  0.000  0.000  1.000  0.000  0.000
  0.333  0.322  0.000  0.004  0.341
  0.322  0.333  0.000  0.341  0.004
  0.289  0.056  0.000  0.515  0.140
  0.056  0.289  0.000  0.140  0.515
    occupations:
  0.938  0.000  0.000  0.000  0.000
  0.000  0.715  0.000 -0.060  0.152
  0.000  0.000  0.715  0.152  0.060
  0.000 -0.060  0.152  0.822  0.000
  0.000  0.152  0.060  0.000  0.822
atom    2   Tr[ns(na)] =   8.02145
    eigenvalues: 
  0.595  0.595  0.938  0.941  0.941
    eigenvectors:
  0.000  0.000  1.000  0.000  0.000
  0.640  0.015  0.000  0.223  0.122
  0.015  0.640  0.000  0.122  0.223
  0.017  0.329  0.000  0.470  0.185
  0.329  0.017  0.000  0.185  0.470
    occupations:
  0.938  0.000  0.000  0.000  0.000
  0.000  0.715  0.000  0.060  0.153
  0.000  0.000  0.715  0.153 -0.060
  0.000  0.060  0.153  0.822  0.000
  0.000  0.153 -0.060  0.000  0.822
atom    3   Tr[ns(na)] =   3.80284
    eigenvalues: 
  0.355  0.355  0.384  0.403  0.403
    eigenvectors:
  0.000  0.000  1.000  0.000  0.000
  0.781  0.139  0.000  0.012  0.068
  0.139  0.781  0.000  0.068  0.012
  0.013  0.067  0.000  0.780  0.141
  0.067  0.013  0.000  0.141  0.780
    occupations:
  0.384  0.000  0.000  0.000  0.000
  0.000  0.359  0.000  0.000  0.013
  0.000  0.000  0.359  0.013  0.000
  0.000  0.000  0.013  0.399  0.000
  0.000  0.013  0.000  0.000  0.399
atom    4   Tr[ns(na)] =   3.80284
    eigenvalues: 
  0.355  0.355  0.384  0.403  0.403
    eigenvectors:
  0.000  0.000  1.000  0.000  0.000
  0.782  0.139  0.000  0.012  0.068
  0.139  0.782  0.000  0.068  0.012
  0.012  0.067  0.000  0.780  0.141
  0.067  0.012  0.000  0.141  0.780
    occupations:
  0.384  0.000  0.000  0.000  0.000
  0.000  0.359  0.000  0.000  0.013
  0.000  0.000  0.359  0.013  0.000
  0.000  0.000  0.013  0.399  0.000
  0.000  0.013  0.000  0.000  0.399
atom    5   Tr[ns(na)] =   5.43357
    eigenvalues: 
  0.846  0.929  0.941
    eigenvectors:
  0.340  0.000  0.660
  0.494  0.250  0.256
  0.166  0.750  0.085
    occupations:
  0.909  0.039  0.022
  0.039  0.891 -0.022
  0.022 -0.022  0.917
atom    6   Tr[ns(na)] =   5.43357
    eigenvalues: 
  0.846  0.929  0.941
    eigenvectors:
  0.340  0.000  0.660
  0.000  1.000  0.000
  0.660  0.000  0.340
    occupations:
  0.909  0.000 -0.045
  0.000  0.929  0.000
 -0.045  0.000  0.879
atom    7   Tr[ns(na)] =   5.43357
    eigenvalues: 
  0.846  0.929  0.941
    eigenvectors:
  0.340  0.000  0.660
  0.496  0.250  0.255
  0.164  0.750  0.086
    occupations:
  0.909 -0.039  0.022
 -0.039  0.891  0.022
  0.022  0.022  0.917
atom    8   Tr[ns(na)] =   5.43357
    eigenvalues: 
  0.846  0.929  0.941
    eigenvectors:
  0.340  0.000  0.660
  0.000  1.000  0.000
  0.660  0.000  0.340
    occupations:
  0.909  0.000 -0.045
  0.000  0.929  0.000
 -0.045  0.000  0.879
atom    9   Tr[ns(na)] =   5.43357
    eigenvalues: 
  0.846  0.929  0.941
    eigenvectors:
  0.340  0.000  0.660
  0.494  0.250  0.256
  0.166  0.750  0.085
    occupations:
  0.909  0.039  0.022
  0.039  0.891 -0.022
  0.022 -0.022  0.917
atom   10   Tr[ns(na)] =   5.43357
    eigenvalues: 
  0.846  0.929  0.941
    eigenvectors:
  0.340  0.000  0.660
  0.496  0.250  0.255
  0.164  0.750  0.086
    occupations:
  0.909 -0.039  0.022
 -0.039  0.891  0.022
  0.022  0.022  0.917
N of occupied +U levels =  56.2506062
 --- exit write_ns ---
 LDA+U Projector read from file 
     Starting wfc from file

     total cpu time spent up to now is        8.5 secs

     per-process dynamical memory:    46.9 Mb

     Self-consistent Calculation

     iteration #  1     ecut=    30.00 Ry     beta=0.20
     Davidson diagonalization with overlap
     c_bands:  1 eigenvalues not converged
     c_bands:  1 eigenvalues not converged
     c_bands:  1 eigenvalues not converged
     c_bands:  1 eigenvalues not converged
     c_bands:  1 eigenvalues not converged
     c_bands:  1 eigenvalues not converged
     ethr =  1.00E-10,  avg # of iterations = 15.6
 --- enter write_ns ---
 LDA+U parameters:
U( 1)     =  3.00000000
alpha( 1) =  0.10000000
U( 2)     =  3.00000000
alpha( 2) =  0.00000000
U( 3)     =  0.00000000
alpha( 3) =  0.00000000
U( 4)     =  0.00000000
alpha( 4) =  0.00000000
atom    1   Tr[ns(na)] =   8.10927
    eigenvalues: 
  0.554  0.554  0.981  0.981  0.983
    eigenvectors:
  0.000  0.000  0.000  0.000  1.000
  0.329  0.326  0.005  0.341  0.000
  0.326  0.329  0.341  0.005  0.000
  0.287  0.058  0.513  0.142  0.000
  0.058  0.287  0.142  0.513  0.000
    occupations:
  0.983  0.000  0.000  0.000  0.000
  0.000  0.702  0.000 -0.072  0.190
  0.000  0.000  0.702  0.190  0.072
  0.000 -0.072  0.190  0.834  0.000
  0.000  0.190  0.072  0.000  0.834
atom    2   Tr[ns(na)] =   8.15649
    eigenvalues: 
  0.561  0.561  0.984  0.984  0.987
    eigenvectors:
  0.000  0.000  0.000  0.000  1.000
  0.636  0.018  0.222  0.124  0.000
  0.018  0.636  0.124  0.222  0.000
  0.014  0.332  0.469  0.185  0.000
  0.332  0.014  0.185  0.469  0.000
    occupations:
  0.987  0.000  0.000  0.000  0.000
  0.000  0.708  0.000  0.072  0.188
  0.000  0.000  0.708  0.188 -0.072
  0.000  0.072  0.188  0.838  0.000
  0.000  0.188 -0.072  0.000  0.838
atom    3   Tr[ns(na)] =   3.79624
    eigenvalues: 
  0.356  0.356  0.382  0.402  0.402
    eigenvectors:
  0.000  0.000  1.000  0.000  0.000
  0.779  0.140  0.000  0.012  0.069
  0.140  0.779  0.000  0.069  0.012
  0.013  0.069  0.000  0.777  0.141
  0.069  0.013  0.000  0.141  0.777
    occupations:
  0.382  0.000  0.000  0.000  0.000
  0.000  0.360  0.000  0.000  0.013
  0.000  0.000  0.360  0.013  0.000
  0.000  0.000  0.013  0.398  0.000
  0.000  0.013  0.000  0.000  0.398
atom    4   Tr[ns(na)] =   3.79624
    eigenvalues: 
  0.356  0.356  0.382  0.402  0.402
    eigenvectors:
  0.000  0.000  1.000  0.000  0.000
  0.779  0.140  0.000  0.012  0.069
  0.140  0.779  0.000  0.069  0.012
  0.013  0.069  0.000  0.777  0.141
  0.069  0.013  0.000  0.141  0.777
    occupations:
  0.382  0.000  0.000  0.000  0.000
  0.000  0.360  0.000  0.000  0.013
  0.000  0.000  0.360  0.013  0.000
  0.000  0.000  0.013  0.398  0.000
  0.000  0.013  0.000  0.000  0.398
atom    5   Tr[ns(na)] =   5.40780
    eigenvalues: 
  0.834  0.926  0.944
    eigenvectors:
  0.340  0.000  0.660
  0.499  0.245  0.256
  0.161  0.755  0.084
    occupations:
  0.906  0.045  0.026
  0.045  0.885 -0.024
  0.026 -0.024  0.913
atom    6   Tr[ns(na)] =   5.40780
    eigenvalues: 
  0.834  0.926  0.944
    eigenvectors:
  0.340  0.000  0.660
  0.000  1.000  0.000
  0.660  0.000  0.340
    occupations:
  0.906  0.000 -0.052
  0.000  0.926  0.000
 -0.052  0.000  0.871
atom    7   Tr[ns(na)] =   5.40780
    eigenvalues: 
  0.834  0.926  0.944
    eigenvectors:
  0.340  0.000  0.660
  0.491  0.255  0.254
  0.169  0.745  0.086
    occupations:
  0.906 -0.045  0.026
 -0.045  0.885  0.024
  0.026  0.024  0.912
atom    8   Tr[ns(na)] =   5.40780
    eigenvalues: 
  0.834  0.926  0.944
    eigenvectors:
  0.340  0.000  0.660
  0.000  1.000  0.000
  0.660  0.000  0.340
    occupations:
  0.906  0.000 -0.052
  0.000  0.926  0.000
 -0.052  0.000  0.871
atom    9   Tr[ns(na)] =   5.40780
    eigenvalues: 
  0.834  0.926  0.944
    eigenvectors:
  0.340  0.000  0.660
  0.499  0.245  0.256
  0.161  0.755  0.084
    occupations:
  0.906  0.045  0.026
  0.045  0.885 -0.024
  0.026 -0.024  0.913
atom   10   Tr[ns(na)] =   5.40780
    eigenvalues: 
  0.834  0.926  0.944
    eigenvectors:
  0.340  0.000  0.660
  0.491  0.255  0.254
  0.169  0.745  0.086
    occupations:
  0.906 -0.045  0.026
 -0.045  0.885  0.024
  0.026  0.024  0.912
N of occupied +U levels =  56.3050215
 --- exit write_ns ---
 --- in v_hubbard ---
Hubbard energy    0.3371
 -------

     total cpu time spent up to now is       50.4 secs

     total energy              =    -538.01072125 Ry
     Harris-Foulkes estimate   =    -538.01367313 Ry
     estimated scf accuracy    <       0.02082554 Ry

     iteration #  2     ecut=    30.00 Ry     beta=0.20
     Davidson diagonalization with overlap
     ethr =  2.74E-05,  avg # of iterations =  1.6
 --- enter write_ns ---
 LDA+U parameters:
U( 1)     =  3.00000000
alpha( 1) =  0.10000000
U( 2)     =  3.00000000
alpha( 2) =  0.00000000
U( 3)     =  0.00000000
alpha( 3) =  0.00000000
U( 4)     =  0.00000000
alpha( 4) =  0.00000000
atom    1   Tr[ns(na)] =   8.05779
    eigenvalues: 
  0.536  0.536  0.985  0.985  0.987
    eigenvectors:
  0.000  0.000  0.000  0.000  1.000
  0.333  0.322  0.004  0.341  0.000
  0.322  0.333  0.341  0.004  0.000
  0.288  0.057  0.515  0.140  0.000
  0.057  0.288  0.140  0.515  0.000
    occupations:
  0.987  0.000  0.000  0.000  0.000
  0.000  0.690  0.000 -0.078  0.199
  0.000  0.000  0.690  0.199  0.078
  0.000 -0.078  0.199  0.830  0.000
  0.000  0.199  0.078  0.000  0.830
atom    2   Tr[ns(na)] =   8.00421
    eigenvalues: 
  0.526  0.526  0.983  0.983  0.985
    eigenvectors:
  0.000  0.000  0.000  0.000  1.000
  0.637  0.018  0.220  0.124  0.000
  0.018  0.637  0.124  0.220  0.000
  0.013  0.331  0.470  0.185  0.000
  0.331  0.013  0.185  0.470  0.000
    occupations:
  0.985  0.000  0.000  0.000  0.000
  0.000  0.683  0.000  0.078  0.203
  0.000  0.000  0.683  0.203 -0.078
  0.000  0.078  0.203  0.825  0.000
  0.000  0.203 -0.078  0.000  0.825
atom    3   Tr[ns(na)] =   3.79363
    eigenvalues: 
  0.356  0.356  0.382  0.402  0.402
    eigenvectors:
  0.000  0.000  1.000  0.000  0.000
  0.781  0.139  0.000  0.012  0.068
  0.139  0.781  0.000  0.068  0.012
  0.013  0.067  0.000  0.779  0.141
  0.067  0.013  0.000  0.141  0.779
    occupations:
  0.382  0.000  0.000  0.000  0.000
  0.000  0.359  0.000  0.000  0.013
  0.000  0.000  0.359  0.013  0.000
  0.000  0.000  0.013  0.398  0.000
  0.000  0.013  0.000  0.000  0.398
atom    4   Tr[ns(na)] =   3.79363
    eigenvalues: 
  0.356  0.356  0.382  0.402  0.402
    eigenvectors:
  0.000  0.000  1.000  0.000  0.000
  0.781  0.139  0.000  0.012  0.068
  0.139  0.781  0.000  0.068  0.012
  0.013  0.067  0.000  0.779  0.141
  0.067  0.013  0.000  0.141  0.779
    occupations:
  0.382  0.000  0.000  0.000  0.000
  0.000  0.359  0.000  0.000  0.013
  0.000  0.000  0.359  0.013  0.000
  0.000  0.000  0.013  0.398  0.000
  0.000  0.013  0.000  0.000  0.398
atom    5   Tr[ns(na)] =   5.43996
    eigenvalues: 
  0.843  0.931  0.946
    eigenvectors:
  0.337  0.000  0.663
  0.493  0.255  0.253
  0.170  0.745  0.085
    occupations:
  0.912  0.042  0.025
  0.042  0.891 -0.023
  0.025 -0.023  0.917
atom    6   Tr[ns(na)] =   5.43996
    eigenvalues: 
  0.843  0.931  0.946
    eigenvectors:
  0.337  0.000  0.663
  0.000  1.000  0.000
  0.663  0.000  0.337
    occupations:
  0.912  0.000 -0.049
  0.000  0.931  0.000
 -0.049  0.000  0.878
atom    7   Tr[ns(na)] =   5.43996
    eigenvalues: 
  0.843  0.931  0.946
    eigenvectors:
  0.337  0.000  0.663
  0.501  0.245  0.253
  0.162  0.755  0.084
    occupations:
  0.912 -0.043  0.024
 -0.043  0.891  0.023
  0.024  0.023  0.918
atom    8   Tr[ns(na)] =   5.43996
    eigenvalues: 
  0.843  0.931  0.946
    eigenvectors:
  0.337  0.000  0.663
  0.000  1.000  0.000
  0.663  0.000  0.337
    occupations:
  0.912  0.000 -0.049
  0.000  0.931  0.000
 -0.049  0.000  0.878
atom    9   Tr[ns(na)] =   5.43996
    eigenvalues: 
  0.843  0.931  0.946
    eigenvectors:
  0.337  0.000  0.663
  0.493  0.255  0.253
  0.170  0.745  0.085
    occupations:
  0.912  0.042  0.025
  0.042  0.891 -0.023
  0.025 -0.023  0.917
atom   10   Tr[ns(na)] =   5.43996
    eigenvalues: 
  0.843  0.931  0.946
    eigenvectors:
  0.337  0.000  0.663
  0.501  0.245  0.253
  0.162  0.755  0.084
    occupations:
  0.912 -0.043  0.024
 -0.043  0.891  0.023
  0.024  0.023  0.918
N of occupied +U levels =  56.2890342
 --- exit write_ns ---
 --- in v_hubbard ---
Hubbard energy    0.3332
 -------

     total cpu time spent up to now is       66.1 secs

     total energy              =    -538.01361732 Ry
     Harris-Foulkes estimate   =    -538.01395200 Ry
     estimated scf accuracy    <       0.01607121 Ry

     iteration #  3     ecut=    30.00 Ry     beta=0.20
     Davidson diagonalization with overlap
     ethr =  2.11E-05,  avg # of iterations =  1.0
 --- enter write_ns ---
 LDA+U parameters:
U( 1)     =  3.00000000
alpha( 1) =  0.10000000
U( 2)     =  3.00000000
alpha( 2) =  0.00000000
U( 3)     =  0.00000000
alpha( 3) =  0.00000000
U( 4)     =  0.00000000
alpha( 4) =  0.00000000
atom    1   Tr[ns(na)] =   8.02958
    eigenvalues: 
  0.532  0.532  0.983  0.983  0.985
    eigenvectors:
  0.000  0.000  0.000  0.000  1.000
  0.332  0.324  0.004  0.340  0.000
  0.324  0.332  0.340  0.004  0.000
  0.286  0.058  0.515  0.141  0.000
  0.058  0.286  0.141  0.515  0.000
    occupations:
  0.985  0.000  0.000  0.000  0.000
  0.000  0.687  0.000 -0.077  0.200
  0.000  0.000  0.687  0.200  0.077
  0.000 -0.077  0.200  0.828  0.000
  0.000  0.200  0.077  0.000  0.828
atom    2   Tr[ns(na)] =   8.07444
    eigenvalues: 
  0.539  0.539  0.986  0.986  0.988
    eigenvectors:
  0.000  0.000  0.000  0.000  1.000
  0.638  0.018  0.222  0.123  0.000
  0.018  0.638  0.123  0.222  0.000
  0.015  0.330  0.471  0.185  0.000
  0.330  0.015  0.185  0.471  0.000
    occupations:
  0.988  0.000  0.000  0.000  0.000
  0.000  0.693  0.000  0.077  0.198
  0.000  0.000  0.693  0.198 -0.077
  0.000  0.077  0.198  0.832  0.000
  0.000  0.198 -0.077  0.000  0.832
atom    3   Tr[ns(na)] =   3.79370
    eigenvalues: 
  0.356  0.356  0.382  0.402  0.402
    eigenvectors:
  0.000  0.000  1.000  0.000  0.000
  0.781  0.139  0.000  0.012  0.068
  0.139  0.781  0.000  0.068  0.012
  0.013  0.067  0.000  0.780  0.141
  0.067  0.013  0.000  0.141  0.780
    occupations:
  0.382  0.000  0.000  0.000  0.000
  0.000  0.359  0.000  0.000  0.013
  0.000  0.000  0.359  0.013  0.000
  0.000  0.000  0.013  0.398  0.000
  0.000  0.013  0.000  0.000  0.398
atom    4   Tr[ns(na)] =   3.79370
    eigenvalues: 
  0.356  0.356  0.382  0.402  0.402
    eigenvectors:
  0.000  0.000  1.000  0.000  0.000
  0.781  0.139  0.000  0.012  0.068
  0.139  0.781  0.000  0.068  0.012
  0.013  0.067  0.000  0.780  0.141
  0.067  0.013  0.000  0.141  0.780
    occupations:
  0.382  0.000  0.000  0.000  0.000
  0.000  0.359  0.000  0.000  0.013
  0.000  0.000  0.359  0.013  0.000
  0.000  0.000  0.013  0.398  0.000
  0.000  0.013  0.000  0.000  0.398
atom    5   Tr[ns(na)] =   5.43344
    eigenvalues: 
  0.841  0.930  0.946
    eigenvectors:
  0.338  0.000  0.662
  0.501  0.245  0.254
  0.161  0.755  0.083
    occupations:
  0.911  0.043  0.025
  0.043  0.889 -0.023
  0.025 -0.023  0.917
atom    6   Tr[ns(na)] =   5.43344
    eigenvalues: 
  0.841  0.930  0.946
    eigenvectors:
  0.338  0.000  0.662
  0.000  1.000  0.000
  0.662  0.000  0.338
    occupations:
  0.911  0.000 -0.050
  0.000  0.930  0.000
 -0.050  0.000  0.876
atom    7   Tr[ns(na)] =   5.43344
    eigenvalues: 
  0.841  0.930  0.946
    eigenvectors:
  0.338  0.000  0.662
  0.493  0.255  0.252
  0.170  0.745  0.086
    occupations:
  0.911 -0.043  0.025
 -0.043  0.890  0.023
  0.025  0.023  0.916
atom    8   Tr[ns(na)] =   5.43344
    eigenvalues: 
  0.841  0.930  0.946
    eigenvectors:
  0.338  0.000  0.662
  0.000  1.000  0.000
  0.662  0.000  0.338
    occupations:
  0.911  0.000 -0.050
  0.000  0.930  0.000
 -0.050  0.000  0.876
atom    9   Tr[ns(na)] =   5.43344
    eigenvalues: 
  0.841  0.930  0.946
    eigenvectors:
  0.338  0.000  0.662
  0.501  0.245  0.254
  0.161  0.755  0.083
    occupations:
  0.911  0.043  0.025
  0.043  0.889 -0.023
  0.025 -0.023  0.917
atom   10   Tr[ns(na)] =   5.43344
    eigenvalues: 
  0.841  0.930  0.946
    eigenvectors:
  0.338  0.000  0.662
  0.493  0.255  0.252
  0.170  0.745  0.086
    occupations:
  0.911 -0.043  0.025
 -0.043  0.890  0.023
  0.025  0.023  0.916
N of occupied +U levels =  56.2920500
 --- exit write_ns ---
 --- in v_hubbard ---
Hubbard energy    0.3281
 -------

     total cpu time spent up to now is       83.2 secs

     total energy              =    -538.01461303 Ry
     Harris-Foulkes estimate   =    -538.01418683 Ry
     estimated scf accuracy    <       0.00858067 Ry

     iteration #  4     ecut=    30.00 Ry     beta=0.20
     Davidson diagonalization with overlap
     ethr =  1.13E-05,  avg # of iterations =  1.0
 --- enter write_ns ---
 LDA+U parameters:
U( 1)     =  3.00000000
alpha( 1) =  0.10000000
U( 2)     =  3.00000000
alpha( 2) =  0.00000000
U( 3)     =  0.00000000
alpha( 3) =  0.00000000
U( 4)     =  0.00000000
alpha( 4) =  0.00000000
atom    1   Tr[ns(na)] =   8.07311
    eigenvalues: 
  0.539  0.539  0.985  0.985  0.988
    eigenvectors:
  0.000  0.000  0.000  0.000  1.000
  0.334  0.323  0.004  0.340  0.000
  0.323  0.334  0.340  0.004  0.000
  0.287  0.057  0.516  0.140  0.000
  0.057  0.287  0.140  0.516  0.000
    occupations:
  0.988  0.000  0.000  0.000  0.000
  0.000  0.693  0.000 -0.077  0.197
  0.000  0.000  0.693  0.197  0.077
  0.000 -0.077  0.197  0.832  0.000
  0.000  0.197  0.077  0.000  0.832
atom    2   Tr[ns(na)] =   8.04022
    eigenvalues: 
  0.533  0.533  0.984  0.984  0.986
    eigenvectors:
  0.000  0.000  0.000  0.000  1.000
  0.637  0.019  0.220  0.124  0.000
  0.019  0.637  0.124  0.220  0.000
  0.013  0.331  0.471  0.185  0.000
  0.331  0.013  0.185  0.471  0.000
    occupations:
  0.986  0.000  0.000  0.000  0.000
  0.000  0.688  0.000  0.077  0.200
  0.000  0.000  0.688  0.200 -0.077
  0.000  0.077  0.200  0.829  0.000
  0.000  0.200 -0.077  0.000  0.829
atom    3   Tr[ns(na)] =   3.79412
    eigenvalues: 
  0.356  0.356  0.382  0.402  0.402
    eigenvectors:
  0.000  0.000  1.000  0.000  0.000
  0.781  0.139  0.000  0.012  0.068
  0.139  0.781  0.000  0.068  0.012
  0.013  0.067  0.000  0.780  0.141
  0.067  0.013  0.000  0.141  0.780
    occupations:
  0.382  0.000  0.000  0.000  0.000
  0.000  0.359  0.000  0.000  0.012
  0.000  0.000  0.359  0.012  0.000
  0.000  0.000  0.012  0.398  0.000
  0.000  0.012  0.000  0.000  0.398
atom    4   Tr[ns(na)] =   3.79412
    eigenvalues: 
  0.356  0.356  0.382  0.402  0.402
    eigenvectors:
  0.000  0.000  1.000  0.000  0.000
  0.782  0.139  0.000  0.012  0.068
  0.139  0.782  0.000  0.068  0.012
  0.013  0.067  0.000  0.780  0.141
  0.067  0.013  0.000  0.141  0.780
    occupations:
  0.382  0.000  0.000  0.000  0.000
  0.000  0.359  0.000  0.000  0.012
  0.000  0.000  0.359  0.012  0.000
  0.000  0.000  0.012  0.398  0.000
  0.000  0.012  0.000  0.000  0.398
atom    5   Tr[ns(na)] =   5.43171
    eigenvalues: 
  0.840  0.930  0.946
    eigenvectors:
  0.338  0.000  0.662
  0.494  0.253  0.253
  0.168  0.747  0.085
    occupations:
  0.910  0.043  0.025
  0.043  0.890 -0.023
  0.025 -0.023  0.916
atom    6   Tr[ns(na)] =   5.43171
    eigenvalues: 
  0.840  0.930  0.946
    eigenvectors:
  0.338  0.000  0.662
  0.000  1.000  0.000
  0.662  0.000  0.338
    occupations:
  0.910  0.000 -0.050
  0.000  0.930  0.000
 -0.050  0.000  0.876
atom    7   Tr[ns(na)] =   5.43171
    eigenvalues: 
  0.840  0.930  0.946
    eigenvectors:
  0.338  0.000  0.662
  0.499  0.247  0.254
  0.163  0.753  0.084
    occupations:
  0.910 -0.043  0.025
 -0.043  0.889  0.023
  0.025  0.023  0.916
atom    8   Tr[ns(na)] =   5.43171
    eigenvalues: 
  0.840  0.930  0.946
    eigenvectors:
  0.338  0.000  0.662
  0.000  1.000  0.000
  0.662  0.000  0.338
    occupations:
  0.910  0.000 -0.050
  0.000  0.930  0.000
 -0.050  0.000  0.876
atom    9   Tr[ns(na)] =   5.43171
    eigenvalues: 
  0.840  0.930  0.946
    eigenvectors:
  0.338  0.000  0.662
  0.494  0.253  0.253
  0.168  0.747  0.085
    occupations:
  0.910  0.043  0.025
  0.043  0.890 -0.023
  0.025 -0.023  0.916
atom   10   Tr[ns(na)] =   5.43171
    eigenvalues: 
  0.840  0.930  0.946
    eigenvectors:
  0.338  0.000  0.662
  0.499  0.247  0.254
  0.163  0.753  0.084
    occupations:
  0.910 -0.043  0.025
 -0.043  0.889  0.023
  0.025  0.023  0.916
N of occupied +U levels =  56.2918134
 --- exit write_ns ---
 --- in v_hubbard ---
Hubbard energy    0.2941
 -------

     total cpu time spent up to now is      102.9 secs

     total energy              =    -538.01610952 Ry
     Harris-Foulkes estimate   =    -538.01487597 Ry
     estimated scf accuracy    <       0.00665112 Ry

     iteration #  5     ecut=    30.00 Ry     beta=0.20
     Davidson diagonalization with overlap
     ethr =  8.75E-06,  avg # of iterations =  1.0
 --- enter write_ns ---
 LDA+U parameters:
U( 1)     =  3.00000000
alpha( 1) =  0.10000000
U( 2)     =  3.00000000
alpha( 2) =  0.00000000
U( 3)     =  0.00000000
alpha( 3) =  0.00000000
U( 4)     =  0.00000000
alpha( 4) =  0.00000000
atom    1   Tr[ns(na)] =   8.04724
    eigenvalues: 
  0.530  0.530  0.987  0.987  0.989
    eigenvectors:
  0.000  0.000  0.000  0.000  1.000
  0.337  0.322  0.004  0.337  0.000
  0.322  0.337  0.337  0.004  0.000
  0.284  0.058  0.518  0.141  0.000
  0.058  0.284  0.141  0.518  0.000
    occupations:
  0.989  0.000  0.000  0.000  0.000
  0.000  0.686  0.000 -0.079  0.202
  0.000  0.000  0.686  0.202  0.079
  0.000 -0.079  0.202  0.831  0.000
  0.000  0.202  0.079  0.000  0.831
atom    2   Tr[ns(na)] =   8.05688
    eigenvalues: 
  0.532  0.532  0.988  0.988  0.990
    eigenvectors:
  0.000  0.000  0.000  0.000  1.000
  0.639  0.020  0.219  0.122  0.000
  0.020  0.639  0.122  0.219  0.000
  0.013  0.328  0.474  0.185  0.000
  0.328  0.013  0.185  0.474  0.000
    occupations:
  0.990  0.000  0.000  0.000  0.000
  0.000  0.687  0.000  0.078  0.202
  0.000  0.000  0.687  0.202 -0.078
  0.000  0.078  0.202  0.832  0.000
  0.000  0.202 -0.078  0.000  0.832
atom    3   Tr[ns(na)] =   3.79646
    eigenvalues: 
  0.356  0.356  0.382  0.402  0.402
    eigenvectors:
  0.000  0.000  1.000  0.000  0.000
  0.783  0.139  0.000  0.011  0.067
  0.139  0.783  0.000  0.067  0.011
  0.012  0.066  0.000  0.781  0.141
  0.066  0.012  0.000  0.141  0.781
    occupations:
  0.382  0.000  0.000  0.000  0.000
  0.000  0.360  0.000  0.000  0.012
  0.000  0.000  0.360  0.012  0.000
  0.000  0.000  0.012  0.398  0.000
  0.000  0.012  0.000  0.000  0.398
atom    4   Tr[ns(na)] =   3.79646
    eigenvalues: 
  0.356  0.356  0.382  0.402  0.402
    eigenvectors:
  0.000  0.000  1.000  0.000  0.000
  0.783  0.139  0.000  0.011  0.067
  0.139  0.783  0.000  0.067  0.011
  0.012  0.066  0.000  0.781  0.140
  0.066  0.012  0.000  0.140  0.781
    occupations:
  0.382  0.000  0.000  0.000  0.000
  0.000  0.360  0.000  0.000  0.012
  0.000  0.000  0.360  0.012  0.000
  0.000  0.000  0.012  0.398  0.000
  0.000  0.012  0.000  0.000  0.398
atom    5   Tr[ns(na)] =   5.43158
    eigenvalues: 
  0.840  0.930  0.946
    eigenvectors:
  0.338  0.000  0.662
  0.498  0.248  0.254
  0.164  0.752  0.084
    occupations:
  0.910  0.043  0.025
  0.043  0.889 -0.023
  0.025 -0.023  0.916
atom    6   Tr[ns(na)] =   5.43158
    eigenvalues: 
  0.840  0.930  0.946
    eigenvectors:
  0.338  0.000  0.662
  0.000  1.000  0.000
  0.662  0.000  0.338
    occupations:
  0.910  0.000 -0.050
  0.000  0.930  0.000
 -0.050  0.000  0.876
atom    7   Tr[ns(na)] =   5.43158
    eigenvalues: 
  0.840  0.930  0.946
    eigenvectors:
  0.338  0.000  0.662
  0.495  0.252  0.253
  0.167  0.748  0.085
    occupations:
  0.910 -0.043  0.025
 -0.043  0.889  0.023
  0.025  0.023  0.916
atom    8   Tr[ns(na)] =   5.43158
    eigenvalues: 
  0.840  0.930  0.946
    eigenvectors:
  0.338  0.000  0.662
  0.000  1.000  0.000
  0.662  0.000  0.338
    occupations:
  0.910  0.000 -0.050
  0.000  0.930  0.000
 -0.050  0.000  0.876
atom    9   Tr[ns(na)] =   5.43158
    eigenvalues: 
  0.840  0.930  0.946
    eigenvectors:
  0.338  0.000  0.662
  0.498  0.248  0.254
  0.164  0.752  0.084
    occupations:
  0.910  0.043  0.025
  0.043  0.889 -0.023
  0.025 -0.023  0.916
atom   10   Tr[ns(na)] =   5.43158
    eigenvalues: 
  0.840  0.930  0.946
    eigenvectors:
  0.338  0.000  0.662
  0.495  0.252  0.253
  0.167  0.748  0.085
    occupations:
  0.910 -0.043  0.025
 -0.043  0.889  0.023
  0.025  0.023  0.916
N of occupied +U levels =  56.2865159
 --- exit write_ns ---
 --- in v_hubbard ---
Hubbard energy    0.2937
 -------

     total cpu time spent up to now is      123.2 secs

     total energy              =    -538.01658102 Ry
     Harris-Foulkes estimate   =    -538.01650484 Ry
     estimated scf accuracy    <       0.00008610 Ry

     iteration #  6     ecut=    30.00 Ry     beta=0.20
     Davidson diagonalization with overlap
     ethr =  1.13E-07,  avg # of iterations =  3.1
 --- enter write_ns ---
 LDA+U parameters:
U( 1)     =  3.00000000
alpha( 1) =  0.10000000
U( 2)     =  3.00000000
alpha( 2) =  0.00000000
U( 3)     =  0.00000000
alpha( 3) =  0.00000000
U( 4)     =  0.00000000
alpha( 4) =  0.00000000
atom    1   Tr[ns(na)] =   8.03946
    eigenvalues: 
  0.528  0.528  0.987  0.987  0.989
    eigenvectors:
  0.000  0.000  0.000  0.000  1.000
  0.336  0.322  0.004  0.338  0.000
  0.322  0.336  0.338  0.004  0.000
  0.284  0.058  0.518  0.141  0.000
  0.058  0.284  0.141  0.518  0.000
    occupations:
  0.989  0.000  0.000  0.000  0.000
  0.000  0.685  0.000 -0.079  0.202
  0.000  0.000  0.685  0.202  0.079
  0.000 -0.079  0.202  0.830  0.000
  0.000  0.202  0.079  0.000  0.830
atom    2   Tr[ns(na)] =   8.05157
    eigenvalues: 
  0.530  0.530  0.988  0.988  0.990
    eigenvectors:
  0.000  0.000  0.000  0.000  1.000
  0.639  0.019  0.219  0.122  0.000
  0.019  0.639  0.122  0.219  0.000
  0.014  0.328  0.474  0.185  0.000
  0.328  0.014  0.185  0.474  0.000
    occupations:
  0.990  0.000  0.000  0.000  0.000
  0.000  0.686  0.000  0.079  0.202
  0.000  0.000  0.686  0.202 -0.079
  0.000  0.079  0.202  0.831  0.000
  0.000  0.202 -0.079  0.000  0.831
atom    3   Tr[ns(na)] =   3.79593
    eigenvalues: 
  0.356  0.356  0.382  0.402  0.402
    eigenvectors:
  0.000  0.000  1.000  0.000  0.000
  0.783  0.139  0.000  0.011  0.067
  0.139  0.783  0.000  0.067  0.011
  0.012  0.066  0.000  0.781  0.141
  0.066  0.012  0.000  0.141  0.781
    occupations:
  0.382  0.000  0.000  0.000  0.000
  0.000  0.360  0.000  0.000  0.012
  0.000  0.000  0.360  0.012  0.000
  0.000  0.000  0.012  0.398  0.000
  0.000  0.012  0.000  0.000  0.398
atom    4   Tr[ns(na)] =   3.79593
    eigenvalues: 
  0.356  0.356  0.382  0.402  0.402
    eigenvectors:
  0.000  0.000  1.000  0.000  0.000
  0.783  0.139  0.000  0.012  0.067
  0.139  0.783  0.000  0.067  0.012
  0.012  0.066  0.000  0.781  0.141
  0.066  0.012  0.000  0.141  0.781
    occupations:
  0.382  0.000  0.000  0.000  0.000
  0.000  0.360  0.000  0.000  0.012
  0.000  0.000  0.360  0.012  0.000
  0.000  0.000  0.012  0.398  0.000
  0.000  0.012  0.000  0.000  0.398
atom    5   Tr[ns(na)] =   5.43362
    eigenvalues: 
  0.841  0.930  0.946
    eigenvectors:
  0.338  0.000  0.662
  0.498  0.248  0.254
  0.164  0.752  0.084
    occupations:
  0.911  0.043  0.025
  0.043  0.890 -0.023
  0.025 -0.023  0.917
atom    6   Tr[ns(na)] =   5.43362
    eigenvalues: 
  0.841  0.930  0.946
    eigenvectors:
  0.338  0.000  0.662
  0.000  1.000  0.000
  0.662  0.000  0.338
    occupations:
  0.911  0.000 -0.050
  0.000  0.930  0.000
 -0.050  0.000  0.876
atom    7   Tr[ns(na)] =   5.43362
    eigenvalues: 
  0.841  0.930  0.946
    eigenvectors:
  0.338  0.000  0.662
  0.495  0.252  0.253
  0.167  0.748  0.085
    occupations:
  0.911 -0.043  0.025
 -0.043  0.890  0.023
  0.025  0.023  0.916
atom    8   Tr[ns(na)] =   5.43362
    eigenvalues: 
  0.841  0.930  0.946
    eigenvectors:
  0.338  0.000  0.662
  0.000  1.000  0.000
  0.662  0.000  0.338
    occupations:
  0.911  0.000 -0.050
  0.000  0.930  0.000
 -0.050  0.000  0.876
atom    9   Tr[ns(na)] =   5.43362
    eigenvalues: 
  0.841  0.930  0.946
    eigenvectors:
  0.338  0.000  0.662
  0.498  0.248  0.254
  0.164  0.752  0.084
    occupations:
  0.911  0.043  0.025
  0.043  0.890 -0.023
  0.025 -0.023  0.917
atom   10   Tr[ns(na)] =   5.43362
    eigenvalues: 
  0.841  0.930  0.946
    eigenvectors:
  0.338  0.000  0.662
  0.495  0.252  0.253
  0.167  0.748  0.085
    occupations:
  0.911 -0.043  0.025
 -0.043  0.890  0.023
  0.025  0.023  0.916
N of occupied +U levels =  56.2846283
 --- exit write_ns ---
 --- in v_hubbard ---
Hubbard energy    0.2938
 -------

     total cpu time spent up to now is      144.3 secs

     total energy              =    -538.01666309 Ry
     Harris-Foulkes estimate   =    -538.01660684 Ry
     estimated scf accuracy    <       0.00003183 Ry

     iteration #  7     ecut=    30.00 Ry     beta=0.20
     Davidson diagonalization with overlap
     ethr =  4.19E-08,  avg # of iterations =  1.7
 --- enter write_ns ---
 LDA+U parameters:
U( 1)     =  3.00000000
alpha( 1) =  0.10000000
U( 2)     =  3.00000000
alpha( 2) =  0.00000000
U( 3)     =  0.00000000
alpha( 3) =  0.00000000
U( 4)     =  0.00000000
alpha( 4) =  0.00000000
atom    1   Tr[ns(na)] =   8.04199
    eigenvalues: 
  0.529  0.529  0.987  0.987  0.989
    eigenvectors:
  0.000  0.000  0.000  0.000  1.000
  0.336  0.322  0.004  0.338  0.000
  0.322  0.336  0.338  0.004  0.000
  0.285  0.058  0.517  0.141  0.000
  0.058  0.285  0.141  0.517  0.000
    occupations:
  0.989  0.000  0.000  0.000  0.000
  0.000  0.686  0.000 -0.079  0.202
  0.000  0.000  0.686  0.202  0.079
  0.000 -0.079  0.202  0.830  0.000
  0.000  0.202  0.079  0.000  0.830
atom    2   Tr[ns(na)] =   8.05021
    eigenvalues: 
  0.530  0.530  0.988  0.988  0.990
    eigenvectors:
  0.000  0.000  0.000  0.000  1.000
  0.639  0.018  0.220  0.122  0.000
  0.018  0.639  0.122  0.220  0.000
  0.014  0.328  0.473  0.185  0.000
  0.328  0.014  0.185  0.473  0.000
    occupations:
  0.990  0.000  0.000  0.000  0.000
  0.000  0.686  0.000  0.079  0.202
  0.000  0.000  0.686  0.202 -0.079
  0.000  0.079  0.202  0.831  0.000
  0.000  0.202 -0.079  0.000  0.831
atom    3   Tr[ns(na)] =   3.79495
    eigenvalues: 
  0.356  0.356  0.382  0.402  0.402
    eigenvectors:
  0.000  0.000  1.000  0.000  0.000
  0.782  0.139  0.000  0.012  0.067
  0.139  0.782  0.000  0.067  0.012
  0.012  0.067  0.000  0.780  0.141
  0.067  0.012  0.000  0.141  0.780
    occupations:
  0.382  0.000  0.000  0.000  0.000
  0.000  0.360  0.000  0.000  0.012
  0.000  0.000  0.360  0.012  0.000
  0.000  0.000  0.012  0.398  0.000
  0.000  0.012  0.000  0.000  0.398
atom    4   Tr[ns(na)] =   3.79495
    eigenvalues: 
  0.356  0.356  0.382  0.402  0.402
    eigenvectors:
  0.000  0.000  1.000  0.000  0.000
  0.782  0.139  0.000  0.012  0.067
  0.139  0.782  0.000  0.067  0.012
  0.012  0.067  0.000  0.780  0.141
  0.067  0.012  0.000  0.141  0.780
    occupations:
  0.382  0.000  0.000  0.000  0.000
  0.000  0.360  0.000  0.000  0.012
  0.000  0.000  0.360  0.012  0.000
  0.000  0.000  0.012  0.398  0.000
  0.000  0.012  0.000  0.000  0.398
atom    5   Tr[ns(na)] =   5.43363
    eigenvalues: 
  0.841  0.930  0.946
    eigenvectors:
  0.338  0.000  0.662
  0.498  0.248  0.254
  0.164  0.752  0.084
    occupations:
  0.911  0.043  0.025
  0.043  0.890 -0.023
  0.025 -0.023  0.917
atom    6   Tr[ns(na)] =   5.43363
    eigenvalues: 
  0.841  0.930  0.946
    eigenvectors:
  0.338  0.000  0.662
  0.000  1.000  0.000
  0.662  0.000  0.338
    occupations:
  0.911  0.000 -0.050
  0.000  0.930  0.000
 -0.050  0.000  0.876
atom    7   Tr[ns(na)] =   5.43363
    eigenvalues: 
  0.841  0.930  0.946
    eigenvectors:
  0.338  0.000  0.662
  0.495  0.252  0.253
  0.167  0.748  0.085
    occupations:
  0.911 -0.043  0.025
 -0.043  0.890  0.023
  0.025  0.023  0.916
atom    8   Tr[ns(na)] =   5.43363
    eigenvalues: 
  0.841  0.930  0.946
    eigenvectors:
  0.338  0.000  0.662
  0.000  1.000  0.000
  0.662  0.000  0.338
    occupations:
  0.911  0.000 -0.050
  0.000  0.930  0.000
 -0.050  0.000  0.876
atom    9   Tr[ns(na)] =   5.43363
    eigenvalues: 
  0.841  0.930  0.946
    eigenvectors:
  0.338  0.000  0.662
  0.498  0.248  0.254
  0.164  0.752  0.084
    occupations:
  0.911  0.043  0.025
  0.043  0.890 -0.023
  0.025 -0.023  0.917
atom   10   Tr[ns(na)] =   5.43363
    eigenvalues: 
  0.841  0.930  0.946
    eigenvectors:
  0.338  0.000  0.662
  0.495  0.252  0.253
  0.167  0.748  0.085
    occupations:
  0.911 -0.043  0.025
 -0.043  0.890  0.023
  0.025  0.023  0.916
N of occupied +U levels =  56.2838736
 --- exit write_ns ---
 --- in v_hubbard ---
Hubbard energy    0.2940
 -------

     total cpu time spent up to now is      160.6 secs

     total energy              =    -538.01671928 Ry
     Harris-Foulkes estimate   =    -538.01666652 Ry
     estimated scf accuracy    <       0.00000648 Ry

     iteration #  8     ecut=    30.00 Ry     beta=0.20
     Davidson diagonalization with overlap
     ethr =  8.52E-09,  avg # of iterations =  1.5
 --- enter write_ns ---
 LDA+U parameters:
U( 1)     =  3.00000000
alpha( 1) =  0.10000000
U( 2)     =  3.00000000
alpha( 2) =  0.00000000
U( 3)     =  0.00000000
alpha( 3) =  0.00000000
U( 4)     =  0.00000000
alpha( 4) =  0.00000000
atom    1   Tr[ns(na)] =   8.04181
    eigenvalues: 
  0.529  0.529  0.987  0.987  0.989
    eigenvectors:
  0.000  0.000  0.000  0.000  1.000
  0.336  0.322  0.004  0.338  0.000
  0.322  0.336  0.338  0.004  0.000
  0.285  0.058  0.517  0.141  0.000
  0.058  0.285  0.141  0.517  0.000
    occupations:
  0.989  0.000  0.000  0.000  0.000
  0.000  0.686  0.000 -0.079  0.202
  0.000  0.000  0.686  0.202  0.079
  0.000 -0.079  0.202  0.830  0.000
  0.000  0.202  0.079  0.000  0.830
atom    2   Tr[ns(na)] =   8.05194
    eigenvalues: 
  0.530  0.530  0.988  0.988  0.990
    eigenvectors:
  0.000  0.000  0.000  0.000  1.000
  0.639  0.019  0.220  0.122  0.000
  0.019  0.639  0.122  0.220  0.000
  0.014  0.328  0.473  0.185  0.000
  0.328  0.014  0.185  0.473  0.000
    occupations:
  0.990  0.000  0.000  0.000  0.000
  0.000  0.687  0.000  0.079  0.202
  0.000  0.000  0.687  0.202 -0.079
  0.000  0.079  0.202  0.831  0.000
  0.000  0.202 -0.079  0.000  0.831
atom    3   Tr[ns(na)] =   3.79510
    eigenvalues: 
  0.356  0.356  0.382  0.402  0.402
    eigenvectors:
  0.000  0.000  1.000  0.000  0.000
  0.782  0.139  0.000  0.012  0.067
  0.139  0.782  0.000  0.067  0.012
  0.012  0.067  0.000  0.780  0.141
  0.067  0.012  0.000  0.141  0.780
    occupations:
  0.382  0.000  0.000  0.000  0.000
  0.000  0.360  0.000  0.000  0.012
  0.000  0.000  0.360  0.012  0.000
  0.000  0.000  0.012  0.398  0.000
  0.000  0.012  0.000  0.000  0.398
atom    4   Tr[ns(na)] =   3.79510
    eigenvalues: 
  0.356  0.356  0.382  0.402  0.402
    eigenvectors:
  0.000  0.000  1.000  0.000  0.000
  0.782  0.139  0.000  0.012  0.067
  0.139  0.782  0.000  0.067  0.012
  0.012  0.067  0.000  0.780  0.141
  0.067  0.012  0.000  0.141  0.780
    occupations:
  0.382  0.000  0.000  0.000  0.000
  0.000  0.360  0.000  0.000  0.012
  0.000  0.000  0.360  0.012  0.000
  0.000  0.000  0.012  0.398  0.000
  0.000  0.012  0.000  0.000  0.398
atom    5   Tr[ns(na)] =   5.43336
    eigenvalues: 
  0.841  0.930  0.946
    eigenvectors:
  0.338  0.000  0.662
  0.498  0.248  0.254
  0.164  0.752  0.084
    occupations:
  0.911  0.043  0.025
  0.043  0.890 -0.023
  0.025 -0.023  0.917
atom    6   Tr[ns(na)] =   5.43336
    eigenvalues: 
  0.841  0.930  0.946
    eigenvectors:
  0.338  0.000  0.662
  0.000  1.000  0.000
  0.662  0.000  0.338
    occupations:
  0.911  0.000 -0.050
  0.000  0.930  0.000
 -0.050  0.000  0.876
atom    7   Tr[ns(na)] =   5.43336
    eigenvalues: 
  0.841  0.930  0.946
    eigenvectors:
  0.338  0.000  0.662
  0.495  0.252  0.253
  0.167  0.748  0.085
    occupations:
  0.911 -0.043  0.025
 -0.043  0.890  0.023
  0.025  0.023  0.916
atom    8   Tr[ns(na)] =   5.43336
    eigenvalues: 
  0.841  0.930  0.946
    eigenvectors:
  0.338  0.000  0.662
  0.000  1.000  0.000
  0.662  0.000  0.338
    occupations:
  0.911  0.000 -0.050
  0.000  0.930  0.000
 -0.050  0.000  0.876
atom    9   Tr[ns(na)] =   5.43336
    eigenvalues: 
  0.841  0.930  0.946
    eigenvectors:
  0.338  0.000  0.662
  0.498  0.248  0.254
  0.164  0.752  0.084
    occupations:
  0.911  0.043  0.025
  0.043  0.890 -0.023
  0.025 -0.023  0.917
atom   10   Tr[ns(na)] =   5.43336
    eigenvalues: 
  0.841  0.930  0.946
    eigenvectors:
  0.338  0.000  0.662
  0.495  0.252  0.253
  0.167  0.748  0.085
    occupations:
  0.911 -0.043  0.025
 -0.043  0.890  0.023
  0.025  0.023  0.916
N of occupied +U levels =  56.2840941
 --- exit write_ns ---
 --- in v_hubbard ---
Hubbard energy    0.2942
 -------

     total cpu time spent up to now is      177.4 secs

     total energy              =    -538.01675180 Ry
     Harris-Foulkes estimate   =    -538.01671980 Ry
     estimated scf accuracy    <       0.00000083 Ry

     iteration #  9     ecut=    30.00 Ry     beta=0.20
     Davidson diagonalization with overlap
     ethr =  1.10E-09,  avg # of iterations =  2.6
 --- enter write_ns ---
 LDA+U parameters:
U( 1)     =  3.00000000
alpha( 1) =  0.10000000
U( 2)     =  3.00000000
alpha( 2) =  0.00000000
U( 3)     =  0.00000000
alpha( 3) =  0.00000000
U( 4)     =  0.00000000
alpha( 4) =  0.00000000
atom    1   Tr[ns(na)] =   8.04189
    eigenvalues: 
  0.529  0.529  0.987  0.987  0.989
    eigenvectors:
  0.000  0.000  0.000  0.000  1.000
  0.336  0.322  0.004  0.338  0.000
  0.322  0.336  0.338  0.004  0.000
  0.285  0.058  0.517  0.141  0.000
  0.058  0.285  0.141  0.517  0.000
    occupations:
  0.989  0.000  0.000  0.000  0.000
  0.000  0.686  0.000 -0.079  0.202
  0.000  0.000  0.686  0.202  0.079
  0.000 -0.079  0.202  0.830  0.000
  0.000  0.202  0.079  0.000  0.830
atom    2   Tr[ns(na)] =   8.05219
    eigenvalues: 
  0.530  0.530  0.988  0.988  0.990
    eigenvectors:
  0.000  0.000  0.000  0.000  1.000
  0.639  0.019  0.220  0.122  0.000
  0.019  0.639  0.122  0.220  0.000
  0.014  0.328  0.473  0.185  0.000
  0.328  0.014  0.185  0.473  0.000
    occupations:
  0.990  0.000  0.000  0.000  0.000
  0.000  0.687  0.000  0.079  0.202
  0.000  0.000  0.687  0.202 -0.079
  0.000  0.079  0.202  0.831  0.000
  0.000  0.202 -0.079  0.000  0.831
atom    3   Tr[ns(na)] =   3.79543
    eigenvalues: 
  0.356  0.356  0.382  0.402  0.402
    eigenvectors:
  0.000  0.000  1.000  0.000  0.000
  0.782  0.139  0.000  0.012  0.067
  0.139  0.782  0.000  0.067  0.012
  0.012  0.067  0.000  0.780  0.141
  0.067  0.012  0.000  0.141  0.780
    occupations:
  0.382  0.000  0.000  0.000  0.000
  0.000  0.360  0.000  0.000  0.012
  0.000  0.000  0.360  0.012  0.000
  0.000  0.000  0.012  0.398  0.000
  0.000  0.012  0.000  0.000  0.398
atom    4   Tr[ns(na)] =   3.79543
    eigenvalues: 
  0.356  0.356  0.382  0.402  0.402
    eigenvectors:
  0.000  0.000  1.000  0.000  0.000
  0.782  0.139  0.000  0.012  0.067
  0.139  0.782  0.000  0.067  0.012
  0.012  0.067  0.000  0.780  0.141
  0.067  0.012  0.000  0.141  0.780
    occupations:
  0.382  0.000  0.000  0.000  0.000
  0.000  0.360  0.000  0.000  0.012
  0.000  0.000  0.360  0.012  0.000
  0.000  0.000  0.012  0.398  0.000
  0.000  0.012  0.000  0.000  0.398
atom    5   Tr[ns(na)] =   5.43322
    eigenvalues: 
  0.841  0.930  0.946
    eigenvectors:
  0.338  0.000  0.662
  0.498  0.248  0.254
  0.164  0.752  0.084
    occupations:
  0.911  0.043  0.025
  0.043  0.890 -0.023
  0.025 -0.023  0.917
atom    6   Tr[ns(na)] =   5.43322
    eigenvalues: 
  0.841  0.930  0.946
    eigenvectors:
  0.338  0.000  0.662
  0.000  1.000  0.000
  0.662  0.000  0.338
    occupations:
  0.911  0.000 -0.050
  0.000  0.930  0.000
 -0.050  0.000  0.876
atom    7   Tr[ns(na)] =   5.43322
    eigenvalues: 
  0.841  0.930  0.946
    eigenvectors:
  0.338  0.000  0.662
  0.495  0.252  0.253
  0.167  0.748  0.085
    occupations:
  0.911 -0.043  0.025
 -0.043  0.890  0.023
  0.025  0.023  0.916
atom    8   Tr[ns(na)] =   5.43322
    eigenvalues: 
  0.841  0.930  0.946
    eigenvectors:
  0.338  0.000  0.662
  0.000  1.000  0.000
  0.662  0.000  0.338
    occupations:
  0.911  0.000 -0.050
  0.000  0.930  0.000
 -0.050  0.000  0.876
atom    9   Tr[ns(na)] =   5.43322
    eigenvalues: 
  0.841  0.930  0.946
    eigenvectors:
  0.338  0.000  0.662
  0.498  0.248  0.254
  0.164  0.752  0.084
    occupations:
  0.911  0.043  0.025
  0.043  0.890 -0.023
  0.025 -0.023  0.917
atom   10   Tr[ns(na)] =   5.43322
    eigenvalues: 
  0.841  0.930  0.946
    eigenvectors:
  0.338  0.000  0.662
  0.495  0.252  0.253
  0.167  0.748  0.085
    occupations:
  0.911 -0.043  0.025
 -0.043  0.890  0.023
  0.025  0.023  0.916
N of occupied +U levels =  56.2842307
 --- exit write_ns ---
 --- in v_hubbard ---
Hubbard energy    0.2942
 -------

     total cpu time spent up to now is      199.1 secs

     total energy              =    -538.01677263 Ry
     Harris-Foulkes estimate   =    -538.01675196 Ry
     estimated scf accuracy    <       0.00000022 Ry

     iteration # 10     ecut=    30.00 Ry     beta=0.20
     Davidson diagonalization with overlap
     ethr =  2.87E-10,  avg # of iterations =  1.0
 --- enter write_ns ---
 LDA+U parameters:
U( 1)     =  3.00000000
alpha( 1) =  0.10000000
U( 2)     =  3.00000000
alpha( 2) =  0.00000000
U( 3)     =  0.00000000
alpha( 3) =  0.00000000
U( 4)     =  0.00000000
alpha( 4) =  0.00000000
atom    1   Tr[ns(na)] =   8.04197
    eigenvalues: 
  0.529  0.529  0.987  0.987  0.989
    eigenvectors:
  0.000  0.000  0.000  0.000  1.000
  0.336  0.322  0.004  0.338  0.000
  0.322  0.336  0.338  0.004  0.000
  0.284  0.058  0.517  0.141  0.000
  0.058  0.284  0.141  0.517  0.000
    occupations:
  0.989  0.000  0.000  0.000  0.000
  0.000  0.686  0.000 -0.079  0.202
  0.000  0.000  0.686  0.202  0.079
  0.000 -0.079  0.202  0.830  0.000
  0.000  0.202  0.079  0.000  0.830
atom    2   Tr[ns(na)] =   8.05198
    eigenvalues: 
  0.530  0.530  0.988  0.988  0.990
    eigenvectors:
  0.000  0.000  0.000  0.000  1.000
  0.639  0.019  0.220  0.122  0.000
  0.019  0.639  0.122  0.220  0.000
  0.014  0.328  0.473  0.185  0.000
  0.328  0.014  0.185  0.473  0.000
    occupations:
  0.990  0.000  0.000  0.000  0.000
  0.000  0.687  0.000  0.079  0.202
  0.000  0.000  0.687  0.202 -0.079
  0.000  0.079  0.202  0.831  0.000
  0.000  0.202 -0.079  0.000  0.831
atom    3   Tr[ns(na)] =   3.79536
    eigenvalues: 
  0.356  0.356  0.382  0.402  0.402
    eigenvectors:
  0.000  0.000  1.000  0.000  0.000
  0.782  0.139  0.000  0.012  0.067
  0.139  0.782  0.000  0.067  0.012
  0.012  0.067  0.000  0.780  0.141
  0.067  0.012  0.000  0.141  0.780
    occupations:
  0.382  0.000  0.000  0.000  0.000
  0.000  0.360  0.000  0.000  0.012
  0.000  0.000  0.360  0.012  0.000
  0.000  0.000  0.012  0.398  0.000
  0.000  0.012  0.000  0.000  0.398
atom    4   Tr[ns(na)] =   3.79536
    eigenvalues: 
  0.356  0.356  0.382  0.402  0.402
    eigenvectors:
  0.000  0.000  1.000  0.000  0.000
  0.782  0.139  0.000  0.012  0.067
  0.139  0.782  0.000  0.067  0.012
  0.012  0.067  0.000  0.780  0.141
  0.067  0.012  0.000  0.141  0.780
    occupations:
  0.382  0.000  0.000  0.000  0.000
  0.000  0.360  0.000  0.000  0.012
  0.000  0.000  0.360  0.012  0.000
  0.000  0.000  0.012  0.398  0.000
  0.000  0.012  0.000  0.000  0.398
atom    5   Tr[ns(na)] =   5.43325
    eigenvalues: 
  0.841  0.930  0.946
    eigenvectors:
  0.338  0.000  0.662
  0.498  0.248  0.254
  0.164  0.752  0.084
    occupations:
  0.911  0.043  0.025
  0.043  0.890 -0.023
  0.025 -0.023  0.917
atom    6   Tr[ns(na)] =   5.43325
    eigenvalues: 
  0.841  0.930  0.946
    eigenvectors:
  0.338  0.000  0.662
  0.000  1.000  0.000
  0.662  0.000  0.338
    occupations:
  0.911  0.000 -0.050
  0.000  0.930  0.000
 -0.050  0.000  0.876
atom    7   Tr[ns(na)] =   5.43325
    eigenvalues: 
  0.841  0.930  0.946
    eigenvectors:
  0.338  0.000  0.662
  0.495  0.252  0.253
  0.167  0.748  0.085
    occupations:
  0.911 -0.043  0.025
 -0.043  0.890  0.023
  0.025  0.023  0.916
atom    8   Tr[ns(na)] =   5.43325
    eigenvalues: 
  0.841  0.930  0.946
    eigenvectors:
  0.338  0.000  0.662
  0.000  1.000  0.000
  0.662  0.000  0.338
    occupations:
  0.911  0.000 -0.050
  0.000  0.930  0.000
 -0.050  0.000  0.876
atom    9   Tr[ns(na)] =   5.43325
    eigenvalues: 
  0.841  0.930  0.946
    eigenvectors:
  0.338  0.000  0.662
  0.498  0.248  0.254
  0.164  0.752  0.084
    occupations:
  0.911  0.043  0.025
  0.043  0.890 -0.023
  0.025 -0.023  0.917
atom   10   Tr[ns(na)] =   5.43325
    eigenvalues: 
  0.841  0.930  0.946
    eigenvectors:
  0.338  0.000  0.662
  0.495  0.252  0.253
  0.167  0.748  0.085
    occupations:
  0.911 -0.043  0.025
 -0.043  0.890  0.023
  0.025  0.023  0.916
N of occupied +U levels =  56.2841589
 --- exit write_ns ---
 --- in v_hubbard ---
Hubbard energy    0.2943
 -------

     total cpu time spent up to now is      219.8 secs

     total energy              =    -538.01678625 Ry
     Harris-Foulkes estimate   =    -538.01677265 Ry
     estimated scf accuracy    <       0.00000016 Ry

     iteration # 11     ecut=    30.00 Ry     beta=0.20
     Davidson diagonalization with overlap
     ethr =  2.12E-10,  avg # of iterations =  1.2
 --- enter write_ns ---
 LDA+U parameters:
U( 1)     =  3.00000000
alpha( 1) =  0.10000000
U( 2)     =  3.00000000
alpha( 2) =  0.00000000
U( 3)     =  0.00000000
alpha( 3) =  0.00000000
U( 4)     =  0.00000000
alpha( 4) =  0.00000000
atom    1   Tr[ns(na)] =   8.04165
    eigenvalues: 
  0.529  0.529  0.987  0.987  0.989
    eigenvectors:
  0.000  0.000  0.000  0.000  1.000
  0.336  0.322  0.004  0.338  0.000
  0.322  0.336  0.338  0.004  0.000
  0.285  0.057  0.517  0.141  0.000
  0.057  0.285  0.141  0.517  0.000
    occupations:
  0.989  0.000  0.000  0.000  0.000
  0.000  0.686  0.000 -0.079  0.202
  0.000  0.000  0.686  0.202  0.079
  0.000 -0.079  0.202  0.830  0.000
  0.000  0.202  0.079  0.000  0.830
atom    2   Tr[ns(na)] =   8.05199
    eigenvalues: 
  0.530  0.530  0.988  0.988  0.990
    eigenvectors:
  0.000  0.000  0.000  0.000  1.000
  0.639  0.019  0.220  0.122  0.000
  0.019  0.639  0.122  0.220  0.000
  0.014  0.328  0.473  0.185  0.000
  0.328  0.014  0.185  0.473  0.000
    occupations:
  0.990  0.000  0.000  0.000  0.000
  0.000  0.687  0.000  0.079  0.202
  0.000  0.000  0.687  0.202 -0.079
  0.000  0.079  0.202  0.831  0.000
  0.000  0.202 -0.079  0.000  0.831
atom    3   Tr[ns(na)] =   3.79531
    eigenvalues: 
  0.356  0.356  0.382  0.402  0.402
    eigenvectors:
  0.000  0.000  1.000  0.000  0.000
  0.782  0.139  0.000  0.012  0.067
  0.139  0.782  0.000  0.067  0.012
  0.012  0.067  0.000  0.780  0.141
  0.067  0.012  0.000  0.141  0.780
    occupations:
  0.382  0.000  0.000  0.000  0.000
  0.000  0.360  0.000  0.000  0.012
  0.000  0.000  0.360  0.012  0.000
  0.000  0.000  0.012  0.398  0.000
  0.000  0.012  0.000  0.000  0.398
atom    4   Tr[ns(na)] =   3.79531
    eigenvalues: 
  0.356  0.356  0.382  0.402  0.402
    eigenvectors:
  0.000  0.000  1.000  0.000  0.000
  0.782  0.139  0.000  0.012  0.067
  0.139  0.782  0.000  0.067  0.012
  0.012  0.067  0.000  0.780  0.141
  0.067  0.012  0.000  0.141  0.780
    occupations:
  0.382  0.000  0.000  0.000  0.000
  0.000  0.360  0.000  0.000  0.012
  0.000  0.000  0.360  0.012  0.000
  0.000  0.000  0.012  0.398  0.000
  0.000  0.012  0.000  0.000  0.398
atom    5   Tr[ns(na)] =   5.43331
    eigenvalues: 
  0.841  0.930  0.946
    eigenvectors:
  0.338  0.000  0.662
  0.498  0.248  0.254
  0.164  0.752  0.084
    occupations:
  0.911  0.043  0.025
  0.043  0.890 -0.023
  0.025 -0.023  0.917
atom    6   Tr[ns(na)] =   5.43331
    eigenvalues: 
  0.841  0.930  0.946
    eigenvectors:
  0.338  0.000  0.662
  0.000  1.000  0.000
  0.662  0.000  0.338
    occupations:
  0.911  0.000 -0.050
  0.000  0.930  0.000
 -0.050  0.000  0.876
atom    7   Tr[ns(na)] =   5.43331
    eigenvalues: 
  0.841  0.930  0.946
    eigenvectors:
  0.338  0.000  0.662
  0.495  0.252  0.253
  0.167  0.748  0.085
    occupations:
  0.911 -0.043  0.025
 -0.043  0.890  0.023
  0.025  0.023  0.916
atom    8   Tr[ns(na)] =   5.43331
    eigenvalues: 
  0.841  0.930  0.946
    eigenvectors:
  0.338  0.000  0.662
  0.000  1.000  0.000
  0.662  0.000  0.338
    occupations:
  0.911  0.000 -0.050
  0.000  0.930  0.000
 -0.050  0.000  0.876
atom    9   Tr[ns(na)] =   5.43331
    eigenvalues: 
  0.841  0.930  0.946
    eigenvectors:
  0.338  0.000  0.662
  0.498  0.248  0.254
  0.164  0.752  0.084
    occupations:
  0.911  0.043  0.025
  0.043  0.890 -0.023
  0.025 -0.023  0.917
atom   10   Tr[ns(na)] =   5.43331
    eigenvalues: 
  0.841  0.930  0.946
    eigenvectors:
  0.338  0.000  0.662
  0.495  0.252  0.253
  0.167  0.748  0.085
    occupations:
  0.911 -0.043  0.025
 -0.043  0.890  0.023
  0.025  0.023  0.916
N of occupied +U levels =  56.2840945
 --- exit write_ns ---
 --- in v_hubbard ---
Hubbard energy    0.2943
 -------

     total cpu time spent up to now is      236.9 secs

     total energy              =    -538.01679486 Ry
     Harris-Foulkes estimate   =    -538.01678627 Ry
     estimated scf accuracy    <       0.00000002 Ry

     iteration # 12     ecut=    30.00 Ry     beta=0.20
     Davidson diagonalization with overlap
     ethr =  2.01E-11,  avg # of iterations =  2.6
 --- enter write_ns ---
 LDA+U parameters:
U( 1)     =  3.00000000
alpha( 1) =  0.10000000
U( 2)     =  3.00000000
alpha( 2) =  0.00000000
U( 3)     =  0.00000000
alpha( 3) =  0.00000000
U( 4)     =  0.00000000
alpha( 4) =  0.00000000
atom    1   Tr[ns(na)] =   8.04175
    eigenvalues: 
  0.529  0.529  0.987  0.987  0.989
    eigenvectors:
  0.000  0.000  0.000  0.000  1.000
  0.336  0.322  0.004  0.338  0.000
  0.322  0.336  0.338  0.004  0.000
  0.285  0.057  0.517  0.141  0.000
  0.057  0.285  0.141  0.517  0.000
    occupations:
  0.989  0.000  0.000  0.000  0.000
  0.000  0.686  0.000 -0.079  0.202
  0.000  0.000  0.686  0.202  0.079
  0.000 -0.079  0.202  0.830  0.000
  0.000  0.202  0.079  0.000  0.830
atom    2   Tr[ns(na)] =   8.05219
    eigenvalues: 
  0.530  0.530  0.988  0.988  0.990
    eigenvectors:
  0.000  0.000  0.000  0.000  1.000
  0.639  0.019  0.220  0.122  0.000
  0.019  0.639  0.122  0.220  0.000
  0.014  0.328  0.473  0.185  0.000
  0.328  0.014  0.185  0.473  0.000
    occupations:
  0.990  0.000  0.000  0.000  0.000
  0.000  0.687  0.000  0.079  0.202
  0.000  0.000  0.687  0.202 -0.079
  0.000  0.079  0.202  0.831  0.000
  0.000  0.202 -0.079  0.000  0.831
atom    3   Tr[ns(na)] =   3.79537
    eigenvalues: 
  0.356  0.356  0.382  0.402  0.402
    eigenvectors:
  0.000  0.000  1.000  0.000  0.000
  0.783  0.138  0.000  0.012  0.067
  0.138  0.783  0.000  0.067  0.012
  0.012  0.067  0.000  0.780  0.141
  0.067  0.012  0.000  0.141  0.780
    occupations:
  0.382  0.000  0.000  0.000  0.000
  0.000  0.360  0.000  0.000  0.012
  0.000  0.000  0.360  0.012  0.000
  0.000  0.000  0.012  0.398  0.000
  0.000  0.012  0.000  0.000  0.398
atom    4   Tr[ns(na)] =   3.79537
    eigenvalues: 
  0.356  0.356  0.382  0.402  0.402
    eigenvectors:
  0.000  0.000  1.000  0.000  0.000
  0.783  0.139  0.000  0.012  0.067
  0.139  0.783  0.000  0.067  0.012
  0.012  0.067  0.000  0.781  0.141
  0.067  0.012  0.000  0.141  0.781
    occupations:
  0.382  0.000  0.000  0.000  0.000
  0.000  0.360  0.000  0.000  0.012
  0.000  0.000  0.360  0.012  0.000
  0.000  0.000  0.012  0.398  0.000
  0.000  0.012  0.000  0.000  0.398
atom    5   Tr[ns(na)] =   5.43325
    eigenvalues: 
  0.841  0.930  0.946
    eigenvectors:
  0.338  0.000  0.662
  0.498  0.248  0.254
  0.164  0.752  0.084
    occupations:
  0.911  0.043  0.025
  0.043  0.890 -0.023
  0.025 -0.023  0.917
atom    6   Tr[ns(na)] =   5.43325
    eigenvalues: 
  0.841  0.930  0.946
    eigenvectors:
  0.338  0.000  0.662
  0.000  1.000  0.000
  0.662  0.000  0.338
    occupations:
  0.911  0.000 -0.050
  0.000  0.930  0.000
 -0.050  0.000  0.876
atom    7   Tr[ns(na)] =   5.43325
    eigenvalues: 
  0.841  0.930  0.946
    eigenvectors:
  0.338  0.000  0.662
  0.495  0.252  0.253
  0.167  0.748  0.085
    occupations:
  0.911 -0.043  0.025
 -0.043  0.890  0.023
  0.025  0.023  0.916
atom    8   Tr[ns(na)] =   5.43325
    eigenvalues: 
  0.841  0.930  0.946
    eigenvectors:
  0.338  0.000  0.662
  0.000  1.000  0.000
  0.662  0.000  0.338
    occupations:
  0.911  0.000 -0.050
  0.000  0.930  0.000
 -0.050  0.000  0.876
atom    9   Tr[ns(na)] =   5.43325
    eigenvalues: 
  0.841  0.930  0.946
    eigenvectors:
  0.338  0.000  0.662
  0.498  0.248  0.254
  0.164  0.752  0.084
    occupations:
  0.911  0.043  0.025
  0.043  0.890 -0.023
  0.025 -0.023  0.917
atom   10   Tr[ns(na)] =   5.43325
    eigenvalues: 
  0.841  0.930  0.946
    eigenvectors:
  0.338  0.000  0.662
  0.495  0.252  0.253
  0.167  0.748  0.085
    occupations:
  0.911 -0.043  0.025
 -0.043  0.890  0.023
  0.025  0.023  0.916
N of occupied +U levels =  56.2841517
 --- exit write_ns ---
 --- in v_hubbard ---
Hubbard energy    0.2943
 -------

     total cpu time spent up to now is      257.3 secs

     total energy              =    -538.01680045 Ry
     Harris-Foulkes estimate   =    -538.01679487 Ry
     estimated scf accuracy    <       0.00000006 Ry

     iteration # 13     ecut=    30.00 Ry     beta=0.20
     Davidson diagonalization with overlap
     ethr =  2.01E-11,  avg # of iterations =  2.0
 --- enter write_ns ---
 LDA+U parameters:
U( 1)     =  3.00000000
alpha( 1) =  0.10000000
U( 2)     =  3.00000000
alpha( 2) =  0.00000000
U( 3)     =  0.00000000
alpha( 3) =  0.00000000
U( 4)     =  0.00000000
alpha( 4) =  0.00000000
atom    1   Tr[ns(na)] =   8.04172
    eigenvalues: 
  0.529  0.529  0.987  0.987  0.989
    eigenvectors:
  0.000  0.000  0.000  0.000  1.000
  0.336  0.322  0.004  0.338  0.000
  0.322  0.336  0.338  0.004  0.000
  0.285  0.058  0.517  0.141  0.000
  0.058  0.285  0.141  0.517  0.000
    occupations:
  0.989  0.000  0.000  0.000  0.000
  0.000  0.686  0.000 -0.079  0.202
  0.000  0.000  0.686  0.202  0.079
  0.000 -0.079  0.202  0.830  0.000
  0.000  0.202  0.079  0.000  0.830
atom    2   Tr[ns(na)] =   8.05205
    eigenvalues: 
  0.530  0.530  0.988  0.988  0.990
    eigenvectors:
  0.000  0.000  0.000  0.000  1.000
  0.639  0.019  0.220  0.122  0.000
  0.019  0.639  0.122  0.220  0.000
  0.014  0.328  0.473  0.185  0.000
  0.328  0.014  0.185  0.473  0.000
    occupations:
  0.990  0.000  0.000  0.000  0.000
  0.000  0.687  0.000  0.079  0.202
  0.000  0.000  0.687  0.202 -0.079
  0.000  0.079  0.202  0.831  0.000
  0.000  0.202 -0.079  0.000  0.831
atom    3   Tr[ns(na)] =   3.79532
    eigenvalues: 
  0.356  0.356  0.382  0.402  0.402
    eigenvectors:
  0.000  0.000  1.000  0.000  0.000
  0.782  0.139  0.000  0.012  0.067
  0.139  0.782  0.000  0.067  0.012
  0.012  0.067  0.000  0.780  0.141
  0.067  0.012  0.000  0.141  0.780
    occupations:
  0.382  0.000  0.000  0.000  0.000
  0.000  0.360  0.000  0.000  0.012
  0.000  0.000  0.360  0.012  0.000
  0.000  0.000  0.012  0.398  0.000
  0.000  0.012  0.000  0.000  0.398
atom    4   Tr[ns(na)] =   3.79532
    eigenvalues: 
  0.356  0.356  0.382  0.402  0.402
    eigenvectors:
  0.000  0.000  1.000  0.000  0.000
  0.782  0.139  0.000  0.012  0.067
  0.139  0.782  0.000  0.067  0.012
  0.012  0.067  0.000  0.780  0.141
  0.067  0.012  0.000  0.141  0.780
    occupations:
  0.382  0.000  0.000  0.000  0.000
  0.000  0.360  0.000  0.000  0.012
  0.000  0.000  0.360  0.012  0.000
  0.000  0.000  0.012  0.398  0.000
  0.000  0.012  0.000  0.000  0.398
atom    5   Tr[ns(na)] =   5.43328
    eigenvalues: 
  0.841  0.930  0.946
    eigenvectors:
  0.338  0.000  0.662
  0.498  0.248  0.254
  0.164  0.752  0.084
    occupations:
  0.911  0.043  0.025
  0.043  0.890 -0.023
  0.025 -0.023  0.917
atom    6   Tr[ns(na)] =   5.43328
    eigenvalues: 
  0.841  0.930  0.946
    eigenvectors:
  0.338  0.000  0.662
  0.000  1.000  0.000
  0.662  0.000  0.338
    occupations:
  0.911  0.000 -0.050
  0.000  0.930  0.000
 -0.050  0.000  0.876
atom    7   Tr[ns(na)] =   5.43328
    eigenvalues: 
  0.841  0.930  0.946
    eigenvectors:
  0.338  0.000  0.662
  0.495  0.252  0.253
  0.167  0.748  0.085
    occupations:
  0.911 -0.043  0.025
 -0.043  0.890  0.023
  0.025  0.023  0.916
atom    8   Tr[ns(na)] =   5.43328
    eigenvalues: 
  0.841  0.930  0.946
    eigenvectors:
  0.338  0.000  0.662
  0.000  1.000  0.000
  0.662  0.000  0.338
    occupations:
  0.911  0.000 -0.050
  0.000  0.930  0.000
 -0.050  0.000  0.876
atom    9   Tr[ns(na)] =   5.43328
    eigenvalues: 
  0.841  0.930  0.946
    eigenvectors:
  0.338  0.000  0.662
  0.498  0.248  0.254
  0.164  0.752  0.084
    occupations:
  0.911  0.043  0.025
  0.043  0.890 -0.023
  0.025 -0.023  0.917
atom   10   Tr[ns(na)] =   5.43328
    eigenvalues: 
  0.841  0.930  0.946
    eigenvectors:
  0.338  0.000  0.662
  0.495  0.252  0.253
  0.167  0.748  0.085
    occupations:
  0.911 -0.043  0.025
 -0.043  0.890  0.023
  0.025  0.023  0.916
N of occupied +U levels =  56.2841152
 --- exit write_ns ---
 --- in v_hubbard ---
Hubbard energy    0.2943
 -------

     total cpu time spent up to now is      274.9 secs

     End of self-consistent calculation

          k = 0.0000 0.0000 0.0000 (  2175 PWs)   bands (ev):

   -19.7928 -19.6195  -6.5478  -5.8373  -5.8373  -5.8220  -5.8220  -5.4822
    -3.8102  -3.2555  -3.2292  -3.2292  -3.0210  -3.0210   5.1802   6.8430
     6.8430   7.1859   7.1859   7.2191   7.5133   7.5133   7.7104   9.1386
     9.2964   9.3288   9.3288   9.6235   9.6235  10.0322  10.0322  10.2512
    10.4598  10.4598  10.6757  11.1414  11.1414  11.5379  11.9764  11.9764
    14.7412  14.7412  15.4316  15.4316  16.2011  16.7882

     occupation numbers 
     0.0313   0.0313   0.0313   0.0313   0.0313   0.0313   0.0313   0.0313
     0.0313   0.0313   0.0313   0.0313   0.0313   0.0313   0.0313   0.0313
     0.0313   0.0313   0.0313   0.0313   0.0313   0.0313   0.0313   0.0313
     0.0313   0.0313   0.0313   0.0312   0.0312   0.0312   0.0312   0.0312
     0.0312   0.0312   0.0312   0.0306   0.0306   0.0235   0.0063   0.0063
     0.0000   0.0000   0.0000   0.0000   0.0000   0.0000

          k =-0.2471-0.1427 0.1027 (  2181 PWs)   bands (ev):

   -19.7667 -19.6521  -6.7258  -6.2914  -5.9438  -5.8462  -5.6082  -5.4760
    -3.6081  -3.3959  -2.9326  -2.9020  -2.8529  -2.7592   5.5350   6.8052
     6.8368   6.9405   6.9644   7.1980   7.2371   7.4772   7.6065   8.2855
     8.2910   8.8410   9.5978   9.7181   9.7304   9.9795  10.2256  10.2442
    10.4079  10.4167  10.4719  11.2134  11.2995  11.3217  12.3053  12.3760
    14.2883  14.2982  15.8191  16.0732  16.9750  17.2689

     occupation numbers 
     0.1875   0.1875   0.1875   0.1875   0.1875   0.1875   0.1875   0.1875
     0.1875   0.1875   0.1875   0.1875   0.1875   0.1875   0.1875   0.1875
     0.1875   0.1875   0.1875   0.1875   0.1875   0.1875   0.1875   0.1875
     0.1875   0.1875   0.1875   0.1875   0.1875   0.1875   0.1875   0.1875
     0.1875   0.1875   0.1875   0.1808   0.1751   0.1731   0.0045   0.0024
     0.0000   0.0000   0.0000   0.0000   0.0000   0.0000

          k = 0.4942 0.2853-0.2053 (  2202 PWs)   bands (ev):

   -19.7132 -19.7123  -6.7255  -6.7122  -5.9625  -5.9511  -5.5231  -5.5101
    -3.3850  -3.3840  -2.7901  -2.7896  -2.5041  -2.5021   5.9867   5.9875
     7.0414   7.0444   7.1833   7.1890   7.4313   7.4349   7.5160   7.5162
     7.7484   7.7484   9.4381   9.4501   9.8567   9.8653  10.2639  10.2758
    10.6316  10.6547  10.7881  10.8105  11.0500  11.0696  13.2741  13.3131
    13.3582  13.3971  16.8354  16.8404  17.1321  17.1364

     occupation numbers 
     0.0938   0.0938   0.0938   0.0938   0.0938   0.0938   0.0938   0.0938
     0.0938   0.0938   0.0938   0.0938   0.0938   0.0938   0.0938   0.0938
     0.0938   0.0938   0.0938   0.0938   0.0938   0.0938   0.0938   0.0938
     0.0938   0.0938   0.0937   0.0937   0.0937   0.0937   0.0937   0.0937
     0.0937   0.0937   0.0937   0.0937   0.0929   0.0927   0.0000   0.0000
     0.0000   0.0000   0.0000   0.0000   0.0000   0.0000

          k =-0.2471 0.1427 0.2053 (  2195 PWs)   bands (ev):

   -19.7602 -19.6604  -6.8499  -6.2342  -6.0663  -5.8276  -5.6526  -5.4564
    -3.4208  -3.2619  -3.1026  -2.8941  -2.8211  -2.5559   5.5671   6.5399
     6.7191   6.8432   7.1706   7.3088   7.3848   7.4270   7.4827   8.3542
     8.3577   8.7582   9.2444   9.3508   9.8723   9.9094  10.0180  10.0926
    10.2682  10.8080  10.9514  10.9634  11.2302  11.3038  11.8959  12.7218
    13.6185  14.7584  15.9963  16.1981  17.0382  17.5398

     occupation numbers 
     0.1875   0.1875   0.1875   0.1875   0.1875   0.1875   0.1875   0.1875
     0.1875   0.1875   0.1875   0.1875   0.1875   0.1875   0.1875   0.1875
     0.1875   0.1875   0.1875   0.1875   0.1875   0.1875   0.1875   0.1875
     0.1875   0.1875   0.1875   0.1875   0.1875   0.1875   0.1875   0.1875
     0.1875   0.1874   0.1869   0.1868   0.1799   0.1747   0.0538   0.0001
     0.0000   0.0000   0.0000   0.0000   0.0000   0.0000

          k = 0.4942 0.5706-0.1027 (  2198 PWs)   bands (ev):

   -19.7266 -19.7000  -6.9515  -6.6441  -6.1251  -5.8870  -5.5086  -5.3788
    -3.3079  -3.2527  -2.8743  -2.7057  -2.5250  -2.3819   5.8461   6.1784
     6.4036   6.9127   7.1123   7.2455   7.3212   7.4917   7.5168   7.6705
     8.0428   8.6156   8.9566   9.2469   9.5601   9.7850   9.8652  10.3165
    10.3677  10.8009  10.9058  10.9835  11.1231  11.2368  12.2986  12.7274
    13.4117  14.3385  16.9074  17.1169  17.3107  18.0176

     occupation numbers 
     0.1875   0.1875   0.1875   0.1875   0.1875   0.1875   0.1875   0.1875
     0.1875   0.1875   0.1875   0.1875   0.1875   0.1875   0.1875   0.1875
     0.1875   0.1875   0.1875   0.1875   0.1875   0.1875   0.1875   0.1875
     0.1875   0.1875   0.1875   0.1875   0.1875   0.1875   0.1875   0.1875
     0.1875   0.1874   0.1871   0.1866   0.1843   0.1795   0.0047   0.0001
     0.0000   0.0000   0.0000   0.0000   0.0000   0.0000

          k = 0.2471 0.4280 0.0000 (  2203 PWs)   bands (ev):

   -19.7378 -19.6870  -6.8445  -6.6367  -6.0493  -5.9742  -5.4344  -5.3631
    -3.5275  -3.2919  -2.7980  -2.7054  -2.5683  -2.5579   5.8534   6.1897
     6.6866   7.0088   7.0727   7.1414   7.3602   7.3668   7.4257   7.7530
     7.9578   8.8967   8.9085   9.3685   9.7446   9.7621  10.0422  10.3388
    10.6227  10.6571  10.8146  10.9348  10.9503  11.3263  12.2151  13.3042
    13.3813  14.1341  16.4372  16.9962  17.4227  17.9283

     occupation numbers 
     0.1875   0.1875   0.1875   0.1875   0.1875   0.1875   0.1875   0.1875
     0.1875   0.1875   0.1875   0.1875   0.1875   0.1875   0.1875   0.1875
     0.1875   0.1875   0.1875   0.1875   0.1875   0.1875   0.1875   0.1875
     0.1875   0.1875   0.1875   0.1875   0.1875   0.1875   0.1875   0.1875
     0.1875   0.1875   0.1874   0.1870   0.1869   0.1727   0.0089   0.0000
     0.0000   0.0000   0.0000   0.0000   0.0000   0.0000

          k = 0.4942-0.2853-0.4107 (  2202 PWs)   bands (ev):

   -19.7270 -19.7009  -7.1610  -6.4506  -6.2362  -5.9609  -5.5298  -5.2837
    -3.1955  -3.1151  -3.0454  -2.6457  -2.4771  -2.2185   5.7721   5.8873
     6.1799   6.8306   7.1467   7.2560   7.3339   7.4976   7.9896   7.9967
     8.1646   8.3047   8.6039   9.3967   9.4155   9.6764  10.0323  10.0663
    10.4143  10.7121  10.8718  11.0181  11.1490  11.3675  11.8389  12.4087
    13.3147  14.7723  17.0461  17.2687  17.5216  17.6140

     occupation numbers 
     0.0938   0.0938   0.0938   0.0938   0.0938   0.0938   0.0938   0.0938
     0.0938   0.0938   0.0938   0.0938   0.0938   0.0938   0.0938   0.0938
     0.0938   0.0938   0.0938   0.0938   0.0938   0.0938   0.0938   0.0938
     0.0938   0.0938   0.0938   0.0937   0.0937   0.0937   0.0937   0.0937
     0.0937   0.0937   0.0936   0.0931   0.0917   0.0842   0.0335   0.0009
     0.0000   0.0000   0.0000   0.0000   0.0000   0.0000

          k = 0.0000 0.0000 0.3080 (  2187 PWs)   bands (ev):

   -19.7663 -19.6530  -6.6143  -5.9825  -5.9305  -5.9305  -5.8360  -5.8360
    -3.2078  -3.1228  -3.1228  -2.9655  -2.8931  -2.8931   5.6005   6.8926
     6.9339   6.9339   7.1079   7.1805   7.1805   7.4957   7.4957   8.4659
     8.4659   8.8703   9.4393   9.5476   9.5476   9.7290  10.1155  10.1155
    10.4466  10.4466  10.6651  11.2622  11.2622  11.3145  12.2787  12.2787
    14.2497  14.2497  15.9143  15.9143  16.8811  17.4825

     occupation numbers 
     0.0625   0.0625   0.0625   0.0625   0.0625   0.0625   0.0625   0.0625
     0.0625   0.0625   0.0625   0.0625   0.0625   0.0625   0.0625   0.0625
     0.0625   0.0625   0.0625   0.0625   0.0625   0.0625   0.0625   0.0625
     0.0625   0.0625   0.0625   0.0625   0.0625   0.0625   0.0625   0.0625
     0.0625   0.0625   0.0625   0.0593   0.0593   0.0579   0.0018   0.0018
     0.0000   0.0000   0.0000   0.0000   0.0000   0.0000

          k = 0.7412 0.4280 0.0000 (  2204 PWs)   bands (ev):

   -19.7373 -19.6882  -6.7302  -6.6007  -6.1398  -5.8286  -5.6790  -5.5430
    -3.1795  -3.0903  -3.0411  -2.6735  -2.6555  -2.5815   5.8943   6.4433
     6.5868   7.0270   7.1039   7.2397   7.2804   7.4072   7.4854   7.6997
     8.0428   8.7050   8.9726   9.4535   9.5390   9.6760   9.8332  10.2190
    10.6257  10.7682  10.8307  11.0076  11.0456  11.1461  12.2153  13.2258
    13.2976  14.1609  16.6896  16.7274  17.5929  17.7969

     occupation numbers 
     0.1875   0.1875   0.1875   0.1875   0.1875   0.1875   0.1875   0.1875
     0.1875   0.1875   0.1875   0.1875   0.1875   0.1875   0.1875   0.1875
     0.1875   0.1875   0.1875   0.1875   0.1875   0.1875   0.1875   0.1875
     0.1875   0.1875   0.1875   0.1875   0.1875   0.1875   0.1875   0.1875
     0.1875   0.1874   0.1873   0.1864   0.1859   0.1836   0.0089   0.0000
     0.0000   0.0000   0.0000   0.0000   0.0000   0.0000

          k = 0.4942 0.2853 0.1027 (  2211 PWs)   bands (ev):

   -19.7273 -19.6994  -6.9677  -6.5401  -6.3191  -5.6943  -5.6207  -5.3509
    -3.3215  -3.1619  -3.0322  -2.5993  -2.5597  -2.3741   5.8816   6.1558
     6.3554   6.8962   7.1373   7.1705   7.3585   7.4442   7.6079   7.6552
     8.0823   8.6681   8.9522   9.3801   9.4075   9.6486   9.9782  10.2297
    10.4495  10.8676  11.0044  11.0216  11.0611  11.0913  12.2538  12.7419
    13.4582  14.3200  16.8880  16.9373  17.5818  17.9297

     occupation numbers 
     0.1875   0.1875   0.1875   0.1875   0.1875   0.1875   0.1875   0.1875
     0.1875   0.1875   0.1875   0.1875   0.1875   0.1875   0.1875   0.1875
     0.1875   0.1875   0.1875   0.1875   0.1875   0.1875   0.1875   0.1875
     0.1875   0.1875   0.1875   0.1875   0.1875   0.1875   0.1875   0.1875
     0.1875   0.1872   0.1864   0.1862   0.1856   0.1851   0.0067   0.0000
     0.0000   0.0000   0.0000   0.0000   0.0000   0.0000

          k = 0.7412-0.4280-0.3080 (  2210 PWs)   bands (ev):

   -19.7270 -19.7003  -6.9038  -6.4492  -6.2971  -5.7936  -5.7562  -5.4799
    -3.0682  -3.0523  -2.9613  -2.7273  -2.6200  -2.4243   5.9583   6.3014
     6.3970   6.8744   7.1060   7.2193   7.3960   7.4789   7.6445   7.6731
     8.0560   8.6802   8.8334   9.3672   9.4782   9.4946   9.6459  10.1620
    10.4934  10.8710  10.9655  11.0098  11.1324  11.1518  12.2136  12.6945
    13.4073  14.2899  17.0624  17.0716  17.5502  17.9049

     occupation numbers 
     0.1875   0.1875   0.1875   0.1875   0.1875   0.1875   0.1875   0.1875
     0.1875   0.1875   0.1875   0.1875   0.1875   0.1875   0.1875   0.1875
     0.1875   0.1875   0.1875   0.1875   0.1875   0.1875   0.1875   0.1875
     0.1875   0.1875   0.1875   0.1875   0.1875   0.1875   0.1875   0.1875
     0.1875   0.1872   0.1868   0.1864   0.1840   0.1834   0.0090   0.0001
     0.0000   0.0000   0.0000   0.0000   0.0000   0.0000

          k = 0.4942-0.5706-0.2053 (  2206 PWs)   bands (ev):

   -19.7143 -19.7143  -6.8845  -6.8679  -6.0324  -6.0312  -5.4236  -5.4190
    -3.1504  -3.1496  -2.8126  -2.8115  -2.3806  -2.3776   6.0324   6.0377
     6.5439   6.5446   7.0280   7.0318   7.3343   7.3357   7.6858   7.6898
     8.6691   8.6738   8.8063   8.8135   9.5014   9.5016  10.0467  10.0489
    10.6616  10.6660  10.8633  10.8721  11.1897  11.1951  12.2638  12.2706
    13.9844  13.9934  17.4290  17.4295  17.8713  17.8737

     occupation numbers 
     0.1875   0.1875   0.1875   0.1875   0.1875   0.1875   0.1875   0.1875
     0.1875   0.1875   0.1875   0.1875   0.1875   0.1875   0.1875   0.1875
     0.1875   0.1875   0.1875   0.1875   0.1875   0.1875   0.1875   0.1875
     0.1875   0.1875   0.1875   0.1875   0.1875   0.1875   0.1875   0.1875
     0.1875   0.1875   0.1873   0.1872   0.1819   0.1817   0.0062   0.0059
     0.0000   0.0000   0.0000   0.0000   0.0000   0.0000

          k = 0.0000 0.0000-0.6160 (  2186 PWs)   bands (ev):

   -19.7138 -19.7129  -6.5142  -6.4976  -5.9417  -5.9417  -5.9294  -5.9294
    -2.8916  -2.8916  -2.8907  -2.8907  -2.7019  -2.7017   6.2226   6.2231
     7.1030   7.1030   7.1074   7.1074   7.4213   7.4286   7.6970   7.6970
     7.6977   7.6977   9.5930   9.5930   9.6046   9.6046   9.6678   9.6806
    10.8467  10.8661  10.9385  10.9385  10.9594  10.9594  13.2140  13.2140
    13.2529  13.2529  17.1188  17.1188  17.1212  17.1212

     occupation numbers 
     0.0313   0.0313   0.0313   0.0313   0.0313   0.0313   0.0313   0.0313
     0.0313   0.0313   0.0313   0.0313   0.0313   0.0313   0.0313   0.0313
     0.0313   0.0313   0.0313   0.0313   0.0313   0.0313   0.0313   0.0313
     0.0313   0.0313   0.0312   0.0312   0.0312   0.0312   0.0312   0.0312
     0.0312   0.0312   0.0312   0.0312   0.0311   0.0311   0.0000   0.0000
     0.0000   0.0000   0.0000   0.0000   0.0000   0.0000

          k = 0.4942-0.5706 0.1027 (  2198 PWs)   bands (ev):

   -19.7266 -19.7000  -6.9515  -6.6419  -6.1284  -5.8891  -5.5084  -5.3755
    -3.3082  -3.2528  -2.8750  -2.7051  -2.5256  -2.3811   5.8467   6.1748
     6.4051   6.9125   7.1118   7.2466   7.3220   7.4884   7.5185   7.6721
     8.0459   8.6159   8.9542   9.2470   9.5580   9.7842   9.8652  10.3190
    10.3673  10.7939  10.9126  10.9819  11.1302  11.2315  12.2984  12.7274
    13.4118  14.3380  16.9094  17.1140  17.3113  18.0174

     occupation numbers 
     0.1875   0.1875   0.1875   0.1875   0.1875   0.1875   0.1875   0.1875
     0.1875   0.1875   0.1875   0.1875   0.1875   0.1875   0.1875   0.1875
     0.1875   0.1875   0.1875   0.1875   0.1875   0.1875   0.1875   0.1875
     0.1875   0.1875   0.1875   0.1875   0.1875   0.1875   0.1875   0.1875
     0.1875   0.1874   0.1871   0.1866   0.1841   0.1798   0.0047   0.0001
     0.0000   0.0000   0.0000   0.0000   0.0000   0.0000

     the Fermi energy is    11.7337 ev

!    total energy              =    -538.01681032 Ry
     Harris-Foulkes estimate   =    -538.01680045 Ry
     estimated scf accuracy    <          3.1E-09 Ry

     The total energy is the sum of the following terms:

     one-electron contribution =     -32.89413853 Ry
     hartree contribution      =      83.64525324 Ry
     xc contribution           =    -199.60590742 Ry
     ewald contribution        =    -389.44315552 Ry
     Hubbard energy            =       0.29429813 Ry
     smearing contrib. (-TS)   =      -0.01316022 Ry

     convergence has been achieved in  13 iterations

     init_run     :      7.25s CPU      7.66s WALL (       1 calls)
     electrons    :    261.30s CPU    266.39s WALL (       1 calls)

     Called by init_run:
     wfcinit      :      0.00s CPU      0.00s WALL (       1 calls)
     potinit      :      0.28s CPU      0.38s WALL (       1 calls)

     Called by electrons:
     c_bands      :    168.24s CPU    170.97s WALL (      13 calls)
     sum_band     :     55.16s CPU     56.12s WALL (      13 calls)
     v_of_rho     :      4.70s CPU      4.75s WALL (      14 calls)
     v_h          :      0.25s CPU      0.26s WALL (      14 calls)
     v_xc         :      4.44s CPU      4.49s WALL (      14 calls)
     newd         :     34.02s CPU     34.14s WALL (      14 calls)
     mix_rho      :      0.52s CPU      0.52s WALL (      13 calls)

     Called by c_bands:
     init_us_2    :      1.72s CPU      1.73s WALL (     364 calls)
     cegterg      :    163.62s CPU    166.03s WALL (     182 calls)

     Called by sum_band:
     sum_band:bec :      0.14s CPU      0.14s WALL (     182 calls)
     addusdens    :     22.63s CPU     22.82s WALL (      13 calls)

     Called by *egterg:
     h_psi        :    125.15s CPU    127.05s WALL (     685 calls)
     s_psi        :      6.29s CPU      6.32s WALL (     685 calls)
     g_psi        :      0.45s CPU      0.45s WALL (     503 calls)
     cdiaghg      :      8.90s CPU      8.95s WALL (     671 calls)
     cegterg:over :      8.51s CPU      8.63s WALL (     503 calls)
     cegterg:upda :      4.45s CPU      4.45s WALL (     503 calls)
     cegterg:last :      3.10s CPU      3.10s WALL (     206 calls)

     Called by h_psi:
     h_psi:vloc   :    103.05s CPU    104.64s WALL (     685 calls)
     h_psi:vnl    :     13.71s CPU     13.86s WALL (     685 calls)
     add_vuspsi   :      6.58s CPU      6.57s WALL (     685 calls)
     vhpsi        :      8.09s CPU      8.24s WALL (     685 calls)

     General routines
     calbec       :     14.89s CPU     15.28s WALL (    1734 calls)
     fft          :      4.34s CPU      4.58s WALL (     219 calls)
     ffts         :      0.08s CPU      0.10s WALL (      27 calls)
     fftw         :     98.09s CPU     99.81s WALL (   51152 calls)
     interpolate  :      0.54s CPU      0.73s WALL (      27 calls)
     davcio       :      0.00s CPU      0.54s WALL (     378 calls)

     Parallel routines
     fft_scatter  :     39.88s CPU     41.95s WALL (   51398 calls)
     Hubbard U routines
     new_ns       :      1.41s CPU      1.68s WALL (      13 calls)
     vhpsi        :      8.09s CPU      8.24s WALL (     685 calls)

     PWSCF        :  4m29.15s CPU     4m35.05s WALL


   This run was terminated on:  15:12:46  11Nov2012            

=------------------------------------------------------------------------------=
