   JOB DONE.
=------------------------------------------------------------------------------=

     Program PWSCF v.5.0.1 starts on 13Nov2012 at 12: 2:56 

     This program is part of the open-source Quantum ESPRESSO suite
     for quantum simulation of materials; please cite
         "P. Giannozzi et al., J. Phys.:Condens. Matter 21 395502 (2009);
          URL http://www.quantum-espresso.org", 
     in publications or presentations arising from this work. More details at
     http://www.quantum-espresso.org/quote.php

     Parallel version (MPI), running on     2 processors
     R & G space division:  proc/pool =    2

     Current dimensions of program PWSCF are:
     Max number of different atomic species (ntypx) = 10
     Max number of k-points (npk) =  40000
     Max angular momentum in pseudopotentials (lmaxx) =  3
     Reading input from CoLaO_U0_a-15.in
               file Co.pbe-nd-rrkjus.UPF: wavefunction(s)  4S 3D renormalized
               file O.pbe-rrkjus.UPF: wavefunction(s)  2S renormalized

     Subspace diagonalization in iterative solution of the eigenvalue problem:
     a serial algorithm will be used


     Parallelization info
     --------------------
     sticks:   dense  smooth     PW     G-vecs:    dense   smooth      PW
     Min        1112     444    131                34808     8786    1448
     Max        1113     445    132                34809     8787    1449
     Sum        2225     889    263                69617    17573    2897


     Title: 
     GGA + U, U = 1D-40, alpha = -0.150                                         


     bravais-lattice index     =            5
     lattice parameter (alat)  =      10.3292  a.u.
     unit-cell volume          =     793.0599 (a.u.)^3
     number of atoms/cell      =           10
     number of atomic types    =            4
     number of electrons       =        76.00
     number of Kohn-Sham states=           46
     kinetic-energy cutoff     =      30.0000  Ry
     charge density cutoff     =     300.0000  Ry
     convergence threshold     =      1.0E-08
     mixing beta               =       0.2000
     number of iterations used =            8  plain     mixing
     Exchange-correlation      =  SLA  PW   PBE  PBE ( 1 4 3 4 0)
     EXX-fraction              =        0.00

     celldm(1)=  10.329242  celldm(2)=   0.000000  celldm(3)=   0.000000
     celldm(4)=   0.488100  celldm(5)=   0.000000  celldm(6)=   0.000000

     crystal axes: (cart. coord. in units of alat)
               a(1) = (   0.505915  -0.292090   0.811624 )  
               a(2) = (   0.000000   0.584180   0.811624 )  
               a(3) = (  -0.505915  -0.292090   0.811624 )  

     reciprocal axes: (cart. coord. in units 2 pi/alat)
               b(1) = (  0.988308 -0.570600  0.410699 )  
               b(2) = (  0.000000  1.141200  0.410699 )  
               b(3) = ( -0.988308 -0.570600  0.410699 )  


     PseudoPot. # 1 for Co read from file:
     /home/mcurnan/dft-course/Project1/example_LaCoO3/Co.pbe-nd-rrkjus.UPF
     MD5 check sum: 3e47a84addf5e975e0edeaeee2a73f59
     Pseudo is Ultrasoft + core correction, Zval =  9.0
     Generated by new atomic code, or converted to UPF format
     Using radial grid of  961 points,  6 beta functions with: 
                l(1) =   0
                l(2) =   0
                l(3) =   1
                l(4) =   1
                l(5) =   2
                l(6) =   2
     Q(r) pseudized with 0 coefficients 


     PseudoPot. # 2 for La read from file:
     /home/mcurnan/dft-course/Project1/example_LaCoO3/La.pbe-nsp-van.UPF
     MD5 check sum: b2f11743f52dde65f77d1302becd7929
     Pseudo is Ultrasoft + core correction, Zval = 11.0
     Generated by new atomic code, or converted to UPF format
     Using radial grid of  907 points,  6 beta functions with: 
                l(1) =   0
                l(2) =   0
                l(3) =   1
                l(4) =   1
                l(5) =   2
                l(6) =   2
     Q(r) pseudized with  6 coefficients,  rinner =    1.200   1.200   1.200
                                                       1.200   1.200

     PseudoPot. # 3 for La read from file:
     /home/mcurnan/dft-course/Project1/example_LaCoO3/La.pbe-nsp-van.UPF
     MD5 check sum: b2f11743f52dde65f77d1302becd7929
     Pseudo is Ultrasoft + core correction, Zval = 11.0
     Generated by new atomic code, or converted to UPF format
     Using radial grid of  907 points,  6 beta functions with: 
                l(1) =   0
                l(2) =   0
                l(3) =   1
                l(4) =   1
                l(5) =   2
                l(6) =   2
     Q(r) pseudized with  6 coefficients,  rinner =    1.200   1.200   1.200
                                                       1.200   1.200

     PseudoPot. # 4 for O  read from file:
     /home/mcurnan/dft-course/Project1/example_LaCoO3/O.pbe-rrkjus.UPF
     MD5 check sum: 390ba29e75625707450f3bd3f0eb6be9
     Pseudo is Ultrasoft, Zval =  6.0
     Generated by new atomic code, or converted to UPF format
     Using radial grid of 1269 points,  4 beta functions with: 
                l(1) =   0
                l(2) =   0
                l(3) =   1
                l(4) =   1
     Q(r) pseudized with 0 coefficients 


     atomic species   valence    mass     pseudopotential
        Co1            9.00     1.00000     Co( 1.00)
        La1           11.00     1.00000     La( 1.00)
        La2           11.00     1.00000     La( 1.00)
        O1             6.00     1.00000     O ( 1.00)

     Starting magnetic structure 
     atomic species   magnetization
        Co1          1.000
        La1          0.000
        La2          0.000
        O1           0.000
 -----
     simplified LDA+U calculation, Hubbard_lmax = 2
     atomic species  L   Hubbard U  Hubbard alpha
        Co1          2    0.000000    0.000000
        La1          2    0.000000   -0.150000
        La2          2    0.000000    0.000000
        O1           1    0.000000    0.000000
 -----

      3 Sym. Ops. (no inversion) found


                                    s                        frac. trans.

      isym =  1     identity                                     

 cryst.   s( 1) = (     1          0          0      )
                  (     0          1          0      )
                  (     0          0          1      )

 cart.    s( 1) = (  1.0000000  0.0000000  0.0000000 )
                  (  0.0000000  1.0000000  0.0000000 )
                  (  0.0000000  0.0000000  1.0000000 )


      isym =  2     120 deg rotation - cryst. axis [0,0,1]       

 cryst.   s( 2) = (     0          1          0      )
                  (     0          0          1      )
                  (     1          0          0      )

 cart.    s( 2) = ( -0.5000000 -0.8660254  0.0000000 )
                  (  0.8660254 -0.5000000  0.0000000 )
                  (  0.0000000  0.0000000  1.0000000 )


      isym =  3     120 deg rotation - cryst. axis [0,0,-1]      

 cryst.   s( 3) = (     0          0          1      )
                  (     1          0          0      )
                  (     0          1          0      )

 cart.    s( 3) = ( -0.5000000  0.8660254  0.0000000 )
                  ( -0.8660254 -0.5000000  0.0000000 )
                  (  0.0000000  0.0000000  1.0000000 )


     point group C_3 (3)    
     there are  3 classes
     the character table:

       E     C3    C3^2 
A      1.00  1.00  1.00
E      1.00 -0.50 -0.50
E*     1.00 -0.50 -0.50
     imaginary part
A      0.00  0.00  0.00
E      0.00  0.87 -0.87
E*     0.00 -0.87  0.87

     the symmetry operations in each class:
     E        1
     C3       2
     C3^2     3

   Cartesian axes

     site n.     atom                  positions (alat units)
         1           Co1 tau(   1) = (   0.0000000   0.0000000   1.8261537  )
         2           Co1 tau(   2) = (   0.0000000   0.0000000   0.6087179  )
         3           La1 tau(   3) = (   0.0000000   0.0000000   0.0000000  )
         4           La2 tau(   4) = (   0.0000000   0.0000000   1.2174358  )
         5           O1  tau(   5) = (   0.2831100  -0.0928263   1.6236536  )
         6           O1  tau(   6) = (  -0.2219449  -0.1987674   1.6236536  )
         7           O1  tau(   7) = (  -0.0611651   0.2915936   1.6236536  )
         8           O1  tau(   8) = (   0.2228050   0.3849164   1.2170300  )
         9           O1  tau(   9) = (   0.2219449  -0.3854130   1.2170300  )
        10           O1  tau(  10) = (  -0.4447499   0.0004966   1.2170300  )

   Crystallographic axes

     site n.     atom                  positions (cryst. coord.)
         1           Co1 tau(   1) = (  0.7500000  0.7500000  0.7500000  )
         2           Co1 tau(   2) = (  0.2500000  0.2500000  0.2500000  )
         3           La1 tau(   3) = (  0.0000000  0.0000000  0.0000000  )
         4           La2 tau(   4) = (  0.5000000  0.5000000  0.5000000  )
         5           O1  tau(   5) = (  0.9996000  0.5609000  0.4400000  )
         6           O1  tau(   6) = (  0.5609000  0.4400000  0.9996000  )
         7           O1  tau(   7) = (  0.4400000  0.9996000  0.5609000  )
         8           O1  tau(   8) = (  0.5004000  0.9391000  0.0600000  )
         9           O1  tau(   9) = (  0.9391000  0.0600000  0.5004000  )
        10           O1  tau(  10) = (  0.0600000  0.5004000  0.9391000  )

     number of k points=    28  gaussian smearing, width (Ry)=  0.0300
                       cart. coord. in units 2pi/alat
        k(    1) = (   0.0000000   0.0000000   0.0000000), wk =   0.0156250
        k(    2) = (  -0.2470771  -0.1426500   0.1026748), wk =   0.0937500
        k(    3) = (   0.4941541   0.2853000  -0.2053496), wk =   0.0468750
        k(    4) = (  -0.2470771   0.1426500   0.2053496), wk =   0.0937500
        k(    5) = (   0.4941541   0.5706001  -0.1026748), wk =   0.0937500
        k(    6) = (   0.2470771   0.4279500   0.0000000), wk =   0.0937500
        k(    7) = (   0.4941541  -0.2853000  -0.4106993), wk =   0.0468750
        k(    8) = (   0.0000000   0.0000000   0.3080244), wk =   0.0312500
        k(    9) = (   0.7412312   0.4279500   0.0000000), wk =   0.0937500
        k(   10) = (   0.4941541   0.2853000   0.1026748), wk =   0.0937500
        k(   11) = (   0.7412312  -0.4279500  -0.3080244), wk =   0.0937500
        k(   12) = (   0.4941541  -0.5706001  -0.2053496), wk =   0.0937500
        k(   13) = (   0.0000000   0.0000000  -0.6160489), wk =   0.0156250
        k(   14) = (   0.4941541  -0.5706001   0.1026748), wk =   0.0937500
        k(   15) = (   0.0000000   0.0000000   0.0000000), wk =   0.0156250
        k(   16) = (  -0.2470771  -0.1426500   0.1026748), wk =   0.0937500
        k(   17) = (   0.4941541   0.2853000  -0.2053496), wk =   0.0468750
        k(   18) = (  -0.2470771   0.1426500   0.2053496), wk =   0.0937500
        k(   19) = (   0.4941541   0.5706001  -0.1026748), wk =   0.0937500
        k(   20) = (   0.2470771   0.4279500   0.0000000), wk =   0.0937500
        k(   21) = (   0.4941541  -0.2853000  -0.4106993), wk =   0.0468750
        k(   22) = (   0.0000000   0.0000000   0.3080244), wk =   0.0312500
        k(   23) = (   0.7412312   0.4279500   0.0000000), wk =   0.0937500
        k(   24) = (   0.4941541   0.2853000   0.1026748), wk =   0.0937500
        k(   25) = (   0.7412312  -0.4279500  -0.3080244), wk =   0.0937500
        k(   26) = (   0.4941541  -0.5706001  -0.2053496), wk =   0.0937500
        k(   27) = (   0.0000000   0.0000000  -0.6160489), wk =   0.0156250
        k(   28) = (   0.4941541  -0.5706001   0.1026748), wk =   0.0937500

                       cryst. coord.
        k(    1) = (   0.0000000   0.0000000   0.0000000), wk =   0.0156250
        k(    2) = (   0.0000000   0.0000000   0.2500000), wk =   0.0937500
        k(    3) = (   0.0000000   0.0000000  -0.5000000), wk =   0.0468750
        k(    4) = (   0.0000000   0.2500000   0.2500000), wk =   0.0937500
        k(    5) = (   0.0000000   0.2500000  -0.5000000), wk =   0.0937500
        k(    6) = (   0.0000000   0.2500000  -0.2500000), wk =   0.0937500
        k(    7) = (   0.0000000  -0.5000000  -0.5000000), wk =   0.0468750
        k(    8) = (   0.2500000   0.2500000   0.2500000), wk =   0.0312500
        k(    9) = (   0.2500000   0.2500000  -0.5000000), wk =   0.0937500
        k(   10) = (   0.2500000   0.2500000  -0.2500000), wk =   0.0937500
        k(   11) = (   0.2500000  -0.5000000  -0.5000000), wk =   0.0937500
        k(   12) = (   0.2500000  -0.5000000  -0.2500000), wk =   0.0937500
        k(   13) = (  -0.5000000  -0.5000000  -0.5000000), wk =   0.0156250
        k(   14) = (   0.5000000  -0.2500000   0.0000000), wk =   0.0937500
        k(   15) = (   0.0000000   0.0000000   0.0000000), wk =   0.0156250
        k(   16) = (   0.0000000   0.0000000   0.2500000), wk =   0.0937500
        k(   17) = (   0.0000000   0.0000000  -0.5000000), wk =   0.0468750
        k(   18) = (   0.0000000   0.2500000   0.2500000), wk =   0.0937500
        k(   19) = (   0.0000000   0.2500000  -0.5000000), wk =   0.0937500
        k(   20) = (   0.0000000   0.2500000  -0.2500000), wk =   0.0937500
        k(   21) = (   0.0000000  -0.5000000  -0.5000000), wk =   0.0468750
        k(   22) = (   0.2500000   0.2500000   0.2500000), wk =   0.0312500
        k(   23) = (   0.2500000   0.2500000  -0.5000000), wk =   0.0937500
        k(   24) = (   0.2500000   0.2500000  -0.2500000), wk =   0.0937500
        k(   25) = (   0.2500000  -0.5000000  -0.5000000), wk =   0.0937500
        k(   26) = (   0.2500000  -0.5000000  -0.2500000), wk =   0.0937500
        k(   27) = (  -0.5000000  -0.5000000  -0.5000000), wk =   0.0156250
        k(   28) = (   0.5000000  -0.2500000   0.0000000), wk =   0.0937500

     Dense  grid:    69617 G-vectors     FFT dimensions: (  60,  60,  60)

     Smooth grid:    17573 G-vectors     FFT dimensions: (  40,  40,  40)

     Largest allocated arrays     est. size (Mb)     dimensions
        Kohn-Sham Wavefunctions         0.78 Mb     (   1117,   46)
        Atomic wavefunctions            1.06 Mb     (   1117,   62)
        NL pseudopotentials             2.05 Mb     (   1117,  120)
        Each V/rho on FFT grid          3.30 Mb     ( 108000,   2)
        Each G-vector array             0.27 Mb     (  34808)
        G-vector shells                 0.04 Mb     (   4682)
     Largest temporary arrays     est. size (Mb)     dimensions
        Auxiliary wavefunctions         3.14 Mb     (   1117,  184)
        Each subspace H/S matrix        0.52 Mb     ( 184, 184)
        Each <psi_i|beta_j> matrix      0.08 Mb     (    120,   46)
        Arrays for rho mixing          13.18 Mb     ( 108000,   8)

     Check: negative/imaginary core charge=   -0.000028    0.000000

     The initial density is read from file :
     /home/mcurnan/dft-course/Project1/example_LaCoO3/0/La/alpha/CoLaO_U0.save/charge-density.dat

 --- in v_hubbard ---
Hubbard energy   -0.0421
 -------
     Number of +U iterations with fixed ns =  0
     Starting occupations:
 --- enter write_ns ---
 LDA+U parameters:
U( 1)     =  0.00000000
alpha( 1) =  0.00000000
U( 2)     =  0.00000000
alpha( 2) = -0.15000000
U( 3)     =  0.00000000
alpha( 3) =  0.00000000
U( 4)     =  0.00000000
alpha( 4) =  0.00000000
atom    1   Tr[ns(na)] (up, down, total) =   4.56594  3.37373  7.93967
   spin  1
    eigenvalues: 
  0.785  0.785  0.999  0.999  0.999
    eigenvectors:
  0.000  0.000  0.000  0.000  1.000
  0.423  0.223  0.056  0.298  0.000
  0.223  0.423  0.298  0.056  0.000
  0.346  0.008  0.556  0.090  0.000
  0.008  0.346  0.090  0.556  0.000
    occupations:
  0.999  0.000  0.000  0.000  0.000
  0.000  0.861  0.000 -0.073  0.072
  0.000  0.000  0.861  0.072  0.073
  0.000 -0.073  0.072  0.923  0.000
  0.000  0.072  0.073  0.000  0.923
   spin  2
    eigenvalues: 
  0.474  0.474  0.773  0.826  0.826
    eigenvectors:
  0.000  0.000  1.000  0.000  0.000
  0.277  0.362  0.000  0.034  0.327
  0.362  0.277  0.000  0.327  0.034
  0.278  0.083  0.000  0.476  0.163
  0.083  0.278  0.000  0.163  0.476
    occupations:
  0.773  0.000  0.000  0.000  0.000
  0.000  0.601  0.000 -0.037  0.165
  0.000  0.000  0.601  0.165  0.037
  0.000 -0.037  0.165  0.699  0.000
  0.000  0.165  0.037  0.000  0.699
atomic mag. moment =     1.192216
atom    2   Tr[ns(na)] (up, down, total) =   4.67286  3.22479  7.89766
   spin  1
    eigenvalues: 
  0.838  0.838  0.999  0.999  0.999
    eigenvectors:
  0.000  0.000  0.000  0.000  1.000
  0.643  0.003  0.325  0.029  0.000
  0.003  0.643  0.029  0.325  0.000
  0.152  0.202  0.500  0.146  0.000
  0.202  0.152  0.146  0.500  0.000
    occupations:
  0.999  0.000  0.000  0.000  0.000
  0.000  0.895  0.000  0.054  0.054
  0.000  0.000  0.895  0.054 -0.054
  0.000  0.054  0.054  0.942  0.000
  0.000  0.054 -0.054  0.000  0.942
   spin  2
    eigenvalues: 
  0.459  0.459  0.730  0.788  0.788
    eigenvectors:
  0.000  0.000  1.000  0.000  0.000
  0.508  0.128  0.000  0.189  0.175
  0.128  0.508  0.000  0.175  0.189
  0.020  0.345  0.000  0.447  0.188
  0.345  0.020  0.000  0.188  0.447
    occupations:
  0.730  0.000  0.000  0.000  0.000
  0.000  0.579  0.000  0.036  0.154
  0.000  0.000  0.579  0.154 -0.036
  0.000  0.036  0.154  0.668  0.000
  0.000  0.154 -0.036  0.000  0.668
atomic mag. moment =     1.448071
atom    3   Tr[ns(na)] (up, down, total) =   1.91458  1.90025  3.81482
   spin  1
    eigenvalues: 
  0.357  0.357  0.387  0.407  0.407
    eigenvectors:
  0.000  0.000  1.000  0.000  0.000
  0.786  0.138  0.000  0.011  0.065
  0.138  0.786  0.000  0.065  0.011
  0.012  0.064  0.000  0.785  0.139
  0.064  0.012  0.000  0.139  0.785
    occupations:
  0.387  0.000  0.000  0.000  0.000
  0.000  0.361  0.000  0.000  0.013
  0.000  0.000  0.361  0.013  0.000
  0.000  0.000  0.013  0.403  0.000
  0.000  0.013  0.000  0.000  0.403
   spin  2
    eigenvalues: 
  0.353  0.353  0.387  0.404  0.404
    eigenvectors:
  0.000  0.000  1.000  0.000  0.000
  0.765  0.145  0.000  0.013  0.077
  0.145  0.765  0.000  0.077  0.013
  0.015  0.074  0.000  0.768  0.142
  0.074  0.015  0.000  0.142  0.768
    occupations:
  0.387  0.000  0.000  0.000  0.000
  0.000  0.358  0.000  0.000  0.015
  0.000  0.000  0.358  0.015  0.000
  0.000  0.000  0.015  0.399  0.000
  0.000  0.015  0.000  0.000  0.399
atomic mag. moment =     0.014329
atom    4   Tr[ns(na)] (up, down, total) =   1.91458  1.90025  3.81482
   spin  1
    eigenvalues: 
  0.357  0.357  0.387  0.407  0.407
    eigenvectors:
  0.000  0.000  1.000  0.000  0.000
  0.786  0.138  0.000  0.011  0.065
  0.138  0.786  0.000  0.065  0.011
  0.012  0.064  0.000  0.785  0.139
  0.064  0.012  0.000  0.139  0.785
    occupations:
  0.387  0.000  0.000  0.000  0.000
  0.000  0.361  0.000  0.000  0.013
  0.000  0.000  0.361  0.013  0.000
  0.000  0.000  0.013  0.403  0.000
  0.000  0.013  0.000  0.000  0.403
   spin  2
    eigenvalues: 
  0.353  0.353  0.387  0.404  0.404
    eigenvectors:
  0.000  0.000  1.000  0.000  0.000
  0.765  0.145  0.000  0.013  0.077
  0.145  0.765  0.000  0.077  0.013
  0.015  0.074  0.000  0.768  0.142
  0.074  0.015  0.000  0.142  0.768
    occupations:
  0.387  0.000  0.000  0.000  0.000
  0.000  0.358  0.000  0.000  0.015
  0.000  0.000  0.358  0.015  0.000
  0.000  0.000  0.015  0.399  0.000
  0.000  0.015  0.000  0.000  0.399
atomic mag. moment =     0.014329
atom    5   Tr[ns(na)] (up, down, total) =   2.74225  2.70308  5.44533
   spin  1
    eigenvalues: 
  0.844  0.947  0.951
    eigenvectors:
  0.337  0.000  0.663
  0.508  0.244  0.248
  0.155  0.756  0.089
    occupations:
  0.915 -0.044  0.025
 -0.044  0.896  0.029
  0.025  0.029  0.932
   spin  2
    eigenvalues: 
  0.864  0.920  0.920
    eigenvectors:
  0.333  0.053  0.613
  0.514  0.100  0.386
  0.153  0.847  0.000
    occupations:
  0.901 -0.023  0.013
 -0.023  0.891  0.016
  0.013  0.016  0.911
atomic mag. moment =     0.039174
atom    6   Tr[ns(na)] (up, down, total) =   2.74225  2.70308  5.44533
   spin  1
    eigenvalues: 
  0.844  0.947  0.951
    eigenvectors:
  0.337  0.000  0.663
  0.487  0.256  0.257
  0.176  0.744  0.080
    occupations:
  0.915  0.044  0.026
  0.044  0.898 -0.030
  0.026 -0.030  0.929
   spin  2
    eigenvalues: 
  0.864  0.920  0.920
    eigenvectors:
  0.333  0.053  0.613
  0.486  0.408  0.106
  0.181  0.539  0.280
    occupations:
  0.901  0.022  0.014
  0.022  0.893 -0.016
  0.014 -0.016  0.910
atomic mag. moment =     0.039174
atom    7   Tr[ns(na)] (up, down, total) =   2.74225  2.70308  5.44533
   spin  1
    eigenvalues: 
  0.844  0.947  0.951
    eigenvectors:
  0.337  0.000  0.663
  0.000  1.000  0.000
  0.663  0.000  0.337
    occupations:
  0.915  0.001 -0.051
  0.001  0.947  0.001
 -0.051  0.001  0.880
   spin  2
    eigenvalues: 
  0.864  0.920  0.920
    eigenvectors:
  0.333  0.053  0.613
  0.000  0.912  0.087
  0.666  0.035  0.299
    occupations:
  0.901  0.001 -0.026
  0.001  0.920  0.001
 -0.026  0.001  0.883
atomic mag. moment =     0.039174
atom    8   Tr[ns(na)] (up, down, total) =   2.74225  2.70308  5.44533
   spin  1
    eigenvalues: 
  0.844  0.947  0.951
    eigenvectors:
  0.337  0.000  0.663
  0.508  0.244  0.248
  0.155  0.756  0.089
    occupations:
  0.915 -0.044  0.025
 -0.044  0.896  0.029
  0.025  0.029  0.932
   spin  2
    eigenvalues: 
  0.864  0.920  0.920
    eigenvectors:
  0.333  0.053  0.613
  0.514  0.100  0.386
  0.153  0.847  0.000
    occupations:
  0.901 -0.023  0.013
 -0.023  0.891  0.016
  0.013  0.016  0.911
atomic mag. moment =     0.039174
atom    9   Tr[ns(na)] (up, down, total) =   2.74225  2.70308  5.44533
   spin  1
    eigenvalues: 
  0.844  0.947  0.951
    eigenvectors:
  0.337  0.000  0.663
  0.487  0.256  0.257
  0.176  0.744  0.080
    occupations:
  0.915  0.044  0.026
  0.044  0.898 -0.030
  0.026 -0.030  0.929
   spin  2
    eigenvalues: 
  0.864  0.920  0.920
    eigenvectors:
  0.333  0.053  0.613
  0.486  0.408  0.106
  0.181  0.539  0.280
    occupations:
  0.901  0.022  0.014
  0.022  0.893 -0.016
  0.014 -0.016  0.910
atomic mag. moment =     0.039174
atom   10   Tr[ns(na)] (up, down, total) =   2.74225  2.70308  5.44533
   spin  1
    eigenvalues: 
  0.844  0.947  0.951
    eigenvectors:
  0.337  0.000  0.663
  0.000  1.000  0.000
  0.663  0.000  0.337
    occupations:
  0.915  0.001 -0.051
  0.001  0.947  0.001
 -0.051  0.001  0.880
   spin  2
    eigenvalues: 
  0.864  0.920  0.920
    eigenvectors:
  0.333  0.053  0.613
  0.000  0.912  0.087
  0.666  0.035  0.299
    occupations:
  0.901  0.001 -0.026
  0.001  0.920  0.001
 -0.026  0.001  0.883
atomic mag. moment =     0.039174
N of occupied +U levels =  56.1389484
 --- exit write_ns ---
 LDA+U Projector read from file 
     Starting wfc from file

     total cpu time spent up to now is        9.1 secs

     per-process dynamical memory:    67.0 Mb

     Self-consistent Calculation

     iteration #  1     ecut=    30.00 Ry     beta=0.20
     Davidson diagonalization with overlap
     c_bands:  1 eigenvalues not converged
     c_bands:  1 eigenvalues not converged
     c_bands:  1 eigenvalues not converged
     c_bands:  1 eigenvalues not converged
     c_bands:  1 eigenvalues not converged
     c_bands:  1 eigenvalues not converged
     c_bands:  1 eigenvalues not converged
     c_bands:  1 eigenvalues not converged
     c_bands:  1 eigenvalues not converged
     c_bands:  1 eigenvalues not converged
     c_bands:  1 eigenvalues not converged
     c_bands:  1 eigenvalues not converged
     c_bands:  1 eigenvalues not converged
     c_bands:  1 eigenvalues not converged
     c_bands:  1 eigenvalues not converged
     c_bands:  1 eigenvalues not converged
     c_bands:  1 eigenvalues not converged
     c_bands:  1 eigenvalues not converged
     c_bands:  1 eigenvalues not converged
     ethr =  1.00E-10,  avg # of iterations = 18.5
 --- enter write_ns ---
 LDA+U parameters:
U( 1)     =  0.00000000
alpha( 1) =  0.00000000
U( 2)     =  0.00000000
alpha( 2) = -0.15000000
U( 3)     =  0.00000000
alpha( 3) =  0.00000000
U( 4)     =  0.00000000
alpha( 4) =  0.00000000
atom    1   Tr[ns(na)] (up, down, total) =   4.56596  3.37360  7.93956
   spin  1
    eigenvalues: 
  0.785  0.785  0.999  0.999  0.999
    eigenvectors:
  0.000  0.000  0.000  0.000  1.000
  0.423  0.223  0.056  0.297  0.000
  0.223  0.423  0.297  0.056  0.000
  0.346  0.008  0.556  0.090  0.000
  0.008  0.346  0.090  0.556  0.000
    occupations:
  0.999  0.000  0.000  0.000  0.000
  0.000  0.861  0.000 -0.073  0.072
  0.000  0.000  0.861  0.072  0.073
  0.000 -0.073  0.072  0.923  0.000
  0.000  0.072  0.073  0.000  0.923
   spin  2
    eigenvalues: 
  0.474  0.474  0.773  0.826  0.826
    eigenvectors:
  0.000  0.000  1.000  0.000  0.000
  0.277  0.362  0.000  0.033  0.327
  0.362  0.277  0.000  0.327  0.033
  0.278  0.082  0.000  0.476  0.163
  0.082  0.278  0.000  0.163  0.476
    occupations:
  0.773  0.000  0.000  0.000  0.000
  0.000  0.601  0.000 -0.037  0.165
  0.000  0.000  0.601  0.165  0.037
  0.000 -0.037  0.165  0.699  0.000
  0.000  0.165  0.037  0.000  0.699
atomic mag. moment =     1.192365
atom    2   Tr[ns(na)] (up, down, total) =   4.67247  3.22262  7.89508
   spin  1
    eigenvalues: 
  0.838  0.838  0.999  0.999  0.999
    eigenvectors:
  0.000  0.000  0.000  0.000  1.000
  0.643  0.003  0.325  0.028  0.000
  0.003  0.643  0.028  0.325  0.000
  0.152  0.202  0.500  0.146  0.000
  0.202  0.152  0.146  0.500  0.000
    occupations:
  0.999  0.000  0.000  0.000  0.000
  0.000  0.895  0.000  0.055  0.054
  0.000  0.000  0.895  0.054 -0.055
  0.000  0.055  0.054  0.942  0.000
  0.000  0.054 -0.055  0.000  0.942
   spin  2
    eigenvalues: 
  0.459  0.459  0.729  0.787  0.787
    eigenvectors:
  0.000  0.000  1.000  0.000  0.000
  0.508  0.127  0.000  0.189  0.175
  0.127  0.508  0.000  0.175  0.189
  0.020  0.345  0.000  0.447  0.188
  0.345  0.020  0.000  0.188  0.447
    occupations:
  0.729  0.000  0.000  0.000  0.000
  0.000  0.579  0.000  0.036  0.154
  0.000  0.000  0.579  0.154 -0.036
  0.000  0.036  0.154  0.668  0.000
  0.000  0.154 -0.036  0.000  0.668
atomic mag. moment =     1.449849
atom    3   Tr[ns(na)] (up, down, total) =   1.94217  1.92799  3.87015
   spin  1
    eigenvalues: 
  0.363  0.363  0.392  0.412  0.412
    eigenvectors:
  0.000  0.000  1.000  0.000  0.000
  0.790  0.136  0.000  0.010  0.063
  0.136  0.790  0.000  0.063  0.010
  0.011  0.062  0.000  0.789  0.138
  0.062  0.011  0.000  0.138  0.789
    occupations:
  0.392  0.000  0.000  0.000  0.000
  0.000  0.366  0.000  0.000  0.013
  0.000  0.000  0.366  0.013  0.000
  0.000  0.000  0.013  0.409  0.000
  0.000  0.013  0.000  0.000  0.409
   spin  2
    eigenvalues: 
  0.359  0.359  0.392  0.409  0.409
    eigenvectors:
  0.000  0.000  1.000  0.000  0.000
  0.770  0.143  0.000  0.012  0.074
  0.143  0.770  0.000  0.074  0.012
  0.015  0.072  0.000  0.771  0.142
  0.072  0.015  0.000  0.142  0.771
    occupations:
  0.392  0.000  0.000  0.000  0.000
  0.000  0.363  0.000  0.000  0.014
  0.000  0.000  0.363  0.014  0.000
  0.000  0.000  0.014  0.405  0.000
  0.000  0.014  0.000  0.000  0.405
atomic mag. moment =     0.014181
atom    4   Tr[ns(na)] (up, down, total) =   1.91577  1.90150  3.81727
   spin  1
    eigenvalues: 
  0.357  0.357  0.387  0.407  0.407
    eigenvectors:
  0.000  0.000  1.000  0.000  0.000
  0.787  0.138  0.000  0.011  0.065
  0.138  0.787  0.000  0.065  0.011
  0.012  0.064  0.000  0.786  0.139
  0.064  0.012  0.000  0.139  0.786
    occupations:
  0.387  0.000  0.000  0.000  0.000
  0.000  0.361  0.000  0.000  0.013
  0.000  0.000  0.361  0.013  0.000
  0.000  0.000  0.013  0.403  0.000
  0.000  0.013  0.000  0.000  0.403
   spin  2
    eigenvalues: 
  0.353  0.353  0.387  0.404  0.404
    eigenvectors:
  0.000  0.000  1.000  0.000  0.000
  0.766  0.145  0.000  0.013  0.077
  0.145  0.766  0.000  0.077  0.013
  0.015  0.074  0.000  0.768  0.142
  0.074  0.015  0.000  0.142  0.768
    occupations:
  0.387  0.000  0.000  0.000  0.000
  0.000  0.358  0.000  0.000  0.014
  0.000  0.000  0.358  0.014  0.000
  0.000  0.000  0.014  0.399  0.000
  0.000  0.014  0.000  0.000  0.399
atomic mag. moment =     0.014274
atom    5   Tr[ns(na)] (up, down, total) =   2.74023  2.70141  5.44165
   spin  1
    eigenvalues: 
  0.844  0.946  0.951
    eigenvectors:
  0.337  0.000  0.663
  0.508  0.243  0.249
  0.156  0.757  0.088
    occupations:
  0.915 -0.044  0.025
 -0.044  0.895  0.028
  0.025  0.028  0.931
   spin  2
    eigenvalues: 
  0.864  0.919  0.919
    eigenvectors:
  0.333  0.000  0.666
  0.514  0.217  0.269
  0.153  0.782  0.065
    occupations:
  0.901 -0.023  0.012
 -0.023  0.891  0.015
  0.012  0.015  0.910
atomic mag. moment =     0.038816
atom    6   Tr[ns(na)] (up, down, total) =   2.74023  2.70141  5.44165
   spin  1
    eigenvalues: 
  0.844  0.946  0.951
    eigenvectors:
  0.337  0.000  0.663
  0.487  0.257  0.256
  0.176  0.743  0.081
    occupations:
  0.915  0.043  0.026
  0.043  0.897 -0.029
  0.026 -0.029  0.928
   spin  2
    eigenvalues: 
  0.864  0.919  0.919
    eigenvectors:
  0.333  0.000  0.666
  0.486  0.284  0.230
  0.181  0.716  0.103
    occupations:
  0.901  0.022  0.014
  0.022  0.892 -0.016
  0.014 -0.016  0.909
atomic mag. moment =     0.038816
atom    7   Tr[ns(na)] (up, down, total) =   2.74023  2.70141  5.44165
   spin  1
    eigenvalues: 
  0.844  0.946  0.951
    eigenvectors:
  0.337  0.000  0.663
  0.000  1.000  0.000
  0.663  0.000  0.337
    occupations:
  0.915  0.001 -0.051
  0.001  0.946  0.001
 -0.051  0.001  0.880
   spin  2
    eigenvalues: 
  0.864  0.919  0.919
    eigenvectors:
  0.333  0.000  0.666
  0.000  0.998  0.001
  0.666  0.001  0.332
    occupations:
  0.901  0.001 -0.026
  0.001  0.918  0.001
 -0.026  0.001  0.882
atomic mag. moment =     0.038816
atom    8   Tr[ns(na)] (up, down, total) =   2.74047  2.70152  5.44199
   spin  1
    eigenvalues: 
  0.843  0.947  0.950
    eigenvectors:
  0.337  0.000  0.663
  0.508  0.245  0.247
  0.156  0.755  0.090
    occupations:
  0.914 -0.044  0.024
 -0.044  0.895  0.029
  0.024  0.029  0.931
   spin  2
    eigenvalues: 
  0.864  0.918  0.919
    eigenvectors:
  0.334  0.665  0.002
  0.514  0.234  0.252
  0.153  0.101  0.746
    occupations:
  0.900 -0.023  0.012
 -0.023  0.891  0.016
  0.012  0.016  0.911
atomic mag. moment =     0.038944
atom    9   Tr[ns(na)] (up, down, total) =   2.74047  2.70152  5.44199
   spin  1
    eigenvalues: 
  0.843  0.947  0.950
    eigenvectors:
  0.337  0.000  0.663
  0.487  0.255  0.258
  0.176  0.745  0.079
    occupations:
  0.914  0.043  0.026
  0.043  0.897 -0.030
  0.026 -0.030  0.929
   spin  2
    eigenvalues: 
  0.864  0.918  0.919
    eigenvectors:
  0.334  0.665  0.002
  0.486  0.268  0.247
  0.181  0.068  0.752
    occupations:
  0.900  0.022  0.013
  0.022  0.892 -0.017
  0.013 -0.017  0.909
atomic mag. moment =     0.038944
atom   10   Tr[ns(na)] (up, down, total) =   2.74047  2.70152  5.44199
   spin  1
    eigenvalues: 
  0.843  0.947  0.950
    eigenvectors:
  0.337  0.000  0.663
  0.000  1.000  0.000
  0.663  0.000  0.337
    occupations:
  0.914  0.001 -0.050
  0.001  0.947  0.001
 -0.050  0.001  0.879
   spin  2
    eigenvalues: 
  0.864  0.918  0.919
    eigenvectors:
  0.334  0.665  0.002
  0.000  0.001  0.998
  0.666  0.334  0.000
    occupations:
  0.900  0.001 -0.026
  0.001  0.919  0.001
 -0.026  0.001  0.882
atomic mag. moment =     0.038944
N of occupied +U levels =  56.1729735
 --- exit write_ns ---
 --- in v_hubbard ---
Hubbard energy   -0.0422
 -------

     total cpu time spent up to now is      112.0 secs

     total energy              =    -538.39772088 Ry
     Harris-Foulkes estimate   =    -538.39778719 Ry
     estimated scf accuracy    <       0.00021868 Ry

     total magnetization       =     3.54 Bohr mag/cell
     absolute magnetization    =     3.69 Bohr mag/cell

     iteration #  2     ecut=    30.00 Ry     beta=0.20
     Davidson diagonalization with overlap
     ethr =  2.88E-07,  avg # of iterations =  1.2
 --- enter write_ns ---
 LDA+U parameters:
U( 1)     =  0.00000000
alpha( 1) =  0.00000000
U( 2)     =  0.00000000
alpha( 2) = -0.15000000
U( 3)     =  0.00000000
alpha( 3) =  0.00000000
U( 4)     =  0.00000000
alpha( 4) =  0.00000000
atom    1   Tr[ns(na)] (up, down, total) =   4.56417  3.36462  7.92880
   spin  1
    eigenvalues: 
  0.784  0.784  0.999  0.999  0.999
    eigenvectors:
  0.000  0.000  0.000  0.000  1.000
  0.423  0.223  0.056  0.297  0.000
  0.223  0.423  0.297  0.056  0.000
  0.346  0.008  0.557  0.090  0.000
  0.008  0.346  0.090  0.557  0.000
    occupations:
  0.999  0.000  0.000  0.000  0.000
  0.000  0.860  0.000 -0.073  0.072
  0.000  0.000  0.860  0.072  0.073
  0.000 -0.073  0.072  0.923  0.000
  0.000  0.072  0.073  0.000  0.923
   spin  2
    eigenvalues: 
  0.474  0.474  0.770  0.824  0.824
    eigenvectors:
  0.000  0.000  1.000  0.000  0.000
  0.277  0.362  0.000  0.034  0.327
  0.362  0.277  0.000  0.327  0.034
  0.278  0.083  0.000  0.476  0.163
  0.083  0.278  0.000  0.163  0.476
    occupations:
  0.770  0.000  0.000  0.000  0.000
  0.000  0.600  0.000 -0.036  0.164
  0.000  0.000  0.600  0.164  0.036
  0.000 -0.036  0.164  0.697  0.000
  0.000  0.164  0.036  0.000  0.697
atomic mag. moment =     1.199548
atom    2   Tr[ns(na)] (up, down, total) =   4.67422  3.23006  7.90427
   spin  1
    eigenvalues: 
  0.839  0.839  0.999  0.999  0.999
    eigenvectors:
  0.000  0.000  0.000  0.000  1.000
  0.643  0.003  0.325  0.028  0.000
  0.003  0.643  0.028  0.325  0.000
  0.152  0.202  0.500  0.146  0.000
  0.202  0.152  0.146  0.500  0.000
    occupations:
  0.999  0.000  0.000  0.000  0.000
  0.000  0.895  0.000  0.054  0.054
  0.000  0.000  0.895  0.054 -0.054
  0.000  0.054  0.054  0.942  0.000
  0.000  0.054 -0.054  0.000  0.942
   spin  2
    eigenvalues: 
  0.459  0.459  0.732  0.790  0.790
    eigenvectors:
  0.000  0.000  1.000  0.000  0.000
  0.512  0.123  0.000  0.190  0.174
  0.123  0.512  0.000  0.174  0.190
  0.018  0.346  0.000  0.447  0.188
  0.346  0.018  0.000  0.188  0.447
    occupations:
  0.732  0.000  0.000  0.000  0.000
  0.000  0.580  0.000  0.036  0.155
  0.000  0.000  0.580  0.155 -0.036
  0.000  0.036  0.155  0.669  0.000
  0.000  0.155 -0.036  0.000  0.669
atomic mag. moment =     1.444162
atom    3   Tr[ns(na)] (up, down, total) =   1.93918  1.92497  3.86414
   spin  1
    eigenvalues: 
  0.362  0.362  0.391  0.412  0.412
    eigenvectors:
  0.000  0.000  1.000  0.000  0.000
  0.789  0.137  0.000  0.010  0.063
  0.137  0.789  0.000  0.063  0.010
  0.012  0.062  0.000  0.788  0.138
  0.062  0.012  0.000  0.138  0.788
    occupations:
  0.391  0.000  0.000  0.000  0.000
  0.000  0.366  0.000  0.000  0.013
  0.000  0.000  0.366  0.013  0.000
  0.000  0.000  0.013  0.408  0.000
  0.000  0.013  0.000  0.000  0.408
   spin  2
    eigenvalues: 
  0.358  0.358  0.391  0.408  0.408
    eigenvectors:
  0.000  0.000  1.000  0.000  0.000
  0.768  0.144  0.000  0.013  0.075
  0.144  0.768  0.000  0.075  0.013
  0.015  0.073  0.000  0.770  0.142
  0.073  0.015  0.000  0.142  0.770
    occupations:
  0.391  0.000  0.000  0.000  0.000
  0.000  0.363  0.000  0.000  0.014
  0.000  0.000  0.363  0.014  0.000
  0.000  0.000  0.014  0.404  0.000
  0.000  0.014  0.000  0.000  0.404
atomic mag. moment =     0.014208
atom    4   Tr[ns(na)] (up, down, total) =   1.91469  1.90040  3.81509
   spin  1
    eigenvalues: 
  0.357  0.357  0.387  0.407  0.407
    eigenvectors:
  0.000  0.000  1.000  0.000  0.000
  0.786  0.138  0.000  0.011  0.065
  0.138  0.786  0.000  0.065  0.011
  0.012  0.064  0.000  0.785  0.139
  0.064  0.012  0.000  0.139  0.785
    occupations:
  0.387  0.000  0.000  0.000  0.000
  0.000  0.361  0.000  0.000  0.013
  0.000  0.000  0.361  0.013  0.000
  0.000  0.000  0.013  0.403  0.000
  0.000  0.013  0.000  0.000  0.403
   spin  2
    eigenvalues: 
  0.353  0.353  0.387  0.404  0.404
    eigenvectors:
  0.000  0.000  1.000  0.000  0.000
  0.765  0.145  0.000  0.013  0.077
  0.145  0.765  0.000  0.077  0.013
  0.015  0.075  0.000  0.768  0.142
  0.075  0.015  0.000  0.142  0.768
    occupations:
  0.387  0.000  0.000  0.000  0.000
  0.000  0.358  0.000  0.000  0.015
  0.000  0.000  0.358  0.015  0.000
  0.000  0.000  0.015  0.399  0.000
  0.000  0.015  0.000  0.000  0.399
atomic mag. moment =     0.014297
atom    5   Tr[ns(na)] (up, down, total) =   2.74094  2.70200  5.44294
   spin  1
    eigenvalues: 
  0.844  0.946  0.951
    eigenvectors:
  0.337  0.000  0.663
  0.508  0.243  0.249
  0.155  0.757  0.088
    occupations:
  0.915 -0.044  0.025
 -0.044  0.895  0.028
  0.025  0.028  0.931
   spin  2
    eigenvalues: 
  0.864  0.919  0.919
    eigenvectors:
  0.333  0.000  0.666
  0.513  0.220  0.267
  0.154  0.780  0.066
    occupations:
  0.901 -0.023  0.013
 -0.023  0.891  0.015
  0.013  0.015  0.910
atomic mag. moment =     0.038942
atom    6   Tr[ns(na)] (up, down, total) =   2.74094  2.70200  5.44294
   spin  1
    eigenvalues: 
  0.844  0.946  0.951
    eigenvectors:
  0.337  0.000  0.663
  0.487  0.257  0.257
  0.177  0.743  0.080
    occupations:
  0.915  0.043  0.026
  0.043  0.898 -0.029
  0.026 -0.029  0.929
   spin  2
    eigenvalues: 
  0.864  0.919  0.919
    eigenvectors:
  0.333  0.000  0.666
  0.487  0.281  0.232
  0.180  0.719  0.102
    occupations:
  0.901  0.022  0.014
  0.022  0.892 -0.016
  0.014 -0.016  0.909
atomic mag. moment =     0.038942
atom    7   Tr[ns(na)] (up, down, total) =   2.74094  2.70200  5.44294
   spin  1
    eigenvalues: 
  0.844  0.946  0.951
    eigenvectors:
  0.337  0.000  0.663
  0.000  1.000  0.000
  0.663  0.000  0.337
    occupations:
  0.915  0.001 -0.051
  0.001  0.946  0.001
 -0.051  0.001  0.880
   spin  2
    eigenvalues: 
  0.864  0.919  0.919
    eigenvectors:
  0.333  0.000  0.666
  0.000  0.998  0.001
  0.666  0.001  0.332
    occupations:
  0.901  0.001 -0.026
  0.001  0.919  0.001
 -0.026  0.001  0.882
atomic mag. moment =     0.038942
atom    8   Tr[ns(na)] (up, down, total) =   2.74102  2.70195  5.44297
   spin  1
    eigenvalues: 
  0.844  0.947  0.950
    eigenvectors:
  0.337  0.000  0.663
  0.508  0.245  0.247
  0.155  0.755  0.090
    occupations:
  0.914 -0.044  0.024
 -0.044  0.895  0.029
  0.024  0.029  0.931
   spin  2
    eigenvalues: 
  0.864  0.919  0.919
    eigenvectors:
  0.334  0.665  0.001
  0.513  0.234  0.253
  0.154  0.100  0.746
    occupations:
  0.900 -0.023  0.012
 -0.023  0.891  0.016
  0.012  0.016  0.911
atomic mag. moment =     0.039078
atom    9   Tr[ns(na)] (up, down, total) =   2.74102  2.70195  5.44297
   spin  1
    eigenvalues: 
  0.844  0.947  0.950
    eigenvectors:
  0.337  0.000  0.663
  0.487  0.255  0.258
  0.177  0.744  0.079
    occupations:
  0.914  0.043  0.026
  0.043  0.898 -0.030
  0.026 -0.030  0.929
   spin  2
    eigenvalues: 
  0.864  0.919  0.919
    eigenvectors:
  0.334  0.665  0.001
  0.487  0.267  0.246
  0.180  0.068  0.752
    occupations:
  0.900  0.022  0.013
  0.022  0.892 -0.017
  0.013 -0.017  0.909
atomic mag. moment =     0.039078
atom   10   Tr[ns(na)] (up, down, total) =   2.74102  2.70195  5.44297
   spin  1
    eigenvalues: 
  0.844  0.947  0.950
    eigenvectors:
  0.337  0.000  0.663
  0.000  1.000  0.000
  0.663  0.000  0.337
    occupations:
  0.914  0.001 -0.050
  0.001  0.947  0.001
 -0.050  0.001  0.880
   spin  2
    eigenvalues: 
  0.864  0.919  0.919
    eigenvectors:
  0.334  0.665  0.001
  0.000  0.001  0.999
  0.666  0.334  0.000
    occupations:
  0.900  0.001 -0.026
  0.001  0.919  0.001
 -0.026  0.001  0.882
atomic mag. moment =     0.039078
N of occupied +U levels =  56.1700240
 --- exit write_ns ---
 --- in v_hubbard ---
Hubbard energy   -0.0422
 -------

     total cpu time spent up to now is      145.9 secs

     total energy              =    -538.39769918 Ry
     Harris-Foulkes estimate   =    -538.39773602 Ry
     estimated scf accuracy    <       0.00021159 Ry

     total magnetization       =     3.54 Bohr mag/cell
     absolute magnetization    =     3.70 Bohr mag/cell

     iteration #  3     ecut=    30.00 Ry     beta=0.20
     Davidson diagonalization with overlap
     ethr =  2.78E-07,  avg # of iterations =  1.0
 --- enter write_ns ---
 LDA+U parameters:
U( 1)     =  0.00000000
alpha( 1) =  0.00000000
U( 2)     =  0.00000000
alpha( 2) = -0.15000000
U( 3)     =  0.00000000
alpha( 3) =  0.00000000
U( 4)     =  0.00000000
alpha( 4) =  0.00000000
atom    1   Tr[ns(na)] (up, down, total) =   4.57117  3.39656  7.96773
   spin  1
    eigenvalues: 
  0.788  0.788  0.999  0.999  0.999
    eigenvectors:
  0.000  0.000  0.000  0.000  1.000
  0.423  0.223  0.056  0.297  0.000
  0.223  0.423  0.297  0.056  0.000
  0.346  0.008  0.556  0.090  0.000
  0.008  0.346  0.090  0.556  0.000
    occupations:
  0.999  0.000  0.000  0.000  0.000
  0.000  0.862  0.000 -0.072  0.071
  0.000  0.000  0.862  0.071  0.072
  0.000 -0.072  0.071  0.924  0.000
  0.000  0.071  0.072  0.000  0.924
   spin  2
    eigenvalues: 
  0.475  0.475  0.781  0.833  0.833
    eigenvectors:
  0.000  0.000  1.000  0.000  0.000
  0.278  0.362  0.000  0.032  0.328
  0.362  0.278  0.000  0.328  0.032
  0.279  0.082  0.000  0.477  0.163
  0.082  0.279  0.000  0.163  0.477
    occupations:
  0.781  0.000  0.000  0.000  0.000
  0.000  0.604  0.000 -0.038  0.167
  0.000  0.000  0.604  0.167  0.038
  0.000 -0.038  0.167  0.704  0.000
  0.000  0.167  0.038  0.000  0.704
atomic mag. moment =     1.174611
atom    2   Tr[ns(na)] (up, down, total) =   4.66806  3.19817  7.86624
   spin  1
    eigenvalues: 
  0.836  0.836  0.999  0.999  0.999
    eigenvectors:
  0.000  0.000  0.000  0.000  1.000
  0.643  0.003  0.325  0.029  0.000
  0.003  0.643  0.029  0.325  0.000
  0.152  0.202  0.500  0.146  0.000
  0.202  0.152  0.146  0.500  0.000
    occupations:
  0.999  0.000  0.000  0.000  0.000
  0.000  0.893  0.000  0.055  0.055
  0.000  0.000  0.893  0.055 -0.055
  0.000  0.055  0.055  0.941  0.000
  0.000  0.055 -0.055  0.000  0.941
   spin  2
    eigenvalues: 
  0.458  0.458  0.721  0.780  0.780
    eigenvectors:
  0.000  0.000  1.000  0.000  0.000
  0.500  0.135  0.000  0.188  0.177
  0.135  0.500  0.000  0.177  0.188
  0.023  0.342  0.000  0.447  0.188
  0.342  0.023  0.000  0.188  0.447
    occupations:
  0.721  0.000  0.000  0.000  0.000
  0.000  0.576  0.000  0.035  0.151
  0.000  0.000  0.576  0.151 -0.035
  0.000  0.035  0.151  0.663  0.000
  0.000  0.151 -0.035  0.000  0.663
atomic mag. moment =     1.469891
atom    3   Tr[ns(na)] (up, down, total) =   1.93838  1.92419  3.86257
   spin  1
    eigenvalues: 
  0.362  0.362  0.391  0.412  0.412
    eigenvectors:
  0.000  0.000  1.000  0.000  0.000
  0.789  0.137  0.000  0.010  0.063
  0.137  0.789  0.000  0.063  0.010
  0.012  0.062  0.000  0.788  0.138
  0.062  0.012  0.000  0.138  0.788
    occupations:
  0.391  0.000  0.000  0.000  0.000
  0.000  0.366  0.000  0.000  0.013
  0.000  0.000  0.366  0.013  0.000
  0.000  0.000  0.013  0.408  0.000
  0.000  0.013  0.000  0.000  0.408
   spin  2
    eigenvalues: 
  0.358  0.358  0.391  0.408  0.408
    eigenvectors:
  0.000  0.000  1.000  0.000  0.000
  0.768  0.144  0.000  0.012  0.075
  0.144  0.768  0.000  0.075  0.012
  0.015  0.073  0.000  0.770  0.142
  0.073  0.015  0.000  0.142  0.770
    occupations:
  0.391  0.000  0.000  0.000  0.000
  0.000  0.363  0.000  0.000  0.014
  0.000  0.000  0.363  0.014  0.000
  0.000  0.000  0.014  0.404  0.000
  0.000  0.014  0.000  0.000  0.404
atomic mag. moment =     0.014192
atom    4   Tr[ns(na)] (up, down, total) =   1.91436  1.90008  3.81445
   spin  1
    eigenvalues: 
  0.357  0.357  0.387  0.407  0.407
    eigenvectors:
  0.000  0.000  1.000  0.000  0.000
  0.786  0.138  0.000  0.011  0.065
  0.138  0.786  0.000  0.065  0.011
  0.012  0.064  0.000  0.785  0.139
  0.064  0.012  0.000  0.139  0.785
    occupations:
  0.387  0.000  0.000  0.000  0.000
  0.000  0.361  0.000  0.000  0.013
  0.000  0.000  0.361  0.013  0.000
  0.000  0.000  0.013  0.403  0.000
  0.000  0.013  0.000  0.000  0.403
   spin  2
    eigenvalues: 
  0.353  0.353  0.387  0.404  0.404
    eigenvectors:
  0.000  0.000  1.000  0.000  0.000
  0.765  0.145  0.000  0.013  0.077
  0.145  0.765  0.000  0.077  0.013
  0.016  0.074  0.000  0.768  0.142
  0.074  0.016  0.000  0.142  0.768
    occupations:
  0.387  0.000  0.000  0.000  0.000
  0.000  0.357  0.000  0.000  0.015
  0.000  0.000  0.357  0.015  0.000
  0.000  0.000  0.015  0.399  0.000
  0.000  0.015  0.000  0.000  0.399
atomic mag. moment =     0.014281
atom    5   Tr[ns(na)] (up, down, total) =   2.74092  2.70213  5.44305
   spin  1
    eigenvalues: 
  0.844  0.946  0.951
    eigenvectors:
  0.337  0.000  0.663
  0.507  0.244  0.249
  0.156  0.756  0.088
    occupations:
  0.915 -0.044  0.025
 -0.044  0.895  0.028
  0.025  0.028  0.931
   spin  2
    eigenvalues: 
  0.864  0.919  0.919
    eigenvectors:
  0.333  0.001  0.666
  0.517  0.209  0.274
  0.150  0.791  0.060
    occupations:
  0.901 -0.023  0.012
 -0.023  0.891  0.015
  0.012  0.015  0.911
atomic mag. moment =     0.038783
atom    6   Tr[ns(na)] (up, down, total) =   2.74092  2.70213  5.44305
   spin  1
    eigenvalues: 
  0.844  0.946  0.951
    eigenvectors:
  0.337  0.000  0.663
  0.488  0.256  0.256
  0.175  0.744  0.081
    occupations:
  0.915  0.043  0.026
  0.043  0.897 -0.029
  0.026 -0.029  0.929
   spin  2
    eigenvalues: 
  0.864  0.919  0.919
    eigenvectors:
  0.333  0.001  0.666
  0.482  0.293  0.224
  0.184  0.706  0.110
    occupations:
  0.901  0.022  0.014
  0.022  0.892 -0.016
  0.014 -0.016  0.909
atomic mag. moment =     0.038783
atom    7   Tr[ns(na)] (up, down, total) =   2.74092  2.70213  5.44305
   spin  1
    eigenvalues: 
  0.844  0.946  0.951
    eigenvectors:
  0.337  0.000  0.663
  0.000  1.000  0.000
  0.663  0.000  0.337
    occupations:
  0.915  0.001 -0.051
  0.001  0.946  0.001
 -0.051  0.001  0.880
   spin  2
    eigenvalues: 
  0.864  0.919  0.919
    eigenvectors:
  0.333  0.001  0.666
  0.001  0.997  0.003
  0.666  0.002  0.332
    occupations:
  0.901  0.001 -0.026
  0.001  0.919  0.001
 -0.026  0.001  0.882
atomic mag. moment =     0.038783
atom    8   Tr[ns(na)] (up, down, total) =   2.74100  2.70208  5.44308
   spin  1
    eigenvalues: 
  0.844  0.947  0.950
    eigenvectors:
  0.337  0.000  0.663
  0.507  0.245  0.248
  0.156  0.754  0.089
    occupations:
  0.914 -0.044  0.025
 -0.044  0.895  0.029
  0.025  0.029  0.931
   spin  2
    eigenvalues: 
  0.864  0.919  0.919
    eigenvectors:
  0.333  0.663  0.003
  0.517  0.225  0.258
  0.150  0.111  0.739
    occupations:
  0.900 -0.023  0.012
 -0.023  0.891  0.016
  0.012  0.016  0.911
atomic mag. moment =     0.038917
atom    9   Tr[ns(na)] (up, down, total) =   2.74100  2.70208  5.44308
   spin  1
    eigenvalues: 
  0.844  0.947  0.950
    eigenvectors:
  0.337  0.000  0.663
  0.488  0.255  0.257
  0.175  0.745  0.080
    occupations:
  0.914  0.043  0.026
  0.043  0.897 -0.030
  0.026 -0.030  0.929
   spin  2
    eigenvalues: 
  0.864  0.919  0.919
    eigenvectors:
  0.333  0.663  0.003
  0.483  0.277  0.241
  0.184  0.060  0.756
    occupations:
  0.900  0.022  0.014
  0.022  0.892 -0.017
  0.014 -0.017  0.909
atomic mag. moment =     0.038917
atom   10   Tr[ns(na)] (up, down, total) =   2.74100  2.70208  5.44308
   spin  1
    eigenvalues: 
  0.844  0.947  0.950
    eigenvectors:
  0.337  0.000  0.663
  0.000  1.000  0.000
  0.663  0.000  0.337
    occupations:
  0.914  0.001 -0.050
  0.001  0.947  0.001
 -0.050  0.001  0.879
   spin  2
    eigenvalues: 
  0.864  0.919  0.919
    eigenvectors:
  0.333  0.663  0.003
  0.001  0.003  0.997
  0.666  0.334  0.000
    occupations:
  0.900  0.001 -0.026
  0.001  0.919  0.001
 -0.026  0.001  0.882
atomic mag. moment =     0.038917
N of occupied +U levels =  56.1693646
 --- exit write_ns ---
 --- in v_hubbard ---
Hubbard energy   -0.0423
 -------

     total cpu time spent up to now is      176.5 secs

     total energy              =    -538.39767141 Ry
     Harris-Foulkes estimate   =    -538.39776270 Ry
     estimated scf accuracy    <       0.00176004 Ry

     total magnetization       =     3.54 Bohr mag/cell
     absolute magnetization    =     3.69 Bohr mag/cell

     iteration #  4     ecut=    30.00 Ry     beta=0.20
     Davidson diagonalization with overlap
     ethr =  2.78E-07,  avg # of iterations =  1.0
 --- enter write_ns ---
 LDA+U parameters:
U( 1)     =  0.00000000
alpha( 1) =  0.00000000
U( 2)     =  0.00000000
alpha( 2) = -0.15000000
U( 3)     =  0.00000000
alpha( 3) =  0.00000000
U( 4)     =  0.00000000
alpha( 4) =  0.00000000
atom    1   Tr[ns(na)] (up, down, total) =   4.56618  3.37258  7.93875
   spin  1
    eigenvalues: 
  0.785  0.785  0.999  0.999  0.999
    eigenvectors:
  0.000  0.000  0.000  0.000  1.000
  0.423  0.223  0.056  0.297  0.000
  0.223  0.423  0.297  0.056  0.000
  0.346  0.008  0.557  0.090  0.000
  0.008  0.346  0.090  0.557  0.000
    occupations:
  0.999  0.000  0.000  0.000  0.000
  0.000  0.861  0.000 -0.073  0.072
  0.000  0.000  0.861  0.072  0.073
  0.000 -0.073  0.072  0.923  0.000
  0.000  0.072  0.073  0.000  0.923
   spin  2
    eigenvalues: 
  0.474  0.474  0.773  0.826  0.826
    eigenvectors:
  0.000  0.000  1.000  0.000  0.000
  0.277  0.362  0.000  0.034  0.327
  0.362  0.277  0.000  0.327  0.034
  0.278  0.083  0.000  0.476  0.163
  0.083  0.278  0.000  0.163  0.476
    occupations:
  0.773  0.000  0.000  0.000  0.000
  0.000  0.601  0.000 -0.037  0.165
  0.000  0.000  0.601  0.165  0.037
  0.000 -0.037  0.165  0.699  0.000
  0.000  0.165  0.037  0.000  0.699
atomic mag. moment =     1.193597
atom    2   Tr[ns(na)] (up, down, total) =   4.67320  3.22360  7.89680
   spin  1
    eigenvalues: 
  0.838  0.838  0.999  0.999  0.999
    eigenvectors:
  0.000  0.000  0.000  0.000  1.000
  0.643  0.003  0.325  0.029  0.000
  0.003  0.643  0.029  0.325  0.000
  0.152  0.202  0.500  0.146  0.000
  0.202  0.152  0.146  0.500  0.000
    occupations:
  0.999  0.000  0.000  0.000  0.000
  0.000  0.895  0.000  0.054  0.054
  0.000  0.000  0.895  0.054 -0.054
  0.000  0.054  0.054  0.942  0.000
  0.000  0.054 -0.054  0.000  0.942
   spin  2
    eigenvalues: 
  0.459  0.459  0.730  0.788  0.788
    eigenvectors:
  0.000  0.000  1.000  0.000  0.000
  0.509  0.126  0.000  0.189  0.175
  0.126  0.509  0.000  0.175  0.189
  0.019  0.345  0.000  0.447  0.188
  0.345  0.019  0.000  0.188  0.447
    occupations:
  0.730  0.000  0.000  0.000  0.000
  0.000  0.579  0.000  0.036  0.154
  0.000  0.000  0.579  0.154 -0.036
  0.000  0.036  0.154  0.668  0.000
  0.000  0.154 -0.036  0.000  0.668
atomic mag. moment =     1.449595
atom    3   Tr[ns(na)] (up, down, total) =   1.93623  1.92198  3.85821
   spin  1
    eigenvalues: 
  0.362  0.362  0.391  0.411  0.411
    eigenvectors:
  0.000  0.000  1.000  0.000  0.000
  0.789  0.137  0.000  0.010  0.064
  0.137  0.789  0.000  0.064  0.010
  0.012  0.063  0.000  0.787  0.138
  0.063  0.012  0.000  0.138  0.787
    occupations:
  0.391  0.000  0.000  0.000  0.000
  0.000  0.365  0.000  0.000  0.013
  0.000  0.000  0.365  0.013  0.000
  0.000  0.000  0.013  0.407  0.000
  0.000  0.013  0.000  0.000  0.407
   spin  2
    eigenvalues: 
  0.358  0.358  0.391  0.408  0.408
    eigenvectors:
  0.000  0.000  1.000  0.000  0.000
  0.768  0.144  0.000  0.013  0.075
  0.144  0.768  0.000  0.075  0.013
  0.015  0.073  0.000  0.770  0.142
  0.073  0.015  0.000  0.142  0.770
    occupations:
  0.391  0.000  0.000  0.000  0.000
  0.000  0.362  0.000  0.000  0.014
  0.000  0.000  0.362  0.014  0.000
  0.000  0.000  0.014  0.403  0.000
  0.000  0.014  0.000  0.000  0.403
atomic mag. moment =     0.014245
atom    4   Tr[ns(na)] (up, down, total) =   1.91386  1.89953  3.81339
   spin  1
    eigenvalues: 
  0.357  0.357  0.387  0.407  0.407
    eigenvectors:
  0.000  0.000  1.000  0.000  0.000
  0.785  0.138  0.000  0.011  0.066
  0.138  0.785  0.000  0.066  0.011
  0.012  0.064  0.000  0.785  0.139
  0.064  0.012  0.000  0.139  0.785
    occupations:
  0.387  0.000  0.000  0.000  0.000
  0.000  0.361  0.000  0.000  0.013
  0.000  0.000  0.361  0.013  0.000
  0.000  0.000  0.013  0.403  0.000
  0.000  0.013  0.000  0.000  0.403
   spin  2
    eigenvalues: 
  0.353  0.353  0.387  0.404  0.404
    eigenvectors:
  0.000  0.000  1.000  0.000  0.000
  0.764  0.145  0.000  0.013  0.077
  0.145  0.764  0.000  0.077  0.013
  0.016  0.075  0.000  0.767  0.142
  0.075  0.016  0.000  0.142  0.767
    occupations:
  0.387  0.000  0.000  0.000  0.000
  0.000  0.357  0.000  0.000  0.015
  0.000  0.000  0.357  0.015  0.000
  0.000  0.000  0.015  0.399  0.000
  0.000  0.015  0.000  0.000  0.399
atomic mag. moment =     0.014330
atom    5   Tr[ns(na)] (up, down, total) =   2.74124  2.70220  5.44343
   spin  1
    eigenvalues: 
  0.844  0.947  0.951
    eigenvectors:
  0.337  0.000  0.663
  0.508  0.243  0.249
  0.155  0.756  0.088
    occupations:
  0.915 -0.044  0.025
 -0.044  0.895  0.028
  0.025  0.028  0.931
   spin  2
    eigenvalues: 
  0.864  0.919  0.919
    eigenvectors:
  0.333  0.000  0.666
  0.514  0.217  0.269
  0.153  0.783  0.065
    occupations:
  0.901 -0.023  0.013
 -0.023  0.891  0.015
  0.013  0.015  0.910
atomic mag. moment =     0.039042
atom    6   Tr[ns(na)] (up, down, total) =   2.74124  2.70220  5.44343
   spin  1
    eigenvalues: 
  0.844  0.947  0.951
    eigenvectors:
  0.337  0.000  0.663
  0.487  0.257  0.257
  0.176  0.743  0.080
    occupations:
  0.915  0.043  0.026
  0.043  0.898 -0.030
  0.026 -0.030  0.929
   spin  2
    eigenvalues: 
  0.864  0.919  0.919
    eigenvectors:
  0.333  0.000  0.666
  0.486  0.284  0.230
  0.181  0.715  0.104
    occupations:
  0.901  0.022  0.014
  0.022  0.892 -0.016
  0.014 -0.016  0.909
atomic mag. moment =     0.039042
atom    7   Tr[ns(na)] (up, down, total) =   2.74124  2.70220  5.44343
   spin  1
    eigenvalues: 
  0.844  0.947  0.951
    eigenvectors:
  0.337  0.000  0.663
  0.000  1.000  0.000
  0.663  0.000  0.337
    occupations:
  0.915  0.001 -0.051
  0.001  0.947  0.001
 -0.051  0.001  0.880
   spin  2
    eigenvalues: 
  0.864  0.919  0.919
    eigenvectors:
  0.333  0.000  0.666
  0.000  0.998  0.002
  0.666  0.002  0.332
    occupations:
  0.901  0.001 -0.026
  0.001  0.919  0.001
 -0.026  0.001  0.882
atomic mag. moment =     0.039042
atom    8   Tr[ns(na)] (up, down, total) =   2.74132  2.70214  5.44346
   spin  1
    eigenvalues: 
  0.844  0.947  0.950
    eigenvectors:
  0.337  0.000  0.663
  0.508  0.245  0.248
  0.155  0.755  0.089
    occupations:
  0.914 -0.044  0.025
 -0.044  0.895  0.029
  0.025  0.029  0.931
   spin  2
    eigenvalues: 
  0.864  0.919  0.919
    eigenvectors:
  0.334  0.665  0.002
  0.513  0.231  0.255
  0.153  0.104  0.743
    occupations:
  0.900 -0.023  0.012
 -0.023  0.891  0.016
  0.012  0.016  0.911
atomic mag. moment =     0.039174
atom    9   Tr[ns(na)] (up, down, total) =   2.74132  2.70214  5.44346
   spin  1
    eigenvalues: 
  0.844  0.947  0.950
    eigenvectors:
  0.337  0.000  0.663
  0.487  0.255  0.258
  0.176  0.744  0.079
    occupations:
  0.914  0.043  0.026
  0.043  0.898 -0.030
  0.026 -0.030  0.929
   spin  2
    eigenvalues: 
  0.864  0.919  0.919
    eigenvectors:
  0.334  0.665  0.002
  0.486  0.270  0.244
  0.181  0.065  0.754
    occupations:
  0.900  0.022  0.014
  0.022  0.892 -0.017
  0.014 -0.017  0.909
atomic mag. moment =     0.039174
atom   10   Tr[ns(na)] (up, down, total) =   2.74132  2.70214  5.44346
   spin  1
    eigenvalues: 
  0.844  0.947  0.950
    eigenvectors:
  0.337  0.000  0.663
  0.000  1.000  0.000
  0.663  0.000  0.337
    occupations:
  0.914  0.001 -0.051
  0.001  0.947  0.001
 -0.051  0.001  0.880
   spin  2
    eigenvalues: 
  0.864  0.919  0.919
    eigenvectors:
  0.334  0.665  0.002
  0.000  0.002  0.998
  0.666  0.334  0.000
    occupations:
  0.900  0.001 -0.026
  0.001  0.919  0.001
 -0.026  0.001  0.882
atomic mag. moment =     0.039174
N of occupied +U levels =  56.1678295
 --- exit write_ns ---
 --- in v_hubbard ---
Hubbard energy   -0.0424
 -------

     total cpu time spent up to now is      206.8 secs

     total energy              =    -538.39771307 Ry
     Harris-Foulkes estimate   =    -538.39771423 Ry
     estimated scf accuracy    <       0.00000520 Ry

     total magnetization       =     3.54 Bohr mag/cell
     absolute magnetization    =     3.70 Bohr mag/cell

     iteration #  5     ecut=    30.00 Ry     beta=0.20
     Davidson diagonalization with overlap
     ethr =  6.84E-09,  avg # of iterations =  3.3
 --- enter write_ns ---
 LDA+U parameters:
U( 1)     =  0.00000000
alpha( 1) =  0.00000000
U( 2)     =  0.00000000
alpha( 2) = -0.15000000
U( 3)     =  0.00000000
alpha( 3) =  0.00000000
U( 4)     =  0.00000000
alpha( 4) =  0.00000000
atom    1   Tr[ns(na)] (up, down, total) =   4.56611  3.37222  7.93833
   spin  1
    eigenvalues: 
  0.785  0.785  0.999  0.999  0.999
    eigenvectors:
  0.000  0.000  0.000  0.000  1.000
  0.423  0.223  0.056  0.298  0.000
  0.223  0.423  0.298  0.056  0.000
  0.346  0.008  0.556  0.090  0.000
  0.008  0.346  0.090  0.556  0.000
    occupations:
  0.999  0.000  0.000  0.000  0.000
  0.000  0.861  0.000 -0.073  0.072
  0.000  0.000  0.861  0.072  0.073
  0.000 -0.073  0.072  0.923  0.000
  0.000  0.072  0.073  0.000  0.923
   spin  2
    eigenvalues: 
  0.474  0.474  0.773  0.826  0.826
    eigenvectors:
  0.000  0.000  1.000  0.000  0.000
  0.277  0.362  0.000  0.034  0.327
  0.362  0.277  0.000  0.327  0.034
  0.278  0.083  0.000  0.476  0.163
  0.083  0.278  0.000  0.163  0.476
    occupations:
  0.773  0.000  0.000  0.000  0.000
  0.000  0.601  0.000 -0.037  0.165
  0.000  0.000  0.601  0.165  0.037
  0.000 -0.037  0.165  0.699  0.000
  0.000  0.165  0.037  0.000  0.699
atomic mag. moment =     1.193896
atom    2   Tr[ns(na)] (up, down, total) =   4.67318  3.22319  7.89637
   spin  1
    eigenvalues: 
  0.838  0.838  0.999  0.999  0.999
    eigenvectors:
  0.000  0.000  0.000  0.000  1.000
  0.643  0.003  0.325  0.029  0.000
  0.003  0.643  0.029  0.325  0.000
  0.152  0.202  0.500  0.146  0.000
  0.202  0.152  0.146  0.500  0.000
    occupations:
  0.999  0.000  0.000  0.000  0.000
  0.000  0.895  0.000  0.054  0.054
  0.000  0.000  0.895  0.054 -0.054
  0.000  0.054  0.054  0.942  0.000
  0.000  0.054 -0.054  0.000  0.942
   spin  2
    eigenvalues: 
  0.459  0.459  0.730  0.788  0.788
    eigenvectors:
  0.000  0.000  1.000  0.000  0.000
  0.509  0.126  0.000  0.189  0.175
  0.126  0.509  0.000  0.175  0.189
  0.019  0.345  0.000  0.447  0.188
  0.345  0.019  0.000  0.188  0.447
    occupations:
  0.730  0.000  0.000  0.000  0.000
  0.000  0.579  0.000  0.036  0.154
  0.000  0.000  0.579  0.154 -0.036
  0.000  0.036  0.154  0.668  0.000
  0.000  0.154 -0.036  0.000  0.668
atomic mag. moment =     1.449992
atom    3   Tr[ns(na)] (up, down, total) =   1.93547  1.92125  3.85673
   spin  1
    eigenvalues: 
  0.361  0.361  0.391  0.411  0.411
    eigenvectors:
  0.000  0.000  1.000  0.000  0.000
  0.789  0.137  0.000  0.010  0.064
  0.137  0.789  0.000  0.064  0.010
  0.012  0.062  0.000  0.788  0.138
  0.062  0.012  0.000  0.138  0.788
    occupations:
  0.391  0.000  0.000  0.000  0.000
  0.000  0.365  0.000  0.000  0.013
  0.000  0.000  0.365  0.013  0.000
  0.000  0.000  0.013  0.407  0.000
  0.000  0.013  0.000  0.000  0.407
   spin  2
    eigenvalues: 
  0.358  0.358  0.391  0.408  0.408
    eigenvectors:
  0.000  0.000  1.000  0.000  0.000
  0.768  0.144  0.000  0.013  0.075
  0.144  0.768  0.000  0.075  0.013
  0.015  0.073  0.000  0.770  0.142
  0.073  0.015  0.000  0.142  0.770
    occupations:
  0.391  0.000  0.000  0.000  0.000
  0.000  0.362  0.000  0.000  0.014
  0.000  0.000  0.362  0.014  0.000
  0.000  0.000  0.014  0.403  0.000
  0.000  0.014  0.000  0.000  0.403
atomic mag. moment =     0.014217
atom    4   Tr[ns(na)] (up, down, total) =   1.91391  1.89959  3.81350
   spin  1
    eigenvalues: 
  0.357  0.357  0.387  0.407  0.407
    eigenvectors:
  0.000  0.000  1.000  0.000  0.000
  0.785  0.138  0.000  0.011  0.065
  0.138  0.785  0.000  0.065  0.011
  0.012  0.064  0.000  0.785  0.139
  0.064  0.012  0.000  0.139  0.785
    occupations:
  0.387  0.000  0.000  0.000  0.000
  0.000  0.361  0.000  0.000  0.013
  0.000  0.000  0.361  0.013  0.000
  0.000  0.000  0.013  0.403  0.000
  0.000  0.013  0.000  0.000  0.403
   spin  2
    eigenvalues: 
  0.353  0.353  0.387  0.404  0.404
    eigenvectors:
  0.000  0.000  1.000  0.000  0.000
  0.765  0.145  0.000  0.013  0.077
  0.145  0.765  0.000  0.077  0.013
  0.015  0.075  0.000  0.768  0.142
  0.075  0.015  0.000  0.142  0.768
    occupations:
  0.387  0.000  0.000  0.000  0.000
  0.000  0.357  0.000  0.000  0.015
  0.000  0.000  0.357  0.015  0.000
  0.000  0.000  0.015  0.399  0.000
  0.000  0.015  0.000  0.000  0.399
atomic mag. moment =     0.014315
atom    5   Tr[ns(na)] (up, down, total) =   2.74137  2.70234  5.44372
   spin  1
    eigenvalues: 
  0.844  0.947  0.951
    eigenvectors:
  0.337  0.000  0.663
  0.508  0.243  0.249
  0.155  0.756  0.088
    occupations:
  0.915 -0.044  0.025
 -0.044  0.895  0.028
  0.025  0.028  0.931
   spin  2
    eigenvalues: 
  0.864  0.919  0.919
    eigenvectors:
  0.333  0.001  0.666
  0.514  0.216  0.271
  0.153  0.784  0.063
    occupations:
  0.901 -0.023  0.013
 -0.023  0.891  0.015
  0.013  0.015  0.911
atomic mag. moment =     0.039032
atom    6   Tr[ns(na)] (up, down, total) =   2.74137  2.70234  5.44372
   spin  1
    eigenvalues: 
  0.844  0.947  0.951
    eigenvectors:
  0.337  0.000  0.663
  0.487  0.257  0.257
  0.176  0.743  0.080
    occupations:
  0.915  0.043  0.026
  0.043  0.898 -0.030
  0.026 -0.030  0.929
   spin  2
    eigenvalues: 
  0.864  0.919  0.919
    eigenvectors:
  0.333  0.001  0.666
  0.486  0.286  0.229
  0.181  0.714  0.105
    occupations:
  0.901  0.022  0.014
  0.022  0.892 -0.016
  0.014 -0.016  0.909
atomic mag. moment =     0.039032
atom    7   Tr[ns(na)] (up, down, total) =   2.74137  2.70234  5.44372
   spin  1
    eigenvalues: 
  0.844  0.947  0.951
    eigenvectors:
  0.337  0.000  0.663
  0.000  1.000  0.000
  0.663  0.000  0.337
    occupations:
  0.915  0.001 -0.051
  0.001  0.947  0.001
 -0.051  0.001  0.880
   spin  2
    eigenvalues: 
  0.864  0.919  0.919
    eigenvectors:
  0.333  0.001  0.666
  0.000  0.998  0.002
  0.666  0.002  0.332
    occupations:
  0.901  0.001 -0.026
  0.001  0.919  0.001
 -0.026  0.001  0.882
atomic mag. moment =     0.039032
atom    8   Tr[ns(na)] (up, down, total) =   2.74145  2.70229  5.44374
   spin  1
    eigenvalues: 
  0.844  0.947  0.951
    eigenvectors:
  0.337  0.000  0.663
  0.508  0.244  0.248
  0.155  0.755  0.089
    occupations:
  0.915 -0.044  0.025
 -0.044  0.895  0.029
  0.025  0.029  0.931
   spin  2
    eigenvalues: 
  0.864  0.919  0.920
    eigenvectors:
  0.334  0.664  0.002
  0.513  0.230  0.256
  0.153  0.105  0.742
    occupations:
  0.901 -0.023  0.012
 -0.023  0.891  0.016
  0.012  0.016  0.911
atomic mag. moment =     0.039164
atom    9   Tr[ns(na)] (up, down, total) =   2.74145  2.70229  5.44374
   spin  1
    eigenvalues: 
  0.844  0.947  0.951
    eigenvectors:
  0.337  0.000  0.663
  0.487  0.255  0.258
  0.176  0.744  0.079
    occupations:
  0.915  0.043  0.026
  0.043  0.898 -0.030
  0.026 -0.030  0.929
   spin  2
    eigenvalues: 
  0.864  0.919  0.920
    eigenvectors:
  0.334  0.664  0.002
  0.486  0.271  0.243
  0.181  0.064  0.755
    occupations:
  0.901  0.022  0.014
  0.022  0.892 -0.017
  0.014 -0.017  0.909
atomic mag. moment =     0.039164
atom   10   Tr[ns(na)] (up, down, total) =   2.74145  2.70229  5.44374
   spin  1
    eigenvalues: 
  0.844  0.947  0.951
    eigenvectors:
  0.337  0.000  0.663
  0.000  1.000  0.000
  0.663  0.000  0.337
    occupations:
  0.915  0.001 -0.051
  0.001  0.947  0.001
 -0.051  0.001  0.880
   spin  2
    eigenvalues: 
  0.864  0.919  0.920
    eigenvectors:
  0.334  0.664  0.002
  0.000  0.002  0.998
  0.666  0.334  0.000
    occupations:
  0.901  0.001 -0.026
  0.001  0.919  0.001
 -0.026  0.001  0.882
atomic mag. moment =     0.039164
N of occupied +U levels =  56.1672861
 --- exit write_ns ---
 --- in v_hubbard ---
Hubbard energy   -0.0425
 -------

     total cpu time spent up to now is      251.1 secs

     total energy              =    -538.39771366 Ry
     Harris-Foulkes estimate   =    -538.39771450 Ry
     estimated scf accuracy    <       0.00000237 Ry

     total magnetization       =     3.55 Bohr mag/cell
     absolute magnetization    =     3.70 Bohr mag/cell

     iteration #  6     ecut=    30.00 Ry     beta=0.20
     Davidson diagonalization with overlap
     ethr =  3.11E-09,  avg # of iterations =  2.0
 --- enter write_ns ---
 LDA+U parameters:
U( 1)     =  0.00000000
alpha( 1) =  0.00000000
U( 2)     =  0.00000000
alpha( 2) = -0.15000000
U( 3)     =  0.00000000
alpha( 3) =  0.00000000
U( 4)     =  0.00000000
alpha( 4) =  0.00000000
atom    1   Tr[ns(na)] (up, down, total) =   4.56620  3.37241  7.93862
   spin  1
    eigenvalues: 
  0.785  0.785  0.999  0.999  0.999
    eigenvectors:
  0.000  0.000  0.000  0.000  1.000
  0.423  0.223  0.056  0.298  0.000
  0.223  0.423  0.298  0.056  0.000
  0.346  0.008  0.556  0.090  0.000
  0.008  0.346  0.090  0.556  0.000
    occupations:
  0.999  0.000  0.000  0.000  0.000
  0.000  0.861  0.000 -0.073  0.072
  0.000  0.000  0.861  0.072  0.073
  0.000 -0.073  0.072  0.923  0.000
  0.000  0.072  0.073  0.000  0.923
   spin  2
    eigenvalues: 
  0.474  0.474  0.773  0.826  0.826
    eigenvectors:
  0.000  0.000  1.000  0.000  0.000
  0.277  0.362  0.000  0.034  0.327
  0.362  0.277  0.000  0.327  0.034
  0.278  0.083  0.000  0.476  0.163
  0.083  0.278  0.000  0.163  0.476
    occupations:
  0.773  0.000  0.000  0.000  0.000
  0.000  0.601  0.000 -0.037  0.165
  0.000  0.000  0.601  0.165  0.037
  0.000 -0.037  0.165  0.699  0.000
  0.000  0.165  0.037  0.000  0.699
atomic mag. moment =     1.193792
atom    2   Tr[ns(na)] (up, down, total) =   4.67320  3.22297  7.89617
   spin  1
    eigenvalues: 
  0.838  0.838  0.999  0.999  0.999
    eigenvectors:
  0.000  0.000  0.000  0.000  1.000
  0.643  0.003  0.325  0.029  0.000
  0.003  0.643  0.029  0.325  0.000
  0.152  0.202  0.500  0.146  0.000
  0.202  0.152  0.146  0.500  0.000
    occupations:
  0.999  0.000  0.000  0.000  0.000
  0.000  0.895  0.000  0.054  0.054
  0.000  0.000  0.895  0.054 -0.054
  0.000  0.054  0.054  0.942  0.000
  0.000  0.054 -0.054  0.000  0.942
   spin  2
    eigenvalues: 
  0.459  0.459  0.730  0.787  0.787
    eigenvectors:
  0.000  0.000  1.000  0.000  0.000
  0.509  0.126  0.000  0.189  0.175
  0.126  0.509  0.000  0.175  0.189
  0.019  0.345  0.000  0.447  0.188
  0.345  0.019  0.000  0.188  0.447
    occupations:
  0.730  0.000  0.000  0.000  0.000
  0.000  0.579  0.000  0.036  0.154
  0.000  0.000  0.579  0.154 -0.036
  0.000  0.036  0.154  0.668  0.000
  0.000  0.154 -0.036  0.000  0.668
atomic mag. moment =     1.450224
atom    3   Tr[ns(na)] (up, down, total) =   1.93575  1.92154  3.85729
   spin  1
    eigenvalues: 
  0.362  0.362  0.391  0.411  0.411
    eigenvectors:
  0.000  0.000  1.000  0.000  0.000
  0.789  0.137  0.000  0.010  0.064
  0.137  0.789  0.000  0.064  0.010
  0.012  0.062  0.000  0.788  0.138
  0.062  0.012  0.000  0.138  0.788
    occupations:
  0.391  0.000  0.000  0.000  0.000
  0.000  0.365  0.000  0.000  0.013
  0.000  0.000  0.365  0.013  0.000
  0.000  0.000  0.013  0.407  0.000
  0.000  0.013  0.000  0.000  0.407
   spin  2
    eigenvalues: 
  0.358  0.358  0.391  0.408  0.408
    eigenvectors:
  0.000  0.000  1.000  0.000  0.000
  0.768  0.144  0.000  0.013  0.075
  0.144  0.768  0.000  0.075  0.013
  0.015  0.073  0.000  0.770  0.142
  0.073  0.015  0.000  0.142  0.770
    occupations:
  0.391  0.000  0.000  0.000  0.000
  0.000  0.362  0.000  0.000  0.014
  0.000  0.000  0.362  0.014  0.000
  0.000  0.000  0.014  0.403  0.000
  0.000  0.014  0.000  0.000  0.403
atomic mag. moment =     0.014208
atom    4   Tr[ns(na)] (up, down, total) =   1.91446  1.90015  3.81462
   spin  1
    eigenvalues: 
  0.357  0.357  0.387  0.407  0.407
    eigenvectors:
  0.000  0.000  1.000  0.000  0.000
  0.785  0.138  0.000  0.011  0.065
  0.138  0.785  0.000  0.065  0.011
  0.012  0.064  0.000  0.785  0.139
  0.064  0.012  0.000  0.139  0.785
    occupations:
  0.387  0.000  0.000  0.000  0.000
  0.000  0.361  0.000  0.000  0.013
  0.000  0.000  0.361  0.013  0.000
  0.000  0.000  0.013  0.403  0.000
  0.000  0.013  0.000  0.000  0.403
   spin  2
    eigenvalues: 
  0.353  0.353  0.387  0.404  0.404
    eigenvectors:
  0.000  0.000  1.000  0.000  0.000
  0.765  0.145  0.000  0.013  0.077
  0.145  0.765  0.000  0.077  0.013
  0.015  0.075  0.000  0.767  0.143
  0.075  0.015  0.000  0.143  0.767
    occupations:
  0.387  0.000  0.000  0.000  0.000
  0.000  0.357  0.000  0.000  0.015
  0.000  0.000  0.357  0.015  0.000
  0.000  0.000  0.015  0.399  0.000
  0.000  0.015  0.000  0.000  0.399
atomic mag. moment =     0.014311
atom    5   Tr[ns(na)] (up, down, total) =   2.74126  2.70223  5.44349
   spin  1
    eigenvalues: 
  0.844  0.947  0.951
    eigenvectors:
  0.337  0.000  0.663
  0.508  0.243  0.249
  0.155  0.756  0.088
    occupations:
  0.915 -0.044  0.025
 -0.044  0.895  0.028
  0.025  0.028  0.931
   spin  2
    eigenvalues: 
  0.864  0.919  0.919
    eigenvectors:
  0.333  0.001  0.666
  0.514  0.215  0.271
  0.153  0.784  0.063
    occupations:
  0.901 -0.023  0.013
 -0.023  0.891  0.015
  0.013  0.015  0.911
atomic mag. moment =     0.039022
atom    6   Tr[ns(na)] (up, down, total) =   2.74126  2.70223  5.44349
   spin  1
    eigenvalues: 
  0.844  0.947  0.951
    eigenvectors:
  0.337  0.000  0.663
  0.487  0.257  0.257
  0.176  0.743  0.080
    occupations:
  0.915  0.043  0.026
  0.043  0.898 -0.030
  0.026 -0.030  0.929
   spin  2
    eigenvalues: 
  0.864  0.919  0.919
    eigenvectors:
  0.333  0.001  0.666
  0.486  0.286  0.228
  0.181  0.713  0.106
    occupations:
  0.901  0.022  0.014
  0.022  0.892 -0.016
  0.014 -0.016  0.909
atomic mag. moment =     0.039022
atom    7   Tr[ns(na)] (up, down, total) =   2.74126  2.70223  5.44349
   spin  1
    eigenvalues: 
  0.844  0.947  0.951
    eigenvectors:
  0.337  0.000  0.663
  0.000  1.000  0.000
  0.663  0.000  0.337
    occupations:
  0.915  0.001 -0.051
  0.001  0.947  0.001
 -0.051  0.001  0.880
   spin  2
    eigenvalues: 
  0.864  0.919  0.919
    eigenvectors:
  0.333  0.001  0.666
  0.000  0.998  0.002
  0.666  0.002  0.332
    occupations:
  0.901  0.001 -0.026
  0.001  0.919  0.001
 -0.026  0.001  0.882
atomic mag. moment =     0.039022
atom    8   Tr[ns(na)] (up, down, total) =   2.74134  2.70219  5.44353
   spin  1
    eigenvalues: 
  0.844  0.947  0.950
    eigenvectors:
  0.337  0.000  0.663
  0.508  0.244  0.248
  0.155  0.755  0.089
    occupations:
  0.915 -0.044  0.025
 -0.044  0.895  0.029
  0.025  0.029  0.931
   spin  2
    eigenvalues: 
  0.864  0.919  0.919
    eigenvectors:
  0.334  0.664  0.002
  0.513  0.230  0.256
  0.153  0.105  0.742
    occupations:
  0.901 -0.023  0.012
 -0.023  0.891  0.016
  0.012  0.016  0.911
atomic mag. moment =     0.039155
atom    9   Tr[ns(na)] (up, down, total) =   2.74134  2.70219  5.44353
   spin  1
    eigenvalues: 
  0.844  0.947  0.950
    eigenvectors:
  0.337  0.000  0.663
  0.487  0.255  0.258
  0.176  0.744  0.079
    occupations:
  0.915  0.043  0.026
  0.043  0.898 -0.030
  0.026 -0.030  0.929
   spin  2
    eigenvalues: 
  0.864  0.919  0.919
    eigenvectors:
  0.334  0.664  0.002
  0.486  0.271  0.243
  0.181  0.064  0.755
    occupations:
  0.901  0.022  0.014
  0.022  0.892 -0.017
  0.014 -0.017  0.909
atomic mag. moment =     0.039155
atom   10   Tr[ns(na)] (up, down, total) =   2.74134  2.70219  5.44353
   spin  1
    eigenvalues: 
  0.844  0.947  0.950
    eigenvectors:
  0.337  0.000  0.663
  0.000  1.000  0.000
  0.663  0.000  0.337
    occupations:
  0.915  0.001 -0.050
  0.001  0.947  0.001
 -0.050  0.001  0.880
   spin  2
    eigenvalues: 
  0.864  0.919  0.919
    eigenvectors:
  0.334  0.664  0.002
  0.000  0.002  0.998
  0.666  0.334  0.000
    occupations:
  0.901  0.001 -0.026
  0.001  0.919  0.001
 -0.026  0.001  0.882
atomic mag. moment =     0.039155
N of occupied +U levels =  56.1677567
 --- exit write_ns ---
 --- in v_hubbard ---
Hubbard energy   -0.0425
 -------

     total cpu time spent up to now is      293.9 secs

     total energy              =    -538.39771392 Ry
     Harris-Foulkes estimate   =    -538.39771414 Ry
     estimated scf accuracy    <       0.00000072 Ry

     total magnetization       =     3.55 Bohr mag/cell
     absolute magnetization    =     3.70 Bohr mag/cell

     iteration #  7     ecut=    30.00 Ry     beta=0.20
     Davidson diagonalization with overlap
     ethr =  9.50E-10,  avg # of iterations =  2.0
 --- enter write_ns ---
 LDA+U parameters:
U( 1)     =  0.00000000
alpha( 1) =  0.00000000
U( 2)     =  0.00000000
alpha( 2) = -0.15000000
U( 3)     =  0.00000000
alpha( 3) =  0.00000000
U( 4)     =  0.00000000
alpha( 4) =  0.00000000
atom    1   Tr[ns(na)] (up, down, total) =   4.56623  3.37227  7.93850
   spin  1
    eigenvalues: 
  0.785  0.785  0.999  0.999  0.999
    eigenvectors:
  0.000  0.000  0.000  0.000  1.000
  0.423  0.223  0.056  0.298  0.000
  0.223  0.423  0.298  0.056  0.000
  0.346  0.008  0.556  0.090  0.000
  0.008  0.346  0.090  0.556  0.000
    occupations:
  0.999  0.000  0.000  0.000  0.000
  0.000  0.861  0.000 -0.073  0.072
  0.000  0.000  0.861  0.072  0.073
  0.000 -0.073  0.072  0.923  0.000
  0.000  0.072  0.073  0.000  0.923
   spin  2
    eigenvalues: 
  0.474  0.474  0.773  0.826  0.826
    eigenvectors:
  0.000  0.000  1.000  0.000  0.000
  0.277  0.362  0.000  0.034  0.327
  0.362  0.277  0.000  0.327  0.034
  0.278  0.083  0.000  0.476  0.163
  0.083  0.278  0.000  0.163  0.476
    occupations:
  0.773  0.000  0.000  0.000  0.000
  0.000  0.601  0.000 -0.037  0.165
  0.000  0.000  0.601  0.165  0.037
  0.000 -0.037  0.165  0.699  0.000
  0.000  0.165  0.037  0.000  0.699
atomic mag. moment =     1.193961
atom    2   Tr[ns(na)] (up, down, total) =   4.67329  3.22302  7.89631
   spin  1
    eigenvalues: 
  0.838  0.838  0.999  0.999  0.999
    eigenvectors:
  0.000  0.000  0.000  0.000  1.000
  0.643  0.003  0.325  0.029  0.000
  0.003  0.643  0.029  0.325  0.000
  0.152  0.202  0.500  0.146  0.000
  0.202  0.152  0.146  0.500  0.000
    occupations:
  0.999  0.000  0.000  0.000  0.000
  0.000  0.895  0.000  0.054  0.054
  0.000  0.000  0.895  0.054 -0.054
  0.000  0.054  0.054  0.942  0.000
  0.000  0.054 -0.054  0.000  0.942
   spin  2
    eigenvalues: 
  0.459  0.459  0.730  0.787  0.787
    eigenvectors:
  0.000  0.000  1.000  0.000  0.000
  0.509  0.126  0.000  0.189  0.175
  0.126  0.509  0.000  0.175  0.189
  0.019  0.345  0.000  0.447  0.188
  0.345  0.019  0.000  0.188  0.447
    occupations:
  0.730  0.000  0.000  0.000  0.000
  0.000  0.579  0.000  0.036  0.154
  0.000  0.000  0.579  0.154 -0.036
  0.000  0.036  0.154  0.668  0.000
  0.000  0.154 -0.036  0.000  0.668
atomic mag. moment =     1.450273
atom    3   Tr[ns(na)] (up, down, total) =   1.93539  1.92118  3.85656
   spin  1
    eigenvalues: 
  0.361  0.361  0.391  0.411  0.411
    eigenvectors:
  0.000  0.000  1.000  0.000  0.000
  0.789  0.137  0.000  0.010  0.064
  0.137  0.789  0.000  0.064  0.010
  0.012  0.063  0.000  0.788  0.138
  0.063  0.012  0.000  0.138  0.788
    occupations:
  0.391  0.000  0.000  0.000  0.000
  0.000  0.365  0.000  0.000  0.013
  0.000  0.000  0.365  0.013  0.000
  0.000  0.000  0.013  0.407  0.000
  0.000  0.013  0.000  0.000  0.407
   spin  2
    eigenvalues: 
  0.357  0.357  0.391  0.408  0.408
    eigenvectors:
  0.000  0.000  1.000  0.000  0.000
  0.768  0.144  0.000  0.013  0.075
  0.144  0.768  0.000  0.075  0.013
  0.015  0.073  0.000  0.770  0.142
  0.073  0.015  0.000  0.142  0.770
    occupations:
  0.391  0.000  0.000  0.000  0.000
  0.000  0.362  0.000  0.000  0.014
  0.000  0.000  0.362  0.014  0.000
  0.000  0.000  0.014  0.403  0.000
  0.000  0.014  0.000  0.000  0.403
atomic mag. moment =     0.014206
atom    4   Tr[ns(na)] (up, down, total) =   1.91433  1.90002  3.81435
   spin  1
    eigenvalues: 
  0.357  0.357  0.387  0.407  0.407
    eigenvectors:
  0.000  0.000  1.000  0.000  0.000
  0.785  0.138  0.000  0.011  0.065
  0.138  0.785  0.000  0.065  0.011
  0.012  0.064  0.000  0.785  0.139
  0.064  0.012  0.000  0.139  0.785
    occupations:
  0.387  0.000  0.000  0.000  0.000
  0.000  0.361  0.000  0.000  0.013
  0.000  0.000  0.361  0.013  0.000
  0.000  0.000  0.013  0.403  0.000
  0.000  0.013  0.000  0.000  0.403
   spin  2
    eigenvalues: 
  0.353  0.353  0.387  0.404  0.404
    eigenvectors:
  0.000  0.000  1.000  0.000  0.000
  0.765  0.145  0.000  0.013  0.077
  0.145  0.765  0.000  0.077  0.013
  0.015  0.075  0.000  0.767  0.142
  0.075  0.015  0.000  0.142  0.767
    occupations:
  0.387  0.000  0.000  0.000  0.000
  0.000  0.357  0.000  0.000  0.015
  0.000  0.000  0.357  0.015  0.000
  0.000  0.000  0.015  0.399  0.000
  0.000  0.015  0.000  0.000  0.399
atomic mag. moment =     0.014313
atom    5   Tr[ns(na)] (up, down, total) =   2.74132  2.70228  5.44360
   spin  1
    eigenvalues: 
  0.844  0.947  0.951
    eigenvectors:
  0.337  0.000  0.663
  0.508  0.243  0.249
  0.155  0.756  0.088
    occupations:
  0.915 -0.044  0.025
 -0.044  0.895  0.028
  0.025  0.028  0.931
   spin  2
    eigenvalues: 
  0.864  0.919  0.919
    eigenvectors:
  0.333  0.001  0.666
  0.514  0.215  0.271
  0.153  0.784  0.063
    occupations:
  0.901 -0.023  0.013
 -0.023  0.891  0.015
  0.013  0.015  0.911
atomic mag. moment =     0.039038
atom    6   Tr[ns(na)] (up, down, total) =   2.74132  2.70228  5.44360
   spin  1
    eigenvalues: 
  0.844  0.947  0.951
    eigenvectors:
  0.337  0.000  0.663
  0.487  0.257  0.257
  0.176  0.743  0.080
    occupations:
  0.915  0.043  0.026
  0.043  0.898 -0.030
  0.026 -0.030  0.929
   spin  2
    eigenvalues: 
  0.864  0.919  0.919
    eigenvectors:
  0.333  0.001  0.666
  0.486  0.286  0.228
  0.181  0.713  0.106
    occupations:
  0.901  0.022  0.014
  0.022  0.892 -0.016
  0.014 -0.016  0.909
atomic mag. moment =     0.039038
atom    7   Tr[ns(na)] (up, down, total) =   2.74132  2.70228  5.44360
   spin  1
    eigenvalues: 
  0.844  0.947  0.951
    eigenvectors:
  0.337  0.000  0.663
  0.000  1.000  0.000
  0.663  0.000  0.337
    occupations:
  0.915  0.001 -0.051
  0.001  0.947  0.001
 -0.051  0.001  0.880
   spin  2
    eigenvalues: 
  0.864  0.919  0.919
    eigenvectors:
  0.333  0.001  0.666
  0.000  0.998  0.002
  0.666  0.002  0.332
    occupations:
  0.901  0.001 -0.026
  0.001  0.919  0.001
 -0.026  0.001  0.882
atomic mag. moment =     0.039038
atom    8   Tr[ns(na)] (up, down, total) =   2.74140  2.70223  5.44363
   spin  1
    eigenvalues: 
  0.844  0.947  0.951
    eigenvectors:
  0.337  0.000  0.663
  0.508  0.244  0.248
  0.155  0.755  0.089
    occupations:
  0.915 -0.044  0.025
 -0.044  0.895  0.029
  0.025  0.029  0.931
   spin  2
    eigenvalues: 
  0.864  0.919  0.919
    eigenvectors:
  0.334  0.664  0.002
  0.513  0.230  0.256
  0.153  0.105  0.742
    occupations:
  0.901 -0.023  0.012
 -0.023  0.891  0.016
  0.012  0.016  0.911
atomic mag. moment =     0.039173
atom    9   Tr[ns(na)] (up, down, total) =   2.74140  2.70223  5.44363
   spin  1
    eigenvalues: 
  0.844  0.947  0.951
    eigenvectors:
  0.337  0.000  0.663
  0.487  0.255  0.258
  0.176  0.744  0.079
    occupations:
  0.915  0.043  0.026
  0.043  0.898 -0.030
  0.026 -0.030  0.929
   spin  2
    eigenvalues: 
  0.864  0.919  0.919
    eigenvectors:
  0.334  0.664  0.002
  0.486  0.271  0.243
  0.181  0.064  0.755
    occupations:
  0.901  0.022  0.014
  0.022  0.892 -0.017
  0.014 -0.017  0.909
[...]
     0.0937   0.0937   0.0937   0.0937   0.0937   0.0937   0.0937   0.0873
     0.0078   0.0000   0.0000   0.0000   0.0000   0.0000

          k = 0.4942-0.5706-0.2053 (  2206 PWs)   bands (ev):

   -19.6984 -19.6110  -6.8894  -6.8788  -6.0385  -6.0314  -5.4289  -5.4249
    -3.1114  -3.0867  -2.7849  -2.7434  -2.3408  -2.3347   5.8927   5.9187
     6.7797   6.8162   6.8607   6.8849   7.3144   7.3441   7.8753   7.9207
     8.7242   8.7462   8.8621   8.8680   9.4617   9.4770   9.9577   9.9753
    10.6193  10.6692  10.7750  10.8399  11.0555  11.1023  11.4080  11.4515
    13.2793  13.3193  17.3911  17.3956  17.8478  17.8518

     occupation numbers 
     0.0938   0.0938   0.0938   0.0938   0.0938   0.0938   0.0938   0.0938
     0.0938   0.0938   0.0938   0.0938   0.0938   0.0938   0.0938   0.0938
     0.0938   0.0938   0.0938   0.0938   0.0938   0.0938   0.0938   0.0938
     0.0938   0.0938   0.0938   0.0938   0.0938   0.0938   0.0937   0.0937
     0.0937   0.0937   0.0937   0.0937   0.0937   0.0937   0.0936   0.0935
     0.0000   0.0000   0.0000   0.0000   0.0000   0.0000

          k = 0.0000 0.0000-0.6160 (  2186 PWs)   bands (ev):

   -19.6881 -19.6136  -6.5437  -6.4930  -5.9571  -5.9571  -5.9185  -5.9185
    -2.8674  -2.8674  -2.8134  -2.8134  -2.6934  -2.6310   6.2467   6.2726
     6.8956   6.8956   6.9605   6.9605   7.6557   7.6853   7.8229   7.8229
     7.8669   7.8669   9.5239   9.5239   9.5570   9.5570   9.6611   9.6832
    10.6798  10.8444  10.8444  10.8527  10.9996  10.9996  12.4131  12.4131
    12.5930  12.5930  17.0485  17.0485  17.1118  17.1118

     occupation numbers 
     0.0156   0.0156   0.0156   0.0156   0.0156   0.0156   0.0156   0.0156
     0.0156   0.0156   0.0156   0.0156   0.0156   0.0156   0.0156   0.0156
     0.0156   0.0156   0.0156   0.0156   0.0156   0.0156   0.0156   0.0156
     0.0156   0.0156   0.0156   0.0156   0.0156   0.0156   0.0156   0.0156
     0.0156   0.0156   0.0156   0.0156   0.0156   0.0156   0.0049   0.0049
     0.0021   0.0021   0.0000   0.0000   0.0000   0.0000

          k = 0.4942-0.5706 0.1027 (  2198 PWs)   bands (ev):

   -19.7005 -19.6072  -6.9548  -6.6536  -6.1258  -5.8971  -5.5220  -5.3784
    -3.2534  -3.1972  -2.8279  -2.6590  -2.4806  -2.3378   5.7859   6.1074
     6.6031   6.6967   7.0525   7.2301   7.3822   7.5907   7.6861   7.8328
     8.1520   8.7117   8.9683   9.1944   9.4870   9.7228   9.8381  10.2710
    10.3808  10.7412  10.8799  10.9359  11.0745  11.1447  11.5045  11.8854
    12.6796  13.6792  16.8717  17.0753  17.2805  17.9832

     occupation numbers 
     0.0938   0.0938   0.0938   0.0938   0.0938   0.0938   0.0938   0.0938
     0.0938   0.0938   0.0938   0.0938   0.0938   0.0938   0.0938   0.0938
     0.0938   0.0938   0.0938   0.0938   0.0938   0.0938   0.0938   0.0938
     0.0938   0.0938   0.0938   0.0938   0.0938   0.0938   0.0938   0.0937
     0.0937   0.0937   0.0937   0.0937   0.0937   0.0937   0.0934   0.0853
     0.0074   0.0000   0.0000   0.0000   0.0000   0.0000

 ------ SPIN DOWN ----------


          k = 0.0000 0.0000 0.0000 (  2175 PWs)   bands (ev):

   -19.7453 -19.5560  -6.4566  -5.7688  -5.7688  -5.7279  -5.7279  -5.4235
    -3.7009  -3.2081  -3.1213  -3.1213  -2.9578  -2.9578   5.2272   7.2379
     7.2379   7.5633   7.5633   7.7595   8.0097   8.0097   8.0563   9.4185
     9.7275   9.7275  10.0381  10.0838  10.0838  10.5694  10.5694  10.7667
    11.1840  11.1840  11.2729  12.1206  12.1206  12.6638  12.9875  12.9875
    15.3273  15.3273  15.4444  15.4444  16.1552  16.7619

     occupation numbers 
     0.0156   0.0156   0.0156   0.0156   0.0156   0.0156   0.0156   0.0156
     0.0156   0.0156   0.0156   0.0156   0.0156   0.0156   0.0156   0.0156
     0.0156   0.0156   0.0156   0.0156   0.0156   0.0156   0.0156   0.0156
     0.0156   0.0156   0.0156   0.0156   0.0156   0.0156   0.0156   0.0156
     0.0156   0.0156   0.0156   0.0110   0.0110   0.0014   0.0001   0.0001
     0.0000   0.0000   0.0000   0.0000   0.0000   0.0000

          k =-0.2471-0.1427 0.1027 (  2181 PWs)   bands (ev):

   -19.7201 -19.5763  -6.6447  -6.2292  -5.8544  -5.7676  -5.5286  -5.3945
    -3.5205  -3.3246  -2.8571  -2.8265  -2.7716  -2.6812   5.5860   6.9233
     7.3023   7.3230   7.4426   7.6588   7.6648   8.0059   8.0285   8.7830
     8.8492   9.4998   9.7821   9.9759  10.0348  10.1623  10.5117  10.5224
    11.5125  11.5573  11.6102  12.3066  12.3474  12.4774  13.1347  13.1815
    14.8951  14.9109  15.8358  16.0778  16.9611  17.2664

     occupation numbers 
     0.0938   0.0938   0.0938   0.0938   0.0938   0.0938   0.0938   0.0938
     0.0938   0.0938   0.0938   0.0938   0.0938   0.0938   0.0938   0.0938
     0.0938   0.0938   0.0938   0.0938   0.0938   0.0938   0.0938   0.0938
     0.0938   0.0938   0.0938   0.0937   0.0937   0.0937   0.0937   0.0937
     0.0934   0.0931   0.0927   0.0425   0.0373   0.0224   0.0001   0.0001
     0.0000   0.0000   0.0000   0.0000   0.0000   0.0000

          k = 0.4942 0.2853-0.2053 (  2202 PWs)   bands (ev):

   -19.6833 -19.6086  -6.6773  -6.6328  -5.8821  -5.8715  -5.4313  -5.4250
    -3.3324  -3.2975  -2.7164  -2.6975  -2.4625  -2.4086   6.1165   6.1406
     7.3819   7.4175   7.4628   7.5067   7.8207   7.8557   8.1109   8.1491
     8.3782   8.4140   9.6912   9.7041  10.0054  10.0103  10.4233  10.4288
    11.9123  11.9727  12.0077  12.0660  12.1589  12.2084  13.9223  13.9916
    14.0252  14.0939  16.8183  16.8786  17.1176  17.1764

     occupation numbers 
     0.0469   0.0469   0.0469   0.0469   0.0469   0.0469   0.0469   0.0469
     0.0469   0.0469   0.0469   0.0469   0.0469   0.0469   0.0469   0.0469
     0.0469   0.0469   0.0469   0.0469   0.0469   0.0469   0.0469   0.0469
     0.0469   0.0469   0.0469   0.0469   0.0469   0.0469   0.0469   0.0469
     0.0419   0.0399   0.0385   0.0358   0.0306   0.0276   0.0000   0.0000
     0.0000   0.0000   0.0000   0.0000   0.0000   0.0000

          k =-0.2471 0.1427 0.2053 (  2195 PWs)   bands (ev):

   -19.7195 -19.5787  -6.7674  -6.1535  -5.9928  -5.7675  -5.5747  -5.3538
    -3.3463  -3.1998  -3.0277  -2.8130  -2.7319  -2.4824   5.6341   6.9605
     7.2348   7.2632   7.3560   7.5339   7.6301   8.0378   8.0615   8.7970
     9.0837   9.0860   9.4487   9.9363  10.1053  10.2364  10.3128  10.4367
    11.2055  11.8306  11.9384  12.0033  12.3649  12.4855  12.9099  13.4726
    14.2728  15.3714  15.9853  16.2004  17.0250  17.5453

     occupation numbers 
     0.0938   0.0938   0.0938   0.0938   0.0938   0.0938   0.0938   0.0938
     0.0938   0.0938   0.0938   0.0938   0.0938   0.0938   0.0938   0.0938
     0.0938   0.0938   0.0938   0.0938   0.0938   0.0938   0.0938   0.0938
     0.0938   0.0938   0.0938   0.0937   0.0937   0.0937   0.0937   0.0937
     0.0937   0.0879   0.0822   0.0773   0.0352   0.0216   0.0013   0.0000
     0.0000   0.0000   0.0000   0.0000   0.0000   0.0000

          k = 0.4942 0.5706-0.1027 (  2198 PWs)   bands (ev):

   -19.6951 -19.6019  -6.8788  -6.5806  -6.0512  -5.8166  -5.4213  -5.2714
    -3.2447  -3.1872  -2.8042  -2.6319  -2.4500  -2.3060   5.9847   6.3718
     7.0063   7.2807   7.3692   7.4417   7.7072   7.9771   8.0963   8.2339
     8.5206   9.0567   9.3141   9.4953   9.8365   9.9502  10.1102  10.5000
    11.5857  11.9704  12.0767  12.1644  12.2992  12.3156  13.1209  13.4777
    14.0992  14.9655  16.9096  17.1376  17.3263  18.0201

     occupation numbers 
     0.0938   0.0938   0.0938   0.0938   0.0938   0.0938   0.0938   0.0938
     0.0938   0.0938   0.0938   0.0938   0.0938   0.0938   0.0938   0.0938
     0.0938   0.0938   0.0938   0.0938   0.0938   0.0938   0.0938   0.0938
     0.0938   0.0938   0.0938   0.0938   0.0938   0.0937   0.0937   0.0937
     0.0929   0.0799   0.0705   0.0606   0.0435   0.0414   0.0002   0.0000
     0.0000   0.0000   0.0000   0.0000   0.0000   0.0000

          k = 0.2471 0.4280 0.0000 (  2203 PWs)   bands (ev):

   -19.6966 -19.5986  -6.7722  -6.5758  -5.9760  -5.8982  -5.3431  -5.2636
    -3.4494  -3.2324  -2.7274  -2.6395  -2.4870  -2.4774   5.9451   6.3886
     7.2300   7.3742   7.4140   7.4949   7.5463   7.8796   7.9928   8.3614
     8.6104   9.0828   9.5424   9.6586   9.9189   9.9270  10.1917  10.5137
    11.8462  11.8615  11.9270  12.1207  12.1414  12.4145  13.0881  13.9527
    14.0733  14.7721  16.4513  17.0060  17.4255  17.9301

     occupation numbers 
     0.0938   0.0938   0.0938   0.0938   0.0938   0.0938   0.0938   0.0938
     0.0938   0.0938   0.0938   0.0938   0.0938   0.0938   0.0938   0.0938
     0.0938   0.0938   0.0938   0.0938   0.0938   0.0938   0.0938   0.0938
     0.0938   0.0938   0.0938   0.0938   0.0937   0.0937   0.0937   0.0937
     0.0872   0.0865   0.0829   0.0657   0.0634   0.0292   0.0002   0.0000
     0.0000   0.0000   0.0000   0.0000   0.0000   0.0000

          k = 0.4942-0.2853-0.4107 (  2202 PWs)   bands (ev):

   -19.7062 -19.5964  -7.0795  -6.3744  -6.1575  -5.9089  -5.4527  -5.1660
    -3.1317  -3.0644  -2.9741  -2.5751  -2.4005  -2.1435   5.9017   6.4913
     6.5710   7.1835   7.2279   7.2876   8.0495   8.1243   8.2099   8.3472
     8.6941   8.8287   8.8488   9.5269   9.7606  10.1364  10.1584  10.5797
    11.1893  11.8668  11.9909  12.2141  12.3533  12.4268  12.8461  13.2367
    14.0260  15.3943  17.0367  17.2969  17.5057  17.6109

     occupation numbers 
     0.0469   0.0469   0.0469   0.0469   0.0469   0.0469   0.0469   0.0469
     0.0469   0.0469   0.0469   0.0469   0.0469   0.0469   0.0469   0.0469
     0.0469   0.0469   0.0469   0.0469   0.0469   0.0469   0.0469   0.0469
     0.0469   0.0469   0.0469   0.0469   0.0469   0.0469   0.0469   0.0469
     0.0469   0.0431   0.0392   0.0272   0.0183   0.0139   0.0011   0.0000
     0.0000   0.0000   0.0000   0.0000   0.0000   0.0000

          k = 0.0000 0.0000 0.3080 (  2187 PWs)   bands (ev):

   -19.7199 -19.5761  -6.5300  -5.9217  -5.8514  -5.8472  -5.7582  -5.7522
    -3.1375  -3.0516  -3.0064  -2.9033  -2.8389  -2.7990   5.6379   7.1833
     7.3026   7.3067   7.5274   7.5299   7.6751   8.0299   8.0418   9.0227
     9.0256   9.5639   9.5654   9.8280   9.8320  10.0449  10.2700  10.2751
    11.6257  11.6277  11.6453  12.3215  12.3224  12.4969  13.1122  13.1135
    14.8552  14.8604  15.9163  15.9299  16.8571  17.4880

     occupation numbers 
     0.0313   0.0313   0.0313   0.0313   0.0313   0.0313   0.0313   0.0313
     0.0313   0.0313   0.0313   0.0313   0.0313   0.0313   0.0313   0.0313
     0.0313   0.0313   0.0313   0.0313   0.0313   0.0313   0.0313   0.0313
     0.0313   0.0313   0.0313   0.0313   0.0313   0.0312   0.0312   0.0312
     0.0309   0.0309   0.0308   0.0135   0.0135   0.0068   0.0001   0.0001
     0.0000   0.0000   0.0000   0.0000   0.0000   0.0000

          k = 0.7412 0.4280 0.0000 (  2204 PWs)   bands (ev):

   -19.6964 -19.5984  -6.6574  -6.5382  -6.0716  -5.7508  -5.5795  -5.4560
    -3.0992  -3.0280  -2.9730  -2.6106  -2.5742  -2.4999   5.9920   6.5797
     7.2434   7.4026   7.4133   7.5090   7.5522   7.8291   8.1802   8.3389
     8.6552   8.9588   9.6153   9.6440   9.7383   9.8094  10.0123  10.3598
    11.8399  11.8669  11.9902  12.1346  12.1849  12.3791  13.0800  13.8783
    13.9966  14.7983  16.7066  16.7322  17.5958  17.8209

     occupation numbers 
     0.0938   0.0938   0.0938   0.0938   0.0938   0.0938   0.0938   0.0938
     0.0938   0.0938   0.0938   0.0938   0.0938   0.0938   0.0938   0.0938
     0.0938   0.0938   0.0938   0.0938   0.0938   0.0938   0.0938   0.0938
     0.0938   0.0938   0.0938   0.0938   0.0938   0.0938   0.0937   0.0937
     0.0875   0.0863   0.0784   0.0641   0.0581   0.0334   0.0002   0.0000
     0.0000   0.0000   0.0000   0.0000   0.0000   0.0000

          k = 0.4942 0.2853 0.1027 (  2211 PWs)   bands (ev):

   -19.6951 -19.6019  -6.8948  -6.4803  -6.2458  -5.6124  -5.5388  -5.2459
    -3.2557  -3.1032  -2.9554  -2.5335  -2.4799  -2.2972   6.0115   6.3443
     6.9717   7.2862   7.3045   7.4281   7.7041   8.0178   8.1696   8.2005
     8.5669   9.1828   9.3162   9.5487   9.7087   9.8083  10.1660  10.5150
    11.5836  12.0203  12.1173  12.1843  12.2444  12.2586  13.0848  13.4863
    14.1434  14.9504  16.8930  16.9477  17.6066  17.9383

     occupation numbers 
     0.0938   0.0938   0.0938   0.0938   0.0938   0.0938   0.0938   0.0938
     0.0938   0.0938   0.0938   0.0938   0.0938   0.0938   0.0938   0.0938
     0.0938   0.0938   0.0938   0.0938   0.0938   0.0938   0.0938   0.0938
     0.0938   0.0938   0.0938   0.0938   0.0938   0.0938   0.0937   0.0937
     0.0930   0.0759   0.0661   0.0582   0.0506   0.0487   0.0002   0.0000
     0.0000   0.0000   0.0000   0.0000   0.0000   0.0000

          k = 0.7412-0.4280-0.3080 (  2210 PWs)   bands (ev):

   -19.6949 -19.6018  -6.8310  -6.3870  -6.2225  -5.7197  -5.6743  -5.3759
    -3.0017  -2.9826  -2.9006  -2.6550  -2.5388  -2.3506   6.0754   6.5059
     7.0571   7.2693   7.3551   7.3811   7.7200   8.0636   8.1887   8.2406
     8.5634   9.1504   9.1648   9.6530   9.6856   9.7517   9.8103  10.3538
    11.6341  12.0242  12.1032  12.1712  12.2794  12.3323  13.0456  13.4456
    14.0953  14.9162  17.0729  17.0870  17.5747  17.9034

     occupation numbers 
     0.0938   0.0938   0.0938   0.0938   0.0938   0.0938   0.0938   0.0938
     0.0938   0.0938   0.0938   0.0938   0.0938   0.0938   0.0938   0.0938
     0.0938   0.0938   0.0938   0.0938   0.0938   0.0938   0.0938   0.0938
     0.0938   0.0938   0.0938   0.0938   0.0938   0.0938   0.0938   0.0937
     0.0925   0.0755   0.0677   0.0598   0.0460   0.0392   0.0003   0.0000
     0.0000   0.0000   0.0000   0.0000   0.0000   0.0000

          k = 0.4942-0.5706-0.2053 (  2206 PWs)   bands (ev):

   -19.6931 -19.6057  -6.8153  -6.8045  -5.9635  -5.9559  -5.3231  -5.3195
    -3.1038  -3.0791  -2.7599  -2.7188  -2.3078  -2.3015   6.1876   6.2157
     7.1301   7.1503   7.3143   7.3242   7.5429   7.5664   8.3980   8.4407
     8.8928   8.9143   9.2099   9.2149   9.6850   9.6922  10.2522  10.2562
    11.8387  11.8483  12.0104  12.0522  12.3248  12.3491  13.1066  13.1258
    14.6300  14.6453  17.4565  17.4590  17.8768  17.8823

     occupation numbers 
     0.0938   0.0938   0.0938   0.0938   0.0938   0.0938   0.0938   0.0938
     0.0938   0.0938   0.0938   0.0938   0.0938   0.0938   0.0938   0.0938
     0.0938   0.0938   0.0938   0.0938   0.0938   0.0938   0.0938   0.0938
     0.0938   0.0938   0.0938   0.0938   0.0938   0.0938   0.0937   0.0937
     0.0875   0.0871   0.0767   0.0729   0.0402   0.0371   0.0002   0.0001
     0.0000   0.0000   0.0000   0.0000   0.0000   0.0000

          k = 0.0000 0.0000-0.6160 (  2186 PWs)   bands (ev):

   -19.6828 -19.6083  -6.4654  -6.4140  -5.8745  -5.8745  -5.8355  -5.8355
    -2.8354  -2.8354  -2.7823  -2.7823  -2.6771  -2.6150   6.3343   6.3592
     7.4028   7.4028   7.4477   7.4477   7.9820   8.0090   8.2803   8.2803
     8.3221   8.3221   9.7921   9.7921   9.7956   9.7956   9.8441   9.8538
    12.0603  12.0873  12.0873  12.1180  12.1398  12.1398  13.8549  13.8549
    13.9604  13.9604  17.1094  17.1094  17.1710  17.1710

     occupation numbers 
     0.0156   0.0156   0.0156   0.0156   0.0156   0.0156   0.0156   0.0156
     0.0156   0.0156   0.0156   0.0156   0.0156   0.0156   0.0156   0.0156
     0.0156   0.0156   0.0156   0.0156   0.0156   0.0156   0.0156   0.0156
     0.0156   0.0156   0.0156   0.0156   0.0156   0.0156   0.0156   0.0156
     0.0120   0.0116   0.0116   0.0110   0.0106   0.0106   0.0000   0.0000
     0.0000   0.0000   0.0000   0.0000   0.0000   0.0000

          k = 0.4942-0.5706 0.1027 (  2198 PWs)   bands (ev):

   -19.6951 -19.6019  -6.8793  -6.5797  -6.0522  -5.8154  -5.4223  -5.2709
    -3.2454  -3.1872  -2.8044  -2.6309  -2.4507  -2.3056   5.9822   6.3754
     7.0022   7.2880   7.3892   7.4255   7.6961   7.9778   8.0710   8.2643
     8.5171   9.0640   9.3096   9.4925   9.8335   9.9533  10.1103  10.5007
    11.5830  11.9988  12.0514  12.1653  12.3011  12.3138  13.1181  13.4772
    14.0992  14.9668  16.9118  17.1352  17.3268  18.0211

     occupation numbers 
     0.0938   0.0938   0.0938   0.0938   0.0938   0.0938   0.0938   0.0938
     0.0938   0.0938   0.0938   0.0938   0.0938   0.0938   0.0938   0.0938
     0.0938   0.0938   0.0938   0.0938   0.0938   0.0938   0.0938   0.0938
     0.0938   0.0938   0.0938   0.0938   0.0938   0.0937   0.0937   0.0937
     0.0930   0.0777   0.0730   0.0605   0.0432   0.0416   0.0002   0.0000
     0.0000   0.0000   0.0000   0.0000   0.0000   0.0000

     the Fermi energy is    12.2730 ev

!    total energy              =    -538.39771415 Ry
     Harris-Foulkes estimate   =    -538.39771413 Ry
     estimated scf accuracy    <          4.8E-09 Ry

     The total energy is the sum of the following terms:

     one-electron contribution =     -32.69774712 Ry
     hartree contribution      =      83.46902999 Ry
     xc contribution           =    -199.64335800 Ry
     ewald contribution        =    -389.44315552 Ry
     Hubbard energy            =      -0.04252033 Ry
     smearing contrib. (-TS)   =      -0.03996316 Ry

     total magnetization       =     3.55 Bohr mag/cell
     absolute magnetization    =     3.70 Bohr mag/cell

     convergence has been achieved in  10 iterations

     init_run     :      8.39s CPU      8.58s WALL (       1 calls)
     electrons    :    426.98s CPU    429.64s WALL (       1 calls)

     Called by init_run:
     wfcinit      :      0.00s CPU      0.00s WALL (       1 calls)
     potinit      :      0.84s CPU      0.89s WALL (       1 calls)

     Called by electrons:
     c_bands      :    288.29s CPU    289.60s WALL (      10 calls)
     sum_band     :     87.25s CPU     87.92s WALL (      10 calls)
     v_of_rho     :      8.26s CPU      8.34s WALL (      11 calls)
     v_h          :      0.28s CPU      0.28s WALL (      11 calls)
     v_xc         :      7.98s CPU      8.06s WALL (      11 calls)
     newd         :     44.08s CPU     44.17s WALL (      11 calls)
     mix_rho      :      0.94s CPU      0.94s WALL (      10 calls)

     Called by c_bands:
     init_us_2    :      2.87s CPU      2.87s WALL (     560 calls)
     cegterg      :    280.67s CPU    281.36s WALL (     280 calls)

     Called by sum_band:
     sum_band:bec :      0.23s CPU      0.22s WALL (     280 calls)
     addusdens    :     33.60s CPU     33.65s WALL (      10 calls)

     Called by *egterg:
     h_psi        :    207.98s CPU    208.53s WALL (    1236 calls)
     s_psi        :     11.18s CPU     11.19s WALL (    1236 calls)
     g_psi        :      0.77s CPU      0.78s WALL (     956 calls)
     cdiaghg      :     21.08s CPU     21.11s WALL (    1208 calls)
     cegterg:over :     15.21s CPU     15.23s WALL (     956 calls)
     cegterg:upda :     11.38s CPU     11.42s WALL (     956 calls)
     cegterg:last :      5.69s CPU      5.69s WALL (     308 calls)

     Called by h_psi:
     h_psi:vloc   :    168.55s CPU    169.06s WALL (    1236 calls)
     h_psi:vnl    :     24.64s CPU     24.68s WALL (    1236 calls)
     add_vuspsi   :     11.62s CPU     11.62s WALL (    1236 calls)
     vhpsi        :     14.06s CPU     14.06s WALL (    1236 calls)

     General routines
     calbec       :     25.90s CPU     25.96s WALL (    3032 calls)
     fft          :      4.45s CPU      4.46s WALL (     329 calls)
     ffts         :      0.14s CPU      0.14s WALL (      42 calls)
     fftw         :    143.32s CPU    143.73s WALL (   82566 calls)
     interpolate  :      0.99s CPU      0.99s WALL (      42 calls)
     davcio       :      0.02s CPU      1.10s WALL (     588 calls)

     Parallel routines
     fft_scatter  :     38.34s CPU     38.85s WALL (   82937 calls)
     Hubbard U routines
     new_ns       :      2.52s CPU      3.00s WALL (      10 calls)
     vhpsi        :     14.06s CPU     14.06s WALL (    1236 calls)

     PWSCF        :  7m15.85s CPU     7m18.73s WALL


   This run was terminated on:  12:10:15  13Nov2012            

=------------------------------------------------------------------------------=
