   JOB DONE.
=------------------------------------------------------------------------------=

     Program PWSCF v.5.0.1 starts on 13Nov2012 at 12:21:38 

     This program is part of the open-source Quantum ESPRESSO suite
     for quantum simulation of materials; please cite
         "P. Giannozzi et al., J. Phys.:Condens. Matter 21 395502 (2009);
          URL http://www.quantum-espresso.org", 
     in publications or presentations arising from this work. More details at
     http://www.quantum-espresso.org/quote.php

     Parallel version (MPI), running on     2 processors
     R & G space division:  proc/pool =    2

     Current dimensions of program PWSCF are:
     Max number of different atomic species (ntypx) = 10
     Max number of k-points (npk) =  40000
     Max angular momentum in pseudopotentials (lmaxx) =  3
     Reading input from CoLaO_U0_a5.in
               file Co.pbe-nd-rrkjus.UPF: wavefunction(s)  4S 3D renormalized
               file O.pbe-rrkjus.UPF: wavefunction(s)  2S renormalized

     Subspace diagonalization in iterative solution of the eigenvalue problem:
     a serial algorithm will be used


     Parallelization info
     --------------------
     sticks:   dense  smooth     PW     G-vecs:    dense   smooth      PW
     Min        1112     444    131                34808     8786    1448
     Max        1113     445    132                34809     8787    1449
     Sum        2225     889    263                69617    17573    2897


     Title: 
     GGA + U, U = 1D-40, alpha = 0.050                                          


     bravais-lattice index     =            5
     lattice parameter (alat)  =      10.3292  a.u.
     unit-cell volume          =     793.0599 (a.u.)^3
     number of atoms/cell      =           10
     number of atomic types    =            4
     number of electrons       =        76.00
     number of Kohn-Sham states=           46
     kinetic-energy cutoff     =      30.0000  Ry
     charge density cutoff     =     300.0000  Ry
     convergence threshold     =      1.0E-08
     mixing beta               =       0.2000
     number of iterations used =            8  plain     mixing
     Exchange-correlation      =  SLA  PW   PBE  PBE ( 1 4 3 4 0)
     EXX-fraction              =        0.00

     celldm(1)=  10.329242  celldm(2)=   0.000000  celldm(3)=   0.000000
     celldm(4)=   0.488100  celldm(5)=   0.000000  celldm(6)=   0.000000

     crystal axes: (cart. coord. in units of alat)
               a(1) = (   0.505915  -0.292090   0.811624 )  
               a(2) = (   0.000000   0.584180   0.811624 )  
               a(3) = (  -0.505915  -0.292090   0.811624 )  

     reciprocal axes: (cart. coord. in units 2 pi/alat)
               b(1) = (  0.988308 -0.570600  0.410699 )  
               b(2) = (  0.000000  1.141200  0.410699 )  
               b(3) = ( -0.988308 -0.570600  0.410699 )  


     PseudoPot. # 1 for Co read from file:
     /home/mcurnan/dft-course/Project1/example_LaCoO3/Co.pbe-nd-rrkjus.UPF
     MD5 check sum: 3e47a84addf5e975e0edeaeee2a73f59
     Pseudo is Ultrasoft + core correction, Zval =  9.0
     Generated by new atomic code, or converted to UPF format
     Using radial grid of  961 points,  6 beta functions with: 
                l(1) =   0
                l(2) =   0
                l(3) =   1
                l(4) =   1
                l(5) =   2
                l(6) =   2
     Q(r) pseudized with 0 coefficients 


     PseudoPot. # 2 for La read from file:
     /home/mcurnan/dft-course/Project1/example_LaCoO3/La.pbe-nsp-van.UPF
     MD5 check sum: b2f11743f52dde65f77d1302becd7929
     Pseudo is Ultrasoft + core correction, Zval = 11.0
     Generated by new atomic code, or converted to UPF format
     Using radial grid of  907 points,  6 beta functions with: 
                l(1) =   0
                l(2) =   0
                l(3) =   1
                l(4) =   1
                l(5) =   2
                l(6) =   2
     Q(r) pseudized with  6 coefficients,  rinner =    1.200   1.200   1.200
                                                       1.200   1.200

     PseudoPot. # 3 for La read from file:
     /home/mcurnan/dft-course/Project1/example_LaCoO3/La.pbe-nsp-van.UPF
     MD5 check sum: b2f11743f52dde65f77d1302becd7929
     Pseudo is Ultrasoft + core correction, Zval = 11.0
     Generated by new atomic code, or converted to UPF format
     Using radial grid of  907 points,  6 beta functions with: 
                l(1) =   0
                l(2) =   0
                l(3) =   1
                l(4) =   1
                l(5) =   2
                l(6) =   2
     Q(r) pseudized with  6 coefficients,  rinner =    1.200   1.200   1.200
                                                       1.200   1.200

     PseudoPot. # 4 for O  read from file:
     /home/mcurnan/dft-course/Project1/example_LaCoO3/O.pbe-rrkjus.UPF
     MD5 check sum: 390ba29e75625707450f3bd3f0eb6be9
     Pseudo is Ultrasoft, Zval =  6.0
     Generated by new atomic code, or converted to UPF format
     Using radial grid of 1269 points,  4 beta functions with: 
                l(1) =   0
                l(2) =   0
                l(3) =   1
                l(4) =   1
     Q(r) pseudized with 0 coefficients 


     atomic species   valence    mass     pseudopotential
        Co1            9.00     1.00000     Co( 1.00)
        La1           11.00     1.00000     La( 1.00)
        La2           11.00     1.00000     La( 1.00)
        O1             6.00     1.00000     O ( 1.00)

     Starting magnetic structure 
     atomic species   magnetization
        Co1          1.000
        La1          0.000
        La2          0.000
        O1           0.000
 -----
     simplified LDA+U calculation, Hubbard_lmax = 2
     atomic species  L   Hubbard U  Hubbard alpha
        Co1          2    0.000000    0.000000
        La1          2    0.000000    0.050000
        La2          2    0.000000    0.000000
        O1           1    0.000000    0.000000
 -----

      3 Sym. Ops. (no inversion) found


                                    s                        frac. trans.

      isym =  1     identity                                     

 cryst.   s( 1) = (     1          0          0      )
                  (     0          1          0      )
                  (     0          0          1      )

 cart.    s( 1) = (  1.0000000  0.0000000  0.0000000 )
                  (  0.0000000  1.0000000  0.0000000 )
                  (  0.0000000  0.0000000  1.0000000 )


      isym =  2     120 deg rotation - cryst. axis [0,0,1]       

 cryst.   s( 2) = (     0          1          0      )
                  (     0          0          1      )
                  (     1          0          0      )

 cart.    s( 2) = ( -0.5000000 -0.8660254  0.0000000 )
                  (  0.8660254 -0.5000000  0.0000000 )
                  (  0.0000000  0.0000000  1.0000000 )


      isym =  3     120 deg rotation - cryst. axis [0,0,-1]      

 cryst.   s( 3) = (     0          0          1      )
                  (     1          0          0      )
                  (     0          1          0      )

 cart.    s( 3) = ( -0.5000000  0.8660254  0.0000000 )
                  ( -0.8660254 -0.5000000  0.0000000 )
                  (  0.0000000  0.0000000  1.0000000 )


     point group C_3 (3)    
     there are  3 classes
     the character table:

       E     C3    C3^2 
A      1.00  1.00  1.00
E      1.00 -0.50 -0.50
E*     1.00 -0.50 -0.50
     imaginary part
A      0.00  0.00  0.00
E      0.00  0.87 -0.87
E*     0.00 -0.87  0.87

     the symmetry operations in each class:
     E        1
     C3       2
     C3^2     3

   Cartesian axes

     site n.     atom                  positions (alat units)
         1           Co1 tau(   1) = (   0.0000000   0.0000000   1.8261537  )
         2           Co1 tau(   2) = (   0.0000000   0.0000000   0.6087179  )
         3           La1 tau(   3) = (   0.0000000   0.0000000   0.0000000  )
         4           La2 tau(   4) = (   0.0000000   0.0000000   1.2174358  )
         5           O1  tau(   5) = (   0.2831100  -0.0928263   1.6236536  )
         6           O1  tau(   6) = (  -0.2219449  -0.1987674   1.6236536  )
         7           O1  tau(   7) = (  -0.0611651   0.2915936   1.6236536  )
         8           O1  tau(   8) = (   0.2228050   0.3849164   1.2170300  )
         9           O1  tau(   9) = (   0.2219449  -0.3854130   1.2170300  )
        10           O1  tau(  10) = (  -0.4447499   0.0004966   1.2170300  )

   Crystallographic axes

     site n.     atom                  positions (cryst. coord.)
         1           Co1 tau(   1) = (  0.7500000  0.7500000  0.7500000  )
         2           Co1 tau(   2) = (  0.2500000  0.2500000  0.2500000  )
         3           La1 tau(   3) = (  0.0000000  0.0000000  0.0000000  )
         4           La2 tau(   4) = (  0.5000000  0.5000000  0.5000000  )
         5           O1  tau(   5) = (  0.9996000  0.5609000  0.4400000  )
         6           O1  tau(   6) = (  0.5609000  0.4400000  0.9996000  )
         7           O1  tau(   7) = (  0.4400000  0.9996000  0.5609000  )
         8           O1  tau(   8) = (  0.5004000  0.9391000  0.0600000  )
         9           O1  tau(   9) = (  0.9391000  0.0600000  0.5004000  )
        10           O1  tau(  10) = (  0.0600000  0.5004000  0.9391000  )

     number of k points=    28  gaussian smearing, width (Ry)=  0.0300
                       cart. coord. in units 2pi/alat
        k(    1) = (   0.0000000   0.0000000   0.0000000), wk =   0.0156250
        k(    2) = (  -0.2470771  -0.1426500   0.1026748), wk =   0.0937500
        k(    3) = (   0.4941541   0.2853000  -0.2053496), wk =   0.0468750
        k(    4) = (  -0.2470771   0.1426500   0.2053496), wk =   0.0937500
        k(    5) = (   0.4941541   0.5706001  -0.1026748), wk =   0.0937500
        k(    6) = (   0.2470771   0.4279500   0.0000000), wk =   0.0937500
        k(    7) = (   0.4941541  -0.2853000  -0.4106993), wk =   0.0468750
        k(    8) = (   0.0000000   0.0000000   0.3080244), wk =   0.0312500
        k(    9) = (   0.7412312   0.4279500   0.0000000), wk =   0.0937500
        k(   10) = (   0.4941541   0.2853000   0.1026748), wk =   0.0937500
        k(   11) = (   0.7412312  -0.4279500  -0.3080244), wk =   0.0937500
        k(   12) = (   0.4941541  -0.5706001  -0.2053496), wk =   0.0937500
        k(   13) = (   0.0000000   0.0000000  -0.6160489), wk =   0.0156250
        k(   14) = (   0.4941541  -0.5706001   0.1026748), wk =   0.0937500
        k(   15) = (   0.0000000   0.0000000   0.0000000), wk =   0.0156250
        k(   16) = (  -0.2470771  -0.1426500   0.1026748), wk =   0.0937500
        k(   17) = (   0.4941541   0.2853000  -0.2053496), wk =   0.0468750
        k(   18) = (  -0.2470771   0.1426500   0.2053496), wk =   0.0937500
        k(   19) = (   0.4941541   0.5706001  -0.1026748), wk =   0.0937500
        k(   20) = (   0.2470771   0.4279500   0.0000000), wk =   0.0937500
        k(   21) = (   0.4941541  -0.2853000  -0.4106993), wk =   0.0468750
        k(   22) = (   0.0000000   0.0000000   0.3080244), wk =   0.0312500
        k(   23) = (   0.7412312   0.4279500   0.0000000), wk =   0.0937500
        k(   24) = (   0.4941541   0.2853000   0.1026748), wk =   0.0937500
        k(   25) = (   0.7412312  -0.4279500  -0.3080244), wk =   0.0937500
        k(   26) = (   0.4941541  -0.5706001  -0.2053496), wk =   0.0937500
        k(   27) = (   0.0000000   0.0000000  -0.6160489), wk =   0.0156250
        k(   28) = (   0.4941541  -0.5706001   0.1026748), wk =   0.0937500

                       cryst. coord.
        k(    1) = (   0.0000000   0.0000000   0.0000000), wk =   0.0156250
        k(    2) = (   0.0000000   0.0000000   0.2500000), wk =   0.0937500
        k(    3) = (   0.0000000   0.0000000  -0.5000000), wk =   0.0468750
        k(    4) = (   0.0000000   0.2500000   0.2500000), wk =   0.0937500
        k(    5) = (   0.0000000   0.2500000  -0.5000000), wk =   0.0937500
        k(    6) = (   0.0000000   0.2500000  -0.2500000), wk =   0.0937500
        k(    7) = (   0.0000000  -0.5000000  -0.5000000), wk =   0.0468750
        k(    8) = (   0.2500000   0.2500000   0.2500000), wk =   0.0312500
        k(    9) = (   0.2500000   0.2500000  -0.5000000), wk =   0.0937500
        k(   10) = (   0.2500000   0.2500000  -0.2500000), wk =   0.0937500
        k(   11) = (   0.2500000  -0.5000000  -0.5000000), wk =   0.0937500
        k(   12) = (   0.2500000  -0.5000000  -0.2500000), wk =   0.0937500
        k(   13) = (  -0.5000000  -0.5000000  -0.5000000), wk =   0.0156250
        k(   14) = (   0.5000000  -0.2500000   0.0000000), wk =   0.0937500
        k(   15) = (   0.0000000   0.0000000   0.0000000), wk =   0.0156250
        k(   16) = (   0.0000000   0.0000000   0.2500000), wk =   0.0937500
        k(   17) = (   0.0000000   0.0000000  -0.5000000), wk =   0.0468750
        k(   18) = (   0.0000000   0.2500000   0.2500000), wk =   0.0937500
        k(   19) = (   0.0000000   0.2500000  -0.5000000), wk =   0.0937500
        k(   20) = (   0.0000000   0.2500000  -0.2500000), wk =   0.0937500
        k(   21) = (   0.0000000  -0.5000000  -0.5000000), wk =   0.0468750
        k(   22) = (   0.2500000   0.2500000   0.2500000), wk =   0.0312500
        k(   23) = (   0.2500000   0.2500000  -0.5000000), wk =   0.0937500
        k(   24) = (   0.2500000   0.2500000  -0.2500000), wk =   0.0937500
        k(   25) = (   0.2500000  -0.5000000  -0.5000000), wk =   0.0937500
        k(   26) = (   0.2500000  -0.5000000  -0.2500000), wk =   0.0937500
        k(   27) = (  -0.5000000  -0.5000000  -0.5000000), wk =   0.0156250
        k(   28) = (   0.5000000  -0.2500000   0.0000000), wk =   0.0937500

     Dense  grid:    69617 G-vectors     FFT dimensions: (  60,  60,  60)

     Smooth grid:    17573 G-vectors     FFT dimensions: (  40,  40,  40)

     Largest allocated arrays     est. size (Mb)     dimensions
        Kohn-Sham Wavefunctions         0.78 Mb     (   1117,   46)
        Atomic wavefunctions            1.06 Mb     (   1117,   62)
        NL pseudopotentials             2.05 Mb     (   1117,  120)
        Each V/rho on FFT grid          3.30 Mb     ( 108000,   2)
        Each G-vector array             0.27 Mb     (  34808)
        G-vector shells                 0.04 Mb     (   4682)
     Largest temporary arrays     est. size (Mb)     dimensions
        Auxiliary wavefunctions         3.14 Mb     (   1117,  184)
        Each subspace H/S matrix        0.52 Mb     ( 184, 184)
        Each <psi_i|beta_j> matrix      0.08 Mb     (    120,   46)
        Arrays for rho mixing          13.18 Mb     ( 108000,   8)

     Check: negative/imaginary core charge=   -0.000028    0.000000

     The initial density is read from file :
     /home/mcurnan/dft-course/Project1/example_LaCoO3/0/La/alpha/CoLaO_U0.save/charge-density.dat

 --- in v_hubbard ---
Hubbard energy    0.0140
 -------
     Number of +U iterations with fixed ns =  0
     Starting occupations:
 --- enter write_ns ---
 LDA+U parameters:
U( 1)     =  0.00000000
alpha( 1) =  0.00000000
U( 2)     =  0.00000000
alpha( 2) =  0.05000000
U( 3)     =  0.00000000
alpha( 3) =  0.00000000
U( 4)     =  0.00000000
alpha( 4) =  0.00000000
atom    1   Tr[ns(na)] (up, down, total) =   4.56594  3.37373  7.93967
   spin  1
    eigenvalues: 
  0.785  0.785  0.999  0.999  0.999
    eigenvectors:
  0.000  0.000  0.000  0.000  1.000
  0.423  0.223  0.056  0.298  0.000
  0.223  0.423  0.298  0.056  0.000
  0.346  0.008  0.556  0.090  0.000
  0.008  0.346  0.090  0.556  0.000
    occupations:
  0.999  0.000  0.000  0.000  0.000
  0.000  0.861  0.000 -0.073  0.072
  0.000  0.000  0.861  0.072  0.073
  0.000 -0.073  0.072  0.923  0.000
  0.000  0.072  0.073  0.000  0.923
   spin  2
    eigenvalues: 
  0.474  0.474  0.773  0.826  0.826
    eigenvectors:
  0.000  0.000  1.000  0.000  0.000
  0.277  0.362  0.000  0.034  0.327
  0.362  0.277  0.000  0.327  0.034
  0.278  0.083  0.000  0.476  0.163
  0.083  0.278  0.000  0.163  0.476
    occupations:
  0.773  0.000  0.000  0.000  0.000
  0.000  0.601  0.000 -0.037  0.165
  0.000  0.000  0.601  0.165  0.037
  0.000 -0.037  0.165  0.699  0.000
  0.000  0.165  0.037  0.000  0.699
atomic mag. moment =     1.192216
atom    2   Tr[ns(na)] (up, down, total) =   4.67286  3.22479  7.89766
   spin  1
    eigenvalues: 
  0.838  0.838  0.999  0.999  0.999
    eigenvectors:
  0.000  0.000  0.000  0.000  1.000
  0.643  0.003  0.325  0.029  0.000
  0.003  0.643  0.029  0.325  0.000
  0.152  0.202  0.500  0.146  0.000
  0.202  0.152  0.146  0.500  0.000
    occupations:
  0.999  0.000  0.000  0.000  0.000
  0.000  0.895  0.000  0.054  0.054
  0.000  0.000  0.895  0.054 -0.054
  0.000  0.054  0.054  0.942  0.000
  0.000  0.054 -0.054  0.000  0.942
   spin  2
    eigenvalues: 
  0.459  0.459  0.730  0.788  0.788
    eigenvectors:
  0.000  0.000  1.000  0.000  0.000
  0.508  0.128  0.000  0.189  0.175
  0.128  0.508  0.000  0.175  0.189
  0.020  0.345  0.000  0.447  0.188
  0.345  0.020  0.000  0.188  0.447
    occupations:
  0.730  0.000  0.000  0.000  0.000
  0.000  0.579  0.000  0.036  0.154
  0.000  0.000  0.579  0.154 -0.036
  0.000  0.036  0.154  0.668  0.000
  0.000  0.154 -0.036  0.000  0.668
atomic mag. moment =     1.448071
atom    3   Tr[ns(na)] (up, down, total) =   1.91458  1.90025  3.81482
   spin  1
    eigenvalues: 
  0.357  0.357  0.387  0.407  0.407
    eigenvectors:
  0.000  0.000  1.000  0.000  0.000
  0.786  0.138  0.000  0.011  0.065
  0.138  0.786  0.000  0.065  0.011
  0.012  0.064  0.000  0.785  0.139
  0.064  0.012  0.000  0.139  0.785
    occupations:
  0.387  0.000  0.000  0.000  0.000
  0.000  0.361  0.000  0.000  0.013
  0.000  0.000  0.361  0.013  0.000
  0.000  0.000  0.013  0.403  0.000
  0.000  0.013  0.000  0.000  0.403
   spin  2
    eigenvalues: 
  0.353  0.353  0.387  0.404  0.404
    eigenvectors:
  0.000  0.000  1.000  0.000  0.000
  0.765  0.145  0.000  0.013  0.077
  0.145  0.765  0.000  0.077  0.013
  0.015  0.074  0.000  0.768  0.142
  0.074  0.015  0.000  0.142  0.768
    occupations:
  0.387  0.000  0.000  0.000  0.000
  0.000  0.358  0.000  0.000  0.015
  0.000  0.000  0.358  0.015  0.000
  0.000  0.000  0.015  0.399  0.000
  0.000  0.015  0.000  0.000  0.399
atomic mag. moment =     0.014329
atom    4   Tr[ns(na)] (up, down, total) =   1.91458  1.90025  3.81482
   spin  1
    eigenvalues: 
  0.357  0.357  0.387  0.407  0.407
    eigenvectors:
  0.000  0.000  1.000  0.000  0.000
  0.786  0.138  0.000  0.011  0.065
  0.138  0.786  0.000  0.065  0.011
  0.012  0.064  0.000  0.785  0.139
  0.064  0.012  0.000  0.139  0.785
    occupations:
  0.387  0.000  0.000  0.000  0.000
  0.000  0.361  0.000  0.000  0.013
  0.000  0.000  0.361  0.013  0.000
  0.000  0.000  0.013  0.403  0.000
  0.000  0.013  0.000  0.000  0.403
   spin  2
    eigenvalues: 
  0.353  0.353  0.387  0.404  0.404
    eigenvectors:
  0.000  0.000  1.000  0.000  0.000
  0.765  0.145  0.000  0.013  0.077
  0.145  0.765  0.000  0.077  0.013
  0.015  0.074  0.000  0.768  0.142
  0.074  0.015  0.000  0.142  0.768
    occupations:
  0.387  0.000  0.000  0.000  0.000
  0.000  0.358  0.000  0.000  0.015
  0.000  0.000  0.358  0.015  0.000
  0.000  0.000  0.015  0.399  0.000
  0.000  0.015  0.000  0.000  0.399
atomic mag. moment =     0.014329
atom    5   Tr[ns(na)] (up, down, total) =   2.74225  2.70308  5.44533
   spin  1
    eigenvalues: 
  0.844  0.947  0.951
    eigenvectors:
  0.337  0.000  0.663
  0.508  0.244  0.248
  0.155  0.756  0.089
    occupations:
  0.915 -0.044  0.025
 -0.044  0.896  0.029
  0.025  0.029  0.932
   spin  2
    eigenvalues: 
  0.864  0.920  0.920
    eigenvectors:
  0.333  0.053  0.613
  0.514  0.100  0.386
  0.153  0.847  0.000
    occupations:
  0.901 -0.023  0.013
 -0.023  0.891  0.016
  0.013  0.016  0.911
atomic mag. moment =     0.039174
atom    6   Tr[ns(na)] (up, down, total) =   2.74225  2.70308  5.44533
   spin  1
    eigenvalues: 
  0.844  0.947  0.951
    eigenvectors:
  0.337  0.000  0.663
  0.487  0.256  0.257
  0.176  0.744  0.080
    occupations:
  0.915  0.044  0.026
  0.044  0.898 -0.030
  0.026 -0.030  0.929
   spin  2
    eigenvalues: 
  0.864  0.920  0.920
    eigenvectors:
  0.333  0.053  0.613
  0.486  0.408  0.106
  0.181  0.539  0.280
    occupations:
  0.901  0.022  0.014
  0.022  0.893 -0.016
  0.014 -0.016  0.910
atomic mag. moment =     0.039174
atom    7   Tr[ns(na)] (up, down, total) =   2.74225  2.70308  5.44533
   spin  1
    eigenvalues: 
  0.844  0.947  0.951
    eigenvectors:
  0.337  0.000  0.663
  0.000  1.000  0.000
  0.663  0.000  0.337
    occupations:
  0.915  0.001 -0.051
  0.001  0.947  0.001
 -0.051  0.001  0.880
   spin  2
    eigenvalues: 
  0.864  0.920  0.920
    eigenvectors:
  0.333  0.053  0.613
  0.000  0.912  0.087
  0.666  0.035  0.299
    occupations:
  0.901  0.001 -0.026
  0.001  0.920  0.001
 -0.026  0.001  0.883
atomic mag. moment =     0.039174
atom    8   Tr[ns(na)] (up, down, total) =   2.74225  2.70308  5.44533
   spin  1
    eigenvalues: 
  0.844  0.947  0.951
    eigenvectors:
  0.337  0.000  0.663
  0.508  0.244  0.248
  0.155  0.756  0.089
    occupations:
  0.915 -0.044  0.025
 -0.044  0.896  0.029
  0.025  0.029  0.932
   spin  2
    eigenvalues: 
  0.864  0.920  0.920
    eigenvectors:
  0.333  0.053  0.613
  0.514  0.100  0.386
  0.153  0.847  0.000
    occupations:
  0.901 -0.023  0.013
 -0.023  0.891  0.016
  0.013  0.016  0.911
atomic mag. moment =     0.039174
atom    9   Tr[ns(na)] (up, down, total) =   2.74225  2.70308  5.44533
   spin  1
    eigenvalues: 
  0.844  0.947  0.951
    eigenvectors:
  0.337  0.000  0.663
  0.487  0.256  0.257
  0.176  0.744  0.080
    occupations:
  0.915  0.044  0.026
  0.044  0.898 -0.030
  0.026 -0.030  0.929
   spin  2
    eigenvalues: 
  0.864  0.920  0.920
    eigenvectors:
  0.333  0.053  0.613
  0.486  0.408  0.106
  0.181  0.539  0.280
    occupations:
  0.901  0.022  0.014
  0.022  0.893 -0.016
  0.014 -0.016  0.910
atomic mag. moment =     0.039174
atom   10   Tr[ns(na)] (up, down, total) =   2.74225  2.70308  5.44533
   spin  1
    eigenvalues: 
  0.844  0.947  0.951
    eigenvectors:
  0.337  0.000  0.663
  0.000  1.000  0.000
  0.663  0.000  0.337
    occupations:
  0.915  0.001 -0.051
  0.001  0.947  0.001
 -0.051  0.001  0.880
   spin  2
    eigenvalues: 
  0.864  0.920  0.920
    eigenvectors:
  0.333  0.053  0.613
  0.000  0.912  0.087
  0.666  0.035  0.299
    occupations:
  0.901  0.001 -0.026
  0.001  0.920  0.001
 -0.026  0.001  0.883
atomic mag. moment =     0.039174
N of occupied +U levels =  56.1389484
 --- exit write_ns ---
 LDA+U Projector read from file 
     Starting wfc from file

     total cpu time spent up to now is        8.4 secs

     per-process dynamical memory:    67.0 Mb

     Self-consistent Calculation

     iteration #  1     ecut=    30.00 Ry     beta=0.20
     Davidson diagonalization with overlap
     c_bands:  1 eigenvalues not converged
     c_bands:  1 eigenvalues not converged
     c_bands:  1 eigenvalues not converged
     c_bands:  1 eigenvalues not converged
     c_bands:  1 eigenvalues not converged
     c_bands:  1 eigenvalues not converged
     c_bands:  1 eigenvalues not converged
     c_bands:  1 eigenvalues not converged
     c_bands:  1 eigenvalues not converged
     c_bands:  1 eigenvalues not converged
     c_bands:  1 eigenvalues not converged
     c_bands:  1 eigenvalues not converged
     c_bands:  1 eigenvalues not converged
     c_bands:  1 eigenvalues not converged
     c_bands:  1 eigenvalues not converged
     c_bands:  1 eigenvalues not converged
     c_bands:  1 eigenvalues not converged
     c_bands:  1 eigenvalues not converged
     c_bands:  1 eigenvalues not converged
     ethr =  1.00E-10,  avg # of iterations = 18.4
 --- enter write_ns ---
 LDA+U parameters:
U( 1)     =  0.00000000
alpha( 1) =  0.00000000
U( 2)     =  0.00000000
alpha( 2) =  0.05000000
U( 3)     =  0.00000000
alpha( 3) =  0.00000000
U( 4)     =  0.00000000
alpha( 4) =  0.00000000
atom    1   Tr[ns(na)] (up, down, total) =   4.56620  3.37495  7.94114
   spin  1
    eigenvalues: 
  0.785  0.785  0.999  0.999  0.999
    eigenvectors:
  0.000  0.000  0.000  0.000  1.000
  0.423  0.223  0.056  0.298  0.000
  0.223  0.423  0.298  0.056  0.000
  0.346  0.008  0.557  0.090  0.000
  0.008  0.346  0.090  0.557  0.000
    occupations:
  0.999  0.000  0.000  0.000  0.000
  0.000  0.861  0.000 -0.073  0.072
  0.000  0.000  0.861  0.072  0.073
  0.000 -0.073  0.072  0.923  0.000
  0.000  0.072  0.073  0.000  0.923
   spin  2
    eigenvalues: 
  0.474  0.474  0.773  0.826  0.826
    eigenvectors:
  0.000  0.000  1.000  0.000  0.000
  0.276  0.363  0.000  0.034  0.327
  0.363  0.276  0.000  0.327  0.034
  0.278  0.083  0.000  0.476  0.163
  0.083  0.278  0.000  0.163  0.476
    occupations:
  0.773  0.000  0.000  0.000  0.000
  0.000  0.601  0.000 -0.037  0.165
  0.000  0.000  0.601  0.165  0.037
  0.000 -0.037  0.165  0.699  0.000
  0.000  0.165  0.037  0.000  0.699
atomic mag. moment =     1.191250
atom    2   Tr[ns(na)] (up, down, total) =   4.67271  3.22419  7.89690
   spin  1
    eigenvalues: 
  0.838  0.838  0.999  0.999  0.999
    eigenvectors:
  0.000  0.000  0.000  0.000  1.000
  0.643  0.003  0.325  0.029  0.000
  0.003  0.643  0.029  0.325  0.000
  0.152  0.202  0.500  0.146  0.000
  0.202  0.152  0.146  0.500  0.000
    occupations:
  0.999  0.000  0.000  0.000  0.000
  0.000  0.895  0.000  0.055  0.054
  0.000  0.000  0.895  0.054 -0.055
  0.000  0.055  0.054  0.942  0.000
  0.000  0.054 -0.055  0.000  0.942
   spin  2
    eigenvalues: 
  0.459  0.459  0.730  0.788  0.788
    eigenvectors:
  0.000  0.000  1.000  0.000  0.000
  0.507  0.129  0.000  0.189  0.175
  0.129  0.507  0.000  0.175  0.189
  0.020  0.344  0.000  0.447  0.188
  0.344  0.020  0.000  0.188  0.447
    occupations:
  0.730  0.000  0.000  0.000  0.000
  0.000  0.579  0.000  0.036  0.154
  0.000  0.000  0.579  0.154 -0.036
  0.000  0.036  0.154  0.668  0.000
  0.000  0.154 -0.036  0.000  0.668
atomic mag. moment =     1.448516
atom    3   Tr[ns(na)] (up, down, total) =   1.90544  1.89108  3.79652
   spin  1
    eigenvalues: 
  0.355  0.355  0.385  0.405  0.405
    eigenvectors:
  0.000  0.000  1.000  0.000  0.000
  0.785  0.139  0.000  0.011  0.066
  0.139  0.785  0.000  0.066  0.011
  0.012  0.065  0.000  0.784  0.139
  0.065  0.012  0.000  0.139  0.784
    occupations:
  0.385  0.000  0.000  0.000  0.000
  0.000  0.359  0.000  0.000  0.013
  0.000  0.000  0.359  0.013  0.000
  0.000  0.000  0.013  0.401  0.000
  0.000  0.013  0.000  0.000  0.401
   spin  2
    eigenvalues: 
  0.351  0.351  0.385  0.402  0.402
    eigenvectors:
  0.000  0.000  1.000  0.000  0.000
  0.763  0.146  0.000  0.013  0.078
  0.146  0.763  0.000  0.078  0.013
  0.016  0.075  0.000  0.766  0.143
  0.075  0.016  0.000  0.143  0.766
    occupations:
  0.385  0.000  0.000  0.000  0.000
  0.000  0.356  0.000  0.000  0.015
  0.000  0.000  0.356  0.015  0.000
  0.000  0.000  0.015  0.397  0.000
  0.000  0.015  0.000  0.000  0.397
atomic mag. moment =     0.014364
atom    4   Tr[ns(na)] (up, down, total) =   1.91416  1.89983  3.81399
   spin  1
    eigenvalues: 
  0.357  0.357  0.387  0.407  0.407
    eigenvectors:
  0.000  0.000  1.000  0.000  0.000
  0.786  0.138  0.000  0.011  0.065
  0.138  0.786  0.000  0.065  0.011
  0.012  0.064  0.000  0.785  0.139
  0.064  0.012  0.000  0.139  0.785
    occupations:
  0.387  0.000  0.000  0.000  0.000
  0.000  0.361  0.000  0.000  0.013
  0.000  0.000  0.361  0.013  0.000
  0.000  0.000  0.013  0.403  0.000
  0.000  0.013  0.000  0.000  0.403
   spin  2
    eigenvalues: 
  0.353  0.353  0.387  0.404  0.404
    eigenvectors:
  0.000  0.000  1.000  0.000  0.000
  0.765  0.145  0.000  0.013  0.077
  0.145  0.765  0.000  0.077  0.013
  0.015  0.075  0.000  0.768  0.142
  0.075  0.015  0.000  0.142  0.768
    occupations:
  0.387  0.000  0.000  0.000  0.000
  0.000  0.357  0.000  0.000  0.015
  0.000  0.000  0.357  0.015  0.000
  0.000  0.000  0.015  0.399  0.000
  0.000  0.015  0.000  0.000  0.399
atomic mag. moment =     0.014337
atom    5   Tr[ns(na)] (up, down, total) =   2.74291  2.70364  5.44655
   spin  1
    eigenvalues: 
  0.844  0.948  0.951
    eigenvectors:
  0.337  0.000  0.663
  0.508  0.244  0.248
  0.156  0.756  0.089
    occupations:
  0.915 -0.044  0.025
 -0.044  0.896  0.029
  0.025  0.029  0.932
   spin  2
    eigenvalues: 
  0.864  0.920  0.920
    eigenvectors:
  0.333  0.627  0.039
  0.514  0.141  0.345
  0.153  0.232  0.615
    occupations:
  0.901 -0.023  0.013
 -0.023  0.891  0.016
  0.013  0.016  0.911
atomic mag. moment =     0.039279
atom    6   Tr[ns(na)] (up, down, total) =   2.74291  2.70364  5.44655
   spin  1
    eigenvalues: 
  0.844  0.948  0.951
    eigenvectors:
  0.337  0.000  0.663
  0.487  0.256  0.257
  0.176  0.744  0.080
    occupations:
  0.915  0.044  0.026
  0.044  0.898 -0.030
  0.026 -0.030  0.930
   spin  2
    eigenvalues: 
  0.864  0.920  0.920
    eigenvectors:
  0.333  0.627  0.039
  0.486  0.366  0.149
  0.181  0.007  0.812
    occupations:
  0.901  0.022  0.014
  0.022  0.893 -0.017
  0.014 -0.017  0.910
atomic mag. moment =     0.039279
atom    7   Tr[ns(na)] (up, down, total) =   2.74291  2.70364  5.44655
   spin  1
    eigenvalues: 
  0.844  0.948  0.951
    eigenvectors:
  0.337  0.000  0.663
  0.000  1.000  0.000
  0.663  0.000  0.337
    occupations:
  0.915  0.001 -0.051
  0.001  0.948  0.001
 -0.051  0.001  0.880
   spin  2
    eigenvalues: 
  0.864  0.920  0.920
    eigenvectors:
  0.333  0.627  0.039
  0.000  0.052  0.947
  0.666  0.320  0.014
    occupations:
  0.901  0.001 -0.026
  0.001  0.920  0.001
 -0.026  0.001  0.883
atomic mag. moment =     0.039279
atom    8   Tr[ns(na)] (up, down, total) =   2.74284  2.70360  5.44644
   spin  1
    eigenvalues: 
  0.844  0.947  0.952
    eigenvectors:
  0.337  0.000  0.663
  0.508  0.244  0.249
  0.156  0.756  0.088
    occupations:
  0.915 -0.045  0.025
 -0.045  0.896  0.029
  0.025  0.029  0.932
   spin  2
    eigenvalues: 
  0.864  0.920  0.920
    eigenvectors:
  0.333  0.002  0.665
  0.514  0.204  0.282
  0.153  0.794  0.053
    occupations:
  0.901 -0.023  0.013
 -0.023  0.891  0.016
  0.013  0.016  0.911
atomic mag. moment =     0.039236
atom    9   Tr[ns(na)] (up, down, total) =   2.74284  2.70360  5.44644
   spin  1
    eigenvalues: 
  0.844  0.947  0.952
    eigenvectors:
  0.337  0.000  0.663
  0.487  0.256  0.257
  0.176  0.743  0.080
    occupations:
  0.915  0.044  0.026
  0.044  0.898 -0.030
  0.026 -0.030  0.930
   spin  2
    eigenvalues: 
  0.864  0.920  0.920
    eigenvectors:
  0.333  0.002  0.665
  0.486  0.298  0.217
  0.181  0.701  0.119
    occupations:
  0.901  0.023  0.014
  0.023  0.893 -0.016
  0.014 -0.016  0.910
atomic mag. moment =     0.039236
atom   10   Tr[ns(na)] (up, down, total) =   2.74284  2.70360  5.44644
   spin  1
    eigenvalues: 
  0.844  0.947  0.952
    eigenvectors:
  0.337  0.000  0.663
  0.000  1.000  0.000
  0.663  0.000  0.337
    occupations:
  0.915  0.001 -0.051
  0.001  0.947  0.001
 -0.051  0.001  0.880
   spin  2
    eigenvalues: 
  0.864  0.920  0.920
    eigenvectors:
  0.333  0.002  0.665
  0.000  0.995  0.004
  0.666  0.003  0.331
    occupations:
  0.901  0.001 -0.026
  0.001  0.920  0.001
 -0.026  0.001  0.883
atomic mag. moment =     0.039236
N of occupied +U levels =  56.1275239
 --- exit write_ns ---
 --- in v_hubbard ---
Hubbard energy    0.0140
 -------

     total cpu time spent up to now is       63.0 secs

     total energy              =    -538.34143176 Ry
     Harris-Foulkes estimate   =    -538.34143966 Ry
     estimated scf accuracy    <       0.00002583 Ry

     total magnetization       =     3.54 Bohr mag/cell
     absolute magnetization    =     3.69 Bohr mag/cell

     iteration #  2     ecut=    30.00 Ry     beta=0.20
     Davidson diagonalization with overlap
     ethr =  3.40E-08,  avg # of iterations =  1.1
 --- enter write_ns ---
 LDA+U parameters:
U( 1)     =  0.00000000
alpha( 1) =  0.00000000
U( 2)     =  0.00000000
alpha( 2) =  0.05000000
U( 3)     =  0.00000000
alpha( 3) =  0.00000000
U( 4)     =  0.00000000
alpha( 4) =  0.00000000
atom    1   Tr[ns(na)] (up, down, total) =   4.56455  3.36748  7.93203
   spin  1
    eigenvalues: 
  0.784  0.784  0.999  0.999  0.999
    eigenvectors:
  0.000  0.000  0.000  0.000  1.000
  0.423  0.223  0.056  0.298  0.000
  0.223  0.423  0.298  0.056  0.000
  0.346  0.008  0.556  0.090  0.000
  0.008  0.346  0.090  0.556  0.000
    occupations:
  0.999  0.000  0.000  0.000  0.000
  0.000  0.860  0.000 -0.073  0.072
  0.000  0.000  0.860  0.072  0.073
  0.000 -0.073  0.072  0.923  0.000
  0.000  0.072  0.073  0.000  0.923
   spin  2
    eigenvalues: 
  0.474  0.474  0.771  0.824  0.824
    eigenvectors:
  0.000  0.000  1.000  0.000  0.000
  0.276  0.363  0.000  0.034  0.327
  0.363  0.276  0.000  0.327  0.034
  0.278  0.083  0.000  0.476  0.163
  0.083  0.278  0.000  0.163  0.476
    occupations:
  0.771  0.000  0.000  0.000  0.000
  0.000  0.600  0.000 -0.036  0.164
  0.000  0.000  0.600  0.164  0.036
  0.000 -0.036  0.164  0.698  0.000
  0.000  0.164  0.036  0.000  0.698
atomic mag. moment =     1.197073
atom    2   Tr[ns(na)] (up, down, total) =   4.67420  3.23240  7.90660
   spin  1
    eigenvalues: 
  0.839  0.839  0.999  0.999  0.999
    eigenvectors:
  0.000  0.000  0.000  0.000  1.000
  0.643  0.003  0.325  0.029  0.000
  0.003  0.643  0.029  0.325  0.000
  0.152  0.202  0.500  0.146  0.000
  0.202  0.152  0.146  0.500  0.000
    occupations:
  0.999  0.000  0.000  0.000  0.000
  0.000  0.895  0.000  0.054  0.054
  0.000  0.000  0.895  0.054 -0.054
  0.000  0.054  0.054  0.942  0.000
  0.000  0.054 -0.054  0.000  0.942
   spin  2
    eigenvalues: 
  0.460  0.460  0.732  0.790  0.790
    eigenvectors:
  0.000  0.000  1.000  0.000  0.000
  0.510  0.125  0.000  0.190  0.175
  0.125  0.510  0.000  0.175  0.190
  0.019  0.346  0.000  0.447  0.188
  0.346  0.019  0.000  0.188  0.447
    occupations:
  0.732  0.000  0.000  0.000  0.000
  0.000  0.580  0.000  0.036  0.155
  0.000  0.000  0.580  0.155 -0.036
  0.000  0.036  0.155  0.670  0.000
  0.000  0.155 -0.036  0.000  0.670
atomic mag. moment =     1.441800
atom    3   Tr[ns(na)] (up, down, total) =   1.90638  1.89201  3.79839
   spin  1
    eigenvalues: 
  0.355  0.355  0.385  0.405  0.405
    eigenvectors:
  0.000  0.000  1.000  0.000  0.000
  0.785  0.138  0.000  0.011  0.066
  0.138  0.785  0.000  0.066  0.011
  0.012  0.065  0.000  0.784  0.139
  0.065  0.012  0.000  0.139  0.784
    occupations:
  0.385  0.000  0.000  0.000  0.000
  0.000  0.359  0.000  0.000  0.013
  0.000  0.000  0.359  0.013  0.000
  0.000  0.000  0.013  0.402  0.000
  0.000  0.013  0.000  0.000  0.402
   spin  2
    eigenvalues: 
  0.351  0.351  0.385  0.402  0.402
    eigenvectors:
  0.000  0.000  1.000  0.000  0.000
  0.764  0.146  0.000  0.013  0.077
  0.146  0.764  0.000  0.077  0.013
  0.016  0.075  0.000  0.767  0.143
  0.075  0.016  0.000  0.143  0.767
    occupations:
  0.385  0.000  0.000  0.000  0.000
  0.000  0.356  0.000  0.000  0.015
  0.000  0.000  0.356  0.015  0.000
  0.000  0.000  0.015  0.398  0.000
  0.000  0.015  0.000  0.000  0.398
atomic mag. moment =     0.014370
atom    4   Tr[ns(na)] (up, down, total) =   1.91453  1.90019  3.81473
   spin  1
    eigenvalues: 
  0.357  0.357  0.387  0.407  0.407
    eigenvectors:
  0.000  0.000  1.000  0.000  0.000
  0.786  0.138  0.000  0.011  0.065
  0.138  0.786  0.000  0.065  0.011
  0.012  0.064  0.000  0.785  0.139
  0.064  0.012  0.000  0.139  0.785
    occupations:
  0.387  0.000  0.000  0.000  0.000
  0.000  0.361  0.000  0.000  0.013
  0.000  0.000  0.361  0.013  0.000
  0.000  0.000  0.013  0.403  0.000
  0.000  0.013  0.000  0.000  0.403
   spin  2
    eigenvalues: 
  0.353  0.353  0.387  0.404  0.404
    eigenvectors:
  0.000  0.000  1.000  0.000  0.000
  0.765  0.145  0.000  0.013  0.077
  0.145  0.765  0.000  0.077  0.013
  0.015  0.074  0.000  0.768  0.142
  0.074  0.015  0.000  0.142  0.768
    occupations:
  0.387  0.000  0.000  0.000  0.000
  0.000  0.358  0.000  0.000  0.015
  0.000  0.000  0.358  0.015  0.000
  0.000  0.000  0.015  0.399  0.000
  0.000  0.015  0.000  0.000  0.399
atomic mag. moment =     0.014341
atom    5   Tr[ns(na)] (up, down, total) =   2.74272  2.70341  5.44613
   spin  1
    eigenvalues: 
  0.844  0.948  0.951
    eigenvectors:
  0.337  0.000  0.663
  0.508  0.244  0.248
  0.155  0.756  0.089
    occupations:
  0.915 -0.044  0.025
 -0.044  0.896  0.029
  0.025  0.029  0.932
   spin  2
    eigenvalues: 
  0.864  0.920  0.920
    eigenvectors:
  0.333  0.637  0.029
  0.513  0.156  0.331
  0.154  0.207  0.640
    occupations:
  0.901 -0.023  0.013
 -0.023  0.891  0.016
  0.013  0.016  0.911
atomic mag. moment =     0.039309
atom    6   Tr[ns(na)] (up, down, total) =   2.74272  2.70341  5.44613
   spin  1
    eigenvalues: 
  0.844  0.948  0.951
    eigenvectors:
  0.337  0.000  0.663
  0.487  0.256  0.257
  0.177  0.744  0.080
    occupations:
  0.915  0.044  0.026
  0.044  0.898 -0.030
  0.026 -0.030  0.930
   spin  2
    eigenvalues: 
  0.864  0.920  0.920
    eigenvectors:
  0.333  0.637  0.029
  0.487  0.349  0.164
  0.180  0.013  0.807
    occupations:
  0.901  0.022  0.014
  0.022  0.893 -0.017
  0.014 -0.017  0.910
atomic mag. moment =     0.039309
atom    7   Tr[ns(na)] (up, down, total) =   2.74272  2.70341  5.44613
   spin  1
    eigenvalues: 
  0.844  0.948  0.951
    eigenvectors:
  0.337  0.000  0.663
  0.000  1.000  0.000
  0.663  0.000  0.337
    occupations:
  0.915  0.001 -0.051
  0.001  0.948  0.001
 -0.051  0.001  0.880
   spin  2
    eigenvalues: 
  0.864  0.920  0.920
    eigenvectors:
  0.333  0.637  0.029
  0.000  0.038  0.961
  0.666  0.324  0.010
    occupations:
  0.901  0.001 -0.026
  0.001  0.920  0.001
 -0.026  0.001  0.883
atomic mag. moment =     0.039309
atom    8   Tr[ns(na)] (up, down, total) =   2.74269  2.70343  5.44612
   spin  1
    eigenvalues: 
  0.844  0.947  0.952
    eigenvectors:
  0.337  0.000  0.663
  0.508  0.243  0.249
  0.155  0.756  0.088
    occupations:
  0.915 -0.045  0.025
 -0.045  0.896  0.029
  0.025  0.029  0.932
   spin  2
    eigenvalues: 
  0.864  0.920  0.920
    eigenvectors:
  0.333  0.002  0.665
  0.513  0.206  0.281
  0.154  0.792  0.054
    occupations:
  0.901 -0.023  0.013
 -0.023  0.891  0.016
  0.013  0.016  0.911
atomic mag. moment =     0.039264
atom    9   Tr[ns(na)] (up, down, total) =   2.74269  2.70343  5.44612
   spin  1
    eigenvalues: 
  0.844  0.947  0.952
    eigenvectors:
  0.337  0.000  0.663
  0.487  0.257  0.257
  0.177  0.743  0.080
    occupations:
  0.915  0.044  0.026
  0.044  0.898 -0.030
  0.026 -0.030  0.929
   spin  2
    eigenvalues: 
  0.864  0.920  0.920
    eigenvectors:
  0.333  0.002  0.665
  0.487  0.296  0.218
  0.180  0.703  0.118
    occupations:
  0.901  0.023  0.014
  0.023  0.893 -0.016
  0.014 -0.016  0.910
atomic mag. moment =     0.039264
atom   10   Tr[ns(na)] (up, down, total) =   2.74269  2.70343  5.44612
   spin  1
    eigenvalues: 
  0.844  0.947  0.952
    eigenvectors:
  0.337  0.000  0.663
  0.000  1.000  0.000
  0.663  0.000  0.337
    occupations:
  0.915  0.001 -0.051
  0.001  0.947  0.001
 -0.051  0.001  0.880
   spin  2
    eigenvalues: 
  0.864  0.920  0.920
    eigenvectors:
  0.333  0.002  0.665
  0.000  0.996  0.004
  0.666  0.003  0.331
    occupations:
  0.901  0.001 -0.026
  0.001  0.920  0.001
 -0.026  0.001  0.883
atomic mag. moment =     0.039264
N of occupied +U levels =  56.1285066
 --- exit write_ns ---
 --- in v_hubbard ---
Hubbard energy    0.0140
 -------

     total cpu time spent up to now is       81.9 secs

     total energy              =    -538.34142754 Ry
     Harris-Foulkes estimate   =    -538.34143663 Ry
     estimated scf accuracy    <       0.00014129 Ry

     total magnetization       =     3.54 Bohr mag/cell
     absolute magnetization    =     3.69 Bohr mag/cell

     iteration #  3     ecut=    30.00 Ry     beta=0.20
     Davidson diagonalization with overlap
     ethr =  3.40E-08,  avg # of iterations =  1.0
 --- enter write_ns ---
 LDA+U parameters:
U( 1)     =  0.00000000
alpha( 1) =  0.00000000
U( 2)     =  0.00000000
alpha( 2) =  0.05000000
U( 3)     =  0.00000000
alpha( 3) =  0.00000000
U( 4)     =  0.00000000
alpha( 4) =  0.00000000
atom    1   Tr[ns(na)] (up, down, total) =   4.56676  3.37780  7.94456
   spin  1
    eigenvalues: 
  0.785  0.785  0.999  0.999  0.999
    eigenvectors:
  0.000  0.000  0.000  0.000  1.000
  0.423  0.223  0.056  0.298  0.000
  0.223  0.423  0.298  0.056  0.000
  0.346  0.008  0.556  0.090  0.000
  0.008  0.346  0.090  0.556  0.000
    occupations:
  0.999  0.000  0.000  0.000  0.000
  0.000  0.861  0.000 -0.073  0.072
  0.000  0.000  0.861  0.072  0.073
  0.000 -0.073  0.072  0.923  0.000
  0.000  0.072  0.073  0.000  0.923
   spin  2
    eigenvalues: 
  0.475  0.475  0.774  0.827  0.827
    eigenvectors:
  0.000  0.000  1.000  0.000  0.000
  0.276  0.363  0.000  0.034  0.327
  0.363  0.276  0.000  0.327  0.034
  0.279  0.082  0.000  0.476  0.163
  0.082  0.279  0.000  0.163  0.476
    occupations:
  0.774  0.000  0.000  0.000  0.000
  0.000  0.602  0.000 -0.037  0.165
  0.000  0.000  0.602  0.165  0.037
  0.000 -0.037  0.165  0.700  0.000
  0.000  0.165  0.037  0.000  0.700
atomic mag. moment =     1.188969
atom    2   Tr[ns(na)] (up, down, total) =   4.67215  3.22196  7.89411
   spin  1
    eigenvalues: 
  0.838  0.838  0.999  0.999  0.999
    eigenvectors:
  0.000  0.000  0.000  0.000  1.000
  0.643  0.003  0.325  0.029  0.000
  0.003  0.643  0.029  0.325  0.000
  0.152  0.202  0.500  0.146  0.000
  0.202  0.152  0.146  0.500  0.000
    occupations:
  0.999  0.000  0.000  0.000  0.000
  0.000  0.895  0.000  0.055  0.054
  0.000  0.000  0.895  0.054 -0.055
  0.000  0.055  0.054  0.942  0.000
  0.000  0.054 -0.055  0.000  0.942
   spin  2
    eigenvalues: 
  0.459  0.459  0.729  0.787  0.787
    eigenvectors:
  0.000  0.000  1.000  0.000  0.000
  0.506  0.129  0.000  0.189  0.176
  0.129  0.506  0.000  0.176  0.189
  0.020  0.344  0.000  0.447  0.188
  0.344  0.020  0.000  0.188  0.447
    occupations:
  0.729  0.000  0.000  0.000  0.000
  0.000  0.579  0.000  0.036  0.154
  0.000  0.000  0.579  0.154 -0.036
  0.000  0.036  0.154  0.668  0.000
  0.000  0.154 -0.036  0.000  0.668
atomic mag. moment =     1.450194
atom    3   Tr[ns(na)] (up, down, total) =   1.90648  1.89212  3.79860
   spin  1
    eigenvalues: 
  0.355  0.355  0.385  0.405  0.405
    eigenvectors:
  0.000  0.000  1.000  0.000  0.000
  0.785  0.138  0.000  0.011  0.066
  0.138  0.785  0.000  0.066  0.011
  0.012  0.065  0.000  0.785  0.139
  0.065  0.012  0.000  0.139  0.785
    occupations:
  0.385  0.000  0.000  0.000  0.000
  0.000  0.359  0.000  0.000  0.013
  0.000  0.000  0.359  0.013  0.000
  0.000  0.000  0.013  0.402  0.000
  0.000  0.013  0.000  0.000  0.402
   spin  2
    eigenvalues: 
  0.351  0.351  0.385  0.402  0.402
    eigenvectors:
  0.000  0.000  1.000  0.000  0.000
  0.764  0.146  0.000  0.013  0.078
  0.146  0.764  0.000  0.078  0.013
  0.016  0.075  0.000  0.767  0.143
  0.075  0.016  0.000  0.143  0.767
    occupations:
  0.385  0.000  0.000  0.000  0.000
  0.000  0.356  0.000  0.000  0.015
  0.000  0.000  0.356  0.015  0.000
  0.000  0.000  0.015  0.398  0.000
  0.000  0.015  0.000  0.000  0.398
atomic mag. moment =     0.014360
atom    4   Tr[ns(na)] (up, down, total) =   1.91459  1.90026  3.81485
   spin  1
    eigenvalues: 
  0.357  0.357  0.387  0.407  0.407
    eigenvectors:
  0.000  0.000  1.000  0.000  0.000
  0.786  0.138  0.000  0.011  0.065
  0.138  0.786  0.000  0.065  0.011
  0.012  0.064  0.000  0.785  0.139
  0.064  0.012  0.000  0.139  0.785
    occupations:
  0.387  0.000  0.000  0.000  0.000
  0.000  0.361  0.000  0.000  0.013
  0.000  0.000  0.361  0.013  0.000
  0.000  0.000  0.013  0.403  0.000
  0.000  0.013  0.000  0.000  0.403
   spin  2
    eigenvalues: 
  0.353  0.353  0.387  0.404  0.404
    eigenvectors:
  0.000  0.000  1.000  0.000  0.000
  0.765  0.145  0.000  0.013  0.077
  0.145  0.765  0.000  0.077  0.013
  0.015  0.074  0.000  0.768  0.142
  0.074  0.015  0.000  0.142  0.768
    occupations:
  0.387  0.000  0.000  0.000  0.000
  0.000  0.358  0.000  0.000  0.015
  0.000  0.000  0.358  0.015  0.000
  0.000  0.000  0.015  0.399  0.000
  0.000  0.015  0.000  0.000  0.399
atomic mag. moment =     0.014332
atom    5   Tr[ns(na)] (up, down, total) =   2.74266  2.70342  5.44608
   spin  1
    eigenvalues: 
  0.844  0.948  0.951
    eigenvectors:
  0.337  0.000  0.663
  0.508  0.244  0.248
  0.156  0.756  0.089
    occupations:
  0.915 -0.044  0.025
 -0.044  0.896  0.029
  0.025  0.029  0.932
   spin  2
    eigenvalues: 
  0.864  0.920  0.920
    eigenvectors:
  0.333  0.625  0.042
  0.514  0.138  0.348
  0.153  0.237  0.610
    occupations:
  0.901 -0.023  0.013
 -0.023  0.891  0.016
  0.013  0.016  0.911
atomic mag. moment =     0.039237
atom    6   Tr[ns(na)] (up, down, total) =   2.74266  2.70342  5.44608
   spin  1
    eigenvalues: 
  0.844  0.948  0.951
    eigenvectors:
  0.337  0.000  0.663
  0.487  0.256  0.257
  0.176  0.744  0.080
    occupations:
  0.915  0.044  0.026
  0.044  0.898 -0.030
  0.026 -0.030  0.930
   spin  2
    eigenvalues: 
  0.864  0.920  0.920
    eigenvectors:
  0.333  0.625  0.042
  0.485  0.369  0.145
  0.181  0.006  0.813
    occupations:
  0.901  0.022  0.014
  0.022  0.893 -0.017
  0.014 -0.017  0.910
atomic mag. moment =     0.039237
atom    7   Tr[ns(na)] (up, down, total) =   2.74266  2.70342  5.44608
   spin  1
    eigenvalues: 
  0.844  0.948  0.951
    eigenvectors:
  0.337  0.000  0.663
  0.000  1.000  0.000
  0.663  0.000  0.337
    occupations:
  0.915  0.001 -0.051
  0.001  0.948  0.001
 -0.051  0.001  0.880
   spin  2
    eigenvalues: 
  0.864  0.920  0.920
    eigenvectors:
  0.333  0.625  0.042
  0.000  0.056  0.944
  0.666  0.319  0.015
    occupations:
  0.901  0.001 -0.026
  0.001  0.920  0.001
 -0.026  0.001  0.883
atomic mag. moment =     0.039237
atom    8   Tr[ns(na)] (up, down, total) =   2.74263  2.70344  5.44607
   spin  1
    eigenvalues: 
  0.844  0.947  0.952
    eigenvectors:
  0.337  0.000  0.663
  0.508  0.244  0.249
  0.156  0.756  0.088
    occupations:
  0.915 -0.045  0.025
 -0.045  0.896  0.029
  0.025  0.029  0.932
   spin  2
    eigenvalues: 
  0.864  0.920  0.920
    eigenvectors:
  0.333  0.002  0.664
  0.514  0.201  0.285
  0.153  0.797  0.051
    occupations:
  0.901 -0.023  0.013
 -0.023  0.891  0.016
  0.013  0.016  0.911
atomic mag. moment =     0.039192
atom    9   Tr[ns(na)] (up, down, total) =   2.74263  2.70344  5.44607
   spin  1
    eigenvalues: 
  0.844  0.947  0.952
    eigenvectors:
  0.337  0.000  0.663
  0.487  0.256  0.257
  0.176  0.743  0.080
    occupations:
  0.915  0.044  0.026
  0.044  0.898 -0.030
  0.026 -0.030  0.929
   spin  2
    eigenvalues: 
  0.864  0.920  0.920
    eigenvectors:
  0.333  0.002  0.664
  0.485  0.301  0.213
  0.181  0.696  0.123
    occupations:
  0.901  0.023  0.014
  0.023  0.893 -0.016
  0.014 -0.016  0.910
atomic mag. moment =     0.039192
atom   10   Tr[ns(na)] (up, down, total) =   2.74263  2.70344  5.44607
   spin  1
    eigenvalues: 
  0.844  0.947  0.952
    eigenvectors:
  0.337  0.000  0.663
  0.000  1.000  0.000
  0.663  0.000  0.337
    occupations:
  0.915  0.001 -0.051
  0.001  0.947  0.001
 -0.051  0.001  0.880
   spin  2
    eigenvalues: 
  0.864  0.920  0.920
    eigenvectors:
  0.333  0.002  0.664
  0.000  0.994  0.005
  0.666  0.003  0.330
    occupations:
  0.901  0.001 -0.026
  0.001  0.920  0.001
 -0.026  0.001  0.883
atomic mag. moment =     0.039192
N of occupied +U levels =  56.1285584
 --- exit write_ns ---
 --- in v_hubbard ---
Hubbard energy    0.0140
 -------

     total cpu time spent up to now is      101.1 secs

     total energy              =    -538.34142996 Ry
     Harris-Foulkes estimate   =    -538.34143416 Ry
     estimated scf accuracy    <       0.00003991 Ry

     total magnetization       =     3.54 Bohr mag/cell
     absolute magnetization    =     3.69 Bohr mag/cell

     iteration #  4     ecut=    30.00 Ry     beta=0.20
     Davidson diagonalization with overlap
     ethr =  3.40E-08,  avg # of iterations =  1.0
 --- enter write_ns ---
 LDA+U parameters:
U( 1)     =  0.00000000
alpha( 1) =  0.00000000
U( 2)     =  0.00000000
alpha( 2) =  0.05000000
U( 3)     =  0.00000000
alpha( 3) =  0.00000000
U( 4)     =  0.00000000
alpha( 4) =  0.00000000
atom    1   Tr[ns(na)] (up, down, total) =   4.56586  3.37403  7.93990
   spin  1
    eigenvalues: 
  0.785  0.785  0.999  0.999  0.999
    eigenvectors:
  0.000  0.000  0.000  0.000  1.000
  0.423  0.223  0.056  0.298  0.000
  0.223  0.423  0.298  0.056  0.000
  0.346  0.008  0.556  0.090  0.000
  0.008  0.346  0.090  0.556  0.000
    occupations:
  0.999  0.000  0.000  0.000  0.000
  0.000  0.861  0.000 -0.073  0.072
  0.000  0.000  0.861  0.072  0.073
  0.000 -0.073  0.072  0.923  0.000
  0.000  0.072  0.073  0.000  0.923
   spin  2
    eigenvalues: 
  0.474  0.474  0.773  0.826  0.826
    eigenvectors:
  0.000  0.000  1.000  0.000  0.000
  0.277  0.362  0.000  0.034  0.327
  0.362  0.277  0.000  0.327  0.034
  0.278  0.083  0.000  0.476  0.163
  0.083  0.278  0.000  0.163  0.476
    occupations:
  0.773  0.000  0.000  0.000  0.000
  0.000  0.601  0.000 -0.037  0.165
  0.000  0.000  0.601  0.165  0.037
  0.000 -0.037  0.165  0.699  0.000
  0.000  0.165  0.037  0.000  0.699
atomic mag. moment =     1.191830
atom    2   Tr[ns(na)] (up, down, total) =   4.67272  3.22521  7.89793
   spin  1
    eigenvalues: 
  0.838  0.838  0.999  0.999  0.999
    eigenvectors:
  0.000  0.000  0.000  0.000  1.000
  0.643  0.003  0.325  0.029  0.000
  0.003  0.643  0.029  0.325  0.000
  0.152  0.202  0.500  0.146  0.000
  0.202  0.152  0.146  0.500  0.000
    occupations:
  0.999  0.000  0.000  0.000  0.000
  0.000  0.895  0.000  0.055  0.054
  0.000  0.000  0.895  0.054 -0.055
  0.000  0.055  0.054  0.942  0.000
  0.000  0.054 -0.055  0.000  0.942
   spin  2
    eigenvalues: 
  0.460  0.460  0.730  0.788  0.788
    eigenvectors:
  0.000  0.000  1.000  0.000  0.000
  0.509  0.127  0.000  0.189  0.175
  0.127  0.509  0.000  0.175  0.189
  0.020  0.345  0.000  0.447  0.188
  0.345  0.020  0.000  0.188  0.447
    occupations:
  0.730  0.000  0.000  0.000  0.000
  0.000  0.579  0.000  0.036  0.154
  0.000  0.000  0.579  0.154 -0.036
  0.000  0.036  0.154  0.668  0.000
  0.000  0.154 -0.036  0.000  0.668
atomic mag. moment =     1.447506
atom    3   Tr[ns(na)] (up, down, total) =   1.90735  1.89301  3.80036
   spin  1
    eigenvalues: 
  0.355  0.355  0.385  0.406  0.406
    eigenvectors:
  0.000  0.000  1.000  0.000  0.000
  0.785  0.138  0.000  0.011  0.066
  0.138  0.785  0.000  0.066  0.011
  0.012  0.064  0.000  0.785  0.139
  0.064  0.012  0.000  0.139  0.785
    occupations:
  0.385  0.000  0.000  0.000  0.000
  0.000  0.359  0.000  0.000  0.013
  0.000  0.000  0.359  0.013  0.000
  0.000  0.000  0.013  0.402  0.000
  0.000  0.013  0.000  0.000  0.402
   spin  2
    eigenvalues: 
  0.351  0.351  0.385  0.402  0.402
    eigenvectors:
  0.000  0.000  1.000  0.000  0.000
  0.764  0.146  0.000  0.013  0.077
  0.146  0.764  0.000  0.077  0.013
  0.016  0.075  0.000  0.767  0.143
  0.075  0.016  0.000  0.143  0.767
    occupations:
  0.385  0.000  0.000  0.000  0.000
  0.000  0.356  0.000  0.000  0.015
  0.000  0.000  0.356  0.015  0.000
  0.000  0.000  0.015  0.398  0.000
  0.000  0.015  0.000  0.000  0.398
atomic mag. moment =     0.014349
atom    4   Tr[ns(na)] (up, down, total) =   1.91480  1.90048  3.81527
   spin  1
    eigenvalues: 
  0.357  0.357  0.387  0.407  0.407
    eigenvectors:
  0.000  0.000  1.000  0.000  0.000
  0.786  0.138  0.000  0.011  0.065
  0.138  0.786  0.000  0.065  0.011
  0.012  0.064  0.000  0.786  0.139
  0.064  0.012  0.000  0.139  0.786
    occupations:
  0.387  0.000  0.000  0.000  0.000
  0.000  0.361  0.000  0.000  0.013
  0.000  0.000  0.361  0.013  0.000
  0.000  0.000  0.013  0.403  0.000
  0.000  0.013  0.000  0.000  0.403
   spin  2
    eigenvalues: 
  0.353  0.353  0.387  0.404  0.404
    eigenvectors:
  0.000  0.000  1.000  0.000  0.000
  0.765  0.145  0.000  0.013  0.077
  0.145  0.765  0.000  0.077  0.013
  0.015  0.074  0.000  0.768  0.142
  0.074  0.015  0.000  0.142  0.768
    occupations:
  0.387  0.000  0.000  0.000  0.000
  0.000  0.358  0.000  0.000  0.015
  0.000  0.000  0.358  0.015  0.000
  0.000  0.000  0.015  0.399  0.000
  0.000  0.015  0.000  0.000  0.399
atomic mag. moment =     0.014320
atom    5   Tr[ns(na)] (up, down, total) =   2.74259  2.70338  5.44596
   spin  1
    eigenvalues: 
  0.844  0.948  0.951
    eigenvectors:
  0.337  0.000  0.663
  0.508  0.244  0.248
  0.156  0.756  0.089
    occupations:
  0.915 -0.044  0.025
 -0.044  0.896  0.029
  0.025  0.029  0.932
   spin  2
    eigenvalues: 
  0.864  0.920  0.920
    eigenvectors:
  0.333  0.625  0.041
  0.514  0.138  0.348
  0.153  0.237  0.610
    occupations:
  0.901 -0.023  0.013
 -0.023  0.891  0.016
  0.013  0.016  0.911
atomic mag. moment =     0.039214
atom    6   Tr[ns(na)] (up, down, total) =   2.74259  2.70338  5.44596
   spin  1
    eigenvalues: 
  0.844  0.948  0.951
    eigenvectors:
  0.337  0.000  0.663
  0.487  0.256  0.257
  0.176  0.744  0.080
    occupations:
  0.915  0.044  0.026
  0.044  0.898 -0.030
  0.026 -0.030  0.930
   spin  2
    eigenvalues: 
  0.864  0.920  0.920
    eigenvectors:
  0.333  0.625  0.041
  0.486  0.369  0.145
  0.181  0.006  0.813
    occupations:
  0.901  0.022  0.014
  0.022  0.893 -0.017
  0.014 -0.017  0.910
atomic mag. moment =     0.039214
atom    7   Tr[ns(na)] (up, down, total) =   2.74259  2.70338  5.44596
   spin  1
    eigenvalues: 
  0.844  0.948  0.951
    eigenvectors:
  0.337  0.000  0.663
  0.000  1.000  0.000
  0.663  0.000  0.337
    occupations:
  0.915  0.001 -0.051
  0.001  0.948  0.001
 -0.051  0.001  0.880
   spin  2
    eigenvalues: 
  0.864  0.920  0.920
    eigenvectors:
  0.333  0.625  0.041
  0.000  0.055  0.944
  0.666  0.319  0.015
    occupations:
  0.901  0.001 -0.026
  0.001  0.920  0.001
 -0.026  0.001  0.883
atomic mag. moment =     0.039214
atom    8   Tr[ns(na)] (up, down, total) =   2.74257  2.70340  5.44596
   spin  1
    eigenvalues: 
  0.844  0.947  0.951
    eigenvectors:
  0.337  0.000  0.663
  0.508  0.244  0.249
  0.155  0.756  0.088
    occupations:
  0.915 -0.045  0.025
 -0.045  0.896  0.029
  0.025  0.029  0.932
   spin  2
    eigenvalues: 
  0.864  0.920  0.920
    eigenvectors:
  0.333  0.002  0.664
  0.514  0.200  0.286
  0.153  0.798  0.049
    occupations:
  0.901 -0.023  0.013
 -0.023  0.891  0.016
  0.013  0.016  0.911
atomic mag. moment =     0.039170
atom    9   Tr[ns(na)] (up, down, total) =   2.74257  2.70340  5.44596
   spin  1
    eigenvalues: 
  0.844  0.947  0.951
    eigenvectors:
  0.337  0.000  0.663
  0.487  0.256  0.257
  0.176  0.743  0.080
    occupations:
  0.915  0.044  0.026
  0.044  0.898 -0.030
  0.026 -0.030  0.929
   spin  2
    eigenvalues: 
  0.864  0.920  0.920
    eigenvectors:
  0.333  0.002  0.664
  0.486  0.302  0.212
  0.181  0.695  0.124
    occupations:
  0.901  0.023  0.014
  0.023  0.893 -0.016
  0.014 -0.016  0.910
atomic mag. moment =     0.039170
atom   10   Tr[ns(na)] (up, down, total) =   2.74257  2.70340  5.44596
   spin  1
    eigenvalues: 
  0.844  0.947  0.951
    eigenvectors:
  0.337  0.000  0.663
  0.000  1.000  0.000
  0.663  0.000  0.337
    occupations:
  0.915  0.001 -0.051
  0.001  0.947  0.001
 -0.051  0.001  0.880
   spin  2
    eigenvalues: 
  0.864  0.920  0.920
    eigenvectors:
  0.333  0.002  0.664
  0.000  0.994  0.006
  0.666  0.004  0.330
    occupations:
  0.901  0.001 -0.026
  0.001  0.920  0.001
 -0.026  0.001  0.883
atomic mag. moment =     0.039170
N of occupied +U levels =  56.1292423
 --- exit write_ns ---
 --- in v_hubbard ---
Hubbard energy    0.0140
 -------

     total cpu time spent up to now is      120.1 secs

     total energy              =    -538.34143154 Ry
     Harris-Foulkes estimate   =    -538.34143168 Ry
     estimated scf accuracy    <       0.00000060 Ry

     total magnetization       =     3.54 Bohr mag/cell
     absolute magnetization    =     3.69 Bohr mag/cell

     iteration #  5     ecut=    30.00 Ry     beta=0.20
     Davidson diagonalization with overlap
     ethr =  7.87E-10,  avg # of iterations =  3.0
 --- enter write_ns ---
 LDA+U parameters:
U( 1)     =  0.00000000
alpha( 1) =  0.00000000
U( 2)     =  0.00000000
alpha( 2) =  0.05000000
U( 3)     =  0.00000000
alpha( 3) =  0.00000000
U( 4)     =  0.00000000
alpha( 4) =  0.00000000
atom    1   Tr[ns(na)] (up, down, total) =   4.56590  3.37418  7.94007
   spin  1
    eigenvalues: 
  0.785  0.785  0.999  0.999  0.999
    eigenvectors:
  0.000  0.000  0.000  0.000  1.000
  0.423  0.223  0.056  0.298  0.000
  0.223  0.423  0.298  0.056  0.000
  0.346  0.008  0.556  0.090  0.000
  0.008  0.346  0.090  0.556  0.000
    occupations:
  0.999  0.000  0.000  0.000  0.000
  0.000  0.861  0.000 -0.073  0.072
  0.000  0.000  0.861  0.072  0.073
  0.000 -0.073  0.072  0.923  0.000
  0.000  0.072  0.073  0.000  0.923
   spin  2
    eigenvalues: 
  0.474  0.474  0.773  0.826  0.826
    eigenvectors:
  0.000  0.000  1.000  0.000  0.000
  0.277  0.362  0.000  0.034  0.327
  0.362  0.277  0.000  0.327  0.034
  0.278  0.083  0.000  0.476  0.163
  0.083  0.278  0.000  0.163  0.476
    occupations:
  0.773  0.000  0.000  0.000  0.000
  0.000  0.601  0.000 -0.037  0.165
  0.000  0.000  0.601  0.165  0.037
  0.000 -0.037  0.165  0.699  0.000
  0.000  0.165  0.037  0.000  0.699
atomic mag. moment =     1.191717
atom    2   Tr[ns(na)] (up, down, total) =   4.67272  3.22540  7.89812
   spin  1
    eigenvalues: 
  0.838  0.838  0.999  0.999  0.999
    eigenvectors:
  0.000  0.000  0.000  0.000  1.000
  0.643  0.003  0.325  0.029  0.000
  0.003  0.643  0.029  0.325  0.000
  0.152  0.202  0.500  0.146  0.000
  0.202  0.152  0.146  0.500  0.000
    occupations:
  0.999  0.000  0.000  0.000  0.000
  0.000  0.895  0.000  0.054  0.054
  0.000  0.000  0.895  0.054 -0.054
  0.000  0.054  0.054  0.942  0.000
  0.000  0.054 -0.054  0.000  0.942
   spin  2
    eigenvalues: 
  0.460  0.460  0.730  0.788  0.788
    eigenvectors:
  0.000  0.000  1.000  0.000  0.000
  0.505  0.130  0.000  0.189  0.175
  0.130  0.505  0.000  0.175  0.189
  0.021  0.344  0.000  0.447  0.188
  0.344  0.021  0.000  0.188  0.447
    occupations:
  0.730  0.000  0.000  0.000  0.000
  0.000  0.579  0.000  0.036  0.154
  0.000  0.000  0.579  0.154 -0.036
  0.000  0.036  0.154  0.668  0.000
  0.000  0.154 -0.036  0.000  0.668
atomic mag. moment =     1.447319
atom    3   Tr[ns(na)] (up, down, total) =   1.90760  1.89324  3.80085
   spin  1
    eigenvalues: 
  0.355  0.355  0.385  0.406  0.406
    eigenvectors:
  0.000  0.000  1.000  0.000  0.000
  0.785  0.139  0.000  0.011  0.066
  0.139  0.785  0.000  0.066  0.011
  0.012  0.064  0.000  0.785  0.139
  0.064  0.012  0.000  0.139  0.785
    occupations:
  0.385  0.000  0.000  0.000  0.000
  0.000  0.359  0.000  0.000  0.013
  0.000  0.000  0.359  0.013  0.000
  0.000  0.000  0.013  0.402  0.000
  0.000  0.013  0.000  0.000  0.402
   spin  2
    eigenvalues: 
  0.351  0.351  0.385  0.402  0.402
    eigenvectors:
  0.000  0.000  1.000  0.000  0.000
  0.764  0.145  0.000  0.013  0.077
  0.145  0.764  0.000  0.077  0.013
  0.016  0.075  0.000  0.767  0.142
  0.075  0.016  0.000  0.142  0.767
    occupations:
  0.385  0.000  0.000  0.000  0.000
  0.000  0.356  0.000  0.000  0.015
  0.000  0.000  0.356  0.015  0.000
  0.000  0.000  0.015  0.398  0.000
  0.000  0.015  0.000  0.000  0.398
atomic mag. moment =     0.014356
atom    4   Tr[ns(na)] (up, down, total) =   1.91480  1.90047  3.81527
   spin  1
    eigenvalues: 
  0.357  0.357  0.387  0.407  0.407
    eigenvectors:
  0.000  0.000  1.000  0.000  0.000
  0.786  0.138  0.000  0.011  0.065
  0.138  0.786  0.000  0.065  0.011
  0.012  0.064  0.000  0.786  0.139
  0.064  0.012  0.000  0.139  0.786
    occupations:
  0.387  0.000  0.000  0.000  0.000
  0.000  0.361  0.000  0.000  0.013
  0.000  0.000  0.361  0.013  0.000
  0.000  0.000  0.013  0.403  0.000
  0.000  0.013  0.000  0.000  0.403
   spin  2
    eigenvalues: 
  0.353  0.353  0.387  0.404  0.404
    eigenvectors:
  0.000  0.000  1.000  0.000  0.000
  0.765  0.145  0.000  0.013  0.077
  0.145  0.765  0.000  0.077  0.013
  0.015  0.074  0.000  0.768  0.142
  0.074  0.015  0.000  0.142  0.768
    occupations:
  0.387  0.000  0.000  0.000  0.000
  0.000  0.358  0.000  0.000  0.015
  0.000  0.000  0.358  0.015  0.000
  0.000  0.000  0.015  0.399  0.000
  0.000  0.015  0.000  0.000  0.399
atomic mag. moment =     0.014326
atom    5   Tr[ns(na)] (up, down, total) =   2.74254  2.70332  5.44586
   spin  1
    eigenvalues: 
  0.844  0.948  0.951
    eigenvectors:
  0.337  0.000  0.663
  0.508  0.244  0.248
  0.156  0.756  0.089
    occupations:
  0.915 -0.044  0.025
 -0.044  0.896  0.029
  0.025  0.029  0.932
   spin  2
    eigenvalues: 
  0.864  0.920  0.920
    eigenvectors:
  0.333  0.616  0.050
  0.514  0.127  0.360
  0.153  0.257  0.590
    occupations:
  0.901 -0.023  0.013
 -0.023  0.891  0.016
  0.013  0.016  0.911
atomic mag. moment =     0.039218
atom    6   Tr[ns(na)] (up, down, total) =   2.74254  2.70332  5.44586
   spin  1
    eigenvalues: 
  0.844  0.948  0.951
    eigenvectors:
  0.337  0.000  0.663
  0.487  0.256  0.257
  0.176  0.744  0.080
    occupations:
  0.915  0.044  0.026
  0.044  0.898 -0.030
  0.026 -0.030  0.930
   spin  2
    eigenvalues: 
  0.864  0.920  0.920
    eigenvectors:
  0.333  0.616  0.050
  0.486  0.380  0.134
  0.181  0.003  0.816
    occupations:
  0.901  0.022  0.014
  0.022  0.893 -0.017
  0.014 -0.017  0.910
atomic mag. moment =     0.039218
atom    7   Tr[ns(na)] (up, down, total) =   2.74254  2.70332  5.44586
   spin  1
    eigenvalues: 
  0.844  0.948  0.951
    eigenvectors:
  0.337  0.000  0.663
  0.000  1.000  0.000
  0.663  0.000  0.337
    occupations:
  0.915  0.001 -0.051
  0.001  0.948  0.001
 -0.051  0.001  0.880
   spin  2
    eigenvalues: 
  0.864  0.920  0.920
    eigenvectors:
  0.333  0.616  0.050
  0.000  0.068  0.932
  0.666  0.315  0.018
    occupations:
  0.901  0.001 -0.026
  0.001  0.920  0.001
 -0.026  0.001  0.883
atomic mag. moment =     0.039218
atom    8   Tr[ns(na)] (up, down, total) =   2.74251  2.70334  5.44585
   spin  1
    eigenvalues: 
  0.844  0.947  0.951
    eigenvectors:
  0.337  0.000  0.663
  0.508  0.244  0.249
  0.155  0.756  0.088
    occupations:
  0.915 -0.045  0.025
 -0.045  0.896  0.029
  0.025  0.029  0.932
   spin  2
    eigenvalues: 
  0.864  0.920  0.920
    eigenvectors:
  0.333  0.003  0.664
  0.514  0.199  0.287
  0.153  0.798  0.049
    occupations:
  0.901 -0.023  0.013
 -0.023  0.891  0.016
  0.013  0.016  0.911
atomic mag. moment =     0.039174
atom    9   Tr[ns(na)] (up, down, total) =   2.74251  2.70334  5.44585
   spin  1
    eigenvalues: 
  0.844  0.947  0.951
    eigenvectors:
  0.337  0.000  0.663
  0.487  0.256  0.257
  0.176  0.743  0.080
    occupations:
  0.915  0.044  0.026
  0.044  0.898 -0.030
  0.026 -0.030  0.929
   spin  2
    eigenvalues: 
  0.864  0.920  0.920
    eigenvectors:
  0.333  0.003  0.664
  0.486  0.303  0.211
  0.181  0.694  0.125
    occupations:
  0.901  0.023  0.014
  0.023  0.893 -0.016
  0.014 -0.016  0.910
atomic mag. moment =     0.039174
atom   10   Tr[ns(na)] (up, down, total) =   2.74251  2.70334  5.44585
   spin  1
    eigenvalues: 
  0.844  0.947  0.951
    eigenvectors:
  0.337  0.000  0.663
  0.000  1.000  0.000
  0.663  0.000  0.337
    occupations:
  0.915  0.001 -0.051
  0.001  0.947  0.001
 -0.051  0.001  0.880
   spin  2
    eigenvalues: 
  0.864  0.920  0.920
    eigenvectors:
  0.333  0.003  0.664
  0.000  0.994  0.006
  0.666  0.004  0.330
    occupations:
  0.901  0.001 -0.026
  0.001  0.920  0.001
 -0.026  0.001  0.883
atomic mag. moment =     0.039174
N of occupied +U levels =  56.1294249
 --- exit write_ns ---
 --- in v_hubbard ---
Hubbard energy    0.0140
 -------

     total cpu time spent up to now is      145.1 secs

     total energy              =    -538.34143161 Ry
     Harris-Foulkes estimate   =    -538.34143171 Ry
     estimated scf accuracy    <       0.00000029 Ry

     total magnetization       =     3.54 Bohr mag/cell
     absolute magnetization    =     3.69 Bohr mag/cell

     iteration #  6     ecut=    30.00 Ry     beta=0.20
     Davidson diagonalization with overlap
     ethr =  3.81E-10,  avg # of iterations =  2.0
 --- enter write_ns ---
 LDA+U parameters:
U( 1)     =  0.00000000
alpha( 1) =  0.00000000
U( 2)     =  0.00000000
alpha( 2) =  0.05000000
U( 3)     =  0.00000000
alpha( 3) =  0.00000000
U( 4)     =  0.00000000
alpha( 4) =  0.00000000
atom    1   Tr[ns(na)] (up, down, total) =   4.56588  3.37416  7.94004
   spin  1
    eigenvalues: 
  0.785  0.785  0.999  0.999  0.999
    eigenvectors:
  0.000  0.000  0.000  0.000  1.000
  0.423  0.223  0.056  0.298  0.000
  0.223  0.423  0.298  0.056  0.000
  0.346  0.008  0.556  0.090  0.000
  0.008  0.346  0.090  0.556  0.000
    occupations:
  0.999  0.000  0.000  0.000  0.000
  0.000  0.861  0.000 -0.073  0.072
  0.000  0.000  0.861  0.072  0.073
  0.000 -0.073  0.072  0.923  0.000
  0.000  0.072  0.073  0.000  0.923
   spin  2
    eigenvalues: 
  0.474  0.474  0.773  0.826  0.826
    eigenvectors:
  0.000  0.000  1.000  0.000  0.000
  0.277  0.362  0.000  0.034  0.327
  0.362  0.277  0.000  0.327  0.034
  0.278  0.083  0.000  0.476  0.163
  0.083  0.278  0.000  0.163  0.476
    occupations:
  0.773  0.000  0.000  0.000  0.000
  0.000  0.601  0.000 -0.037  0.165
  0.000  0.000  0.601  0.165  0.037
  0.000 -0.037  0.165  0.699  0.000
  0.000  0.165  0.037  0.000  0.699
atomic mag. moment =     1.191717
atom    2   Tr[ns(na)] (up, down, total) =   4.67269  3.22540  7.89810
   spin  1
    eigenvalues: 
  0.838  0.838  0.999  0.999  0.999
    eigenvectors:
  0.000  0.000  0.000  0.000  1.000
  0.643  0.003  0.325  0.029  0.000
  0.003  0.643  0.029  0.325  0.000
  0.152  0.202  0.500  0.146  0.000
  0.202  0.152  0.146  0.500  0.000
    occupations:
  0.999  0.000  0.000  0.000  0.000
  0.000  0.895  0.000  0.055  0.054
  0.000  0.000  0.895  0.054 -0.055
  0.000  0.055  0.054  0.942  0.000
  0.000  0.054 -0.055  0.000  0.942
   spin  2
    eigenvalues: 
  0.460  0.460  0.730  0.788  0.788
    eigenvectors:
  0.000  0.000  1.000  0.000  0.000
  0.506  0.129  0.000  0.189  0.175
  0.129  0.506  0.000  0.175  0.189
  0.020  0.344  0.000  0.447  0.188
  0.344  0.020  0.000  0.188  0.447
    occupations:
  0.730  0.000  0.000  0.000  0.000
  0.000  0.579  0.000  0.036  0.154
  0.000  0.000  0.579  0.154 -0.036
  0.000  0.036  0.154  0.668  0.000
  0.000  0.154 -0.036  0.000  0.668
atomic mag. moment =     1.447287
atom    3   Tr[ns(na)] (up, down, total) =   1.90751  1.89315  3.80065
   spin  1
    eigenvalues: 
  0.355  0.355  0.385  0.406  0.406
    eigenvectors:
  0.000  0.000  1.000  0.000  0.000
  0.785  0.138  0.000  0.011  0.066
  0.138  0.785  0.000  0.066  0.011
  0.012  0.064  0.000  0.785  0.139
  0.064  0.012  0.000  0.139  0.785
    occupations:
  0.385  0.000  0.000  0.000  0.000
  0.000  0.359  0.000  0.000  0.013
  0.000  0.000  0.359  0.013  0.000
  0.000  0.000  0.013  0.402  0.000
  0.000  0.013  0.000  0.000  0.402
   spin  2
    eigenvalues: 
  0.351  0.351  0.385  0.402  0.402
    eigenvectors:
  0.000  0.000  1.000  0.000  0.000
  0.764  0.146  0.000  0.013  0.077
  0.146  0.764  0.000  0.077  0.013
  0.016  0.075  0.000  0.767  0.143
  0.075  0.016  0.000  0.143  0.767
    occupations:
  0.385  0.000  0.000  0.000  0.000
  0.000  0.356  0.000  0.000  0.015
  0.000  0.000  0.356  0.015  0.000
  0.000  0.000  0.015  0.398  0.000
  0.000  0.015  0.000  0.000  0.398
atomic mag. moment =     0.014358
atom    4   Tr[ns(na)] (up, down, total) =   1.91461  1.90028  3.81488
   spin  1
    eigenvalues: 
  0.357  0.357  0.387  0.407  0.407
    eigenvectors:
  0.000  0.000  1.000  0.000  0.000
  0.786  0.138  0.000  0.011  0.065
  0.138  0.786  0.000  0.065  0.011
  0.012  0.064  0.000  0.786  0.139
  0.064  0.012  0.000  0.139  0.786
    occupations:
  0.387  0.000  0.000  0.000  0.000
  0.000  0.361  0.000  0.000  0.013
  0.000  0.000  0.361  0.013  0.000
  0.000  0.000  0.013  0.403  0.000
  0.000  0.013  0.000  0.000  0.403
   spin  2
    eigenvalues: 
  0.353  0.353  0.387  0.404  0.404
    eigenvectors:
  0.000  0.000  1.000  0.000  0.000
  0.765  0.145  0.000  0.013  0.077
  0.145  0.765  0.000  0.077  0.013
  0.015  0.074  0.000  0.768  0.142
  0.074  0.015  0.000  0.142  0.768
    occupations:
  0.387  0.000  0.000  0.000  0.000
  0.000  0.358  0.000  0.000  0.015
  0.000  0.000  0.358  0.015  0.000
  0.000  0.000  0.015  0.399  0.000
  0.000  0.015  0.000  0.000  0.399
atomic mag. moment =     0.014326
atom    5   Tr[ns(na)] (up, down, total) =   2.74258  2.70336  5.44594
   spin  1
    eigenvalues: 
  0.844  0.948  0.951
    eigenvectors:
  0.337  0.000  0.663
  0.508  0.244  0.248
  0.156  0.756  0.089
    occupations:
  0.915 -0.044  0.025
 -0.044  0.896  0.029
  0.025  0.029  0.932
   spin  2
    eigenvalues: 
  0.864  0.920  0.920
    eigenvectors:
  0.333  0.613  0.054
  0.514  0.123  0.364
  0.153  0.264  0.583
    occupations:
  0.901 -0.023  0.013
 -0.023  0.891  0.016
  0.013  0.016  0.911
atomic mag. moment =     0.039221
atom    6   Tr[ns(na)] (up, down, total) =   2.74258  2.70336  5.44594
   spin  1
    eigenvalues: 
  0.844  0.948  0.951
    eigenvectors:
  0.337  0.000  0.663
  0.487  0.256  0.257
  0.176  0.744  0.080
    occupations:
  0.915  0.044  0.026
  0.044  0.898 -0.030
  0.026 -0.030  0.930
   spin  2
    eigenvalues: 
  0.864  0.920  0.920
    eigenvectors:
  0.333  0.613  0.054
  0.486  0.385  0.129
  0.181  0.002  0.817
    occupations:
  0.901  0.022  0.014
  0.022  0.893 -0.017
  0.014 -0.017  0.910
atomic mag. moment =     0.039221
atom    7   Tr[ns(na)] (up, down, total) =   2.74258  2.70336  5.44594
   spin  1
    eigenvalues: 
  0.844  0.948  0.951
    eigenvectors:
  0.337  0.000  0.663
  0.000  1.000  0.000
  0.663  0.000  0.337
    occupations:
  0.915  0.001 -0.051
  0.001  0.948  0.001
 -0.051  0.001  0.880
   spin  2
    eigenvalues: 
  0.864  0.920  0.920
    eigenvectors:
  0.333  0.613  0.054
  0.000  0.073  0.927
  0.666  0.314  0.020
    occupations:
  0.901  0.001 -0.026
  0.001  0.920  0.001
 -0.026  0.001  0.883
atomic mag. moment =     0.039221
atom    8   Tr[ns(na)] (up, down, total) =   2.74255  2.70337  5.44593
   spin  1
    eigenvalues: 
  0.844  0.947  0.951
    eigenvectors:
  0.337  0.000  0.663
  0.508  0.244  0.249
  0.155  0.756  0.088
    occupations:
  0.915 -0.045  0.025
 -0.045  0.896  0.029
  0.025  0.029  0.932
   spin  2
    eigenvalues: 
  0.864  0.920  0.920
    eigenvectors:
  0.333  0.003  0.664
  0.514  0.199  0.287
  0.153  0.798  0.049
    occupations:
  0.901 -0.023  0.013
 -0.023  0.891  0.016
  0.013  0.016  0.911
atomic mag. moment =     0.039176
atom    9   Tr[ns(na)] (up, down, total) =   2.74255  2.70337  5.44593
   spin  1
    eigenvalues: 
  0.844  0.947  0.951
    eigenvectors:
  0.337  0.000  0.663
  0.487  0.256  0.257
  0.176  0.743  0.080
    occupations:
  0.915  0.044  0.026
  0.044  0.898 -0.030
  0.026 -0.030  0.929
   spin  2
    eigenvalues: 
  0.864  0.920  0.920
    eigenvectors:
  0.333  0.003  0.664
  0.486  0.303  0.211
  0.181  0.694  0.125
    occupations:
  0.901  0.023  0.014
  0.023  0.893 -0.016
  0.014 -0.016  0.910
atomic mag. moment =     0.039176
atom   10   Tr[ns(na)] (up, down, total) =   2.74255  2.70337  5.44593
   spin  1
    eigenvalues: 
  0.844  0.947  0.951
    eigenvectors:
  0.337  0.000  0.663
  0.000  1.000  0.000
  0.663  0.000  0.337
    occupations:
  0.915  0.001 -0.051
  0.001  0.947  0.001
 -0.051  0.001  0.880
   spin  2
    eigenvalues: 
  0.864  0.920  0.920
    eigenvectors:
  0.333  0.003  0.664
  0.000  0.994  0.006
  0.666  0.004  0.330
    occupations:
  0.901  0.001 -0.026
  0.001  0.920  0.001
 -0.026  0.001  0.883
atomic mag. moment =     0.039176
N of occupied +U levels =  56.1292604
 --- exit write_ns ---
 --- in v_hubbard ---
Hubbard energy    0.0140
 -------

     total cpu time spent up to now is      170.0 secs

     total energy              =    -538.34143163 Ry
     Harris-Foulkes estimate   =    -538.34143166 Ry
     estimated scf accuracy    <       0.00000009 Ry

     total magnetization       =     3.54 Bohr mag/cell
     absolute magnetization    =     3.69 Bohr mag/cell

     iteration #  7     ecut=    30.00 Ry     beta=0.20
     Davidson diagonalization with overlap
     ethr =  1.18E-10,  avg # of iterations =  2.0
 --- enter write_ns ---
 LDA+U parameters:
U( 1)     =  0.00000000
alpha( 1) =  0.00000000
U( 2)     =  0.00000000
alpha( 2) =  0.05000000
U( 3)     =  0.00000000
alpha( 3) =  0.00000000
U( 4)     =  0.00000000
alpha( 4) =  0.00000000
atom    1   Tr[ns(na)] (up, down, total) =   4.56586  3.37419  7.94005
   spin  1
    eigenvalues: 
  0.785  0.785  0.999  0.999  0.999
    eigenvectors:
  0.000  0.000  0.000  0.000  1.000
  0.423  0.223  0.056  0.298  0.000
  0.223  0.423  0.298  0.056  0.000
  0.346  0.008  0.556  0.090  0.000
  0.008  0.346  0.090  0.556  0.000
    occupations:
  0.999  0.000  0.000  0.000  0.000
  0.000  0.861  0.000 -0.073  0.072
  0.000  0.000  0.861  0.072  0.073
  0.000 -0.073  0.072  0.923  0.000
  0.000  0.072  0.073  0.000  0.923
   spin  2
    eigenvalues: 
  0.474  0.474  0.773  0.826  0.826
    eigenvectors:
  0.000  0.000  1.000  0.000  0.000
  0.277  0.362  0.000  0.034  0.327
  0.362  0.277  0.000  0.327  0.034
  0.278  0.083  0.000  0.476  0.163
  0.083  0.278  0.000  0.163  0.476
    occupations:
  0.773  0.000  0.000  0.000  0.000
  0.000  0.601  0.000 -0.037  0.165
  0.000  0.000  0.601  0.165  0.037
  0.000 -0.037  0.165  0.699  0.000
  0.000  0.165  0.037  0.000  0.699
atomic mag. moment =     1.191677
atom    2   Tr[ns(na)] (up, down, total) =   4.67266  3.22543  7.89809
   spin  1
    eigenvalues: 
  0.838  0.838  0.999  0.999  0.999
    eigenvectors:
  0.000  0.000  0.000  0.000  1.000
  0.643  0.003  0.325  0.029  0.000
  0.003  0.643  0.029  0.325  0.000
  0.152  0.202  0.500  0.146  0.000
  0.202  0.152  0.146  0.500  0.000
    occupations:
  0.999  0.000  0.000  0.000  0.000
  0.000  0.895  0.000  0.055  0.054
  0.000  0.000  0.895  0.054 -0.055
  0.000  0.055  0.054  0.942  0.000
  0.000  0.054 -0.055  0.000  0.942
   spin  2
    eigenvalues: 
  0.460  0.460  0.730  0.788  0.788
    eigenvectors:
  0.000  0.000  1.000  0.000  0.000
  0.507  0.129  0.000  0.189  0.175
  0.129  0.507  0.000  0.175  0.189
  0.020  0.344  0.000  0.447  0.188
  0.344  0.020  0.000  0.188  0.447
    occupations:
  0.730  0.000  0.000  0.000  0.000
  0.000  0.579  0.000  0.036  0.154
  0.000  0.000  0.579  0.154 -0.036
  0.000  0.036  0.154  0.668  0.000
  0.000  0.154 -0.036  0.000  0.668
atomic mag. moment =     1.447227
atom    3   Tr[ns(na)] (up, down, total) =   1.90764  1.89328  3.80092
   spin  1
    eigenvalues: 
  0.355  0.355  0.385  0.406  0.406
    eigenvectors:
  0.000  0.000  1.000  0.000  0.000
  0.785  0.139  0.000  0.011  0.066
  0.139  0.785  0.000  0.066  0.011
  0.012  0.064  0.000  0.785  0.139
  0.064  0.012  0.000  0.139  0.785
    occupations:
  0.385  0.000  0.000  0.000  0.000
  0.000  0.359  0.000  0.000  0.013
  0.000  0.000  0.359  0.013  0.000
  0.000  0.000  0.013  0.402  0.000
  0.000  0.013  0.000  0.000  0.402
   spin  2
    eigenvalues: 
  0.351  0.351  0.385  0.402  0.402
    eigenvectors:
  0.000  0.000  1.000  0.000  0.000
  0.764  0.145  0.000  0.013  0.077
  0.145  0.764  0.000  0.077  0.013
  0.016  0.075  0.000  0.767  0.142
  0.075  0.016  0.000  0.142  0.767
    occupations:
  0.385  0.000  0.000  0.000  0.000
  0.000  0.356  0.000  0.000  0.015
  0.000  0.000  0.356  0.015  0.000
  0.000  0.000  0.015  0.398  0.000
  0.000  0.015  0.000  0.000  0.398
atomic mag. moment =     0.014360
atom    4   Tr[ns(na)] (up, down, total) =   1.91465  1.90032  3.81497
   spin  1
    eigenvalues: 
  0.357  0.357  0.387  0.407  0.407
    eigenvectors:
  0.000  0.000  1.000  0.000  0.000
  0.786  0.138  0.000  0.011  0.065
  0.138  0.786  0.000  0.065  0.011
  0.012  0.064  0.000  0.785  0.139
  0.064  0.012  0.000  0.139  0.785
    occupations:
  0.387  0.000  0.000  0.000  0.000
  0.000  0.361  0.000  0.000  0.013
  0.000  0.000  0.361  0.013  0.000
  0.000  0.000  0.013  0.403  0.000
  0.000  0.013  0.000  0.000  0.403
   spin  2
    eigenvalues: 
  0.353  0.353  0.387  0.404  0.404
    eigenvectors:
  0.000  0.000  1.000  0.000  0.000
  0.765  0.145  0.000  0.013  0.077
  0.145  0.765  0.000  0.077  0.013
  0.015  0.074  0.000  0.768  0.142
  0.074  0.015  0.000  0.142  0.768
    occupations:
  0.387  0.000  0.000  0.000  0.000
  0.000  0.358  0.000  0.000  0.015
  0.000  0.000  0.358  0.015  0.000
  0.000  0.000  0.015  0.399  0.000
  0.000  0.015  0.000  0.000  0.399
atomic mag. moment =     0.014326
atom    5   Tr[ns(na)] (up, down, total) =   2.74255  2.70334  5.44589
   spin  1
    eigenvalues: 
  0.844  0.948  0.951
    eigenvectors:
  0.337  0.000  0.663
  0.508  0.244  0.248
  0.156  0.756  0.089
    occupations:
  0.915 -0.044  0.025
 -0.044  0.896  0.029
  0.025  0.029  0.932
   spin  2
    eigenvalues: 
  0.864  0.920  0.920
    eigenvectors:
  0.333  0.613  0.054
  0.514  0.122  0.364
  0.153  0.265  0.582
    occupations:
  0.901 -0.023  0.013
 -0.023  0.891  0.016
  0.013  0.016  0.911
atomic mag. moment =     0.039215
atom    6   Tr[ns(na)] (up, down, total) =   2.74255  2.70334  5.44589
   spin  1
    eigenvalues: 
  0.844  0.948  0.951
    eigenvectors:
  0.337  0.000  0.663
  0.487  0.256  0.257
  0.176  0.744  0.080
    occupations:
  0.915  0.044  0.026
  0.044  0.898 -0.030
  0.026 -0.030  0.930
   spin  2
    eigenvalues: 
  0.864  0.920  0.920
    eigenvectors:
  0.333  0.613  0.054
  0.486  0.385  0.129
  0.181  0.002  0.817
    occupations:
  0.901  0.022  0.014
  0.022  0.893 -0.017
  0.014 -0.017  0.910
atomic mag. moment =     0.039215
atom    7   Tr[ns(na)] (up, down, total) =   2.74255  2.70334  5.44589
   spin  1
    eigenvalues: 
  0.844  0.948  0.951
    eigenvectors:
  0.337  0.000  0.663
  0.000  1.000  0.000
  0.663  0.000  0.337
    occupations:
  0.915  0.001 -0.051
  0.001  0.948  0.001
 -0.051  0.001  0.880
   spin  2
    eigenvalues: 
  0.864  0.920  0.920
    eigenvectors:
  0.333  0.613  0.054
  0.000  0.073  0.926
  0.666  0.314  0.020
    occupations:
  0.901  0.001 -0.026
  0.001  0.920  0.001
 -0.026  0.001  0.883
atomic mag. moment =     0.039215
atom    8   Tr[ns(na)] (up, down, total) =   2.74253  2.70336  5.44589
   spin  1
    eigenvalues: 
  0.844  0.947  0.951
    eigenvectors:
  0.337  0.000  0.663
  0.508  0.244  0.249
  0.155  0.756  0.088
    occupations:
  0.915 -0.045  0.025
 -0.045  0.896  0.029
  0.025  0.029  0.932
   spin  2
    eigenvalues: 
  0.864  0.920  0.920
    eigenvectors:
  0.333  0.003  0.664
  0.514  0.199  0.287
  0.153  0.798  0.049
    occupations:
  0.901 -0.023  0.013
 -0.023  0.891  0.016
  0.013  0.016  0.911
atomic mag. moment =     0.039170
atom    9   Tr[ns(na)] (up, down, total) =   2.74253  2.70336  5.44589
   spin  1
    eigenvalues: 
  0.844  0.947  0.951
    eigenvectors:
  0.337  0.000  0.663
  0.487  0.256  0.257
  0.176  0.743  0.080
    occupations:
  0.915  0.044  0.026
  0.044  0.898 -0.030
  0.026 -0.030  0.929
   spin  2
    eigenvalues: 
  0.864  0.920  0.920
    eigenvectors:
  0.333  0.003  0.664
  0.486  0.303  0.211
  0.181  0.694  0.125
    occupations:
  0.901  0.023  0.014
  0.023  0.893 -0.016
  0.014 -0.016  0.910
[...]
     0.0937   0.0937   0.0937   0.0937   0.0937   0.0937   0.0937   0.0871
     0.0077   0.0000   0.0000   0.0000   0.0000   0.0000

          k = 0.4942-0.5706-0.2053 (  2206 PWs)   bands (ev):

   -19.6908 -19.6620  -6.8529  -6.8428  -6.0003  -5.9975  -5.3855  -5.3837
    -3.1270  -3.1189  -2.7845  -2.7708  -2.3525  -2.3495   5.9367   5.9633
     6.8159   6.8559   6.9092   6.9204   7.3695   7.3794   7.9092   7.9544
     8.7672   8.7767   8.8900   8.8956   9.4901   9.5055   9.9854  10.0028
    10.6513  10.7001  10.8054  10.8710  11.0870  11.1335  11.4400  11.4832
    13.3102  13.3500  17.4480  17.4493  17.8960  17.8986

     occupation numbers 
     0.0938   0.0938   0.0938   0.0938   0.0938   0.0938   0.0938   0.0938
     0.0938   0.0938   0.0938   0.0938   0.0938   0.0938   0.0938   0.0938
     0.0938   0.0938   0.0938   0.0938   0.0938   0.0938   0.0938   0.0938
     0.0938   0.0938   0.0938   0.0938   0.0938   0.0938   0.0937   0.0937
     0.0937   0.0937   0.0937   0.0937   0.0937   0.0937   0.0936   0.0935
     0.0000   0.0000   0.0000   0.0000   0.0000   0.0000

          k = 0.0000 0.0000-0.6160 (  2186 PWs)   bands (ev):

   -19.6925 -19.6680  -6.4835  -6.4625  -5.9030  -5.9030  -5.8897  -5.8897
    -2.8617  -2.8617  -2.8441  -2.8441  -2.6916  -2.6711   6.2954   6.3063
     6.9288   6.9288   6.9934   6.9934   7.6792   7.7084   7.8612   7.8612
     7.8993   7.8993   9.5580   9.5580   9.5904   9.5904   9.6854   9.7073
    10.7068  10.8757  10.8757  10.8793  11.0302  11.0302  12.4464  12.4464
    12.6257  12.6257  17.1275  17.1275  17.1488  17.1488

     occupation numbers 
     0.0156   0.0156   0.0156   0.0156   0.0156   0.0156   0.0156   0.0156
     0.0156   0.0156   0.0156   0.0156   0.0156   0.0156   0.0156   0.0156
     0.0156   0.0156   0.0156   0.0156   0.0156   0.0156   0.0156   0.0156
     0.0156   0.0156   0.0156   0.0156   0.0156   0.0156   0.0156   0.0156
     0.0156   0.0156   0.0156   0.0156   0.0156   0.0156   0.0048   0.0048
     0.0020   0.0020   0.0000   0.0000   0.0000   0.0000

          k = 0.4942-0.5706 0.1027 (  2198 PWs)   bands (ev):

   -19.7024 -19.6539  -6.9251  -6.6091  -6.0942  -5.8517  -5.4689  -5.3404
    -3.2710  -3.2218  -2.8438  -2.6735  -2.4934  -2.3533   5.8352   6.1466
     6.6327   6.7403   7.0882   7.2730   7.4180   7.6235   7.7244   7.8749
     8.1792   8.7410   9.0048   9.2248   9.5155   9.7519   9.8675  10.2987
    10.4105  10.7730  10.9113  10.9663  11.1050  11.1747  11.5350  11.9178
    12.7102  13.7105  16.9357  17.1329  17.3375  18.0424

     occupation numbers 
     0.0938   0.0938   0.0938   0.0938   0.0938   0.0938   0.0938   0.0938
     0.0938   0.0938   0.0938   0.0938   0.0938   0.0938   0.0938   0.0938
     0.0938   0.0938   0.0938   0.0938   0.0938   0.0938   0.0938   0.0938
     0.0938   0.0938   0.0938   0.0938   0.0938   0.0938   0.0938   0.0937
     0.0937   0.0937   0.0937   0.0937   0.0937   0.0937   0.0934   0.0851
     0.0073   0.0000   0.0000   0.0000   0.0000   0.0000

 ------ SPIN DOWN ----------


          k = 0.0000 0.0000 0.0000 (  2175 PWs)   bands (ev):

   -19.7678 -19.5931  -6.4324  -5.6995  -5.6995  -5.6959  -5.6959  -5.3458
    -3.7232  -3.2362  -3.1234  -3.1234  -2.9762  -2.9762   5.2504   7.2660
     7.2660   7.5889   7.5889   7.7812   8.0306   8.0306   8.0736   9.4404
     9.7504   9.7504  10.0683  10.1245  10.1245  10.5968  10.5968  10.7931
    11.2111  11.2111  11.2985  12.1470  12.1470  12.6892  13.0145  13.0145
    15.3642  15.3642  15.5178  15.5178  16.2417  16.8441

     occupation numbers 
     0.0156   0.0156   0.0156   0.0156   0.0156   0.0156   0.0156   0.0156
     0.0156   0.0156   0.0156   0.0156   0.0156   0.0156   0.0156   0.0156
     0.0156   0.0156   0.0156   0.0156   0.0156   0.0156   0.0156   0.0156
     0.0156   0.0156   0.0156   0.0156   0.0156   0.0156   0.0156   0.0156
     0.0156   0.0156   0.0156   0.0110   0.0110   0.0014   0.0001   0.0001
     0.0000   0.0000   0.0000   0.0000   0.0000   0.0000

          k =-0.2471-0.1427 0.1027 (  2181 PWs)   bands (ev):

   -19.7403 -19.6157  -6.6184  -6.1726  -5.8137  -5.7213  -5.4757  -5.3381
    -3.5381  -3.3440  -2.8667  -2.8444  -2.7764  -2.7042   5.6191   6.9595
     7.3335   7.3518   7.4724   7.6848   7.6883   8.0342   8.0536   8.8201
     8.8867   9.5248   9.8058  10.0061  10.0652  10.1926  10.5405  10.5506
    11.5401  11.5848  11.6368  12.3334  12.3742  12.5041  13.1620  13.2088
    14.9288  14.9407  15.9080  16.1488  17.0301  17.3322

     occupation numbers 
     0.0938   0.0938   0.0938   0.0938   0.0938   0.0938   0.0938   0.0938
     0.0938   0.0938   0.0938   0.0938   0.0938   0.0938   0.0938   0.0938
     0.0938   0.0938   0.0938   0.0938   0.0938   0.0938   0.0938   0.0938
     0.0938   0.0938   0.0938   0.0937   0.0937   0.0937   0.0937   0.0937
     0.0934   0.0931   0.0927   0.0427   0.0375   0.0226   0.0001   0.0001
     0.0000   0.0000   0.0000   0.0000   0.0000   0.0000

          k = 0.4942 0.2853-0.2053 (  2202 PWs)   bands (ev):

   -19.6877 -19.6631  -6.6217  -6.6036  -5.8378  -5.8339  -5.3844  -5.3813
    -3.3383  -3.3264  -2.7247  -2.7182  -2.4607  -2.4429   6.1706   6.1786
     7.4187   7.4543   7.4905   7.5342   7.8509   7.8846   8.1527   8.1819
     8.4098   8.4441   9.7203   9.7330  10.0329  10.0378  10.4528  10.4582
    11.9402  12.0002  12.0356  12.0936  12.1867  12.2361  13.9501  14.0201
    14.0527  14.1220  16.8976  16.9185  17.1937  17.2141

     occupation numbers 
     0.0469   0.0469   0.0469   0.0469   0.0469   0.0469   0.0469   0.0469
     0.0469   0.0469   0.0469   0.0469   0.0469   0.0469   0.0469   0.0469
     0.0469   0.0469   0.0469   0.0469   0.0469   0.0469   0.0469   0.0469
     0.0469   0.0469   0.0469   0.0469   0.0469   0.0469   0.0469   0.0469
     0.0419   0.0399   0.0385   0.0358   0.0307   0.0276   0.0000   0.0000
     0.0000   0.0000   0.0000   0.0000   0.0000   0.0000

          k =-0.2471 0.1427 0.2053 (  2195 PWs)   bands (ev):

   -19.7350 -19.6175  -6.7463  -6.1192  -5.9500  -5.6927  -5.5236  -5.3125
    -3.3627  -3.2254  -3.0401  -2.8246  -2.7424  -2.4985   5.6715   6.9913
     7.2623   7.2987   7.3930   7.5683   7.6585   8.0656   8.0880   8.8463
     9.1106   9.1145   9.4724   9.9679  10.1331  10.2639  10.3431  10.4655
    11.2313  11.8573  11.9649  12.0293  12.3917  12.5127  12.9378  13.4997
    14.3049  15.4004  16.0610  16.2689  17.1011  17.5926

     occupation numbers 
     0.0938   0.0938   0.0938   0.0938   0.0938   0.0938   0.0938   0.0938
     0.0938   0.0938   0.0938   0.0938   0.0938   0.0938   0.0938   0.0938
     0.0938   0.0938   0.0938   0.0938   0.0938   0.0938   0.0938   0.0938
     0.0938   0.0938   0.0938   0.0937   0.0937   0.0937   0.0937   0.0937
     0.0937   0.0879   0.0823   0.0775   0.0353   0.0217   0.0013   0.0000
     0.0000   0.0000   0.0000   0.0000   0.0000   0.0000

          k = 0.4942 0.5706-0.1027 (  2198 PWs)   bands (ev):

   -19.6971 -19.6487  -6.8496  -6.5370  -6.0202  -5.7716  -5.3680  -5.2336
    -3.2625  -3.2117  -2.8198  -2.6459  -2.4623  -2.3210   6.0342   6.4145
     7.0521   7.3123   7.4032   7.4801   7.7412   8.0082   8.1396   8.2763
     8.5489   9.0862   9.3442   9.5253   9.8629   9.9786  10.1392  10.5269
    11.6120  11.9984  12.1035  12.1917  12.3268  12.3443  13.1488  13.5068
    14.1266  14.9938  16.9732  17.1943  17.3831  18.0793

     occupation numbers 
     0.0938   0.0938   0.0938   0.0938   0.0938   0.0938   0.0938   0.0938
     0.0938   0.0938   0.0938   0.0938   0.0938   0.0938   0.0938   0.0938
     0.0938   0.0938   0.0938   0.0938   0.0938   0.0938   0.0938   0.0938
     0.0938   0.0938   0.0938   0.0938   0.0938   0.0937   0.0937   0.0937
     0.0930   0.0800   0.0706   0.0607   0.0435   0.0413   0.0002   0.0000
     0.0000   0.0000   0.0000   0.0000   0.0000   0.0000

          k = 0.2471 0.4280 0.0000 (  2203 PWs)   bands (ev):

   -19.7062 -19.6430  -6.7402  -6.5255  -5.9380  -5.8590  -5.2941  -5.2188
    -3.4676  -3.2566  -2.7412  -2.6495  -2.5066  -2.4900   5.9885   6.4354
     7.2665   7.4017   7.4511   7.5253   7.5780   7.9196   8.0295   8.3889
     8.6467   9.1145   9.5721   9.6855   9.9516   9.9562  10.2206  10.5392
    11.8744  11.8877  11.9565  12.1473  12.1678  12.4427  13.1155  13.9819
    14.1011  14.8010  16.5159  17.0638  17.4808  17.9853

     occupation numbers 
     0.0938   0.0938   0.0938   0.0938   0.0938   0.0938   0.0938   0.0938
     0.0938   0.0938   0.0938   0.0938   0.0938   0.0938   0.0938   0.0938
     0.0938   0.0938   0.0938   0.0938   0.0938   0.0938   0.0938   0.0938
     0.0938   0.0938   0.0938   0.0938   0.0937   0.0937   0.0937   0.0937
     0.0872   0.0866   0.0828   0.0659   0.0635   0.0292   0.0002   0.0000
     0.0000   0.0000   0.0000   0.0000   0.0000   0.0000

          k = 0.4942-0.2853-0.4107 (  2202 PWs)   bands (ev):

   -19.7017 -19.6388  -7.0643  -6.3578  -6.1411  -5.8169  -5.4002  -5.1344
    -3.1546  -3.0922  -2.9903  -2.5881  -2.4113  -2.1583   5.9557   6.5228
     6.6273   7.2319   7.2546   7.3370   8.0942   8.1639   8.2734   8.3762
     8.7218   8.8507   8.8704   9.5513   9.7859  10.1638  10.1889  10.6076
    11.2144  11.8933  12.0177  12.2412  12.3824  12.4533  12.8751  13.2672
    14.0526  15.4225  17.1048  17.3525  17.5846  17.6456

     occupation numbers 
     0.0469   0.0469   0.0469   0.0469   0.0469   0.0469   0.0469   0.0469
     0.0469   0.0469   0.0469   0.0469   0.0469   0.0469   0.0469   0.0469
     0.0469   0.0469   0.0469   0.0469   0.0469   0.0469   0.0469   0.0469
     0.0469   0.0469   0.0469   0.0469   0.0469   0.0469   0.0469   0.0469
     0.0469   0.0432   0.0392   0.0273   0.0182   0.0140   0.0011   0.0000
     0.0000   0.0000   0.0000   0.0000   0.0000   0.0000

          k = 0.0000 0.0000 0.3080 (  2187 PWs)   bands (ev):

   -19.7400 -19.6154  -6.5044  -5.8568  -5.8031  -5.8002  -5.7120  -5.7117
    -3.1495  -3.0429  -3.0280  -2.9302  -2.8409  -2.8276   5.6699   7.2133
     7.3339   7.3352   7.5583   7.5591   7.6971   8.0610   8.0649   9.0575
     9.0584   9.5869   9.5895   9.8640   9.8652  10.0715  10.3015  10.3032
    11.6530  11.6537  11.6712  12.3489  12.3492  12.5224  13.1412  13.1416
    14.8893  14.8910  15.9936  15.9982  16.9316  17.5531

     occupation numbers 
     0.0313   0.0313   0.0313   0.0313   0.0313   0.0313   0.0313   0.0313
     0.0313   0.0313   0.0313   0.0313   0.0313   0.0313   0.0313   0.0313
     0.0313   0.0313   0.0313   0.0313   0.0313   0.0313   0.0313   0.0313
     0.0313   0.0313   0.0313   0.0313   0.0313   0.0312   0.0312   0.0312
     0.0309   0.0309   0.0308   0.0136   0.0136   0.0069   0.0001   0.0001
     0.0000   0.0000   0.0000   0.0000   0.0000   0.0000

          k = 0.7412 0.4280 0.0000 (  2204 PWs)   bands (ev):

   -19.7059 -19.6428  -6.6237  -6.4892  -6.0322  -5.7079  -5.5447  -5.4075
    -3.1147  -3.0376  -2.9964  -2.6148  -2.5973  -2.5141   6.0347   6.6207
     7.2759   7.4364   7.4480   7.5448   7.5787   7.8730   8.2139   8.3665
     8.6899   8.9894   9.6443   9.6719   9.7721   9.8395  10.0420  10.3846
    11.8681  11.8928  12.0189  12.1622  12.2114  12.4064  13.1086  13.9076
    14.0250  14.8271  16.7759  16.7877  17.6516  17.8659

     occupation numbers 
     0.0938   0.0938   0.0938   0.0938   0.0938   0.0938   0.0938   0.0938
     0.0938   0.0938   0.0938   0.0938   0.0938   0.0938   0.0938   0.0938
     0.0938   0.0938   0.0938   0.0938   0.0938   0.0938   0.0938   0.0938
     0.0938   0.0938   0.0938   0.0938   0.0938   0.0938   0.0937   0.0937
     0.0875   0.0864   0.0784   0.0642   0.0583   0.0335   0.0002   0.0000
     0.0000   0.0000   0.0000   0.0000   0.0000   0.0000

          k = 0.4942 0.2853 0.1027 (  2211 PWs)   bands (ev):

   -19.6971 -19.6487  -6.8661  -6.4317  -6.2159  -5.5636  -5.4954  -5.2057
    -3.2758  -3.1241  -2.9721  -2.5441  -2.4953  -2.3125   6.0598   6.3880
     7.0190   7.3157   7.3483   7.4606   7.7375   8.0501   8.2137   8.2360
     8.5953   9.2127   9.3481   9.5799   9.7331   9.8361  10.1962  10.5419
    11.6099  12.0471  12.1447  12.2124  12.2723  12.2870  13.1123  13.5164
    14.1707  14.9786  16.9600  16.9996  17.6629  17.9998

     occupation numbers 
     0.0938   0.0938   0.0938   0.0938   0.0938   0.0938   0.0938   0.0938
     0.0938   0.0938   0.0938   0.0938   0.0938   0.0938   0.0938   0.0938
     0.0938   0.0938   0.0938   0.0938   0.0938   0.0938   0.0938   0.0938
     0.0938   0.0938   0.0938   0.0938   0.0938   0.0938   0.0937   0.0937
     0.0930   0.0760   0.0662   0.0582   0.0506   0.0487   0.0002   0.0000
     0.0000   0.0000   0.0000   0.0000   0.0000   0.0000

          k = 0.7412-0.4280-0.3080 (  2210 PWs)   bands (ev):

   -19.6968 -19.6484  -6.8015  -6.3378  -6.1935  -5.6747  -5.6261  -5.3397
    -3.0220  -2.9945  -2.9208  -2.6700  -2.5505  -2.3642   6.1228   6.5439
     7.1021   7.2996   7.3980   7.4147   7.7560   8.0944   8.2367   8.2754
     8.5922   9.1784   9.1957   9.6819   9.7169   9.7760   9.8403  10.3811
    11.6600  12.0517  12.1306  12.1982  12.3070  12.3599  13.0749  13.4757
    14.1230  14.9452  17.1348  17.1450  17.6303  17.9650

     occupation numbers 
     0.0938   0.0938   0.0938   0.0938   0.0938   0.0938   0.0938   0.0938
     0.0938   0.0938   0.0938   0.0938   0.0938   0.0938   0.0938   0.0938
     0.0938   0.0938   0.0938   0.0938   0.0938   0.0938   0.0938   0.0938
     0.0938   0.0938   0.0938   0.0938   0.0938   0.0938   0.0938   0.0937
     0.0925   0.0756   0.0677   0.0599   0.0461   0.0393   0.0003   0.0000
     0.0000   0.0000   0.0000   0.0000   0.0000   0.0000

          k = 0.4942-0.5706-0.2053 (  2206 PWs)   bands (ev):

   -19.6855 -19.6567  -6.7795  -6.7692  -5.9256  -5.9227  -5.2796  -5.2783
    -3.1194  -3.1114  -2.7592  -2.7457  -2.3192  -2.3157   6.2353   6.2630
     7.1823   7.1904   7.3526   7.3634   7.5845   7.6000   8.4319   8.4746
     8.9362   8.9436   9.2408   9.2426   9.7122   9.7194  10.2780  10.2816
    11.8658  11.8751  12.0378  12.0796  12.3534  12.3774  13.1355  13.1546
    14.6578  14.6730  17.5119  17.5127  17.9255  17.9284

     occupation numbers 
     0.0938   0.0938   0.0938   0.0938   0.0938   0.0938   0.0938   0.0938
     0.0938   0.0938   0.0938   0.0938   0.0938   0.0938   0.0938   0.0938
     0.0938   0.0938   0.0938   0.0938   0.0938   0.0938   0.0938   0.0938
     0.0938   0.0938   0.0938   0.0938   0.0938   0.0938   0.0937   0.0937
     0.0876   0.0872   0.0768   0.0730   0.0401   0.0371   0.0002   0.0001
     0.0000   0.0000   0.0000   0.0000   0.0000   0.0000

          k = 0.0000 0.0000-0.6160 (  2186 PWs)   bands (ev):

   -19.6872 -19.6627  -6.4056  -6.3839  -5.8207  -5.8207  -5.8076  -5.8076
    -2.8296  -2.8296  -2.8121  -2.8121  -2.6751  -2.6547   6.3836   6.3920
     7.4368   7.4368   7.4811   7.4811   8.0044   8.0311   8.3192   8.3192
     8.3541   8.3541   9.8244   9.8244   9.8269   9.8269   9.8680   9.8772
    12.0857  12.1155  12.1155  12.1432  12.1676  12.1676  13.8852  13.8852
    13.9902  13.9902  17.1867  17.1867  17.2079  17.2079

     occupation numbers 
     0.0156   0.0156   0.0156   0.0156   0.0156   0.0156   0.0156   0.0156
     0.0156   0.0156   0.0156   0.0156   0.0156   0.0156   0.0156   0.0156
     0.0156   0.0156   0.0156   0.0156   0.0156   0.0156   0.0156   0.0156
     0.0156   0.0156   0.0156   0.0156   0.0156   0.0156   0.0156   0.0156
     0.0121   0.0116   0.0116   0.0111   0.0106   0.0106   0.0000   0.0000
     0.0000   0.0000   0.0000   0.0000   0.0000   0.0000

          k = 0.4942-0.5706 0.1027 (  2198 PWs)   bands (ev):

   -19.6971 -19.6487  -6.8501  -6.5362  -6.0211  -5.7704  -5.3690  -5.2331
    -3.2633  -3.2116  -2.8199  -2.6448  -2.4631  -2.3205   6.0318   6.4180
     7.0481   7.3184   7.4225   7.4658   7.7301   8.0088   8.1141   8.3069
     8.5455   9.0933   9.3396   9.5226   9.8597   9.9818  10.1394  10.5276
    11.6093  12.0265  12.0783  12.1926  12.3302  12.3410  13.1461  13.5065
    14.1265  14.9952  16.9754  17.1918  17.3836  18.0808

     occupation numbers 
     0.0938   0.0938   0.0938   0.0938   0.0938   0.0938   0.0938   0.0938
     0.0938   0.0938   0.0938   0.0938   0.0938   0.0938   0.0938   0.0938
     0.0938   0.0938   0.0938   0.0938   0.0938   0.0938   0.0938   0.0938
     0.0938   0.0938   0.0938   0.0938   0.0938   0.0937   0.0937   0.0937
     0.0930   0.0777   0.0731   0.0606   0.0431   0.0417   0.0002   0.0000
     0.0000   0.0000   0.0000   0.0000   0.0000   0.0000

     the Fermi energy is    12.3011 ev

!    total energy              =    -538.34143165 Ry
     Harris-Foulkes estimate   =    -538.34143165 Ry
     estimated scf accuracy    <          3.3E-09 Ry

     The total energy is the sum of the following terms:

     one-electron contribution =     -32.76097548 Ry
     hartree contribution      =      83.54517668 Ry
     xc contribution           =    -199.65653280 Ry
     ewald contribution        =    -389.44315552 Ry
     Hubbard energy            =       0.01396784 Ry
     smearing contrib. (-TS)   =      -0.03991237 Ry

     total magnetization       =     3.54 Bohr mag/cell
     absolute magnetization    =     3.69 Bohr mag/cell

     convergence has been achieved in   8 iterations

     init_run     :      7.76s CPU      7.88s WALL (       1 calls)
     electrons    :    210.94s CPU    213.06s WALL (       1 calls)

     Called by init_run:
     wfcinit      :      0.00s CPU      0.00s WALL (       1 calls)
     potinit      :      0.78s CPU      0.82s WALL (       1 calls)

     Called by electrons:
     c_bands      :    151.07s CPU    151.89s WALL (       8 calls)
     sum_band     :     38.09s CPU     38.51s WALL (       8 calls)
     v_of_rho     :      6.29s CPU      6.34s WALL (       9 calls)
     v_h          :      0.12s CPU      0.12s WALL (       9 calls)
     v_xc         :      6.17s CPU      6.22s WALL (       9 calls)
     newd         :     16.99s CPU     17.02s WALL (       9 calls)
     mix_rho      :      0.34s CPU      0.35s WALL (       8 calls)

     Called by c_bands:
     init_us_2    :      1.49s CPU      1.49s WALL (     448 calls)
     cegterg      :    146.85s CPU    147.36s WALL (     224 calls)

     Called by sum_band:
     sum_band:bec :      0.17s CPU      0.17s WALL (     224 calls)
     addusdens    :     15.07s CPU     15.12s WALL (       8 calls)

     Called by *egterg:
     h_psi        :    105.74s CPU    106.13s WALL (    1079 calls)
     s_psi        :      6.16s CPU      6.14s WALL (    1079 calls)
     g_psi        :      0.58s CPU      0.59s WALL (     855 calls)
     cdiaghg      :     14.37s CPU     14.39s WALL (    1051 calls)
     cegterg:over :      7.99s CPU      8.02s WALL (     855 calls)
     cegterg:upda :      5.15s CPU      5.14s WALL (     855 calls)
     cegterg:last :      3.05s CPU      3.06s WALL (     252 calls)

     Called by h_psi:
     h_psi:vloc   :     85.37s CPU     85.78s WALL (    1079 calls)
     h_psi:vnl    :     12.92s CPU     12.91s WALL (    1079 calls)
     add_vuspsi   :      6.20s CPU      6.20s WALL (    1079 calls)
     vhpsi        :      7.23s CPU      7.25s WALL (    1079 calls)

     General routines
     calbec       :     13.72s CPU     13.74s WALL (    2606 calls)
     fft          :      2.80s CPU      2.83s WALL (     267 calls)
     ffts         :      0.09s CPU      0.09s WALL (      34 calls)
     fftw         :     85.67s CPU     86.22s WALL (   66748 calls)
     interpolate  :      0.46s CPU      0.46s WALL (      34 calls)
     davcio       :      0.01s CPU      0.63s WALL (     476 calls)

     Parallel routines
     fft_scatter  :     22.15s CPU     22.68s WALL (   67049 calls)
     Hubbard U routines
     new_ns       :      1.24s CPU      1.51s WALL (       8 calls)
     vhpsi        :      7.23s CPU      7.25s WALL (    1079 calls)

     PWSCF        :  3m39.16s CPU     3m41.43s WALL


   This run was terminated on:  12:25:19  13Nov2012            

=------------------------------------------------------------------------------=
