   JOB DONE.
=------------------------------------------------------------------------------=

     Program PWSCF v.5.0.1 starts on 13Nov2012 at 12:30:46 

     This program is part of the open-source Quantum ESPRESSO suite
     for quantum simulation of materials; please cite
         "P. Giannozzi et al., J. Phys.:Condens. Matter 21 395502 (2009);
          URL http://www.quantum-espresso.org", 
     in publications or presentations arising from this work. More details at
     http://www.quantum-espresso.org/quote.php

     Parallel version (MPI), running on     2 processors
     R & G space division:  proc/pool =    2

     Current dimensions of program PWSCF are:
     Max number of different atomic species (ntypx) = 10
     Max number of k-points (npk) =  40000
     Max angular momentum in pseudopotentials (lmaxx) =  3
     Reading input from CoLaO_U0_a15.in
               file Co.pbe-nd-rrkjus.UPF: wavefunction(s)  4S 3D renormalized
               file O.pbe-rrkjus.UPF: wavefunction(s)  2S renormalized

     Subspace diagonalization in iterative solution of the eigenvalue problem:
     a serial algorithm will be used


     Parallelization info
     --------------------
     sticks:   dense  smooth     PW     G-vecs:    dense   smooth      PW
     Min        1112     444    131                34808     8786    1448
     Max        1113     445    132                34809     8787    1449
     Sum        2225     889    263                69617    17573    2897


     Title: 
     GGA + U, U = 1D-40, alpha = 0.150                                          


     bravais-lattice index     =            5
     lattice parameter (alat)  =      10.3292  a.u.
     unit-cell volume          =     793.0599 (a.u.)^3
     number of atoms/cell      =           10
     number of atomic types    =            4
     number of electrons       =        76.00
     number of Kohn-Sham states=           46
     kinetic-energy cutoff     =      30.0000  Ry
     charge density cutoff     =     300.0000  Ry
     convergence threshold     =      1.0E-08
     mixing beta               =       0.2000
     number of iterations used =            8  plain     mixing
     Exchange-correlation      =  SLA  PW   PBE  PBE ( 1 4 3 4 0)
     EXX-fraction              =        0.00

     celldm(1)=  10.329242  celldm(2)=   0.000000  celldm(3)=   0.000000
     celldm(4)=   0.488100  celldm(5)=   0.000000  celldm(6)=   0.000000

     crystal axes: (cart. coord. in units of alat)
               a(1) = (   0.505915  -0.292090   0.811624 )  
               a(2) = (   0.000000   0.584180   0.811624 )  
               a(3) = (  -0.505915  -0.292090   0.811624 )  

     reciprocal axes: (cart. coord. in units 2 pi/alat)
               b(1) = (  0.988308 -0.570600  0.410699 )  
               b(2) = (  0.000000  1.141200  0.410699 )  
               b(3) = ( -0.988308 -0.570600  0.410699 )  


     PseudoPot. # 1 for Co read from file:
     /home/mcurnan/dft-course/Project1/example_LaCoO3/Co.pbe-nd-rrkjus.UPF
     MD5 check sum: 3e47a84addf5e975e0edeaeee2a73f59
     Pseudo is Ultrasoft + core correction, Zval =  9.0
     Generated by new atomic code, or converted to UPF format
     Using radial grid of  961 points,  6 beta functions with: 
                l(1) =   0
                l(2) =   0
                l(3) =   1
                l(4) =   1
                l(5) =   2
                l(6) =   2
     Q(r) pseudized with 0 coefficients 


     PseudoPot. # 2 for La read from file:
     /home/mcurnan/dft-course/Project1/example_LaCoO3/La.pbe-nsp-van.UPF
     MD5 check sum: b2f11743f52dde65f77d1302becd7929
     Pseudo is Ultrasoft + core correction, Zval = 11.0
     Generated by new atomic code, or converted to UPF format
     Using radial grid of  907 points,  6 beta functions with: 
                l(1) =   0
                l(2) =   0
                l(3) =   1
                l(4) =   1
                l(5) =   2
                l(6) =   2
     Q(r) pseudized with  6 coefficients,  rinner =    1.200   1.200   1.200
                                                       1.200   1.200

     PseudoPot. # 3 for La read from file:
     /home/mcurnan/dft-course/Project1/example_LaCoO3/La.pbe-nsp-van.UPF
     MD5 check sum: b2f11743f52dde65f77d1302becd7929
     Pseudo is Ultrasoft + core correction, Zval = 11.0
     Generated by new atomic code, or converted to UPF format
     Using radial grid of  907 points,  6 beta functions with: 
                l(1) =   0
                l(2) =   0
                l(3) =   1
                l(4) =   1
                l(5) =   2
                l(6) =   2
     Q(r) pseudized with  6 coefficients,  rinner =    1.200   1.200   1.200
                                                       1.200   1.200

     PseudoPot. # 4 for O  read from file:
     /home/mcurnan/dft-course/Project1/example_LaCoO3/O.pbe-rrkjus.UPF
     MD5 check sum: 390ba29e75625707450f3bd3f0eb6be9
     Pseudo is Ultrasoft, Zval =  6.0
     Generated by new atomic code, or converted to UPF format
     Using radial grid of 1269 points,  4 beta functions with: 
                l(1) =   0
                l(2) =   0
                l(3) =   1
                l(4) =   1
     Q(r) pseudized with 0 coefficients 


     atomic species   valence    mass     pseudopotential
        Co1            9.00     1.00000     Co( 1.00)
        La1           11.00     1.00000     La( 1.00)
        La2           11.00     1.00000     La( 1.00)
        O1             6.00     1.00000     O ( 1.00)

     Starting magnetic structure 
     atomic species   magnetization
        Co1          1.000
        La1          0.000
        La2          0.000
        O1           0.000
 -----
     simplified LDA+U calculation, Hubbard_lmax = 2
     atomic species  L   Hubbard U  Hubbard alpha
        Co1          2    0.000000    0.000000
        La1          2    0.000000    0.150000
        La2          2    0.000000    0.000000
        O1           1    0.000000    0.000000
 -----

      3 Sym. Ops. (no inversion) found


                                    s                        frac. trans.

      isym =  1     identity                                     

 cryst.   s( 1) = (     1          0          0      )
                  (     0          1          0      )
                  (     0          0          1      )

 cart.    s( 1) = (  1.0000000  0.0000000  0.0000000 )
                  (  0.0000000  1.0000000  0.0000000 )
                  (  0.0000000  0.0000000  1.0000000 )


      isym =  2     120 deg rotation - cryst. axis [0,0,1]       

 cryst.   s( 2) = (     0          1          0      )
                  (     0          0          1      )
                  (     1          0          0      )

 cart.    s( 2) = ( -0.5000000 -0.8660254  0.0000000 )
                  (  0.8660254 -0.5000000  0.0000000 )
                  (  0.0000000  0.0000000  1.0000000 )


      isym =  3     120 deg rotation - cryst. axis [0,0,-1]      

 cryst.   s( 3) = (     0          0          1      )
                  (     1          0          0      )
                  (     0          1          0      )

 cart.    s( 3) = ( -0.5000000  0.8660254  0.0000000 )
                  ( -0.8660254 -0.5000000  0.0000000 )
                  (  0.0000000  0.0000000  1.0000000 )


     point group C_3 (3)    
     there are  3 classes
     the character table:

       E     C3    C3^2 
A      1.00  1.00  1.00
E      1.00 -0.50 -0.50
E*     1.00 -0.50 -0.50
     imaginary part
A      0.00  0.00  0.00
E      0.00  0.87 -0.87
E*     0.00 -0.87  0.87

     the symmetry operations in each class:
     E        1
     C3       2
     C3^2     3

   Cartesian axes

     site n.     atom                  positions (alat units)
         1           Co1 tau(   1) = (   0.0000000   0.0000000   1.8261537  )
         2           Co1 tau(   2) = (   0.0000000   0.0000000   0.6087179  )
         3           La1 tau(   3) = (   0.0000000   0.0000000   0.0000000  )
         4           La2 tau(   4) = (   0.0000000   0.0000000   1.2174358  )
         5           O1  tau(   5) = (   0.2831100  -0.0928263   1.6236536  )
         6           O1  tau(   6) = (  -0.2219449  -0.1987674   1.6236536  )
         7           O1  tau(   7) = (  -0.0611651   0.2915936   1.6236536  )
         8           O1  tau(   8) = (   0.2228050   0.3849164   1.2170300  )
         9           O1  tau(   9) = (   0.2219449  -0.3854130   1.2170300  )
        10           O1  tau(  10) = (  -0.4447499   0.0004966   1.2170300  )

   Crystallographic axes

     site n.     atom                  positions (cryst. coord.)
         1           Co1 tau(   1) = (  0.7500000  0.7500000  0.7500000  )
         2           Co1 tau(   2) = (  0.2500000  0.2500000  0.2500000  )
         3           La1 tau(   3) = (  0.0000000  0.0000000  0.0000000  )
         4           La2 tau(   4) = (  0.5000000  0.5000000  0.5000000  )
         5           O1  tau(   5) = (  0.9996000  0.5609000  0.4400000  )
         6           O1  tau(   6) = (  0.5609000  0.4400000  0.9996000  )
         7           O1  tau(   7) = (  0.4400000  0.9996000  0.5609000  )
         8           O1  tau(   8) = (  0.5004000  0.9391000  0.0600000  )
         9           O1  tau(   9) = (  0.9391000  0.0600000  0.5004000  )
        10           O1  tau(  10) = (  0.0600000  0.5004000  0.9391000  )

     number of k points=    28  gaussian smearing, width (Ry)=  0.0300
                       cart. coord. in units 2pi/alat
        k(    1) = (   0.0000000   0.0000000   0.0000000), wk =   0.0156250
        k(    2) = (  -0.2470771  -0.1426500   0.1026748), wk =   0.0937500
        k(    3) = (   0.4941541   0.2853000  -0.2053496), wk =   0.0468750
        k(    4) = (  -0.2470771   0.1426500   0.2053496), wk =   0.0937500
        k(    5) = (   0.4941541   0.5706001  -0.1026748), wk =   0.0937500
        k(    6) = (   0.2470771   0.4279500   0.0000000), wk =   0.0937500
        k(    7) = (   0.4941541  -0.2853000  -0.4106993), wk =   0.0468750
        k(    8) = (   0.0000000   0.0000000   0.3080244), wk =   0.0312500
        k(    9) = (   0.7412312   0.4279500   0.0000000), wk =   0.0937500
        k(   10) = (   0.4941541   0.2853000   0.1026748), wk =   0.0937500
        k(   11) = (   0.7412312  -0.4279500  -0.3080244), wk =   0.0937500
        k(   12) = (   0.4941541  -0.5706001  -0.2053496), wk =   0.0937500
        k(   13) = (   0.0000000   0.0000000  -0.6160489), wk =   0.0156250
        k(   14) = (   0.4941541  -0.5706001   0.1026748), wk =   0.0937500
        k(   15) = (   0.0000000   0.0000000   0.0000000), wk =   0.0156250
        k(   16) = (  -0.2470771  -0.1426500   0.1026748), wk =   0.0937500
        k(   17) = (   0.4941541   0.2853000  -0.2053496), wk =   0.0468750
        k(   18) = (  -0.2470771   0.1426500   0.2053496), wk =   0.0937500
        k(   19) = (   0.4941541   0.5706001  -0.1026748), wk =   0.0937500
        k(   20) = (   0.2470771   0.4279500   0.0000000), wk =   0.0937500
        k(   21) = (   0.4941541  -0.2853000  -0.4106993), wk =   0.0468750
        k(   22) = (   0.0000000   0.0000000   0.3080244), wk =   0.0312500
        k(   23) = (   0.7412312   0.4279500   0.0000000), wk =   0.0937500
        k(   24) = (   0.4941541   0.2853000   0.1026748), wk =   0.0937500
        k(   25) = (   0.7412312  -0.4279500  -0.3080244), wk =   0.0937500
        k(   26) = (   0.4941541  -0.5706001  -0.2053496), wk =   0.0937500
        k(   27) = (   0.0000000   0.0000000  -0.6160489), wk =   0.0156250
        k(   28) = (   0.4941541  -0.5706001   0.1026748), wk =   0.0937500

                       cryst. coord.
        k(    1) = (   0.0000000   0.0000000   0.0000000), wk =   0.0156250
        k(    2) = (   0.0000000   0.0000000   0.2500000), wk =   0.0937500
        k(    3) = (   0.0000000   0.0000000  -0.5000000), wk =   0.0468750
        k(    4) = (   0.0000000   0.2500000   0.2500000), wk =   0.0937500
        k(    5) = (   0.0000000   0.2500000  -0.5000000), wk =   0.0937500
        k(    6) = (   0.0000000   0.2500000  -0.2500000), wk =   0.0937500
        k(    7) = (   0.0000000  -0.5000000  -0.5000000), wk =   0.0468750
        k(    8) = (   0.2500000   0.2500000   0.2500000), wk =   0.0312500
        k(    9) = (   0.2500000   0.2500000  -0.5000000), wk =   0.0937500
        k(   10) = (   0.2500000   0.2500000  -0.2500000), wk =   0.0937500
        k(   11) = (   0.2500000  -0.5000000  -0.5000000), wk =   0.0937500
        k(   12) = (   0.2500000  -0.5000000  -0.2500000), wk =   0.0937500
        k(   13) = (  -0.5000000  -0.5000000  -0.5000000), wk =   0.0156250
        k(   14) = (   0.5000000  -0.2500000   0.0000000), wk =   0.0937500
        k(   15) = (   0.0000000   0.0000000   0.0000000), wk =   0.0156250
        k(   16) = (   0.0000000   0.0000000   0.2500000), wk =   0.0937500
        k(   17) = (   0.0000000   0.0000000  -0.5000000), wk =   0.0468750
        k(   18) = (   0.0000000   0.2500000   0.2500000), wk =   0.0937500
        k(   19) = (   0.0000000   0.2500000  -0.5000000), wk =   0.0937500
        k(   20) = (   0.0000000   0.2500000  -0.2500000), wk =   0.0937500
        k(   21) = (   0.0000000  -0.5000000  -0.5000000), wk =   0.0468750
        k(   22) = (   0.2500000   0.2500000   0.2500000), wk =   0.0312500
        k(   23) = (   0.2500000   0.2500000  -0.5000000), wk =   0.0937500
        k(   24) = (   0.2500000   0.2500000  -0.2500000), wk =   0.0937500
        k(   25) = (   0.2500000  -0.5000000  -0.5000000), wk =   0.0937500
        k(   26) = (   0.2500000  -0.5000000  -0.2500000), wk =   0.0937500
        k(   27) = (  -0.5000000  -0.5000000  -0.5000000), wk =   0.0156250
        k(   28) = (   0.5000000  -0.2500000   0.0000000), wk =   0.0937500

     Dense  grid:    69617 G-vectors     FFT dimensions: (  60,  60,  60)

     Smooth grid:    17573 G-vectors     FFT dimensions: (  40,  40,  40)

     Largest allocated arrays     est. size (Mb)     dimensions
        Kohn-Sham Wavefunctions         0.78 Mb     (   1117,   46)
        Atomic wavefunctions            1.06 Mb     (   1117,   62)
        NL pseudopotentials             2.05 Mb     (   1117,  120)
        Each V/rho on FFT grid          3.30 Mb     ( 108000,   2)
        Each G-vector array             0.27 Mb     (  34808)
        G-vector shells                 0.04 Mb     (   4682)
     Largest temporary arrays     est. size (Mb)     dimensions
        Auxiliary wavefunctions         3.14 Mb     (   1117,  184)
        Each subspace H/S matrix        0.52 Mb     ( 184, 184)
        Each <psi_i|beta_j> matrix      0.08 Mb     (    120,   46)
        Arrays for rho mixing          13.18 Mb     ( 108000,   8)

     Check: negative/imaginary core charge=   -0.000028    0.000000

     The initial density is read from file :
     /home/mcurnan/dft-course/Project1/example_LaCoO3/0/La/alpha/CoLaO_U0.save/charge-density.dat

 --- in v_hubbard ---
Hubbard energy    0.0421
 -------
     Number of +U iterations with fixed ns =  0
     Starting occupations:
 --- enter write_ns ---
 LDA+U parameters:
U( 1)     =  0.00000000
alpha( 1) =  0.00000000
U( 2)     =  0.00000000
alpha( 2) =  0.15000000
U( 3)     =  0.00000000
alpha( 3) =  0.00000000
U( 4)     =  0.00000000
alpha( 4) =  0.00000000
atom    1   Tr[ns(na)] (up, down, total) =   4.56594  3.37373  7.93967
   spin  1
    eigenvalues: 
  0.785  0.785  0.999  0.999  0.999
    eigenvectors:
  0.000  0.000  0.000  0.000  1.000
  0.423  0.223  0.056  0.298  0.000
  0.223  0.423  0.298  0.056  0.000
  0.346  0.008  0.556  0.090  0.000
  0.008  0.346  0.090  0.556  0.000
    occupations:
  0.999  0.000  0.000  0.000  0.000
  0.000  0.861  0.000 -0.073  0.072
  0.000  0.000  0.861  0.072  0.073
  0.000 -0.073  0.072  0.923  0.000
  0.000  0.072  0.073  0.000  0.923
   spin  2
    eigenvalues: 
  0.474  0.474  0.773  0.826  0.826
    eigenvectors:
  0.000  0.000  1.000  0.000  0.000
  0.277  0.362  0.000  0.034  0.327
  0.362  0.277  0.000  0.327  0.034
  0.278  0.083  0.000  0.476  0.163
  0.083  0.278  0.000  0.163  0.476
    occupations:
  0.773  0.000  0.000  0.000  0.000
  0.000  0.601  0.000 -0.037  0.165
  0.000  0.000  0.601  0.165  0.037
  0.000 -0.037  0.165  0.699  0.000
  0.000  0.165  0.037  0.000  0.699
atomic mag. moment =     1.192216
atom    2   Tr[ns(na)] (up, down, total) =   4.67286  3.22479  7.89766
   spin  1
    eigenvalues: 
  0.838  0.838  0.999  0.999  0.999
    eigenvectors:
  0.000  0.000  0.000  0.000  1.000
  0.643  0.003  0.325  0.029  0.000
  0.003  0.643  0.029  0.325  0.000
  0.152  0.202  0.500  0.146  0.000
  0.202  0.152  0.146  0.500  0.000
    occupations:
  0.999  0.000  0.000  0.000  0.000
  0.000  0.895  0.000  0.054  0.054
  0.000  0.000  0.895  0.054 -0.054
  0.000  0.054  0.054  0.942  0.000
  0.000  0.054 -0.054  0.000  0.942
   spin  2
    eigenvalues: 
  0.459  0.459  0.730  0.788  0.788
    eigenvectors:
  0.000  0.000  1.000  0.000  0.000
  0.508  0.128  0.000  0.189  0.175
  0.128  0.508  0.000  0.175  0.189
  0.020  0.345  0.000  0.447  0.188
  0.345  0.020  0.000  0.188  0.447
    occupations:
  0.730  0.000  0.000  0.000  0.000
  0.000  0.579  0.000  0.036  0.154
  0.000  0.000  0.579  0.154 -0.036
  0.000  0.036  0.154  0.668  0.000
  0.000  0.154 -0.036  0.000  0.668
atomic mag. moment =     1.448071
atom    3   Tr[ns(na)] (up, down, total) =   1.91458  1.90025  3.81482
   spin  1
    eigenvalues: 
  0.357  0.357  0.387  0.407  0.407
    eigenvectors:
  0.000  0.000  1.000  0.000  0.000
  0.786  0.138  0.000  0.011  0.065
  0.138  0.786  0.000  0.065  0.011
  0.012  0.064  0.000  0.785  0.139
  0.064  0.012  0.000  0.139  0.785
    occupations:
  0.387  0.000  0.000  0.000  0.000
  0.000  0.361  0.000  0.000  0.013
  0.000  0.000  0.361  0.013  0.000
  0.000  0.000  0.013  0.403  0.000
  0.000  0.013  0.000  0.000  0.403
   spin  2
    eigenvalues: 
  0.353  0.353  0.387  0.404  0.404
    eigenvectors:
  0.000  0.000  1.000  0.000  0.000
  0.765  0.145  0.000  0.013  0.077
  0.145  0.765  0.000  0.077  0.013
  0.015  0.074  0.000  0.768  0.142
  0.074  0.015  0.000  0.142  0.768
    occupations:
  0.387  0.000  0.000  0.000  0.000
  0.000  0.358  0.000  0.000  0.015
  0.000  0.000  0.358  0.015  0.000
  0.000  0.000  0.015  0.399  0.000
  0.000  0.015  0.000  0.000  0.399
atomic mag. moment =     0.014329
atom    4   Tr[ns(na)] (up, down, total) =   1.91458  1.90025  3.81482
   spin  1
    eigenvalues: 
  0.357  0.357  0.387  0.407  0.407
    eigenvectors:
  0.000  0.000  1.000  0.000  0.000
  0.786  0.138  0.000  0.011  0.065
  0.138  0.786  0.000  0.065  0.011
  0.012  0.064  0.000  0.785  0.139
  0.064  0.012  0.000  0.139  0.785
    occupations:
  0.387  0.000  0.000  0.000  0.000
  0.000  0.361  0.000  0.000  0.013
  0.000  0.000  0.361  0.013  0.000
  0.000  0.000  0.013  0.403  0.000
  0.000  0.013  0.000  0.000  0.403
   spin  2
    eigenvalues: 
  0.353  0.353  0.387  0.404  0.404
    eigenvectors:
  0.000  0.000  1.000  0.000  0.000
  0.765  0.145  0.000  0.013  0.077
  0.145  0.765  0.000  0.077  0.013
  0.015  0.074  0.000  0.768  0.142
  0.074  0.015  0.000  0.142  0.768
    occupations:
  0.387  0.000  0.000  0.000  0.000
  0.000  0.358  0.000  0.000  0.015
  0.000  0.000  0.358  0.015  0.000
  0.000  0.000  0.015  0.399  0.000
  0.000  0.015  0.000  0.000  0.399
atomic mag. moment =     0.014329
atom    5   Tr[ns(na)] (up, down, total) =   2.74225  2.70308  5.44533
   spin  1
    eigenvalues: 
  0.844  0.947  0.951
    eigenvectors:
  0.337  0.000  0.663
  0.508  0.244  0.248
  0.155  0.756  0.089
    occupations:
  0.915 -0.044  0.025
 -0.044  0.896  0.029
  0.025  0.029  0.932
   spin  2
    eigenvalues: 
  0.864  0.920  0.920
    eigenvectors:
  0.333  0.053  0.613
  0.514  0.100  0.386
  0.153  0.847  0.000
    occupations:
  0.901 -0.023  0.013
 -0.023  0.891  0.016
  0.013  0.016  0.911
atomic mag. moment =     0.039174
atom    6   Tr[ns(na)] (up, down, total) =   2.74225  2.70308  5.44533
   spin  1
    eigenvalues: 
  0.844  0.947  0.951
    eigenvectors:
  0.337  0.000  0.663
  0.487  0.256  0.257
  0.176  0.744  0.080
    occupations:
  0.915  0.044  0.026
  0.044  0.898 -0.030
  0.026 -0.030  0.929
   spin  2
    eigenvalues: 
  0.864  0.920  0.920
    eigenvectors:
  0.333  0.053  0.613
  0.486  0.408  0.106
  0.181  0.539  0.280
    occupations:
  0.901  0.022  0.014
  0.022  0.893 -0.016
  0.014 -0.016  0.910
atomic mag. moment =     0.039174
atom    7   Tr[ns(na)] (up, down, total) =   2.74225  2.70308  5.44533
   spin  1
    eigenvalues: 
  0.844  0.947  0.951
    eigenvectors:
  0.337  0.000  0.663
  0.000  1.000  0.000
  0.663  0.000  0.337
    occupations:
  0.915  0.001 -0.051
  0.001  0.947  0.001
 -0.051  0.001  0.880
   spin  2
    eigenvalues: 
  0.864  0.920  0.920
    eigenvectors:
  0.333  0.053  0.613
  0.000  0.912  0.087
  0.666  0.035  0.299
    occupations:
  0.901  0.001 -0.026
  0.001  0.920  0.001
 -0.026  0.001  0.883
atomic mag. moment =     0.039174
atom    8   Tr[ns(na)] (up, down, total) =   2.74225  2.70308  5.44533
   spin  1
    eigenvalues: 
  0.844  0.947  0.951
    eigenvectors:
  0.337  0.000  0.663
  0.508  0.244  0.248
  0.155  0.756  0.089
    occupations:
  0.915 -0.044  0.025
 -0.044  0.896  0.029
  0.025  0.029  0.932
   spin  2
    eigenvalues: 
  0.864  0.920  0.920
    eigenvectors:
  0.333  0.053  0.613
  0.514  0.100  0.386
  0.153  0.847  0.000
    occupations:
  0.901 -0.023  0.013
 -0.023  0.891  0.016
  0.013  0.016  0.911
atomic mag. moment =     0.039174
atom    9   Tr[ns(na)] (up, down, total) =   2.74225  2.70308  5.44533
   spin  1
    eigenvalues: 
  0.844  0.947  0.951
    eigenvectors:
  0.337  0.000  0.663
  0.487  0.256  0.257
  0.176  0.744  0.080
    occupations:
  0.915  0.044  0.026
  0.044  0.898 -0.030
  0.026 -0.030  0.929
   spin  2
    eigenvalues: 
  0.864  0.920  0.920
    eigenvectors:
  0.333  0.053  0.613
  0.486  0.408  0.106
  0.181  0.539  0.280
    occupations:
  0.901  0.022  0.014
  0.022  0.893 -0.016
  0.014 -0.016  0.910
atomic mag. moment =     0.039174
atom   10   Tr[ns(na)] (up, down, total) =   2.74225  2.70308  5.44533
   spin  1
    eigenvalues: 
  0.844  0.947  0.951
    eigenvectors:
  0.337  0.000  0.663
  0.000  1.000  0.000
  0.663  0.000  0.337
    occupations:
  0.915  0.001 -0.051
  0.001  0.947  0.001
 -0.051  0.001  0.880
   spin  2
    eigenvalues: 
  0.864  0.920  0.920
    eigenvectors:
  0.333  0.053  0.613
  0.000  0.912  0.087
  0.666  0.035  0.299
    occupations:
  0.901  0.001 -0.026
  0.001  0.920  0.001
 -0.026  0.001  0.883
atomic mag. moment =     0.039174
N of occupied +U levels =  56.1389484
 --- exit write_ns ---
 LDA+U Projector read from file 
     Starting wfc from file

     total cpu time spent up to now is        9.0 secs

     per-process dynamical memory:    67.0 Mb

     Self-consistent Calculation

     iteration #  1     ecut=    30.00 Ry     beta=0.20
     Davidson diagonalization with overlap
     c_bands:  1 eigenvalues not converged
     c_bands:  1 eigenvalues not converged
     c_bands:  1 eigenvalues not converged
     c_bands:  1 eigenvalues not converged
     c_bands:  1 eigenvalues not converged
     c_bands:  1 eigenvalues not converged
     c_bands:  1 eigenvalues not converged
     c_bands:  1 eigenvalues not converged
     c_bands:  1 eigenvalues not converged
     c_bands:  1 eigenvalues not converged
     c_bands:  1 eigenvalues not converged
     c_bands:  1 eigenvalues not converged
     c_bands:  1 eigenvalues not converged
     c_bands:  1 eigenvalues not converged
     c_bands:  1 eigenvalues not converged
     c_bands:  1 eigenvalues not converged
     c_bands:  1 eigenvalues not converged
     c_bands:  1 eigenvalues not converged
     c_bands:  1 eigenvalues not converged
     ethr =  1.00E-10,  avg # of iterations = 18.6
 --- enter write_ns ---
 LDA+U parameters:
U( 1)     =  0.00000000
alpha( 1) =  0.00000000
U( 2)     =  0.00000000
alpha( 2) =  0.15000000
U( 3)     =  0.00000000
alpha( 3) =  0.00000000
U( 4)     =  0.00000000
alpha( 4) =  0.00000000
atom    1   Tr[ns(na)] (up, down, total) =   4.56631  3.37561  7.94192
   spin  1
    eigenvalues: 
  0.785  0.785  0.999  0.999  0.999
    eigenvectors:
  0.000  0.000  0.000  0.000  1.000
  0.423  0.223  0.056  0.298  0.000
  0.223  0.423  0.298  0.056  0.000
  0.346  0.008  0.556  0.090  0.000
  0.008  0.346  0.090  0.556  0.000
    occupations:
  0.999  0.000  0.000  0.000  0.000
  0.000  0.861  0.000 -0.073  0.072
  0.000  0.000  0.861  0.072  0.073
  0.000 -0.073  0.072  0.923  0.000
  0.000  0.072  0.073  0.000  0.923
   spin  2
    eigenvalues: 
  0.475  0.475  0.773  0.827  0.827
    eigenvectors:
  0.000  0.000  1.000  0.000  0.000
  0.277  0.362  0.000  0.034  0.327
  0.362  0.277  0.000  0.327  0.034
  0.278  0.083  0.000  0.476  0.163
  0.083  0.278  0.000  0.163  0.476
    occupations:
  0.773  0.000  0.000  0.000  0.000
  0.000  0.602  0.000 -0.037  0.165
  0.000  0.000  0.602  0.165  0.037
  0.000 -0.037  0.165  0.699  0.000
  0.000  0.165  0.037  0.000  0.699
atomic mag. moment =     1.190695
atom    2   Tr[ns(na)] (up, down, total) =   4.67282  3.22497  7.89779
   spin  1
    eigenvalues: 
  0.838  0.838  0.999  0.999  0.999
    eigenvectors:
  0.000  0.000  0.000  0.000  1.000
  0.643  0.003  0.325  0.029  0.000
  0.003  0.643  0.029  0.325  0.000
  0.152  0.202  0.500  0.146  0.000
  0.202  0.152  0.146  0.500  0.000
    occupations:
  0.999  0.000  0.000  0.000  0.000
  0.000  0.895  0.000  0.054  0.054
  0.000  0.000  0.895  0.054 -0.054
  0.000  0.054  0.054  0.942  0.000
  0.000  0.054 -0.054  0.000  0.942
   spin  2
    eigenvalues: 
  0.460  0.460  0.730  0.788  0.788
    eigenvectors:
  0.000  0.000  1.000  0.000  0.000
  0.505  0.130  0.000  0.189  0.176
  0.130  0.505  0.000  0.176  0.189
  0.021  0.344  0.000  0.447  0.188
  0.344  0.021  0.000  0.188  0.447
    occupations:
  0.730  0.000  0.000  0.000  0.000
  0.000  0.579  0.000  0.036  0.154
  0.000  0.000  0.579  0.154 -0.036
  0.000  0.036  0.154  0.668  0.000
  0.000  0.154 -0.036  0.000  0.668
atomic mag. moment =     1.447849
atom    3   Tr[ns(na)] (up, down, total) =   1.88731  1.87286  3.76017
   spin  1
    eigenvalues: 
  0.351  0.351  0.382  0.402  0.402
    eigenvectors:
  0.000  0.000  1.000  0.000  0.000
  0.782  0.140  0.000  0.011  0.067
  0.140  0.782  0.000  0.067  0.011
  0.013  0.066  0.000  0.782  0.139
  0.066  0.013  0.000  0.139  0.782
    occupations:
  0.382  0.000  0.000  0.000  0.000
  0.000  0.355  0.000  0.000  0.014
  0.000  0.000  0.355  0.014  0.000
  0.000  0.000  0.014  0.398  0.000
  0.000  0.014  0.000  0.000  0.398
   spin  2
    eigenvalues: 
  0.347  0.347  0.382  0.399  0.399
    eigenvectors:
  0.000  0.000  1.000  0.000  0.000
  0.760  0.147  0.000  0.014  0.079
  0.147  0.760  0.000  0.079  0.014
  0.016  0.077  0.000  0.764  0.143
  0.077  0.016  0.000  0.143  0.764
    occupations:
  0.382  0.000  0.000  0.000  0.000
  0.000  0.352  0.000  0.000  0.015
  0.000  0.000  0.352  0.015  0.000
  0.000  0.000  0.015  0.394  0.000
  0.000  0.015  0.000  0.000  0.394
atomic mag. moment =     0.014446
atom    4   Tr[ns(na)] (up, down, total) =   1.91335  1.89898  3.81233
   spin  1
    eigenvalues: 
  0.357  0.357  0.386  0.407  0.407
    eigenvectors:
  0.000  0.000  1.000  0.000  0.000
  0.786  0.138  0.000  0.011  0.065
  0.138  0.786  0.000  0.065  0.011
  0.012  0.064  0.000  0.785  0.139
  0.064  0.012  0.000  0.139  0.785
    occupations:
  0.386  0.000  0.000  0.000  0.000
  0.000  0.361  0.000  0.000  0.013
  0.000  0.000  0.361  0.013  0.000
  0.000  0.000  0.013  0.403  0.000
  0.000  0.013  0.000  0.000  0.403
   spin  2
    eigenvalues: 
  0.353  0.353  0.387  0.404  0.404
    eigenvectors:
  0.000  0.000  1.000  0.000  0.000
  0.764  0.146  0.000  0.013  0.077
  0.146  0.764  0.000  0.077  0.013
  0.016  0.075  0.000  0.767  0.142
  0.075  0.016  0.000  0.142  0.767
    occupations:
  0.387  0.000  0.000  0.000  0.000
  0.000  0.357  0.000  0.000  0.015
  0.000  0.000  0.357  0.015  0.000
  0.000  0.000  0.015  0.399  0.000
  0.000  0.015  0.000  0.000  0.399
atomic mag. moment =     0.014369
atom    5   Tr[ns(na)] (up, down, total) =   2.74420  2.70469  5.44890
   spin  1
    eigenvalues: 
  0.844  0.949  0.952
    eigenvectors:
  0.337  0.000  0.663
  0.508  0.245  0.248
  0.156  0.755  0.089
    occupations:
  0.915 -0.045  0.025
 -0.045  0.896  0.029
  0.025  0.029  0.933
   spin  2
    eigenvalues: 
  0.864  0.920  0.921
    eigenvectors:
  0.333  0.663  0.003
  0.514  0.222  0.264
  0.153  0.115  0.732
    occupations:
  0.901 -0.023  0.013
 -0.023  0.891  0.016
  0.013  0.016  0.912
atomic mag. moment =     0.039512
atom    6   Tr[ns(na)] (up, down, total) =   2.74420  2.70469  5.44890
   spin  1
    eigenvalues: 
  0.844  0.949  0.952
    eigenvectors:
  0.337  0.000  0.663
  0.487  0.255  0.258
  0.176  0.744  0.079
    occupations:
  0.915  0.044  0.026
  0.044  0.898 -0.030
  0.026 -0.030  0.930
   spin  2
    eigenvalues: 
  0.864  0.920  0.921
    eigenvectors:
  0.333  0.663  0.003
  0.486  0.280  0.234
  0.181  0.057  0.762
    occupations:
  0.901  0.023  0.014
  0.023  0.893 -0.017
  0.014 -0.017  0.910
atomic mag. moment =     0.039512
atom    7   Tr[ns(na)] (up, down, total) =   2.74420  2.70469  5.44890
   spin  1
    eigenvalues: 
  0.844  0.949  0.952
    eigenvectors:
  0.337  0.000  0.663
  0.000  1.000  0.000
  0.663  0.000  0.337
    occupations:
  0.915  0.001 -0.051
  0.001  0.949  0.001
 -0.051  0.001  0.880
   spin  2
    eigenvalues: 
  0.864  0.920  0.921
    eigenvectors:
  0.333  0.663  0.003
  0.000  0.003  0.996
  0.666  0.333  0.000
    occupations:
  0.901  0.001 -0.026
  0.001  0.921  0.001
 -0.026  0.001  0.883
atomic mag. moment =     0.039512
atom    8   Tr[ns(na)] (up, down, total) =   2.74398  2.70460  5.44858
   spin  1
    eigenvalues: 
  0.844  0.948  0.952
    eigenvectors:
  0.337  0.000  0.663
  0.508  0.243  0.249
  0.155  0.757  0.088
    occupations:
  0.916 -0.045  0.025
 -0.045  0.896  0.028
  0.025  0.028  0.932
   spin  2
    eigenvalues: 
  0.864  0.920  0.921
    eigenvectors:
  0.333  0.000  0.667
  0.514  0.224  0.262
  0.153  0.776  0.072
    occupations:
  0.902 -0.023  0.013
 -0.023  0.891  0.015
  0.013  0.015  0.911
atomic mag. moment =     0.039384
atom    9   Tr[ns(na)] (up, down, total) =   2.74398  2.70460  5.44858
   spin  1
    eigenvalues: 
  0.844  0.948  0.952
    eigenvectors:
  0.337  0.000  0.663
  0.487  0.257  0.256
  0.176  0.743  0.081
    occupations:
  0.916  0.044  0.026
  0.044  0.898 -0.030
  0.026 -0.030  0.930
   spin  2
    eigenvalues: 
  0.864  0.920  0.921
    eigenvectors:
  0.333  0.000  0.667
  0.486  0.276  0.238
  0.181  0.723  0.096
    occupations:
  0.902  0.023  0.014
  0.023  0.893 -0.016
  0.014 -0.016  0.910
atomic mag. moment =     0.039384
atom   10   Tr[ns(na)] (up, down, total) =   2.74398  2.70460  5.44858
   spin  1
    eigenvalues: 
  0.844  0.948  0.952
    eigenvectors:
  0.337  0.000  0.663
  0.000  1.000  0.000
  0.663  0.000  0.337
    occupations:
  0.916  0.001 -0.051
  0.001  0.948  0.001
 -0.051  0.001  0.880
   spin  2
    eigenvalues: 
  0.864  0.920  0.921
    eigenvectors:
  0.333  0.000  0.667
  0.000  0.999  0.001
  0.666  0.001  0.333
    occupations:
  0.902  0.001 -0.027
  0.001  0.920  0.001
 -0.027  0.001  0.883
atomic mag. moment =     0.039384
N of occupied +U levels =  56.1046445
 --- exit write_ns ---
 --- in v_hubbard ---
Hubbard energy    0.0419
 -------

     total cpu time spent up to now is       87.3 secs

     total energy              =    -538.31360628 Ry
     Harris-Foulkes estimate   =    -538.31366951 Ry
     estimated scf accuracy    <       0.00020874 Ry

     total magnetization       =     3.54 Bohr mag/cell
     absolute magnetization    =     3.69 Bohr mag/cell

     iteration #  2     ecut=    30.00 Ry     beta=0.20
     Davidson diagonalization with overlap
     ethr =  2.75E-07,  avg # of iterations =  1.1
 --- enter write_ns ---
 LDA+U parameters:
U( 1)     =  0.00000000
alpha( 1) =  0.00000000
U( 2)     =  0.00000000
alpha( 2) =  0.15000000
U( 3)     =  0.00000000
alpha( 3) =  0.00000000
U( 4)     =  0.00000000
alpha( 4) =  0.00000000
atom    1   Tr[ns(na)] (up, down, total) =   4.56474  3.36891  7.93365
   spin  1
    eigenvalues: 
  0.784  0.784  0.999  0.999  0.999
    eigenvectors:
  0.000  0.000  0.000  0.000  1.000
  0.423  0.223  0.056  0.298  0.000
  0.223  0.423  0.298  0.056  0.000
  0.346  0.008  0.556  0.090  0.000
  0.008  0.346  0.090  0.556  0.000
    occupations:
  0.999  0.000  0.000  0.000  0.000
  0.000  0.860  0.000 -0.073  0.072
  0.000  0.000  0.860  0.072  0.073
  0.000 -0.073  0.072  0.923  0.000
  0.000  0.072  0.073  0.000  0.923
   spin  2
    eigenvalues: 
  0.474  0.474  0.771  0.825  0.825
    eigenvectors:
  0.000  0.000  1.000  0.000  0.000
  0.276  0.363  0.000  0.034  0.327
  0.363  0.276  0.000  0.327  0.034
  0.278  0.083  0.000  0.476  0.163
  0.083  0.278  0.000  0.163  0.476
    occupations:
  0.771  0.000  0.000  0.000  0.000
  0.000  0.601  0.000 -0.036  0.164
  0.000  0.000  0.601  0.164  0.036
  0.000 -0.036  0.164  0.698  0.000
  0.000  0.164  0.036  0.000  0.698
atomic mag. moment =     1.195834
atom    2   Tr[ns(na)] (up, down, total) =   4.67419  3.23355  7.90775
   spin  1
    eigenvalues: 
  0.839  0.839  0.999  0.999  0.999
    eigenvectors:
  0.000  0.000  0.000  0.000  1.000
  0.643  0.003  0.325  0.029  0.000
  0.003  0.643  0.029  0.325  0.000
  0.152  0.202  0.500  0.146  0.000
  0.202  0.152  0.146  0.500  0.000
    occupations:
  0.999  0.000  0.000  0.000  0.000
  0.000  0.895  0.000  0.054  0.054
  0.000  0.000  0.895  0.054 -0.054
  0.000  0.054  0.054  0.942  0.000
  0.000  0.054 -0.054  0.000  0.942
   spin  2
    eigenvalues: 
  0.460  0.460  0.732  0.790  0.790
    eigenvectors:
  0.000  0.000  1.000  0.000  0.000
  0.509  0.126  0.000  0.190  0.175
  0.126  0.509  0.000  0.175  0.190
  0.019  0.345  0.000  0.447  0.188
  0.345  0.019  0.000  0.188  0.447
    occupations:
  0.732  0.000  0.000  0.000  0.000
  0.000  0.581  0.000  0.036  0.155
  0.000  0.000  0.581  0.155 -0.036
  0.000  0.036  0.155  0.670  0.000
  0.000  0.155 -0.036  0.000  0.670
atomic mag. moment =     1.440638
atom    3   Tr[ns(na)] (up, down, total) =   1.89006  1.87562  3.76568
   spin  1
    eigenvalues: 
  0.352  0.352  0.382  0.402  0.402
    eigenvectors:
  0.000  0.000  1.000  0.000  0.000
  0.783  0.139  0.000  0.011  0.067
  0.139  0.783  0.000  0.067  0.011
  0.012  0.066  0.000  0.783  0.139
  0.066  0.012  0.000  0.139  0.783
    occupations:
  0.382  0.000  0.000  0.000  0.000
  0.000  0.356  0.000  0.000  0.014
  0.000  0.000  0.356  0.014  0.000
  0.000  0.000  0.014  0.398  0.000
  0.000  0.014  0.000  0.000  0.398
   spin  2
    eigenvalues: 
  0.348  0.348  0.382  0.399  0.399
    eigenvectors:
  0.000  0.000  1.000  0.000  0.000
  0.761  0.146  0.000  0.013  0.079
  0.146  0.761  0.000  0.079  0.013
  0.016  0.076  0.000  0.765  0.143
  0.076  0.016  0.000  0.143  0.765
    occupations:
  0.382  0.000  0.000  0.000  0.000
  0.000  0.352  0.000  0.000  0.015
  0.000  0.000  0.352  0.015  0.000
  0.000  0.000  0.015  0.394  0.000
  0.000  0.015  0.000  0.000  0.394
atomic mag. moment =     0.014440
atom    4   Tr[ns(na)] (up, down, total) =   1.91445  1.90009  3.81454
   spin  1
    eigenvalues: 
  0.357  0.357  0.387  0.407  0.407
    eigenvectors:
  0.000  0.000  1.000  0.000  0.000
  0.786  0.138  0.000  0.011  0.065
  0.138  0.786  0.000  0.065  0.011
  0.012  0.064  0.000  0.786  0.139
  0.064  0.012  0.000  0.139  0.786
    occupations:
  0.387  0.000  0.000  0.000  0.000
  0.000  0.361  0.000  0.000  0.013
  0.000  0.000  0.361  0.013  0.000
  0.000  0.000  0.013  0.403  0.000
  0.000  0.013  0.000  0.000  0.403
   spin  2
    eigenvalues: 
  0.353  0.353  0.387  0.404  0.404
    eigenvectors:
  0.000  0.000  1.000  0.000  0.000
  0.765  0.146  0.000  0.013  0.077
  0.146  0.765  0.000  0.077  0.013
  0.015  0.074  0.000  0.767  0.143
  0.074  0.015  0.000  0.143  0.767
    occupations:
  0.387  0.000  0.000  0.000  0.000
  0.000  0.358  0.000  0.000  0.015
  0.000  0.000  0.358  0.015  0.000
  0.000  0.000  0.015  0.399  0.000
  0.000  0.015  0.000  0.000  0.399
atomic mag. moment =     0.014365
atom    5   Tr[ns(na)] (up, down, total) =   2.74358  2.70409  5.44767
   spin  1
    eigenvalues: 
  0.844  0.948  0.952
    eigenvectors:
  0.337  0.000  0.663
  0.508  0.244  0.248
  0.155  0.755  0.089
    occupations:
  0.915 -0.045  0.025
 -0.045  0.896  0.029
  0.025  0.029  0.932
   spin  2
    eigenvalues: 
  0.864  0.920  0.920
    eigenvectors:
  0.333  0.664  0.003
  0.513  0.226  0.262
  0.154  0.110  0.736
    occupations:
  0.901 -0.023  0.013
 -0.023  0.891  0.016
  0.013  0.016  0.912
atomic mag. moment =     0.039497
atom    6   Tr[ns(na)] (up, down, total) =   2.74358  2.70409  5.44767
   spin  1
    eigenvalues: 
  0.844  0.948  0.952
    eigenvectors:
  0.337  0.000  0.663
  0.487  0.256  0.258
  0.177  0.744  0.079
    occupations:
  0.915  0.044  0.026
  0.044  0.898 -0.030
  0.026 -0.030  0.930
   spin  2
    eigenvalues: 
  0.864  0.920  0.920
    eigenvectors:
  0.333  0.664  0.003
  0.487  0.276  0.237
  0.180  0.060  0.760
    occupations:
  0.901  0.023  0.014
  0.023  0.893 -0.017
  0.014 -0.017  0.910
atomic mag. moment =     0.039497
atom    7   Tr[ns(na)] (up, down, total) =   2.74358  2.70409  5.44767
   spin  1
    eigenvalues: 
  0.844  0.948  0.952
    eigenvectors:
  0.337  0.000  0.663
  0.000  1.000  0.000
  0.663  0.000  0.337
    occupations:
  0.915  0.001 -0.051
  0.001  0.948  0.001
 -0.051  0.001  0.880
   spin  2
    eigenvalues: 
  0.864  0.920  0.920
    eigenvectors:
  0.333  0.664  0.003
  0.000  0.003  0.997
  0.666  0.334  0.000
    occupations:
  0.901  0.001 -0.026
  0.001  0.920  0.001
 -0.026  0.001  0.883
atomic mag. moment =     0.039497
atom    8   Tr[ns(na)] (up, down, total) =   2.74350  2.70414  5.44764
   spin  1
    eigenvalues: 
  0.844  0.948  0.952
    eigenvectors:
  0.337  0.000  0.663
  0.508  0.243  0.249
  0.155  0.757  0.088
    occupations:
  0.916 -0.045  0.025
 -0.045  0.896  0.028
  0.025  0.028  0.932
   spin  2
    eigenvalues: 
  0.864  0.920  0.921
    eigenvectors:
  0.333  0.000  0.667
  0.513  0.226  0.262
  0.154  0.774  0.072
    occupations:
  0.902 -0.023  0.013
 -0.023  0.891  0.016
  0.013  0.016  0.911
atomic mag. moment =     0.039361
atom    9   Tr[ns(na)] (up, down, total) =   2.74350  2.70414  5.44764
   spin  1
    eigenvalues: 
  0.844  0.948  0.952
    eigenvectors:
  0.337  0.000  0.663
  0.487  0.257  0.256
  0.177  0.743  0.081
    occupations:
  0.916  0.044  0.026
  0.044  0.898 -0.030
  0.026 -0.030  0.930
   spin  2
    eigenvalues: 
  0.864  0.920  0.921
    eigenvectors:
  0.333  0.000  0.667
  0.487  0.275  0.238
  0.180  0.725  0.095
    occupations:
  0.902  0.023  0.014
  0.023  0.893 -0.016
  0.014 -0.016  0.910
atomic mag. moment =     0.039361
atom   10   Tr[ns(na)] (up, down, total) =   2.74350  2.70414  5.44764
   spin  1
    eigenvalues: 
  0.844  0.948  0.952
    eigenvectors:
  0.337  0.000  0.663
  0.000  1.000  0.000
  0.663  0.000  0.337
    occupations:
  0.916  0.001 -0.051
  0.001  0.948  0.001
 -0.051  0.001  0.880
   spin  2
    eigenvalues: 
  0.864  0.920  0.921
    eigenvectors:
  0.333  0.000  0.667
  0.000  0.999  0.001
  0.666  0.001  0.333
    occupations:
  0.902  0.001 -0.027
  0.001  0.920  0.001
 -0.027  0.001  0.883
atomic mag. moment =     0.039361
N of occupied +U levels =  56.1075506
 --- exit write_ns ---
 --- in v_hubbard ---
Hubbard energy    0.0419
 -------

     total cpu time spent up to now is      109.9 secs

     total energy              =    -538.31358569 Ry
     Harris-Foulkes estimate   =    -538.31362001 Ry
     estimated scf accuracy    <       0.00018458 Ry

     total magnetization       =     3.54 Bohr mag/cell
     absolute magnetization    =     3.69 Bohr mag/cell

     iteration #  3     ecut=    30.00 Ry     beta=0.20
     Davidson diagonalization with overlap
     ethr =  2.43E-07,  avg # of iterations =  1.0
 --- enter write_ns ---
 LDA+U parameters:
U( 1)     =  0.00000000
alpha( 1) =  0.00000000
U( 2)     =  0.00000000
alpha( 2) =  0.15000000
U( 3)     =  0.00000000
alpha( 3) =  0.00000000
U( 4)     =  0.00000000
alpha( 4) =  0.00000000
atom    1   Tr[ns(na)] (up, down, total) =   4.57134  3.39973  7.97108
   spin  1
    eigenvalues: 
  0.788  0.788  0.999  0.999  0.999
    eigenvectors:
  0.000  0.000  0.000  0.000  1.000
  0.423  0.223  0.056  0.298  0.000
  0.223  0.423  0.298  0.056  0.000
  0.346  0.008  0.556  0.090  0.000
  0.008  0.346  0.090  0.556  0.000
    occupations:
  0.999  0.000  0.000  0.000  0.000
  0.000  0.862  0.000 -0.072  0.071
  0.000  0.000  0.862  0.071  0.072
  0.000 -0.072  0.071  0.924  0.000
  0.000  0.071  0.072  0.000  0.924
   spin  2
    eigenvalues: 
  0.476  0.476  0.781  0.833  0.833
    eigenvectors:
  0.000  0.000  1.000  0.000  0.000
  0.277  0.362  0.000  0.033  0.328
  0.362  0.277  0.000  0.328  0.033
  0.279  0.082  0.000  0.477  0.163
  0.082  0.279  0.000  0.163  0.477
    occupations:
  0.781  0.000  0.000  0.000  0.000
  0.000  0.605  0.000 -0.038  0.167
  0.000  0.000  0.605  0.167  0.038
  0.000 -0.038  0.167  0.704  0.000
  0.000  0.167  0.038  0.000  0.704
atomic mag. moment =     1.171609
atom    2   Tr[ns(na)] (up, down, total) =   4.66794  3.20185  7.86979
   spin  1
    eigenvalues: 
  0.836  0.836  0.999  0.999  0.999
    eigenvectors:
  0.000  0.000  0.000  0.000  1.000
  0.643  0.003  0.325  0.029  0.000
  0.003  0.643  0.029  0.325  0.000
  0.152  0.202  0.499  0.147  0.000
  0.202  0.152  0.147  0.499  0.000
    occupations:
  0.999  0.000  0.000  0.000  0.000
  0.000  0.893  0.000  0.055  0.055
  0.000  0.000  0.893  0.055 -0.055
  0.000  0.055  0.055  0.941  0.000
  0.000  0.055 -0.055  0.000  0.941
   spin  2
    eigenvalues: 
  0.459  0.459  0.722  0.781  0.781
    eigenvectors:
  0.000  0.000  1.000  0.000  0.000
  0.498  0.137  0.000  0.188  0.177
  0.137  0.498  0.000  0.177  0.188
  0.024  0.341  0.000  0.447  0.188
  0.341  0.024  0.000  0.188  0.447
    occupations:
  0.722  0.000  0.000  0.000  0.000
  0.000  0.576  0.000  0.034  0.151
  0.000  0.000  0.576  0.151 -0.034
  0.000  0.034  0.151  0.664  0.000
  0.000  0.151 -0.034  0.000  0.664
atomic mag. moment =     1.466086
atom    3   Tr[ns(na)] (up, down, total) =   1.89087  1.87647  3.76734
   spin  1
    eigenvalues: 
  0.352  0.352  0.382  0.402  0.402
    eigenvectors:
  0.000  0.000  1.000  0.000  0.000
  0.782  0.140  0.000  0.011  0.067
  0.140  0.782  0.000  0.067  0.011
  0.012  0.066  0.000  0.783  0.139
  0.066  0.012  0.000  0.139  0.783
    occupations:
  0.382  0.000  0.000  0.000  0.000
  0.000  0.356  0.000  0.000  0.014
  0.000  0.000  0.356  0.014  0.000
  0.000  0.000  0.014  0.398  0.000
  0.000  0.014  0.000  0.000  0.398
   spin  2
    eigenvalues: 
  0.348  0.348  0.382  0.399  0.399
    eigenvectors:
  0.000  0.000  1.000  0.000  0.000
  0.762  0.146  0.000  0.013  0.079
  0.146  0.762  0.000  0.079  0.013
  0.016  0.076  0.000  0.765  0.143
  0.076  0.016  0.000  0.143  0.765
    occupations:
  0.382  0.000  0.000  0.000  0.000
  0.000  0.353  0.000  0.000  0.015
  0.000  0.000  0.353  0.015  0.000
  0.000  0.000  0.015  0.395  0.000
  0.000  0.015  0.000  0.000  0.395
atomic mag. moment =     0.014404
atom    4   Tr[ns(na)] (up, down, total) =   1.91478  1.90045  3.81523
   spin  1
    eigenvalues: 
  0.357  0.357  0.387  0.407  0.407
    eigenvectors:
  0.000  0.000  1.000  0.000  0.000
  0.786  0.138  0.000  0.011  0.065
  0.138  0.786  0.000  0.065  0.011
  0.012  0.064  0.000  0.785  0.139
  0.064  0.012  0.000  0.139  0.785
    occupations:
  0.387  0.000  0.000  0.000  0.000
  0.000  0.361  0.000  0.000  0.013
  0.000  0.000  0.361  0.013  0.000
  0.000  0.000  0.013  0.403  0.000
  0.000  0.013  0.000  0.000  0.403
   spin  2
    eigenvalues: 
  0.353  0.353  0.387  0.404  0.404
    eigenvectors:
  0.000  0.000  1.000  0.000  0.000
  0.765  0.145  0.000  0.013  0.077
  0.145  0.765  0.000  0.077  0.013
  0.016  0.074  0.000  0.768  0.142
  0.074  0.016  0.000  0.142  0.768
    occupations:
  0.387  0.000  0.000  0.000  0.000
  0.000  0.358  0.000  0.000  0.015
  0.000  0.000  0.358  0.015  0.000
  0.000  0.000  0.015  0.399  0.000
  0.000  0.015  0.000  0.000  0.399
atomic mag. moment =     0.014327
atom    5   Tr[ns(na)] (up, down, total) =   2.74335  2.70409  5.44744
   spin  1
    eigenvalues: 
  0.844  0.948  0.952
    eigenvectors:
  0.337  0.000  0.663
  0.507  0.245  0.248
  0.156  0.755  0.089
    occupations:
  0.915 -0.045  0.025
 -0.045  0.896  0.029
  0.025  0.029  0.932
   spin  2
    eigenvalues: 
  0.864  0.920  0.920
    eigenvectors:
  0.333  0.660  0.006
  0.517  0.212  0.271
  0.150  0.127  0.723
    occupations:
  0.901 -0.023  0.012
 -0.023  0.891  0.016
  0.012  0.016  0.912
atomic mag. moment =     0.039254
atom    6   Tr[ns(na)] (up, down, total) =   2.74335  2.70409  5.44744
   spin  1
    eigenvalues: 
  0.844  0.948  0.952
    eigenvectors:
  0.337  0.000  0.663
  0.488  0.255  0.257
  0.175  0.745  0.080
    occupations:
  0.915  0.044  0.026
  0.044  0.898 -0.030
  0.026 -0.030  0.930
   spin  2
    eigenvalues: 
  0.864  0.920  0.920
    eigenvectors:
  0.333  0.660  0.006
  0.483  0.291  0.226
  0.184  0.049  0.768
    occupations:
  0.901  0.022  0.014
  0.022  0.893 -0.017
  0.014 -0.017  0.910
atomic mag. moment =     0.039254
atom    7   Tr[ns(na)] (up, down, total) =   2.74335  2.70409  5.44744
   spin  1
    eigenvalues: 
  0.844  0.948  0.952
    eigenvectors:
  0.337  0.000  0.663
  0.000  1.000  0.000
  0.663  0.000  0.337
    occupations:
  0.915  0.001 -0.051
  0.001  0.948  0.001
 -0.051  0.001  0.880
   spin  2
    eigenvalues: 
  0.864  0.920  0.920
    eigenvectors:
  0.333  0.660  0.006
  0.001  0.006  0.993
  0.666  0.333  0.001
    occupations:
  0.901  0.001 -0.026
  0.001  0.920  0.001
 -0.026  0.001  0.883
atomic mag. moment =     0.039254
atom    8   Tr[ns(na)] (up, down, total) =   2.74327  2.70415  5.44742
   spin  1
    eigenvalues: 
  0.844  0.947  0.952
    eigenvectors:
  0.337  0.000  0.663
  0.507  0.244  0.249
  0.156  0.756  0.088
    occupations:
  0.916 -0.045  0.025
 -0.045  0.896  0.029
  0.025  0.029  0.932
   spin  2
    eigenvalues: 
  0.864  0.920  0.921
    eigenvectors:
  0.333  0.000  0.667
  0.517  0.216  0.267
  0.150  0.784  0.067
    occupations:
  0.902 -0.024  0.013
 -0.024  0.891  0.015
  0.013  0.015  0.911
atomic mag. moment =     0.039119
atom    9   Tr[ns(na)] (up, down, total) =   2.74327  2.70415  5.44742
   spin  1
    eigenvalues: 
  0.844  0.947  0.952
    eigenvectors:
  0.337  0.000  0.663
  0.488  0.256  0.256
  0.175  0.744  0.081
    occupations:
  0.916  0.044  0.026
  0.044  0.898 -0.030
  0.026 -0.030  0.930
   spin  2
    eigenvalues: 
  0.864  0.920  0.921
    eigenvectors:
  0.333  0.000  0.667
  0.483  0.285  0.232
  0.184  0.715  0.101
    occupations:
  0.902  0.023  0.014
  0.023  0.893 -0.016
  0.014 -0.016  0.909
atomic mag. moment =     0.039119
atom   10   Tr[ns(na)] (up, down, total) =   2.74327  2.70415  5.44742
   spin  1
    eigenvalues: 
  0.844  0.947  0.952
    eigenvectors:
  0.337  0.000  0.663
  0.000  1.000  0.000
  0.663  0.000  0.337
    occupations:
  0.916  0.001 -0.051
  0.001  0.947  0.001
 -0.051  0.001  0.880
   spin  2
    eigenvalues: 
  0.864  0.920  0.921
    eigenvectors:
  0.333  0.000  0.667
  0.001  0.998  0.001
  0.666  0.002  0.332
    occupations:
  0.902  0.001 -0.027
  0.001  0.920  0.001
 -0.027  0.001  0.883
atomic mag. moment =     0.039119
N of occupied +U levels =  56.1080178
 --- exit write_ns ---
 --- in v_hubbard ---
Hubbard energy    0.0418
 -------

     total cpu time spent up to now is      132.5 secs

     total energy              =    -538.31355565 Ry
     Harris-Foulkes estimate   =    -538.31364701 Ry
     estimated scf accuracy    <       0.00176114 Ry

     total magnetization       =     3.54 Bohr mag/cell
     absolute magnetization    =     3.69 Bohr mag/cell

     iteration #  4     ecut=    30.00 Ry     beta=0.20
     Davidson diagonalization with overlap
     ethr =  2.43E-07,  avg # of iterations =  1.0
 --- enter write_ns ---
 LDA+U parameters:
U( 1)     =  0.00000000
alpha( 1) =  0.00000000
U( 2)     =  0.00000000
alpha( 2) =  0.15000000
U( 3)     =  0.00000000
alpha( 3) =  0.00000000
U( 4)     =  0.00000000
alpha( 4) =  0.00000000
atom    1   Tr[ns(na)] (up, down, total) =   4.56565  3.37446  7.94011
   spin  1
    eigenvalues: 
  0.785  0.785  0.999  0.999  0.999
    eigenvectors:
  0.000  0.000  0.000  0.000  1.000
  0.423  0.223  0.056  0.298  0.000
  0.223  0.423  0.298  0.056  0.000
  0.346  0.008  0.556  0.090  0.000
  0.008  0.346  0.090  0.556  0.000
    occupations:
  0.999  0.000  0.000  0.000  0.000
  0.000  0.860  0.000 -0.073  0.072
  0.000  0.000  0.860  0.072  0.073
  0.000 -0.073  0.072  0.923  0.000
  0.000  0.072  0.073  0.000  0.923
   spin  2
    eigenvalues: 
  0.474  0.474  0.773  0.826  0.826
    eigenvectors:
  0.000  0.000  1.000  0.000  0.000
  0.276  0.363  0.000  0.034  0.327
  0.363  0.276  0.000  0.327  0.034
  0.278  0.083  0.000  0.476  0.163
  0.083  0.278  0.000  0.163  0.476
    occupations:
  0.773  0.000  0.000  0.000  0.000
  0.000  0.601  0.000 -0.037  0.165
  0.000  0.000  0.601  0.165  0.037
  0.000 -0.037  0.165  0.699  0.000
  0.000  0.165  0.037  0.000  0.699
atomic mag. moment =     1.191194
atom    2   Tr[ns(na)] (up, down, total) =   4.67254  3.22641  7.89895
   spin  1
    eigenvalues: 
  0.838  0.838  0.999  0.999  0.999
    eigenvectors:
  0.000  0.000  0.000  0.000  1.000
  0.643  0.003  0.325  0.029  0.000
  0.003  0.643  0.029  0.325  0.000
  0.152  0.202  0.500  0.146  0.000
  0.202  0.152  0.146  0.500  0.000
    occupations:
  0.999  0.000  0.000  0.000  0.000
  0.000  0.895  0.000  0.055  0.054
  0.000  0.000  0.895  0.054 -0.055
  0.000  0.055  0.054  0.942  0.000
  0.000  0.054 -0.055  0.000  0.942
   spin  2
    eigenvalues: 
  0.460  0.460  0.730  0.788  0.788
    eigenvectors:
  0.000  0.000  1.000  0.000  0.000
  0.505  0.130  0.000  0.189  0.175
  0.130  0.505  0.000  0.175  0.189
  0.021  0.344  0.000  0.447  0.188
  0.344  0.021  0.000  0.188  0.447
    occupations:
  0.730  0.000  0.000  0.000  0.000
  0.000  0.580  0.000  0.036  0.154
  0.000  0.000  0.580  0.154 -0.036
  0.000  0.036  0.154  0.669  0.000
  0.000  0.154 -0.036  0.000  0.669
atomic mag. moment =     1.446129
atom    3   Tr[ns(na)] (up, down, total) =   1.89286  1.87846  3.77133
   spin  1
    eigenvalues: 
  0.352  0.352  0.383  0.403  0.403
    eigenvectors:
  0.000  0.000  1.000  0.000  0.000
  0.783  0.139  0.000  0.011  0.066
  0.139  0.783  0.000  0.066  0.011
  0.012  0.065  0.000  0.783  0.139
  0.065  0.012  0.000  0.139  0.783
    occupations:
  0.383  0.000  0.000  0.000  0.000
  0.000  0.356  0.000  0.000  0.013
  0.000  0.000  0.356  0.013  0.000
  0.000  0.000  0.013  0.399  0.000
  0.000  0.013  0.000  0.000  0.399
   spin  2
    eigenvalues: 
  0.348  0.348  0.383  0.400  0.400
    eigenvectors:
  0.000  0.000  1.000  0.000  0.000
  0.762  0.146  0.000  0.013  0.078
  0.146  0.762  0.000  0.078  0.013
  0.016  0.076  0.000  0.765  0.143
  0.076  0.016  0.000  0.143  0.765
    occupations:
  0.383  0.000  0.000  0.000  0.000
  0.000  0.353  0.000  0.000  0.015
  0.000  0.000  0.353  0.015  0.000
  0.000  0.000  0.015  0.395  0.000
  0.000  0.015  0.000  0.000  0.395
atomic mag. moment =     0.014399
atom    4   Tr[ns(na)] (up, down, total) =   1.91528  1.90097  3.81625
   spin  1
    eigenvalues: 
  0.357  0.357  0.387  0.407  0.407
    eigenvectors:
  0.000  0.000  1.000  0.000  0.000
  0.786  0.138  0.000  0.011  0.065
  0.138  0.786  0.000  0.065  0.011
  0.012  0.063  0.000  0.786  0.139
  0.063  0.012  0.000  0.139  0.786
    occupations:
  0.387  0.000  0.000  0.000  0.000
  0.000  0.361  0.000  0.000  0.013
  0.000  0.000  0.361  0.013  0.000
  0.000  0.000  0.013  0.403  0.000
  0.000  0.013  0.000  0.000  0.403
   spin  2
    eigenvalues: 
  0.353  0.353  0.387  0.404  0.404
    eigenvectors:
  0.000  0.000  1.000  0.000  0.000
  0.765  0.145  0.000  0.013  0.077
  0.145  0.765  0.000  0.077  0.013
  0.015  0.074  0.000  0.768  0.142
  0.074  0.015  0.000  0.142  0.768
    occupations:
  0.387  0.000  0.000  0.000  0.000
  0.000  0.358  0.000  0.000  0.014
  0.000  0.000  0.358  0.014  0.000
  0.000  0.000  0.014  0.399  0.000
  0.000  0.014  0.000  0.000  0.399
atomic mag. moment =     0.014316
atom    5   Tr[ns(na)] (up, down, total) =   2.74324  2.70394  5.44718
   spin  1
    eigenvalues: 
  0.844  0.948  0.951
    eigenvectors:
  0.337  0.000  0.663
  0.508  0.244  0.248
  0.156  0.755  0.089
    occupations:
  0.915 -0.045  0.025
 -0.045  0.896  0.029
  0.025  0.029  0.932
   spin  2
    eigenvalues: 
  0.864  0.920  0.920
    eigenvectors:
  0.333  0.663  0.003
  0.513  0.223  0.263
  0.153  0.113  0.733
    occupations:
  0.901 -0.023  0.013
 -0.023  0.891  0.016
  0.013  0.016  0.912
atomic mag. moment =     0.039308
atom    6   Tr[ns(na)] (up, down, total) =   2.74324  2.70394  5.44718
   spin  1
    eigenvalues: 
  0.844  0.948  0.951
    eigenvectors:
  0.337  0.000  0.663
  0.487  0.255  0.258
  0.176  0.744  0.079
    occupations:
  0.915  0.044  0.026
  0.044  0.898 -0.030
  0.026 -0.030  0.930
   spin  2
    eigenvalues: 
  0.864  0.920  0.920
    eigenvectors:
  0.333  0.663  0.003
  0.486  0.279  0.235
  0.181  0.058  0.762
    occupations:
  0.901  0.022  0.014
  0.022  0.893 -0.017
  0.014 -0.017  0.910
atomic mag. moment =     0.039308
atom    7   Tr[ns(na)] (up, down, total) =   2.74324  2.70394  5.44718
   spin  1
    eigenvalues: 
  0.844  0.948  0.951
    eigenvectors:
  0.337  0.000  0.663
  0.000  1.000  0.000
  0.663  0.000  0.337
    occupations:
  0.915  0.001 -0.051
  0.001  0.948  0.001
 -0.051  0.001  0.880
   spin  2
    eigenvalues: 
  0.864  0.920  0.920
    eigenvectors:
  0.333  0.663  0.003
  0.000  0.003  0.997
  0.666  0.334  0.000
    occupations:
  0.901  0.001 -0.026
  0.001  0.920  0.001
 -0.026  0.001  0.883
atomic mag. moment =     0.039308
atom    8   Tr[ns(na)] (up, down, total) =   2.74317  2.70399  5.44716
   spin  1
    eigenvalues: 
  0.844  0.947  0.952
    eigenvectors:
  0.337  0.000  0.663
  0.508  0.243  0.249
  0.155  0.757  0.088
    occupations:
  0.916 -0.045  0.025
 -0.045  0.896  0.028
  0.025  0.028  0.932
   spin  2
    eigenvalues: 
  0.864  0.920  0.920
    eigenvectors:
  0.333  0.000  0.667
  0.514  0.222  0.264
  0.153  0.777  0.070
    occupations:
  0.902 -0.023  0.013
 -0.023  0.891  0.015
  0.013  0.015  0.911
atomic mag. moment =     0.039175
atom    9   Tr[ns(na)] (up, down, total) =   2.74317  2.70399  5.44716
   spin  1
    eigenvalues: 
  0.844  0.947  0.952
    eigenvectors:
  0.337  0.000  0.663
  0.487  0.257  0.256
  0.176  0.743  0.081
    occupations:
  0.916  0.044  0.026
  0.044  0.898 -0.030
  0.026 -0.030  0.930
   spin  2
    eigenvalues: 
  0.864  0.920  0.920
    eigenvectors:
  0.333  0.000  0.667
  0.486  0.279  0.235
  0.181  0.721  0.098
    occupations:
  0.902  0.023  0.014
  0.023  0.893 -0.016
  0.014 -0.016  0.910
atomic mag. moment =     0.039175
atom   10   Tr[ns(na)] (up, down, total) =   2.74317  2.70399  5.44716
   spin  1
    eigenvalues: 
  0.844  0.947  0.952
    eigenvectors:
  0.337  0.000  0.663
  0.000  1.000  0.000
  0.663  0.000  0.337
    occupations:
  0.916  0.001 -0.051
  0.001  0.947  0.001
 -0.051  0.001  0.880
   spin  2
    eigenvalues: 
  0.864  0.920  0.920
    eigenvectors:
  0.333  0.000  0.667
  0.000  0.999  0.001
  0.666  0.001  0.333
    occupations:
  0.902  0.001 -0.027
  0.001  0.920  0.001
 -0.027  0.001  0.883
atomic mag. moment =     0.039175
N of occupied +U levels =  56.1096594
 --- exit write_ns ---
 --- in v_hubbard ---
Hubbard energy    0.0417
 -------

     total cpu time spent up to now is      155.6 secs

     total energy              =    -538.31359771 Ry
     Harris-Foulkes estimate   =    -538.31359890 Ry
     estimated scf accuracy    <       0.00000546 Ry

     total magnetization       =     3.54 Bohr mag/cell
     absolute magnetization    =     3.69 Bohr mag/cell

     iteration #  5     ecut=    30.00 Ry     beta=0.20
     Davidson diagonalization with overlap
     ethr =  7.18E-09,  avg # of iterations =  3.3
 --- enter write_ns ---
 LDA+U parameters:
U( 1)     =  0.00000000
alpha( 1) =  0.00000000
U( 2)     =  0.00000000
alpha( 2) =  0.15000000
U( 3)     =  0.00000000
alpha( 3) =  0.00000000
U( 4)     =  0.00000000
alpha( 4) =  0.00000000
atom    1   Tr[ns(na)] (up, down, total) =   4.56577  3.37498  7.94074
   spin  1
    eigenvalues: 
  0.785  0.785  0.999  0.999  0.999
    eigenvectors:
  0.000  0.000  0.000  0.000  1.000
  0.423  0.223  0.056  0.298  0.000
  0.223  0.423  0.298  0.056  0.000
  0.346  0.008  0.556  0.090  0.000
  0.008  0.346  0.090  0.556  0.000
    occupations:
  0.999  0.000  0.000  0.000  0.000
  0.000  0.861  0.000 -0.073  0.072
  0.000  0.000  0.861  0.072  0.073
  0.000 -0.073  0.072  0.923  0.000
  0.000  0.072  0.073  0.000  0.923
   spin  2
    eigenvalues: 
  0.475  0.475  0.773  0.826  0.826
    eigenvectors:
  0.000  0.000  1.000  0.000  0.000
  0.277  0.362  0.000  0.034  0.327
  0.362  0.277  0.000  0.327  0.034
  0.278  0.083  0.000  0.476  0.163
  0.083  0.278  0.000  0.163  0.476
    occupations:
  0.773  0.000  0.000  0.000  0.000
  0.000  0.602  0.000 -0.037  0.165
  0.000  0.000  0.602  0.165  0.037
  0.000 -0.037  0.165  0.699  0.000
  0.000  0.165  0.037  0.000  0.699
atomic mag. moment =     1.190787
atom    2   Tr[ns(na)] (up, down, total) =   4.67250  3.22664  7.89913
   spin  1
    eigenvalues: 
  0.838  0.838  0.999  0.999  0.999
    eigenvectors:
  0.000  0.000  0.000  0.000  1.000
  0.643  0.003  0.325  0.029  0.000
  0.003  0.643  0.029  0.325  0.000
  0.152  0.202  0.500  0.147  0.000
  0.202  0.152  0.147  0.500  0.000
    occupations:
  0.999  0.000  0.000  0.000  0.000
  0.000  0.895  0.000  0.055  0.054
  0.000  0.000  0.895  0.054 -0.055
  0.000  0.055  0.054  0.942  0.000
  0.000  0.054 -0.055  0.000  0.942
   spin  2
    eigenvalues: 
  0.460  0.460  0.730  0.788  0.788
    eigenvectors:
  0.000  0.000  1.000  0.000  0.000
  0.507  0.129  0.000  0.189  0.175
  0.129  0.507  0.000  0.175  0.189
  0.020  0.344  0.000  0.447  0.188
  0.344  0.020  0.000  0.188  0.447
    occupations:
  0.730  0.000  0.000  0.000  0.000
  0.000  0.580  0.000  0.036  0.154
  0.000  0.000  0.580  0.154 -0.036
  0.000  0.036  0.154  0.669  0.000
  0.000  0.154 -0.036  0.000  0.669
atomic mag. moment =     1.445857
atom    3   Tr[ns(na)] (up, down, total) =   1.89368  1.87926  3.77293
   spin  1
    eigenvalues: 
  0.352  0.352  0.383  0.403  0.403
    eigenvectors:
  0.000  0.000  1.000  0.000  0.000
  0.783  0.139  0.000  0.011  0.067
  0.139  0.783  0.000  0.067  0.011
  0.012  0.065  0.000  0.783  0.139
  0.065  0.012  0.000  0.139  0.783
    occupations:
  0.383  0.000  0.000  0.000  0.000
  0.000  0.356  0.000  0.000  0.014
  0.000  0.000  0.356  0.014  0.000
  0.000  0.000  0.014  0.399  0.000
  0.000  0.014  0.000  0.000  0.399
   spin  2
    eigenvalues: 
  0.348  0.348  0.383  0.400  0.400
    eigenvectors:
  0.000  0.000  1.000  0.000  0.000
  0.762  0.146  0.000  0.013  0.078
  0.146  0.762  0.000  0.078  0.013
  0.016  0.076  0.000  0.766  0.143
  0.076  0.016  0.000  0.143  0.766
    occupations:
  0.383  0.000  0.000  0.000  0.000
  0.000  0.353  0.000  0.000  0.015
  0.000  0.000  0.353  0.015  0.000
  0.000  0.000  0.015  0.395  0.000
  0.000  0.015  0.000  0.000  0.395
atomic mag. moment =     0.014419
atom    4   Tr[ns(na)] (up, down, total) =   1.91522  1.90089  3.81611
   spin  1
    eigenvalues: 
  0.357  0.357  0.387  0.407  0.407
    eigenvectors:
  0.000  0.000  1.000  0.000  0.000
  0.787  0.138  0.000  0.011  0.065
  0.138  0.787  0.000  0.065  0.011
  0.012  0.064  0.000  0.786  0.139
  0.064  0.012  0.000  0.139  0.786
    occupations:
  0.387  0.000  0.000  0.000  0.000
  0.000  0.361  0.000  0.000  0.013
  0.000  0.000  0.361  0.013  0.000
  0.000  0.000  0.013  0.403  0.000
  0.000  0.013  0.000  0.000  0.403
   spin  2
    eigenvalues: 
  0.353  0.353  0.387  0.404  0.404
    eigenvectors:
  0.000  0.000  1.000  0.000  0.000
  0.765  0.145  0.000  0.013  0.077
  0.145  0.765  0.000  0.077  0.013
  0.015  0.074  0.000  0.768  0.142
  0.074  0.015  0.000  0.142  0.768
    occupations:
  0.387  0.000  0.000  0.000  0.000
  0.000  0.358  0.000  0.000  0.014
  0.000  0.000  0.358  0.014  0.000
  0.000  0.000  0.014  0.399  0.000
  0.000  0.014  0.000  0.000  0.399
atomic mag. moment =     0.014330
atom    5   Tr[ns(na)] (up, down, total) =   2.74311  2.70379  5.44690
   spin  1
    eigenvalues: 
  0.844  0.948  0.951
    eigenvectors:
  0.337  0.000  0.663
  0.508  0.244  0.248
  0.156  0.755  0.089
    occupations:
  0.915 -0.045  0.025
 -0.045  0.896  0.029
  0.025  0.029  0.932
   spin  2
    eigenvalues: 
  0.864  0.920  0.920
    eigenvectors:
  0.333  0.663  0.004
  0.513  0.220  0.266
  0.153  0.117  0.730
    occupations:
  0.901 -0.023  0.013
 -0.023  0.891  0.016
  0.013  0.016  0.911
atomic mag. moment =     0.039314
atom    6   Tr[ns(na)] (up, down, total) =   2.74311  2.70379  5.44690
   spin  1
    eigenvalues: 
  0.844  0.948  0.951
    eigenvectors:
  0.337  0.000  0.663
  0.487  0.256  0.257
  0.176  0.744  0.080
    occupations:
  0.915  0.044  0.026
  0.044  0.898 -0.030
  0.026 -0.030  0.930
   spin  2
    eigenvalues: 
  0.864  0.920  0.920
    eigenvectors:
  0.333  0.663  0.004
  0.486  0.282  0.232
  0.181  0.055  0.764
    occupations:
  0.901  0.022  0.014
  0.022  0.893 -0.017
  0.014 -0.017  0.910
atomic mag. moment =     0.039314
atom    7   Tr[ns(na)] (up, down, total) =   2.74311  2.70379  5.44690
   spin  1
    eigenvalues: 
  0.844  0.948  0.951
    eigenvectors:
  0.337  0.000  0.663
  0.000  1.000  0.000
  0.663  0.000  0.337
    occupations:
  0.915  0.001 -0.051
  0.001  0.948  0.001
 -0.051  0.001  0.880
   spin  2
    eigenvalues: 
  0.864  0.920  0.920
    eigenvectors:
  0.333  0.663  0.004
  0.000  0.004  0.996
  0.666  0.333  0.000
    occupations:
  0.901  0.001 -0.026
  0.001  0.920  0.001
 -0.026  0.001  0.883
atomic mag. moment =     0.039314
atom    8   Tr[ns(na)] (up, down, total) =   2.74303  2.70385  5.44688
   spin  1
    eigenvalues: 
  0.844  0.947  0.952
    eigenvectors:
  0.337  0.000  0.663
  0.508  0.243  0.249
  0.156  0.757  0.088
    occupations:
  0.915 -0.045  0.025
 -0.045  0.896  0.028
  0.025  0.028  0.932
   spin  2
    eigenvalues: 
  0.864  0.920  0.920
    eigenvectors:
  0.333  0.000  0.667
  0.514  0.222  0.265
  0.153  0.778  0.069
    occupations:
  0.902 -0.023  0.013
 -0.023  0.891  0.015
  0.013  0.015  0.911
atomic mag. moment =     0.039182
atom    9   Tr[ns(na)] (up, down, total) =   2.74303  2.70385  5.44688
   spin  1
    eigenvalues: 
  0.844  0.947  0.952
    eigenvectors:
  0.337  0.000  0.663
  0.487  0.257  0.256
  0.176  0.743  0.081
    occupations:
  0.915  0.044  0.026
  0.044  0.898 -0.030
  0.026 -0.030  0.930
   spin  2
    eigenvalues: 
  0.864  0.920  0.920
    eigenvectors:
  0.333  0.000  0.667
  0.486  0.279  0.235
  0.181  0.721  0.099
    occupations:
  0.902  0.023  0.014
  0.023  0.893 -0.016
  0.014 -0.016  0.910
atomic mag. moment =     0.039182
atom   10   Tr[ns(na)] (up, down, total) =   2.74303  2.70385  5.44688
   spin  1
    eigenvalues: 
  0.844  0.947  0.952
    eigenvectors:
  0.337  0.000  0.663
  0.000  1.000  0.000
  0.663  0.000  0.337
    occupations:
  0.915  0.001 -0.051
  0.001  0.947  0.001
 -0.051  0.001  0.880
   spin  2
    eigenvalues: 
  0.864  0.920  0.920
    eigenvectors:
  0.333  0.000  0.667
  0.000  0.999  0.001
  0.666  0.001  0.333
    occupations:
  0.902  0.001 -0.027
  0.001  0.920  0.001
 -0.027  0.001  0.883
atomic mag. moment =     0.039182
N of occupied +U levels =  56.1102606
 --- exit write_ns ---
 --- in v_hubbard ---
Hubbard energy    0.0417
 -------

     total cpu time spent up to now is      186.9 secs

     total energy              =    -538.31359836 Ry
     Harris-Foulkes estimate   =    -538.31359918 Ry
     estimated scf accuracy    <       0.00000237 Ry

     total magnetization       =     3.54 Bohr mag/cell
     absolute magnetization    =     3.69 Bohr mag/cell

     iteration #  6     ecut=    30.00 Ry     beta=0.20
     Davidson diagonalization with overlap
     ethr =  3.12E-09,  avg # of iterations =  2.0
 --- enter write_ns ---
 LDA+U parameters:
U( 1)     =  0.00000000
alpha( 1) =  0.00000000
U( 2)     =  0.00000000
alpha( 2) =  0.15000000
U( 3)     =  0.00000000
alpha( 3) =  0.00000000
U( 4)     =  0.00000000
alpha( 4) =  0.00000000
atom    1   Tr[ns(na)] (up, down, total) =   4.56577  3.37515  7.94092
   spin  1
    eigenvalues: 
  0.785  0.785  0.999  0.999  0.999
    eigenvectors:
  0.000  0.000  0.000  0.000  1.000
  0.423  0.223  0.056  0.298  0.000
  0.223  0.423  0.298  0.056  0.000
  0.346  0.008  0.556  0.090  0.000
  0.008  0.346  0.090  0.556  0.000
    occupations:
  0.999  0.000  0.000  0.000  0.000
  0.000  0.861  0.000 -0.073  0.072
  0.000  0.000  0.861  0.072  0.073
  0.000 -0.073  0.072  0.923  0.000
  0.000  0.072  0.073  0.000  0.923
   spin  2
    eigenvalues: 
  0.475  0.475  0.773  0.826  0.826
    eigenvectors:
  0.000  0.000  1.000  0.000  0.000
  0.276  0.363  0.000  0.034  0.327
  0.363  0.276  0.000  0.327  0.034
  0.278  0.083  0.000  0.476  0.163
  0.083  0.278  0.000  0.163  0.476
    occupations:
  0.773  0.000  0.000  0.000  0.000
  0.000  0.602  0.000 -0.037  0.165
  0.000  0.000  0.602  0.165  0.037
  0.000 -0.037  0.165  0.699  0.000
  0.000  0.165  0.037  0.000  0.699
atomic mag. moment =     1.190613
atom    2   Tr[ns(na)] (up, down, total) =   4.67239  3.22650  7.89889
   spin  1
    eigenvalues: 
  0.838  0.838  0.999  0.999  0.999
    eigenvectors:
  0.000  0.000  0.000  0.000  1.000
  0.643  0.003  0.325  0.029  0.000
  0.003  0.643  0.029  0.325  0.000
  0.153  0.201  0.500  0.146  0.000
  0.201  0.153  0.146  0.500  0.000
    occupations:
  0.999  0.000  0.000  0.000  0.000
  0.000  0.895  0.000  0.055  0.054
  0.000  0.000  0.895  0.054 -0.055
  0.000  0.055  0.054  0.942  0.000
  0.000  0.054 -0.055  0.000  0.942
   spin  2
    eigenvalues: 
  0.460  0.460  0.730  0.788  0.788
    eigenvectors:
  0.000  0.000  1.000  0.000  0.000
  0.506  0.129  0.000  0.189  0.176
  0.129  0.506  0.000  0.176  0.189
  0.021  0.344  0.000  0.447  0.188
  0.344  0.021  0.000  0.188  0.447
    occupations:
  0.730  0.000  0.000  0.000  0.000
  0.000  0.580  0.000  0.036  0.154
  0.000  0.000  0.580  0.154 -0.036
  0.000  0.036  0.154  0.669  0.000
  0.000  0.154 -0.036  0.000  0.669
atomic mag. moment =     1.445888
atom    3   Tr[ns(na)] (up, down, total) =   1.89339  1.87896  3.77235
   spin  1
    eigenvalues: 
  0.352  0.352  0.383  0.403  0.403
    eigenvectors:
  0.000  0.000  1.000  0.000  0.000
  0.783  0.139  0.000  0.011  0.067
  0.139  0.783  0.000  0.067  0.011
  0.012  0.065  0.000  0.783  0.139
  0.065  0.012  0.000  0.139  0.783
    occupations:
  0.383  0.000  0.000  0.000  0.000
  0.000  0.356  0.000  0.000  0.014
  0.000  0.000  0.356  0.014  0.000
  0.000  0.000  0.014  0.399  0.000
  0.000  0.014  0.000  0.000  0.399
   spin  2
    eigenvalues: 
  0.348  0.348  0.383  0.400  0.400
    eigenvectors:
  0.000  0.000  1.000  0.000  0.000
  0.762  0.146  0.000  0.013  0.078
  0.146  0.762  0.000  0.078  0.013
  0.016  0.076  0.000  0.765  0.143
  0.076  0.016  0.000  0.143  0.765
    occupations:
  0.383  0.000  0.000  0.000  0.000
  0.000  0.353  0.000  0.000  0.015
  0.000  0.000  0.353  0.015  0.000
  0.000  0.000  0.015  0.395  0.000
  0.000  0.015  0.000  0.000  0.395
atomic mag. moment =     0.014427
atom    4   Tr[ns(na)] (up, down, total) =   1.91467  1.90034  3.81500
   spin  1
    eigenvalues: 
  0.357  0.357  0.387  0.407  0.407
    eigenvectors:
  0.000  0.000  1.000  0.000  0.000
  0.786  0.138  0.000  0.011  0.065
  0.138  0.786  0.000  0.065  0.011
  0.012  0.064  0.000  0.786  0.139
  0.064  0.012  0.000  0.139  0.786
    occupations:
  0.387  0.000  0.000  0.000  0.000
  0.000  0.361  0.000  0.000  0.013
  0.000  0.000  0.361  0.013  0.000
  0.000  0.000  0.013  0.403  0.000
  0.000  0.013  0.000  0.000  0.403
   spin  2
    eigenvalues: 
  0.353  0.353  0.387  0.404  0.404
    eigenvectors:
  0.000  0.000  1.000  0.000  0.000
  0.765  0.145  0.000  0.013  0.077
  0.145  0.765  0.000  0.077  0.013
  0.015  0.074  0.000  0.768  0.142
  0.074  0.015  0.000  0.142  0.768
    occupations:
  0.387  0.000  0.000  0.000  0.000
  0.000  0.358  0.000  0.000  0.015
  0.000  0.000  0.358  0.015  0.000
  0.000  0.000  0.015  0.399  0.000
  0.000  0.015  0.000  0.000  0.399
atomic mag. moment =     0.014334
atom    5   Tr[ns(na)] (up, down, total) =   2.74322  2.70390  5.44712
   spin  1
    eigenvalues: 
  0.844  0.948  0.952
    eigenvectors:
  0.337  0.000  0.663
  0.508  0.244  0.248
  0.156  0.755  0.089
    occupations:
  0.915 -0.045  0.025
 -0.045  0.896  0.029
  0.025  0.029  0.932
   spin  2
    eigenvalues: 
  0.864  0.920  0.920
    eigenvectors:
  0.333  0.663  0.004
  0.513  0.219  0.267
  0.153  0.118  0.729
    occupations:
  0.901 -0.023  0.013
 -0.023  0.891  0.016
  0.013  0.016  0.912
atomic mag. moment =     0.039322
atom    6   Tr[ns(na)] (up, down, total) =   2.74322  2.70390  5.44712
   spin  1
    eigenvalues: 
  0.844  0.948  0.952
    eigenvectors:
  0.337  0.000  0.663
  0.487  0.256  0.257
  0.176  0.744  0.080
    occupations:
  0.915  0.044  0.026
  0.044  0.898 -0.030
  0.026 -0.030  0.930
   spin  2
    eigenvalues: 
  0.864  0.920  0.920
    eigenvectors:
  0.333  0.663  0.004
  0.486  0.283  0.231
  0.181  0.055  0.765
    occupations:
  0.901  0.022  0.014
  0.022  0.893 -0.017
  0.014 -0.017  0.910
atomic mag. moment =     0.039322
atom    7   Tr[ns(na)] (up, down, total) =   2.74322  2.70390  5.44712
   spin  1
    eigenvalues: 
  0.844  0.948  0.952
    eigenvectors:
  0.337  0.000  0.663
  0.000  1.000  0.000
  0.663  0.000  0.337
    occupations:
  0.915  0.001 -0.051
  0.001  0.948  0.001
 -0.051  0.001  0.880
   spin  2
    eigenvalues: 
  0.864  0.920  0.920
    eigenvectors:
  0.333  0.663  0.004
  0.000  0.004  0.996
  0.666  0.333  0.000
    occupations:
  0.901  0.001 -0.026
  0.001  0.920  0.001
 -0.026  0.001  0.883
atomic mag. moment =     0.039322
atom    8   Tr[ns(na)] (up, down, total) =   2.74314  2.70395  5.44708
   spin  1
    eigenvalues: 
  0.844  0.947  0.952
    eigenvectors:
  0.337  0.000  0.663
  0.508  0.243  0.249
  0.156  0.756  0.088
    occupations:
  0.915 -0.045  0.025
 -0.045  0.896  0.028
  0.025  0.028  0.932
   spin  2
    eigenvalues: 
  0.864  0.920  0.920
    eigenvectors:
  0.333  0.000  0.667
  0.514  0.222  0.264
  0.153  0.778  0.069
    occupations:
  0.902 -0.023  0.013
 -0.023  0.891  0.015
  0.013  0.015  0.911
atomic mag. moment =     0.039188
atom    9   Tr[ns(na)] (up, down, total) =   2.74314  2.70395  5.44708
   spin  1
    eigenvalues: 
  0.844  0.947  0.952
    eigenvectors:
  0.337  0.000  0.663
  0.487  0.257  0.256
  0.176  0.743  0.081
    occupations:
  0.915  0.044  0.026
  0.044  0.898 -0.030
  0.026 -0.030  0.930
   spin  2
    eigenvalues: 
  0.864  0.920  0.920
    eigenvectors:
  0.333  0.000  0.667
  0.486  0.279  0.235
  0.181  0.721  0.099
    occupations:
  0.902  0.023  0.014
  0.023  0.893 -0.016
  0.014 -0.016  0.910
atomic mag. moment =     0.039188
atom   10   Tr[ns(na)] (up, down, total) =   2.74314  2.70395  5.44708
   spin  1
    eigenvalues: 
  0.844  0.947  0.952
    eigenvectors:
  0.337  0.000  0.663
  0.000  1.000  0.000
  0.663  0.000  0.337
    occupations:
  0.915  0.001 -0.051
  0.001  0.947  0.001
 -0.051  0.001  0.880
   spin  2
    eigenvalues: 
  0.864  0.920  0.920
    eigenvectors:
  0.333  0.000  0.667
  0.000  0.999  0.001
  0.666  0.001  0.333
    occupations:
  0.902  0.001 -0.027
  0.001  0.920  0.001
 -0.027  0.001  0.883
atomic mag. moment =     0.039188
N of occupied +U levels =  56.1097894
 --- exit write_ns ---
 --- in v_hubbard ---
Hubbard energy    0.0416
 -------

     total cpu time spent up to now is      217.8 secs

     total energy              =    -538.31359860 Ry
     Harris-Foulkes estimate   =    -538.31359884 Ry
     estimated scf accuracy    <       0.00000073 Ry

     total magnetization       =     3.54 Bohr mag/cell
     absolute magnetization    =     3.69 Bohr mag/cell

     iteration #  7     ecut=    30.00 Ry     beta=0.20
     Davidson diagonalization with overlap
     ethr =  9.61E-10,  avg # of iterations =  2.0
 --- enter write_ns ---
 LDA+U parameters:
U( 1)     =  0.00000000
alpha( 1) =  0.00000000
U( 2)     =  0.00000000
alpha( 2) =  0.15000000
U( 3)     =  0.00000000
alpha( 3) =  0.00000000
U( 4)     =  0.00000000
alpha( 4) =  0.00000000
atom    1   Tr[ns(na)] (up, down, total) =   4.56569  3.37506  7.94075
   spin  1
    eigenvalues: 
  0.785  0.785  0.999  0.999  0.999
    eigenvectors:
  0.000  0.000  0.000  0.000  1.000
  0.423  0.223  0.056  0.298  0.000
  0.223  0.423  0.298  0.056  0.000
  0.346  0.008  0.557  0.090  0.000
  0.008  0.346  0.090  0.557  0.000
    occupations:
  0.999  0.000  0.000  0.000  0.000
  0.000  0.860  0.000 -0.073  0.072
  0.000  0.000  0.860  0.072  0.073
  0.000 -0.073  0.072  0.923  0.000
  0.000  0.072  0.073  0.000  0.923
   spin  2
    eigenvalues: 
  0.475  0.475  0.773  0.826  0.826
    eigenvectors:
  0.000  0.000  1.000  0.000  0.000
  0.276  0.363  0.000  0.034  0.327
  0.363  0.276  0.000  0.327  0.034
  0.278  0.083  0.000  0.476  0.163
  0.083  0.278  0.000  0.163  0.476
    occupations:
  0.773  0.000  0.000  0.000  0.000
  0.000  0.602  0.000 -0.037  0.165
  0.000  0.000  0.602  0.165  0.037
  0.000 -0.037  0.165  0.699  0.000
  0.000  0.165  0.037  0.000  0.699
atomic mag. moment =     1.190627
atom    2   Tr[ns(na)] (up, down, total) =   4.67233  3.22672  7.89905
   spin  1
    eigenvalues: 
  0.838  0.838  0.999  0.999  0.999
    eigenvectors:
  0.000  0.000  0.000  0.000  1.000
  0.643  0.003  0.325  0.029  0.000
  0.003  0.643  0.029  0.325  0.000
  0.152  0.202  0.500  0.146  0.000
  0.202  0.152  0.146  0.500  0.000
    occupations:
  0.999  0.000  0.000  0.000  0.000
  0.000  0.895  0.000  0.055  0.054
  0.000  0.000  0.895  0.054 -0.055
  0.000  0.055  0.054  0.942  0.000
  0.000  0.054 -0.055  0.000  0.942
   spin  2
    eigenvalues: 
  0.460  0.460  0.730  0.789  0.789
    eigenvectors:
  0.000  0.000  1.000  0.000  0.000
  0.507  0.129  0.000  0.189  0.176
  0.129  0.507  0.000  0.176  0.189
  0.020  0.344  0.000  0.447  0.188
  0.344  0.020  0.000  0.188  0.447
    occupations:
  0.730  0.000  0.000  0.000  0.000
  0.000  0.580  0.000  0.036  0.154
  0.000  0.000  0.580  0.154 -0.036
  0.000  0.036  0.154  0.669  0.000
  0.000  0.154 -0.036  0.000  0.669
atomic mag. moment =     1.445612
atom    3   Tr[ns(na)] (up, down, total) =   1.89377  1.87934  3.77312
   spin  1
    eigenvalues: 
  0.353  0.353  0.383  0.403  0.403
    eigenvectors:
  0.000  0.000  1.000  0.000  0.000
  0.783  0.139  0.000  0.011  0.067
  0.139  0.783  0.000  0.067  0.011
  0.012  0.065  0.000  0.783  0.139
  0.065  0.012  0.000  0.139  0.783
    occupations:
  0.383  0.000  0.000  0.000  0.000
  0.000  0.356  0.000  0.000  0.014
  0.000  0.000  0.356  0.014  0.000
  0.000  0.000  0.014  0.399  0.000
  0.000  0.014  0.000  0.000  0.399
   spin  2
    eigenvalues: 
  0.348  0.348  0.383  0.400  0.400
    eigenvectors:
  0.000  0.000  1.000  0.000  0.000
  0.762  0.146  0.000  0.013  0.078
  0.146  0.762  0.000  0.078  0.013
  0.016  0.076  0.000  0.765  0.143
  0.076  0.016  0.000  0.143  0.765
    occupations:
  0.383  0.000  0.000  0.000  0.000
  0.000  0.353  0.000  0.000  0.015
  0.000  0.000  0.353  0.015  0.000
  0.000  0.000  0.015  0.395  0.000
  0.000  0.015  0.000  0.000  0.395
atomic mag. moment =     0.014431
atom    4   Tr[ns(na)] (up, down, total) =   1.91480  1.90047  3.81527
   spin  1
    eigenvalues: 
  0.357  0.357  0.387  0.407  0.407
    eigenvectors:
  0.000  0.000  1.000  0.000  0.000
  0.787  0.138  0.000  0.011  0.065
  0.138  0.787  0.000  0.065  0.011
  0.012  0.064  0.000  0.786  0.139
  0.064  0.012  0.000  0.139  0.786
    occupations:
  0.387  0.000  0.000  0.000  0.000
  0.000  0.361  0.000  0.000  0.013
  0.000  0.000  0.361  0.013  0.000
  0.000  0.000  0.013  0.403  0.000
  0.000  0.013  0.000  0.000  0.403
   spin  2
    eigenvalues: 
  0.353  0.353  0.387  0.404  0.404
    eigenvectors:
  0.000  0.000  1.000  0.000  0.000
  0.765  0.145  0.000  0.013  0.077
  0.145  0.765  0.000  0.077  0.013
  0.015  0.074  0.000  0.768  0.142
  0.074  0.015  0.000  0.142  0.768
    occupations:
  0.387  0.000  0.000  0.000  0.000
  0.000  0.358  0.000  0.000  0.014
  0.000  0.000  0.358  0.014  0.000
  0.000  0.000  0.014  0.399  0.000
  0.000  0.014  0.000  0.000  0.399
atomic mag. moment =     0.014332
atom    5   Tr[ns(na)] (up, down, total) =   2.74315  2.70385  5.44700
   spin  1
    eigenvalues: 
  0.844  0.948  0.952
    eigenvectors:
  0.337  0.000  0.663
  0.508  0.244  0.248
  0.156  0.755  0.089
    occupations:
  0.915 -0.045  0.025
 -0.045  0.896  0.029
  0.025  0.029  0.932
   spin  2
    eigenvalues: 
  0.864  0.920  0.920
    eigenvectors:
  0.333  0.663  0.004
  0.513  0.219  0.267
  0.153  0.118  0.729
    occupations:
  0.901 -0.023  0.013
 -0.023  0.891  0.016
  0.013  0.016  0.912
atomic mag. moment =     0.039306
atom    6   Tr[ns(na)] (up, down, total) =   2.74315  2.70385  5.44700
   spin  1
    eigenvalues: 
  0.844  0.948  0.952
    eigenvectors:
  0.337  0.000  0.663
  0.487  0.256  0.257
  0.176  0.744  0.080
    occupations:
  0.915  0.044  0.026
  0.044  0.898 -0.030
  0.026 -0.030  0.930
   spin  2
    eigenvalues: 
  0.864  0.920  0.920
    eigenvectors:
  0.333  0.663  0.004
  0.486  0.283  0.231
  0.181  0.055  0.765
    occupations:
  0.901  0.022  0.014
  0.022  0.893 -0.017
  0.014 -0.017  0.910
atomic mag. moment =     0.039306
atom    7   Tr[ns(na)] (up, down, total) =   2.74315  2.70385  5.44700
   spin  1
    eigenvalues: 
  0.844  0.948  0.952
    eigenvectors:
  0.337  0.000  0.663
  0.000  1.000  0.000
  0.663  0.000  0.337
    occupations:
  0.915  0.001 -0.051
  0.001  0.948  0.001
 -0.051  0.001  0.880
   spin  2
    eigenvalues: 
  0.864  0.920  0.920
    eigenvectors:
  0.333  0.663  0.004
  0.000  0.004  0.996
  0.666  0.333  0.000
    occupations:
  0.901  0.001 -0.026
  0.001  0.920  0.001
 -0.026  0.001  0.883
atomic mag. moment =     0.039306
atom    8   Tr[ns(na)] (up, down, total) =   2.74308  2.70391  5.44699
   spin  1
    eigenvalues: 
  0.844  0.947  0.952
    eigenvectors:
  0.337  0.000  0.663
  0.508  0.243  0.249
  0.156  0.756  0.088
    occupations:
  0.915 -0.045  0.025
 -0.045  0.896  0.028
  0.025  0.028  0.932
   spin  2
    eigenvalues: 
  0.864  0.920  0.920
    eigenvectors:
  0.333  0.000  0.667
  0.514  0.222  0.265
  0.153  0.778  0.069
    occupations:
  0.902 -0.023  0.013
 -0.023  0.891  0.015
  0.013  0.015  0.911
atomic mag. moment =     0.039170
atom    9   Tr[ns(na)] (up, down, total) =   2.74308  2.70391  5.44699
   spin  1
    eigenvalues: 
  0.844  0.947  0.952
    eigenvectors:
  0.337  0.000  0.663
  0.487  0.257  0.256
  0.176  0.743  0.081
    occupations:
  0.915  0.044  0.026
  0.044  0.898 -0.030
  0.026 -0.030  0.930
   spin  2
    eigenvalues: 
  0.864  0.920  0.920
    eigenvectors:
  0.333  0.000  0.667
  0.486  0.279  0.235
  0.181  0.720  0.099
    occupations:
  0.902  0.023  0.014
  0.023  0.893 -0.016
  0.014 -0.016  0.910
[...]
     0.0937   0.0937   0.0937   0.0937   0.0937   0.0937   0.0937   0.0870
     0.0076   0.0000   0.0000   0.0000   0.0000   0.0000

          k = 0.4942-0.5706-0.2053 (  2206 PWs)   bands (ev):

   -19.7303 -19.6439  -6.8353  -6.8254  -5.9850  -5.9775  -5.3654  -5.3615
    -3.1482  -3.1243  -2.8046  -2.7637  -2.3586  -2.3527   5.9584   5.9853
     6.8337   6.8746   6.9240   6.9485   7.3821   7.4117   7.9262   7.9713
     8.7793   8.8011   8.9036   8.9097   9.5042   9.5196   9.9992  10.0165
    10.6674  10.7157  10.8207  10.8867  11.1028  11.1491  11.4561  11.4991
    13.3257  13.3654  17.4727  17.4762  17.9208  17.9258

     occupation numbers 
     0.0938   0.0938   0.0938   0.0938   0.0938   0.0938   0.0938   0.0938
     0.0938   0.0938   0.0938   0.0938   0.0938   0.0938   0.0938   0.0938
     0.0938   0.0938   0.0938   0.0938   0.0938   0.0938   0.0938   0.0938
     0.0938   0.0938   0.0938   0.0938   0.0938   0.0938   0.0937   0.0937
     0.0937   0.0937   0.0937   0.0937   0.0937   0.0937   0.0936   0.0935
     0.0000   0.0000   0.0000   0.0000   0.0000   0.0000

          k = 0.0000 0.0000-0.6160 (  2186 PWs)   bands (ev):

   -19.7316 -19.6578  -6.4759  -6.4256  -5.8953  -5.8953  -5.8570  -5.8570
    -2.8850  -2.8850  -2.8324  -2.8324  -2.7214  -2.6600   6.3084   6.3341
     6.9452   6.9452   7.0099   7.0099   7.6909   7.7199   7.8759   7.8759
     7.9196   7.9196   9.5748   9.5748   9.6072   9.6072   9.6975   9.7194
    10.7205  10.8914  10.8914  10.8926  11.0455  11.0455  12.4632  12.4632
    12.6421  12.6421  17.1353  17.1353  17.1995  17.1995

     occupation numbers 
     0.0156   0.0156   0.0156   0.0156   0.0156   0.0156   0.0156   0.0156
     0.0156   0.0156   0.0156   0.0156   0.0156   0.0156   0.0156   0.0156
     0.0156   0.0156   0.0156   0.0156   0.0156   0.0156   0.0156   0.0156
     0.0156   0.0156   0.0156   0.0156   0.0156   0.0156   0.0156   0.0156
     0.0156   0.0156   0.0156   0.0156   0.0156   0.0156   0.0047   0.0047
     0.0020   0.0020   0.0000   0.0000   0.0000   0.0000

          k = 0.4942-0.5706 0.1027 (  2198 PWs)   bands (ev):

   -19.7356 -19.6446  -6.9109  -6.5875  -6.0789  -5.8294  -5.4423  -5.3214
    -3.2867  -3.2296  -2.8532  -2.6801  -2.4977  -2.3582   5.8595   6.1659
     6.6474   6.7616   7.1058   7.2939   7.4360   7.6401   7.7431   7.8963
     8.1927   8.7556   9.0231   9.2399   9.5296   9.7664   9.8821  10.3125
    10.4253  10.7890  10.9271  10.9816  11.1203  11.1897  11.5503  11.9340
    12.7256  13.7262  16.9645  17.1616  17.3691  18.0614

     occupation numbers 
     0.0938   0.0938   0.0938   0.0938   0.0938   0.0938   0.0938   0.0938
     0.0938   0.0938   0.0938   0.0938   0.0938   0.0938   0.0938   0.0938
     0.0938   0.0938   0.0938   0.0938   0.0938   0.0938   0.0938   0.0938
     0.0938   0.0938   0.0938   0.0938   0.0938   0.0938   0.0938   0.0937
     0.0937   0.0937   0.0937   0.0937   0.0937   0.0937   0.0934   0.0850
     0.0073   0.0000   0.0000   0.0000   0.0000   0.0000

 ------ SPIN DOWN ----------


          k = 0.0000 0.0000 0.0000 (  2175 PWs)   bands (ev):

   -19.7891 -19.6012  -6.4205  -5.6813  -5.6813  -5.6647  -5.6647  -5.3073
    -3.7373  -3.2470  -3.1307  -3.1307  -2.9782  -2.9782   5.2619   7.2798
     7.2798   7.6014   7.6014   7.7919   8.0410   8.0410   8.0822   9.4512
     9.7617   9.7617  10.0832  10.1446  10.1446  10.6103  10.6103  10.8062
    11.2244  11.2244  11.3111  12.1598  12.1598  12.7018  13.0278  13.0278
    15.3809  15.3809  15.5560  15.5560  16.2844  16.8845

     occupation numbers 
     0.0156   0.0156   0.0156   0.0156   0.0156   0.0156   0.0156   0.0156
     0.0156   0.0156   0.0156   0.0156   0.0156   0.0156   0.0156   0.0156
     0.0156   0.0156   0.0156   0.0156   0.0156   0.0156   0.0156   0.0156
     0.0156   0.0156   0.0156   0.0156   0.0156   0.0156   0.0156   0.0156
     0.0156   0.0156   0.0156   0.0110   0.0110   0.0014   0.0001   0.0001
     0.0000   0.0000   0.0000   0.0000   0.0000   0.0000

          k =-0.2471-0.1427 0.1027 (  2181 PWs)   bands (ev):

   -19.7640 -19.6212  -6.6060  -6.1448  -5.7947  -5.6986  -5.4492  -5.3098
    -3.5507  -3.3519  -2.8785  -2.8481  -2.7841  -2.7046   5.6354   6.9774
     7.3488   7.3660   7.4872   7.6965   7.7009   8.0476   8.0664   8.8386
     8.9054   9.5371   9.8174  10.0210  10.0802  10.2076  10.5547  10.5646
    11.5537  11.5984  11.6500  12.3465  12.3873  12.5173  13.1754  13.2223
    14.9451  14.9554  15.9439  16.1840  17.0644  17.3652

     occupation numbers 
     0.0938   0.0938   0.0938   0.0938   0.0938   0.0938   0.0938   0.0938
     0.0938   0.0938   0.0938   0.0938   0.0938   0.0938   0.0938   0.0938
     0.0938   0.0938   0.0938   0.0938   0.0938   0.0938   0.0938   0.0938
     0.0938   0.0938   0.0938   0.0937   0.0937   0.0937   0.0937   0.0937
     0.0934   0.0931   0.0928   0.0428   0.0376   0.0227   0.0001   0.0001
     0.0000   0.0000   0.0000   0.0000   0.0000   0.0000

          k = 0.4942 0.2853-0.2053 (  2202 PWs)   bands (ev):

   -19.7268 -19.6530  -6.6140  -6.5698  -5.8222  -5.8112  -5.3628  -5.3565
    -3.3596  -3.3247  -2.7369  -2.7183  -2.4854  -2.4327   6.1853   6.2093
     7.4365   7.4724   7.5042   7.5478   7.8650   7.8996   8.1665   8.2048
     8.4248   8.4605   9.7347   9.7472  10.0466  10.0515  10.4674  10.4729
    11.9539  12.0138  12.0494  12.1073  12.2005  12.2497  13.9639  14.0342
    14.0660  14.1357  16.9072  16.9682  17.2032  17.2628

     occupation numbers 
     0.0469   0.0469   0.0469   0.0469   0.0469   0.0469   0.0469   0.0469
     0.0469   0.0469   0.0469   0.0469   0.0469   0.0469   0.0469   0.0469
     0.0469   0.0469   0.0469   0.0469   0.0469   0.0469   0.0469   0.0469
     0.0469   0.0469   0.0469   0.0469   0.0469   0.0469   0.0469   0.0469
     0.0419   0.0399   0.0385   0.0358   0.0307   0.0276   0.0000   0.0000
     0.0000   0.0000   0.0000   0.0000   0.0000   0.0000

          k =-0.2471 0.1427 0.2053 (  2195 PWs)   bands (ev):

   -19.7586 -19.6205  -6.7361  -6.1026  -5.9297  -5.6558  -5.4984  -5.2917
    -3.3757  -3.2353  -3.0492  -2.8296  -2.7438  -2.5043   5.6900   7.0063
     7.2759   7.3163   7.4113   7.5852   7.6726   8.0793   8.1012   8.8706
     9.1236   9.1292   9.4841   9.9836  10.1468  10.2775  10.3581  10.4799
    11.2440  11.8706  11.9779  12.0421  12.4048  12.5261  12.9515  13.5129
    14.3206  15.4145  16.0982  16.3036  17.1379  17.6171

     occupation numbers 
     0.0938   0.0938   0.0938   0.0938   0.0938   0.0938   0.0938   0.0938
     0.0938   0.0938   0.0938   0.0938   0.0938   0.0938   0.0938   0.0938
     0.0938   0.0938   0.0938   0.0938   0.0938   0.0938   0.0938   0.0938
     0.0938   0.0938   0.0938   0.0937   0.0937   0.0937   0.0937   0.0937
     0.0937   0.0880   0.0824   0.0776   0.0354   0.0218   0.0013   0.0000
     0.0000   0.0000   0.0000   0.0000   0.0000   0.0000

          k = 0.4942 0.5706-0.1027 (  2198 PWs)   bands (ev):

   -19.7303 -19.6394  -6.8357  -6.5159  -6.0053  -5.7497  -5.3412  -5.2147
    -3.2781  -3.2196  -2.8290  -2.6522  -2.4664  -2.3258   6.0586   6.4354
     7.0744   7.3276   7.4197   7.4993   7.7582   8.0237   8.1602   8.2981
     8.5630   9.1008   9.3593   9.5402   9.8759   9.9928  10.1537  10.5402
    11.6249  12.0121  12.1166  12.2052  12.3404  12.3585  13.1626  13.5212
    14.1400  15.0077  17.0021  17.2227  17.4143  18.0936

     occupation numbers 
     0.0938   0.0938   0.0938   0.0938   0.0938   0.0938   0.0938   0.0938
     0.0938   0.0938   0.0938   0.0938   0.0938   0.0938   0.0938   0.0938
     0.0938   0.0938   0.0938   0.0938   0.0938   0.0938   0.0938   0.0938
     0.0938   0.0938   0.0938   0.0938   0.0938   0.0937   0.0937   0.0937
     0.0930   0.0800   0.0707   0.0608   0.0436   0.0412   0.0002   0.0000
     0.0000   0.0000   0.0000   0.0000   0.0000   0.0000

          k = 0.2471 0.4280 0.0000 (  2203 PWs)   bands (ev):

   -19.7365 -19.6394  -6.7249  -6.5010  -5.9194  -5.8399  -5.2699  -5.1964
    -3.4794  -3.2678  -2.7471  -2.6614  -2.5088  -2.4942   6.0098   6.4584
     7.2839   7.4151   7.4696   7.5401   7.5940   7.9397   8.0475   8.4026
     8.6647   9.1303   9.5869   9.6988   9.9674   9.9712  10.2350  10.5518
    11.8883  11.9006  11.9711  12.1604  12.1808  12.4566  13.1289  13.9963
    14.1147  14.8152  16.5473  17.0920  17.5097  18.0120

     occupation numbers 
     0.0938   0.0938   0.0938   0.0938   0.0938   0.0938   0.0938   0.0938
     0.0938   0.0938   0.0938   0.0938   0.0938   0.0938   0.0938   0.0938
     0.0938   0.0938   0.0938   0.0938   0.0938   0.0938   0.0938   0.0938
     0.0938   0.0938   0.0938   0.0938   0.0937   0.0937   0.0937   0.0937
     0.0872   0.0867   0.0828   0.0660   0.0636   0.0292   0.0002   0.0000
     0.0000   0.0000   0.0000   0.0000   0.0000   0.0000

          k = 0.4942-0.2853-0.4107 (  2202 PWs)   bands (ev):

   -19.7317 -19.6274  -7.0570  -6.3498  -6.1332  -5.7718  -5.3743  -5.1187
    -3.1709  -3.1036  -2.9997  -2.5930  -2.4146  -2.1640   5.9825   6.5381
     6.6550   7.2555   7.2680   7.3609   8.1169   8.1839   8.3039   8.3915
     8.7356   8.8616   8.8810   9.5634   9.7984  10.1774  10.2039  10.6214
    11.2267  11.9063  12.0309  12.2546  12.3967  12.4663  12.8894  13.2822
    14.0656  15.4363  17.1376  17.3803  17.6103  17.6773

     occupation numbers 
     0.0469   0.0469   0.0469   0.0469   0.0469   0.0469   0.0469   0.0469
     0.0469   0.0469   0.0469   0.0469   0.0469   0.0469   0.0469   0.0469
     0.0469   0.0469   0.0469   0.0469   0.0469   0.0469   0.0469   0.0469
     0.0469   0.0469   0.0469   0.0469   0.0469   0.0469   0.0469   0.0469
     0.0469   0.0432   0.0393   0.0273   0.0182   0.0141   0.0011   0.0000
     0.0000   0.0000   0.0000   0.0000   0.0000   0.0000

          k = 0.0000 0.0000 0.3080 (  2187 PWs)   bands (ev):

   -19.7637 -19.6210  -6.4922  -5.8246  -5.7864  -5.7756  -5.6885  -5.6875
    -3.1607  -3.0622  -3.0179  -2.9378  -2.8593  -2.8201   5.6857   7.2281
     7.3473   7.3512   7.5721   7.5747   7.7080   8.0706   8.0822   9.0734
     9.0760   9.5976   9.6020   9.8798   9.8837  10.0847  10.3146  10.3197
    11.6655  11.6675  11.6839  12.3619  12.3628  12.5349  13.1547  13.1560
    14.9034  14.9084  16.0253  16.0390  16.9682  17.5829

     occupation numbers 
     0.0313   0.0313   0.0313   0.0313   0.0313   0.0313   0.0313   0.0313
     0.0313   0.0313   0.0313   0.0313   0.0313   0.0313   0.0313   0.0313
     0.0313   0.0313   0.0313   0.0313   0.0313   0.0313   0.0313   0.0313
     0.0313   0.0313   0.0313   0.0313   0.0313   0.0312   0.0312   0.0312
     0.0309   0.0309   0.0308   0.0136   0.0136   0.0070   0.0001   0.0001
     0.0000   0.0000   0.0000   0.0000   0.0000   0.0000

          k = 0.7412 0.4280 0.0000 (  2204 PWs)   bands (ev):

   -19.7362 -19.6392  -6.6077  -6.4654  -6.0128  -5.6880  -5.5262  -5.3836
    -3.1247  -3.0532  -2.9984  -2.6281  -2.5958  -2.5175   6.0557   6.6408
     7.2915   7.4494   7.4685   7.5627   7.5918   7.8951   8.2305   8.3803
     8.7072   9.0046   9.6586   9.6857   9.7890   9.8544  10.0568  10.3970
    11.8819  11.9055  12.0331  12.1757  12.2245  12.4199  13.1226  13.9220
    14.0389  14.8411  16.7998  16.8249  17.6799  17.8894

     occupation numbers 
     0.0938   0.0938   0.0938   0.0938   0.0938   0.0938   0.0938   0.0938
     0.0938   0.0938   0.0938   0.0938   0.0938   0.0938   0.0938   0.0938
     0.0938   0.0938   0.0938   0.0938   0.0938   0.0938   0.0938   0.0938
     0.0938   0.0938   0.0938   0.0938   0.0938   0.0938   0.0937   0.0937
     0.0875   0.0864   0.0783   0.0642   0.0584   0.0336   0.0002   0.0000
     0.0000   0.0000   0.0000   0.0000   0.0000   0.0000

          k = 0.4942 0.2853 0.1027 (  2211 PWs)   bands (ev):

   -19.7304 -19.6393  -6.8524  -6.4081  -6.2015  -5.5414  -5.4719  -5.1856
    -3.2892  -3.1343  -2.9797  -2.5528  -2.4980  -2.3173   6.0835   6.4095
     7.0420   7.3294   7.3701   7.4772   7.7541   8.0661   8.2317   8.2576
     8.6094   9.2275   9.3641   9.5954   9.7452   9.8499  10.2112  10.5552
    11.6228  12.0603  12.1582  12.2261  12.2859  12.3011  13.1259  13.5312
    14.1840  14.9924  16.9812  17.0372  17.6914  18.0238

     occupation numbers 
     0.0938   0.0938   0.0938   0.0938   0.0938   0.0938   0.0938   0.0938
     0.0938   0.0938   0.0938   0.0938   0.0938   0.0938   0.0938   0.0938
     0.0938   0.0938   0.0938   0.0938   0.0938   0.0938   0.0938   0.0938
     0.0938   0.0938   0.0938   0.0938   0.0938   0.0938   0.0937   0.0937
     0.0930   0.0760   0.0662   0.0582   0.0506   0.0487   0.0002   0.0000
     0.0000   0.0000   0.0000   0.0000   0.0000   0.0000

          k = 0.7412-0.4280-0.3080 (  2210 PWs)   bands (ev):

   -19.7301 -19.6391  -6.7873  -6.3142  -6.1797  -5.6539  -5.6005  -5.3217
    -3.0337  -3.0035  -2.9330  -2.6738  -2.5534  -2.3690   6.1461   6.5626
     7.1239   7.3143   7.4165   7.4341   7.7740   8.1097   8.2583   8.2948
     8.6065   9.1922   9.2111   9.6962   9.7324   9.7881   9.8552  10.3947
    11.6728  12.0652  12.1440  12.2115  12.3205  12.3736  13.0893  13.4905
    14.1365  14.9593  17.1638  17.1736  17.6601  17.9803

     occupation numbers 
     0.0938   0.0938   0.0938   0.0938   0.0938   0.0938   0.0938   0.0938
     0.0938   0.0938   0.0938   0.0938   0.0938   0.0938   0.0938   0.0938
     0.0938   0.0938   0.0938   0.0938   0.0938   0.0938   0.0938   0.0938
     0.0938   0.0938   0.0938   0.0938   0.0938   0.0938   0.0938   0.0937
     0.0925   0.0756   0.0678   0.0600   0.0461   0.0393   0.0003   0.0000
     0.0000   0.0000   0.0000   0.0000   0.0000   0.0000

          k = 0.4942-0.5706-0.2053 (  2206 PWs)   bands (ev):

   -19.7250 -19.6386  -6.7623  -6.7521  -5.9108  -5.9027  -5.2596  -5.2561
    -3.1406  -3.1167  -2.7789  -2.7385  -2.3251  -2.3189   6.2587   6.2863
     7.1986   7.2180   7.3718   7.3830   7.5996   7.6230   8.4488   8.4915
     8.9472   8.9687   9.2537   9.2587   9.7257   9.7329  10.2905  10.2945
    11.8791  11.8884  12.0513  12.0931  12.3675  12.3915  13.1497  13.1688
    14.6714  14.6865  17.5369  17.5384  17.9497  17.9564

     occupation numbers 
     0.0938   0.0938   0.0938   0.0938   0.0938   0.0938   0.0938   0.0938
     0.0938   0.0938   0.0938   0.0938   0.0938   0.0938   0.0938   0.0938
     0.0938   0.0938   0.0938   0.0938   0.0938   0.0938   0.0938   0.0938
     0.0938   0.0938   0.0938   0.0938   0.0938   0.0938   0.0937   0.0937
     0.0876   0.0872   0.0768   0.0730   0.0401   0.0371   0.0002   0.0001
     0.0000   0.0000   0.0000   0.0000   0.0000   0.0000

          k = 0.0000 0.0000-0.6160 (  2186 PWs)   bands (ev):

   -19.7263 -19.6525  -6.3982  -6.3472  -5.8135  -5.8135  -5.7748  -5.7748
    -2.8523  -2.8523  -2.8006  -2.8006  -2.7046  -2.6434   6.3957   6.4204
     7.4530   7.4530   7.4979   7.4979   8.0154   8.0422   8.3333   8.3333
     8.3751   8.3751   9.8398   9.8398   9.8431   9.8431   9.8794   9.8892
    12.0982  12.1294  12.1294  12.1556  12.1814  12.1814  13.9001  13.9001
    14.0047  14.0047  17.1948  17.1948  17.2573  17.2573

     occupation numbers 
     0.0156   0.0156   0.0156   0.0156   0.0156   0.0156   0.0156   0.0156
     0.0156   0.0156   0.0156   0.0156   0.0156   0.0156   0.0156   0.0156
     0.0156   0.0156   0.0156   0.0156   0.0156   0.0156   0.0156   0.0156
     0.0156   0.0156   0.0156   0.0156   0.0156   0.0156   0.0156   0.0156
     0.0121   0.0116   0.0116   0.0111   0.0106   0.0106   0.0000   0.0000
     0.0000   0.0000   0.0000   0.0000   0.0000   0.0000

          k = 0.4942-0.5706 0.1027 (  2198 PWs)   bands (ev):

   -19.7303 -19.6394  -6.8361  -6.5151  -6.0062  -5.7485  -5.3423  -5.2141
    -3.2788  -3.2195  -2.8291  -2.6511  -2.4672  -2.3253   6.0561   6.4389
     7.0705   7.3332   7.4385   7.4860   7.7471   8.0244   8.1350   8.3286
     8.5596   9.1079   9.3546   9.5376   9.8726   9.9960  10.1538  10.5410
    11.6223  12.0401  12.0915  12.2060  12.3446  12.3545  13.1598  13.5209
    14.1399  15.0090  17.0042  17.2203  17.4147  18.0958

     occupation numbers 
     0.0938   0.0938   0.0938   0.0938   0.0938   0.0938   0.0938   0.0938
     0.0938   0.0938   0.0938   0.0938   0.0938   0.0938   0.0938   0.0938
     0.0938   0.0938   0.0938   0.0938   0.0938   0.0938   0.0938   0.0938
     0.0938   0.0938   0.0938   0.0938   0.0938   0.0937   0.0937   0.0937
     0.0930   0.0778   0.0732   0.0607   0.0430   0.0418   0.0002   0.0000
     0.0000   0.0000   0.0000   0.0000   0.0000   0.0000

     the Fermi energy is    12.3149 ev

!    total energy              =    -538.31359885 Ry
     Harris-Foulkes estimate   =    -538.31359882 Ry
     estimated scf accuracy    <          7.1E-09 Ry

     The total energy is the sum of the following terms:

     one-electron contribution =     -32.79222238 Ry
     hartree contribution      =      83.58315835 Ry
     xc contribution           =    -199.66309011 Ry
     ewald contribution        =    -389.44315552 Ry
     Hubbard energy            =       0.04159501 Ry
     smearing contrib. (-TS)   =      -0.03988421 Ry

     total magnetization       =     3.54 Bohr mag/cell
     absolute magnetization    =     3.69 Bohr mag/cell

     convergence has been achieved in  10 iterations

     init_run     :      8.36s CPU      8.54s WALL (       1 calls)
     electrons    :    327.80s CPU    330.36s WALL (       1 calls)

     Called by init_run:
     wfcinit      :      0.00s CPU      0.00s WALL (       1 calls)
     potinit      :      0.84s CPU      0.87s WALL (       1 calls)

     Called by electrons:
     c_bands      :    228.59s CPU    229.38s WALL (      10 calls)
     sum_band     :     62.06s CPU     62.51s WALL (      10 calls)
     v_of_rho     :      8.24s CPU      8.32s WALL (      11 calls)
     v_h          :      0.20s CPU      0.20s WALL (      11 calls)
     v_xc         :      8.04s CPU      8.12s WALL (      11 calls)
     newd         :     30.37s CPU     30.41s WALL (      11 calls)
     mix_rho      :      0.61s CPU      0.61s WALL (      10 calls)

     Called by c_bands:
     init_us_2    :      2.30s CPU      2.30s WALL (     560 calls)
     cegterg      :    222.33s CPU    222.75s WALL (     280 calls)

     Called by sum_band:
     sum_band:bec :      0.21s CPU      0.21s WALL (     280 calls)
     addusdens    :     24.75s CPU     24.80s WALL (      10 calls)

     Called by *egterg:
     h_psi        :    159.79s CPU    160.11s WALL (    1240 calls)
     s_psi        :      9.60s CPU      9.60s WALL (    1240 calls)
     g_psi        :      0.74s CPU      0.74s WALL (     960 calls)
     cdiaghg      :     21.71s CPU     21.71s WALL (    1212 calls)
     cegterg:over :     11.66s CPU     11.66s WALL (     960 calls)
     cegterg:upda :      8.55s CPU      8.57s WALL (     960 calls)
     cegterg:last :      4.57s CPU      4.57s WALL (     308 calls)

     Called by h_psi:
     h_psi:vloc   :    129.25s CPU    129.54s WALL (    1240 calls)
     h_psi:vnl    :     19.52s CPU     19.54s WALL (    1240 calls)
     add_vuspsi   :      9.75s CPU      9.75s WALL (    1240 calls)
     vhpsi        :     10.62s CPU     10.62s WALL (    1240 calls)

     General routines
     calbec       :     19.77s CPU     19.81s WALL (    3040 calls)
     fft          :      3.78s CPU      3.80s WALL (     329 calls)
     ffts         :      0.12s CPU      0.12s WALL (      42 calls)
     fftw         :    119.99s CPU    120.01s WALL (   82610 calls)
     interpolate  :      0.73s CPU      0.73s WALL (      42 calls)
     davcio       :      0.01s CPU      0.72s WALL (     588 calls)

     Parallel routines
     fft_scatter  :     30.28s CPU     30.48s WALL (   82981 calls)
     Hubbard U routines
     new_ns       :      1.93s CPU      2.26s WALL (      10 calls)
     vhpsi        :     10.62s CPU     10.62s WALL (    1240 calls)

     PWSCF        :  5m36.61s CPU     5m39.38s WALL


   This run was terminated on:  12:36:25  13Nov2012            

=------------------------------------------------------------------------------=
