   JOB DONE.
=------------------------------------------------------------------------------=

     Program PWSCF v.5.0.1 starts on 11Nov2012 at 15:20:58 

     This program is part of the open-source Quantum ESPRESSO suite
     for quantum simulation of materials; please cite
         "P. Giannozzi et al., J. Phys.:Condens. Matter 21 395502 (2009);
          URL http://www.quantum-espresso.org", 
     in publications or presentations arising from this work. More details at
     http://www.quantum-espresso.org/quote.php

     Parallel version (MPI), running on     2 processors
     R & G space division:  proc/pool =    2

     Current dimensions of program PWSCF are:
     Max number of different atomic species (ntypx) = 10
     Max number of k-points (npk) =  40000
     Max angular momentum in pseudopotentials (lmaxx) =  3
     Reading input from CoLaO_U300_a0.in
               file Co.pbe-nd-rrkjus.UPF: wavefunction(s)  4S 3D renormalized
               file O.pbe-rrkjus.UPF: wavefunction(s)  2S renormalized
               file O.pbe-rrkjus.UPF: wavefunction(s)  2S renormalized

     Subspace diagonalization in iterative solution of the eigenvalue problem:
     a serial algorithm will be used


     Parallelization info
     --------------------
     sticks:   dense  smooth     PW     G-vecs:    dense   smooth      PW
     Min        1112     444    131                34808     8786    1448
     Max        1113     445    132                34809     8787    1449
     Sum        2225     889    263                69617    17573    2897


     Title: 
     GGA + U, U = 3.000, alpha = 1D-40                                          


     bravais-lattice index     =            5
     lattice parameter (alat)  =      10.3292  a.u.
     unit-cell volume          =     793.0599 (a.u.)^3
     number of atoms/cell      =           10
     number of atomic types    =            4
     number of electrons       =        76.00
     number of Kohn-Sham states=           46
     kinetic-energy cutoff     =      30.0000  Ry
     charge density cutoff     =     300.0000  Ry
     convergence threshold     =      1.0E-08
     mixing beta               =       0.2000
     number of iterations used =            8  plain     mixing
     Exchange-correlation      =  SLA  PW   PBE  PBE ( 1 4 3 4 0)
     EXX-fraction              =        0.00

     celldm(1)=  10.329242  celldm(2)=   0.000000  celldm(3)=   0.000000
     celldm(4)=   0.488100  celldm(5)=   0.000000  celldm(6)=   0.000000

     crystal axes: (cart. coord. in units of alat)
               a(1) = (   0.505915  -0.292090   0.811624 )  
               a(2) = (   0.000000   0.584180   0.811624 )  
               a(3) = (  -0.505915  -0.292090   0.811624 )  

     reciprocal axes: (cart. coord. in units 2 pi/alat)
               b(1) = (  0.988308 -0.570600  0.410699 )  
               b(2) = (  0.000000  1.141200  0.410699 )  
               b(3) = ( -0.988308 -0.570600  0.410699 )  


     PseudoPot. # 1 for Co read from file:
     /home/mcurnan/dft-course/Project1/example_LaCoO3/Co.pbe-nd-rrkjus.UPF
     MD5 check sum: 3e47a84addf5e975e0edeaeee2a73f59
     Pseudo is Ultrasoft + core correction, Zval =  9.0
     Generated by new atomic code, or converted to UPF format
     Using radial grid of  961 points,  6 beta functions with: 
                l(1) =   0
                l(2) =   0
                l(3) =   1
                l(4) =   1
                l(5) =   2
                l(6) =   2
     Q(r) pseudized with 0 coefficients 


     PseudoPot. # 2 for La read from file:
     /home/mcurnan/dft-course/Project1/example_LaCoO3/La.pbe-nsp-van.UPF
     MD5 check sum: b2f11743f52dde65f77d1302becd7929
     Pseudo is Ultrasoft + core correction, Zval = 11.0
     Generated by new atomic code, or converted to UPF format
     Using radial grid of  907 points,  6 beta functions with: 
                l(1) =   0
                l(2) =   0
                l(3) =   1
                l(4) =   1
                l(5) =   2
                l(6) =   2
     Q(r) pseudized with  6 coefficients,  rinner =    1.200   1.200   1.200
                                                       1.200   1.200

     PseudoPot. # 3 for O  read from file:
     /home/mcurnan/dft-course/Project1/example_LaCoO3/O.pbe-rrkjus.UPF
     MD5 check sum: 390ba29e75625707450f3bd3f0eb6be9
     Pseudo is Ultrasoft, Zval =  6.0
     Generated by new atomic code, or converted to UPF format
     Using radial grid of 1269 points,  4 beta functions with: 
                l(1) =   0
                l(2) =   0
                l(3) =   1
                l(4) =   1
     Q(r) pseudized with 0 coefficients 


     PseudoPot. # 4 for O  read from file:
     /home/mcurnan/dft-course/Project1/example_LaCoO3/O.pbe-rrkjus.UPF
     MD5 check sum: 390ba29e75625707450f3bd3f0eb6be9
     Pseudo is Ultrasoft, Zval =  6.0
     Generated by new atomic code, or converted to UPF format
     Using radial grid of 1269 points,  4 beta functions with: 
                l(1) =   0
                l(2) =   0
                l(3) =   1
                l(4) =   1
     Q(r) pseudized with 0 coefficients 


     atomic species   valence    mass     pseudopotential
        Co1            9.00     1.00000     Co( 1.00)
        La1           11.00     1.00000     La( 1.00)
        O1             6.00     1.00000     O ( 1.00)
        O2             6.00     1.00000     O ( 1.00)
 -----
     simplified LDA+U calculation, Hubbard_lmax = 2
     atomic species  L   Hubbard U  Hubbard alpha
        Co1          2    3.000000    0.000000
        La1          2    0.000000    0.000000
        O1           1    0.000000    0.000000
        O2           1    0.000000    0.000000
 -----

     No symmetry found


                                    s                        frac. trans.

      isym =  1     identity                                     

 cryst.   s( 1) = (     1          0          0      )
                  (     0          1          0      )
                  (     0          0          1      )

 cart.    s( 1) = (  1.0000000  0.0000000  0.0000000 )
                  (  0.0000000  1.0000000  0.0000000 )
                  (  0.0000000  0.0000000  1.0000000 )


     point group C_1 (1)    
     there are  1 classes
     the character table:

       E    
A      1.00

     the symmetry operations in each class:
     E        1

   Cartesian axes

     site n.     atom                  positions (alat units)
         1           Co1 tau(   1) = (   0.2228050  -0.1992639   1.0141240  )
         2           Co1 tau(   2) = (  -0.2831100   0.0928263   1.4199360  )
         3           La1 tau(   3) = (  -0.2831100   0.0928263   0.8112181  )
         4           La1 tau(   4) = (   0.2228050   0.3849164   1.2170300  )
         5           O1  tau(   5) = (   0.0000000   0.0000000   0.0000000  )
         6           O2  tau(   6) = (   0.0008601   0.1861491   1.6232478  )
         7           O2  tau(   7) = (   0.1616398   0.0923297   0.8116239  )
         8           O2  tau(   8) = (  -0.0603051  -0.1064377   1.2166242  )
         9           O2  tau(   9) = (   0.4447499  -0.0004966   1.2166242  )
        10           O2  tau(  10) = (  -0.2219449   0.3854130   1.2166242  )

   Crystallographic axes

     site n.     atom                  positions (cryst. coord.)
         1           Co1 tau(   1) = (  0.7504000  0.1891000  0.3100000  )
         2           Co1 tau(   2) = (  0.2504000  0.6891000  0.8100000  )
         3           La1 tau(   3) = (  0.0004000  0.4391000  0.5600000  )
         4           La1 tau(   4) = (  0.5004000  0.9391000  0.0600000  )
         5           O1  tau(   5) = (  0.0000000  0.0000000  0.0000000  )
         6           O2  tau(   6) = (  0.5613000  0.8791000  0.5596000  )
         7           O2  tau(   7) = (  0.4404000  0.4387000  0.1209000  )
         8           O2  tau(   8) = (  0.5008000  0.3782000  0.6200000  )
         9           O2  tau(   9) = (  0.9395000  0.4991000  0.0604000  )
        10           O2  tau(  10) = (  0.0604000  0.9395000  0.4991000  )

     number of k points=    36  gaussian smearing, width (Ry)=  0.0300
                       cart. coord. in units 2pi/alat
        k(    1) = (   0.0000000   0.0000000   0.0000000), wk =   0.0312500
        k(    2) = (  -0.2470771  -0.1426500   0.1026748), wk =   0.0625000
        k(    3) = (   0.4941541   0.2853000  -0.2053496), wk =   0.0312500
        k(    4) = (  -0.2470771   0.1426500   0.2053496), wk =   0.0625000
        k(    5) = (   0.4941541   0.5706001  -0.1026748), wk =   0.0625000
        k(    6) = (   0.2470771   0.4279500   0.0000000), wk =   0.0625000
        k(    7) = (   0.4941541  -0.2853000  -0.4106993), wk =   0.0312500
        k(    8) = (   0.0000000   0.0000000   0.3080244), wk =   0.0625000
        k(    9) = (   0.7412312   0.4279500   0.0000000), wk =   0.0625000
        k(   10) = (   0.4941541   0.2853000   0.1026748), wk =   0.0625000
        k(   11) = (   0.7412312  -0.4279500  -0.3080244), wk =   0.0625000
        k(   12) = (   0.4941541  -0.5706001  -0.2053496), wk =   0.0625000
        k(   13) = (   0.0000000   0.0000000  -0.6160489), wk =   0.0312500
        k(   14) = (  -0.2470771   0.1426500  -0.1026748), wk =   0.0625000
        k(   15) = (   0.0000000   0.2853000   0.1026748), wk =   0.0625000
        k(   16) = (   0.4941541  -0.2853000   0.2053496), wk =   0.0312500
        k(   17) = (   0.0000000  -0.5706001  -0.2053496), wk =   0.0312500
        k(   18) = (  -0.2470771  -0.1426500  -0.2053496), wk =   0.0625000
        k(   19) = (   0.0000000  -0.2853000   0.2053496), wk =   0.0625000
        k(   20) = (   0.4941541  -0.5706001   0.1026748), wk =   0.0625000
        k(   21) = (  -0.7412312   0.1426500  -0.1026748), wk =   0.0625000
        k(   22) = (   0.2470771  -0.7132501  -0.1026748), wk =   0.0625000
        k(   23) = (  -0.7412312  -0.1426500   0.1026748), wk =   0.0625000
        k(   24) = (   0.2470771   0.7132501   0.1026748), wk =   0.0625000
        k(   25) = (   0.2470771  -0.4279500   0.0000000), wk =   0.0625000
        k(   26) = (  -0.4941541   0.0000000   0.0000000), wk =   0.0625000
        k(   27) = (   0.4941541   0.2853000   0.4106993), wk =   0.0312500
        k(   28) = (   0.0000000   0.5706001  -0.4106993), wk =   0.0312500
        k(   29) = (   0.7412312  -0.4279500   0.0000000), wk =   0.0625000
        k(   30) = (   0.0000000  -0.8559001   0.0000000), wk =   0.0625000
        k(   31) = (   0.4941541  -0.2853000  -0.1026748), wk =   0.0625000
        k(   32) = (   0.0000000  -0.5706001   0.1026748), wk =   0.0625000
        k(   33) = (   0.7412312   0.4279500   0.3080244), wk =   0.0625000
        k(   34) = (   0.0000000   0.8559001  -0.3080244), wk =   0.0625000
        k(   35) = (   0.2470771   0.7132501  -0.2053496), wk =   0.0625000
        k(   36) = (  -0.7412312  -0.1426500  -0.2053496), wk =   0.0625000

                       cryst. coord.
        k(    1) = (   0.0000000   0.0000000   0.0000000), wk =   0.0312500
        k(    2) = (   0.0000000   0.0000000   0.2500000), wk =   0.0625000
        k(    3) = (   0.0000000   0.0000000  -0.5000000), wk =   0.0312500
        k(    4) = (   0.0000000   0.2500000   0.2500000), wk =   0.0625000
        k(    5) = (   0.0000000   0.2500000  -0.5000000), wk =   0.0625000
        k(    6) = (   0.0000000   0.2500000  -0.2500000), wk =   0.0625000
        k(    7) = (   0.0000000  -0.5000000  -0.5000000), wk =   0.0312500
        k(    8) = (   0.2500000   0.2500000   0.2500000), wk =   0.0625000
        k(    9) = (   0.2500000   0.2500000  -0.5000000), wk =   0.0625000
        k(   10) = (   0.2500000   0.2500000  -0.2500000), wk =   0.0625000
        k(   11) = (   0.2500000  -0.5000000  -0.5000000), wk =   0.0625000
        k(   12) = (   0.2500000  -0.5000000  -0.2500000), wk =   0.0625000
        k(   13) = (  -0.5000000  -0.5000000  -0.5000000), wk =   0.0312500
        k(   14) = (  -0.2500000   0.0000000   0.0000000), wk =   0.0625000
        k(   15) = (   0.0000000   0.2500000   0.0000000), wk =   0.0625000
        k(   16) = (   0.5000000   0.0000000   0.0000000), wk =   0.0312500
        k(   17) = (   0.0000000  -0.5000000   0.0000000), wk =   0.0312500
        k(   18) = (  -0.2500000  -0.2500000   0.0000000), wk =   0.0625000
        k(   19) = (   0.2500000   0.0000000   0.2500000), wk =   0.0625000
        k(   20) = (   0.5000000  -0.2500000   0.0000000), wk =   0.0625000
        k(   21) = (  -0.5000000   0.0000000   0.2500000), wk =   0.0625000
        k(   22) = (   0.2500000  -0.5000000   0.0000000), wk =   0.0625000
        k(   23) = (  -0.2500000   0.0000000   0.5000000), wk =   0.0625000
        k(   24) = (   0.0000000   0.5000000  -0.2500000), wk =   0.0625000
        k(   25) = (   0.2500000  -0.2500000   0.0000000), wk =   0.0625000
        k(   26) = (  -0.2500000   0.0000000   0.2500000), wk =   0.0625000
        k(   27) = (   0.5000000   0.5000000   0.0000000), wk =   0.0312500
        k(   28) = (  -0.5000000   0.0000000  -0.5000000), wk =   0.0312500
        k(   29) = (   0.5000000  -0.2500000  -0.2500000), wk =   0.0625000
        k(   30) = (   0.2500000  -0.5000000   0.2500000), wk =   0.0625000
        k(   31) = (   0.2500000  -0.2500000  -0.2500000), wk =   0.0625000
        k(   32) = (   0.2500000  -0.2500000   0.2500000), wk =   0.0625000
        k(   33) = (   0.5000000   0.5000000  -0.2500000), wk =   0.0625000
        k(   34) = (  -0.5000000   0.2500000  -0.5000000), wk =   0.0625000
        k(   35) = (  -0.2500000   0.2500000  -0.5000000), wk =   0.0625000
        k(   36) = (  -0.5000000  -0.2500000   0.2500000), wk =   0.0625000

     Dense  grid:    69617 G-vectors     FFT dimensions: (  60,  60,  60)

     Smooth grid:    17573 G-vectors     FFT dimensions: (  40,  40,  40)

     Largest allocated arrays     est. size (Mb)     dimensions
        Kohn-Sham Wavefunctions         0.79 Mb     (   1119,   46)
        Atomic wavefunctions            1.06 Mb     (   1119,   62)
        NL pseudopotentials             2.05 Mb     (   1119,  120)
        Each V/rho on FFT grid          1.65 Mb     ( 108000)
        Each G-vector array             0.27 Mb     (  34808)
        G-vector shells                 0.04 Mb     (   4682)
     Largest temporary arrays     est. size (Mb)     dimensions
        Auxiliary wavefunctions         3.14 Mb     (   1119,  184)
        Each subspace H/S matrix        0.52 Mb     ( 184, 184)
        Each <psi_i|beta_j> matrix      0.08 Mb     (    120,   46)
        Arrays for rho mixing          13.18 Mb     ( 108000,   8)

     Check: negative/imaginary core charge=   -0.000028    0.000000

     The initial density is read from file :
     /home/mcurnan/dft-course/Project1/example_LaCoO3/300/O/alpha/CoLaO_U300.save/charge-density.dat

 --- in v_hubbard ---
Hubbard energy    0.2871
 -------
     Number of +U iterations with fixed ns =  0
     Starting occupations:
 --- enter write_ns ---
 LDA+U parameters:
U( 1)     =  3.00000000
alpha( 1) =  0.00000000
U( 2)     =  0.00000000
alpha( 2) =  0.00000000
U( 3)     =  0.00000000
alpha( 3) =  0.00000000
U( 4)     =  0.00000000
alpha( 4) =  0.00000000
atom    1   Tr[ns(na)] =   8.02205
    eigenvalues: 
  0.596  0.596  0.938  0.941  0.941
    eigenvectors:
  0.000  0.000  1.000  0.000  0.000
  0.057  0.598  0.000  0.178  0.167
  0.598  0.057  0.000  0.167  0.178
  0.210  0.135  0.000  0.095  0.560
  0.135  0.210  0.000  0.560  0.095
    occupations:
  0.938  0.000  0.000  0.000  0.000
  0.000  0.715  0.000 -0.060  0.152
  0.000  0.000  0.715  0.152  0.060
  0.000 -0.060  0.152  0.822  0.000
  0.000  0.152  0.060  0.000  0.822
atom    2   Tr[ns(na)] =   8.02142
    eigenvalues: 
  0.595  0.595  0.938  0.941  0.941
    eigenvectors:
  0.000  0.000  1.000  0.000  0.000
  0.332  0.323  0.000  0.023  0.322
  0.323  0.332  0.000  0.322  0.023
  0.288  0.057  0.000  0.647  0.008
  0.057  0.288  0.000  0.008  0.647
    occupations:
  0.938  0.000  0.000  0.000  0.000
  0.000  0.715  0.000  0.060  0.153
  0.000  0.000  0.715  0.153 -0.060
  0.000  0.060  0.153  0.822  0.000
  0.000  0.153 -0.060  0.000  0.822
atom    3   Tr[ns(na)] =   3.80282
    eigenvalues: 
  0.355  0.355  0.384  0.403  0.403
    eigenvectors:
  0.000  0.000  1.000  0.000  0.000
  0.065  0.856  0.000  0.058  0.021
  0.856  0.065  0.000  0.021  0.058
  0.073  0.006  0.000  0.250  0.670
  0.006  0.073  0.000  0.670  0.250
    occupations:
  0.384  0.000  0.000  0.000  0.000
  0.000  0.359  0.000  0.000  0.013
  0.000  0.000  0.359  0.013  0.000
  0.000  0.000  0.013  0.399  0.000
  0.000  0.013  0.000  0.000  0.399
atom    4   Tr[ns(na)] =   3.80282
    eigenvalues: 
  0.355  0.355  0.384  0.403  0.403
    eigenvectors:
  0.000  0.000  1.000  0.000  0.000
  0.729  0.192  0.000  0.048  0.032
  0.192  0.729  0.000  0.032  0.048
  0.017  0.062  0.000  0.359  0.562
  0.062  0.017  0.000  0.562  0.359
    occupations:
  0.384  0.000  0.000  0.000  0.000
  0.000  0.359  0.000  0.000  0.013
  0.000  0.000  0.359  0.013  0.000
  0.000  0.000  0.013  0.399  0.000
  0.000  0.013  0.000  0.000  0.399
atom    5   Tr[ns(na)] =   5.43357
    eigenvalues: 
  0.846  0.929  0.941
    eigenvectors:
  0.340  0.000  0.660
  0.496  0.250  0.255
  0.164  0.750  0.086
    occupations:
  0.909 -0.039  0.022
 -0.039  0.891  0.022
  0.022  0.022  0.917
atom    6   Tr[ns(na)] =   5.43358
    eigenvalues: 
  0.846  0.929  0.941
    eigenvectors:
  0.340  0.000  0.660
  0.494  0.250  0.256
  0.166  0.750  0.085
    occupations:
  0.909  0.039  0.022
  0.039  0.891 -0.022
  0.022 -0.022  0.917
atom    7   Tr[ns(na)] =   5.43358
    eigenvalues: 
  0.846  0.929  0.941
    eigenvectors:
  0.340  0.000  0.660
  0.000  1.000  0.000
  0.660  0.000  0.340
    occupations:
  0.909  0.000 -0.045
  0.000  0.929  0.000
 -0.045  0.000  0.879
atom    8   Tr[ns(na)] =   5.43357
    eigenvalues: 
  0.846  0.929  0.941
    eigenvectors:
  0.340  0.000  0.660
  0.496  0.250  0.255
  0.164  0.750  0.086
    occupations:
  0.909 -0.039  0.022
 -0.039  0.891  0.022
  0.022  0.022  0.917
atom    9   Tr[ns(na)] =   5.43358
    eigenvalues: 
  0.846  0.929  0.941
    eigenvectors:
  0.340  0.000  0.660
  0.494  0.250  0.256
  0.166  0.750  0.085
    occupations:
  0.909  0.039  0.022
  0.039  0.891 -0.022
  0.022 -0.022  0.917
atom   10   Tr[ns(na)] =   5.43358
    eigenvalues: 
  0.846  0.929  0.941
    eigenvectors:
  0.340  0.000  0.660
  0.000  1.000  0.000
  0.660  0.000  0.340
    occupations:
  0.909  0.000 -0.045
  0.000  0.929  0.000
 -0.045  0.000  0.879
N of occupied +U levels =  56.2505796
 --- exit write_ns ---
 LDA+U Projector read from file 
     Starting wfc from file

     total cpu time spent up to now is        7.6 secs

     per-process dynamical memory:    62.8 Mb

     Self-consistent Calculation

     iteration #  1     ecut=    30.00 Ry     beta=0.20
     Davidson diagonalization with overlap
     c_bands:  1 eigenvalues not converged
     c_bands:  1 eigenvalues not converged
     c_bands:  1 eigenvalues not converged
     c_bands:  1 eigenvalues not converged
     c_bands:  1 eigenvalues not converged
     c_bands:  1 eigenvalues not converged
     c_bands:  1 eigenvalues not converged
     c_bands:  1 eigenvalues not converged
     c_bands:  1 eigenvalues not converged
     c_bands:  1 eigenvalues not converged
     c_bands:  1 eigenvalues not converged
     c_bands:  1 eigenvalues not converged
     c_bands:  1 eigenvalues not converged
     c_bands:  1 eigenvalues not converged
     c_bands:  1 eigenvalues not converged
     c_bands:  1 eigenvalues not converged
     c_bands:  1 eigenvalues not converged
     c_bands:  1 eigenvalues not converged
     c_bands:  1 eigenvalues not converged
     ethr =  1.00E-10,  avg # of iterations = 16.6
 --- enter write_ns ---
 LDA+U parameters:
U( 1)     =  3.00000000
alpha( 1) =  0.00000000
U( 2)     =  0.00000000
alpha( 2) =  0.00000000
U( 3)     =  0.00000000
alpha( 3) =  0.00000000
U( 4)     =  0.00000000
alpha( 4) =  0.00000000
atom    1   Tr[ns(na)] =   8.15454
    eigenvalues: 
  0.563  0.563  0.983  0.983  0.985
    eigenvectors:
  0.000  0.000  0.000  0.000  1.000
  0.014  0.640  0.173  0.173  0.000
  0.640  0.014  0.173  0.173  0.000
  0.263  0.083  0.108  0.547  0.000
  0.083  0.263  0.547  0.108  0.000
    occupations:
  0.985  0.000  0.000  0.000  0.000
  0.000  0.708  0.000 -0.071  0.186
  0.000  0.000  0.708  0.186  0.071
  0.000 -0.071  0.186  0.838  0.000
  0.000  0.186  0.071  0.000  0.838
atom    2   Tr[ns(na)] =   8.14719
    eigenvalues: 
  0.561  0.561  0.983  0.983  0.985
    eigenvectors:
  0.000  0.000  0.000  0.000  1.000
  0.364  0.291  0.002  0.343  0.000
  0.291  0.364  0.343  0.002  0.000
  0.272  0.073  0.604  0.050  0.000
  0.073  0.272  0.050  0.604  0.000
    occupations:
  0.985  0.000  0.000  0.000  0.000
  0.000  0.707  0.000  0.071  0.188
  0.000  0.000  0.707  0.188 -0.071
  0.000  0.071  0.188  0.837  0.000
  0.000  0.188 -0.071  0.000  0.837
atom    3   Tr[ns(na)] =   3.79554
    eigenvalues: 
  0.356  0.356  0.382  0.402  0.402
    eigenvectors:
  0.000  0.000  1.000  0.000  0.000
  0.039  0.880  0.000  0.050  0.032
  0.880  0.039  0.000  0.032  0.050
  0.078  0.004  0.000  0.365  0.553
  0.004  0.078  0.000  0.553  0.365
    occupations:
  0.382  0.000  0.000  0.000  0.000
  0.000  0.360  0.000  0.000  0.013
  0.000  0.000  0.360  0.013  0.000
  0.000  0.000  0.013  0.398  0.000
  0.000  0.013  0.000  0.000  0.398
atom    4   Tr[ns(na)] =   3.79554
    eigenvalues: 
  0.356  0.356  0.382  0.402  0.402
    eigenvectors:
  0.000  0.000  1.000  0.000  0.000
  0.711  0.207  0.000  0.052  0.029
  0.207  0.711  0.000  0.029  0.052
  0.019  0.063  0.000  0.323  0.595
  0.063  0.019  0.000  0.595  0.323
    occupations:
  0.382  0.000  0.000  0.000  0.000
  0.000  0.360  0.000  0.000  0.013
  0.000  0.000  0.360  0.013  0.000
  0.000  0.000  0.013  0.398  0.000
  0.000  0.013  0.000  0.000  0.398
atom    5   Tr[ns(na)] =   5.40278
    eigenvalues: 
  0.832  0.926  0.944
    eigenvectors:
  0.341  0.000  0.659
  0.495  0.250  0.255
  0.164  0.750  0.086
    occupations:
  0.906 -0.046  0.026
 -0.046  0.884  0.024
  0.026  0.024  0.912
atom    6   Tr[ns(na)] =   5.40279
    eigenvalues: 
  0.832  0.926  0.944
    eigenvectors:
  0.341  0.000  0.659
  0.494  0.250  0.256
  0.165  0.750  0.085
    occupations:
  0.906  0.046  0.026
  0.046  0.884 -0.024
  0.026 -0.024  0.912
atom    7   Tr[ns(na)] =   5.40279
    eigenvalues: 
  0.832  0.926  0.944
    eigenvectors:
  0.341  0.000  0.659
  0.000  1.000  0.000
  0.659  0.000  0.341
    occupations:
  0.906  0.000 -0.053
  0.000  0.926  0.000
 -0.053  0.000  0.870
atom    8   Tr[ns(na)] =   5.40278
    eigenvalues: 
  0.832  0.926  0.944
    eigenvectors:
  0.341  0.000  0.659
  0.495  0.250  0.255
  0.164  0.750  0.086
    occupations:
  0.906 -0.046  0.026
 -0.046  0.884  0.024
  0.026  0.024  0.912
atom    9   Tr[ns(na)] =   5.40278
    eigenvalues: 
  0.832  0.926  0.944
    eigenvectors:
  0.341  0.000  0.659
  0.494  0.250  0.256
  0.165  0.750  0.085
    occupations:
  0.906  0.046  0.026
  0.046  0.884 -0.024
  0.026 -0.024  0.912
atom   10   Tr[ns(na)] =   5.40279
    eigenvalues: 
  0.832  0.926  0.944
    eigenvectors:
  0.341  0.000  0.659
  0.000  1.000  0.000
  0.659  0.000  0.341
    occupations:
  0.906  0.000 -0.053
  0.000  0.926  0.000
 -0.053  0.000  0.870
N of occupied +U levels =  56.3095038
 --- exit write_ns ---
 --- in v_hubbard ---
Hubbard energy    0.2779
 -------

     total cpu time spent up to now is      114.9 secs

     total energy              =    -538.06925606 Ry
     Harris-Foulkes estimate   =    -538.07345567 Ry
     estimated scf accuracy    <       0.02357956 Ry

     iteration #  2     ecut=    30.00 Ry     beta=0.20
     Davidson diagonalization with overlap
     ethr =  3.10E-05,  avg # of iterations =  1.4
 --- enter write_ns ---
 LDA+U parameters:
U( 1)     =  3.00000000
alpha( 1) =  0.00000000
U( 2)     =  0.00000000
alpha( 2) =  0.00000000
U( 3)     =  0.00000000
alpha( 3) =  0.00000000
U( 4)     =  0.00000000
alpha( 4) =  0.00000000
atom    1   Tr[ns(na)] =   8.02886
    eigenvalues: 
  0.531  0.531  0.983  0.983  0.986
    eigenvectors:
  0.000  0.000  0.000  0.000  1.000
  0.044  0.611  0.024  0.321  0.000
  0.611  0.044  0.321  0.024  0.000
  0.224  0.121  0.424  0.231  0.000
  0.121  0.224  0.231  0.424  0.000
    occupations:
  0.986  0.000  0.000  0.000  0.000
  0.000  0.687  0.000 -0.078  0.200
  0.000  0.000  0.687  0.200  0.078
  0.000 -0.078  0.200  0.827  0.000
  0.000  0.200  0.078  0.000  0.827
atom    2   Tr[ns(na)] =   8.03560
    eigenvalues: 
  0.531  0.531  0.985  0.985  0.987
    eigenvectors:
  0.000  0.000  0.000  0.000  1.000
  0.432  0.223  0.120  0.224  0.000
  0.223  0.432  0.224  0.120  0.000
  0.242  0.103  0.611  0.044  0.000
  0.103  0.242  0.044  0.611  0.000
    occupations:
  0.987  0.000  0.000  0.000  0.000
  0.000  0.687  0.000  0.078  0.201
  0.000  0.000  0.687  0.201 -0.078
  0.000  0.078  0.201  0.828  0.000
  0.000  0.201 -0.078  0.000  0.828
atom    3   Tr[ns(na)] =   3.79275
    eigenvalues: 
  0.355  0.355  0.382  0.402  0.402
    eigenvectors:
  0.000  0.000  1.000  0.000  0.000
  0.195  0.725  0.000  0.076  0.004
  0.725  0.195  0.000  0.004  0.076
  0.064  0.016  0.000  0.049  0.871
  0.016  0.064  0.000  0.871  0.049
    occupations:
  0.382  0.000  0.000  0.000  0.000
  0.000  0.359  0.000  0.000  0.013
  0.000  0.000  0.359  0.013  0.000
  0.000  0.000  0.013  0.398  0.000
  0.000  0.013  0.000  0.000  0.398
atom    4   Tr[ns(na)] =   3.79276
    eigenvalues: 
  0.355  0.355  0.382  0.402  0.402
    eigenvectors:
  0.000  0.000  1.000  0.000  0.000
  0.380  0.540  0.000  0.077  0.003
  0.540  0.380  0.000  0.003  0.077
  0.048  0.032  0.000  0.040  0.880
  0.032  0.048  0.000  0.880  0.040
    occupations:
  0.382  0.000  0.000  0.000  0.000
  0.000  0.359  0.000  0.000  0.013
  0.000  0.000  0.359  0.013  0.000
  0.000  0.000  0.013  0.398  0.000
  0.000  0.013  0.000  0.000  0.398
atom    5   Tr[ns(na)] =   5.44033
    eigenvalues: 
  0.843  0.931  0.947
    eigenvectors:
  0.337  0.000  0.663
  0.496  0.251  0.252
  0.167  0.749  0.085
    occupations:
  0.912 -0.042  0.025
 -0.042  0.891  0.023
  0.025  0.023  0.917
atom    6   Tr[ns(na)] =   5.44034
    eigenvalues: 
  0.843  0.931  0.947
    eigenvectors:
  0.337  0.000  0.663
  0.498  0.249  0.254
  0.165  0.751  0.084
    occupations:
  0.912  0.042  0.024
  0.042  0.891 -0.023
  0.024 -0.023  0.917
atom    7   Tr[ns(na)] =   5.44034
    eigenvalues: 
  0.843  0.931  0.947
    eigenvectors:
  0.337  0.000  0.663
  0.000  1.000  0.000
  0.663  0.000  0.337
    occupations:
  0.912  0.000 -0.049
  0.000  0.931  0.000
 -0.049  0.000  0.878
atom    8   Tr[ns(na)] =   5.44033
    eigenvalues: 
  0.843  0.931  0.947
    eigenvectors:
  0.337  0.000  0.663
  0.496  0.251  0.252
  0.167  0.749  0.085
    occupations:
  0.912 -0.042  0.025
 -0.042  0.891  0.023
  0.025  0.023  0.917
atom    9   Tr[ns(na)] =   5.44033
    eigenvalues: 
  0.843  0.931  0.947
    eigenvectors:
  0.337  0.000  0.663
  0.498  0.249  0.254
  0.165  0.751  0.084
    occupations:
  0.912  0.042  0.024
  0.042  0.891 -0.023
  0.024 -0.023  0.917
atom   10   Tr[ns(na)] =   5.44033
    eigenvalues: 
  0.843  0.931  0.947
    eigenvectors:
  0.337  0.000  0.663
  0.000  1.000  0.000
  0.663  0.000  0.337
    occupations:
  0.912  0.000 -0.049
  0.000  0.931  0.000
 -0.049  0.000  0.878
N of occupied +U levels =  56.2919675
 --- exit write_ns ---
 --- in v_hubbard ---
Hubbard energy    0.2736
 -------

     total cpu time spent up to now is      150.3 secs

     total energy              =    -538.07313460 Ry
     Harris-Foulkes estimate   =    -538.07310026 Ry
     estimated scf accuracy    <       0.01448308 Ry

     iteration #  3     ecut=    30.00 Ry     beta=0.20
     Davidson diagonalization with overlap
     ethr =  1.91E-05,  avg # of iterations =  1.0
 --- enter write_ns ---
 LDA+U parameters:
U( 1)     =  3.00000000
alpha( 1) =  0.00000000
U( 2)     =  0.00000000
alpha( 2) =  0.00000000
U( 3)     =  0.00000000
alpha( 3) =  0.00000000
U( 4)     =  0.00000000
alpha( 4) =  0.00000000
atom    1   Tr[ns(na)] =   8.06278
    eigenvalues: 
  0.539  0.539  0.984  0.984  0.986
    eigenvectors:
  0.000  0.000  0.000  0.000  1.000
  0.062  0.594  0.074  0.270  0.000
  0.594  0.062  0.270  0.074  0.000
  0.207  0.137  0.284  0.372  0.000
  0.137  0.207  0.372  0.284  0.000
    occupations:
  0.986  0.000  0.000  0.000  0.000
  0.000  0.692  0.000 -0.077  0.197
  0.000  0.000  0.692  0.197  0.077
  0.000 -0.077  0.197  0.831  0.000
  0.000  0.197  0.077  0.000  0.831
atom    2   Tr[ns(na)] =   8.05546
    eigenvalues: 
  0.536  0.536  0.985  0.985  0.987
    eigenvectors:
  0.000  0.000  0.000  0.000  1.000
  0.403  0.252  0.089  0.256  0.000
  0.252  0.403  0.256  0.089  0.000
  0.255  0.089  0.638  0.018  0.000
  0.089  0.255  0.018  0.638  0.000
    occupations:
  0.987  0.000  0.000  0.000  0.000
  0.000  0.690  0.000  0.077  0.199
  0.000  0.000  0.690  0.199 -0.077
  0.000  0.077  0.199  0.830  0.000
  0.000  0.199 -0.077  0.000  0.830
atom    3   Tr[ns(na)] =   3.79289
    eigenvalues: 
  0.356  0.356  0.382  0.402  0.402
    eigenvectors:
  0.000  0.000  1.000  0.000  0.000
  0.117  0.804  0.000  0.074  0.005
  0.804  0.117  0.000  0.005  0.074
  0.070  0.010  0.000  0.067  0.854
  0.010  0.070  0.000  0.854  0.067
    occupations:
  0.382  0.000  0.000  0.000  0.000
  0.000  0.359  0.000  0.000  0.013
  0.000  0.000  0.359  0.013  0.000
  0.000  0.000  0.013  0.398  0.000
  0.000  0.013  0.000  0.000  0.398
atom    4   Tr[ns(na)] =   3.79289
    eigenvalues: 
  0.356  0.356  0.382  0.402  0.402
    eigenvectors:
  0.000  0.000  1.000  0.000  0.000
  0.551  0.369  0.000  0.077  0.003
  0.369  0.551  0.000  0.003  0.077
  0.033  0.047  0.000  0.035  0.885
  0.047  0.033  0.000  0.885  0.035
    occupations:
  0.382  0.000  0.000  0.000  0.000
  0.000  0.359  0.000  0.000  0.013
  0.000  0.000  0.359  0.013  0.000
  0.000  0.000  0.013  0.398  0.000
  0.000  0.013  0.000  0.000  0.398
atom    5   Tr[ns(na)] =   5.43198
    eigenvalues: 
  0.840  0.930  0.946
    eigenvectors:
  0.338  0.000  0.662
  0.497  0.250  0.253
  0.165  0.750  0.085
    occupations:
  0.910 -0.043  0.025
 -0.043  0.889  0.023
  0.025  0.023  0.916
atom    6   Tr[ns(na)] =   5.43199
    eigenvalues: 
  0.840  0.930  0.946
    eigenvectors:
  0.338  0.000  0.662
  0.496  0.250  0.254
  0.166  0.750  0.084
    occupations:
  0.910  0.043  0.025
  0.043  0.890 -0.023
  0.025 -0.023  0.916
atom    7   Tr[ns(na)] =   5.43199
    eigenvalues: 
  0.840  0.930  0.946
    eigenvectors:
  0.338  0.000  0.662
  0.000  1.000  0.000
  0.662  0.000  0.338
    occupations:
  0.910  0.000 -0.050
  0.000  0.930  0.000
 -0.050  0.000  0.876
atom    8   Tr[ns(na)] =   5.43198
    eigenvalues: 
  0.840  0.930  0.946
    eigenvectors:
  0.338  0.000  0.662
  0.497  0.250  0.253
  0.165  0.750  0.085
    occupations:
  0.910 -0.043  0.025
 -0.043  0.889  0.023
  0.025  0.023  0.916
atom    9   Tr[ns(na)] =   5.43199
    eigenvalues: 
  0.840  0.930  0.946
    eigenvectors:
  0.338  0.000  0.662
  0.496  0.250  0.254
  0.166  0.750  0.084
    occupations:
  0.910  0.043  0.025
  0.043  0.890 -0.023
  0.025 -0.023  0.916
atom   10   Tr[ns(na)] =   5.43199
    eigenvalues: 
  0.840  0.930  0.946
    eigenvectors:
  0.338  0.000  0.662
  0.000  1.000  0.000
  0.662  0.000  0.338
    occupations:
  0.910  0.000 -0.050
  0.000  0.930  0.000
 -0.050  0.000  0.876
N of occupied +U levels =  56.2959494
 --- exit write_ns ---
 --- in v_hubbard ---
Hubbard energy    0.2434
 -------

     total cpu time spent up to now is      186.3 secs

     total energy              =    -538.07529976 Ry
     Harris-Foulkes estimate   =    -538.07342358 Ry
     estimated scf accuracy    <       0.00753198 Ry

     iteration #  4     ecut=    30.00 Ry     beta=0.20
     Davidson diagonalization with overlap
     ethr =  9.91E-06,  avg # of iterations =  1.0
 --- enter write_ns ---
 LDA+U parameters:
U( 1)     =  3.00000000
alpha( 1) =  0.00000000
U( 2)     =  0.00000000
alpha( 2) =  0.00000000
U( 3)     =  0.00000000
alpha( 3) =  0.00000000
U( 4)     =  0.00000000
alpha( 4) =  0.00000000
atom    1   Tr[ns(na)] =   8.02877
    eigenvalues: 
  0.530  0.530  0.984  0.984  0.986
    eigenvectors:
  0.000  0.000  0.000  0.000  1.000
  0.102  0.556  0.159  0.182  0.000
  0.556  0.102  0.182  0.159  0.000
  0.175  0.167  0.125  0.533  0.000
  0.167  0.175  0.533  0.125  0.000
    occupations:
  0.986  0.000  0.000  0.000  0.000
  0.000  0.685  0.000 -0.078  0.201
  0.000  0.000  0.685  0.201  0.078
  0.000 -0.078  0.201  0.829  0.000
  0.000  0.201  0.078  0.000  0.829
atom    2   Tr[ns(na)] =   8.09786
    eigenvalues: 
  0.541  0.541  0.989  0.989  0.991
    eigenvectors:
  0.000  0.000  0.000  0.000  1.000
  0.392  0.266  0.003  0.339  0.000
  0.266  0.392  0.339  0.003  0.000
  0.261  0.081  0.526  0.132  0.000
  0.081  0.261  0.132  0.526  0.000
    occupations:
  0.991  0.000  0.000  0.000  0.000
  0.000  0.694  0.000  0.078  0.198
  0.000  0.000  0.694  0.198 -0.078
  0.000  0.078  0.198  0.835  0.000
  0.000  0.198 -0.078  0.000  0.835
atom    3   Tr[ns(na)] =   3.79607
    eigenvalues: 
  0.356  0.356  0.382  0.402  0.402
    eigenvectors:
  0.000  0.000  1.000  0.000  0.000
  0.777  0.144  0.000  0.003  0.075
  0.144  0.777  0.000  0.075  0.003
  0.012  0.066  0.000  0.887  0.034
  0.067  0.012  0.000  0.034  0.887
    occupations:
  0.382  0.000  0.000  0.000  0.000
  0.000  0.360  0.000  0.000  0.012
  0.000  0.000  0.360  0.012  0.000
  0.000  0.000  0.012  0.398  0.000
  0.000  0.012  0.000  0.000  0.398
atom    4   Tr[ns(na)] =   3.79606
    eigenvalues: 
  0.356  0.356  0.382  0.402  0.402
    eigenvectors:
  0.000  0.000  1.000  0.000  0.000
  0.896  0.025  0.000  0.002  0.076
  0.025  0.896  0.000  0.076  0.002
  0.002  0.076  0.000  0.896  0.026
  0.076  0.002  0.000  0.026  0.896
    occupations:
  0.382  0.000  0.000  0.000  0.000
  0.000  0.360  0.000  0.000  0.012
  0.000  0.000  0.360  0.012  0.000
  0.000  0.000  0.012  0.398  0.000
  0.000  0.012  0.000  0.000  0.398
atom    5   Tr[ns(na)] =   5.42896
    eigenvalues: 
  0.839  0.929  0.946
    eigenvectors:
  0.338  0.000  0.662
  0.490  0.258  0.252
  0.172  0.742  0.086
    occupations:
  0.910 -0.043  0.026
 -0.043  0.889  0.024
  0.026  0.024  0.915
atom    6   Tr[ns(na)] =   5.42898
    eigenvalues: 
  0.839  0.929  0.946
    eigenvectors:
  0.338  0.000  0.662
  0.503  0.242  0.255
  0.159  0.758  0.083
    occupations:
  0.910  0.044  0.025
  0.044  0.888 -0.023
  0.025 -0.023  0.916
atom    7   Tr[ns(na)] =   5.42898
    eigenvalues: 
  0.839  0.929  0.946
    eigenvectors:
  0.338  0.000  0.662
  0.000  1.000  0.000
  0.662  0.000  0.338
    occupations:
  0.910 -0.001 -0.050
 -0.001  0.929 -0.001
 -0.050 -0.001  0.875
atom    8   Tr[ns(na)] =   5.42897
    eigenvalues: 
  0.839  0.929  0.946
    eigenvectors:
  0.338  0.000  0.662
  0.490  0.258  0.252
  0.172  0.742  0.086
    occupations:
  0.910 -0.043  0.026
 -0.043  0.889  0.024
  0.026  0.024  0.915
atom    9   Tr[ns(na)] =   5.42898
    eigenvalues: 
  0.839  0.929  0.946
    eigenvectors:
  0.338  0.000  0.662
  0.503  0.242  0.255
  0.159  0.758  0.083
    occupations:
  0.910  0.044  0.025
  0.044  0.888 -0.023
  0.025 -0.023  0.916
atom   10   Tr[ns(na)] =   5.42898
    eigenvalues: 
  0.839  0.929  0.946
    eigenvectors:
  0.338  0.000  0.662
  0.000  1.000  0.000
  0.662  0.000  0.338
    occupations:
  0.910 -0.001 -0.050
 -0.001  0.929 -0.001
 -0.050 -0.001  0.875
N of occupied +U levels =  56.2926009
 --- exit write_ns ---
 --- in v_hubbard ---
Hubbard energy    0.2353
 -------

     total cpu time spent up to now is      220.0 secs

     total energy              =    -538.07546087 Ry
     Harris-Foulkes estimate   =    -538.07584545 Ry
     estimated scf accuracy    <       0.00351949 Ry

     iteration #  5     ecut=    30.00 Ry     beta=0.20
     Davidson diagonalization with overlap
     ethr =  4.63E-06,  avg # of iterations =  1.0
 --- enter write_ns ---
 LDA+U parameters:
U( 1)     =  3.00000000
alpha( 1) =  0.00000000
U( 2)     =  0.00000000
alpha( 2) =  0.00000000
U( 3)     =  0.00000000
alpha( 3) =  0.00000000
U( 4)     =  0.00000000
alpha( 4) =  0.00000000
atom    1   Tr[ns(na)] =   8.05991
    eigenvalues: 
  0.534  0.534  0.987  0.987  0.989
    eigenvectors:
  0.000  0.000  0.000  0.000  1.000
  0.100  0.559  0.168  0.173  0.000
  0.559  0.100  0.173  0.168  0.000
  0.175  0.167  0.109  0.549  0.000
  0.167  0.175  0.549  0.109  0.000
    occupations:
  0.989  0.000  0.000  0.000  0.000
  0.000  0.688  0.000 -0.078  0.200
  0.000  0.000  0.688  0.200  0.078
  0.000 -0.078  0.200  0.832  0.000
  0.000  0.200  0.078  0.000  0.832
atom    2   Tr[ns(na)] =   8.05836
    eigenvalues: 
  0.532  0.532  0.988  0.988  0.990
    eigenvectors:
  0.000  0.000  0.000  0.000  1.000
  0.399  0.259  0.001  0.341  0.000
  0.259  0.399  0.341  0.001  0.000
  0.256  0.085  0.592  0.067  0.000
  0.085  0.256  0.067  0.592  0.000
    occupations:
  0.990  0.000  0.000  0.000  0.000
  0.000  0.688  0.000  0.078  0.201
  0.000  0.000  0.688  0.201 -0.078
  0.000  0.078  0.201  0.832  0.000
  0.000  0.201 -0.078  0.000  0.832
atom    3   Tr[ns(na)] =   3.79693
    eigenvalues: 
  0.356  0.356  0.382  0.402  0.402
    eigenvectors:
  0.000  0.000  1.000  0.000  0.000
  0.572  0.350  0.000  0.000  0.078
  0.350  0.572  0.000  0.078  0.000
  0.029  0.049  0.000  0.922  0.000
  0.049  0.029  0.000  0.000  0.922
    occupations:
  0.382  0.000  0.000  0.000  0.000
  0.000  0.360  0.000  0.000  0.012
  0.000  0.000  0.360  0.012  0.000
  0.000  0.000  0.012  0.398  0.000
  0.000  0.012  0.000  0.000  0.398
atom    4   Tr[ns(na)] =   3.79692
    eigenvalues: 
  0.356  0.356  0.382  0.402  0.402
    eigenvectors:
  0.000  0.000  1.000  0.000  0.000
  0.815  0.106  0.000  0.003  0.075
  0.106  0.815  0.000  0.075  0.003
  0.009  0.069  0.000  0.882  0.040
  0.069  0.009  0.000  0.040  0.882
    occupations:
  0.382  0.000  0.000  0.000  0.000
  0.000  0.360  0.000  0.000  0.012
  0.000  0.000  0.360  0.012  0.000
  0.000  0.000  0.012  0.398  0.000
  0.000  0.012  0.000  0.000  0.398
atom    5   Tr[ns(na)] =   5.42979
    eigenvalues: 
  0.840  0.929  0.946
    eigenvectors:
  0.338  0.000  0.662
  0.497  0.251  0.253
  0.166  0.749  0.085
    occupations:
  0.910 -0.044  0.025
 -0.044  0.889  0.023
  0.025  0.023  0.916
atom    6   Tr[ns(na)] =   5.42981
    eigenvalues: 
  0.840  0.929  0.946
    eigenvectors:
  0.338  0.000  0.662
  0.497  0.249  0.254
  0.165  0.751  0.084
    occupations:
  0.910  0.044  0.025
  0.044  0.889 -0.023
  0.025 -0.023  0.916
atom    7   Tr[ns(na)] =   5.42981
    eigenvalues: 
  0.840  0.929  0.946
    eigenvectors:
  0.338  0.000  0.662
  0.000  1.000  0.000
  0.662  0.000  0.338
    occupations:
  0.910  0.000 -0.050
  0.000  0.929  0.000
 -0.050  0.000  0.875
atom    8   Tr[ns(na)] =   5.42980
    eigenvalues: 
  0.840  0.929  0.946
    eigenvectors:
  0.338  0.000  0.662
  0.497  0.251  0.253
  0.166  0.749  0.085
    occupations:
  0.910 -0.044  0.025
 -0.044  0.889  0.023
  0.025  0.023  0.916
atom    9   Tr[ns(na)] =   5.42981
    eigenvalues: 
  0.840  0.929  0.946
    eigenvectors:
  0.338  0.000  0.662
  0.497  0.249  0.254
  0.165  0.751  0.084
    occupations:
  0.910  0.044  0.025
  0.044  0.889 -0.023
  0.025 -0.023  0.916
atom   10   Tr[ns(na)] =   5.42980
    eigenvalues: 
  0.840  0.929  0.946
    eigenvectors:
  0.338  0.000  0.662
  0.000  1.000  0.000
  0.662  0.000  0.338
    occupations:
  0.910  0.000 -0.050
  0.000  0.929  0.000
 -0.050  0.000  0.875
N of occupied +U levels =  56.2909290
 --- exit write_ns ---
 --- in v_hubbard ---
Hubbard energy    0.2346
 -------

     total cpu time spent up to now is      254.4 secs

     total energy              =    -538.07577124 Ry
     Harris-Foulkes estimate   =    -538.07570684 Ry
     estimated scf accuracy    <       0.00011387 Ry

     iteration #  6     ecut=    30.00 Ry     beta=0.20
     Davidson diagonalization with overlap
     ethr =  1.50E-07,  avg # of iterations =  2.0
 --- enter write_ns ---
 LDA+U parameters:
U( 1)     =  3.00000000
alpha( 1) =  0.00000000
U( 2)     =  0.00000000
alpha( 2) =  0.00000000
U( 3)     =  0.00000000
alpha( 3) =  0.00000000
U( 4)     =  0.00000000
alpha( 4) =  0.00000000
atom    1   Tr[ns(na)] =   8.05435
    eigenvalues: 
  0.532  0.532  0.987  0.987  0.989
    eigenvectors:
  0.000  0.000  0.000  0.000  1.000
  0.077  0.581  0.169  0.173  0.000
  0.581  0.077  0.173  0.169  0.000
  0.192  0.149  0.109  0.550  0.000
  0.149  0.192  0.550  0.109  0.000
    occupations:
  0.989  0.000  0.000  0.000  0.000
  0.000  0.687  0.000 -0.079  0.201
  0.000  0.000  0.687  0.201  0.079
  0.000 -0.079  0.201  0.832  0.000
  0.000  0.201  0.079  0.000  0.832
atom    2   Tr[ns(na)] =   8.05216
    eigenvalues: 
  0.530  0.530  0.988  0.988  0.990
    eigenvectors:
  0.000  0.000  0.000  0.000  1.000
  0.397  0.261  0.001  0.341  0.000
  0.261  0.397  0.341  0.001  0.000
  0.257  0.084  0.593  0.066  0.000
  0.084  0.257  0.066  0.593  0.000
    occupations:
  0.990  0.000  0.000  0.000  0.000
  0.000  0.687  0.000  0.078  0.202
  0.000  0.000  0.687  0.202 -0.078
  0.000  0.078  0.202  0.831  0.000
  0.000  0.202 -0.078  0.000  0.832
atom    3   Tr[ns(na)] =   3.79606
    eigenvalues: 
  0.356  0.356  0.382  0.402  0.402
    eigenvectors:
  0.000  0.000  1.000  0.000  0.000
  0.001  0.920  0.000  0.065  0.014
  0.920  0.001  0.000  0.014  0.065
  0.078  0.000  0.000  0.166  0.755
  0.000  0.078  0.000  0.755  0.166
    occupations:
  0.382  0.000  0.000  0.000  0.000
  0.000  0.360  0.000  0.000  0.012
  0.000  0.000  0.360  0.012  0.000
  0.000  0.000  0.012  0.398  0.000
  0.000  0.012  0.000  0.000  0.398
atom    4   Tr[ns(na)] =   3.79606
    eigenvalues: 
  0.356  0.356  0.382  0.402  0.402
    eigenvectors:
  0.000  0.000  1.000  0.000  0.000
  0.666  0.255  0.000  0.072  0.006
  0.255  0.666  0.000  0.006  0.072
  0.022  0.056  0.000  0.081  0.841
  0.056  0.022  0.000  0.841  0.081
    occupations:
  0.382  0.000  0.000  0.000  0.000
  0.000  0.360  0.000  0.000  0.012
  0.000  0.000  0.360  0.012  0.000
  0.000  0.000  0.012  0.398  0.000
  0.000  0.012  0.000  0.000  0.398
atom    5   Tr[ns(na)] =   5.43177
    eigenvalues: 
  0.840  0.930  0.946
    eigenvectors:
  0.338  0.000  0.662
  0.497  0.251  0.253
  0.166  0.749  0.085
    occupations:
  0.910 -0.043  0.025
 -0.043  0.889  0.023
  0.025  0.023  0.916
atom    6   Tr[ns(na)] =   5.43178
    eigenvalues: 
  0.840  0.930  0.946
    eigenvectors:
  0.338  0.000  0.662
  0.497  0.249  0.254
  0.165  0.751  0.084
    occupations:
  0.910  0.043  0.025
  0.043  0.889 -0.023
  0.025 -0.023  0.916
atom    7   Tr[ns(na)] =   5.43178
    eigenvalues: 
  0.840  0.930  0.946
    eigenvectors:
  0.338  0.000  0.662
  0.000  1.000  0.000
  0.662  0.000  0.338
    occupations:
  0.910  0.000 -0.050
  0.000  0.930  0.000
 -0.050  0.000  0.876
atom    8   Tr[ns(na)] =   5.43177
    eigenvalues: 
  0.840  0.930  0.946
    eigenvectors:
  0.338  0.000  0.662
  0.497  0.251  0.253
  0.166  0.749  0.085
    occupations:
  0.910 -0.043  0.025
 -0.043  0.889  0.023
  0.025  0.023  0.916
atom    9   Tr[ns(na)] =   5.43178
    eigenvalues: 
  0.840  0.930  0.946
    eigenvectors:
  0.338  0.000  0.662
  0.497  0.249  0.254
  0.165  0.751  0.084
    occupations:
  0.910  0.043  0.025
  0.043  0.889 -0.023
  0.025 -0.023  0.916
atom   10   Tr[ns(na)] =   5.43178
    eigenvalues: 
  0.840  0.930  0.946
    eigenvectors:
  0.338  0.000  0.662
  0.000  1.000  0.000
  0.662  0.000  0.338
    occupations:
  0.910  0.000 -0.050
  0.000  0.930  0.000
 -0.050  0.000  0.876
N of occupied +U levels =  56.2892739
 --- exit write_ns ---
 --- in v_hubbard ---
Hubbard energy    0.2348
 -------

     total cpu time spent up to now is      301.1 secs

     total energy              =    -538.07583174 Ry
     Harris-Foulkes estimate   =    -538.07578424 Ry
     estimated scf accuracy    <       0.00002979 Ry

     iteration #  7     ecut=    30.00 Ry     beta=0.20
     Davidson diagonalization with overlap
     ethr =  3.92E-08,  avg # of iterations =  2.0
 --- enter write_ns ---
 LDA+U parameters:
U( 1)     =  3.00000000
alpha( 1) =  0.00000000
U( 2)     =  0.00000000
alpha( 2) =  0.00000000
U( 3)     =  0.00000000
alpha( 3) =  0.00000000
U( 4)     =  0.00000000
alpha( 4) =  0.00000000
atom    1   Tr[ns(na)] =   8.05305
    eigenvalues: 
  0.532  0.532  0.987  0.987  0.989
    eigenvectors:
  0.000  0.000  0.000  0.000  1.000
  0.024  0.634  0.197  0.145  0.000
  0.634  0.024  0.145  0.197  0.000
  0.244  0.098  0.072  0.586  0.000
  0.098  0.244  0.586  0.072  0.000
    occupations:
  0.989  0.000  0.000  0.000  0.000
  0.000  0.688  0.000 -0.079  0.201
  0.000  0.000  0.688  0.201  0.079
  0.000 -0.079  0.201  0.831  0.000
  0.000  0.201  0.079  0.000  0.831
atom    2   Tr[ns(na)] =   8.05088
    eigenvalues: 
  0.530  0.530  0.988  0.988  0.990
    eigenvectors:
  0.000  0.000  0.000  0.000  1.000
  0.371  0.287  0.003  0.339  0.000
  0.287  0.371  0.339  0.003  0.000
  0.270  0.073  0.610  0.047  0.000
  0.073  0.270  0.047  0.610  0.000
    occupations:
  0.990  0.000  0.000  0.000  0.000
  0.000  0.687  0.000  0.079  0.202
  0.000  0.000  0.687  0.202 -0.079
  0.000  0.079  0.202  0.831  0.000
  0.000  0.202 -0.079  0.000  0.831
atom    3   Tr[ns(na)] =   3.79336
    eigenvalues: 
  0.356  0.356  0.382  0.402  0.402
    eigenvectors:
  0.000  0.000  1.000  0.000  0.000
  0.023  0.898  0.000  0.053  0.026
  0.898  0.023  0.000  0.026  0.053
  0.077  0.002  0.000  0.315  0.606
  0.002  0.077  0.000  0.606  0.315
    occupations:
  0.382  0.000  0.000  0.000  0.000
  0.000  0.359  0.000  0.000  0.012
  0.000  0.000  0.359  0.012  0.000
  0.000  0.000  0.012  0.398  0.000
  0.000  0.012  0.000  0.000  0.398
atom    4   Tr[ns(na)] =   3.79336
    eigenvalues: 
  0.356  0.356  0.382  0.402  0.402
    eigenvectors:
  0.000  0.000  1.000  0.000  0.000
  0.662  0.259  0.000  0.071  0.008
  0.259  0.662  0.000  0.008  0.071
  0.023  0.056  0.000  0.095  0.826
  0.056  0.023  0.000  0.826  0.095
    occupations:
  0.382  0.000  0.000  0.000  0.000
  0.000  0.359  0.000  0.000  0.012
  0.000  0.000  0.359  0.012  0.000
  0.000  0.000  0.012  0.398  0.000
  0.000  0.012  0.000  0.000  0.398
atom    5   Tr[ns(na)] =   5.43275
    eigenvalues: 
  0.840  0.930  0.946
    eigenvectors:
  0.338  0.000  0.662
  0.496  0.251  0.253
  0.166  0.749  0.085
    occupations:
  0.910 -0.043  0.025
 -0.043  0.890  0.023
  0.025  0.023  0.916
atom    6   Tr[ns(na)] =   5.43276
    eigenvalues: 
  0.840  0.930  0.946
    eigenvectors:
  0.338  0.000  0.662
  0.497  0.249  0.254
  0.165  0.751  0.084
    occupations:
  0.910  0.043  0.025
  0.043  0.890 -0.023
  0.025 -0.023  0.916
atom    7   Tr[ns(na)] =   5.43276
    eigenvalues: 
  0.840  0.930  0.946
    eigenvectors:
  0.338  0.000  0.662
  0.000  1.000  0.000
  0.662  0.000  0.338
    occupations:
  0.910  0.000 -0.050
  0.000  0.930  0.000
 -0.050  0.000  0.876
atom    8   Tr[ns(na)] =   5.43275
    eigenvalues: 
  0.840  0.930  0.946
    eigenvectors:
  0.338  0.000  0.662
  0.496  0.251  0.253
  0.166  0.749  0.085
    occupations:
  0.910 -0.043  0.025
 -0.043  0.890  0.023
  0.025  0.023  0.916
atom    9   Tr[ns(na)] =   5.43275
    eigenvalues: 
  0.840  0.930  0.946
    eigenvectors:
  0.338  0.000  0.662
  0.497  0.249  0.254
  0.165  0.751  0.084
    occupations:
  0.910  0.043  0.025
  0.043  0.890 -0.023
  0.025 -0.023  0.916
atom   10   Tr[ns(na)] =   5.43275
    eigenvalues: 
  0.840  0.930  0.946
    eigenvectors:
  0.338  0.000  0.662
  0.000  1.000  0.000
  0.662  0.000  0.338
    occupations:
  0.910  0.000 -0.050
  0.000  0.930  0.000
 -0.050  0.000  0.876
N of occupied +U levels =  56.2871659
 --- exit write_ns ---
 --- in v_hubbard ---
Hubbard energy    0.2348
 -------

     total cpu time spent up to now is      343.7 secs

     total energy              =    -538.07588475 Ry
     Harris-Foulkes estimate   =    -538.07583843 Ry
     estimated scf accuracy    <       0.00001256 Ry

     iteration #  8     ecut=    30.00 Ry     beta=0.20
     Davidson diagonalization with overlap
     ethr =  1.65E-08,  avg # of iterations =  1.0
 --- enter write_ns ---
 LDA+U parameters:
U( 1)     =  3.00000000
alpha( 1) =  0.00000000
U( 2)     =  0.00000000
alpha( 2) =  0.00000000
U( 3)     =  0.00000000
alpha( 3) =  0.00000000
U( 4)     =  0.00000000
alpha( 4) =  0.00000000
atom    1   Tr[ns(na)] =   8.05378
    eigenvalues: 
  0.532  0.532  0.987  0.987  0.989
    eigenvectors:
  0.000  0.000  0.000  0.000  1.000
  0.034  0.624  0.195  0.147  0.000
  0.624  0.034  0.147  0.195  0.000
  0.232  0.110  0.074  0.584  0.000
  0.110  0.232  0.584  0.074  0.000
    occupations:
  0.989  0.000  0.000  0.000  0.000
  0.000  0.688  0.000 -0.079  0.201
  0.000  0.000  0.688  0.201  0.079
  0.000 -0.079  0.201  0.831  0.000
  0.000  0.201  0.079  0.000  0.831
atom    2   Tr[ns(na)] =   8.05138
    eigenvalues: 
  0.530  0.530  0.988  0.988  0.990
    eigenvectors:
  0.000  0.000  0.000  0.000  1.000
  0.382  0.276  0.005  0.337  0.000
  0.276  0.382  0.337  0.005  0.000
  0.265  0.077  0.619  0.038  0.000
  0.077  0.265  0.038  0.619  0.000
    occupations:
  0.990  0.000  0.000  0.000  0.000
  0.000  0.687  0.000  0.079  0.202
  0.000  0.000  0.687  0.202 -0.079
  0.000  0.079  0.202  0.831  0.000
  0.000  0.202 -0.079  0.000  0.831
atom    3   Tr[ns(na)] =   3.79413
    eigenvalues: 
  0.356  0.356  0.382  0.402  0.402
    eigenvectors:
  0.000  0.000  1.000  0.000  0.000
  0.075  0.846  0.000  0.005  0.074
  0.846  0.075  0.000  0.074  0.005
  0.072  0.007  0.000  0.865  0.056
  0.007  0.072  0.000  0.056  0.865
    occupations:
  0.382  0.000  0.000  0.000  0.000
  0.000  0.360  0.000  0.000  0.012
  0.000  0.000  0.360  0.012  0.000
  0.000  0.000  0.012  0.398  0.000
  0.000  0.012  0.000  0.000  0.398
atom    4   Tr[ns(na)] =   3.79413
    eigenvalues: 
  0.356  0.356  0.382  0.402  0.402
    eigenvectors:
  0.000  0.000  1.000  0.000  0.000
  0.760  0.161  0.000  0.008  0.071
  0.161  0.760  0.000  0.071  0.008
  0.014  0.065  0.000  0.821  0.100
  0.065  0.014  0.000  0.100  0.821
    occupations:
  0.382  0.000  0.000  0.000  0.000
  0.000  0.360  0.000  0.000  0.012
  0.000  0.000  0.360  0.012  0.000
  0.000  0.000  0.012  0.398  0.000
  0.000  0.012  0.000  0.000  0.398
atom    5   Tr[ns(na)] =   5.43238
    eigenvalues: 
  0.840  0.930  0.946
    eigenvectors:
  0.338  0.000  0.662
  0.497  0.251  0.253
  0.166  0.749  0.085
    occupations:
  0.910 -0.043  0.025
 -0.043  0.889  0.023
  0.025  0.023  0.916
atom    6   Tr[ns(na)] =   5.43240
    eigenvalues: 
  0.840  0.930  0.946
    eigenvectors:
  0.338  0.000  0.662
  0.497  0.249  0.254
  0.165  0.751  0.084
    occupations:
  0.910  0.043  0.025
  0.043  0.889 -0.023
  0.025 -0.023  0.916
atom    7   Tr[ns(na)] =   5.43240
    eigenvalues: 
  0.840  0.930  0.946
    eigenvectors:
  0.338  0.000  0.662
  0.000  1.000  0.000
  0.662  0.000  0.338
    occupations:
  0.910  0.000 -0.050
  0.000  0.930  0.000
 -0.050  0.000  0.876
atom    8   Tr[ns(na)] =   5.43239
    eigenvalues: 
  0.840  0.930  0.946
    eigenvectors:
  0.338  0.000  0.662
  0.497  0.251  0.253
  0.166  0.749  0.085
    occupations:
  0.910 -0.043  0.025
 -0.043  0.889  0.023
  0.025  0.023  0.916
atom    9   Tr[ns(na)] =   5.43239
    eigenvalues: 
  0.840  0.930  0.946
    eigenvectors:
  0.338  0.000  0.662
  0.497  0.249  0.254
  0.165  0.751  0.084
    occupations:
  0.910  0.043  0.025
  0.043  0.889 -0.023
  0.025 -0.023  0.916
atom   10   Tr[ns(na)] =   5.43239
    eigenvalues: 
  0.840  0.930  0.946
    eigenvectors:
  0.338  0.000  0.662
  0.000  1.000  0.000
  0.662  0.000  0.338
    occupations:
  0.910  0.000 -0.050
  0.000  0.930  0.000
 -0.050  0.000  0.876
N of occupied +U levels =  56.2877639
 --- exit write_ns ---
 --- in v_hubbard ---
Hubbard energy    0.2351
 -------

     total cpu time spent up to now is      378.2 secs

     total energy              =    -538.07591477 Ry
     Harris-Foulkes estimate   =    -538.07588538 Ry
     estimated scf accuracy    <       0.00000396 Ry

     iteration #  9     ecut=    30.00 Ry     beta=0.20
     Davidson diagonalization with overlap
     ethr =  5.21E-09,  avg # of iterations =  2.0
 --- enter write_ns ---
 LDA+U parameters:
U( 1)     =  3.00000000
alpha( 1) =  0.00000000
U( 2)     =  0.00000000
alpha( 2) =  0.00000000
U( 3)     =  0.00000000
alpha( 3) =  0.00000000
U( 4)     =  0.00000000
alpha( 4) =  0.00000000
atom    1   Tr[ns(na)] =   8.05454
    eigenvalues: 
  0.532  0.532  0.987  0.987  0.989
    eigenvectors:
  0.000  0.000  0.000  0.000  1.000
  0.033  0.625  0.191  0.151  0.000
  0.625  0.033  0.151  0.191  0.000
  0.233  0.109  0.079  0.579  0.000
  0.109  0.233  0.579  0.079  0.000
    occupations:
  0.989  0.000  0.000  0.000  0.000
  0.000  0.688  0.000 -0.079  0.201
  0.000  0.000  0.688  0.201  0.079
  0.000 -0.079  0.201  0.831  0.000
  0.000  0.201  0.079  0.000  0.831
atom    2   Tr[ns(na)] =   8.05247
    eigenvalues: 
  0.530  0.530  0.988  0.988  0.990
    eigenvectors:
  0.000  0.000  0.000  0.000  1.000
  0.385  0.273  0.009  0.333  0.000
  0.273  0.385  0.333  0.009  0.000
  0.264  0.078  0.630  0.028  0.000
  0.078  0.264  0.028  0.630  0.000
    occupations:
  0.990  0.000  0.000  0.000  0.000
  0.000  0.687  0.000  0.079  0.202
  0.000  0.000  0.687  0.202 -0.079
  0.000  0.079  0.202  0.831  0.000
  0.000  0.202 -0.079  0.000  0.831
atom    3   Tr[ns(na)] =   3.79503
    eigenvalues: 
  0.356  0.356  0.382  0.402  0.402
    eigenvectors:
  0.000  0.000  1.000  0.000  0.000
  0.044  0.878  0.000  0.055  0.024
  0.878  0.044  0.000  0.024  0.055
  0.075  0.004  0.000  0.285  0.637
  0.004  0.075  0.000  0.637  0.285
    occupations:
  0.382  0.000  0.000  0.000  0.000
  0.000  0.360  0.000  0.000  0.012
  0.000  0.000  0.360  0.012  0.000
  0.000  0.000  0.012  0.398  0.000
  0.000  0.012  0.000  0.000  0.398
atom    4   Tr[ns(na)] =   3.79502
    eigenvalues: 
  0.356  0.356  0.382  0.402  0.402
    eigenvectors:
  0.000  0.000  1.000  0.000  0.000
  0.726  0.195  0.000  0.053  0.026
  0.195  0.726  0.000  0.026  0.053
  0.017  0.062  0.000  0.299  0.622
  0.062  0.017  0.000  0.622  0.299
    occupations:
  0.382  0.000  0.000  0.000  0.000
  0.000  0.360  0.000  0.000  0.012
  0.000  0.000  0.360  0.012  0.000
  0.000  0.000  0.012  0.398  0.000
  0.000  0.012  0.000  0.000  0.398
atom    5   Tr[ns(na)] =   5.43188
    eigenvalues: 
  0.840  0.930  0.946
    eigenvectors:
  0.338  0.000  0.662
  0.496  0.251  0.253
  0.166  0.749  0.085
    occupations:
  0.910 -0.043  0.025
 -0.043  0.889  0.023
  0.025  0.023  0.916
atom    6   Tr[ns(na)] =   5.43189
    eigenvalues: 
  0.840  0.930  0.946
    eigenvectors:
  0.338  0.000  0.662
  0.497  0.249  0.254
  0.165  0.751  0.084
    occupations:
  0.910  0.043  0.025
  0.043  0.889 -0.023
  0.025 -0.023  0.916
atom    7   Tr[ns(na)] =   5.43189
    eigenvalues: 
  0.840  0.930  0.946
    eigenvectors:
  0.338  0.000  0.662
  0.000  1.000  0.000
  0.662  0.000  0.338
    occupations:
  0.910  0.000 -0.050
  0.000  0.930  0.000
 -0.050  0.000  0.876
atom    8   Tr[ns(na)] =   5.43188
    eigenvalues: 
  0.840  0.930  0.946
    eigenvectors:
  0.338  0.000  0.662
  0.496  0.251  0.253
  0.166  0.749  0.085
    occupations:
  0.910 -0.043  0.025
 -0.043  0.889  0.023
  0.025  0.023  0.916
atom    9   Tr[ns(na)] =   5.43189
    eigenvalues: 
  0.840  0.930  0.946
    eigenvectors:
  0.338  0.000  0.662
  0.497  0.249  0.254
  0.165  0.751  0.084
    occupations:
  0.910  0.043  0.025
  0.043  0.889 -0.023
  0.025 -0.023  0.916
atom   10   Tr[ns(na)] =   5.43189
    eigenvalues: 
  0.840  0.930  0.946
    eigenvectors:
  0.338  0.000  0.662
  0.000  1.000  0.000
  0.662  0.000  0.338
    occupations:
  0.910  0.000 -0.050
  0.000  0.930  0.000
 -0.050  0.000  0.876
N of occupied +U levels =  56.2883965
 --- exit write_ns ---
 --- in v_hubbard ---
Hubbard energy    0.2351
 -------

     total cpu time spent up to now is      422.0 secs

     total energy              =    -538.07593475 Ry
     Harris-Foulkes estimate   =    -538.07591549 Ry
     estimated scf accuracy    <       0.00000053 Ry

     iteration # 10     ecut=    30.00 Ry     beta=0.20
     Davidson diagonalization with overlap
     ethr =  7.01E-10,  avg # of iterations =  1.3
 --- enter write_ns ---
 LDA+U parameters:
U( 1)     =  3.00000000
alpha( 1) =  0.00000000
U( 2)     =  0.00000000
alpha( 2) =  0.00000000
U( 3)     =  0.00000000
alpha( 3) =  0.00000000
U( 4)     =  0.00000000
alpha( 4) =  0.00000000
atom    1   Tr[ns(na)] =   8.05467
    eigenvalues: 
  0.532  0.532  0.987  0.987  0.989
    eigenvectors:
  0.000  0.000  0.000  0.000  1.000
  0.030  0.628  0.190  0.152  0.000
  0.628  0.030  0.152  0.190  0.000
  0.237  0.105  0.081  0.577  0.000
  0.105  0.237  0.577  0.081  0.000
    occupations:
  0.989  0.000  0.000  0.000  0.000
  0.000  0.688  0.000 -0.079  0.201
  0.000  0.000  0.688  0.201  0.079
  0.000 -0.079  0.201  0.831  0.000
  0.000  0.201  0.079  0.000  0.831
atom    2   Tr[ns(na)] =   8.05258
    eigenvalues: 
  0.530  0.530  0.988  0.988  0.990
    eigenvectors:
  0.000  0.000  0.000  0.000  1.000
  0.377  0.281  0.008  0.334  0.000
  0.281  0.377  0.334  0.008  0.000
  0.267  0.075  0.626  0.032  0.000
  0.075  0.267  0.032  0.626  0.000
    occupations:
  0.990  0.000  0.000  0.000  0.000
  0.000  0.687  0.000  0.079  0.202
  0.000  0.000  0.687  0.202 -0.079
  0.000  0.079  0.202  0.831  0.000
  0.000  0.202 -0.079  0.000  0.831
atom    3   Tr[ns(na)] =   3.79486
    eigenvalues: 
  0.356  0.356  0.382  0.402  0.402
    eigenvectors:
  0.000  0.000  1.000  0.000  0.000
  0.036  0.885  0.000  0.065  0.014
  0.885  0.036  0.000  0.014  0.065
  0.076  0.003  0.000  0.173  0.748
  0.003  0.076  0.000  0.748  0.173
    occupations:
  0.382  0.000  0.000  0.000  0.000
  0.000  0.360  0.000  0.000  0.012
  0.000  0.000  0.360  0.012  0.000
  0.000  0.000  0.012  0.398  0.000
  0.000  0.012  0.000  0.000  0.398
atom    4   Tr[ns(na)] =   3.79486
    eigenvalues: 
  0.356  0.356  0.382  0.402  0.402
    eigenvectors:
  0.000  0.000  1.000  0.000  0.000
  0.703  0.218  0.000  0.068  0.011
  0.218  0.703  0.000  0.011  0.068
  0.019  0.060  0.000  0.126  0.795
  0.060  0.019  0.000  0.795  0.126
    occupations:
  0.382  0.000  0.000  0.000  0.000
  0.000  0.360  0.000  0.000  0.012
  0.000  0.000  0.360  0.012  0.000
  0.000  0.000  0.012  0.398  0.000
  0.000  0.012  0.000  0.000  0.398
atom    5   Tr[ns(na)] =   5.43188
    eigenvalues: 
  0.840  0.930  0.946
    eigenvectors:
  0.338  0.000  0.662
  0.496  0.251  0.253
  0.166  0.749  0.085
    occupations:
  0.910 -0.043  0.025
 -0.043  0.889  0.023
  0.025  0.023  0.916
atom    6   Tr[ns(na)] =   5.43189
    eigenvalues: 
  0.840  0.930  0.946
    eigenvectors:
  0.338  0.000  0.662
  0.497  0.249  0.254
  0.165  0.751  0.084
    occupations:
  0.910  0.043  0.025
  0.043  0.889 -0.023
  0.025 -0.023  0.916
atom    7   Tr[ns(na)] =   5.43189
    eigenvalues: 
  0.840  0.930  0.946
    eigenvectors:
  0.338  0.000  0.662
  0.000  1.000  0.000
  0.662  0.000  0.338
    occupations:
  0.910  0.000 -0.050
  0.000  0.930  0.000
 -0.050  0.000  0.876
atom    8   Tr[ns(na)] =   5.43188
    eigenvalues: 
  0.840  0.930  0.946
    eigenvectors:
  0.338  0.000  0.662
  0.496  0.251  0.253
  0.166  0.749  0.085
    occupations:
  0.910 -0.043  0.025
 -0.043  0.889  0.023
  0.025  0.023  0.916
atom    9   Tr[ns(na)] =   5.43189
    eigenvalues: 
  0.840  0.930  0.946
    eigenvectors:
  0.338  0.000  0.662
  0.497  0.249  0.254
  0.165  0.751  0.084
    occupations:
  0.910  0.043  0.025
  0.043  0.889 -0.023
  0.025 -0.023  0.916
atom   10   Tr[ns(na)] =   5.43189
    eigenvalues: 
  0.840  0.930  0.946
    eigenvectors:
  0.338  0.000  0.662
  0.000  1.000  0.000
  0.662  0.000  0.338
    occupations:
  0.910  0.000 -0.050
  0.000  0.930  0.000
 -0.050  0.000  0.876
N of occupied +U levels =  56.2882925
 --- exit write_ns ---
 --- in v_hubbard ---
Hubbard energy    0.2352
 -------

     total cpu time spent up to now is      452.7 secs

     total energy              =    -538.07594696 Ry
     Harris-Foulkes estimate   =    -538.07593478 Ry
     estimated scf accuracy    <       0.00000028 Ry

     iteration # 11     ecut=    30.00 Ry     beta=0.20
     Davidson diagonalization with overlap
     ethr =  3.62E-10,  avg # of iterations =  2.0
 --- enter write_ns ---
 LDA+U parameters:
U( 1)     =  3.00000000
alpha( 1) =  0.00000000
U( 2)     =  0.00000000
alpha( 2) =  0.00000000
U( 3)     =  0.00000000
alpha( 3) =  0.00000000
U( 4)     =  0.00000000
alpha( 4) =  0.00000000
atom    1   Tr[ns(na)] =   8.05437
    eigenvalues: 
  0.532  0.532  0.987  0.987  0.989
    eigenvectors:
  0.000  0.000  0.000  0.000  1.000
  0.026  0.632  0.190  0.152  0.000
  0.632  0.026  0.152  0.190  0.000
  0.241  0.101  0.080  0.578  0.000
  0.101  0.241  0.578  0.080  0.000
    occupations:
  0.989  0.000  0.000  0.000  0.000
  0.000  0.688  0.000 -0.079  0.201
  0.000  0.000  0.688  0.201  0.079
  0.000 -0.079  0.201  0.831  0.000
  0.000  0.201  0.079  0.000  0.831
atom    2   Tr[ns(na)] =   8.05230
    eigenvalues: 
  0.530  0.530  0.988  0.988  0.990
    eigenvectors:
  0.000  0.000  0.000  0.000  1.000
  0.371  0.287  0.008  0.335  0.000
  0.287  0.371  0.335  0.008  0.000
  0.270  0.073  0.626  0.032  0.000
  0.073  0.270  0.032  0.626  0.000
    occupations:
  0.990  0.000  0.000  0.000  0.000
  0.000  0.687  0.000  0.079  0.202
  0.000  0.000  0.687  0.202 -0.079
  0.000  0.079  0.202  0.831  0.000
  0.000  0.202 -0.079  0.000  0.831
atom    3   Tr[ns(na)] =   3.79457
    eigenvalues: 
  0.356  0.356  0.382  0.402  0.402
    eigenvectors:
  0.000  0.000  1.000  0.000  0.000
  0.052  0.869  0.000  0.054  0.025
  0.869  0.052  0.000  0.025  0.054
  0.074  0.005  0.000  0.301  0.620
  0.005  0.074  0.000  0.620  0.301
    occupations:
  0.382  0.000  0.000  0.000  0.000
  0.000  0.360  0.000  0.000  0.012
  0.000  0.000  0.360  0.012  0.000
  0.000  0.000  0.012  0.398  0.000
  0.000  0.012  0.000  0.000  0.398
atom    4   Tr[ns(na)] =   3.79457
    eigenvalues: 
  0.356  0.356  0.382  0.402  0.402
    eigenvectors:
  0.000  0.000  1.000  0.000  0.000
  0.718  0.203  0.000  0.052  0.027
  0.203  0.718  0.000  0.027  0.052
  0.018  0.061  0.000  0.311  0.610
  0.061  0.018  0.000  0.610  0.311
    occupations:
  0.382  0.000  0.000  0.000  0.000
  0.000  0.360  0.000  0.000  0.012
  0.000  0.000  0.360  0.012  0.000
  0.000  0.000  0.012  0.398  0.000
  0.000  0.012  0.000  0.000  0.398
atom    5   Tr[ns(na)] =   5.43203
    eigenvalues: 
  0.840  0.930  0.946
    eigenvectors:
  0.338  0.000  0.662
  0.496  0.251  0.253
  0.166  0.749  0.085
    occupations:
  0.910 -0.043  0.025
 -0.043  0.889  0.023
  0.025  0.023  0.916
atom    6   Tr[ns(na)] =   5.43204
    eigenvalues: 
  0.840  0.930  0.946
    eigenvectors:
  0.338  0.000  0.662
  0.497  0.249  0.254
  0.165  0.751  0.084
    occupations:
  0.910  0.043  0.025
  0.043  0.889 -0.023
  0.025 -0.023  0.916
atom    7   Tr[ns(na)] =   5.43204
    eigenvalues: 
  0.840  0.930  0.946
    eigenvectors:
  0.338  0.000  0.662
  0.000  1.000  0.000
  0.662  0.000  0.338
    occupations:
  0.910  0.000 -0.050
  0.000  0.930  0.000
 -0.050  0.000  0.876
atom    8   Tr[ns(na)] =   5.43203
    eigenvalues: 
  0.840  0.930  0.946
    eigenvectors:
  0.338  0.000  0.662
  0.496  0.251  0.253
  0.166  0.749  0.085
    occupations:
  0.910 -0.043  0.025
 -0.043  0.889  0.023
  0.025  0.023  0.916
atom    9   Tr[ns(na)] =   5.43204
    eigenvalues: 
  0.840  0.930  0.946
    eigenvectors:
  0.338  0.000  0.662
  0.497  0.249  0.254
  0.165  0.751  0.084
    occupations:
  0.910  0.043  0.025
  0.043  0.889 -0.023
  0.025 -0.023  0.916
atom   10   Tr[ns(na)] =   5.43204
    eigenvalues: 
  0.840  0.930  0.946
    eigenvectors:
  0.338  0.000  0.662
  0.000  1.000  0.000
  0.662  0.000  0.338
    occupations:
  0.910  0.000 -0.050
  0.000  0.930  0.000
 -0.050  0.000  0.876
N of occupied +U levels =  56.2880510
 --- exit write_ns ---
 --- in v_hubbard ---
Hubbard energy    0.2352
 -------

     total cpu time spent up to now is      488.8 secs

     total energy              =    -538.07595504 Ry
     Harris-Foulkes estimate   =    -538.07594703 Ry
     estimated scf accuracy    <       0.00000004 Ry

     iteration # 12     ecut=    30.00 Ry     beta=0.20
     Davidson diagonalization with overlap
     ethr =  5.70E-11,  avg # of iterations =  1.6
 --- enter write_ns ---
 LDA+U parameters:
U( 1)     =  3.00000000
alpha( 1) =  0.00000000
U( 2)     =  0.00000000
alpha( 2) =  0.00000000
U( 3)     =  0.00000000
alpha( 3) =  0.00000000
U( 4)     =  0.00000000
alpha( 4) =  0.00000000
atom    1   Tr[ns(na)] =   8.05445
    eigenvalues: 
  0.532  0.532  0.987  0.987  0.989
    eigenvectors:
  0.000  0.000  0.000  0.000  1.000
  0.026  0.632  0.190  0.152  0.000
  0.632  0.026  0.152  0.190  0.000
  0.241  0.101  0.080  0.578  0.000
  0.101  0.241  0.578  0.080  0.000
    occupations:
  0.989  0.000  0.000  0.000  0.000
  0.000  0.688  0.000 -0.079  0.201
  0.000  0.000  0.688  0.201  0.079
  0.000 -0.079  0.201  0.831  0.000
  0.000  0.201  0.079  0.000  0.831
atom    2   Tr[ns(na)] =   8.05238
    eigenvalues: 
  0.530  0.530  0.988  0.988  0.990
    eigenvectors:
  0.000  0.000  0.000  0.000  1.000
  0.374  0.284  0.007  0.335  0.000
  0.284  0.374  0.335  0.007  0.000
  0.268  0.074  0.626  0.032  0.000
  0.074  0.268  0.032  0.626  0.000
    occupations:
  0.990  0.000  0.000  0.000  0.000
  0.000  0.687  0.000  0.079  0.202
  0.000  0.000  0.687  0.202 -0.079
  0.000  0.079  0.202  0.831  0.000
  0.000  0.202 -0.079  0.000  0.831
atom    3   Tr[ns(na)] =   3.79462
    eigenvalues: 
  0.356  0.356  0.382  0.402  0.402
    eigenvectors:
  0.000  0.000  1.000  0.000  0.000
  0.056  0.865  0.000  0.051  0.028
  0.865  0.056  0.000  0.028  0.051
  0.074  0.005  0.000  0.333  0.588
  0.005  0.074  0.000  0.588  0.333
    occupations:
  0.382  0.000  0.000  0.000  0.000
  0.000  0.360  0.000  0.000  0.012
  0.000  0.000  0.360  0.012  0.000
  0.000  0.000  0.012  0.398  0.000
  0.000  0.012  0.000  0.000  0.398
atom    4   Tr[ns(na)] =   3.79462
    eigenvalues: 
  0.356  0.356  0.382  0.402  0.402
    eigenvectors:
  0.000  0.000  1.000  0.000  0.000
  0.727  0.194  0.000  0.047  0.032
  0.194  0.727  0.000  0.032  0.047
  0.017  0.062  0.000  0.364  0.557
  0.062  0.017  0.000  0.557  0.364
    occupations:
  0.382  0.000  0.000  0.000  0.000
  0.000  0.360  0.000  0.000  0.012
  0.000  0.000  0.360  0.012  0.000
  0.000  0.000  0.012  0.398  0.000
  0.000  0.012  0.000  0.000  0.398
atom    5   Tr[ns(na)] =   5.43200
    eigenvalues: 
  0.840  0.930  0.946
    eigenvectors:
  0.338  0.000  0.662
  0.496  0.251  0.253
  0.166  0.749  0.085
    occupations:
  0.910 -0.043  0.025
 -0.043  0.889  0.023
  0.025  0.023  0.916
atom    6   Tr[ns(na)] =   5.43201
    eigenvalues: 
  0.840  0.930  0.946
    eigenvectors:
  0.338  0.000  0.662
  0.497  0.249  0.254
  0.165  0.751  0.084
    occupations:
  0.910  0.043  0.025
  0.043  0.889 -0.023
  0.025 -0.023  0.916
atom    7   Tr[ns(na)] =   5.43201
    eigenvalues: 
  0.840  0.930  0.946
    eigenvectors:
  0.338  0.000  0.662
  0.000  1.000  0.000
  0.662  0.000  0.338
    occupations:
  0.910  0.000 -0.050
  0.000  0.930  0.000
 -0.050  0.000  0.876
atom    8   Tr[ns(na)] =   5.43200
    eigenvalues: 
  0.840  0.930  0.946
    eigenvectors:
  0.338  0.000  0.662
  0.496  0.251  0.253
  0.166  0.749  0.085
    occupations:
  0.910 -0.043  0.025
 -0.043  0.889  0.023
  0.025  0.023  0.916
atom    9   Tr[ns(na)] =   5.43201
    eigenvalues: 
  0.840  0.930  0.946
    eigenvectors:
  0.338  0.000  0.662
  0.497  0.249  0.254
  0.165  0.751  0.084
    occupations:
  0.910  0.043  0.025
  0.043  0.889 -0.023
  0.025 -0.023  0.916
atom   10   Tr[ns(na)] =   5.43200
    eigenvalues: 
  0.840  0.930  0.946
    eigenvectors:
  0.338  0.000  0.662
  0.000  1.000  0.000
  0.662  0.000  0.338
    occupations:
  0.910  0.000 -0.050
  0.000  0.930  0.000
 -0.050  0.000  0.876
N of occupied +U levels =  56.2880925
 --- exit write_ns ---
 --- in v_hubbard ---
Hubbard energy    0.2352
 -------

     total cpu time spent up to now is      516.9 secs

     total energy              =    -538.07596024 Ry
     Harris-Foulkes estimate   =    -538.07595505 Ry
     estimated scf accuracy    <       0.00000001 Ry

     iteration # 13     ecut=    30.00 Ry     beta=0.20
     Davidson diagonalization with overlap
     ethr =  1.48E-11,  avg # of iterations =  3.0
 --- enter write_ns ---
 LDA+U parameters:
U( 1)     =  3.00000000
alpha( 1) =  0.00000000
U( 2)     =  0.00000000
alpha( 2) =  0.00000000
U( 3)     =  0.00000000
alpha( 3) =  0.00000000
U( 4)     =  0.00000000
alpha( 4) =  0.00000000
atom    1   Tr[ns(na)] =   8.05444
    eigenvalues: 
  0.532  0.532  0.987  0.987  0.989
    eigenvectors:
  0.000  0.000  0.000  0.000  1.000
  0.026  0.631  0.193  0.149  0.000
  0.631  0.026  0.149  0.193  0.000
  0.241  0.101  0.076  0.582  0.000
  0.101  0.241  0.582  0.076  0.000
    occupations:
  0.989  0.000  0.000  0.000  0.000
  0.000  0.688  0.000 -0.079  0.201
  0.000  0.000  0.688  0.201  0.079
  0.000 -0.079  0.201  0.831  0.000
  0.000  0.201  0.079  0.000  0.831
atom    2   Tr[ns(na)] =   8.05238
    eigenvalues: 
  0.530  0.530  0.988  0.988  0.990
    eigenvectors:
  0.000  0.000  0.000  0.000  1.000
  0.376  0.282  0.007  0.335  0.000
  0.282  0.376  0.335  0.007  0.000
  0.267  0.075  0.623  0.035  0.000
  0.075  0.267  0.035  0.623  0.000
    occupations:
  0.990  0.000  0.000  0.000  0.000
  0.000  0.687  0.000  0.079  0.202
  0.000  0.000  0.687  0.202 -0.079
  0.000  0.079  0.202  0.831  0.000
  0.000  0.202 -0.079  0.000  0.831
atom    3   Tr[ns(na)] =   3.79472
    eigenvalues: 
  0.356  0.356  0.382  0.402  0.402
    eigenvectors:
  0.000  0.000  1.000  0.000  0.000
  0.052  0.869  0.000  0.055  0.024
  0.869  0.052  0.000  0.024  0.055
  0.074  0.005  0.000  0.289  0.632
  0.005  0.074  0.000  0.632  0.289
    occupations:
  0.382  0.000  0.000  0.000  0.000
  0.000  0.360  0.000  0.000  0.012
  0.000  0.000  0.360  0.012  0.000
  0.000  0.000  0.012  0.398  0.000
  0.000  0.012  0.000  0.000  0.398
atom    4   Tr[ns(na)] =   3.79471
    eigenvalues: 
  0.356  0.356  0.382  0.402  0.402
    eigenvectors:
  0.000  0.000  1.000  0.000  0.000
  0.721  0.200  0.000  0.056  0.023
  0.200  0.721  0.000  0.023  0.056
  0.018  0.061  0.000  0.260  0.661
  0.061  0.018  0.000  0.661  0.260
    occupations:
  0.382  0.000  0.000  0.000  0.000
  0.000  0.360  0.000  0.000  0.012
  0.000  0.000  0.360  0.012  0.000
  0.000  0.000  0.012  0.398  0.000
  0.000  0.012  0.000  0.000  0.398
atom    5   Tr[ns(na)] =   5.43198
    eigenvalues: 
  0.840  0.930  0.946
    eigenvectors:
  0.338  0.000  0.662
  0.496  0.251  0.253
  0.166  0.749  0.085
    occupations:
  0.910 -0.043  0.025
 -0.043  0.889  0.023
  0.025  0.023  0.916
atom    6   Tr[ns(na)] =   5.43199
    eigenvalues: 
  0.840  0.930  0.946
    eigenvectors:
  0.338  0.000  0.662
  0.497  0.249  0.254
  0.165  0.751  0.084
    occupations:
  0.910  0.043  0.025
  0.043  0.889 -0.023
  0.025 -0.023  0.916
atom    7   Tr[ns(na)] =   5.43199
    eigenvalues: 
  0.840  0.930  0.946
    eigenvectors:
  0.338  0.000  0.662
  0.000  1.000  0.000
  0.662  0.000  0.338
    occupations:
  0.910  0.000 -0.050
  0.000  0.930  0.000
 -0.050  0.000  0.876
atom    8   Tr[ns(na)] =   5.43198
    eigenvalues: 
  0.840  0.930  0.946
    eigenvectors:
  0.338  0.000  0.662
  0.496  0.251  0.253
  0.166  0.749  0.085
    occupations:
  0.910 -0.043  0.025
 -0.043  0.889  0.023
  0.025  0.023  0.916
atom    9   Tr[ns(na)] =   5.43199
    eigenvalues: 
  0.840  0.930  0.946
    eigenvectors:
  0.338  0.000  0.662
  0.497  0.249  0.254
  0.165  0.751  0.084
    occupations:
  0.910  0.043  0.025
  0.043  0.889 -0.023
  0.025 -0.023  0.916
atom   10   Tr[ns(na)] =   5.43199
    eigenvalues: 
  0.840  0.930  0.946
    eigenvectors:
  0.338  0.000  0.662
  0.000  1.000  0.000
  0.662  0.000  0.338
    occupations:
  0.910  0.000 -0.050
  0.000  0.930  0.000
 -0.050  0.000  0.876
N of occupied +U levels =  56.2881541
 --- exit write_ns ---
 --- in v_hubbard ---
Hubbard energy    0.2352
 -------

     total cpu time spent up to now is      563.0 secs

     End of self-consistent calculation

          k = 0.0000 0.0000 0.0000 (  2175 PWs)   bands (ev):

   -19.7972 -19.6239  -6.5511  -5.8505  -5.8503  -5.8262  -5.8260  -5.4863
    -3.8167  -3.2595  -3.2373  -3.2372  -3.0252  -3.0251   5.1818   6.8220
     6.8220   7.1666   7.1666   7.2004   7.5119   7.5119   7.7088   9.1224
     9.2920   9.3121   9.3121   9.6191   9.6191  10.0260  10.0260  10.2458
    10.4556  10.4556  10.6716  11.1336  11.1336  11.5365  11.9706  11.9706
    14.7416  14.7416  15.4275  15.4275  16.1985  16.7851

     occupation numbers 
     0.0313   0.0313   0.0313   0.0313   0.0313   0.0313   0.0313   0.0313
     0.0313   0.0313   0.0313   0.0313   0.0313   0.0313   0.0313   0.0313
     0.0313   0.0313   0.0313   0.0313   0.0313   0.0313   0.0313   0.0313
     0.0313   0.0313   0.0313   0.0312   0.0312   0.0312   0.0312   0.0312
     0.0312   0.0312   0.0312   0.0306   0.0306   0.0234   0.0063   0.0063
     0.0000   0.0000   0.0000   0.0000   0.0000   0.0000

          k =-0.2471-0.1427 0.1027 (  2181 PWs)   bands (ev):

   -19.7711 -19.6569  -6.7293  -6.2961  -5.9532  -5.8555  -5.6161  -5.4843
    -3.6138  -3.4011  -2.9386  -2.9072  -2.8583  -2.7637   5.5357   6.7879
     6.8332   6.9218   6.9462   7.1813   7.2197   7.4713   7.6004   8.2719
     8.2780   8.8279   9.5910   9.7112   9.7251   9.9737  10.2183  10.2379
    10.4021  10.4112  10.4651  11.2104  11.2966  11.3192  12.2987  12.3696
    14.2876  14.2973  15.8154  16.0692  16.9722  17.2659

     occupation numbers 
     0.0625   0.0625   0.0625   0.0625   0.0625   0.0625   0.0625   0.0625
     0.0625   0.0625   0.0625   0.0625   0.0625   0.0625   0.0625   0.0625
     0.0625   0.0625   0.0625   0.0625   0.0625   0.0625   0.0625   0.0625
     0.0625   0.0625   0.0625   0.0625   0.0625   0.0625   0.0625   0.0625
     0.0625   0.0625   0.0625   0.0602   0.0583   0.0576   0.0015   0.0008
     0.0000   0.0000   0.0000   0.0000   0.0000   0.0000

          k = 0.4942 0.2853-0.2053 (  2202 PWs)   bands (ev):

   -19.7175 -19.7175  -6.7286  -6.7163  -5.9667  -5.9649  -5.5271  -5.5243
    -3.3911  -3.3882  -2.7962  -2.7945  -2.5083  -2.5064   5.9801   5.9849
     7.0215   7.0385   7.1669   7.1812   7.4096   7.4318   7.4895   7.5122
     7.7211   7.7448   9.4342   9.4405   9.8524   9.8597  10.2595  10.2695
    10.6284  10.6473  10.7848  10.8039  11.0464  11.0645  13.2711  13.3095
    13.3550  13.3934  16.8318  16.8367  17.1294  17.1328

     occupation numbers 
     0.0313   0.0313   0.0313   0.0313   0.0313   0.0313   0.0313   0.0313
     0.0313   0.0313   0.0313   0.0313   0.0313   0.0313   0.0313   0.0313
     0.0313   0.0313   0.0313   0.0313   0.0313   0.0313   0.0313   0.0313
     0.0313   0.0313   0.0312   0.0312   0.0312   0.0312   0.0312   0.0312
     0.0312   0.0312   0.0312   0.0312   0.0310   0.0309   0.0000   0.0000
     0.0000   0.0000   0.0000   0.0000   0.0000   0.0000

          k =-0.2471 0.1427 0.2053 (  2195 PWs)   bands (ev):

   -19.7645 -19.6653  -6.8549  -6.2404  -6.0718  -5.8355  -5.6597  -5.4681
    -3.4261  -3.2665  -3.1083  -2.8992  -2.8263  -2.5610   5.5660   6.5205
     6.7094   6.8221   7.1577   7.2934   7.3691   7.4221   7.4806   8.3392
     8.3436   8.7533   9.2335   9.3396   9.8673   9.9036  10.0124  10.0877
    10.2633  10.8027  10.9447  10.9581  11.2271  11.3016  11.8889  12.7165
    13.6156  14.7589  15.9923  16.1942  17.0353  17.5372

     occupation numbers 
     0.0625   0.0625   0.0625   0.0625   0.0625   0.0625   0.0625   0.0625
     0.0625   0.0625   0.0625   0.0625   0.0625   0.0625   0.0625   0.0625
     0.0625   0.0625   0.0625   0.0625   0.0625   0.0625   0.0625   0.0625
     0.0625   0.0625   0.0625   0.0625   0.0625   0.0625   0.0625   0.0625
     0.0625   0.0625   0.0623   0.0623   0.0599   0.0582   0.0181   0.0000
     0.0000   0.0000   0.0000   0.0000   0.0000   0.0000

          k = 0.4942 0.5706-0.1027 (  2198 PWs)   bands (ev):

   -19.7313 -19.7052  -6.9572  -6.6484  -6.1318  -5.8948  -5.5172  -5.3895
    -3.3126  -3.2576  -2.8795  -2.7106  -2.5295  -2.3864   5.8420   6.1647
     6.3911   6.8943   7.1006   7.2340   7.3048   7.4827   7.5130   7.6510
     8.0340   8.6027   8.9505   9.2408   9.5540   9.7790   9.8596  10.3108
    10.3619  10.7953  10.9018  10.9792  11.1198  11.2328  12.2916  12.7219
    13.4086  14.3378  16.9037  17.1130  17.3071  18.0139

     occupation numbers 
     0.0625   0.0625   0.0625   0.0625   0.0625   0.0625   0.0625   0.0625
     0.0625   0.0625   0.0625   0.0625   0.0625   0.0625   0.0625   0.0625
     0.0625   0.0625   0.0625   0.0625   0.0625   0.0625   0.0625   0.0625
     0.0625   0.0625   0.0625   0.0625   0.0625   0.0625   0.0625   0.0625
     0.0625   0.0625   0.0624   0.0622   0.0614   0.0598   0.0016   0.0000
     0.0000   0.0000   0.0000   0.0000   0.0000   0.0000

          k = 0.2471 0.4280 0.0000 (  2203 PWs)   bands (ev):

   -19.7425 -19.6920  -6.8488  -6.6425  -6.0541  -5.9827  -5.4435  -5.3743
    -3.5329  -3.2965  -2.8029  -2.7100  -2.5729  -2.5631   5.8502   6.1813
     6.6725   6.9930   7.0600   7.1270   7.3462   7.3579   7.4130   7.7388
     7.9425   8.8847   8.9026   9.3631   9.7391   9.7570  10.0374  10.3334
    10.6166  10.6513  10.8097  10.9303  10.9459  11.3233  12.2078  13.3008
    13.3780  14.1330  16.4336  16.9922  17.4194  17.9246

     occupation numbers 
     0.0625   0.0625   0.0625   0.0625   0.0625   0.0625   0.0625   0.0625
     0.0625   0.0625   0.0625   0.0625   0.0625   0.0625   0.0625   0.0625
     0.0625   0.0625   0.0625   0.0625   0.0625   0.0625   0.0625   0.0625
     0.0625   0.0625   0.0625   0.0625   0.0625   0.0625   0.0625   0.0625
     0.0625   0.0625   0.0625   0.0623   0.0623   0.0575   0.0030   0.0000
     0.0000   0.0000   0.0000   0.0000   0.0000   0.0000

          k = 0.4942-0.2853-0.4107 (  2202 PWs)   bands (ev):

   -19.7314 -19.7064  -7.1683  -6.4546  -6.2401  -5.9717  -5.5340  -5.2975
    -3.2004  -3.1192  -3.0505  -2.6500  -2.4814  -2.2232   5.7662   5.8672
     6.1668   6.8096   7.1449   7.2542   7.3167   7.4805   7.9727   7.9802
     8.1608   8.3035   8.5999   9.3798   9.4114   9.6725  10.0282  10.0625
    10.4090  10.7038  10.8663  11.0138  11.1455  11.3640  11.8310  12.4015
    13.3109  14.7728  17.0423  17.2645  17.5183  17.6109

     occupation numbers 
     0.0313   0.0313   0.0313   0.0313   0.0313   0.0313   0.0313   0.0313
     0.0313   0.0313   0.0313   0.0313   0.0313   0.0313   0.0313   0.0313
     0.0313   0.0313   0.0313   0.0313   0.0313   0.0313   0.0313   0.0313
     0.0313   0.0313   0.0313   0.0312   0.0312   0.0312   0.0312   0.0312
     0.0312   0.0312   0.0312   0.0310   0.0306   0.0280   0.0113   0.0003
     0.0000   0.0000   0.0000   0.0000   0.0000   0.0000

          k = 0.0000 0.0000 0.3080 (  2187 PWs)   bands (ev):

   -19.7708 -19.6578  -6.6176  -5.9867  -5.9387  -5.9387  -5.8452  -5.8452
    -3.2128  -3.1292  -3.1292  -2.9699  -2.8983  -2.8983   5.6018   6.8737
     6.9149   6.9149   7.1054   7.1648   7.1648   7.4881   7.4881   8.4520
[...]
     0.0625   0.0625   0.0625   0.0625   0.0625   0.0625   0.0625   0.0625
     0.0625   0.0625   0.0625   0.0625   0.0625   0.0625   0.0625   0.0625
     0.0625   0.0625   0.0623   0.0623   0.0599   0.0582   0.0181   0.0000
     0.0000   0.0000   0.0000   0.0000   0.0000   0.0000

          k = 0.4942-0.5706 0.1027 (  2198 PWs)   bands (ev):

   -19.7313 -19.7052  -6.9577  -6.6476  -6.1329  -5.8935  -5.5180  -5.3890
    -3.3133  -3.2575  -2.8796  -2.7096  -2.5301  -2.3861   5.8395   6.1707
     6.3857   6.8959   7.1017   7.2365   7.3149   7.4706   7.4973   7.6631
     8.0371   8.6061   8.9477   9.2402   9.5515   9.7792   9.8594  10.3129
    10.3615  10.7892  10.9079  10.9776  11.1266  11.2278  12.2915  12.7216
    13.4084  14.3376  16.9055  17.1102  17.3077  18.0141

     occupation numbers 
     0.0625   0.0625   0.0625   0.0625   0.0625   0.0625   0.0625   0.0625
     0.0625   0.0625   0.0625   0.0625   0.0625   0.0625   0.0625   0.0625
     0.0625   0.0625   0.0625   0.0625   0.0625   0.0625   0.0625   0.0625
     0.0625   0.0625   0.0625   0.0625   0.0625   0.0625   0.0625   0.0625
     0.0625   0.0625   0.0624   0.0622   0.0613   0.0599   0.0016   0.0000
     0.0000   0.0000   0.0000   0.0000   0.0000   0.0000

          k =-0.7412 0.1427-0.1027 (  2198 PWs)   bands (ev):

   -19.7313 -19.7052  -6.9573  -6.6484  -6.1319  -5.8946  -5.5170  -5.3897
    -3.3126  -3.2576  -2.8795  -2.7106  -2.5295  -2.3865   5.8420   6.1647
     6.3911   6.8943   7.1005   7.2340   7.3048   7.4827   7.5130   7.6510
     8.0340   8.6027   8.9505   9.2407   9.5540   9.7790   9.8596  10.3108
    10.3619  10.7953  10.9018  10.9792  11.1198  11.2328  12.2916  12.7219
    13.4086  14.3379  16.9037  17.1131  17.3071  18.0138

     occupation numbers 
     0.0625   0.0625   0.0625   0.0625   0.0625   0.0625   0.0625   0.0625
     0.0625   0.0625   0.0625   0.0625   0.0625   0.0625   0.0625   0.0625
     0.0625   0.0625   0.0625   0.0625   0.0625   0.0625   0.0625   0.0625
     0.0625   0.0625   0.0625   0.0625   0.0625   0.0625   0.0625   0.0625
     0.0625   0.0625   0.0624   0.0622   0.0614   0.0598   0.0016   0.0000
     0.0000   0.0000   0.0000   0.0000   0.0000   0.0000

          k = 0.2471-0.7133-0.1027 (  2198 PWs)   bands (ev):

   -19.7313 -19.7052  -6.9573  -6.6484  -6.1319  -5.8946  -5.5170  -5.3897
    -3.3126  -3.2576  -2.8795  -2.7106  -2.5295  -2.3865   5.8420   6.1647
     6.3911   6.8943   7.1006   7.2340   7.3048   7.4827   7.5130   7.6509
     8.0340   8.6027   8.9505   9.2407   9.5540   9.7790   9.8596  10.3108
    10.3619  10.7953  10.9018  10.9792  11.1198  11.2328  12.2916  12.7219
    13.4086  14.3379  16.9037  17.1130  17.3071  18.0139

     occupation numbers 
     0.0625   0.0625   0.0625   0.0625   0.0625   0.0625   0.0625   0.0625
     0.0625   0.0625   0.0625   0.0625   0.0625   0.0625   0.0625   0.0625
     0.0625   0.0625   0.0625   0.0625   0.0625   0.0625   0.0625   0.0625
     0.0625   0.0625   0.0625   0.0625   0.0625   0.0625   0.0625   0.0625
     0.0625   0.0625   0.0624   0.0622   0.0614   0.0598   0.0016   0.0000
     0.0000   0.0000   0.0000   0.0000   0.0000   0.0000

          k =-0.7412-0.1427 0.1027 (  2198 PWs)   bands (ev):

   -19.7313 -19.7052  -6.9577  -6.6476  -6.1329  -5.8935  -5.5180  -5.3890
    -3.3133  -3.2575  -2.8796  -2.7096  -2.5301  -2.3861   5.8394   6.1707
     6.3857   6.8959   7.1017   7.2365   7.3149   7.4706   7.4973   7.6631
     8.0372   8.6061   8.9477   9.2402   9.5515   9.7792   9.8594  10.3129
    10.3615  10.7892  10.9079  10.9776  11.1266  11.2278  12.2915  12.7216
    13.4084  14.3376  16.9055  17.1102  17.3077  18.0141

     occupation numbers 
     0.0625   0.0625   0.0625   0.0625   0.0625   0.0625   0.0625   0.0625
     0.0625   0.0625   0.0625   0.0625   0.0625   0.0625   0.0625   0.0625
     0.0625   0.0625   0.0625   0.0625   0.0625   0.0625   0.0625   0.0625
     0.0625   0.0625   0.0625   0.0625   0.0625   0.0625   0.0625   0.0625
     0.0625   0.0625   0.0624   0.0622   0.0613   0.0599   0.0016   0.0000
     0.0000   0.0000   0.0000   0.0000   0.0000   0.0000

          k = 0.2471 0.7133 0.1027 (  2198 PWs)   bands (ev):

   -19.7313 -19.7052  -6.9576  -6.6476  -6.1328  -5.8937  -5.5181  -5.3889
    -3.3134  -3.2575  -2.8796  -2.7096  -2.5301  -2.3861   5.8394   6.1707
     6.3857   6.8959   7.1017   7.2365   7.3149   7.4706   7.4973   7.6631
     8.0372   8.6061   8.9477   9.2402   9.5515   9.7792   9.8594  10.3130
    10.3615  10.7892  10.9079  10.9776  11.1266  11.2278  12.2915  12.7216
    13.4084  14.3376  16.9055  17.1102  17.3076  18.0141

     occupation numbers 
     0.0625   0.0625   0.0625   0.0625   0.0625   0.0625   0.0625   0.0625
     0.0625   0.0625   0.0625   0.0625   0.0625   0.0625   0.0625   0.0625
     0.0625   0.0625   0.0625   0.0625   0.0625   0.0625   0.0625   0.0625
     0.0625   0.0625   0.0625   0.0625   0.0625   0.0625   0.0625   0.0625
     0.0625   0.0625   0.0624   0.0622   0.0613   0.0599   0.0016   0.0000
     0.0000   0.0000   0.0000   0.0000   0.0000   0.0000

          k = 0.2471-0.4280 0.0000 (  2203 PWs)   bands (ev):

   -19.7425 -19.6920  -6.8487  -6.6426  -6.0538  -5.9829  -5.4437  -5.3743
    -3.5329  -3.2965  -2.8029  -2.7100  -2.5729  -2.5632   5.8502   6.1813
     6.6725   6.9930   7.0600   7.1270   7.3461   7.3580   7.4130   7.7388
     7.9425   8.8847   8.9026   9.3631   9.7391   9.7570  10.0374  10.3334
    10.6166  10.6513  10.8097  10.9303  10.9459  11.3233  12.2078  13.3008
    13.3780  14.1330  16.4336  16.9922  17.4194  17.9250

     occupation numbers 
     0.0625   0.0625   0.0625   0.0625   0.0625   0.0625   0.0625   0.0625
     0.0625   0.0625   0.0625   0.0625   0.0625   0.0625   0.0625   0.0625
     0.0625   0.0625   0.0625   0.0625   0.0625   0.0625   0.0625   0.0625
     0.0625   0.0625   0.0625   0.0625   0.0625   0.0625   0.0625   0.0625
     0.0625   0.0625   0.0625   0.0623   0.0623   0.0575   0.0030   0.0000
     0.0000   0.0000   0.0000   0.0000   0.0000   0.0000

          k =-0.4942 0.0000 0.0000 (  2203 PWs)   bands (ev):

   -19.7425 -19.6920  -6.8487  -6.6426  -6.0538  -5.9828  -5.4437  -5.3743
    -3.5329  -3.2965  -2.8029  -2.7100  -2.5729  -2.5632   5.8502   6.1813
     6.6725   6.9930   7.0599   7.1270   7.3461   7.3580   7.4130   7.7388
     7.9425   8.8847   8.9026   9.3631   9.7391   9.7570  10.0374  10.3334
    10.6166  10.6513  10.8097  10.9303  10.9459  11.3233  12.2078  13.3008
    13.3780  14.1330  16.4336  16.9922  17.4194  17.9245

     occupation numbers 
     0.0625   0.0625   0.0625   0.0625   0.0625   0.0625   0.0625   0.0625
     0.0625   0.0625   0.0625   0.0625   0.0625   0.0625   0.0625   0.0625
     0.0625   0.0625   0.0625   0.0625   0.0625   0.0625   0.0625   0.0625
     0.0625   0.0625   0.0625   0.0625   0.0625   0.0625   0.0625   0.0625
     0.0625   0.0625   0.0625   0.0623   0.0623   0.0575   0.0030   0.0000
     0.0000   0.0000   0.0000   0.0000   0.0000   0.0000

          k = 0.4942 0.2853 0.4107 (  2202 PWs)   bands (ev):

   -19.7314 -19.7064  -7.1684  -6.4546  -6.2403  -5.9714  -5.5338  -5.2976
    -3.2004  -3.1192  -3.0505  -2.6500  -2.4814  -2.2233   5.7662   5.8672
     6.1667   6.8096   7.1449   7.2542   7.3167   7.4805   7.9727   7.9802
     8.1608   8.3035   8.6000   9.3798   9.4114   9.6725  10.0282  10.0625
    10.4090  10.7038  10.8663  11.0138  11.1455  11.3640  11.8309  12.4015
    13.3109  14.7728  17.0423  17.2645  17.5183  17.6109

     occupation numbers 
     0.0313   0.0313   0.0313   0.0313   0.0313   0.0313   0.0313   0.0313
     0.0313   0.0313   0.0313   0.0313   0.0313   0.0313   0.0313   0.0313
     0.0313   0.0313   0.0313   0.0313   0.0313   0.0313   0.0313   0.0313
     0.0313   0.0313   0.0313   0.0312   0.0312   0.0312   0.0312   0.0312
     0.0312   0.0312   0.0312   0.0310   0.0306   0.0280   0.0113   0.0003
     0.0000   0.0000   0.0000   0.0000   0.0000   0.0000

          k = 0.0000 0.5706-0.4107 (  2202 PWs)   bands (ev):

   -19.7314 -19.7064  -7.1684  -6.4546  -6.2402  -5.9714  -5.5338  -5.2976
    -3.2004  -3.1192  -3.0505  -2.6500  -2.4814  -2.2233   5.7662   5.8672
     6.1668   6.8096   7.1449   7.2542   7.3167   7.4805   7.9727   7.9802
     8.1608   8.3035   8.6000   9.3798   9.4114   9.6725  10.0282  10.0625
    10.4090  10.7038  10.8663  11.0138  11.1455  11.3640  11.8309  12.4015
    13.3109  14.7728  17.0423  17.2645  17.5183  17.6109

     occupation numbers 
     0.0313   0.0313   0.0313   0.0313   0.0313   0.0313   0.0313   0.0313
     0.0313   0.0313   0.0313   0.0313   0.0313   0.0313   0.0313   0.0313
     0.0313   0.0313   0.0313   0.0313   0.0313   0.0313   0.0313   0.0313
     0.0313   0.0313   0.0313   0.0312   0.0312   0.0312   0.0312   0.0312
     0.0312   0.0312   0.0312   0.0310   0.0306   0.0280   0.0113   0.0003
     0.0000   0.0000   0.0000   0.0000   0.0000   0.0000

          k = 0.7412-0.4280 0.0000 (  2204 PWs)   bands (ev):

   -19.7419 -19.6932  -6.7344  -6.6066  -6.1462  -5.8349  -5.6901  -5.5520
    -3.1854  -3.0955  -3.0457  -2.6780  -2.6603  -2.5867   5.8905   6.4378
     6.5686   7.0122   7.0911   7.2272   7.2683   7.3987   7.4692   7.6850
     8.0274   8.6957   8.9642   9.4485   9.5338   9.6712   9.8281  10.2138
    10.6199  10.7628  10.8258  11.0032  11.0409  11.1433  12.2079  13.2224
    13.2940  14.1598  16.6861  16.7235  17.5900  17.7930

     occupation numbers 
     0.0625   0.0625   0.0625   0.0625   0.0625   0.0625   0.0625   0.0625
     0.0625   0.0625   0.0625   0.0625   0.0625   0.0625   0.0625   0.0625
     0.0625   0.0625   0.0625   0.0625   0.0625   0.0625   0.0625   0.0625
     0.0625   0.0625   0.0625   0.0625   0.0625   0.0625   0.0625   0.0625
     0.0625   0.0625   0.0624   0.0621   0.0620   0.0612   0.0030   0.0000
     0.0000   0.0000   0.0000   0.0000   0.0000   0.0000

          k = 0.0000-0.8559 0.0000 (  2204 PWs)   bands (ev):

   -19.7419 -19.6932  -6.7344  -6.6067  -6.1462  -5.8349  -5.6900  -5.5522
    -3.1854  -3.0955  -3.0457  -2.6780  -2.6603  -2.5867   5.8905   6.4378
     6.5686   7.0122   7.0911   7.2272   7.2683   7.3987   7.4692   7.6850
     8.0274   8.6957   8.9642   9.4485   9.5338   9.6712   9.8281  10.2137
    10.6199  10.7628  10.8258  11.0032  11.0409  11.1433  12.2079  13.2224
    13.2939  14.1598  16.6861  16.7235  17.5901  17.7930

     occupation numbers 
     0.0625   0.0625   0.0625   0.0625   0.0625   0.0625   0.0625   0.0625
     0.0625   0.0625   0.0625   0.0625   0.0625   0.0625   0.0625   0.0625
     0.0625   0.0625   0.0625   0.0625   0.0625   0.0625   0.0625   0.0625
     0.0625   0.0625   0.0625   0.0625   0.0625   0.0625   0.0625   0.0625
     0.0625   0.0625   0.0624   0.0621   0.0620   0.0612   0.0030   0.0000
     0.0000   0.0000   0.0000   0.0000   0.0000   0.0000

          k = 0.4942-0.2853-0.1027 (  2211 PWs)   bands (ev):

   -19.7319 -19.7046  -6.9734  -6.5451  -6.3248  -5.7038  -5.6265  -5.3631
    -3.3265  -3.1665  -3.0376  -2.6036  -2.5642  -2.3790   5.8762   6.1476
     6.3384   6.8786   7.1243   7.1635   7.3474   7.4318   7.5898   7.6434
     8.0728   8.6566   8.9455   9.3736   9.4013   9.6437   9.9729  10.2230
    10.4443  10.8626  11.0009  11.0172  11.0568  11.0874  12.2466  12.7362
    13.4552  14.3194  16.8843  16.9338  17.5784  17.9259

     occupation numbers 
     0.0625   0.0625   0.0625   0.0625   0.0625   0.0625   0.0625   0.0625
     0.0625   0.0625   0.0625   0.0625   0.0625   0.0625   0.0625   0.0625
     0.0625   0.0625   0.0625   0.0625   0.0625   0.0625   0.0625   0.0625
     0.0625   0.0625   0.0625   0.0625   0.0625   0.0625   0.0625   0.0625
     0.0625   0.0624   0.0621   0.0621   0.0619   0.0617   0.0023   0.0000
     0.0000   0.0000   0.0000   0.0000   0.0000   0.0000

          k = 0.0000-0.5706 0.1027 (  2211 PWs)   bands (ev):

   -19.7319 -19.7046  -6.9735  -6.5450  -6.3247  -5.7037  -5.6263  -5.3632
    -3.3265  -3.1665  -3.0376  -2.6036  -2.5642  -2.3790   5.8762   6.1476
     6.3384   6.8786   7.1243   7.1635   7.3475   7.4318   7.5898   7.6434
     8.0727   8.6567   8.9455   9.3736   9.4013   9.6437   9.9728  10.2230
    10.4443  10.8626  11.0009  11.0172  11.0568  11.0874  12.2466  12.7362
    13.4552  14.3194  16.8843  16.9338  17.5784  17.9260

     occupation numbers 
     0.0625   0.0625   0.0625   0.0625   0.0625   0.0625   0.0625   0.0625
     0.0625   0.0625   0.0625   0.0625   0.0625   0.0625   0.0625   0.0625
     0.0625   0.0625   0.0625   0.0625   0.0625   0.0625   0.0625   0.0625
     0.0625   0.0625   0.0625   0.0625   0.0625   0.0625   0.0625   0.0625
     0.0625   0.0624   0.0621   0.0621   0.0619   0.0617   0.0023   0.0000
     0.0000   0.0000   0.0000   0.0000   0.0000   0.0000

          k = 0.7412 0.4280 0.3080 (  2210 PWs)   bands (ev):

   -19.7316 -19.7055  -6.9100  -6.4544  -6.3028  -5.7986  -5.7655  -5.4917
    -3.0734  -3.0574  -2.9659  -2.7319  -2.6250  -2.4291   5.9533   6.2919
     6.3791   6.8559   7.0966   7.2122   7.3845   7.4643   7.6264   7.6629
     8.0460   8.6685   8.8276   9.3610   9.4719   9.4895   9.6403  10.1566
    10.4875  10.8665  10.9613  11.0055  11.1286  11.1485  12.2061  12.6886
    13.4040  14.2893  17.0587  17.0679  17.5468  17.9015

     occupation numbers 
     0.0625   0.0625   0.0625   0.0625   0.0625   0.0625   0.0625   0.0625
     0.0625   0.0625   0.0625   0.0625   0.0625   0.0625   0.0625   0.0625
     0.0625   0.0625   0.0625   0.0625   0.0625   0.0625   0.0625   0.0625
     0.0625   0.0625   0.0625   0.0625   0.0625   0.0625   0.0625   0.0625
     0.0625   0.0624   0.0623   0.0621   0.0613   0.0611   0.0031   0.0000
     0.0000   0.0000   0.0000   0.0000   0.0000   0.0000

          k = 0.0000 0.8559-0.3080 (  2210 PWs)   bands (ev):

   -19.7316 -19.7055  -6.9100  -6.4544  -6.3028  -5.7986  -5.7655  -5.4917
    -3.0734  -3.0574  -2.9659  -2.7319  -2.6250  -2.4291   5.9533   6.2919
     6.3791   6.8559   7.0966   7.2122   7.3845   7.4643   7.6264   7.6629
     8.0460   8.6685   8.8276   9.3610   9.4719   9.4895   9.6403  10.1566
    10.4875  10.8665  10.9613  11.0055  11.1286  11.1485  12.2061  12.6886
    13.4040  14.2893  17.0587  17.0679  17.5468  17.9015

     occupation numbers 
     0.0625   0.0625   0.0625   0.0625   0.0625   0.0625   0.0625   0.0625
     0.0625   0.0625   0.0625   0.0625   0.0625   0.0625   0.0625   0.0625
     0.0625   0.0625   0.0625   0.0625   0.0625   0.0625   0.0625   0.0625
     0.0625   0.0625   0.0625   0.0625   0.0625   0.0625   0.0625   0.0625
     0.0625   0.0624   0.0623   0.0621   0.0613   0.0611   0.0031   0.0000
     0.0000   0.0000   0.0000   0.0000   0.0000   0.0000

          k = 0.2471 0.7133-0.2053 (  2206 PWs)   bands (ev):

   -19.7193 -19.7193  -6.8882  -6.8769  -6.0370  -6.0356  -5.4327  -5.4320
    -3.1548  -3.1544  -2.8172  -2.8164  -2.3849  -2.3823   6.0217   6.0327
     6.5257   6.5281   7.0172   7.0201   7.3229   7.3272   7.6567   7.6855
     8.6609   8.6649   8.8019   8.8074   9.4954   9.4971  10.0418  10.0433
    10.6564  10.6601  10.8587  10.8660  11.1861  11.1917  12.2577  12.2620
    13.9824  13.9925  17.4251  17.4256  17.8676  17.8700

     occupation numbers 
     0.0625   0.0625   0.0625   0.0625   0.0625   0.0625   0.0625   0.0625
     0.0625   0.0625   0.0625   0.0625   0.0625   0.0625   0.0625   0.0625
     0.0625   0.0625   0.0625   0.0625   0.0625   0.0625   0.0625   0.0625
     0.0625   0.0625   0.0625   0.0625   0.0625   0.0625   0.0625   0.0625
     0.0625   0.0625   0.0624   0.0624   0.0606   0.0605   0.0021   0.0020
     0.0000   0.0000   0.0000   0.0000   0.0000   0.0000

          k =-0.7412-0.1427-0.2053 (  2206 PWs)   bands (ev):

   -19.7193 -19.7193  -6.8883  -6.8769  -6.0369  -6.0355  -5.4328  -5.4321
    -3.1548  -3.1544  -2.8172  -2.8164  -2.3850  -2.3823   6.0217   6.0327
     6.5257   6.5281   7.0172   7.0201   7.3229   7.3272   7.6567   7.6855
     8.6609   8.6649   8.8019   8.8074   9.4954   9.4971  10.0418  10.0433
    10.6564  10.6601  10.8587  10.8660  11.1861  11.1917  12.2577  12.2620
    13.9824  13.9925  17.4251  17.4256  17.8676  17.8700

     occupation numbers 
     0.0625   0.0625   0.0625   0.0625   0.0625   0.0625   0.0625   0.0625
     0.0625   0.0625   0.0625   0.0625   0.0625   0.0625   0.0625   0.0625
     0.0625   0.0625   0.0625   0.0625   0.0625   0.0625   0.0625   0.0625
     0.0625   0.0625   0.0625   0.0625   0.0625   0.0625   0.0625   0.0625
     0.0625   0.0625   0.0624   0.0624   0.0606   0.0605   0.0021   0.0020
     0.0000   0.0000   0.0000   0.0000   0.0000   0.0000

     the Fermi energy is    11.7287 ev

!    total energy              =    -538.07596937 Ry
     Harris-Foulkes estimate   =    -538.07596025 Ry
     estimated scf accuracy    <          8.1E-09 Ry

     The total energy is the sum of the following terms:

     one-electron contribution =     -32.90779878 Ry
     hartree contribution      =      83.66137621 Ry
     xc contribution           =    -199.60832601 Ry
     ewald contribution        =    -389.44315552 Ry
     Hubbard energy            =       0.23521517 Ry
     smearing contrib. (-TS)   =      -0.01328044 Ry

     convergence has been achieved in  13 iterations

     init_run     :      6.87s CPU      7.06s WALL (       1 calls)
     electrons    :    538.47s CPU    555.33s WALL (       1 calls)

     Called by init_run:
     wfcinit      :      0.00s CPU      0.00s WALL (       1 calls)
     potinit      :      0.27s CPU      0.38s WALL (       1 calls)

     Called by electrons:
     c_bands      :    411.28s CPU    423.68s WALL (      13 calls)
     sum_band     :     94.26s CPU     96.49s WALL (      13 calls)
     v_of_rho     :      4.27s CPU      4.32s WALL (      14 calls)
     v_h          :      0.32s CPU      0.32s WALL (      14 calls)
     v_xc         :      3.95s CPU      4.00s WALL (      14 calls)
     newd         :     29.25s CPU     29.66s WALL (      14 calls)
     mix_rho      :      0.48s CPU      0.48s WALL (      13 calls)

     Called by c_bands:
     init_us_2    :      4.01s CPU      4.02s WALL (     936 calls)
     cegterg      :    400.49s CPU    412.05s WALL (     468 calls)

     Called by sum_band:
     sum_band:bec :      0.36s CPU      0.35s WALL (     468 calls)
     addusdens    :     18.82s CPU     18.92s WALL (      13 calls)

     Called by *egterg:
     h_psi        :    299.01s CPU    308.28s WALL (    1761 calls)
     s_psi        :     15.53s CPU     15.57s WALL (    1761 calls)
     g_psi        :      1.22s CPU      1.19s WALL (    1293 calls)
     cdiaghg      :     24.18s CPU     24.47s WALL (    1725 calls)
     cegterg:over :     23.44s CPU     24.35s WALL (    1293 calls)
     cegterg:upda :     11.12s CPU     11.15s WALL (    1293 calls)
     cegterg:last :      8.36s CPU      8.46s WALL (     528 calls)

     Called by h_psi:
     h_psi:vloc   :    242.35s CPU    250.42s WALL (    1761 calls)
     h_psi:vnl    :     34.62s CPU     35.12s WALL (    1761 calls)
     add_vuspsi   :     15.52s CPU     15.57s WALL (    1761 calls)
     vhpsi        :     21.30s CPU     21.97s WALL (    1761 calls)

     General routines
     calbec       :     42.33s CPU     43.56s WALL (    4458 calls)
     fft          :      4.39s CPU      4.55s WALL (     219 calls)
     ffts         :      0.10s CPU      0.10s WALL (      27 calls)
     fftw         :    234.35s CPU    243.32s WALL (  132430 calls)
     interpolate  :      0.60s CPU      0.61s WALL (      27 calls)
     davcio       :      0.02s CPU      1.40s WALL (     972 calls)

     Parallel routines
     fft_scatter  :     91.92s CPU    100.79s WALL (  132676 calls)
     Hubbard U routines
     new_ns       :      4.00s CPU      4.71s WALL (      13 calls)
     vhpsi        :     21.30s CPU     21.97s WALL (    1761 calls)

     PWSCF        :  9m 5.76s CPU     9m23.01s WALL


   This run was terminated on:  15:30:21  11Nov2012            

=------------------------------------------------------------------------------=
