   JOB DONE.
=------------------------------------------------------------------------------=

     Program PWSCF v.5.0.1 starts on 11Nov2012 at 15:47:51 

     This program is part of the open-source Quantum ESPRESSO suite
     for quantum simulation of materials; please cite
         "P. Giannozzi et al., J. Phys.:Condens. Matter 21 395502 (2009);
          URL http://www.quantum-espresso.org", 
     in publications or presentations arising from this work. More details at
     http://www.quantum-espresso.org/quote.php

     Parallel version (MPI), running on     2 processors
     R & G space division:  proc/pool =    2

     Current dimensions of program PWSCF are:
     Max number of different atomic species (ntypx) = 10
     Max number of k-points (npk) =  40000
     Max angular momentum in pseudopotentials (lmaxx) =  3
     Reading input from CoLaO_U300_a15.in
               file Co.pbe-nd-rrkjus.UPF: wavefunction(s)  4S 3D renormalized
               file O.pbe-rrkjus.UPF: wavefunction(s)  2S renormalized
               file O.pbe-rrkjus.UPF: wavefunction(s)  2S renormalized

     Subspace diagonalization in iterative solution of the eigenvalue problem:
     a serial algorithm will be used


     Parallelization info
     --------------------
     sticks:   dense  smooth     PW     G-vecs:    dense   smooth      PW
     Min        1112     444    131                34808     8786    1448
     Max        1113     445    132                34809     8787    1449
     Sum        2225     889    263                69617    17573    2897


     Title: 
     GGA + U, U = 3.000, alpha = 0.150                                          


     bravais-lattice index     =            5
     lattice parameter (alat)  =      10.3292  a.u.
     unit-cell volume          =     793.0599 (a.u.)^3
     number of atoms/cell      =           10
     number of atomic types    =            4
     number of electrons       =        76.00
     number of Kohn-Sham states=           46
     kinetic-energy cutoff     =      30.0000  Ry
     charge density cutoff     =     300.0000  Ry
     convergence threshold     =      1.0E-08
     mixing beta               =       0.2000
     number of iterations used =            8  plain     mixing
     Exchange-correlation      =  SLA  PW   PBE  PBE ( 1 4 3 4 0)
     EXX-fraction              =        0.00

     celldm(1)=  10.329242  celldm(2)=   0.000000  celldm(3)=   0.000000
     celldm(4)=   0.488100  celldm(5)=   0.000000  celldm(6)=   0.000000

     crystal axes: (cart. coord. in units of alat)
               a(1) = (   0.505915  -0.292090   0.811624 )  
               a(2) = (   0.000000   0.584180   0.811624 )  
               a(3) = (  -0.505915  -0.292090   0.811624 )  

     reciprocal axes: (cart. coord. in units 2 pi/alat)
               b(1) = (  0.988308 -0.570600  0.410699 )  
               b(2) = (  0.000000  1.141200  0.410699 )  
               b(3) = ( -0.988308 -0.570600  0.410699 )  


     PseudoPot. # 1 for Co read from file:
     /home/mcurnan/dft-course/Project1/example_LaCoO3/Co.pbe-nd-rrkjus.UPF
     MD5 check sum: 3e47a84addf5e975e0edeaeee2a73f59
     Pseudo is Ultrasoft + core correction, Zval =  9.0
     Generated by new atomic code, or converted to UPF format
     Using radial grid of  961 points,  6 beta functions with: 
                l(1) =   0
                l(2) =   0
                l(3) =   1
                l(4) =   1
                l(5) =   2
                l(6) =   2
     Q(r) pseudized with 0 coefficients 


     PseudoPot. # 2 for La read from file:
     /home/mcurnan/dft-course/Project1/example_LaCoO3/La.pbe-nsp-van.UPF
     MD5 check sum: b2f11743f52dde65f77d1302becd7929
     Pseudo is Ultrasoft + core correction, Zval = 11.0
     Generated by new atomic code, or converted to UPF format
     Using radial grid of  907 points,  6 beta functions with: 
                l(1) =   0
                l(2) =   0
                l(3) =   1
                l(4) =   1
                l(5) =   2
                l(6) =   2
     Q(r) pseudized with  6 coefficients,  rinner =    1.200   1.200   1.200
                                                       1.200   1.200

     PseudoPot. # 3 for O  read from file:
     /home/mcurnan/dft-course/Project1/example_LaCoO3/O.pbe-rrkjus.UPF
     MD5 check sum: 390ba29e75625707450f3bd3f0eb6be9
     Pseudo is Ultrasoft, Zval =  6.0
     Generated by new atomic code, or converted to UPF format
     Using radial grid of 1269 points,  4 beta functions with: 
                l(1) =   0
                l(2) =   0
                l(3) =   1
                l(4) =   1
     Q(r) pseudized with 0 coefficients 


     PseudoPot. # 4 for O  read from file:
     /home/mcurnan/dft-course/Project1/example_LaCoO3/O.pbe-rrkjus.UPF
     MD5 check sum: 390ba29e75625707450f3bd3f0eb6be9
     Pseudo is Ultrasoft, Zval =  6.0
     Generated by new atomic code, or converted to UPF format
     Using radial grid of 1269 points,  4 beta functions with: 
                l(1) =   0
                l(2) =   0
                l(3) =   1
                l(4) =   1
     Q(r) pseudized with 0 coefficients 


     atomic species   valence    mass     pseudopotential
        Co1            9.00     1.00000     Co( 1.00)
        La1           11.00     1.00000     La( 1.00)
        O1             6.00     1.00000     O ( 1.00)
        O2             6.00     1.00000     O ( 1.00)
 -----
     simplified LDA+U calculation, Hubbard_lmax = 2
     atomic species  L   Hubbard U  Hubbard alpha
        Co1          2    3.000000    0.000000
        La1          2    0.000000    0.000000
        O1           1    0.000000    0.150000
        O2           1    0.000000    0.000000
 -----

     No symmetry found


                                    s                        frac. trans.

      isym =  1     identity                                     

 cryst.   s( 1) = (     1          0          0      )
                  (     0          1          0      )
                  (     0          0          1      )

 cart.    s( 1) = (  1.0000000  0.0000000  0.0000000 )
                  (  0.0000000  1.0000000  0.0000000 )
                  (  0.0000000  0.0000000  1.0000000 )


     point group C_1 (1)    
     there are  1 classes
     the character table:

       E    
A      1.00

     the symmetry operations in each class:
     E        1

   Cartesian axes

     site n.     atom                  positions (alat units)
         1           Co1 tau(   1) = (   0.2228050  -0.1992639   1.0141240  )
         2           Co1 tau(   2) = (  -0.2831100   0.0928263   1.4199360  )
         3           La1 tau(   3) = (  -0.2831100   0.0928263   0.8112181  )
         4           La1 tau(   4) = (   0.2228050   0.3849164   1.2170300  )
         5           O1  tau(   5) = (   0.0000000   0.0000000   0.0000000  )
         6           O2  tau(   6) = (   0.0008601   0.1861491   1.6232478  )
         7           O2  tau(   7) = (   0.1616398   0.0923297   0.8116239  )
         8           O2  tau(   8) = (  -0.0603051  -0.1064377   1.2166242  )
         9           O2  tau(   9) = (   0.4447499  -0.0004966   1.2166242  )
        10           O2  tau(  10) = (  -0.2219449   0.3854130   1.2166242  )

   Crystallographic axes

     site n.     atom                  positions (cryst. coord.)
         1           Co1 tau(   1) = (  0.7504000  0.1891000  0.3100000  )
         2           Co1 tau(   2) = (  0.2504000  0.6891000  0.8100000  )
         3           La1 tau(   3) = (  0.0004000  0.4391000  0.5600000  )
         4           La1 tau(   4) = (  0.5004000  0.9391000  0.0600000  )
         5           O1  tau(   5) = (  0.0000000  0.0000000  0.0000000  )
         6           O2  tau(   6) = (  0.5613000  0.8791000  0.5596000  )
         7           O2  tau(   7) = (  0.4404000  0.4387000  0.1209000  )
         8           O2  tau(   8) = (  0.5008000  0.3782000  0.6200000  )
         9           O2  tau(   9) = (  0.9395000  0.4991000  0.0604000  )
        10           O2  tau(  10) = (  0.0604000  0.9395000  0.4991000  )

     number of k points=    36  gaussian smearing, width (Ry)=  0.0300
                       cart. coord. in units 2pi/alat
        k(    1) = (   0.0000000   0.0000000   0.0000000), wk =   0.0312500
        k(    2) = (  -0.2470771  -0.1426500   0.1026748), wk =   0.0625000
        k(    3) = (   0.4941541   0.2853000  -0.2053496), wk =   0.0312500
        k(    4) = (  -0.2470771   0.1426500   0.2053496), wk =   0.0625000
        k(    5) = (   0.4941541   0.5706001  -0.1026748), wk =   0.0625000
        k(    6) = (   0.2470771   0.4279500   0.0000000), wk =   0.0625000
        k(    7) = (   0.4941541  -0.2853000  -0.4106993), wk =   0.0312500
        k(    8) = (   0.0000000   0.0000000   0.3080244), wk =   0.0625000
        k(    9) = (   0.7412312   0.4279500   0.0000000), wk =   0.0625000
        k(   10) = (   0.4941541   0.2853000   0.1026748), wk =   0.0625000
        k(   11) = (   0.7412312  -0.4279500  -0.3080244), wk =   0.0625000
        k(   12) = (   0.4941541  -0.5706001  -0.2053496), wk =   0.0625000
        k(   13) = (   0.0000000   0.0000000  -0.6160489), wk =   0.0312500
        k(   14) = (  -0.2470771   0.1426500  -0.1026748), wk =   0.0625000
        k(   15) = (   0.0000000   0.2853000   0.1026748), wk =   0.0625000
        k(   16) = (   0.4941541  -0.2853000   0.2053496), wk =   0.0312500
        k(   17) = (   0.0000000  -0.5706001  -0.2053496), wk =   0.0312500
        k(   18) = (  -0.2470771  -0.1426500  -0.2053496), wk =   0.0625000
        k(   19) = (   0.0000000  -0.2853000   0.2053496), wk =   0.0625000
        k(   20) = (   0.4941541  -0.5706001   0.1026748), wk =   0.0625000
        k(   21) = (  -0.7412312   0.1426500  -0.1026748), wk =   0.0625000
        k(   22) = (   0.2470771  -0.7132501  -0.1026748), wk =   0.0625000
        k(   23) = (  -0.7412312  -0.1426500   0.1026748), wk =   0.0625000
        k(   24) = (   0.2470771   0.7132501   0.1026748), wk =   0.0625000
        k(   25) = (   0.2470771  -0.4279500   0.0000000), wk =   0.0625000
        k(   26) = (  -0.4941541   0.0000000   0.0000000), wk =   0.0625000
        k(   27) = (   0.4941541   0.2853000   0.4106993), wk =   0.0312500
        k(   28) = (   0.0000000   0.5706001  -0.4106993), wk =   0.0312500
        k(   29) = (   0.7412312  -0.4279500   0.0000000), wk =   0.0625000
        k(   30) = (   0.0000000  -0.8559001   0.0000000), wk =   0.0625000
        k(   31) = (   0.4941541  -0.2853000  -0.1026748), wk =   0.0625000
        k(   32) = (   0.0000000  -0.5706001   0.1026748), wk =   0.0625000
        k(   33) = (   0.7412312   0.4279500   0.3080244), wk =   0.0625000
        k(   34) = (   0.0000000   0.8559001  -0.3080244), wk =   0.0625000
        k(   35) = (   0.2470771   0.7132501  -0.2053496), wk =   0.0625000
        k(   36) = (  -0.7412312  -0.1426500  -0.2053496), wk =   0.0625000

                       cryst. coord.
        k(    1) = (   0.0000000   0.0000000   0.0000000), wk =   0.0312500
        k(    2) = (   0.0000000   0.0000000   0.2500000), wk =   0.0625000
        k(    3) = (   0.0000000   0.0000000  -0.5000000), wk =   0.0312500
        k(    4) = (   0.0000000   0.2500000   0.2500000), wk =   0.0625000
        k(    5) = (   0.0000000   0.2500000  -0.5000000), wk =   0.0625000
        k(    6) = (   0.0000000   0.2500000  -0.2500000), wk =   0.0625000
        k(    7) = (   0.0000000  -0.5000000  -0.5000000), wk =   0.0312500
        k(    8) = (   0.2500000   0.2500000   0.2500000), wk =   0.0625000
        k(    9) = (   0.2500000   0.2500000  -0.5000000), wk =   0.0625000
        k(   10) = (   0.2500000   0.2500000  -0.2500000), wk =   0.0625000
        k(   11) = (   0.2500000  -0.5000000  -0.5000000), wk =   0.0625000
        k(   12) = (   0.2500000  -0.5000000  -0.2500000), wk =   0.0625000
        k(   13) = (  -0.5000000  -0.5000000  -0.5000000), wk =   0.0312500
        k(   14) = (  -0.2500000   0.0000000   0.0000000), wk =   0.0625000
        k(   15) = (   0.0000000   0.2500000   0.0000000), wk =   0.0625000
        k(   16) = (   0.5000000   0.0000000   0.0000000), wk =   0.0312500
        k(   17) = (   0.0000000  -0.5000000   0.0000000), wk =   0.0312500
        k(   18) = (  -0.2500000  -0.2500000   0.0000000), wk =   0.0625000
        k(   19) = (   0.2500000   0.0000000   0.2500000), wk =   0.0625000
        k(   20) = (   0.5000000  -0.2500000   0.0000000), wk =   0.0625000
        k(   21) = (  -0.5000000   0.0000000   0.2500000), wk =   0.0625000
        k(   22) = (   0.2500000  -0.5000000   0.0000000), wk =   0.0625000
        k(   23) = (  -0.2500000   0.0000000   0.5000000), wk =   0.0625000
        k(   24) = (   0.0000000   0.5000000  -0.2500000), wk =   0.0625000
        k(   25) = (   0.2500000  -0.2500000   0.0000000), wk =   0.0625000
        k(   26) = (  -0.2500000   0.0000000   0.2500000), wk =   0.0625000
        k(   27) = (   0.5000000   0.5000000   0.0000000), wk =   0.0312500
        k(   28) = (  -0.5000000   0.0000000  -0.5000000), wk =   0.0312500
        k(   29) = (   0.5000000  -0.2500000  -0.2500000), wk =   0.0625000
        k(   30) = (   0.2500000  -0.5000000   0.2500000), wk =   0.0625000
        k(   31) = (   0.2500000  -0.2500000  -0.2500000), wk =   0.0625000
        k(   32) = (   0.2500000  -0.2500000   0.2500000), wk =   0.0625000
        k(   33) = (   0.5000000   0.5000000  -0.2500000), wk =   0.0625000
        k(   34) = (  -0.5000000   0.2500000  -0.5000000), wk =   0.0625000
        k(   35) = (  -0.2500000   0.2500000  -0.5000000), wk =   0.0625000
        k(   36) = (  -0.5000000  -0.2500000   0.2500000), wk =   0.0625000

     Dense  grid:    69617 G-vectors     FFT dimensions: (  60,  60,  60)

     Smooth grid:    17573 G-vectors     FFT dimensions: (  40,  40,  40)

     Largest allocated arrays     est. size (Mb)     dimensions
        Kohn-Sham Wavefunctions         0.79 Mb     (   1119,   46)
        Atomic wavefunctions            1.06 Mb     (   1119,   62)
        NL pseudopotentials             2.05 Mb     (   1119,  120)
        Each V/rho on FFT grid          1.65 Mb     ( 108000)
        Each G-vector array             0.27 Mb     (  34808)
        G-vector shells                 0.04 Mb     (   4682)
     Largest temporary arrays     est. size (Mb)     dimensions
        Auxiliary wavefunctions         3.14 Mb     (   1119,  184)
        Each subspace H/S matrix        0.52 Mb     ( 184, 184)
        Each <psi_i|beta_j> matrix      0.08 Mb     (    120,   46)
        Arrays for rho mixing          13.18 Mb     ( 108000,   8)

     Check: negative/imaginary core charge=   -0.000028    0.000000

     The initial density is read from file :
     /home/mcurnan/dft-course/Project1/example_LaCoO3/300/O/alpha/CoLaO_U300.save/charge-density.dat

 --- in v_hubbard ---
Hubbard energy    0.3470
 -------
     Number of +U iterations with fixed ns =  0
     Starting occupations:
 --- enter write_ns ---
 LDA+U parameters:
U( 1)     =  3.00000000
alpha( 1) =  0.00000000
U( 2)     =  0.00000000
alpha( 2) =  0.00000000
U( 3)     =  0.00000000
alpha( 3) =  0.15000000
U( 4)     =  0.00000000
alpha( 4) =  0.00000000
atom    1   Tr[ns(na)] =   8.02205
    eigenvalues: 
  0.596  0.596  0.938  0.941  0.941
    eigenvectors:
  0.000  0.000  1.000  0.000  0.000
  0.057  0.598  0.000  0.178  0.167
  0.598  0.057  0.000  0.167  0.178
  0.210  0.135  0.000  0.095  0.560
  0.135  0.210  0.000  0.560  0.095
    occupations:
  0.938  0.000  0.000  0.000  0.000
  0.000  0.715  0.000 -0.060  0.152
  0.000  0.000  0.715  0.152  0.060
  0.000 -0.060  0.152  0.822  0.000
  0.000  0.152  0.060  0.000  0.822
atom    2   Tr[ns(na)] =   8.02142
    eigenvalues: 
  0.595  0.595  0.938  0.941  0.941
    eigenvectors:
  0.000  0.000  1.000  0.000  0.000
  0.332  0.323  0.000  0.023  0.322
  0.323  0.332  0.000  0.322  0.023
  0.288  0.057  0.000  0.647  0.008
  0.057  0.288  0.000  0.008  0.647
    occupations:
  0.938  0.000  0.000  0.000  0.000
  0.000  0.715  0.000  0.060  0.153
  0.000  0.000  0.715  0.153 -0.060
  0.000  0.060  0.153  0.822  0.000
  0.000  0.153 -0.060  0.000  0.822
atom    3   Tr[ns(na)] =   3.80282
    eigenvalues: 
  0.355  0.355  0.384  0.403  0.403
    eigenvectors:
  0.000  0.000  1.000  0.000  0.000
  0.065  0.856  0.000  0.058  0.021
  0.856  0.065  0.000  0.021  0.058
  0.073  0.006  0.000  0.250  0.670
  0.006  0.073  0.000  0.670  0.250
    occupations:
  0.384  0.000  0.000  0.000  0.000
  0.000  0.359  0.000  0.000  0.013
  0.000  0.000  0.359  0.013  0.000
  0.000  0.000  0.013  0.399  0.000
  0.000  0.013  0.000  0.000  0.399
atom    4   Tr[ns(na)] =   3.80282
    eigenvalues: 
  0.355  0.355  0.384  0.403  0.403
    eigenvectors:
  0.000  0.000  1.000  0.000  0.000
  0.729  0.192  0.000  0.048  0.032
  0.192  0.729  0.000  0.032  0.048
  0.017  0.062  0.000  0.359  0.562
  0.062  0.017  0.000  0.562  0.359
    occupations:
  0.384  0.000  0.000  0.000  0.000
  0.000  0.359  0.000  0.000  0.013
  0.000  0.000  0.359  0.013  0.000
  0.000  0.000  0.013  0.399  0.000
  0.000  0.013  0.000  0.000  0.399
atom    5   Tr[ns(na)] =   5.43357
    eigenvalues: 
  0.846  0.929  0.941
    eigenvectors:
  0.340  0.000  0.660
  0.496  0.250  0.255
  0.164  0.750  0.086
    occupations:
  0.909 -0.039  0.022
 -0.039  0.891  0.022
  0.022  0.022  0.917
atom    6   Tr[ns(na)] =   5.43358
    eigenvalues: 
  0.846  0.929  0.941
    eigenvectors:
  0.340  0.000  0.660
  0.494  0.250  0.256
  0.166  0.750  0.085
    occupations:
  0.909  0.039  0.022
  0.039  0.891 -0.022
  0.022 -0.022  0.917
atom    7   Tr[ns(na)] =   5.43358
    eigenvalues: 
  0.846  0.929  0.941
    eigenvectors:
  0.340  0.000  0.660
  0.000  1.000  0.000
  0.660  0.000  0.340
    occupations:
  0.909  0.000 -0.045
  0.000  0.929  0.000
 -0.045  0.000  0.879
atom    8   Tr[ns(na)] =   5.43357
    eigenvalues: 
  0.846  0.929  0.941
    eigenvectors:
  0.340  0.000  0.660
  0.496  0.250  0.255
  0.164  0.750  0.086
    occupations:
  0.909 -0.039  0.022
 -0.039  0.891  0.022
  0.022  0.022  0.917
atom    9   Tr[ns(na)] =   5.43358
    eigenvalues: 
  0.846  0.929  0.941
    eigenvectors:
  0.340  0.000  0.660
  0.494  0.250  0.256
  0.166  0.750  0.085
    occupations:
  0.909  0.039  0.022
  0.039  0.891 -0.022
  0.022 -0.022  0.917
atom   10   Tr[ns(na)] =   5.43358
    eigenvalues: 
  0.846  0.929  0.941
    eigenvectors:
  0.340  0.000  0.660
  0.000  1.000  0.000
  0.660  0.000  0.340
    occupations:
  0.909  0.000 -0.045
  0.000  0.929  0.000
 -0.045  0.000  0.879
N of occupied +U levels =  56.2505796
 --- exit write_ns ---
 LDA+U Projector read from file 
     Starting wfc from file

     total cpu time spent up to now is        7.9 secs

     per-process dynamical memory:    62.8 Mb

     Self-consistent Calculation

     iteration #  1     ecut=    30.00 Ry     beta=0.20
     Davidson diagonalization with overlap
     c_bands:  1 eigenvalues not converged
     c_bands:  1 eigenvalues not converged
     c_bands:  1 eigenvalues not converged
     c_bands:  1 eigenvalues not converged
     c_bands:  1 eigenvalues not converged
     c_bands:  1 eigenvalues not converged
     c_bands:  1 eigenvalues not converged
     c_bands:  1 eigenvalues not converged
     c_bands:  1 eigenvalues not converged
     c_bands:  1 eigenvalues not converged
     c_bands:  1 eigenvalues not converged
     c_bands:  1 eigenvalues not converged
     c_bands:  1 eigenvalues not converged
     c_bands:  1 eigenvalues not converged
     c_bands:  1 eigenvalues not converged
     c_bands:  1 eigenvalues not converged
     c_bands:  1 eigenvalues not converged
     c_bands:  1 eigenvalues not converged
     c_bands:  1 eigenvalues not converged
     c_bands:  1 eigenvalues not converged
     c_bands:  1 eigenvalues not converged
     c_bands:  1 eigenvalues not converged
     c_bands:  1 eigenvalues not converged
     c_bands:  1 eigenvalues not converged
     c_bands:  1 eigenvalues not converged
     c_bands:  1 eigenvalues not converged
     ethr =  1.00E-10,  avg # of iterations = 17.8
 --- enter write_ns ---
 LDA+U parameters:
U( 1)     =  3.00000000
alpha( 1) =  0.00000000
U( 2)     =  0.00000000
alpha( 2) =  0.00000000
U( 3)     =  0.00000000
alpha( 3) =  0.15000000
U( 4)     =  0.00000000
alpha( 4) =  0.00000000
atom    1   Tr[ns(na)] =   8.16238
    eigenvalues: 
  0.564  0.567  0.982  0.983  0.985
    eigenvectors:
  0.000  0.000  0.011  0.035  0.954
  0.099  0.555  0.234  0.100  0.012
  0.555  0.100  0.109  0.233  0.003
  0.179  0.166  0.034  0.604  0.017
  0.167  0.179  0.612  0.028  0.013
    occupations:
  0.985  0.000  0.000  0.000  0.000
  0.000  0.711 -0.001 -0.071  0.185
  0.000 -0.001  0.709  0.185  0.072
  0.000 -0.071  0.185  0.839 -0.001
  0.000  0.185  0.072 -0.001  0.838
atom    2   Tr[ns(na)] =   8.15517
    eigenvalues: 
  0.562  0.564  0.983  0.983  0.985
    eigenvectors:
  0.000  0.000  0.012  0.037  0.951
  0.237  0.418  0.001  0.332  0.012
  0.417  0.237  0.341  0.000  0.005
  0.319  0.027  0.587  0.065  0.001
  0.027  0.319  0.059  0.565  0.031
    occupations:
  0.985  0.000  0.000  0.000  0.000
  0.000  0.708 -0.001  0.071  0.186
  0.000 -0.001  0.708  0.187 -0.070
  0.000  0.071  0.187  0.837  0.000
  0.000  0.186 -0.070  0.000  0.838
atom    3   Tr[ns(na)] =   3.79901
    eigenvalues: 
  0.356  0.357  0.382  0.402  0.403
    eigenvectors:
  0.000  0.000  1.000  0.000  0.000
  0.691  0.230  0.000  0.019  0.060
  0.230  0.690  0.000  0.061  0.019
  0.020  0.059  0.000  0.694  0.227
  0.058  0.021  0.000  0.227  0.694
    occupations:
  0.382  0.000  0.000  0.000  0.000
  0.000  0.360  0.000  0.000  0.012
  0.000  0.000  0.360  0.012  0.000
  0.000  0.000  0.012  0.399  0.000
  0.000  0.012  0.000  0.000  0.399
atom    4   Tr[ns(na)] =   3.79886
    eigenvalues: 
  0.356  0.357  0.382  0.402  0.402
    eigenvectors:
  0.000  0.000  1.000  0.000  0.000
  0.232  0.683  0.000  0.020  0.065
  0.687  0.231  0.000  0.061  0.021
  0.060  0.023  0.000  0.686  0.232
  0.021  0.064  0.000  0.233  0.682
    occupations:
  0.382  0.000  0.000  0.000  0.000
  0.000  0.360  0.000  0.000  0.013
  0.000  0.000  0.360  0.013  0.000
  0.000  0.000  0.013  0.398  0.000
  0.000  0.013  0.000  0.000  0.398
atom    5   Tr[ns(na)] =   5.37654
    eigenvalues: 
  0.826  0.921  0.941
    eigenvectors:
  0.342  0.000  0.658
  0.494  0.250  0.256
  0.164  0.750  0.086
    occupations:
  0.902 -0.047  0.027
 -0.047  0.879  0.024
  0.027  0.024  0.907
atom    6   Tr[ns(na)] =   5.40405
    eigenvalues: 
  0.832  0.926  0.944
    eigenvectors:
  0.341  0.000  0.659
  0.494  0.251  0.255
  0.166  0.749  0.086
    occupations:
  0.906  0.046  0.027
  0.046  0.884 -0.024
  0.027 -0.024  0.912
atom    7   Tr[ns(na)] =   5.40405
    eigenvalues: 
  0.832  0.926  0.944
    eigenvectors:
  0.341  0.000  0.659
  0.000  1.000  0.000
  0.659  0.000  0.341
    occupations:
  0.906  0.000 -0.053
  0.000  0.926  0.000
 -0.053  0.000  0.870
atom    8   Tr[ns(na)] =   5.40397
    eigenvalues: 
  0.833  0.926  0.943
    eigenvectors:
  0.341  0.000  0.659
  0.495  0.250  0.255
  0.164  0.750  0.086
    occupations:
  0.906 -0.045  0.026
 -0.045  0.884  0.024
  0.026  0.024  0.912
atom    9   Tr[ns(na)] =   5.40399
    eigenvalues: 
  0.832  0.926  0.944
    eigenvectors:
  0.341  0.000  0.659
  0.494  0.251  0.255
  0.165  0.749  0.086
    occupations:
  0.906  0.046  0.026
  0.046  0.884 -0.024
  0.026 -0.024  0.912
atom   10   Tr[ns(na)] =   5.40399
    eigenvalues: 
  0.832  0.926  0.944
    eigenvectors:
  0.341  0.000  0.659
  0.000  1.000  0.000
  0.659  0.000  0.341
    occupations:
  0.906  0.000 -0.053
  0.000  0.926  0.000
 -0.053  0.000  0.870
N of occupied +U levels =  56.3120186
 --- exit write_ns ---
 --- in v_hubbard ---
Hubbard energy    0.3376
 -------

     total cpu time spent up to now is      120.8 secs

     total energy              =    -538.00880749 Ry
     Harris-Foulkes estimate   =    -538.01403348 Ry
     estimated scf accuracy    <       0.02621056 Ry

     iteration #  2     ecut=    30.00 Ry     beta=0.20
     Davidson diagonalization with overlap
     ethr =  3.45E-05,  avg # of iterations =  1.9
 --- enter write_ns ---
 LDA+U parameters:
U( 1)     =  3.00000000
alpha( 1) =  0.00000000
U( 2)     =  0.00000000
alpha( 2) =  0.00000000
U( 3)     =  0.00000000
alpha( 3) =  0.15000000
U( 4)     =  0.00000000
alpha( 4) =  0.00000000
atom    1   Tr[ns(na)] =   8.02754
    eigenvalues: 
  0.530  0.532  0.983  0.983  0.986
    eigenvectors:
  0.000  0.000  0.000  0.005  0.994
  0.100  0.555  0.161  0.183  0.002
  0.555  0.100  0.184  0.160  0.000
  0.176  0.168  0.123  0.530  0.002
  0.168  0.177  0.532  0.122  0.002
    occupations:
  0.985  0.000  0.000  0.000  0.000
  0.000  0.687  0.000 -0.078  0.200
  0.000  0.000  0.686  0.200  0.078
  0.000 -0.078  0.200  0.827  0.000
  0.000  0.200  0.078  0.000  0.827
atom    2   Tr[ns(na)] =   8.03399
    eigenvalues: 
  0.530  0.531  0.984  0.985  0.987
    eigenvectors:
  0.000  0.000  0.000  0.005  0.995
  0.237  0.419  0.029  0.314  0.001
  0.418  0.237  0.316  0.029  0.001
  0.319  0.026  0.651  0.004  0.000
  0.025  0.319  0.004  0.649  0.003
    occupations:
  0.987  0.000  0.000  0.000  0.000
  0.000  0.687 -0.001  0.078  0.201
  0.000 -0.001  0.687  0.201 -0.078
  0.000  0.078  0.201  0.828  0.000
  0.000  0.201 -0.078  0.000  0.828
atom    3   Tr[ns(na)] =   3.79485
    eigenvalues: 
  0.356  0.356  0.382  0.402  0.402
    eigenvectors:
  0.000  0.000  1.000  0.000  0.000
  0.692  0.229  0.000  0.021  0.058
  0.229  0.692  0.000  0.058  0.021
  0.020  0.059  0.000  0.670  0.251
  0.059  0.020  0.000  0.251  0.670
    occupations:
  0.382  0.000  0.000  0.000  0.000
  0.000  0.359  0.000  0.000  0.013
  0.000  0.000  0.359  0.013  0.000
  0.000  0.000  0.013  0.398  0.000
  0.000  0.013  0.000  0.000  0.398
atom    4   Tr[ns(na)] =   3.79495
    eigenvalues: 
  0.356  0.356  0.382  0.402  0.402
    eigenvectors:
  0.000  0.000  1.000  0.000  0.000
  0.217  0.702  0.000  0.019  0.061
  0.704  0.217  0.000  0.060  0.019
  0.060  0.020  0.000  0.692  0.229
  0.019  0.061  0.000  0.229  0.691
    occupations:
  0.382  0.000  0.000  0.000  0.000
  0.000  0.359  0.000  0.000  0.013
  0.000  0.000  0.359  0.013  0.000
  0.000  0.000  0.013  0.398  0.000
  0.000  0.013  0.000  0.000  0.398
atom    5   Tr[ns(na)] =   5.43329
    eigenvalues: 
  0.841  0.930  0.946
    eigenvectors:
  0.337  0.000  0.663
  0.496  0.251  0.252
  0.167  0.749  0.085
    occupations:
  0.911 -0.043  0.025
 -0.043  0.890  0.023
  0.025  0.023  0.916
atom    6   Tr[ns(na)] =   5.44178
    eigenvalues: 
  0.843  0.931  0.947
    eigenvectors:
  0.337  0.000  0.663
  0.497  0.250  0.253
  0.165  0.750  0.085
    occupations:
  0.912  0.042  0.024
  0.042  0.891 -0.023
  0.024 -0.023  0.918
atom    7   Tr[ns(na)] =   5.44179
    eigenvalues: 
  0.843  0.931  0.947
    eigenvectors:
  0.337  0.000  0.663
  0.000  1.000  0.000
  0.663  0.000  0.337
    occupations:
  0.912  0.000 -0.049
  0.000  0.931  0.000
 -0.049  0.000  0.878
atom    8   Tr[ns(na)] =   5.44070
    eigenvalues: 
  0.843  0.931  0.946
    eigenvectors:
  0.337  0.000  0.663
  0.496  0.251  0.252
  0.166  0.749  0.085
    occupations:
  0.912 -0.042  0.024
 -0.042  0.891  0.023
  0.024  0.023  0.917
atom    9   Tr[ns(na)] =   5.44200
    eigenvalues: 
  0.844  0.931  0.947
    eigenvectors:
  0.337  0.000  0.663
  0.499  0.249  0.253
  0.165  0.751  0.084
    occupations:
  0.912  0.042  0.024
  0.042  0.891 -0.023
  0.024 -0.023  0.918
atom   10   Tr[ns(na)] =   5.44200
    eigenvalues: 
  0.844  0.931  0.947
    eigenvectors:
  0.337  0.000  0.663
  0.000  1.000  0.000
  0.663  0.000  0.337
    occupations:
  0.912  0.000 -0.049
  0.000  0.931  0.000
 -0.049  0.000  0.878
N of occupied +U levels =  56.2928954
 --- exit write_ns ---
 --- in v_hubbard ---
Hubbard energy    0.3333
 -------

     total cpu time spent up to now is      159.6 secs

     total energy              =    -538.01325722 Ry
     Harris-Foulkes estimate   =    -538.01337384 Ry
     estimated scf accuracy    <       0.01533615 Ry

     iteration #  3     ecut=    30.00 Ry     beta=0.20
     Davidson diagonalization with overlap
     ethr =  2.02E-05,  avg # of iterations =  1.0
 --- enter write_ns ---
 LDA+U parameters:
U( 1)     =  3.00000000
alpha( 1) =  0.00000000
U( 2)     =  0.00000000
alpha( 2) =  0.00000000
U( 3)     =  0.00000000
alpha( 3) =  0.15000000
U( 4)     =  0.00000000
alpha( 4) =  0.00000000
atom    1   Tr[ns(na)] =   8.06472
    eigenvalues: 
  0.538  0.540  0.984  0.984  0.986
    eigenvectors:
  0.000  0.000  0.001  0.006  0.993
  0.101  0.555  0.166  0.176  0.002
  0.555  0.101  0.178  0.166  0.000
  0.176  0.168  0.115  0.539  0.003
  0.168  0.176  0.541  0.113  0.002
    occupations:
  0.986  0.000  0.000  0.000  0.000
  0.000  0.693  0.000 -0.076  0.197
  0.000  0.000  0.692  0.197  0.077
  0.000 -0.076  0.197  0.831  0.000
  0.000  0.197  0.077  0.000  0.831
atom    2   Tr[ns(na)] =   8.05725
    eigenvalues: 
  0.536  0.537  0.984  0.984  0.987
    eigenvectors:
  0.000  0.000  0.001  0.007  0.993
  0.236  0.420  0.025  0.317  0.002
  0.419  0.236  0.319  0.025  0.001
  0.319  0.026  0.650  0.006  0.000
  0.026  0.318  0.006  0.646  0.005
    occupations:
  0.987  0.000  0.000  0.000  0.000
  0.000  0.691 -0.001  0.077  0.198
  0.000 -0.001  0.691  0.199 -0.076
  0.000  0.077  0.199  0.830  0.000
  0.000  0.198 -0.076  0.000  0.831
atom    3   Tr[ns(na)] =   3.79490
    eigenvalues: 
  0.356  0.356  0.382  0.402  0.402
    eigenvectors:
  0.000  0.000  1.000  0.000  0.000
  0.692  0.229  0.000  0.018  0.061
  0.229  0.692  0.000  0.061  0.018
  0.020  0.059  0.000  0.701  0.221
  0.059  0.020  0.000  0.221  0.701
    occupations:
  0.382  0.000  0.000  0.000  0.000
  0.000  0.359  0.000  0.000  0.012
  0.000  0.000  0.359  0.012  0.000
  0.000  0.000  0.012  0.398  0.000
  0.000  0.012  0.000  0.000  0.398
atom    4   Tr[ns(na)] =   3.79493
    eigenvalues: 
  0.356  0.356  0.382  0.402  0.402
    eigenvectors:
  0.000  0.000  1.000  0.000  0.000
  0.228  0.692  0.000  0.018  0.062
  0.693  0.227  0.000  0.061  0.019
  0.059  0.021  0.000  0.701  0.219
  0.020  0.060  0.000  0.220  0.700
    occupations:
  0.382  0.000  0.000  0.000  0.000
  0.000  0.360  0.000  0.000  0.013
  0.000  0.000  0.359  0.012  0.000
  0.000  0.000  0.012  0.398  0.000
  0.000  0.013  0.000  0.000  0.398
atom    5   Tr[ns(na)] =   5.42329
    eigenvalues: 
  0.838  0.928  0.945
    eigenvectors:
  0.338  0.000  0.662
  0.497  0.250  0.253
  0.165  0.750  0.085
    occupations:
  0.909 -0.044  0.025
 -0.044  0.888  0.023
  0.025  0.023  0.915
atom    6   Tr[ns(na)] =   5.43258
    eigenvalues: 
  0.841  0.930  0.946
    eigenvectors:
  0.338  0.000  0.662
  0.496  0.251  0.253
  0.166  0.749  0.085
    occupations:
  0.910  0.043  0.025
  0.043  0.890 -0.023
  0.025 -0.023  0.916
atom    7   Tr[ns(na)] =   5.43259
    eigenvalues: 
  0.841  0.930  0.946
    eigenvectors:
  0.338  0.000  0.662
  0.000  1.000  0.000
  0.662  0.000  0.338
    occupations:
  0.910  0.000 -0.050
  0.000  0.930  0.000
 -0.050  0.000  0.876
atom    8   Tr[ns(na)] =   5.43167
    eigenvalues: 
  0.840  0.930  0.946
    eigenvectors:
  0.338  0.000  0.662
  0.497  0.250  0.253
  0.165  0.750  0.085
    occupations:
  0.910 -0.043  0.025
 -0.043  0.889  0.023
  0.025  0.023  0.916
atom    9   Tr[ns(na)] =   5.43272
    eigenvalues: 
  0.841  0.930  0.946
    eigenvectors:
  0.338  0.000  0.662
  0.497  0.250  0.253
  0.166  0.750  0.085
    occupations:
  0.910  0.043  0.025
  0.043  0.890 -0.023
  0.025 -0.023  0.916
atom   10   Tr[ns(na)] =   5.43272
    eigenvalues: 
  0.841  0.930  0.946
    eigenvectors:
  0.338  0.000  0.662
  0.000  1.000  0.000
  0.662  0.000  0.338
    occupations:
  0.910  0.000 -0.050
  0.000  0.930  0.000
 -0.050  0.000  0.876
N of occupied +U levels =  56.2973602
 --- exit write_ns ---
 --- in v_hubbard ---
Hubbard energy    0.3048
 -------

     total cpu time spent up to now is      193.7 secs

     total energy              =    -538.01546140 Ry
     Harris-Foulkes estimate   =    -538.01360203 Ry
     estimated scf accuracy    <       0.00749029 Ry

     iteration #  4     ecut=    30.00 Ry     beta=0.20
     Davidson diagonalization with overlap
     ethr =  9.86E-06,  avg # of iterations =  1.0
 --- enter write_ns ---
 LDA+U parameters:
U( 1)     =  3.00000000
alpha( 1) =  0.00000000
U( 2)     =  0.00000000
alpha( 2) =  0.00000000
U( 3)     =  0.00000000
alpha( 3) =  0.15000000
U( 4)     =  0.00000000
alpha( 4) =  0.00000000
atom    1   Tr[ns(na)] =   8.03314
    eigenvalues: 
  0.530  0.532  0.984  0.984  0.986
    eigenvectors:
  0.000  0.000  0.001  0.010  0.989
  0.102  0.556  0.165  0.174  0.003
  0.556  0.102  0.177  0.164  0.001
  0.175  0.166  0.117  0.537  0.004
  0.167  0.176  0.541  0.114  0.003
    occupations:
  0.986  0.000  0.000  0.000  0.000
  0.000  0.686  0.000 -0.077  0.201
  0.000  0.000  0.685  0.201  0.078
  0.000 -0.077  0.201  0.829  0.000
  0.000  0.201  0.078  0.000  0.829
atom    2   Tr[ns(na)] =   8.09840
    eigenvalues: 
  0.540  0.542  0.988  0.988  0.991
    eigenvectors:
  0.000  0.000  0.001  0.005  0.994
  0.238  0.420  0.024  0.317  0.001
  0.420  0.238  0.318  0.023  0.001
  0.317  0.025  0.650  0.008  0.000
  0.025  0.317  0.008  0.647  0.003
    occupations:
  0.990  0.000  0.000  0.000  0.000
  0.000  0.694 -0.001  0.078  0.197
  0.000 -0.001  0.694  0.198 -0.077
  0.000  0.078  0.198  0.835  0.000
  0.000  0.197 -0.077  0.000  0.836
atom    3   Tr[ns(na)] =   3.79724
    eigenvalues: 
  0.356  0.356  0.382  0.402  0.402
    eigenvectors:
  0.000  0.000  1.000  0.000  0.000
  0.690  0.232  0.000  0.016  0.062
  0.232  0.690  0.000  0.062  0.016
  0.020  0.058  0.000  0.731  0.191
  0.058  0.020  0.000  0.191  0.731
    occupations:
  0.382  0.000  0.000  0.000  0.000
  0.000  0.360  0.000  0.000  0.012
  0.000  0.000  0.360  0.012  0.000
  0.000  0.000  0.012  0.399  0.000
  0.000  0.012  0.000  0.000  0.399
atom    4   Tr[ns(na)] =   3.79724
    eigenvalues: 
  0.356  0.356  0.382  0.402  0.402
    eigenvectors:
  0.000  0.000  1.000  0.000  0.000
  0.236  0.685  0.000  0.018  0.062
  0.686  0.235  0.000  0.060  0.018
  0.058  0.021  0.000  0.709  0.213
  0.020  0.059  0.000  0.213  0.708
    occupations:
  0.382  0.000  0.000  0.000  0.000
  0.000  0.360  0.000  0.000  0.012
  0.000  0.000  0.360  0.012  0.000
  0.000  0.000  0.012  0.398  0.000
  0.000  0.012  0.000  0.000  0.398
atom    5   Tr[ns(na)] =   5.41957
    eigenvalues: 
  0.837  0.928  0.945
    eigenvectors:
  0.338  0.000  0.662
  0.490  0.258  0.252
  0.172  0.742  0.086
    occupations:
  0.908 -0.044  0.026
 -0.044  0.888  0.024
  0.026  0.024  0.914
atom    6   Tr[ns(na)] =   5.42968
    eigenvalues: 
  0.840  0.929  0.946
    eigenvectors:
  0.338  0.000  0.662
  0.502  0.244  0.254
  0.160  0.756  0.084
    occupations:
  0.910  0.044  0.025
  0.044  0.888 -0.023
  0.025 -0.023  0.916
atom    7   Tr[ns(na)] =   5.42969
    eigenvalues: 
  0.840  0.929  0.946
    eigenvectors:
  0.338  0.000  0.662
  0.000  1.000  0.000
  0.662  0.000  0.338
    occupations:
  0.910 -0.001 -0.050
 -0.001  0.929 -0.001
 -0.050 -0.001  0.876
atom    8   Tr[ns(na)] =   5.42969
    eigenvalues: 
  0.840  0.929  0.946
    eigenvectors:
  0.338  0.000  0.662
  0.491  0.258  0.252
  0.172  0.742  0.086
    occupations:
  0.910 -0.043  0.026
 -0.043  0.890  0.024
  0.026  0.024  0.915
atom    9   Tr[ns(na)] =   5.42959
    eigenvalues: 
  0.840  0.929  0.946
    eigenvectors:
  0.338  0.000  0.662
  0.503  0.243  0.254
  0.159  0.757  0.084
    occupations:
  0.910  0.044  0.025
  0.044  0.888 -0.023
  0.025 -0.023  0.916
atom   10   Tr[ns(na)] =   5.42958
    eigenvalues: 
  0.840  0.929  0.946
    eigenvectors:
  0.338  0.000  0.662
  0.000  1.000  0.000
  0.662  0.000  0.338
    occupations:
  0.910 -0.001 -0.050
 -0.001  0.929 -0.001
 -0.050 -0.001  0.875
N of occupied +U levels =  56.2938102
 --- exit write_ns ---
 --- in v_hubbard ---
Hubbard energy    0.2962
 -------

     total cpu time spent up to now is      226.4 secs

     total energy              =    -538.01563412 Ry
     Harris-Foulkes estimate   =    -538.01596274 Ry
     estimated scf accuracy    <       0.00329863 Ry

     iteration #  5     ecut=    30.00 Ry     beta=0.20
     Davidson diagonalization with overlap
     ethr =  4.34E-06,  avg # of iterations =  1.0
 --- enter write_ns ---
 LDA+U parameters:
U( 1)     =  3.00000000
alpha( 1) =  0.00000000
U( 2)     =  0.00000000
alpha( 2) =  0.00000000
U( 3)     =  0.00000000
alpha( 3) =  0.15000000
U( 4)     =  0.00000000
alpha( 4) =  0.00000000
atom    1   Tr[ns(na)] =   8.06451
    eigenvalues: 
  0.534  0.536  0.987  0.987  0.989
    eigenvectors:
  0.000  0.000  0.001  0.007  0.992
  0.101  0.557  0.166  0.174  0.002
  0.557  0.101  0.175  0.165  0.001
  0.174  0.167  0.113  0.543  0.003
  0.168  0.174  0.545  0.111  0.002
    occupations:
  0.989  0.000  0.000  0.000  0.000
  0.000  0.690  0.000 -0.078  0.199
  0.000  0.000  0.689  0.200  0.078
  0.000 -0.078  0.200  0.833  0.000
  0.000  0.199  0.078  0.000  0.832
atom    2   Tr[ns(na)] =   8.05840
    eigenvalues: 
  0.532  0.533  0.987  0.987  0.989
    eigenvectors:
  0.000  0.000  0.001  0.007  0.992
  0.237  0.421  0.024  0.315  0.002
  0.421  0.237  0.317  0.024  0.001
  0.316  0.025  0.652  0.007  0.000
  0.025  0.316  0.006  0.647  0.005
    occupations:
  0.989  0.000  0.000  0.000  0.000
  0.000  0.688 -0.001  0.078  0.201
  0.000 -0.001  0.688  0.201 -0.078
  0.000  0.078  0.201  0.832  0.000
  0.000  0.201 -0.078  0.000  0.832
atom    3   Tr[ns(na)] =   3.79792
    eigenvalues: 
  0.356  0.356  0.382  0.402  0.402
    eigenvectors:
  0.000  0.000  1.000  0.000  0.000
  0.692  0.230  0.000  0.015  0.062
  0.230  0.692  0.000  0.062  0.015
  0.020  0.058  0.000  0.734  0.188
  0.057  0.020  0.000  0.188  0.735
    occupations:
  0.382  0.000  0.000  0.000  0.000
  0.000  0.360  0.000  0.000  0.012
  0.000  0.000  0.360  0.012  0.000
  0.000  0.000  0.012  0.399  0.000
  0.000  0.012  0.000  0.000  0.399
atom    4   Tr[ns(na)] =   3.79790
    eigenvalues: 
  0.356  0.356  0.382  0.402  0.402
    eigenvectors:
  0.000  0.000  1.000  0.000  0.000
  0.236  0.685  0.000  0.018  0.061
  0.686  0.236  0.000  0.059  0.019
  0.057  0.021  0.000  0.696  0.225
  0.021  0.059  0.000  0.226  0.695
    occupations:
  0.382  0.000  0.000  0.000  0.000
  0.000  0.360  0.000  0.000  0.012
  0.000  0.000  0.360  0.012  0.000
  0.000  0.000  0.012  0.398  0.000
  0.000  0.012  0.000  0.000  0.398
atom    5   Tr[ns(na)] =   5.42060
    eigenvalues: 
  0.837  0.928  0.945
    eigenvectors:
  0.338  0.000  0.662
  0.497  0.250  0.253
  0.165  0.750  0.085
    occupations:
  0.909 -0.044  0.026
 -0.044  0.887  0.024
  0.026  0.024  0.914
atom    6   Tr[ns(na)] =   5.43055
    eigenvalues: 
  0.840  0.929  0.946
    eigenvectors:
  0.338  0.000  0.662
  0.496  0.251  0.253
  0.166  0.749  0.085
    occupations:
  0.910  0.043  0.025
  0.043  0.889 -0.023
  0.025 -0.023  0.916
atom    7   Tr[ns(na)] =   5.43056
    eigenvalues: 
  0.840  0.929  0.946
    eigenvectors:
  0.338  0.000  0.662
  0.000  1.000  0.000
  0.662  0.000  0.338
    occupations:
  0.910  0.000 -0.050
  0.000  0.929  0.000
 -0.050  0.000  0.876
atom    8   Tr[ns(na)] =   5.43052
    eigenvalues: 
  0.840  0.930  0.946
    eigenvectors:
  0.338  0.000  0.662
  0.497  0.250  0.253
  0.165  0.750  0.085
    occupations:
  0.910 -0.043  0.025
 -0.043  0.889  0.023
  0.025  0.023  0.916
atom    9   Tr[ns(na)] =   5.43048
    eigenvalues: 
  0.840  0.929  0.946
    eigenvectors:
  0.337  0.000  0.663
  0.497  0.250  0.253
  0.166  0.750  0.085
    occupations:
  0.910  0.043  0.025
  0.043  0.889 -0.023
  0.025 -0.023  0.916
atom   10   Tr[ns(na)] =   5.43047
    eigenvalues: 
  0.840  0.929  0.946
    eigenvectors:
  0.337  0.000  0.663
  0.000  1.000  0.000
  0.663  0.000  0.337
    occupations:
  0.910  0.000 -0.050
  0.000  0.929  0.000
 -0.050  0.000  0.876
N of occupied +U levels =  56.2919150
 --- exit write_ns ---
 --- in v_hubbard ---
Hubbard energy    0.2944
 -------

     total cpu time spent up to now is      258.7 secs

     total energy              =    -538.01593260 Ry
     Harris-Foulkes estimate   =    -538.01588643 Ry
     estimated scf accuracy    <       0.00012186 Ry

     iteration #  6     ecut=    30.00 Ry     beta=0.20
     Davidson diagonalization with overlap
     ethr =  1.60E-07,  avg # of iterations =  2.0
 --- enter write_ns ---
 LDA+U parameters:
U( 1)     =  3.00000000
alpha( 1) =  0.00000000
U( 2)     =  0.00000000
alpha( 2) =  0.00000000
U( 3)     =  0.00000000
alpha( 3) =  0.15000000
U( 4)     =  0.00000000
alpha( 4) =  0.00000000
atom    1   Tr[ns(na)] =   8.05643
    eigenvalues: 
  0.532  0.534  0.987  0.987  0.989
    eigenvectors:
  0.000  0.000  0.001  0.007  0.993
  0.101  0.557  0.165  0.175  0.002
  0.557  0.101  0.177  0.164  0.001
  0.174  0.167  0.114  0.542  0.003
  0.168  0.174  0.544  0.112  0.002
    occupations:
  0.989  0.000  0.000  0.000  0.000
  0.000  0.688  0.000 -0.078  0.200
  0.000  0.000  0.687  0.201  0.079
  0.000 -0.078  0.201  0.832  0.000
  0.000  0.200  0.079  0.000  0.832
atom    2   Tr[ns(na)] =   8.05427
    eigenvalues: 
  0.530  0.532  0.988  0.988  0.990
    eigenvectors:
  0.000  0.000  0.001  0.006  0.993
  0.238  0.421  0.025  0.315  0.002
  0.421  0.237  0.316  0.025  0.001
  0.317  0.025  0.652  0.006  0.000
  0.025  0.317  0.006  0.648  0.004
    occupations:
  0.990  0.000  0.000  0.000  0.000
  0.000  0.687 -0.001  0.079  0.202
  0.000 -0.001  0.687  0.202 -0.078
  0.000  0.079  0.202  0.831  0.000
  0.000  0.202 -0.078  0.000  0.832
atom    3   Tr[ns(na)] =   3.79737
    eigenvalues: 
  0.356  0.356  0.382  0.402  0.402
    eigenvectors:
  0.000  0.000  1.000  0.000  0.000
  0.692  0.230  0.000  0.018  0.060
  0.230  0.692  0.000  0.060  0.018
  0.020  0.058  0.000  0.706  0.217
  0.058  0.020  0.000  0.217  0.706
    occupations:
  0.382  0.000  0.000  0.000  0.000
  0.000  0.360  0.000  0.000  0.012
  0.000  0.000  0.360  0.012  0.000
  0.000  0.000  0.012  0.399  0.000
  0.000  0.012  0.000  0.000  0.399
atom    4   Tr[ns(na)] =   3.79733
    eigenvalues: 
  0.356  0.356  0.382  0.402  0.402
    eigenvectors:
  0.000  0.000  1.000  0.000  0.000
  0.237  0.684  0.000  0.019  0.060
  0.685  0.236  0.000  0.059  0.020
  0.057  0.021  0.000  0.687  0.235
  0.021  0.059  0.000  0.235  0.686
    occupations:
  0.382  0.000  0.000  0.000  0.000
  0.000  0.360  0.000  0.000  0.012
  0.000  0.000  0.360  0.012  0.000
  0.000  0.000  0.012  0.398  0.000
  0.000  0.012  0.000  0.000  0.398
atom    5   Tr[ns(na)] =   5.42301
    eigenvalues: 
  0.838  0.928  0.945
    eigenvectors:
  0.338  0.000  0.662
  0.496  0.251  0.253
  0.166  0.749  0.085
    occupations:
  0.909 -0.044  0.025
 -0.044  0.888  0.023
  0.025  0.023  0.915
atom    6   Tr[ns(na)] =   5.43244
    eigenvalues: 
  0.840  0.930  0.946
    eigenvectors:
  0.338  0.000  0.662
  0.496  0.251  0.253
  0.166  0.749  0.085
    occupations:
  0.910  0.043  0.025
  0.043  0.890 -0.023
  0.025 -0.023  0.916
atom    7   Tr[ns(na)] =   5.43244
    eigenvalues: 
  0.840  0.930  0.946
    eigenvectors:
  0.338  0.000  0.662
  0.000  1.000  0.000
  0.662  0.000  0.338
    occupations:
  0.910  0.000 -0.050
  0.000  0.930  0.000
 -0.050  0.000  0.876
atom    8   Tr[ns(na)] =   5.43190
    eigenvalues: 
  0.840  0.930  0.946
    eigenvectors:
  0.338  0.000  0.662
  0.497  0.251  0.253
  0.166  0.749  0.085
    occupations:
  0.910 -0.043  0.025
 -0.043  0.889  0.023
  0.025  0.023  0.916
atom    9   Tr[ns(na)] =   5.43251
    eigenvalues: 
  0.840  0.930  0.946
    eigenvectors:
  0.337  0.000  0.663
  0.497  0.250  0.253
  0.165  0.750  0.085
    occupations:
  0.910  0.043  0.025
  0.043  0.889 -0.023
  0.025 -0.023  0.916
atom   10   Tr[ns(na)] =   5.43250
    eigenvalues: 
  0.840  0.930  0.946
    eigenvectors:
  0.337  0.000  0.663
  0.000  1.000  0.000
  0.663  0.000  0.337
    occupations:
  0.910  0.000 -0.050
  0.000  0.930  0.000
 -0.050  0.000  0.876
N of occupied +U levels =  56.2902207
 --- exit write_ns ---
 --- in v_hubbard ---
Hubbard energy    0.2946
 -------

     total cpu time spent up to now is      293.8 secs

     total energy              =    -538.01599756 Ry
     Harris-Foulkes estimate   =    -538.01594717 Ry
     estimated scf accuracy    <       0.00002848 Ry

     iteration #  7     ecut=    30.00 Ry     beta=0.20
     Davidson diagonalization with overlap
     ethr =  3.75E-08,  avg # of iterations =  2.0
 --- enter write_ns ---
 LDA+U parameters:
U( 1)     =  3.00000000
alpha( 1) =  0.00000000
U( 2)     =  0.00000000
alpha( 2) =  0.00000000
U( 3)     =  0.00000000
alpha( 3) =  0.15000000
U( 4)     =  0.00000000
alpha( 4) =  0.00000000
atom    1   Tr[ns(na)] =   8.05587
    eigenvalues: 
  0.532  0.533  0.987  0.987  0.989
    eigenvectors:
  0.000  0.000  0.001  0.006  0.993
  0.100  0.557  0.159  0.181  0.002
  0.557  0.101  0.183  0.159  0.000
  0.175  0.167  0.123  0.533  0.002
  0.168  0.175  0.535  0.121  0.002
    occupations:
  0.989  0.000  0.000  0.000  0.000
  0.000  0.688  0.000 -0.078  0.201
  0.000  0.000  0.688  0.201  0.079
  0.000 -0.078  0.201  0.831  0.000
  0.000  0.201  0.079  0.000  0.831
atom    2   Tr[ns(na)] =   8.05402
    eigenvalues: 
  0.530  0.532  0.988  0.988  0.990
    eigenvectors:
  0.000  0.000  0.001  0.006  0.994
  0.238  0.420  0.028  0.312  0.001
  0.420  0.238  0.314  0.028  0.001
  0.317  0.025  0.653  0.004  0.000
  0.025  0.317  0.004  0.650  0.004
    occupations:
  0.990  0.000  0.000  0.000  0.000
  0.000  0.687 -0.001  0.079  0.202
  0.000 -0.001  0.687  0.202 -0.078
  0.000  0.079  0.202  0.831  0.000
  0.000  0.202 -0.078  0.000  0.832
atom    3   Tr[ns(na)] =   3.79585
    eigenvalues: 
  0.356  0.356  0.382  0.402  0.402
    eigenvectors:
  0.000  0.000  1.000  0.000  0.000
  0.690  0.231  0.000  0.015  0.063
  0.231  0.690  0.000  0.063  0.015
  0.020  0.058  0.000  0.735  0.187
  0.058  0.020  0.000  0.187  0.735
    occupations:
  0.382  0.000  0.000  0.000  0.000
  0.000  0.360  0.000  0.000  0.012
  0.000  0.000  0.360  0.012  0.000
  0.000  0.000  0.012  0.398  0.000
  0.000  0.012  0.000  0.000  0.398
atom    4   Tr[ns(na)] =   3.79581
    eigenvalues: 
  0.356  0.356  0.382  0.402  0.402
    eigenvectors:
  0.000  0.000  1.000  0.000  0.000
  0.271  0.649  0.000  0.019  0.060
  0.650  0.271  0.000  0.059  0.020
  0.055  0.024  0.000  0.688  0.233
  0.024  0.056  0.000  0.234  0.687
    occupations:
  0.382  0.000  0.000  0.000  0.000
  0.000  0.360  0.000  0.000  0.012
  0.000  0.000  0.360  0.012  0.000
  0.000  0.000  0.012  0.398  0.000
  0.000  0.012  0.000  0.000  0.398
atom    5   Tr[ns(na)] =   5.42343
    eigenvalues: 
  0.838  0.928  0.945
    eigenvectors:
  0.338  0.000  0.662
  0.496  0.251  0.253
  0.166  0.749  0.085
    occupations:
  0.909 -0.044  0.025
 -0.044  0.888  0.023
  0.025  0.023  0.915
atom    6   Tr[ns(na)] =   5.43293
    eigenvalues: 
  0.840  0.930  0.946
    eigenvectors:
  0.338  0.000  0.662
  0.496  0.251  0.253
  0.166  0.749  0.085
    occupations:
  0.910  0.043  0.025
  0.043  0.890 -0.023
  0.025 -0.023  0.916
atom    7   Tr[ns(na)] =   5.43293
    eigenvalues: 
  0.840  0.930  0.946
    eigenvectors:
  0.338  0.000  0.662
  0.000  1.000  0.000
  0.662  0.000  0.338
    occupations:
  0.910  0.000 -0.050
  0.000  0.930  0.000
 -0.050  0.000  0.876
atom    8   Tr[ns(na)] =   5.43209
    eigenvalues: 
  0.840  0.930  0.946
    eigenvectors:
  0.338  0.000  0.662
  0.496  0.251  0.253
  0.166  0.749  0.085
    occupations:
  0.910 -0.043  0.025
 -0.043  0.889  0.023
  0.025  0.023  0.916
atom    9   Tr[ns(na)] =   5.43304
    eigenvalues: 
  0.840  0.930  0.946
    eigenvectors:
  0.338  0.000  0.662
  0.497  0.250  0.253
  0.165  0.750  0.085
    occupations:
  0.911  0.043  0.025
  0.043  0.890 -0.023
  0.025 -0.023  0.916
atom   10   Tr[ns(na)] =   5.43304
    eigenvalues: 
  0.840  0.930  0.946
    eigenvectors:
  0.338  0.000  0.662
  0.000  1.000  0.000
  0.662  0.000  0.338
    occupations:
  0.911  0.000 -0.050
  0.000  0.930  0.000
 -0.050  0.000  0.876
N of occupied +U levels =  56.2890096
 --- exit write_ns ---
 --- in v_hubbard ---
Hubbard energy    0.2947
 -------

     total cpu time spent up to now is      327.8 secs

     total energy              =    -538.01604778 Ry
     Harris-Foulkes estimate   =    -538.01600123 Ry
     estimated scf accuracy    <       0.00000337 Ry

     iteration #  8     ecut=    30.00 Ry     beta=0.20
     Davidson diagonalization with overlap
     ethr =  4.43E-09,  avg # of iterations =  2.1
 --- enter write_ns ---
 LDA+U parameters:
U( 1)     =  3.00000000
alpha( 1) =  0.00000000
U( 2)     =  0.00000000
alpha( 2) =  0.00000000
U( 3)     =  0.00000000
alpha( 3) =  0.15000000
U( 4)     =  0.00000000
alpha( 4) =  0.00000000
atom    1   Tr[ns(na)] =   8.05649
    eigenvalues: 
  0.532  0.533  0.987  0.987  0.989
    eigenvectors:
  0.000  0.000  0.001  0.006  0.994
  0.100  0.557  0.159  0.181  0.002
  0.557  0.101  0.183  0.159  0.000
  0.175  0.167  0.123  0.533  0.002
  0.168  0.175  0.535  0.121  0.002
    occupations:
  0.989  0.000  0.000  0.000  0.000
  0.000  0.689  0.000 -0.078  0.201
  0.000  0.000  0.688  0.201  0.079
  0.000 -0.078  0.201  0.832  0.000
  0.000  0.201  0.079  0.000  0.831
atom    2   Tr[ns(na)] =   8.05433
    eigenvalues: 
  0.530  0.532  0.988  0.988  0.990
    eigenvectors:
  0.000  0.000  0.001  0.006  0.994
  0.238  0.420  0.028  0.312  0.001
  0.420  0.238  0.314  0.028  0.001
  0.317  0.025  0.653  0.004  0.000
  0.025  0.317  0.004  0.650  0.004
    occupations:
  0.990  0.000  0.000  0.000  0.000
  0.000  0.687 -0.001  0.079  0.202
  0.000 -0.001  0.687  0.202 -0.078
  0.000  0.079  0.202  0.831  0.000
  0.000  0.202 -0.078  0.000  0.832
atom    3   Tr[ns(na)] =   3.79617
    eigenvalues: 
  0.356  0.356  0.382  0.402  0.402
    eigenvectors:
  0.000  0.000  1.000  0.000  0.000
  0.691  0.231  0.000  0.012  0.066
  0.231  0.691  0.000  0.066  0.012
  0.020  0.058  0.000  0.768  0.154
  0.058  0.020  0.000  0.154  0.768
    occupations:
  0.382  0.000  0.000  0.000  0.000
  0.000  0.360  0.000  0.000  0.012
  0.000  0.000  0.360  0.012  0.000
  0.000  0.000  0.012  0.398  0.000
  0.000  0.012  0.000  0.000  0.398
atom    4   Tr[ns(na)] =   3.79613
    eigenvalues: 
  0.356  0.356  0.382  0.402  0.402
    eigenvectors:
  0.000  0.000  1.000  0.000  0.000
  0.250  0.671  0.000  0.019  0.060
  0.672  0.249  0.000  0.059  0.019
  0.056  0.022  0.000  0.690  0.231
  0.022  0.058  0.000  0.231  0.689
    occupations:
  0.382  0.000  0.000  0.000  0.000
  0.000  0.360  0.000  0.000  0.012
  0.000  0.000  0.360  0.012  0.000
  0.000  0.000  0.012  0.398  0.000
  0.000  0.012  0.000  0.000  0.398
atom    5   Tr[ns(na)] =   5.42320
    eigenvalues: 
  0.838  0.928  0.945
    eigenvectors:
  0.338  0.000  0.662
  0.496  0.251  0.253
  0.166  0.749  0.085
    occupations:
  0.909 -0.044  0.025
 -0.044  0.888  0.023
  0.025  0.023  0.915
atom    6   Tr[ns(na)] =   5.43269
    eigenvalues: 
  0.840  0.930  0.946
    eigenvectors:
  0.338  0.000  0.662
  0.496  0.251  0.253
  0.166  0.749  0.085
    occupations:
  0.910  0.043  0.025
  0.043  0.890 -0.023
  0.025 -0.023  0.916
atom    7   Tr[ns(na)] =   5.43269
    eigenvalues: 
  0.840  0.930  0.946
    eigenvectors:
  0.338  0.000  0.662
  0.000  1.000  0.000
  0.662  0.000  0.338
    occupations:
  0.910  0.000 -0.050
  0.000  0.930  0.000
 -0.050  0.000  0.876
atom    8   Tr[ns(na)] =   5.43207
    eigenvalues: 
  0.840  0.930  0.946
    eigenvectors:
  0.338  0.000  0.662
  0.496  0.251  0.253
  0.166  0.749  0.085
    occupations:
  0.910 -0.043  0.025
 -0.043  0.889  0.023
  0.025  0.023  0.916
atom    9   Tr[ns(na)] =   5.43276
    eigenvalues: 
  0.840  0.930  0.946
    eigenvectors:
  0.338  0.000  0.662
  0.497  0.250  0.253
  0.165  0.750  0.085
    occupations:
  0.911  0.043  0.025
  0.043  0.889 -0.023
  0.025 -0.023  0.916
atom   10   Tr[ns(na)] =   5.43275
    eigenvalues: 
  0.840  0.930  0.946
    eigenvectors:
  0.338  0.000  0.662
  0.000  1.000  0.000
  0.662  0.000  0.338
    occupations:
  0.911  0.000 -0.050
  0.000  0.930  0.000
 -0.050  0.000  0.876
N of occupied +U levels =  56.2892749
 --- exit write_ns ---
 --- in v_hubbard ---
Hubbard energy    0.2949
 -------

     total cpu time spent up to now is      358.2 secs

     total energy              =    -538.01607708 Ry
     Harris-Foulkes estimate   =    -538.01604807 Ry
     estimated scf accuracy    <       0.00000087 Ry

     iteration #  9     ecut=    30.00 Ry     beta=0.20
     Davidson diagonalization with overlap
     ethr =  1.15E-09,  avg # of iterations =  2.0
 --- enter write_ns ---
 LDA+U parameters:
U( 1)     =  3.00000000
alpha( 1) =  0.00000000
U( 2)     =  0.00000000
alpha( 2) =  0.00000000
U( 3)     =  0.00000000
alpha( 3) =  0.15000000
U( 4)     =  0.00000000
alpha( 4) =  0.00000000
atom    1   Tr[ns(na)] =   8.05630
    eigenvalues: 
  0.532  0.533  0.987  0.987  0.989
    eigenvectors:
  0.000  0.000  0.001  0.006  0.994
  0.100  0.557  0.160  0.181  0.002
  0.557  0.101  0.182  0.159  0.000
  0.175  0.167  0.122  0.534  0.002
  0.168  0.175  0.535  0.120  0.002
    occupations:
  0.989  0.000  0.000  0.000  0.000
  0.000  0.688  0.000 -0.078  0.201
  0.000  0.000  0.688  0.201  0.079
  0.000 -0.078  0.201  0.831  0.000
  0.000  0.201  0.079  0.000  0.831
atom    2   Tr[ns(na)] =   8.05429
    eigenvalues: 
  0.530  0.532  0.988  0.988  0.990
    eigenvectors:
  0.000  0.000  0.001  0.005  0.994
  0.238  0.420  0.028  0.312  0.001
  0.420  0.238  0.314  0.028  0.001
  0.317  0.025  0.653  0.004  0.000
  0.025  0.317  0.004  0.650  0.004
    occupations:
  0.990  0.000  0.000  0.000  0.000
  0.000  0.687 -0.001  0.079  0.202
  0.000 -0.001  0.687  0.202 -0.078
  0.000  0.079  0.202  0.831  0.000
  0.000  0.202 -0.078  0.000  0.832
atom    3   Tr[ns(na)] =   3.79641
    eigenvalues: 
  0.356  0.356  0.382  0.402  0.402
    eigenvectors:
  0.000  0.000  1.000  0.000  0.000
  0.692  0.230  0.000  0.012  0.066
  0.230  0.692  0.000  0.066  0.012
  0.020  0.058  0.000  0.777  0.145
  0.058  0.020  0.000  0.145  0.777
    occupations:
  0.382  0.000  0.000  0.000  0.000
  0.000  0.360  0.000  0.000  0.012
  0.000  0.000  0.360  0.012  0.000
  0.000  0.000  0.012  0.398  0.000
  0.000  0.012  0.000  0.000  0.398
atom    4   Tr[ns(na)] =   3.79637
    eigenvalues: 
  0.356  0.356  0.382  0.402  0.402
    eigenvectors:
  0.000  0.000  1.000  0.000  0.000
  0.260  0.660  0.000  0.019  0.060
  0.662  0.260  0.000  0.059  0.020
  0.056  0.023  0.000  0.689  0.232
  0.023  0.057  0.000  0.233  0.688
    occupations:
  0.382  0.000  0.000  0.000  0.000
  0.000  0.360  0.000  0.000  0.012
  0.000  0.000  0.360  0.012  0.000
  0.000  0.000  0.012  0.398  0.000
  0.000  0.012  0.000  0.000  0.398
atom    5   Tr[ns(na)] =   5.42317
    eigenvalues: 
  0.838  0.928  0.945
    eigenvectors:
  0.338  0.000  0.662
  0.496  0.251  0.253
  0.166  0.749  0.085
    occupations:
  0.909 -0.044  0.025
 -0.044  0.888  0.023
  0.025  0.023  0.915
atom    6   Tr[ns(na)] =   5.43265
    eigenvalues: 
  0.840  0.930  0.946
    eigenvectors:
  0.338  0.000  0.662
  0.496  0.251  0.253
  0.166  0.749  0.085
    occupations:
  0.910  0.043  0.025
  0.043  0.890 -0.023
  0.025 -0.023  0.916
atom    7   Tr[ns(na)] =   5.43265
    eigenvalues: 
  0.840  0.930  0.946
    eigenvectors:
  0.338  0.000  0.662
  0.000  1.000  0.000
  0.662  0.000  0.338
    occupations:
  0.910  0.000 -0.050
  0.000  0.930  0.000
 -0.050  0.000  0.876
atom    8   Tr[ns(na)] =   5.43205
    eigenvalues: 
  0.840  0.930  0.946
    eigenvectors:
  0.338  0.000  0.662
  0.496  0.251  0.253
  0.166  0.749  0.085
    occupations:
  0.910 -0.043  0.025
 -0.043  0.889  0.023
  0.025  0.023  0.916
atom    9   Tr[ns(na)] =   5.43272
    eigenvalues: 
  0.840  0.930  0.946
    eigenvectors:
  0.338  0.000  0.662
  0.497  0.250  0.253
  0.165  0.750  0.085
    occupations:
  0.911  0.043  0.025
  0.043  0.889 -0.023
  0.025 -0.023  0.916
atom   10   Tr[ns(na)] =   5.43272
    eigenvalues: 
  0.840  0.930  0.946
    eigenvectors:
  0.338  0.000  0.662
  0.000  1.000  0.000
  0.662  0.000  0.338
    occupations:
  0.911  0.000 -0.050
  0.000  0.930  0.000
 -0.050  0.000  0.876
N of occupied +U levels =  56.2893397
 --- exit write_ns ---
 --- in v_hubbard ---
Hubbard energy    0.2950
 -------

     total cpu time spent up to now is      391.3 secs

     total energy              =    -538.01609675 Ry
     Harris-Foulkes estimate   =    -538.01607717 Ry
     estimated scf accuracy    <       0.00000021 Ry

     iteration # 10     ecut=    30.00 Ry     beta=0.20
     Davidson diagonalization with overlap
     ethr =  2.70E-10,  avg # of iterations =  2.0
 --- enter write_ns ---
 LDA+U parameters:
U( 1)     =  3.00000000
alpha( 1) =  0.00000000
U( 2)     =  0.00000000
alpha( 2) =  0.00000000
U( 3)     =  0.00000000
alpha( 3) =  0.15000000
U( 4)     =  0.00000000
alpha( 4) =  0.00000000
atom    1   Tr[ns(na)] =   8.05658
    eigenvalues: 
  0.532  0.533  0.987  0.987  0.989
    eigenvectors:
  0.000  0.000  0.001  0.006  0.994
  0.100  0.557  0.160  0.180  0.002
  0.558  0.101  0.182  0.160  0.000
  0.175  0.167  0.121  0.535  0.002
  0.168  0.175  0.536  0.119  0.002
    occupations:
  0.989  0.000  0.000  0.000  0.000
  0.000  0.689  0.000 -0.078  0.201
  0.000  0.000  0.688  0.201  0.079
  0.000 -0.078  0.201  0.832  0.000
  0.000  0.201  0.079  0.000  0.831
atom    2   Tr[ns(na)] =   8.05447
    eigenvalues: 
  0.530  0.532  0.988  0.988  0.990
    eigenvectors:
  0.000  0.000  0.001  0.006  0.994
  0.238  0.420  0.028  0.313  0.001
  0.420  0.238  0.314  0.027  0.001
  0.317  0.025  0.653  0.005  0.000
  0.025  0.317  0.004  0.650  0.004
    occupations:
  0.990  0.000  0.000  0.000  0.000
  0.000  0.687 -0.001  0.079  0.202
  0.000 -0.001  0.687  0.202 -0.078
  0.000  0.079  0.202  0.831  0.000
  0.000  0.202 -0.078  0.000  0.832
atom    3   Tr[ns(na)] =   3.79638
    eigenvalues: 
  0.356  0.356  0.382  0.402  0.402
    eigenvectors:
  0.000  0.000  1.000  0.000  0.000
  0.692  0.230  0.000  0.013  0.065
  0.230  0.692  0.000  0.065  0.013
  0.020  0.058  0.000  0.765  0.157
  0.058  0.020  0.000  0.157  0.765
    occupations:
  0.382  0.000  0.000  0.000  0.000
  0.000  0.360  0.000  0.000  0.012
  0.000  0.000  0.360  0.012  0.000
  0.000  0.000  0.012  0.398  0.000
  0.000  0.012  0.000  0.000  0.398
atom    4   Tr[ns(na)] =   3.79634
    eigenvalues: 
  0.356  0.356  0.382  0.402  0.402
    eigenvectors:
  0.000  0.000  1.000  0.000  0.000
  0.258  0.662  0.000  0.019  0.060
  0.663  0.258  0.000  0.059  0.020
  0.056  0.023  0.000  0.689  0.232
  0.023  0.057  0.000  0.233  0.688
    occupations:
  0.382  0.000  0.000  0.000  0.000
  0.000  0.360  0.000  0.000  0.012
  0.000  0.000  0.360  0.012  0.000
  0.000  0.000  0.012  0.398  0.000
  0.000  0.012  0.000  0.000  0.398
atom    5   Tr[ns(na)] =   5.42309
    eigenvalues: 
  0.838  0.928  0.945
    eigenvectors:
  0.338  0.000  0.662
  0.496  0.251  0.253
  0.166  0.749  0.085
    occupations:
  0.909 -0.044  0.025
 -0.044  0.888  0.023
  0.025  0.023  0.915
atom    6   Tr[ns(na)] =   5.43260
    eigenvalues: 
  0.840  0.930  0.946
    eigenvectors:
  0.338  0.000  0.662
  0.496  0.251  0.253
  0.166  0.749  0.085
    occupations:
  0.910  0.043  0.025
  0.043  0.890 -0.023
  0.025 -0.023  0.916
atom    7   Tr[ns(na)] =   5.43260
    eigenvalues: 
  0.840  0.930  0.946
    eigenvectors:
  0.338  0.000  0.662
  0.000  1.000  0.000
  0.662  0.000  0.338
    occupations:
  0.910  0.000 -0.050
  0.000  0.930  0.000
 -0.050  0.000  0.876
atom    8   Tr[ns(na)] =   5.43194
    eigenvalues: 
  0.840  0.930  0.946
    eigenvectors:
  0.338  0.000  0.662
  0.496  0.251  0.253
  0.166  0.749  0.085
    occupations:
  0.910 -0.043  0.025
 -0.043  0.889  0.023
  0.025  0.023  0.916
atom    9   Tr[ns(na)] =   5.43267
    eigenvalues: 
  0.840  0.930  0.946
    eigenvectors:
  0.338  0.000  0.662
  0.497  0.250  0.253
  0.165  0.750  0.085
    occupations:
  0.910  0.043  0.025
  0.043  0.889 -0.023
  0.025 -0.023  0.916
atom   10   Tr[ns(na)] =   5.43267
    eigenvalues: 
  0.840  0.930  0.946
    eigenvectors:
  0.338  0.000  0.662
  0.000  1.000  0.000
  0.662  0.000  0.338
    occupations:
  0.910  0.000 -0.050
  0.000  0.930  0.000
 -0.050  0.000  0.876
N of occupied +U levels =  56.2893398
 --- exit write_ns ---
 --- in v_hubbard ---
Hubbard energy    0.2950
 -------

     total cpu time spent up to now is      425.7 secs

     total energy              =    -538.01610904 Ry
     Harris-Foulkes estimate   =    -538.01609678 Ry
     estimated scf accuracy    <       0.00000010 Ry

     iteration # 11     ecut=    30.00 Ry     beta=0.20
     Davidson diagonalization with overlap
     ethr =  1.28E-10,  avg # of iterations =  1.9
 --- enter write_ns ---
 LDA+U parameters:
U( 1)     =  3.00000000
alpha( 1) =  0.00000000
U( 2)     =  0.00000000
alpha( 2) =  0.00000000
U( 3)     =  0.00000000
alpha( 3) =  0.15000000
U( 4)     =  0.00000000
alpha( 4) =  0.00000000
atom    1   Tr[ns(na)] =   8.05636
    eigenvalues: 
  0.532  0.533  0.987  0.987  0.989
    eigenvectors:
  0.000  0.000  0.001  0.006  0.994
  0.100  0.557  0.160  0.180  0.002
  0.558  0.100  0.182  0.160  0.000
  0.175  0.167  0.121  0.535  0.002
  0.168  0.175  0.536  0.120  0.002
    occupations:
  0.989  0.000  0.000  0.000  0.000
  0.000  0.688  0.000 -0.078  0.201
  0.000  0.000  0.688  0.201  0.079
  0.000 -0.078  0.201  0.832  0.000
  0.000  0.201  0.079  0.000  0.831
atom    2   Tr[ns(na)] =   8.05430
    eigenvalues: 
  0.530  0.532  0.988  0.988  0.990
    eigenvectors:
  0.000  0.000  0.001  0.006  0.994
  0.238  0.420  0.028  0.313  0.001
  0.420  0.238  0.314  0.027  0.001
  0.317  0.025  0.653  0.005  0.000
  0.025  0.317  0.004  0.650  0.004
    occupations:
  0.990  0.000  0.000  0.000  0.000
  0.000  0.687 -0.001  0.079  0.202
  0.000 -0.001  0.687  0.202 -0.078
  0.000  0.079  0.202  0.831  0.000
  0.000  0.202 -0.078  0.000  0.832
atom    3   Tr[ns(na)] =   3.79637
    eigenvalues: 
  0.356  0.356  0.382  0.402  0.402
    eigenvectors:
  0.000  0.000  1.000  0.000  0.000
  0.692  0.230  0.000  0.013  0.065
  0.230  0.692  0.000  0.065  0.013
  0.020  0.058  0.000  0.764  0.158
  0.058  0.020  0.000  0.158  0.764
    occupations:
  0.382  0.000  0.000  0.000  0.000
  0.000  0.360  0.000  0.000  0.012
  0.000  0.000  0.360  0.012  0.000
  0.000  0.000  0.012  0.398  0.000
  0.000  0.012  0.000  0.000  0.398
atom    4   Tr[ns(na)] =   3.79633
    eigenvalues: 
  0.356  0.356  0.382  0.402  0.402
    eigenvectors:
  0.000  0.000  1.000  0.000  0.000
  0.258  0.662  0.000  0.019  0.060
  0.663  0.258  0.000  0.059  0.020
  0.056  0.023  0.000  0.689  0.232
  0.023  0.057  0.000  0.233  0.688
    occupations:
  0.382  0.000  0.000  0.000  0.000
  0.000  0.360  0.000  0.000  0.012
  0.000  0.000  0.360  0.012  0.000
  0.000  0.000  0.012  0.398  0.000
  0.000  0.012  0.000  0.000  0.398
atom    5   Tr[ns(na)] =   5.42315
    eigenvalues: 
  0.838  0.928  0.945
    eigenvectors:
  0.338  0.000  0.662
  0.496  0.251  0.253
  0.166  0.749  0.085
    occupations:
  0.909 -0.044  0.025
 -0.044  0.888  0.023
  0.025  0.023  0.915
atom    6   Tr[ns(na)] =   5.43265
    eigenvalues: 
  0.840  0.930  0.946
    eigenvectors:
  0.338  0.000  0.662
  0.496  0.251  0.253
  0.166  0.749  0.085
    occupations:
  0.910  0.043  0.025
  0.043  0.890 -0.023
  0.025 -0.023  0.916
atom    7   Tr[ns(na)] =   5.43265
    eigenvalues: 
  0.840  0.930  0.946
    eigenvectors:
  0.338  0.000  0.662
  0.000  1.000  0.000
  0.662  0.000  0.338
    occupations:
  0.910  0.000 -0.050
  0.000  0.930  0.000
 -0.050  0.000  0.876
atom    8   Tr[ns(na)] =   5.43202
    eigenvalues: 
  0.840  0.930  0.946
    eigenvectors:
  0.338  0.000  0.662
  0.496  0.251  0.253
  0.166  0.749  0.085
    occupations:
  0.910 -0.043  0.025
 -0.043  0.889  0.023
  0.025  0.023  0.916
atom    9   Tr[ns(na)] =   5.43273
    eigenvalues: 
  0.840  0.930  0.946
    eigenvectors:
  0.338  0.000  0.662
  0.497  0.250  0.253
  0.165  0.750  0.085
    occupations:
  0.911  0.043  0.025
  0.043  0.889 -0.023
  0.025 -0.023  0.916
atom   10   Tr[ns(na)] =   5.43272
    eigenvalues: 
  0.840  0.930  0.946
    eigenvectors:
  0.338  0.000  0.662
  0.000  1.000  0.000
  0.662  0.000  0.338
    occupations:
  0.911  0.000 -0.050
  0.000  0.930  0.000
 -0.050  0.000  0.876
N of occupied +U levels =  56.2892896
 --- exit write_ns ---
 --- in v_hubbard ---
Hubbard energy    0.2950
 -------

     total cpu time spent up to now is      459.6 secs

     total energy              =    -538.01611712 Ry
     Harris-Foulkes estimate   =    -538.01610906 Ry
     estimated scf accuracy    <       0.00000001 Ry

     iteration # 12     ecut=    30.00 Ry     beta=0.20
     Davidson diagonalization with overlap
     ethr =  1.72E-11,  avg # of iterations =  2.0
 --- enter write_ns ---
 LDA+U parameters:
U( 1)     =  3.00000000
alpha( 1) =  0.00000000
U( 2)     =  0.00000000
alpha( 2) =  0.00000000
U( 3)     =  0.00000000
alpha( 3) =  0.15000000
U( 4)     =  0.00000000
alpha( 4) =  0.00000000
atom    1   Tr[ns(na)] =   8.05641
    eigenvalues: 
  0.532  0.533  0.987  0.987  0.989
    eigenvectors:
  0.000  0.000  0.001  0.006  0.994
  0.100  0.557  0.160  0.181  0.002
  0.558  0.100  0.182  0.160  0.000
  0.175  0.167  0.121  0.534  0.002
  0.168  0.175  0.536  0.120  0.002
    occupations:
  0.989  0.000  0.000  0.000  0.000
  0.000  0.688  0.000 -0.078  0.201
  0.000  0.000  0.688  0.201  0.079
  0.000 -0.078  0.201  0.832  0.000
  0.000  0.201  0.079  0.000  0.831
atom    2   Tr[ns(na)] =   8.05436
    eigenvalues: 
  0.530  0.532  0.988  0.988  0.990
    eigenvectors:
  0.000  0.000  0.001  0.006  0.994
  0.238  0.420  0.028  0.312  0.001
  0.420  0.238  0.314  0.028  0.001
  0.317  0.025  0.653  0.004  0.000
  0.025  0.317  0.004  0.650  0.004
    occupations:
  0.990  0.000  0.000  0.000  0.000
  0.000  0.687 -0.001  0.079  0.202
  0.000 -0.001  0.687  0.202 -0.078
  0.000  0.079  0.202  0.831  0.000
  0.000  0.202 -0.078  0.000  0.832
atom    3   Tr[ns(na)] =   3.79636
    eigenvalues: 
  0.356  0.356  0.382  0.402  0.402
    eigenvectors:
  0.000  0.000  1.000  0.000  0.000
  0.692  0.230  0.000  0.013  0.066
  0.230  0.692  0.000  0.066  0.013
  0.020  0.058  0.000  0.767  0.154
  0.058  0.020  0.000  0.154  0.767
    occupations:
  0.382  0.000  0.000  0.000  0.000
  0.000  0.360  0.000  0.000  0.012
  0.000  0.000  0.360  0.012  0.000
  0.000  0.000  0.012  0.398  0.000
  0.000  0.012  0.000  0.000  0.398
atom    4   Tr[ns(na)] =   3.79632
    eigenvalues: 
  0.356  0.356  0.382  0.402  0.402
    eigenvectors:
  0.000  0.000  1.000  0.000  0.000
  0.259  0.662  0.000  0.019  0.060
  0.663  0.259  0.000  0.059  0.020
  0.056  0.023  0.000  0.689  0.232
  0.023  0.057  0.000  0.233  0.688
    occupations:
  0.382  0.000  0.000  0.000  0.000
  0.000  0.360  0.000  0.000  0.012
  0.000  0.000  0.360  0.012  0.000
  0.000  0.000  0.012  0.398  0.000
  0.000  0.012  0.000  0.000  0.398
atom    5   Tr[ns(na)] =   5.42314
    eigenvalues: 
  0.838  0.928  0.945
    eigenvectors:
  0.338  0.000  0.662
  0.496  0.251  0.253
  0.166  0.749  0.085
    occupations:
  0.909 -0.044  0.025
 -0.044  0.888  0.023
  0.025  0.023  0.915
atom    6   Tr[ns(na)] =   5.43264
    eigenvalues: 
  0.840  0.930  0.946
    eigenvectors:
  0.338  0.000  0.662
  0.496  0.251  0.253
  0.166  0.749  0.085
    occupations:
  0.910  0.043  0.025
  0.043  0.890 -0.023
  0.025 -0.023  0.916
atom    7   Tr[ns(na)] =   5.43264
    eigenvalues: 
  0.840  0.930  0.946
    eigenvectors:
  0.338  0.000  0.662
  0.000  1.000  0.000
  0.662  0.000  0.338
    occupations:
  0.910  0.000 -0.050
  0.000  0.930  0.000
 -0.050  0.000  0.876
atom    8   Tr[ns(na)] =   5.43200
    eigenvalues: 
  0.840  0.930  0.946
    eigenvectors:
  0.338  0.000  0.662
  0.496  0.251  0.253
  0.166  0.749  0.085
    occupations:
  0.910 -0.043  0.025
 -0.043  0.889  0.023
  0.025  0.023  0.916
atom    9   Tr[ns(na)] =   5.43271
    eigenvalues: 
  0.840  0.930  0.946
    eigenvectors:
  0.338  0.000  0.662
  0.497  0.250  0.253
  0.165  0.750  0.085
    occupations:
  0.911  0.043  0.025
  0.043  0.889 -0.023
  0.025 -0.023  0.916
atom   10   Tr[ns(na)] =   5.43271
    eigenvalues: 
  0.840  0.930  0.946
    eigenvectors:
  0.338  0.000  0.662
  0.000  1.000  0.000
  0.662  0.000  0.338
    occupations:
  0.911  0.000 -0.050
  0.000  0.930  0.000
 -0.050  0.000  0.876
N of occupied +U levels =  56.2892909
 --- exit write_ns ---
 --- in v_hubbard ---
Hubbard energy    0.2950
 -------

     total cpu time spent up to now is      496.1 secs

     End of self-consistent calculation

          k = 0.0000 0.0000 0.0000 (  2175 PWs)   bands (ev):

   -19.7943 -19.6207  -6.5577  -5.8782  -5.8448  -5.8296  -5.8205  -5.4914
    -3.8101  -3.2553  -3.2343  -3.2316  -3.0215  -3.0206   5.2088   6.8304
     6.8410   7.1779   7.1851   7.2181   7.5245   7.5413   7.7304   9.1329
     9.3083   9.3221   9.3229   9.6284   9.6420  10.0367  10.0423  10.2597
    10.4680  10.4726  10.6861  11.1430  11.1469  11.5501  11.9803  11.9836
    14.7504  14.7541  15.4271  15.4295  16.1986  16.7835

     occupation numbers 
     0.0313   0.0313   0.0313   0.0313   0.0313   0.0313   0.0313   0.0313
     0.0313   0.0313   0.0313   0.0313   0.0313   0.0313   0.0313   0.0313
     0.0313   0.0313   0.0313   0.0313   0.0313   0.0313   0.0313   0.0313
     0.0313   0.0313   0.0313   0.0312   0.0312   0.0312   0.0312   0.0312
     0.0312   0.0312   0.0312   0.0307   0.0306   0.0233   0.0064   0.0063
     0.0000   0.0000   0.0000   0.0000   0.0000   0.0000

          k =-0.2471-0.1427 0.1027 (  2181 PWs)   bands (ev):

   -19.7677 -19.6533  -6.7349  -6.3006  -5.9592  -5.8580  -5.6216  -5.4896
    -3.6079  -3.3964  -2.9355  -2.9045  -2.8556  -2.7607   5.5605   6.8051
     6.8528   6.9330   6.9645   7.1965   7.2379   7.4953   7.6160   8.2842
     8.2933   8.8421   9.6075   9.7224   9.7405   9.9880  10.2313  10.2491
    10.4141  10.4276  10.4799  11.2233  11.3082  11.3346  12.3098  12.3796
    14.2989  14.3071  15.8168  16.0691  16.9724  17.2658

     occupation numbers 
     0.0625   0.0625   0.0625   0.0625   0.0625   0.0625   0.0625   0.0625
     0.0625   0.0625   0.0625   0.0625   0.0625   0.0625   0.0625   0.0625
     0.0625   0.0625   0.0625   0.0625   0.0625   0.0625   0.0625   0.0625
     0.0625   0.0625   0.0625   0.0625   0.0625   0.0625   0.0625   0.0625
     0.0625   0.0625   0.0625   0.0602   0.0583   0.0575   0.0015   0.0008
     0.0000   0.0000   0.0000   0.0000   0.0000   0.0000

          k = 0.4942 0.2853-0.2053 (  2202 PWs)   bands (ev):

   -19.7145 -19.7126  -6.7407  -6.7129  -5.9813  -5.9588  -5.5411  -5.5203
    -3.3885  -3.3818  -2.7946  -2.7918  -2.5087  -2.5027   5.9903   6.0199
     7.0346   7.0501   7.1753   7.2106   7.4312   7.4536   7.5001   7.5316
     7.7338   7.7593   9.4497   9.4572   9.8616   9.8765  10.2725  10.2858
    10.6390  10.6609  10.7984  10.8157  11.0580  11.0814  13.2812  13.3216
    13.3664  13.4025  16.8335  16.8368  17.1294  17.1329

     occupation numbers 
     0.0313   0.0313   0.0313   0.0313   0.0313   0.0313   0.0313   0.0313
     0.0313   0.0313   0.0313   0.0313   0.0313   0.0313   0.0313   0.0313
     0.0313   0.0313   0.0313   0.0313   0.0313   0.0313   0.0313   0.0313
     0.0313   0.0313   0.0312   0.0312   0.0312   0.0312   0.0312   0.0312
     0.0312   0.0312   0.0312   0.0312   0.0310   0.0309   0.0000   0.0000
     0.0000   0.0000   0.0000   0.0000   0.0000   0.0000

          k =-0.2471 0.1427 0.2053 (  2195 PWs)   bands (ev):

   -19.7617 -19.6621  -6.8509  -6.2420  -6.0686  -5.8619  -5.6721  -5.4635
    -3.4214  -3.2623  -3.1039  -2.8942  -2.8221  -2.5575   5.5800   6.5271
     6.7403   6.8301   7.1776   7.3146   7.3874   7.4409   7.4912   8.3578
     8.3699   8.7624   9.2444   9.3466   9.8748   9.9250  10.0319  10.0968
    10.2708  10.8236  10.9568  10.9818  11.2401  11.3127  11.8987  12.7301
    13.6264  14.7678  15.9932  16.1942  17.0333  17.5373

     occupation numbers 
     0.0625   0.0625   0.0625   0.0625   0.0625   0.0625   0.0625   0.0625
     0.0625   0.0625   0.0625   0.0625   0.0625   0.0625   0.0625   0.0625
     0.0625   0.0625   0.0625   0.0625   0.0625   0.0625   0.0625   0.0625
     0.0625   0.0625   0.0625   0.0625   0.0625   0.0625   0.0625   0.0625
     0.0625   0.0625   0.0623   0.0622   0.0599   0.0582   0.0183   0.0000
     0.0000   0.0000   0.0000   0.0000   0.0000   0.0000

          k = 0.4942 0.5706-0.1027 (  2198 PWs)   bands (ev):

   -19.7279 -19.7015  -6.9508  -6.6552  -6.1261  -5.9189  -5.5303  -5.3844
    -3.3077  -3.2535  -2.8781  -2.7065  -2.5269  -2.3825   5.8520   6.1951
     6.4006   6.9035   7.1135   7.2482   7.3241   7.4925   7.5277   7.6712
     8.0667   8.6120   8.9710   9.2613   9.5650   9.7973   9.8768  10.3215
    10.3694  10.8121  10.9129  10.9897  11.1320  11.2539  12.3012  12.7316
    13.4229  14.3467  16.9035  17.1131  17.3074  18.0148

     occupation numbers 
     0.0625   0.0625   0.0625   0.0625   0.0625   0.0625   0.0625   0.0625
     0.0625   0.0625   0.0625   0.0625   0.0625   0.0625   0.0625   0.0625
     0.0625   0.0625   0.0625   0.0625   0.0625   0.0625   0.0625   0.0625
     0.0625   0.0625   0.0625   0.0625   0.0625   0.0625   0.0625   0.0625
     0.0625   0.0625   0.0624   0.0622   0.0614   0.0596   0.0016   0.0000
     0.0000   0.0000   0.0000   0.0000   0.0000   0.0000

          k = 0.2471 0.4280 0.0000 (  2203 PWs)   bands (ev):

   -19.7385 -19.6881  -6.8583  -6.6360  -6.0781  -5.9760  -5.4406  -5.3852
    -3.5262  -3.2923  -2.7984  -2.7127  -2.5723  -2.5590   5.8833   6.1983
     6.6943   7.0061   7.0683   7.1440   7.3532   7.3791   7.4337   7.7466
     7.9491   8.9053   8.9305   9.3970   9.7484   9.7683  10.0530  10.3440
    10.6258  10.6605  10.8203  10.9393  10.9584  11.3446  12.2178  13.3098
    13.3870  14.1467  16.4350  16.9909  17.4179  17.9258

     occupation numbers 
     0.0625   0.0625   0.0625   0.0625   0.0625   0.0625   0.0625   0.0625
     0.0625   0.0625   0.0625   0.0625   0.0625   0.0625   0.0625   0.0625
     0.0625   0.0625   0.0625   0.0625   0.0625   0.0625   0.0625   0.0625
     0.0625   0.0625   0.0625   0.0625   0.0625   0.0625   0.0625   0.0625
     0.0625   0.0625   0.0625   0.0623   0.0623   0.0572   0.0031   0.0000
     0.0000   0.0000   0.0000   0.0000   0.0000   0.0000

          k = 0.4942-0.2853-0.4107 (  2202 PWs)   bands (ev):

   -19.7286 -19.7032  -7.1601  -6.4538  -6.2317  -6.0021  -5.5529  -5.2918
    -3.1962  -3.1155  -3.0464  -2.6447  -2.4776  -2.2192   5.7717   5.8736
     6.2023   6.8180   7.1524   7.2598   7.3227   7.4904   7.9990   8.0067
     8.1769   8.3442   8.6027   9.3889   9.4487   9.6933  10.0456  10.0710
    10.4156  10.7134  10.8824  11.0231  11.1572  11.3865  11.8408  12.4108
    13.3260  14.7818  17.0414  17.2648  17.5165  17.6102

     occupation numbers 
     0.0313   0.0313   0.0313   0.0313   0.0313   0.0313   0.0313   0.0313
     0.0313   0.0313   0.0313   0.0313   0.0313   0.0313   0.0313   0.0313
     0.0313   0.0313   0.0313   0.0313   0.0313   0.0313   0.0313   0.0313
     0.0313   0.0313   0.0313   0.0312   0.0312   0.0312   0.0312   0.0312
     0.0312   0.0312   0.0312   0.0310   0.0306   0.0278   0.0114   0.0003
     0.0000   0.0000   0.0000   0.0000   0.0000   0.0000

          k = 0.0000 0.0000 0.3080 (  2187 PWs)   bands (ev):

   -19.7674 -19.6542  -6.6234  -5.9989  -5.9502  -5.9321  -5.8553  -5.8392
    -3.2097  -3.1270  -3.1234  -2.9672  -2.8968  -2.8937   5.6270   6.8900
     6.9232   6.9348   7.1258   7.1780   7.1867   7.4979   7.5158   8.4642
     8.4670   8.8692   9.4507   9.5476   9.5643   9.7393  10.1169  10.1324
    10.4491  10.4555  10.6740  11.2695  11.2738  11.3261  12.2814  12.2834
    14.2576  14.2611  15.9098  15.9126  16.8790  17.4801

     occupation numbers 
     0.0625   0.0625   0.0625   0.0625   0.0625   0.0625   0.0625   0.0625
     0.0625   0.0625   0.0625   0.0625   0.0625   0.0625   0.0625   0.0625
     0.0625   0.0625   0.0625   0.0625   0.0625   0.0625   0.0625   0.0625
     0.0625   0.0625   0.0625   0.0625   0.0625   0.0625   0.0625   0.0625
     0.0625   0.0625   0.0625   0.0593   0.0592   0.0578   0.0019   0.0019
     0.0000   0.0000   0.0000   0.0000   0.0000   0.0000

          k = 0.7412 0.4280 0.0000 (  2204 PWs)   bands (ev):

   -19.7380 -19.6891  -6.7374  -6.6138  -6.1478  -5.8376  -5.6926  -5.5616
    -3.1822  -3.0920  -3.0432  -2.6748  -2.6572  -2.5861   5.9060   6.4634
     6.5818   7.0311   7.1090   7.2469   7.2872   7.4141   7.4879   7.7044
     8.0448   8.7064   8.9722   9.4563   9.5497   9.6888   9.8431  10.2311
    10.6344  10.7768  10.8405  11.0185  11.0519  11.1535  12.2184  13.2335
    13.3056  14.1691  16.6863  16.7246  17.5915  17.7942

     occupation numbers 
     0.0625   0.0625   0.0625   0.0625   0.0625   0.0625   0.0625   0.0625
     0.0625   0.0625   0.0625   0.0625   0.0625   0.0625   0.0625   0.0625
     0.0625   0.0625   0.0625   0.0625   0.0625   0.0625   0.0625   0.0625
     0.0625   0.0625   0.0625   0.0625   0.0625   0.0625   0.0625   0.0625
     0.0625   0.0625   0.0624   0.0621   0.0620   0.0612   0.0031   0.0000
     0.0000   0.0000   0.0000   0.0000   0.0000   0.0000

          k = 0.4942 0.2853 0.1027 (  2211 PWs)   bands (ev):

   -19.7274 -19.7002  -6.9825  -6.5476  -6.3286  -5.7063  -5.6255  -5.3734
    -3.3226  -3.1634  -3.0342  -2.6032  -2.5624  -2.3791   5.9038   6.1613
     6.3635   6.8948   7.1427   7.1851   7.3677   7.4483   7.6054   7.6572
     8.0813   8.6740   8.9576   9.3886   9.4233   9.6506   9.9854  10.2389
    10.4623  10.8746  11.0129  11.0294  11.0686  11.0998  12.2574  12.7469
    13.4641  14.3311  16.8854  16.9344  17.5790  17.9268

     occupation numbers 
     0.0625   0.0625   0.0625   0.0625   0.0625   0.0625   0.0625   0.0625
     0.0625   0.0625   0.0625   0.0625   0.0625   0.0625   0.0625   0.0625
     0.0625   0.0625   0.0625   0.0625   0.0625   0.0625   0.0625   0.0625
     0.0625   0.0625   0.0625   0.0625   0.0625   0.0625   0.0625   0.0625
     0.0625   0.0624   0.0621   0.0621   0.0619   0.0617   0.0023   0.0000
     0.0000   0.0000   0.0000   0.0000   0.0000   0.0000

          k = 0.7412-0.4280-0.3080 (  2210 PWs)   bands (ev):

   -19.7283 -19.7018  -6.9029  -6.4620  -6.3026  -5.8260  -5.7687  -5.4859
    -3.0698  -3.0541  -2.9647  -2.7279  -2.6216  -2.4251   5.9620   6.3274
     6.3853   6.8663   7.1081   7.2265   7.3962   7.4824   7.6379   7.6838
     8.0784   8.6758   8.8490   9.3756   9.4823   9.5160   9.6597  10.1657
    10.4964  10.8816  10.9745  11.0152  11.1465  11.1638  12.2158  12.6982
    13.4181  14.2981  17.0586  17.0683  17.5485  17.9018

     occupation numbers 
     0.0625   0.0625   0.0625   0.0625   0.0625   0.0625   0.0625   0.0625
     0.0625   0.0625   0.0625   0.0625   0.0625   0.0625   0.0625   0.0625
     0.0625   0.0625   0.0625   0.0625   0.0625   0.0625   0.0625   0.0625
     0.0625   0.0625   0.0625   0.0625   0.0625   0.0625   0.0625   0.0625
     0.0625   0.0624   0.0623   0.0621   0.0613   0.0611   0.0031   0.0000
     0.0000   0.0000   0.0000   0.0000   0.0000   0.0000

          k = 0.4942-0.5706-0.2053 (  2206 PWs)   bands (ev):

   -19.7155 -19.7150  -6.8923  -6.8732  -6.0616  -6.0287  -5.4462  -5.4264
    -3.1513  -3.1508  -2.8176  -2.8126  -2.3830  -2.3788   6.0347   6.0631
     6.5348   6.5500   7.0283   7.0314   7.3314   7.3452   7.6720   7.7058
[...]
     0.0625   0.0625   0.0625   0.0625   0.0625   0.0625   0.0625   0.0625
     0.0625   0.0625   0.0625   0.0625   0.0625   0.0625   0.0625   0.0625
     0.0625   0.0625   0.0623   0.0623   0.0599   0.0581   0.0181   0.0000
     0.0000   0.0000   0.0000   0.0000   0.0000   0.0000

          k = 0.4942-0.5706 0.1027 (  2198 PWs)   bands (ev):

   -19.7267 -19.7008  -6.9668  -6.6498  -6.1407  -5.8893  -5.5209  -5.3984
    -3.3098  -3.2540  -2.8760  -2.7097  -2.5288  -2.3859   5.8676   6.1860
     6.4107   6.9128   7.1204   7.2585   7.3290   7.4865   7.5183   7.6762
     8.0453   8.6230   8.9585   9.2526   9.5723   9.7901   9.8753  10.3258
    10.3799  10.7980  10.9226  10.9966  11.1358  11.2360  12.3024  12.7323
    13.4173  14.3493  16.9054  17.1132  17.3088  18.0155

     occupation numbers 
     0.0625   0.0625   0.0625   0.0625   0.0625   0.0625   0.0625   0.0625
     0.0625   0.0625   0.0625   0.0625   0.0625   0.0625   0.0625   0.0625
     0.0625   0.0625   0.0625   0.0625   0.0625   0.0625   0.0625   0.0625
     0.0625   0.0625   0.0625   0.0625   0.0625   0.0625   0.0625   0.0625
     0.0625   0.0625   0.0624   0.0622   0.0614   0.0600   0.0016   0.0000
     0.0000   0.0000   0.0000   0.0000   0.0000   0.0000

          k =-0.7412 0.1427-0.1027 (  2198 PWs)   bands (ev):

   -19.7267 -19.7008  -6.9663  -6.6506  -6.1396  -5.8903  -5.5199  -5.3991
    -3.3090  -3.2541  -2.8759  -2.7107  -2.5282  -2.3863   5.8702   6.1801
     6.4161   6.9114   7.1194   7.2551   7.3196   7.4979   7.5349   7.6636
     8.0422   8.6194   8.9613   9.2533   9.5748   9.7897   9.8755  10.3237
    10.3802  10.8041  10.9164  10.9983  11.1291  11.2409  12.3025  12.7326
    13.4174  14.3496  16.9036  17.1160  17.3082  18.0152

     occupation numbers 
     0.0625   0.0625   0.0625   0.0625   0.0625   0.0625   0.0625   0.0625
     0.0625   0.0625   0.0625   0.0625   0.0625   0.0625   0.0625   0.0625
     0.0625   0.0625   0.0625   0.0625   0.0625   0.0625   0.0625   0.0625
     0.0625   0.0625   0.0625   0.0625   0.0625   0.0625   0.0625   0.0625
     0.0625   0.0625   0.0624   0.0622   0.0614   0.0599   0.0016   0.0000
     0.0000   0.0000   0.0000   0.0000   0.0000   0.0000

          k = 0.2471-0.7133-0.1027 (  2198 PWs)   bands (ev):

   -19.7267 -19.7008  -6.9668  -6.6499  -6.1411  -5.8889  -5.5188  -5.4008
    -3.3089  -3.2540  -2.8764  -2.7093  -2.5283  -2.3867   5.8694   6.1799
     6.4140   6.9125   7.1217   7.2492   7.3234   7.5020   7.5303   7.6648
     8.0426   8.6199   8.9650   9.2534   9.5679   9.7955   9.8711  10.3274
    10.3788  10.8070  10.9139  10.9877  11.1371  11.2429  12.3024  12.7326
    13.4174  14.3495  16.9057  17.1127  17.3081  18.0138

     occupation numbers 
     0.0625   0.0625   0.0625   0.0625   0.0625   0.0625   0.0625   0.0625
     0.0625   0.0625   0.0625   0.0625   0.0625   0.0625   0.0625   0.0625
     0.0625   0.0625   0.0625   0.0625   0.0625   0.0625   0.0625   0.0625
     0.0625   0.0625   0.0625   0.0625   0.0625   0.0625   0.0625   0.0625
     0.0625   0.0625   0.0624   0.0622   0.0614   0.0599   0.0016   0.0000
     0.0000   0.0000   0.0000   0.0000   0.0000   0.0000

          k =-0.7412-0.1427 0.1027 (  2198 PWs)   bands (ev):

   -19.7267 -19.7008  -6.9672  -6.6491  -6.1421  -5.8879  -5.5198  -5.4001
    -3.3097  -3.2538  -2.8766  -2.7083  -2.5289  -2.3863   5.8668   6.1858
     6.4087   6.9142   7.1226   7.2526   7.3325   7.4880   7.5167   7.6769
     8.0458   8.6232   8.9622   9.2528   9.5654   9.7958   9.8710  10.3293
    10.3786  10.8010  10.9202  10.9861  11.1438  11.2377  12.3022  12.7324
    13.4173  14.3493  16.9076  17.1099  17.3086  18.0142

     occupation numbers 
     0.0625   0.0625   0.0625   0.0625   0.0625   0.0625   0.0625   0.0625
     0.0625   0.0625   0.0625   0.0625   0.0625   0.0625   0.0625   0.0625
     0.0625   0.0625   0.0625   0.0625   0.0625   0.0625   0.0625   0.0625
     0.0625   0.0625   0.0625   0.0625   0.0625   0.0625   0.0625   0.0625
     0.0625   0.0625   0.0624   0.0622   0.0613   0.0600   0.0016   0.0000
     0.0000   0.0000   0.0000   0.0000   0.0000   0.0000

          k = 0.2471 0.7133 0.1027 (  2198 PWs)   bands (ev):

   -19.7279 -19.7015  -6.9513  -6.6543  -6.1272  -5.9178  -5.5312  -5.3837
    -3.3084  -3.2535  -2.8783  -2.7055  -2.5274  -2.3822   5.8495   6.2014
     6.3949   6.9052   7.1149   7.2495   7.3353   7.4811   7.5116   7.6827
     8.0699   8.6153   8.9683   9.2609   9.5625   9.7972   9.8768  10.3238
    10.3690  10.8060  10.9188  10.9882  11.1390  11.2489  12.3011  12.7314
    13.4227  14.3465  16.9054  17.1102  17.3080  18.0150

     occupation numbers 
     0.0625   0.0625   0.0625   0.0625   0.0625   0.0625   0.0625   0.0625
     0.0625   0.0625   0.0625   0.0625   0.0625   0.0625   0.0625   0.0625
     0.0625   0.0625   0.0625   0.0625   0.0625   0.0625   0.0625   0.0625
     0.0625   0.0625   0.0625   0.0625   0.0625   0.0625   0.0625   0.0625
     0.0625   0.0625   0.0624   0.0622   0.0613   0.0597   0.0016   0.0000
     0.0000   0.0000   0.0000   0.0000   0.0000   0.0000

          k = 0.2471-0.4280 0.0000 (  2203 PWs)   bands (ev):

   -19.7386 -19.6879  -6.8513  -6.6506  -6.0480  -5.9926  -5.4562  -5.3754
    -3.5285  -3.2924  -2.8015  -2.7060  -2.5707  -2.5618   5.8674   6.2047
     6.6899   7.0100   7.0807   7.1433   7.3634   7.3765   7.4293   7.7590
     7.9603   8.8942   8.9123   9.3698   9.7526   9.7776  10.0521  10.3501
    10.6306  10.6656  10.8240  10.9447  10.9590  11.3324  12.2185  13.3120
    13.3897  14.1422  16.4342  16.9938  17.4211  17.9258

     occupation numbers 
     0.0625   0.0625   0.0625   0.0625   0.0625   0.0625   0.0625   0.0625
     0.0625   0.0625   0.0625   0.0625   0.0625   0.0625   0.0625   0.0625
     0.0625   0.0625   0.0625   0.0625   0.0625   0.0625   0.0625   0.0625
     0.0625   0.0625   0.0625   0.0625   0.0625   0.0625   0.0625   0.0625
     0.0625   0.0625   0.0625   0.0623   0.0623   0.0576   0.0031   0.0000
     0.0000   0.0000   0.0000   0.0000   0.0000   0.0000

          k =-0.4942 0.0000 0.0000 (  2203 PWs)   bands (ev):

   -19.7386 -19.6879  -6.8513  -6.6507  -6.0479  -5.9926  -5.4563  -5.3755
    -3.5285  -3.2924  -2.8015  -2.7060  -2.5704  -2.5622   5.8674   6.2047
     6.6900   7.0105   7.0780   7.1447   7.3639   7.3768   7.4298   7.7583
     7.9603   8.8941   8.9124   9.3698   9.7536   9.7766  10.0523  10.3502
    10.6306  10.6653  10.8239  10.9445  10.9597  11.3323  12.2185  13.3120
    13.3897  14.1422  16.4342  16.9938  17.4211  17.9251

     occupation numbers 
     0.0625   0.0625   0.0625   0.0625   0.0625   0.0625   0.0625   0.0625
     0.0625   0.0625   0.0625   0.0625   0.0625   0.0625   0.0625   0.0625
     0.0625   0.0625   0.0625   0.0625   0.0625   0.0625   0.0625   0.0625
     0.0625   0.0625   0.0625   0.0625   0.0625   0.0625   0.0625   0.0625
     0.0625   0.0625   0.0625   0.0623   0.0623   0.0576   0.0031   0.0000
     0.0000   0.0000   0.0000   0.0000   0.0000   0.0000

          k = 0.4942 0.2853 0.4107 (  2202 PWs)   bands (ev):

   -19.7263 -19.7016  -7.1779  -6.4605  -6.2487  -5.9647  -5.5317  -5.3097
    -3.1973  -3.1167  -3.0470  -2.6509  -2.4811  -2.2241   5.7959   5.8942
     6.1760   6.8258   7.1725   7.2823   7.3348   7.4976   7.9800   7.9874
     8.1782   8.3113   8.6290   9.3903   9.4178   9.6865  10.0426  10.0807
    10.4270  10.7157  10.8763  11.0285  11.1586  11.3724  11.8416  12.4124
    13.3193  14.7846  17.0432  17.2658  17.5200  17.6129

     occupation numbers 
     0.0313   0.0313   0.0313   0.0313   0.0313   0.0313   0.0313   0.0313
     0.0313   0.0313   0.0313   0.0313   0.0313   0.0313   0.0313   0.0313
     0.0313   0.0313   0.0313   0.0313   0.0313   0.0313   0.0313   0.0313
     0.0313   0.0313   0.0313   0.0312   0.0312   0.0312   0.0312   0.0312
     0.0312   0.0312   0.0312   0.0310   0.0306   0.0281   0.0114   0.0003
     0.0000   0.0000   0.0000   0.0000   0.0000   0.0000

          k = 0.0000 0.5706-0.4107 (  2202 PWs)   bands (ev):

   -19.7263 -19.7016  -7.1779  -6.4606  -6.2485  -5.9647  -5.5317  -5.3097
    -3.1973  -3.1167  -3.0470  -2.6509  -2.4811  -2.2241   5.7959   5.8942
     6.1760   6.8258   7.1725   7.2823   7.3344   7.4980   7.9800   7.9874
     8.1785   8.3109   8.6290   9.3903   9.4178   9.6865  10.0428  10.0805
    10.4270  10.7157  10.8768  11.0277  11.1591  11.3724  11.8416  12.4124
    13.3193  14.7846  17.0431  17.2659  17.5200  17.6129

     occupation numbers 
     0.0313   0.0313   0.0313   0.0313   0.0313   0.0313   0.0313   0.0313
     0.0313   0.0313   0.0313   0.0313   0.0313   0.0313   0.0313   0.0313
     0.0313   0.0313   0.0313   0.0313   0.0313   0.0313   0.0313   0.0313
     0.0313   0.0313   0.0313   0.0312   0.0312   0.0312   0.0312   0.0312
     0.0312   0.0312   0.0312   0.0310   0.0306   0.0281   0.0114   0.0003
     0.0000   0.0000   0.0000   0.0000   0.0000   0.0000

          k = 0.7412-0.4280 0.0000 (  2204 PWs)   bands (ev):

   -19.7379 -19.6892  -6.7442  -6.6007  -6.1559  -5.8440  -5.6978  -5.5472
    -3.1802  -3.0923  -3.0431  -2.6793  -2.6594  -2.5826   5.9256   6.4498
     6.5969   7.0225   7.1003   7.2360   7.2860   7.4237   7.4798   7.6919
     8.0347   8.7182   8.9929   9.4776   9.5477   9.6838   9.8432  10.2247
    10.6288  10.7721  10.8356  11.0117  11.0558  11.1618  12.2181  13.2314
    13.3029  14.1735  16.6886  16.7231  17.5893  17.7937

     occupation numbers 
     0.0625   0.0625   0.0625   0.0625   0.0625   0.0625   0.0625   0.0625
     0.0625   0.0625   0.0625   0.0625   0.0625   0.0625   0.0625   0.0625
     0.0625   0.0625   0.0625   0.0625   0.0625   0.0625   0.0625   0.0625
     0.0625   0.0625   0.0625   0.0625   0.0625   0.0625   0.0625   0.0625
     0.0625   0.0625   0.0624   0.0621   0.0619   0.0611   0.0031   0.0000
     0.0000   0.0000   0.0000   0.0000   0.0000   0.0000

          k = 0.0000-0.8559 0.0000 (  2204 PWs)   bands (ev):

   -19.7380 -19.6891  -6.7375  -6.6137  -6.1479  -5.8377  -5.6927  -5.5614
    -3.1822  -3.0920  -3.0432  -2.6747  -2.6573  -2.5861   5.9060   6.4631
     6.5820   7.0307   7.1115   7.2454   7.2864   7.4142   7.4869   7.7056
     8.0448   8.7064   8.9722   9.4563   9.5498   9.6884   9.8433  10.2311
    10.6344  10.7768  10.8405  11.0183  11.0521  11.1535  12.2184  13.2335
    13.3056  14.1691  16.6862  16.7246  17.5915  17.7942

     occupation numbers 
     0.0625   0.0625   0.0625   0.0625   0.0625   0.0625   0.0625   0.0625
     0.0625   0.0625   0.0625   0.0625   0.0625   0.0625   0.0625   0.0625
     0.0625   0.0625   0.0625   0.0625   0.0625   0.0625   0.0625   0.0625
     0.0625   0.0625   0.0625   0.0625   0.0625   0.0625   0.0625   0.0625
     0.0625   0.0625   0.0624   0.0621   0.0620   0.0612   0.0031   0.0000
     0.0000   0.0000   0.0000   0.0000   0.0000   0.0000

          k = 0.4942-0.2853-0.1027 (  2211 PWs)   bands (ev):

   -19.7286 -19.7009  -6.9676  -6.5520  -6.3266  -5.7211  -5.6364  -5.3596
    -3.3224  -3.1632  -3.0337  -2.6003  -2.5623  -2.3750   5.8870   6.1813
     6.3449   6.8915   7.1357   7.1774   7.3598   7.4494   7.6025   7.6647
     8.1041   8.6641   8.9658   9.3845   9.4103   9.6778   9.9918  10.2306
    10.4508  10.8760  11.0134  11.0320  11.0697  11.1045  12.2563  12.7460
    13.4694  14.3282  16.8846  16.9348  17.5798  17.9264

     occupation numbers 
     0.0625   0.0625   0.0625   0.0625   0.0625   0.0625   0.0625   0.0625
     0.0625   0.0625   0.0625   0.0625   0.0625   0.0625   0.0625   0.0625
     0.0625   0.0625   0.0625   0.0625   0.0625   0.0625   0.0625   0.0625
     0.0625   0.0625   0.0625   0.0625   0.0625   0.0625   0.0625   0.0625
     0.0625   0.0624   0.0621   0.0621   0.0619   0.0616   0.0023   0.0000
     0.0000   0.0000   0.0000   0.0000   0.0000   0.0000

          k = 0.0000-0.5706 0.1027 (  2211 PWs)   bands (ev):

   -19.7274 -19.7002  -6.9824  -6.5477  -6.3286  -5.7062  -5.6258  -5.3733
    -3.3226  -3.1635  -3.0342  -2.6031  -2.5625  -2.3791   5.9037   6.1615
     6.3634   6.8949   7.1433   7.1846   7.3669   7.4487   7.6049   7.6579
     8.0812   8.6741   8.9575   9.3893   9.4226   9.6505   9.9855  10.2390
    10.4622  10.8747  11.0136  11.0276  11.0704  11.0989  12.2574  12.7469
    13.4641  14.3311  16.8854  16.9344  17.5790  17.9268

     occupation numbers 
     0.0625   0.0625   0.0625   0.0625   0.0625   0.0625   0.0625   0.0625
     0.0625   0.0625   0.0625   0.0625   0.0625   0.0625   0.0625   0.0625
     0.0625   0.0625   0.0625   0.0625   0.0625   0.0625   0.0625   0.0625
     0.0625   0.0625   0.0625   0.0625   0.0625   0.0625   0.0625   0.0625
     0.0625   0.0624   0.0621   0.0621   0.0619   0.0617   0.0023   0.0000
     0.0000   0.0000   0.0000   0.0000   0.0000   0.0000

          k = 0.7412 0.4280 0.3080 (  2210 PWs)   bands (ev):

   -19.7271 -19.7011  -6.9193  -6.4570  -6.3072  -5.7977  -5.7655  -5.5021
    -3.0704  -3.0537  -2.9630  -2.7316  -2.6237  -2.4290   5.9815   6.3034
     6.4038   6.8725   7.1182   7.2332   7.4042   7.4785   7.6413   7.6791
     8.0538   8.6858   8.8402   9.3768   9.4883   9.5010   9.6548  10.1737
    10.5032  10.8774  10.9743  11.0191  11.1392  11.1604  12.2166  12.6992
    13.4129  14.3010  17.0596  17.0691  17.5473  17.9024

     occupation numbers 
     0.0625   0.0625   0.0625   0.0625   0.0625   0.0625   0.0625   0.0625
     0.0625   0.0625   0.0625   0.0625   0.0625   0.0625   0.0625   0.0625
     0.0625   0.0625   0.0625   0.0625   0.0625   0.0625   0.0625   0.0625
     0.0625   0.0625   0.0625   0.0625   0.0625   0.0625   0.0625   0.0625
     0.0625   0.0624   0.0623   0.0621   0.0613   0.0611   0.0031   0.0000
     0.0000   0.0000   0.0000   0.0000   0.0000   0.0000

          k = 0.0000 0.8559-0.3080 (  2210 PWs)   bands (ev):

   -19.7271 -19.7011  -6.9193  -6.4570  -6.3073  -5.7976  -5.7655  -5.5021
    -3.0704  -3.0537  -2.9630  -2.7316  -2.6238  -2.4290   5.9815   6.3032
     6.4040   6.8724   7.1183   7.2329   7.4039   7.4791   7.6449   7.6752
     8.0540   8.6861   8.8401   9.3766   9.4882   9.5012   9.6549  10.1737
    10.5032  10.8778  10.9728  11.0204  11.1389  11.1607  12.2166  12.6992
    13.4129  14.3010  17.0597  17.0690  17.5473  17.9024

     occupation numbers 
     0.0625   0.0625   0.0625   0.0625   0.0625   0.0625   0.0625   0.0625
     0.0625   0.0625   0.0625   0.0625   0.0625   0.0625   0.0625   0.0625
     0.0625   0.0625   0.0625   0.0625   0.0625   0.0625   0.0625   0.0625
     0.0625   0.0625   0.0625   0.0625   0.0625   0.0625   0.0625   0.0625
     0.0625   0.0624   0.0623   0.0621   0.0613   0.0611   0.0031   0.0000
     0.0000   0.0000   0.0000   0.0000   0.0000   0.0000

          k = 0.2471 0.7133-0.2053 (  2206 PWs)   bands (ev):

   -19.7155 -19.7150  -6.8921  -6.8735  -6.0614  -6.0290  -5.4462  -5.4264
    -3.1513  -3.1508  -2.8177  -2.8125  -2.3825  -2.3792   6.0347   6.0630
     6.5341   6.5508   7.0283   7.0313   7.3315   7.3453   7.6708   7.7070
     8.6716   8.6894   8.8134   8.8386   9.5100   9.5235  10.0482  10.0580
    10.6667  10.6686  10.8683  10.8824  11.1966  11.2110  12.2677  12.2718
    13.9930  14.0041  17.4251  17.4282  17.8683  17.8695

     occupation numbers 
     0.0625   0.0625   0.0625   0.0625   0.0625   0.0625   0.0625   0.0625
     0.0625   0.0625   0.0625   0.0625   0.0625   0.0625   0.0625   0.0625
     0.0625   0.0625   0.0625   0.0625   0.0625   0.0625   0.0625   0.0625
     0.0625   0.0625   0.0625   0.0625   0.0625   0.0625   0.0625   0.0625
     0.0625   0.0625   0.0624   0.0624   0.0606   0.0604   0.0021   0.0021
     0.0000   0.0000   0.0000   0.0000   0.0000   0.0000

          k =-0.7412-0.1427-0.2053 (  2206 PWs)   bands (ev):

   -19.7144 -19.7142  -6.9096  -6.8748  -6.0319  -6.0302  -5.4578  -5.4257
    -3.1532  -3.1511  -2.8138  -2.8125  -2.3924  -2.3786   6.0330   6.0560
     6.5491   6.5529   7.0275   7.0693   7.3482   7.3533   7.6636   7.6925
     8.6704   8.6759   8.8090   8.8146   9.5018   9.5042  10.0645  10.0677
    10.6755  10.6796  10.8694  10.8767  11.1946  11.2002  12.2679  12.2739
    13.9918  14.0032  17.4253  17.4262  17.8694  17.8720

     occupation numbers 
     0.0625   0.0625   0.0625   0.0625   0.0625   0.0625   0.0625   0.0625
     0.0625   0.0625   0.0625   0.0625   0.0625   0.0625   0.0625   0.0625
     0.0625   0.0625   0.0625   0.0625   0.0625   0.0625   0.0625   0.0625
     0.0625   0.0625   0.0625   0.0625   0.0625   0.0625   0.0625   0.0625
     0.0625   0.0625   0.0624   0.0624   0.0607   0.0606   0.0021   0.0020
     0.0000   0.0000   0.0000   0.0000   0.0000   0.0000

     the Fermi energy is    11.7407 ev

!    total energy              =    -538.01613141 Ry
     Harris-Foulkes estimate   =    -538.01611712 Ry
     estimated scf accuracy    <          7.3E-09 Ry

     The total energy is the sum of the following terms:

     one-electron contribution =     -32.90415736 Ry
     hartree contribution      =      83.65645969 Ry
     xc contribution           =    -199.60694776 Ry
     ewald contribution        =    -389.44315552 Ry
     Hubbard energy            =       0.29503527 Ry
     smearing contrib. (-TS)   =      -0.01336573 Ry

     convergence has been achieved in  12 iterations

     init_run     :      7.07s CPU      7.27s WALL (       1 calls)
     electrons    :    469.27s CPU    488.23s WALL (       1 calls)

     Called by init_run:
     wfcinit      :      0.00s CPU      0.00s WALL (       1 calls)
     potinit      :      0.29s CPU      0.37s WALL (       1 calls)

     Called by electrons:
     c_bands      :    361.35s CPU    375.88s WALL (      12 calls)
     sum_band     :     78.44s CPU     81.24s WALL (      12 calls)
     v_of_rho     :      3.80s CPU      3.91s WALL (      13 calls)
     v_h          :      0.19s CPU      0.19s WALL (      13 calls)
     v_xc         :      3.61s CPU      3.72s WALL (      13 calls)
     newd         :     26.60s CPU     26.81s WALL (      13 calls)
     mix_rho      :      0.42s CPU      0.43s WALL (      12 calls)

     Called by c_bands:
     init_us_2    :      3.45s CPU      3.46s WALL (     864 calls)
     cegterg      :    351.86s CPU    365.67s WALL (     432 calls)

     Called by sum_band:
     sum_band:bec :      0.33s CPU      0.33s WALL (     432 calls)
     addusdens    :     16.51s CPU     16.59s WALL (      12 calls)

     Called by *egterg:
     h_psi        :    258.57s CPU    268.92s WALL (    1749 calls)
     s_psi        :     14.47s CPU     14.54s WALL (    1749 calls)
     g_psi        :      1.02s CPU      1.05s WALL (    1317 calls)
     cdiaghg      :     24.45s CPU     25.25s WALL (    1713 calls)
     cegterg:over :     19.49s CPU     20.62s WALL (    1317 calls)
     cegterg:upda :     11.44s CPU     11.48s WALL (    1317 calls)
     cegterg:last :      8.41s CPU      8.44s WALL (     496 calls)

     Called by h_psi:
     h_psi:vloc   :    206.95s CPU    216.31s WALL (    1749 calls)
     h_psi:vnl    :     32.10s CPU     32.60s WALL (    1749 calls)
     add_vuspsi   :     14.71s CPU     14.79s WALL (    1749 calls)
     vhpsi        :     18.86s CPU     19.35s WALL (    1749 calls)

     General routines
     calbec       :     37.62s CPU     38.57s WALL (    4362 calls)
     fft          :      4.76s CPU      4.96s WALL (     203 calls)
     ffts         :      0.07s CPU      0.09s WALL (      25 calls)
     fftw         :    206.36s CPU    217.54s WALL (  120160 calls)
     interpolate  :      0.39s CPU      0.43s WALL (      25 calls)
     davcio       :      0.02s CPU      1.21s WALL (     900 calls)

     Parallel routines
     fft_scatter  :     85.77s CPU     96.09s WALL (  120388 calls)
     Hubbard U routines
     new_ns       :      3.55s CPU      4.15s WALL (      12 calls)
     vhpsi        :     18.86s CPU     19.35s WALL (    1749 calls)

     PWSCF        :  7m56.76s CPU     8m16.09s WALL


   This run was terminated on:  15:56: 7  11Nov2012            

=------------------------------------------------------------------------------=
