   JOB DONE.
=------------------------------------------------------------------------------=

     Program PWSCF v.5.0.1 starts on 11Nov2012 at 15: 3: 0 

     This program is part of the open-source Quantum ESPRESSO suite
     for quantum simulation of materials; please cite
         "P. Giannozzi et al., J. Phys.:Condens. Matter 21 395502 (2009);
          URL http://www.quantum-espresso.org", 
     in publications or presentations arising from this work. More details at
     http://www.quantum-espresso.org/quote.php

     Parallel version (MPI), running on     2 processors
     R & G space division:  proc/pool =    2

     Current dimensions of program PWSCF are:
     Max number of different atomic species (ntypx) = 10
     Max number of k-points (npk) =  40000
     Max angular momentum in pseudopotentials (lmaxx) =  3
     Reading input from CoLaO_U300_a-10.in
               file Co.pbe-nd-rrkjus.UPF: wavefunction(s)  4S 3D renormalized
               file O.pbe-rrkjus.UPF: wavefunction(s)  2S renormalized
               file O.pbe-rrkjus.UPF: wavefunction(s)  2S renormalized

     Subspace diagonalization in iterative solution of the eigenvalue problem:
     a serial algorithm will be used


     Parallelization info
     --------------------
     sticks:   dense  smooth     PW     G-vecs:    dense   smooth      PW
     Min        1112     444    131                34808     8786    1448
     Max        1113     445    132                34809     8787    1449
     Sum        2225     889    263                69617    17573    2897


     Title: 
     GGA + U, U = 3.000, alpha = -0.100                                         


     bravais-lattice index     =            5
     lattice parameter (alat)  =      10.3292  a.u.
     unit-cell volume          =     793.0599 (a.u.)^3
     number of atoms/cell      =           10
     number of atomic types    =            4
     number of electrons       =        76.00
     number of Kohn-Sham states=           46
     kinetic-energy cutoff     =      30.0000  Ry
     charge density cutoff     =     300.0000  Ry
     convergence threshold     =      1.0E-08
     mixing beta               =       0.2000
     number of iterations used =            8  plain     mixing
     Exchange-correlation      =  SLA  PW   PBE  PBE ( 1 4 3 4 0)
     EXX-fraction              =        0.00

     celldm(1)=  10.329242  celldm(2)=   0.000000  celldm(3)=   0.000000
     celldm(4)=   0.488100  celldm(5)=   0.000000  celldm(6)=   0.000000

     crystal axes: (cart. coord. in units of alat)
               a(1) = (   0.505915  -0.292090   0.811624 )  
               a(2) = (   0.000000   0.584180   0.811624 )  
               a(3) = (  -0.505915  -0.292090   0.811624 )  

     reciprocal axes: (cart. coord. in units 2 pi/alat)
               b(1) = (  0.988308 -0.570600  0.410699 )  
               b(2) = (  0.000000  1.141200  0.410699 )  
               b(3) = ( -0.988308 -0.570600  0.410699 )  


     PseudoPot. # 1 for Co read from file:
     /home/mcurnan/dft-course/Project1/example_LaCoO3/Co.pbe-nd-rrkjus.UPF
     MD5 check sum: 3e47a84addf5e975e0edeaeee2a73f59
     Pseudo is Ultrasoft + core correction, Zval =  9.0
     Generated by new atomic code, or converted to UPF format
     Using radial grid of  961 points,  6 beta functions with: 
                l(1) =   0
                l(2) =   0
                l(3) =   1
                l(4) =   1
                l(5) =   2
                l(6) =   2
     Q(r) pseudized with 0 coefficients 


     PseudoPot. # 2 for La read from file:
     /home/mcurnan/dft-course/Project1/example_LaCoO3/La.pbe-nsp-van.UPF
     MD5 check sum: b2f11743f52dde65f77d1302becd7929
     Pseudo is Ultrasoft + core correction, Zval = 11.0
     Generated by new atomic code, or converted to UPF format
     Using radial grid of  907 points,  6 beta functions with: 
                l(1) =   0
                l(2) =   0
                l(3) =   1
                l(4) =   1
                l(5) =   2
                l(6) =   2
     Q(r) pseudized with  6 coefficients,  rinner =    1.200   1.200   1.200
                                                       1.200   1.200

     PseudoPot. # 3 for O  read from file:
     /home/mcurnan/dft-course/Project1/example_LaCoO3/O.pbe-rrkjus.UPF
     MD5 check sum: 390ba29e75625707450f3bd3f0eb6be9
     Pseudo is Ultrasoft, Zval =  6.0
     Generated by new atomic code, or converted to UPF format
     Using radial grid of 1269 points,  4 beta functions with: 
                l(1) =   0
                l(2) =   0
                l(3) =   1
                l(4) =   1
     Q(r) pseudized with 0 coefficients 


     PseudoPot. # 4 for O  read from file:
     /home/mcurnan/dft-course/Project1/example_LaCoO3/O.pbe-rrkjus.UPF
     MD5 check sum: 390ba29e75625707450f3bd3f0eb6be9
     Pseudo is Ultrasoft, Zval =  6.0
     Generated by new atomic code, or converted to UPF format
     Using radial grid of 1269 points,  4 beta functions with: 
                l(1) =   0
                l(2) =   0
                l(3) =   1
                l(4) =   1
     Q(r) pseudized with 0 coefficients 


     atomic species   valence    mass     pseudopotential
        Co1            9.00     1.00000     Co( 1.00)
        La1           11.00     1.00000     La( 1.00)
        O1             6.00     1.00000     O ( 1.00)
        O2             6.00     1.00000     O ( 1.00)
 -----
     simplified LDA+U calculation, Hubbard_lmax = 2
     atomic species  L   Hubbard U  Hubbard alpha
        Co1          2    3.000000    0.000000
        La1          2    0.000000    0.000000
        O1           1    0.000000   -0.100000
        O2           1    0.000000    0.000000
 -----

     No symmetry found


                                    s                        frac. trans.

      isym =  1     identity                                     

 cryst.   s( 1) = (     1          0          0      )
                  (     0          1          0      )
                  (     0          0          1      )

 cart.    s( 1) = (  1.0000000  0.0000000  0.0000000 )
                  (  0.0000000  1.0000000  0.0000000 )
                  (  0.0000000  0.0000000  1.0000000 )


     point group C_1 (1)    
     there are  1 classes
     the character table:

       E    
A      1.00

     the symmetry operations in each class:
     E        1

   Cartesian axes

     site n.     atom                  positions (alat units)
         1           Co1 tau(   1) = (   0.2228050  -0.1992639   1.0141240  )
         2           Co1 tau(   2) = (  -0.2831100   0.0928263   1.4199360  )
         3           La1 tau(   3) = (  -0.2831100   0.0928263   0.8112181  )
         4           La1 tau(   4) = (   0.2228050   0.3849164   1.2170300  )
         5           O1  tau(   5) = (   0.0000000   0.0000000   0.0000000  )
         6           O2  tau(   6) = (   0.0008601   0.1861491   1.6232478  )
         7           O2  tau(   7) = (   0.1616398   0.0923297   0.8116239  )
         8           O2  tau(   8) = (  -0.0603051  -0.1064377   1.2166242  )
         9           O2  tau(   9) = (   0.4447499  -0.0004966   1.2166242  )
        10           O2  tau(  10) = (  -0.2219449   0.3854130   1.2166242  )

   Crystallographic axes

     site n.     atom                  positions (cryst. coord.)
         1           Co1 tau(   1) = (  0.7504000  0.1891000  0.3100000  )
         2           Co1 tau(   2) = (  0.2504000  0.6891000  0.8100000  )
         3           La1 tau(   3) = (  0.0004000  0.4391000  0.5600000  )
         4           La1 tau(   4) = (  0.5004000  0.9391000  0.0600000  )
         5           O1  tau(   5) = (  0.0000000  0.0000000  0.0000000  )
         6           O2  tau(   6) = (  0.5613000  0.8791000  0.5596000  )
         7           O2  tau(   7) = (  0.4404000  0.4387000  0.1209000  )
         8           O2  tau(   8) = (  0.5008000  0.3782000  0.6200000  )
         9           O2  tau(   9) = (  0.9395000  0.4991000  0.0604000  )
        10           O2  tau(  10) = (  0.0604000  0.9395000  0.4991000  )

     number of k points=    36  gaussian smearing, width (Ry)=  0.0300
                       cart. coord. in units 2pi/alat
        k(    1) = (   0.0000000   0.0000000   0.0000000), wk =   0.0312500
        k(    2) = (  -0.2470771  -0.1426500   0.1026748), wk =   0.0625000
        k(    3) = (   0.4941541   0.2853000  -0.2053496), wk =   0.0312500
        k(    4) = (  -0.2470771   0.1426500   0.2053496), wk =   0.0625000
        k(    5) = (   0.4941541   0.5706001  -0.1026748), wk =   0.0625000
        k(    6) = (   0.2470771   0.4279500   0.0000000), wk =   0.0625000
        k(    7) = (   0.4941541  -0.2853000  -0.4106993), wk =   0.0312500
        k(    8) = (   0.0000000   0.0000000   0.3080244), wk =   0.0625000
        k(    9) = (   0.7412312   0.4279500   0.0000000), wk =   0.0625000
        k(   10) = (   0.4941541   0.2853000   0.1026748), wk =   0.0625000
        k(   11) = (   0.7412312  -0.4279500  -0.3080244), wk =   0.0625000
        k(   12) = (   0.4941541  -0.5706001  -0.2053496), wk =   0.0625000
        k(   13) = (   0.0000000   0.0000000  -0.6160489), wk =   0.0312500
        k(   14) = (  -0.2470771   0.1426500  -0.1026748), wk =   0.0625000
        k(   15) = (   0.0000000   0.2853000   0.1026748), wk =   0.0625000
        k(   16) = (   0.4941541  -0.2853000   0.2053496), wk =   0.0312500
        k(   17) = (   0.0000000  -0.5706001  -0.2053496), wk =   0.0312500
        k(   18) = (  -0.2470771  -0.1426500  -0.2053496), wk =   0.0625000
        k(   19) = (   0.0000000  -0.2853000   0.2053496), wk =   0.0625000
        k(   20) = (   0.4941541  -0.5706001   0.1026748), wk =   0.0625000
        k(   21) = (  -0.7412312   0.1426500  -0.1026748), wk =   0.0625000
        k(   22) = (   0.2470771  -0.7132501  -0.1026748), wk =   0.0625000
        k(   23) = (  -0.7412312  -0.1426500   0.1026748), wk =   0.0625000
        k(   24) = (   0.2470771   0.7132501   0.1026748), wk =   0.0625000
        k(   25) = (   0.2470771  -0.4279500   0.0000000), wk =   0.0625000
        k(   26) = (  -0.4941541   0.0000000   0.0000000), wk =   0.0625000
        k(   27) = (   0.4941541   0.2853000   0.4106993), wk =   0.0312500
        k(   28) = (   0.0000000   0.5706001  -0.4106993), wk =   0.0312500
        k(   29) = (   0.7412312  -0.4279500   0.0000000), wk =   0.0625000
        k(   30) = (   0.0000000  -0.8559001   0.0000000), wk =   0.0625000
        k(   31) = (   0.4941541  -0.2853000  -0.1026748), wk =   0.0625000
        k(   32) = (   0.0000000  -0.5706001   0.1026748), wk =   0.0625000
        k(   33) = (   0.7412312   0.4279500   0.3080244), wk =   0.0625000
        k(   34) = (   0.0000000   0.8559001  -0.3080244), wk =   0.0625000
        k(   35) = (   0.2470771   0.7132501  -0.2053496), wk =   0.0625000
        k(   36) = (  -0.7412312  -0.1426500  -0.2053496), wk =   0.0625000

                       cryst. coord.
        k(    1) = (   0.0000000   0.0000000   0.0000000), wk =   0.0312500
        k(    2) = (   0.0000000   0.0000000   0.2500000), wk =   0.0625000
        k(    3) = (   0.0000000   0.0000000  -0.5000000), wk =   0.0312500
        k(    4) = (   0.0000000   0.2500000   0.2500000), wk =   0.0625000
        k(    5) = (   0.0000000   0.2500000  -0.5000000), wk =   0.0625000
        k(    6) = (   0.0000000   0.2500000  -0.2500000), wk =   0.0625000
        k(    7) = (   0.0000000  -0.5000000  -0.5000000), wk =   0.0312500
        k(    8) = (   0.2500000   0.2500000   0.2500000), wk =   0.0625000
        k(    9) = (   0.2500000   0.2500000  -0.5000000), wk =   0.0625000
        k(   10) = (   0.2500000   0.2500000  -0.2500000), wk =   0.0625000
        k(   11) = (   0.2500000  -0.5000000  -0.5000000), wk =   0.0625000
        k(   12) = (   0.2500000  -0.5000000  -0.2500000), wk =   0.0625000
        k(   13) = (  -0.5000000  -0.5000000  -0.5000000), wk =   0.0312500
        k(   14) = (  -0.2500000   0.0000000   0.0000000), wk =   0.0625000
        k(   15) = (   0.0000000   0.2500000   0.0000000), wk =   0.0625000
        k(   16) = (   0.5000000   0.0000000   0.0000000), wk =   0.0312500
        k(   17) = (   0.0000000  -0.5000000   0.0000000), wk =   0.0312500
        k(   18) = (  -0.2500000  -0.2500000   0.0000000), wk =   0.0625000
        k(   19) = (   0.2500000   0.0000000   0.2500000), wk =   0.0625000
        k(   20) = (   0.5000000  -0.2500000   0.0000000), wk =   0.0625000
        k(   21) = (  -0.5000000   0.0000000   0.2500000), wk =   0.0625000
        k(   22) = (   0.2500000  -0.5000000   0.0000000), wk =   0.0625000
        k(   23) = (  -0.2500000   0.0000000   0.5000000), wk =   0.0625000
        k(   24) = (   0.0000000   0.5000000  -0.2500000), wk =   0.0625000
        k(   25) = (   0.2500000  -0.2500000   0.0000000), wk =   0.0625000
        k(   26) = (  -0.2500000   0.0000000   0.2500000), wk =   0.0625000
        k(   27) = (   0.5000000   0.5000000   0.0000000), wk =   0.0312500
        k(   28) = (  -0.5000000   0.0000000  -0.5000000), wk =   0.0312500
        k(   29) = (   0.5000000  -0.2500000  -0.2500000), wk =   0.0625000
        k(   30) = (   0.2500000  -0.5000000   0.2500000), wk =   0.0625000
        k(   31) = (   0.2500000  -0.2500000  -0.2500000), wk =   0.0625000
        k(   32) = (   0.2500000  -0.2500000   0.2500000), wk =   0.0625000
        k(   33) = (   0.5000000   0.5000000  -0.2500000), wk =   0.0625000
        k(   34) = (  -0.5000000   0.2500000  -0.5000000), wk =   0.0625000
        k(   35) = (  -0.2500000   0.2500000  -0.5000000), wk =   0.0625000
        k(   36) = (  -0.5000000  -0.2500000   0.2500000), wk =   0.0625000

     Dense  grid:    69617 G-vectors     FFT dimensions: (  60,  60,  60)

     Smooth grid:    17573 G-vectors     FFT dimensions: (  40,  40,  40)

     Largest allocated arrays     est. size (Mb)     dimensions
        Kohn-Sham Wavefunctions         0.79 Mb     (   1119,   46)
        Atomic wavefunctions            1.06 Mb     (   1119,   62)
        NL pseudopotentials             2.05 Mb     (   1119,  120)
        Each V/rho on FFT grid          1.65 Mb     ( 108000)
        Each G-vector array             0.27 Mb     (  34808)
        G-vector shells                 0.04 Mb     (   4682)
     Largest temporary arrays     est. size (Mb)     dimensions
        Auxiliary wavefunctions         3.14 Mb     (   1119,  184)
        Each subspace H/S matrix        0.52 Mb     ( 184, 184)
        Each <psi_i|beta_j> matrix      0.08 Mb     (    120,   46)
        Arrays for rho mixing          13.18 Mb     ( 108000,   8)

     Check: negative/imaginary core charge=   -0.000028    0.000000

     The initial density is read from file :
     /home/mcurnan/dft-course/Project1/example_LaCoO3/300/O/alpha/CoLaO_U300.save/charge-density.dat

 --- in v_hubbard ---
Hubbard energy    0.2471
 -------
     Number of +U iterations with fixed ns =  0
     Starting occupations:
 --- enter write_ns ---
 LDA+U parameters:
U( 1)     =  3.00000000
alpha( 1) =  0.00000000
U( 2)     =  0.00000000
alpha( 2) =  0.00000000
U( 3)     =  0.00000000
alpha( 3) = -0.10000000
U( 4)     =  0.00000000
alpha( 4) =  0.00000000
atom    1   Tr[ns(na)] =   8.02205
    eigenvalues: 
  0.596  0.596  0.938  0.941  0.941
    eigenvectors:
  0.000  0.000  1.000  0.000  0.000
  0.057  0.598  0.000  0.178  0.167
  0.598  0.057  0.000  0.167  0.178
  0.210  0.135  0.000  0.095  0.560
  0.135  0.210  0.000  0.560  0.095
    occupations:
  0.938  0.000  0.000  0.000  0.000
  0.000  0.715  0.000 -0.060  0.152
  0.000  0.000  0.715  0.152  0.060
  0.000 -0.060  0.152  0.822  0.000
  0.000  0.152  0.060  0.000  0.822
atom    2   Tr[ns(na)] =   8.02142
    eigenvalues: 
  0.595  0.595  0.938  0.941  0.941
    eigenvectors:
  0.000  0.000  1.000  0.000  0.000
  0.332  0.323  0.000  0.023  0.322
  0.323  0.332  0.000  0.322  0.023
  0.288  0.057  0.000  0.647  0.008
  0.057  0.288  0.000  0.008  0.647
    occupations:
  0.938  0.000  0.000  0.000  0.000
  0.000  0.715  0.000  0.060  0.153
  0.000  0.000  0.715  0.153 -0.060
  0.000  0.060  0.153  0.822  0.000
  0.000  0.153 -0.060  0.000  0.822
atom    3   Tr[ns(na)] =   3.80282
    eigenvalues: 
  0.355  0.355  0.384  0.403  0.403
    eigenvectors:
  0.000  0.000  1.000  0.000  0.000
  0.065  0.856  0.000  0.058  0.021
  0.856  0.065  0.000  0.021  0.058
  0.073  0.006  0.000  0.250  0.670
  0.006  0.073  0.000  0.670  0.250
    occupations:
  0.384  0.000  0.000  0.000  0.000
  0.000  0.359  0.000  0.000  0.013
  0.000  0.000  0.359  0.013  0.000
  0.000  0.000  0.013  0.399  0.000
  0.000  0.013  0.000  0.000  0.399
atom    4   Tr[ns(na)] =   3.80282
    eigenvalues: 
  0.355  0.355  0.384  0.403  0.403
    eigenvectors:
  0.000  0.000  1.000  0.000  0.000
  0.729  0.192  0.000  0.048  0.032
  0.192  0.729  0.000  0.032  0.048
  0.017  0.062  0.000  0.359  0.562
  0.062  0.017  0.000  0.562  0.359
    occupations:
  0.384  0.000  0.000  0.000  0.000
  0.000  0.359  0.000  0.000  0.013
  0.000  0.000  0.359  0.013  0.000
  0.000  0.000  0.013  0.399  0.000
  0.000  0.013  0.000  0.000  0.399
atom    5   Tr[ns(na)] =   5.43357
    eigenvalues: 
  0.846  0.929  0.941
    eigenvectors:
  0.340  0.000  0.660
  0.496  0.250  0.255
  0.164  0.750  0.086
    occupations:
  0.909 -0.039  0.022
 -0.039  0.891  0.022
  0.022  0.022  0.917
atom    6   Tr[ns(na)] =   5.43358
    eigenvalues: 
  0.846  0.929  0.941
    eigenvectors:
  0.340  0.000  0.660
  0.494  0.250  0.256
  0.166  0.750  0.085
    occupations:
  0.909  0.039  0.022
  0.039  0.891 -0.022
  0.022 -0.022  0.917
atom    7   Tr[ns(na)] =   5.43358
    eigenvalues: 
  0.846  0.929  0.941
    eigenvectors:
  0.340  0.000  0.660
  0.000  1.000  0.000
  0.660  0.000  0.340
    occupations:
  0.909  0.000 -0.045
  0.000  0.929  0.000
 -0.045  0.000  0.879
atom    8   Tr[ns(na)] =   5.43357
    eigenvalues: 
  0.846  0.929  0.941
    eigenvectors:
  0.340  0.000  0.660
  0.496  0.250  0.255
  0.164  0.750  0.086
    occupations:
  0.909 -0.039  0.022
 -0.039  0.891  0.022
  0.022  0.022  0.917
atom    9   Tr[ns(na)] =   5.43358
    eigenvalues: 
  0.846  0.929  0.941
    eigenvectors:
  0.340  0.000  0.660
  0.494  0.250  0.256
  0.166  0.750  0.085
    occupations:
  0.909  0.039  0.022
  0.039  0.891 -0.022
  0.022 -0.022  0.917
atom   10   Tr[ns(na)] =   5.43358
    eigenvalues: 
  0.846  0.929  0.941
    eigenvectors:
  0.340  0.000  0.660
  0.000  1.000  0.000
  0.660  0.000  0.340
    occupations:
  0.909  0.000 -0.045
  0.000  0.929  0.000
 -0.045  0.000  0.879
N of occupied +U levels =  56.2505796
 --- exit write_ns ---
 LDA+U Projector read from file 
     Starting wfc from file

     total cpu time spent up to now is        7.6 secs

     per-process dynamical memory:    62.8 Mb

     Self-consistent Calculation

     iteration #  1     ecut=    30.00 Ry     beta=0.20
     Davidson diagonalization with overlap
     c_bands:  1 eigenvalues not converged
     c_bands:  1 eigenvalues not converged
     c_bands:  1 eigenvalues not converged
     c_bands:  1 eigenvalues not converged
     c_bands:  1 eigenvalues not converged
     c_bands:  1 eigenvalues not converged
     c_bands:  1 eigenvalues not converged
     c_bands:  1 eigenvalues not converged
     c_bands:  1 eigenvalues not converged
     c_bands:  1 eigenvalues not converged
     c_bands:  1 eigenvalues not converged
     c_bands:  1 eigenvalues not converged
     c_bands:  1 eigenvalues not converged
     c_bands:  1 eigenvalues not converged
     c_bands:  1 eigenvalues not converged
     c_bands:  1 eigenvalues not converged
     c_bands:  1 eigenvalues not converged
     c_bands:  1 eigenvalues not converged
     c_bands:  1 eigenvalues not converged
     c_bands:  1 eigenvalues not converged
     c_bands:  1 eigenvalues not converged
     ethr =  1.00E-10,  avg # of iterations = 17.0
 --- enter write_ns ---
 LDA+U parameters:
U( 1)     =  3.00000000
alpha( 1) =  0.00000000
U( 2)     =  0.00000000
alpha( 2) =  0.00000000
U( 3)     =  0.00000000
alpha( 3) = -0.10000000
U( 4)     =  0.00000000
alpha( 4) =  0.00000000
atom    1   Tr[ns(na)] =   8.14971
    eigenvalues: 
  0.561  0.563  0.983  0.983  0.985
    eigenvectors:
  0.000  0.000  0.013  0.001  0.985
  0.555  0.100  0.185  0.156  0.004
  0.100  0.554  0.156  0.189  0.001
  0.167  0.179  0.517  0.132  0.005
  0.179  0.167  0.128  0.522  0.005
    occupations:
  0.985  0.000  0.000  0.000  0.000
  0.000  0.707  0.000 -0.072  0.187
  0.000  0.000  0.708  0.187  0.071
  0.000 -0.072  0.187  0.837  0.000
  0.000  0.187  0.071  0.000  0.837
atom    2   Tr[ns(na)] =   8.14228
    eigenvalues: 
  0.559  0.561  0.983  0.983  0.985
    eigenvectors:
  0.000  0.000  0.014  0.002  0.984
  0.417  0.236  0.311  0.032  0.004
  0.237  0.418  0.030  0.314  0.002
  0.027  0.319  0.002  0.651  0.001
  0.319  0.027  0.642  0.002  0.010
    occupations:
  0.985  0.000  0.000  0.000  0.000
  0.000  0.706  0.001  0.071  0.188
  0.000  0.001  0.706  0.188 -0.072
  0.000  0.071  0.188  0.837  0.000
  0.000  0.188 -0.072  0.000  0.836
atom    3   Tr[ns(na)] =   3.79324
    eigenvalues: 
  0.356  0.356  0.382  0.401  0.402
    eigenvectors:
  0.000  0.000  1.000  0.000  0.000
  0.229  0.688  0.000  0.064  0.020
  0.689  0.228  0.000  0.020  0.063
  0.062  0.022  0.000  0.226  0.691
  0.021  0.062  0.000  0.690  0.226
    occupations:
  0.382  0.000  0.000  0.000  0.000
  0.000  0.360  0.000  0.000  0.013
  0.000  0.000  0.359  0.013  0.000
  0.000  0.000  0.013  0.398  0.000
  0.000  0.013  0.000  0.000  0.398
atom    4   Tr[ns(na)] =   3.79336
    eigenvalues: 
  0.355  0.356  0.382  0.402  0.402
    eigenvectors:
  0.000  0.000  1.000  0.000  0.000
  0.689  0.232  0.000  0.059  0.020
  0.233  0.686  0.000  0.019  0.062
  0.021  0.061  0.000  0.234  0.685
  0.058  0.021  0.000  0.688  0.233
    occupations:
  0.382  0.000  0.000  0.000  0.000
  0.000  0.359  0.000  0.000  0.012
  0.000  0.000  0.359  0.013  0.000
  0.000  0.000  0.013  0.398  0.000
  0.000  0.012  0.000  0.000  0.398
atom    5   Tr[ns(na)] =   5.41896
    eigenvalues: 
  0.836  0.928  0.946
    eigenvectors:
  0.340  0.000  0.660
  0.495  0.250  0.255
  0.165  0.750  0.085
    occupations:
  0.908 -0.045  0.026
 -0.045  0.887  0.024
  0.026  0.024  0.914
atom    6   Tr[ns(na)] =   5.40202
    eigenvalues: 
  0.832  0.925  0.944
    eigenvectors:
  0.341  0.000  0.659
  0.494  0.249  0.257
  0.165  0.751  0.084
    occupations:
  0.906  0.046  0.026
  0.046  0.884 -0.024
  0.026 -0.024  0.912
atom    7   Tr[ns(na)] =   5.40203
    eigenvalues: 
  0.832  0.925  0.944
    eigenvectors:
  0.341  0.000  0.659
  0.000  1.000  0.000
  0.659  0.000  0.341
    occupations:
  0.906  0.000 -0.053
  0.000  0.925  0.000
 -0.053  0.000  0.870
atom    8   Tr[ns(na)] =   5.40202
    eigenvalues: 
  0.832  0.925  0.944
    eigenvectors:
  0.341  0.000  0.659
  0.495  0.250  0.255
  0.165  0.750  0.086
    occupations:
  0.906 -0.046  0.027
 -0.046  0.884  0.024
  0.027  0.024  0.912
atom    9   Tr[ns(na)] =   5.40205
    eigenvalues: 
  0.832  0.925  0.944
    eigenvectors:
  0.341  0.000  0.659
  0.494  0.249  0.257
  0.165  0.751  0.084
    occupations:
  0.906  0.046  0.026
  0.046  0.884 -0.024
  0.026 -0.024  0.912
atom   10   Tr[ns(na)] =   5.40206
    eigenvalues: 
  0.832  0.925  0.944
    eigenvectors:
  0.341  0.000  0.659
  0.000  1.000  0.000
  0.659  0.000  0.341
    occupations:
  0.906  0.000 -0.053
  0.000  0.925  0.000
 -0.053  0.000  0.870
N of occupied +U levels =  56.3077237
 --- exit write_ns ---
 --- in v_hubbard ---
Hubbard energy    0.2380
 -------

     total cpu time spent up to now is      103.5 secs

     total energy              =    -538.10947721 Ry
     Harris-Foulkes estimate   =    -538.11322541 Ry
     estimated scf accuracy    <       0.02251490 Ry

     iteration #  2     ecut=    30.00 Ry     beta=0.20
     Davidson diagonalization with overlap
     ethr =  2.96E-05,  avg # of iterations =  1.3
 --- enter write_ns ---
 LDA+U parameters:
U( 1)     =  3.00000000
alpha( 1) =  0.00000000
U( 2)     =  0.00000000
alpha( 2) =  0.00000000
U( 3)     =  0.00000000
alpha( 3) = -0.10000000
U( 4)     =  0.00000000
alpha( 4) =  0.00000000
atom    1   Tr[ns(na)] =   8.02930
    eigenvalues: 
  0.531  0.532  0.983  0.983  0.986
    eigenvectors:
  0.000  0.000  0.002  0.000  0.997
  0.555  0.101  0.191  0.153  0.001
  0.100  0.555  0.153  0.192  0.000
  0.168  0.176  0.519  0.135  0.001
  0.176  0.168  0.134  0.520  0.001
    occupations:
  0.986  0.000  0.000  0.000  0.000
  0.000  0.687  0.000 -0.078  0.200
  0.000  0.000  0.687  0.200  0.078
  0.000 -0.078  0.200  0.827  0.000
  0.000  0.200  0.078  0.000  0.828
atom    2   Tr[ns(na)] =   8.03621
    eigenvalues: 
  0.531  0.532  0.985  0.985  0.987
    eigenvectors:
  0.000  0.000  0.002  0.000  0.998
  0.419  0.236  0.313  0.031  0.001
  0.237  0.419  0.031  0.313  0.000
  0.025  0.319  0.003  0.653  0.000
  0.319  0.025  0.651  0.003  0.001
    occupations:
  0.987  0.000  0.000  0.000  0.000
  0.000  0.687  0.000  0.078  0.201
  0.000  0.000  0.687  0.201 -0.078
  0.000  0.078  0.201  0.829  0.000
  0.000  0.201 -0.078  0.000  0.828
atom    3   Tr[ns(na)] =   3.79098
    eigenvalues: 
  0.355  0.355  0.382  0.402  0.402
    eigenvectors:
  0.000  0.000  1.000  0.000  0.000
  0.226  0.694  0.000  0.063  0.018
  0.694  0.226  0.000  0.018  0.063
  0.060  0.020  0.000  0.207  0.712
  0.020  0.060  0.000  0.712  0.207
    occupations:
  0.382  0.000  0.000  0.000  0.000
  0.000  0.359  0.000  0.000  0.013
  0.000  0.000  0.359  0.013  0.000
  0.000  0.000  0.013  0.398  0.000
  0.000  0.013  0.000  0.000  0.398
atom    4   Tr[ns(na)] =   3.79111
    eigenvalues: 
  0.355  0.355  0.382  0.402  0.402
    eigenvectors:
  0.000  0.000  1.000  0.000  0.000
  0.683  0.238  0.000  0.060  0.019
  0.238  0.682  0.000  0.019  0.061
  0.021  0.059  0.000  0.225  0.695
  0.058  0.021  0.000  0.696  0.225
    occupations:
  0.382  0.000  0.000  0.000  0.000
  0.000  0.359  0.000  0.000  0.013
  0.000  0.000  0.359  0.013  0.000
  0.000  0.000  0.013  0.398  0.000
  0.000  0.013  0.000  0.000  0.398
atom    5   Tr[ns(na)] =   5.44583
    eigenvalues: 
  0.844  0.931  0.947
    eigenvectors:
  0.337  0.000  0.663
  0.496  0.251  0.252
  0.167  0.749  0.085
    occupations:
  0.912 -0.042  0.024
 -0.042  0.892  0.023
  0.024  0.023  0.918
atom    6   Tr[ns(na)] =   5.43944
    eigenvalues: 
  0.843  0.930  0.947
    eigenvectors:
  0.337  0.000  0.663
  0.498  0.248  0.254
  0.165  0.752  0.083
    occupations:
  0.912  0.043  0.024
  0.043  0.891 -0.023
  0.024 -0.023  0.917
atom    7   Tr[ns(na)] =   5.43944
    eigenvalues: 
  0.843  0.930  0.947
    eigenvectors:
  0.337  0.000  0.663
  0.000  1.000  0.000
  0.663  0.000  0.337
    occupations:
  0.912  0.000 -0.049
  0.000  0.930  0.000
 -0.049  0.000  0.878
atom    8   Tr[ns(na)] =   5.44016
    eigenvalues: 
  0.843  0.931  0.947
    eigenvectors:
  0.337  0.000  0.663
  0.496  0.251  0.252
  0.167  0.749  0.085
    occupations:
  0.912 -0.042  0.025
 -0.042  0.891  0.023
  0.025  0.023  0.917
atom    9   Tr[ns(na)] =   5.43930
    eigenvalues: 
  0.843  0.930  0.947
    eigenvectors:
  0.337  0.000  0.663
  0.497  0.248  0.254
  0.165  0.752  0.083
    occupations:
  0.911  0.043  0.024
  0.043  0.891 -0.023
  0.024 -0.023  0.917
atom   10   Tr[ns(na)] =   5.43930
    eigenvalues: 
  0.843  0.930  0.947
    eigenvectors:
  0.337  0.000  0.663
  0.000  1.000  0.000
  0.663  0.000  0.337
    occupations:
  0.911  0.000 -0.049
  0.000  0.930  0.000
 -0.049  0.000  0.878
N of occupied +U levels =  56.2910562
 --- exit write_ns ---
 --- in v_hubbard ---
Hubbard energy    0.2336
 -------

     total cpu time spent up to now is      135.1 secs

     total energy              =    -538.11309311 Ry
     Harris-Foulkes estimate   =    -538.11299526 Ry
     estimated scf accuracy    <       0.01411164 Ry

     iteration #  3     ecut=    30.00 Ry     beta=0.20
     Davidson diagonalization with overlap
     ethr =  1.86E-05,  avg # of iterations =  1.0
 --- enter write_ns ---
 LDA+U parameters:
U( 1)     =  3.00000000
alpha( 1) =  0.00000000
U( 2)     =  0.00000000
alpha( 2) =  0.00000000
U( 3)     =  0.00000000
alpha( 3) = -0.10000000
U( 4)     =  0.00000000
alpha( 4) =  0.00000000
atom    1   Tr[ns(na)] =   8.06190
    eigenvalues: 
  0.538  0.539  0.984  0.984  0.986
    eigenvectors:
  0.000  0.000  0.002  0.000  0.997
  0.555  0.101  0.191  0.152  0.001
  0.101  0.555  0.152  0.192  0.000
  0.168  0.176  0.519  0.136  0.001
  0.176  0.168  0.135  0.520  0.001
    occupations:
  0.986  0.000  0.000  0.000  0.000
  0.000  0.691  0.000 -0.077  0.197
  0.000  0.000  0.692  0.197  0.077
  0.000 -0.077  0.197  0.831  0.000
  0.000  0.197  0.077  0.000  0.831
atom    2   Tr[ns(na)] =   8.05451
    eigenvalues: 
  0.535  0.536  0.984  0.985  0.987
    eigenvectors:
  0.000  0.000  0.003  0.000  0.997
  0.420  0.236  0.310  0.033  0.001
  0.236  0.420  0.033  0.311  0.000
  0.025  0.319  0.002  0.654  0.000
  0.319  0.026  0.652  0.002  0.002
    occupations:
  0.987  0.000  0.000  0.000  0.000
  0.000  0.690  0.000  0.076  0.199
  0.000  0.000  0.690  0.199 -0.077
  0.000  0.076  0.199  0.830  0.000
  0.000  0.199 -0.077  0.000  0.830
atom    3   Tr[ns(na)] =   3.79140
    eigenvalues: 
  0.355  0.355  0.382  0.402  0.402
    eigenvectors:
  0.000  0.000  1.000  0.000  0.000
  0.227  0.693  0.000  0.064  0.017
  0.693  0.227  0.000  0.017  0.064
  0.060  0.020  0.000  0.198  0.722
  0.020  0.060  0.000  0.722  0.198
    occupations:
  0.382  0.000  0.000  0.000  0.000
  0.000  0.359  0.000  0.000  0.013
  0.000  0.000  0.359  0.013  0.000
  0.000  0.000  0.013  0.398  0.000
  0.000  0.013  0.000  0.000  0.398
atom    4   Tr[ns(na)] =   3.79146
    eigenvalues: 
  0.355  0.355  0.382  0.402  0.402
    eigenvectors:
  0.000  0.000  1.000  0.000  0.000
  0.686  0.235  0.000  0.060  0.019
  0.236  0.685  0.000  0.019  0.061
  0.021  0.059  0.000  0.224  0.696
  0.058  0.021  0.000  0.697  0.223
    occupations:
  0.382  0.000  0.000  0.000  0.000
  0.000  0.359  0.000  0.000  0.012
  0.000  0.000  0.359  0.013  0.000
  0.000  0.000  0.013  0.398  0.000
  0.000  0.012  0.000  0.000  0.398
atom    5   Tr[ns(na)] =   5.43774
    eigenvalues: 
  0.842  0.930  0.947
    eigenvectors:
  0.338  0.000  0.662
  0.497  0.250  0.253
  0.165  0.750  0.085
    occupations:
  0.911 -0.043  0.025
 -0.043  0.890  0.023
  0.025  0.023  0.917
atom    6   Tr[ns(na)] =   5.43150
    eigenvalues: 
  0.840  0.930  0.946
    eigenvectors:
  0.338  0.000  0.662
  0.497  0.249  0.254
  0.166  0.751  0.083
    occupations:
  0.910  0.043  0.025
  0.043  0.889 -0.023
  0.025 -0.023  0.916
atom    7   Tr[ns(na)] =   5.43150
    eigenvalues: 
  0.840  0.930  0.946
    eigenvectors:
  0.338  0.000  0.662
  0.000  1.000  0.000
  0.662  0.000  0.338
    occupations:
  0.910  0.000 -0.050
  0.000  0.930  0.000
 -0.050  0.000  0.876
atom    8   Tr[ns(na)] =   5.43211
    eigenvalues: 
  0.840  0.930  0.946
    eigenvectors:
  0.338  0.000  0.662
  0.497  0.250  0.253
  0.165  0.750  0.085
    occupations:
  0.910 -0.043  0.025
 -0.043  0.889  0.023
  0.025  0.023  0.916
atom    9   Tr[ns(na)] =   5.43141
    eigenvalues: 
  0.840  0.929  0.946
    eigenvectors:
  0.338  0.000  0.662
  0.496  0.250  0.255
  0.166  0.750  0.084
    occupations:
  0.910  0.043  0.025
  0.043  0.889 -0.023
  0.025 -0.023  0.916
atom   10   Tr[ns(na)] =   5.43141
    eigenvalues: 
  0.840  0.929  0.946
    eigenvectors:
  0.338  0.000  0.662
  0.000  1.000  0.000
  0.662  0.000  0.338
    occupations:
  0.910  0.000 -0.050
  0.000  0.929  0.000
 -0.050  0.000  0.876
N of occupied +U levels =  56.2949560
 --- exit write_ns ---
 --- in v_hubbard ---
Hubbard energy    0.2045
 -------

     total cpu time spent up to now is      170.2 secs

     total energy              =    -538.11524968 Ry
     Harris-Foulkes estimate   =    -538.11335806 Ry
     estimated scf accuracy    <       0.00753312 Ry

     iteration #  4     ecut=    30.00 Ry     beta=0.20
     Davidson diagonalization with overlap
     ethr =  9.91E-06,  avg # of iterations =  1.0
 --- enter write_ns ---
 LDA+U parameters:
U( 1)     =  3.00000000
alpha( 1) =  0.00000000
U( 2)     =  0.00000000
alpha( 2) =  0.00000000
U( 3)     =  0.00000000
alpha( 3) = -0.10000000
U( 4)     =  0.00000000
alpha( 4) =  0.00000000
atom    1   Tr[ns(na)] =   8.02742
    eigenvalues: 
  0.529  0.530  0.984  0.984  0.986
    eigenvectors:
  0.000  0.000  0.004  0.000  0.996
  0.556  0.102  0.200  0.140  0.001
  0.102  0.556  0.140  0.202  0.000
  0.167  0.175  0.501  0.155  0.001
  0.175  0.166  0.154  0.503  0.001
    occupations:
  0.986  0.000  0.000  0.000  0.000
  0.000  0.685  0.000 -0.078  0.201
  0.000  0.000  0.685  0.201  0.077
  0.000 -0.078  0.201  0.829  0.000
  0.000  0.201  0.077  0.000  0.829
atom    2   Tr[ns(na)] =   8.09527
    eigenvalues: 
  0.539  0.540  0.988  0.989  0.991
    eigenvectors:
  0.000  0.000  0.002  0.000  0.998
  0.420  0.238  0.304  0.038  0.000
  0.238  0.420  0.037  0.304  0.000
  0.025  0.317  0.001  0.657  0.000
  0.317  0.025  0.656  0.001  0.001
    occupations:
  0.991  0.000  0.000  0.000  0.000
  0.000  0.693  0.000  0.078  0.198
  0.000  0.000  0.693  0.198 -0.078
  0.000  0.078  0.198  0.835  0.000
  0.000  0.198 -0.078  0.000  0.835
atom    3   Tr[ns(na)] =   3.79498
    eigenvalues: 
  0.356  0.356  0.382  0.402  0.402
    eigenvectors:
  0.000  0.000  1.000  0.000  0.000
  0.233  0.688  0.000  0.058  0.021
  0.688  0.233  0.000  0.021  0.058
  0.058  0.020  0.000  0.248  0.673
  0.020  0.059  0.000  0.673  0.248
    occupations:
  0.382  0.000  0.000  0.000  0.000
  0.000  0.360  0.000  0.000  0.012
  0.000  0.000  0.360  0.012  0.000
  0.000  0.000  0.012  0.398  0.000
  0.000  0.012  0.000  0.000  0.398
atom    4   Tr[ns(na)] =   3.79501
    eigenvalues: 
  0.356  0.356  0.382  0.402  0.402
    eigenvectors:
  0.000  0.000  1.000  0.000  0.000
  0.688  0.234  0.000  0.057  0.021
  0.234  0.687  0.000  0.020  0.058
  0.020  0.058  0.000  0.247  0.675
  0.057  0.020  0.000  0.675  0.247
    occupations:
  0.382  0.000  0.000  0.000  0.000
  0.000  0.360  0.000  0.000  0.012
  0.000  0.000  0.360  0.012  0.000
  0.000  0.000  0.012  0.398  0.000
  0.000  0.012  0.000  0.000  0.398
atom    5   Tr[ns(na)] =   5.43518
    eigenvalues: 
  0.841  0.930  0.946
    eigenvectors:
  0.338  0.000  0.662
  0.491  0.258  0.251
  0.172  0.742  0.086
    occupations:
  0.911 -0.043  0.025
 -0.043  0.891  0.023
  0.025  0.023  0.916
atom    6   Tr[ns(na)] =   5.42880
    eigenvalues: 
  0.839  0.929  0.946
    eigenvectors:
  0.338  0.000  0.662
  0.503  0.241  0.256
  0.159  0.759  0.082
    occupations:
  0.910  0.044  0.025
  0.044  0.888 -0.023
  0.025 -0.023  0.916
atom    7   Tr[ns(na)] =   5.42880
    eigenvalues: 
  0.839  0.929  0.946
    eigenvectors:
  0.338  0.000  0.662
  0.000  1.000  0.000
  0.662  0.000  0.338
    occupations:
  0.910  0.000 -0.050
  0.000  0.929 -0.001
 -0.050 -0.001  0.875
atom    8   Tr[ns(na)] =   5.42872
    eigenvalues: 
  0.839  0.929  0.946
    eigenvectors:
  0.338  0.000  0.662
  0.490  0.258  0.252
  0.172  0.742  0.086
    occupations:
  0.910 -0.043  0.026
 -0.043  0.889  0.024
  0.026  0.024  0.915
atom    9   Tr[ns(na)] =   5.42885
    eigenvalues: 
  0.839  0.929  0.946
    eigenvectors:
  0.338  0.000  0.662
  0.503  0.241  0.256
  0.159  0.759  0.082
    occupations:
  0.910  0.044  0.025
  0.044  0.888 -0.023
  0.025 -0.023  0.916
atom   10   Tr[ns(na)] =   5.42886
    eigenvalues: 
  0.839  0.929  0.946
    eigenvectors:
  0.338  0.000  0.662
  0.000  1.000  0.000
  0.662  0.000  0.338
    occupations:
  0.910 -0.001 -0.050
 -0.001  0.929 -0.001
 -0.050 -0.001  0.875
N of occupied +U levels =  56.2918900
 --- exit write_ns ---
 --- in v_hubbard ---
Hubbard energy    0.1959
 -------

     total cpu time spent up to now is      210.0 secs

     total energy              =    -538.11540425 Ry
     Harris-Foulkes estimate   =    -538.11576692 Ry
     estimated scf accuracy    <       0.00346528 Ry

     iteration #  5     ecut=    30.00 Ry     beta=0.20
     Davidson diagonalization with overlap
     ethr =  4.56E-06,  avg # of iterations =  1.0
 --- enter write_ns ---
 LDA+U parameters:
U( 1)     =  3.00000000
alpha( 1) =  0.00000000
U( 2)     =  0.00000000
alpha( 2) =  0.00000000
U( 3)     =  0.00000000
alpha( 3) = -0.10000000
U( 4)     =  0.00000000
alpha( 4) =  0.00000000
atom    1   Tr[ns(na)] =   8.05917
    eigenvalues: 
  0.533  0.534  0.987  0.987  0.989
    eigenvectors:
  0.000  0.000  0.003  0.000  0.997
  0.557  0.101  0.198  0.142  0.001
  0.101  0.557  0.142  0.199  0.000
  0.168  0.174  0.508  0.149  0.001
  0.174  0.167  0.148  0.510  0.001
    occupations:
  0.989  0.000  0.000  0.000  0.000
  0.000  0.688  0.000 -0.079  0.200
  0.000  0.000  0.689  0.200  0.078
  0.000 -0.079  0.200  0.832  0.000
  0.000  0.200  0.078  0.000  0.832
atom    2   Tr[ns(na)] =   8.05526
    eigenvalues: 
  0.531  0.532  0.987  0.988  0.990
    eigenvectors:
  0.000  0.000  0.003  0.000  0.997
  0.421  0.238  0.301  0.040  0.001
  0.238  0.421  0.040  0.301  0.000
  0.025  0.316  0.000  0.658  0.000
  0.316  0.025  0.657  0.000  0.002
    occupations:
  0.990  0.000  0.000  0.000  0.000
  0.000  0.687  0.000  0.078  0.202
  0.000  0.000  0.687  0.201 -0.078
  0.000  0.078  0.201  0.832  0.000
  0.000  0.202 -0.078  0.000  0.832
atom    3   Tr[ns(na)] =   3.79596
    eigenvalues: 
  0.356  0.356  0.382  0.402  0.402
    eigenvectors:
  0.000  0.000  1.000  0.000  0.000
  0.231  0.690  0.000  0.057  0.022
  0.691  0.231  0.000  0.022  0.057
  0.058  0.020  0.000  0.265  0.656
  0.020  0.059  0.000  0.656  0.265
    occupations:
  0.382  0.000  0.000  0.000  0.000
  0.000  0.360  0.000  0.000  0.012
  0.000  0.000  0.360  0.012  0.000
  0.000  0.000  0.012  0.398  0.000
  0.000  0.012  0.000  0.000  0.398
atom    4   Tr[ns(na)] =   3.79598
    eigenvalues: 
  0.356  0.356  0.382  0.402  0.402
    eigenvectors:
  0.000  0.000  1.000  0.000  0.000
  0.687  0.236  0.000  0.058  0.020
  0.236  0.686  0.000  0.020  0.059
  0.020  0.058  0.000  0.241  0.681
  0.057  0.021  0.000  0.682  0.240
    occupations:
  0.382  0.000  0.000  0.000  0.000
  0.000  0.360  0.000  0.000  0.012
  0.000  0.000  0.360  0.012  0.000
  0.000  0.000  0.012  0.398  0.000
  0.000  0.012  0.000  0.000  0.398
atom    5   Tr[ns(na)] =   5.43591
    eigenvalues: 
  0.841  0.930  0.946
    eigenvectors:
  0.337  0.000  0.663
  0.497  0.250  0.253
  0.166  0.750  0.085
    occupations:
  0.911 -0.043  0.025
 -0.043  0.890  0.023
  0.025  0.023  0.917
atom    6   Tr[ns(na)] =   5.42959
    eigenvalues: 
  0.840  0.929  0.946
    eigenvectors:
  0.338  0.000  0.662
  0.497  0.249  0.254
  0.165  0.751  0.083
    occupations:
  0.910  0.044  0.025
  0.044  0.889 -0.023
  0.025 -0.023  0.916
atom    7   Tr[ns(na)] =   5.42959
    eigenvalues: 
  0.840  0.929  0.946
    eigenvectors:
  0.338  0.000  0.662
  0.000  1.000  0.000
  0.662  0.000  0.338
    occupations:
  0.910  0.000 -0.050
  0.000  0.929  0.000
 -0.050  0.000  0.875
atom    8   Tr[ns(na)] =   5.42955
    eigenvalues: 
  0.839  0.929  0.946
    eigenvectors:
  0.338  0.000  0.662
  0.497  0.251  0.253
  0.166  0.749  0.085
    occupations:
  0.910 -0.044  0.025
 -0.044  0.889  0.023
  0.025  0.023  0.916
atom    9   Tr[ns(na)] =   5.42963
    eigenvalues: 
  0.840  0.929  0.946
    eigenvectors:
  0.338  0.000  0.662
  0.496  0.249  0.255
  0.166  0.751  0.083
    occupations:
  0.910  0.044  0.025
  0.044  0.889 -0.023
  0.025 -0.023  0.916
atom   10   Tr[ns(na)] =   5.42964
    eigenvalues: 
  0.840  0.929  0.946
    eigenvectors:
  0.338  0.000  0.662
  0.000  1.000  0.000
  0.662  0.000  0.338
    occupations:
  0.910  0.000 -0.050
  0.000  0.929  0.000
 -0.050  0.000  0.875
N of occupied +U levels =  56.2902754
 --- exit write_ns ---
 --- in v_hubbard ---
Hubbard energy    0.1947
 -------

     total cpu time spent up to now is      246.4 secs

     total energy              =    -538.11571659 Ry
     Harris-Foulkes estimate   =    -538.11565802 Ry
     estimated scf accuracy    <       0.00010313 Ry

     iteration #  6     ecut=    30.00 Ry     beta=0.20
     Davidson diagonalization with overlap
     ethr =  1.36E-07,  avg # of iterations =  2.0
 --- enter write_ns ---
 LDA+U parameters:
U( 1)     =  3.00000000
alpha( 1) =  0.00000000
U( 2)     =  0.00000000
alpha( 2) =  0.00000000
U( 3)     =  0.00000000
alpha( 3) = -0.10000000
U( 4)     =  0.00000000
alpha( 4) =  0.00000000
atom    1   Tr[ns(na)] =   8.05297
    eigenvalues: 
  0.531  0.532  0.987  0.987  0.989
    eigenvectors:
  0.000  0.000  0.003  0.000  0.997
  0.557  0.101  0.199  0.142  0.001
  0.101  0.557  0.142  0.200  0.000
  0.168  0.174  0.507  0.150  0.001
  0.174  0.167  0.149  0.508  0.001
    occupations:
  0.989  0.000  0.000  0.000  0.000
  0.000  0.687  0.000 -0.079  0.201
  0.000  0.000  0.688  0.201  0.078
  0.000 -0.079  0.201  0.831  0.000
  0.000  0.201  0.078  0.000  0.831
atom    2   Tr[ns(na)] =   8.05073
    eigenvalues: 
  0.530  0.531  0.988  0.988  0.990
    eigenvectors:
  0.000  0.000  0.002  0.000  0.997
  0.421  0.238  0.301  0.040  0.001
  0.238  0.421  0.039  0.302  0.000
  0.025  0.317  0.000  0.658  0.000
  0.317  0.025  0.656  0.000  0.002
    occupations:
  0.990  0.000  0.000  0.000  0.000
  0.000  0.686  0.000  0.078  0.202
  0.000  0.000  0.686  0.202 -0.079
  0.000  0.078  0.202  0.832  0.000
  0.000  0.202 -0.079  0.000  0.831
atom    3   Tr[ns(na)] =   3.79505
    eigenvalues: 
  0.356  0.356  0.382  0.402  0.402
    eigenvectors:
  0.000  0.000  1.000  0.000  0.000
  0.229  0.692  0.000  0.061  0.018
  0.692  0.229  0.000  0.018  0.061
  0.059  0.020  0.000  0.212  0.709
  0.020  0.059  0.000  0.709  0.212
    occupations:
  0.382  0.000  0.000  0.000  0.000
  0.000  0.360  0.000  0.000  0.012
  0.000  0.000  0.360  0.012  0.000
  0.000  0.000  0.012  0.398  0.000
  0.000  0.012  0.000  0.000  0.398
atom    4   Tr[ns(na)] =   3.79507
    eigenvalues: 
  0.356  0.356  0.382  0.402  0.402
    eigenvectors:
  0.000  0.000  1.000  0.000  0.000
  0.666  0.256  0.000  0.059  0.019
  0.256  0.666  0.000  0.019  0.059
  0.022  0.056  0.000  0.234  0.687
  0.056  0.022  0.000  0.688  0.234
    occupations:
  0.382  0.000  0.000  0.000  0.000
  0.000  0.360  0.000  0.000  0.012
  0.000  0.000  0.360  0.012  0.000
  0.000  0.000  0.012  0.398  0.000
  0.000  0.012  0.000  0.000  0.398
atom    5   Tr[ns(na)] =   5.43748
    eigenvalues: 
  0.842  0.930  0.947
    eigenvectors:
  0.337  0.000  0.663
  0.497  0.251  0.253
  0.166  0.749  0.085
    occupations:
  0.911 -0.043  0.025
 -0.043  0.890  0.023
  0.025  0.023  0.917
atom    6   Tr[ns(na)] =   5.43140
    eigenvalues: 
  0.840  0.930  0.946
    eigenvectors:
  0.337  0.000  0.663
  0.497  0.248  0.254
  0.165  0.752  0.083
    occupations:
  0.910  0.043  0.025
  0.043  0.889 -0.023
  0.025 -0.023  0.916
atom    7   Tr[ns(na)] =   5.43140
    eigenvalues: 
  0.840  0.930  0.946
    eigenvectors:
  0.337  0.000  0.663
  0.000  1.000  0.000
  0.663  0.000  0.337
    occupations:
  0.910  0.000 -0.050
  0.000  0.930  0.000
 -0.050  0.000  0.876
atom    8   Tr[ns(na)] =   5.43174
    eigenvalues: 
  0.840  0.930  0.946
    eigenvectors:
  0.338  0.000  0.662
  0.497  0.251  0.253
  0.166  0.749  0.085
    occupations:
  0.910 -0.043  0.025
 -0.043  0.889  0.023
  0.025  0.023  0.916
atom    9   Tr[ns(na)] =   5.43135
    eigenvalues: 
  0.840  0.930  0.946
    eigenvectors:
  0.338  0.000  0.662
  0.497  0.249  0.255
  0.166  0.751  0.083
    occupations:
  0.910  0.043  0.025
  0.043  0.889 -0.023
  0.025 -0.023  0.916
atom   10   Tr[ns(na)] =   5.43135
    eigenvalues: 
  0.840  0.930  0.946
    eigenvectors:
  0.338  0.000  0.662
  0.000  1.000  0.000
  0.662  0.000  0.338
    occupations:
  0.910  0.000 -0.050
  0.000  0.930  0.000
 -0.050  0.000  0.876
N of occupied +U levels =  56.2885382
 --- exit write_ns ---
 --- in v_hubbard ---
Hubbard energy    0.1948
 -------

     total cpu time spent up to now is      291.5 secs

     total energy              =    -538.11577912 Ry
     Harris-Foulkes estimate   =    -538.11572833 Ry
     estimated scf accuracy    <       0.00003064 Ry

     iteration #  7     ecut=    30.00 Ry     beta=0.20
     Davidson diagonalization with overlap
     ethr =  4.03E-08,  avg # of iterations =  2.0
 --- enter write_ns ---
 LDA+U parameters:
U( 1)     =  3.00000000
alpha( 1) =  0.00000000
U( 2)     =  0.00000000
alpha( 2) =  0.00000000
U( 3)     =  0.00000000
alpha( 3) = -0.10000000
U( 4)     =  0.00000000
alpha( 4) =  0.00000000
atom    1   Tr[ns(na)] =   8.05262
    eigenvalues: 
  0.531  0.532  0.987  0.987  0.989
    eigenvectors:
  0.000  0.000  0.002  0.000  0.997
  0.557  0.101  0.201  0.140  0.001
  0.101  0.557  0.140  0.202  0.000
  0.168  0.175  0.504  0.153  0.001
  0.174  0.168  0.152  0.505  0.001
    occupations:
  0.989  0.000  0.000  0.000  0.000
  0.000  0.687  0.000 -0.079  0.201
  0.000  0.000  0.688  0.201  0.079
  0.000 -0.079  0.201  0.831  0.000
  0.000  0.201  0.079  0.000  0.831
atom    2   Tr[ns(na)] =   8.05071
    eigenvalues: 
  0.529  0.530  0.988  0.988  0.990
    eigenvectors:
  0.000  0.000  0.002  0.000  0.998
  0.420  0.237  0.301  0.040  0.001
  0.238  0.420  0.040  0.302  0.000
  0.025  0.317  0.000  0.658  0.000
  0.317  0.025  0.656  0.000  0.001
    occupations:
  0.990  0.000  0.000  0.000  0.000
  0.000  0.687  0.000  0.079  0.203
  0.000  0.000  0.687  0.202 -0.079
  0.000  0.079  0.202  0.831  0.000
  0.000  0.203 -0.079  0.000  0.831
atom    3   Tr[ns(na)] =   3.79260
    eigenvalues: 
  0.356  0.356  0.382  0.402  0.402
    eigenvectors:
  0.000  0.000  1.000  0.000  0.000
  0.229  0.692  0.000  0.063  0.017
  0.692  0.229  0.000  0.017  0.063
  0.059  0.020  0.000  0.202  0.718
  0.020  0.059  0.000  0.718  0.202
    occupations:
  0.382  0.000  0.000  0.000  0.000
  0.000  0.359  0.000  0.000  0.012
  0.000  0.000  0.359  0.012  0.000
  0.000  0.000  0.012  0.398  0.000
  0.000  0.012  0.000  0.000  0.398
atom    4   Tr[ns(na)] =   3.79263
    eigenvalues: 
  0.356  0.356  0.382  0.402  0.402
    eigenvectors:
  0.000  0.000  1.000  0.000  0.000
  0.672  0.250  0.000  0.059  0.019
  0.250  0.671  0.000  0.019  0.060
  0.022  0.057  0.000  0.231  0.690
  0.056  0.022  0.000  0.691  0.230
    occupations:
  0.382  0.000  0.000  0.000  0.000
  0.000  0.359  0.000  0.000  0.012
  0.000  0.000  0.359  0.012  0.000
  0.000  0.000  0.012  0.398  0.000
  0.000  0.012  0.000  0.000  0.398
atom    5   Tr[ns(na)] =   5.43817
    eigenvalues: 
  0.842  0.931  0.947
    eigenvectors:
  0.338  0.000  0.662
  0.497  0.251  0.253
  0.166  0.749  0.085
    occupations:
  0.911 -0.043  0.025
 -0.043  0.891  0.023
  0.025  0.023  0.917
atom    6   Tr[ns(na)] =   5.43193
    eigenvalues: 
  0.840  0.930  0.946
    eigenvectors:
  0.338  0.000  0.662
  0.497  0.248  0.255
  0.165  0.752  0.083
    occupations:
  0.910  0.044  0.025
  0.044  0.889 -0.023
  0.025 -0.023  0.916
atom    7   Tr[ns(na)] =   5.43193
    eigenvalues: 
  0.840  0.930  0.946
    eigenvectors:
  0.338  0.000  0.662
  0.000  1.000  0.000
  0.662  0.000  0.338
    occupations:
  0.910  0.000 -0.050
  0.000  0.930  0.000
 -0.050  0.000  0.876
atom    8   Tr[ns(na)] =   5.43247
    eigenvalues: 
  0.840  0.930  0.946
    eigenvectors:
  0.338  0.000  0.662
  0.496  0.251  0.253
  0.166  0.749  0.085
    occupations:
  0.910 -0.043  0.025
 -0.043  0.889  0.023
  0.025  0.023  0.916
atom    9   Tr[ns(na)] =   5.43185
    eigenvalues: 
  0.840  0.930  0.946
    eigenvectors:
  0.338  0.000  0.662
  0.496  0.249  0.255
  0.166  0.751  0.083
    occupations:
  0.910  0.043  0.025
  0.043  0.889 -0.023
  0.025 -0.023  0.916
atom   10   Tr[ns(na)] =   5.43185
    eigenvalues: 
  0.840  0.930  0.946
    eigenvectors:
  0.338  0.000  0.662
  0.000  1.000  0.000
  0.662  0.000  0.338
    occupations:
  0.910  0.000 -0.050
  0.000  0.930  0.000
 -0.050  0.000  0.876
N of occupied +U levels =  56.2867668
 --- exit write_ns ---
 --- in v_hubbard ---
Hubbard energy    0.1949
 -------

     total cpu time spent up to now is      330.7 secs

     total energy              =    -538.11583043 Ry
     Harris-Foulkes estimate   =    -538.11578406 Ry
     estimated scf accuracy    <       0.00000534 Ry

     iteration #  8     ecut=    30.00 Ry     beta=0.20
     Davidson diagonalization with overlap
     ethr =  7.02E-09,  avg # of iterations =  2.0
 --- enter write_ns ---
 LDA+U parameters:
U( 1)     =  3.00000000
alpha( 1) =  0.00000000
U( 2)     =  0.00000000
alpha( 2) =  0.00000000
U( 3)     =  0.00000000
alpha( 3) = -0.10000000
U( 4)     =  0.00000000
alpha( 4) =  0.00000000
atom    1   Tr[ns(na)] =   8.05334
    eigenvalues: 
  0.531  0.532  0.987  0.987  0.989
    eigenvectors:
  0.000  0.000  0.002  0.000  0.998
  0.557  0.101  0.202  0.140  0.001
  0.101  0.557  0.140  0.202  0.000
  0.168  0.174  0.504  0.153  0.001
  0.174  0.168  0.153  0.505  0.001
    occupations:
  0.989  0.000  0.000  0.000  0.000
  0.000  0.687  0.000 -0.079  0.201
  0.000  0.000  0.688  0.201  0.079
  0.000 -0.079  0.201  0.831  0.000
  0.000  0.201  0.079  0.000  0.831
atom    2   Tr[ns(na)] =   8.05109
    eigenvalues: 
  0.530  0.531  0.988  0.988  0.990
    eigenvectors:
  0.000  0.000  0.002  0.000  0.998
  0.420  0.237  0.301  0.040  0.001
  0.238  0.421  0.040  0.301  0.000
  0.025  0.317  0.000  0.658  0.000
  0.317  0.025  0.656  0.000  0.001
    occupations:
  0.990  0.000  0.000  0.000  0.000
  0.000  0.687  0.000  0.079  0.202
  0.000  0.000  0.687  0.202 -0.079
  0.000  0.079  0.202  0.831  0.000
  0.000  0.202 -0.079  0.000  0.831
atom    3   Tr[ns(na)] =   3.79354
    eigenvalues: 
  0.356  0.356  0.382  0.402  0.402
    eigenvectors:
  0.000  0.000  1.000  0.000  0.000
  0.229  0.692  0.000  0.064  0.015
  0.692  0.229  0.000  0.015  0.064
  0.059  0.020  0.000  0.183  0.738
  0.020  0.059  0.000  0.738  0.183
    occupations:
  0.382  0.000  0.000  0.000  0.000
  0.000  0.359  0.000  0.000  0.012
  0.000  0.000  0.359  0.012  0.000
  0.000  0.000  0.012  0.398  0.000
  0.000  0.012  0.000  0.000  0.398
atom    4   Tr[ns(na)] =   3.79357
    eigenvalues: 
  0.356  0.356  0.382  0.402  0.402
    eigenvectors:
  0.000  0.000  1.000  0.000  0.000
  0.672  0.250  0.000  0.059  0.019
  0.250  0.671  0.000  0.019  0.060
  0.022  0.057  0.000  0.232  0.689
  0.056  0.022  0.000  0.690  0.232
    occupations:
  0.382  0.000  0.000  0.000  0.000
  0.000  0.359  0.000  0.000  0.012
  0.000  0.000  0.359  0.012  0.000
  0.000  0.000  0.012  0.398  0.000
  0.000  0.012  0.000  0.000  0.398
atom    5   Tr[ns(na)] =   5.43772
    eigenvalues: 
  0.842  0.930  0.947
    eigenvectors:
  0.338  0.000  0.662
  0.497  0.251  0.253
  0.166  0.749  0.085
    occupations:
  0.911 -0.043  0.025
 -0.043  0.890  0.023
  0.025  0.023  0.917
atom    6   Tr[ns(na)] =   5.43158
    eigenvalues: 
  0.840  0.930  0.946
    eigenvectors:
  0.338  0.000  0.662
  0.497  0.248  0.255
  0.165  0.752  0.083
    occupations:
  0.910  0.044  0.025
  0.044  0.889 -0.023
  0.025 -0.023  0.916
atom    7   Tr[ns(na)] =   5.43158
    eigenvalues: 
  0.840  0.930  0.946
    eigenvectors:
  0.338  0.000  0.662
  0.000  1.000  0.000
  0.662  0.000  0.338
    occupations:
  0.910  0.000 -0.050
  0.000  0.930  0.000
 -0.050  0.000  0.876
atom    8   Tr[ns(na)] =   5.43193
    eigenvalues: 
  0.840  0.930  0.946
    eigenvectors:
  0.338  0.000  0.662
  0.496  0.251  0.253
  0.166  0.749  0.085
    occupations:
  0.910 -0.043  0.025
 -0.043  0.889  0.023
  0.025  0.023  0.916
atom    9   Tr[ns(na)] =   5.43153
    eigenvalues: 
  0.840  0.930  0.946
    eigenvectors:
  0.338  0.000  0.662
  0.496  0.249  0.255
  0.166  0.751  0.083
    occupations:
  0.910  0.044  0.025
  0.044  0.889 -0.023
  0.025 -0.023  0.916
atom   10   Tr[ns(na)] =   5.43153
    eigenvalues: 
  0.840  0.930  0.946
    eigenvectors:
  0.338  0.000  0.662
  0.000  1.000  0.000
  0.662  0.000  0.338
    occupations:
  0.910  0.000 -0.050
  0.000  0.930  0.000
 -0.050  0.000  0.876
N of occupied +U levels =  56.2874260
 --- exit write_ns ---
 --- in v_hubbard ---
Hubbard energy    0.1951
 -------

     total cpu time spent up to now is      366.9 secs

     total energy              =    -538.11585990 Ry
     Harris-Foulkes estimate   =    -538.11583113 Ry
     estimated scf accuracy    <       0.00000138 Ry

     iteration #  9     ecut=    30.00 Ry     beta=0.20
     Davidson diagonalization with overlap
     ethr =  1.82E-09,  avg # of iterations =  1.9
 --- enter write_ns ---
 LDA+U parameters:
U( 1)     =  3.00000000
alpha( 1) =  0.00000000
U( 2)     =  0.00000000
alpha( 2) =  0.00000000
U( 3)     =  0.00000000
alpha( 3) = -0.10000000
U( 4)     =  0.00000000
alpha( 4) =  0.00000000
atom    1   Tr[ns(na)] =   8.05305
    eigenvalues: 
  0.531  0.532  0.987  0.987  0.989
    eigenvectors:
  0.000  0.000  0.002  0.000  0.998
  0.557  0.101  0.202  0.140  0.001
  0.101  0.557  0.140  0.202  0.000
  0.168  0.175  0.503  0.153  0.001
  0.174  0.168  0.153  0.504  0.001
    occupations:
  0.989  0.000  0.000  0.000  0.000
  0.000  0.687  0.000 -0.079  0.201
  0.000  0.000  0.688  0.201  0.079
  0.000 -0.079  0.201  0.831  0.000
  0.000  0.201  0.079  0.000  0.831
atom    2   Tr[ns(na)] =   8.05100
    eigenvalues: 
  0.530  0.531  0.988  0.988  0.990
    eigenvectors:
  0.000  0.000  0.002  0.000  0.998
  0.420  0.237  0.301  0.040  0.001
  0.238  0.420  0.040  0.302  0.000
  0.025  0.317  0.000  0.658  0.000
  0.317  0.025  0.656  0.000  0.001
    occupations:
  0.990  0.000  0.000  0.000  0.000
  0.000  0.687  0.000  0.079  0.202
  0.000  0.000  0.687  0.202 -0.079
  0.000  0.079  0.202  0.831  0.000
  0.000  0.202 -0.079  0.000  0.831
atom    3   Tr[ns(na)] =   3.79353
    eigenvalues: 
  0.356  0.356  0.382  0.402  0.402
    eigenvectors:
  0.000  0.000  1.000  0.000  0.000
  0.229  0.692  0.000  0.064  0.016
  0.692  0.229  0.000  0.016  0.064
  0.059  0.020  0.000  0.189  0.731
  0.020  0.059  0.000  0.731  0.189
    occupations:
  0.382  0.000  0.000  0.000  0.000
  0.000  0.359  0.000  0.000  0.012
  0.000  0.000  0.359  0.012  0.000
  0.000  0.000  0.012  0.398  0.000
  0.000  0.012  0.000  0.000  0.398
atom    4   Tr[ns(na)] =   3.79356
    eigenvalues: 
  0.356  0.356  0.382  0.402  0.402
    eigenvectors:
  0.000  0.000  1.000  0.000  0.000
  0.674  0.248  0.000  0.059  0.019
  0.248  0.673  0.000  0.019  0.060
  0.022  0.057  0.000  0.232  0.689
  0.057  0.022  0.000  0.690  0.231
    occupations:
  0.382  0.000  0.000  0.000  0.000
  0.000  0.359  0.000  0.000  0.012
  0.000  0.000  0.359  0.012  0.000
  0.000  0.000  0.012  0.398  0.000
  0.000  0.012  0.000  0.000  0.398
atom    5   Tr[ns(na)] =   5.43780
    eigenvalues: 
  0.842  0.930  0.947
    eigenvectors:
  0.338  0.000  0.662
  0.497  0.251  0.253
  0.166  0.749  0.085
    occupations:
  0.911 -0.043  0.025
 -0.043  0.890  0.023
  0.025  0.023  0.917
atom    6   Tr[ns(na)] =   5.43162
    eigenvalues: 
  0.840  0.930  0.946
    eigenvectors:
  0.338  0.000  0.662
  0.497  0.248  0.255
  0.165  0.752  0.083
    occupations:
  0.910  0.044  0.025
  0.044  0.889 -0.023
  0.025 -0.023  0.916
atom    7   Tr[ns(na)] =   5.43163
    eigenvalues: 
  0.840  0.930  0.946
    eigenvectors:
  0.338  0.000  0.662
  0.000  1.000  0.000
  0.662  0.000  0.338
    occupations:
  0.910  0.000 -0.050
  0.000  0.930  0.000
 -0.050  0.000  0.876
atom    8   Tr[ns(na)] =   5.43201
    eigenvalues: 
  0.840  0.930  0.946
    eigenvectors:
  0.338  0.000  0.662
  0.496  0.251  0.253
  0.166  0.749  0.085
    occupations:
  0.910 -0.043  0.025
 -0.043  0.889  0.023
  0.025  0.023  0.916
atom    9   Tr[ns(na)] =   5.43157
    eigenvalues: 
  0.840  0.930  0.946
    eigenvectors:
  0.338  0.000  0.662
  0.496  0.249  0.255
  0.166  0.751  0.083
    occupations:
  0.910  0.044  0.025
  0.044  0.889 -0.023
  0.025 -0.023  0.916
atom   10   Tr[ns(na)] =   5.43157
    eigenvalues: 
  0.840  0.930  0.946
    eigenvectors:
  0.338  0.000  0.662
  0.000  1.000  0.000
  0.662  0.000  0.338
    occupations:
  0.910  0.000 -0.050
  0.000  0.930  0.000
 -0.050  0.000  0.876
N of occupied +U levels =  56.2873439
 --- exit write_ns ---
 --- in v_hubbard ---
Hubbard energy    0.1952
 -------

     total cpu time spent up to now is      400.9 secs

     total energy              =    -538.11587987 Ry
     Harris-Foulkes estimate   =    -538.11586003 Ry
     estimated scf accuracy    <       0.00000024 Ry

     iteration # 10     ecut=    30.00 Ry     beta=0.20
     Davidson diagonalization with overlap
     ethr =  3.18E-10,  avg # of iterations =  2.1
 --- enter write_ns ---
 LDA+U parameters:
U( 1)     =  3.00000000
alpha( 1) =  0.00000000
U( 2)     =  0.00000000
alpha( 2) =  0.00000000
U( 3)     =  0.00000000
alpha( 3) = -0.10000000
U( 4)     =  0.00000000
alpha( 4) =  0.00000000
atom    1   Tr[ns(na)] =   8.05344
    eigenvalues: 
  0.531  0.532  0.987  0.987  0.989
    eigenvectors:
  0.000  0.000  0.002  0.000  0.998
  0.557  0.101  0.202  0.140  0.001
  0.101  0.557  0.140  0.202  0.000
  0.168  0.174  0.504  0.153  0.001
  0.174  0.168  0.152  0.505  0.001
    occupations:
  0.989  0.000  0.000  0.000  0.000
  0.000  0.687  0.000 -0.079  0.201
  0.000  0.000  0.688  0.201  0.079
  0.000 -0.079  0.201  0.831  0.000
  0.000  0.201  0.079  0.000  0.831
atom    2   Tr[ns(na)] =   8.05131
    eigenvalues: 
  0.530  0.531  0.988  0.988  0.990
    eigenvectors:
  0.000  0.000  0.002  0.000  0.998
  0.420  0.237  0.301  0.040  0.001
  0.238  0.420  0.040  0.302  0.000
  0.025  0.317  0.000  0.658  0.000
  0.317  0.025  0.656  0.000  0.001
    occupations:
  0.990  0.000  0.000  0.000  0.000
  0.000  0.687  0.000  0.079  0.202
  0.000  0.000  0.687  0.202 -0.079
  0.000  0.079  0.202  0.831  0.000
  0.000  0.202 -0.079  0.000  0.831
atom    3   Tr[ns(na)] =   3.79364
    eigenvalues: 
  0.356  0.356  0.382  0.402  0.402
    eigenvectors:
  0.000  0.000  1.000  0.000  0.000
  0.229  0.692  0.000  0.064  0.016
  0.692  0.229  0.000  0.016  0.064
  0.059  0.020  0.000  0.187  0.733
  0.020  0.059  0.000  0.733  0.187
    occupations:
  0.382  0.000  0.000  0.000  0.000
  0.000  0.359  0.000  0.000  0.012
  0.000  0.000  0.359  0.012  0.000
  0.000  0.000  0.012  0.398  0.000
  0.000  0.012  0.000  0.000  0.398
atom    4   Tr[ns(na)] =   3.79367
    eigenvalues: 
  0.356  0.356  0.382  0.402  0.402
    eigenvectors:
  0.000  0.000  1.000  0.000  0.000
  0.675  0.247  0.000  0.059  0.019
  0.247  0.674  0.000  0.019  0.060
  0.022  0.057  0.000  0.232  0.689
  0.057  0.022  0.000  0.690  0.231
    occupations:
  0.382  0.000  0.000  0.000  0.000
  0.000  0.359  0.000  0.000  0.012
  0.000  0.000  0.359  0.012  0.000
  0.000  0.000  0.012  0.398  0.000
  0.000  0.012  0.000  0.000  0.398
atom    5   Tr[ns(na)] =   5.43766
    eigenvalues: 
  0.842  0.930  0.947
    eigenvectors:
  0.338  0.000  0.662
  0.497  0.251  0.253
  0.166  0.749  0.085
    occupations:
  0.911 -0.043  0.025
 -0.043  0.890  0.023
  0.025  0.023  0.917
atom    6   Tr[ns(na)] =   5.43148
    eigenvalues: 
  0.840  0.930  0.946
    eigenvectors:
  0.338  0.000  0.662
  0.497  0.248  0.255
  0.165  0.752  0.083
    occupations:
  0.910  0.044  0.025
  0.044  0.889 -0.023
  0.025 -0.023  0.916
atom    7   Tr[ns(na)] =   5.43148
    eigenvalues: 
  0.840  0.930  0.946
    eigenvectors:
  0.338  0.000  0.662
  0.000  1.000  0.000
  0.662  0.000  0.338
    occupations:
  0.910  0.000 -0.050
  0.000  0.930  0.000
 -0.050  0.000  0.876
atom    8   Tr[ns(na)] =   5.43188
    eigenvalues: 
  0.840  0.930  0.946
    eigenvectors:
  0.338  0.000  0.662
  0.496  0.251  0.253
  0.166  0.749  0.085
    occupations:
  0.910 -0.044  0.025
 -0.044  0.889  0.023
  0.025  0.023  0.916
atom    9   Tr[ns(na)] =   5.43143
    eigenvalues: 
  0.840  0.930  0.946
    eigenvectors:
  0.338  0.000  0.662
  0.496  0.249  0.255
  0.166  0.751  0.083
    occupations:
  0.910  0.044  0.025
  0.044  0.889 -0.023
  0.025 -0.023  0.916
atom   10   Tr[ns(na)] =   5.43143
    eigenvalues: 
  0.840  0.930  0.946
    eigenvectors:
  0.338  0.000  0.662
  0.000  1.000  0.000
  0.662  0.000  0.338
    occupations:
  0.910  0.000 -0.050
  0.000  0.930  0.000
 -0.050  0.000  0.876
N of occupied +U levels =  56.2874386
 --- exit write_ns ---
 --- in v_hubbard ---
Hubbard energy    0.1952
 -------

     total cpu time spent up to now is      446.1 secs

     total energy              =    -538.11589225 Ry
     Harris-Foulkes estimate   =    -538.11587993 Ry
     estimated scf accuracy    <       0.00000024 Ry

     iteration # 11     ecut=    30.00 Ry     beta=0.20
     Davidson diagonalization with overlap
     ethr =  3.17E-10,  avg # of iterations =  1.5
 --- enter write_ns ---
 LDA+U parameters:
U( 1)     =  3.00000000
alpha( 1) =  0.00000000
U( 2)     =  0.00000000
alpha( 2) =  0.00000000
U( 3)     =  0.00000000
alpha( 3) = -0.10000000
U( 4)     =  0.00000000
alpha( 4) =  0.00000000
atom    1   Tr[ns(na)] =   8.05310
    eigenvalues: 
  0.531  0.532  0.987  0.987  0.989
    eigenvectors:
  0.000  0.000  0.002  0.000  0.998
  0.557  0.101  0.202  0.140  0.001
  0.101  0.557  0.140  0.202  0.000
  0.168  0.174  0.504  0.153  0.001
  0.174  0.168  0.153  0.505  0.001
    occupations:
  0.989  0.000  0.000  0.000  0.000
  0.000  0.687  0.000 -0.079  0.201
  0.000  0.000  0.688  0.201  0.079
  0.000 -0.079  0.201  0.831  0.000
  0.000  0.201  0.079  0.000  0.831
atom    2   Tr[ns(na)] =   8.05102
    eigenvalues: 
  0.530  0.531  0.988  0.988  0.990
    eigenvectors:
  0.000  0.000  0.002  0.000  0.998
  0.420  0.237  0.301  0.040  0.001
  0.238  0.420  0.040  0.301  0.000
  0.025  0.317  0.000  0.658  0.000
  0.317  0.025  0.656  0.000  0.001
    occupations:
  0.990  0.000  0.000  0.000  0.000
  0.000  0.687  0.000  0.079  0.202
  0.000  0.000  0.687  0.202 -0.079
  0.000  0.079  0.202  0.831  0.000
  0.000  0.202 -0.079  0.000  0.831
atom    3   Tr[ns(na)] =   3.79354
    eigenvalues: 
  0.356  0.356  0.382  0.402  0.402
    eigenvectors:
  0.000  0.000  1.000  0.000  0.000
  0.229  0.692  0.000  0.064  0.016
  0.692  0.229  0.000  0.016  0.064
  0.059  0.020  0.000  0.189  0.731
  0.020  0.059  0.000  0.731  0.189
    occupations:
  0.382  0.000  0.000  0.000  0.000
  0.000  0.359  0.000  0.000  0.012
  0.000  0.000  0.359  0.012  0.000
  0.000  0.000  0.012  0.398  0.000
  0.000  0.012  0.000  0.000  0.398
atom    4   Tr[ns(na)] =   3.79357
    eigenvalues: 
  0.356  0.356  0.382  0.402  0.402
    eigenvectors:
  0.000  0.000  1.000  0.000  0.000
  0.673  0.248  0.000  0.059  0.019
  0.249  0.672  0.000  0.019  0.060
  0.022  0.057  0.000  0.231  0.690
  0.056  0.022  0.000  0.690  0.231
    occupations:
  0.382  0.000  0.000  0.000  0.000
  0.000  0.359  0.000  0.000  0.012
  0.000  0.000  0.359  0.012  0.000
  0.000  0.000  0.012  0.398  0.000
  0.000  0.012  0.000  0.000  0.398
atom    5   Tr[ns(na)] =   5.43778
    eigenvalues: 
  0.842  0.930  0.947
    eigenvectors:
  0.338  0.000  0.662
  0.497  0.251  0.253
  0.166  0.749  0.085
    occupations:
  0.911 -0.043  0.025
 -0.043  0.890  0.023
  0.025  0.023  0.917
atom    6   Tr[ns(na)] =   5.43160
    eigenvalues: 
  0.840  0.930  0.946
    eigenvectors:
  0.338  0.000  0.662
  0.497  0.248  0.255
  0.165  0.752  0.083
    occupations:
  0.910  0.044  0.025
  0.044  0.889 -0.023
  0.025 -0.023  0.916
atom    7   Tr[ns(na)] =   5.43160
    eigenvalues: 
  0.840  0.930  0.946
    eigenvectors:
  0.338  0.000  0.662
  0.000  1.000  0.000
  0.662  0.000  0.338
    occupations:
  0.910  0.000 -0.050
  0.000  0.930  0.000
 -0.050  0.000  0.876
atom    8   Tr[ns(na)] =   5.43200
    eigenvalues: 
  0.840  0.930  0.946
    eigenvectors:
  0.338  0.000  0.662
  0.496  0.251  0.253
  0.166  0.749  0.085
    occupations:
  0.910 -0.043  0.025
 -0.043  0.889  0.023
  0.025  0.023  0.916
atom    9   Tr[ns(na)] =   5.43155
    eigenvalues: 
  0.840  0.930  0.946
    eigenvectors:
  0.338  0.000  0.662
  0.496  0.249  0.255
  0.166  0.751  0.083
    occupations:
  0.910  0.044  0.025
  0.044  0.889 -0.023
  0.025 -0.023  0.916
atom   10   Tr[ns(na)] =   5.43155
    eigenvalues: 
  0.840  0.930  0.946
    eigenvectors:
  0.338  0.000  0.662
  0.000  1.000  0.000
  0.662  0.000  0.338
    occupations:
  0.910  0.000 -0.050
  0.000  0.930  0.000
 -0.050  0.000  0.876
N of occupied +U levels =  56.2873078
 --- exit write_ns ---
 --- in v_hubbard ---
Hubbard energy    0.1952
 -------

     total cpu time spent up to now is      481.4 secs

     total energy              =    -538.11590049 Ry
     Harris-Foulkes estimate   =    -538.11589229 Ry
     estimated scf accuracy    <       0.00000002 Ry

     iteration # 12     ecut=    30.00 Ry     beta=0.20
     Davidson diagonalization with overlap
     ethr =  2.09E-11,  avg # of iterations =  2.1
 --- enter write_ns ---
 LDA+U parameters:
U( 1)     =  3.00000000
alpha( 1) =  0.00000000
U( 2)     =  0.00000000
alpha( 2) =  0.00000000
U( 3)     =  0.00000000
alpha( 3) = -0.10000000
U( 4)     =  0.00000000
alpha( 4) =  0.00000000
atom    1   Tr[ns(na)] =   8.05316
    eigenvalues: 
  0.531  0.532  0.987  0.987  0.989
    eigenvectors:
  0.000  0.000  0.002  0.000  0.998
  0.557  0.101  0.202  0.140  0.001
  0.101  0.557  0.140  0.202  0.000
  0.168  0.174  0.504  0.153  0.001
  0.174  0.168  0.153  0.504  0.001
    occupations:
  0.989  0.000  0.000  0.000  0.000
  0.000  0.687  0.000 -0.079  0.201
  0.000  0.000  0.688  0.201  0.079
  0.000 -0.079  0.201  0.831  0.000
  0.000  0.201  0.079  0.000  0.831
atom    2   Tr[ns(na)] =   8.05109
    eigenvalues: 
  0.530  0.531  0.988  0.988  0.990
    eigenvectors:
  0.000  0.000  0.002  0.000  0.998
  0.420  0.237  0.301  0.040  0.001
  0.238  0.420  0.040  0.301  0.000
  0.025  0.317  0.000  0.658  0.000
  0.317  0.025  0.656  0.000  0.001
    occupations:
  0.990  0.000  0.000  0.000  0.000
  0.000  0.687  0.000  0.079  0.202
  0.000  0.000  0.687  0.202 -0.079
  0.000  0.079  0.202  0.831  0.000
  0.000  0.202 -0.079  0.000  0.831
atom    3   Tr[ns(na)] =   3.79353
    eigenvalues: 
  0.356  0.356  0.382  0.402  0.402
    eigenvectors:
  0.000  0.000  1.000  0.000  0.000
  0.229  0.692  0.000  0.064  0.016
  0.692  0.229  0.000  0.016  0.064
  0.059  0.020  0.000  0.190  0.731
  0.020  0.059  0.000  0.731  0.190
    occupations:
  0.382  0.000  0.000  0.000  0.000
  0.000  0.359  0.000  0.000  0.012
  0.000  0.000  0.359  0.012  0.000
  0.000  0.000  0.012  0.398  0.000
  0.000  0.012  0.000  0.000  0.398
atom    4   Tr[ns(na)] =   3.79356
    eigenvalues: 
  0.356  0.356  0.382  0.402  0.402
    eigenvectors:
  0.000  0.000  1.000  0.000  0.000
  0.674  0.247  0.000  0.059  0.019
  0.247  0.674  0.000  0.019  0.060
  0.022  0.057  0.000  0.231  0.690
  0.057  0.022  0.000  0.690  0.231
    occupations:
  0.382  0.000  0.000  0.000  0.000
  0.000  0.359  0.000  0.000  0.012
  0.000  0.000  0.359  0.012  0.000
  0.000  0.000  0.012  0.398  0.000
  0.000  0.012  0.000  0.000  0.398
atom    5   Tr[ns(na)] =   5.43776
    eigenvalues: 
  0.842  0.930  0.947
    eigenvectors:
  0.338  0.000  0.662
  0.497  0.251  0.253
  0.166  0.749  0.085
    occupations:
  0.911 -0.043  0.025
 -0.043  0.890  0.023
  0.025  0.023  0.917
atom    6   Tr[ns(na)] =   5.43158
    eigenvalues: 
  0.840  0.930  0.946
    eigenvectors:
  0.338  0.000  0.662
  0.497  0.248  0.255
  0.165  0.752  0.083
    occupations:
  0.910  0.044  0.025
  0.044  0.889 -0.023
  0.025 -0.023  0.916
atom    7   Tr[ns(na)] =   5.43158
    eigenvalues: 
  0.840  0.930  0.946
    eigenvectors:
  0.338  0.000  0.662
  0.000  1.000  0.000
  0.662  0.000  0.338
    occupations:
  0.910  0.000 -0.050
  0.000  0.930  0.000
 -0.050  0.000  0.876
atom    8   Tr[ns(na)] =   5.43198
    eigenvalues: 
  0.840  0.930  0.946
    eigenvectors:
  0.338  0.000  0.662
  0.496  0.251  0.253
  0.166  0.749  0.085
    occupations:
  0.910 -0.044  0.025
 -0.044  0.889  0.023
  0.025  0.023  0.916
atom    9   Tr[ns(na)] =   5.43153
    eigenvalues: 
  0.840  0.930  0.946
    eigenvectors:
  0.338  0.000  0.662
  0.496  0.249  0.255
  0.166  0.751  0.083
    occupations:
  0.910  0.044  0.025
  0.044  0.889 -0.023
  0.025 -0.023  0.916
atom   10   Tr[ns(na)] =   5.43153
    eigenvalues: 
  0.840  0.930  0.946
    eigenvectors:
  0.338  0.000  0.662
  0.000  1.000  0.000
  0.662  0.000  0.338
    occupations:
  0.910  0.000 -0.050
  0.000  0.930  0.000
 -0.050  0.000  0.876
N of occupied +U levels =  56.2873116
 --- exit write_ns ---
 --- in v_hubbard ---
Hubbard energy    0.1952
 -------

     total cpu time spent up to now is      521.4 secs

     End of self-consistent calculation

          k = 0.0000 0.0000 0.0000 (  2175 PWs)   bands (ev):

   -19.7987 -19.6257  -6.5478  -5.8541  -5.8479  -5.8297  -5.8096  -5.4815
    -3.8209  -3.2621  -3.2407  -3.2390  -3.0279  -3.0273   5.1631   6.8086
     6.8162   7.1537   7.1569   7.1901   7.4920   7.5034   7.6952   9.1152
     9.2804   9.3048   9.3058   9.6031   9.6128  10.0153  10.0186  10.2363
    10.4448  10.4473  10.6620  11.1247  11.1272  11.5275  11.9621  11.9642
    14.7332  14.7357  15.4263  15.4278  16.1986  16.7863

     occupation numbers 
     0.0313   0.0313   0.0313   0.0313   0.0313   0.0313   0.0313   0.0313
     0.0313   0.0313   0.0313   0.0313   0.0313   0.0313   0.0313   0.0313
     0.0313   0.0313   0.0313   0.0313   0.0313   0.0313   0.0313   0.0313
     0.0313   0.0313   0.0313   0.0312   0.0312   0.0312   0.0312   0.0312
     0.0312   0.0312   0.0312   0.0306   0.0306   0.0234   0.0063   0.0062
     0.0000   0.0000   0.0000   0.0000   0.0000   0.0000

          k =-0.2471-0.1427 0.1027 (  2181 PWs)   bands (ev):

   -19.7730 -19.6589  -6.7266  -6.2939  -5.9507  -5.8534  -5.6127  -5.4789
    -3.6176  -3.4039  -2.9405  -2.9088  -2.8598  -2.7654   5.5183   6.7753
     6.8188   6.9133   6.9357   7.1701   7.2082   7.4554   7.5905   8.2630
     8.2684   8.8184   9.5793   9.7009   9.7171   9.9641  10.2092  10.2307
    10.3938  10.4000  10.4563  11.2016  11.2880  11.3098  12.2913  12.3628
    14.2796  14.2910  15.8146  16.0694  16.9721  17.2660

     occupation numbers 
     0.0625   0.0625   0.0625   0.0625   0.0625   0.0625   0.0625   0.0625
     0.0625   0.0625   0.0625   0.0625   0.0625   0.0625   0.0625   0.0625
     0.0625   0.0625   0.0625   0.0625   0.0625   0.0625   0.0625   0.0625
     0.0625   0.0625   0.0625   0.0625   0.0625   0.0625   0.0625   0.0625
     0.0625   0.0625   0.0625   0.0602   0.0583   0.0577   0.0015   0.0008
     0.0000   0.0000   0.0000   0.0000   0.0000   0.0000

          k = 0.4942 0.2853-0.2053 (  2202 PWs)   bands (ev):

   -19.7205 -19.7192  -6.7294  -6.7112  -5.9691  -5.9578  -5.5312  -5.5123
    -3.3927  -3.3920  -2.7989  -2.7942  -2.5100  -2.5062   5.9561   5.9775
     7.0124   7.0304   7.1540   7.1659   7.3881   7.4257   7.4811   7.5010
     7.7128   7.7355   9.4228   9.4295   9.8410   9.8535  10.2495  10.2599
    10.6209  10.6386  10.7747  10.7969  11.0387  11.0536  13.2640  13.3012
    13.3477  13.3873  16.8301  16.8374  17.1287  17.1336

     occupation numbers 
     0.0313   0.0313   0.0313   0.0313   0.0313   0.0313   0.0313   0.0313
     0.0313   0.0313   0.0313   0.0313   0.0313   0.0313   0.0313   0.0313
     0.0313   0.0313   0.0313   0.0313   0.0313   0.0313   0.0313   0.0313
     0.0313   0.0313   0.0312   0.0312   0.0312   0.0312   0.0312   0.0312
     0.0312   0.0312   0.0312   0.0312   0.0310   0.0309   0.0000   0.0000
     0.0000   0.0000   0.0000   0.0000   0.0000   0.0000

          k =-0.2471 0.1427 0.2053 (  2195 PWs)   bands (ev):

   -19.7661 -19.6671  -6.8578  -6.2408  -6.0747  -5.8214  -5.6470  -5.4710
    -3.4290  -3.2691  -3.1109  -2.9024  -2.8289  -2.5630   5.5561   6.5161
     6.6874   6.8166   7.1441   7.2784   7.3553   7.4123   7.4735   8.3217
     8.3305   8.7472   9.2261   9.3349   9.8620   9.8890   9.9991  10.0818
    10.2583  10.7888  10.9320  10.9469  11.2184  11.2942  11.8823  12.7075
    13.6083  14.7529  15.9919  16.1943  17.0368  17.5372

     occupation numbers 
     0.0625   0.0625   0.0625   0.0625   0.0625   0.0625   0.0625   0.0625
     0.0625   0.0625   0.0625   0.0625   0.0625   0.0625   0.0625   0.0625
     0.0625   0.0625   0.0625   0.0625   0.0625   0.0625   0.0625   0.0625
     0.0625   0.0625   0.0625   0.0625   0.0625   0.0625   0.0625   0.0625
     0.0625   0.0625   0.0623   0.0623   0.0599   0.0581   0.0180   0.0000
     0.0000   0.0000   0.0000   0.0000   0.0000   0.0000

          k = 0.4942 0.5706-0.1027 (  2198 PWs)   bands (ev):

   -19.7332 -19.7073  -6.9615  -6.6450  -6.1359  -5.8802  -5.5067  -5.3929
    -3.3156  -3.2599  -2.8802  -2.7131  -2.5310  -2.3888   5.8348   6.1435
     6.3850   6.8878   7.0914   7.2230   7.2926   7.4758   7.5031   7.6374
     8.0128   8.5965   8.9365   9.2264   9.5467   9.7667   9.8482  10.3035
    10.3569  10.7840  10.8942  10.9721  11.1117  11.2190  12.2852  12.7153
    13.3990  14.3318  16.9038  17.1131  17.3070  18.0134

     occupation numbers 
     0.0625   0.0625   0.0625   0.0625   0.0625   0.0625   0.0625   0.0625
     0.0625   0.0625   0.0625   0.0625   0.0625   0.0625   0.0625   0.0625
     0.0625   0.0625   0.0625   0.0625   0.0625   0.0625   0.0625   0.0625
     0.0625   0.0625   0.0625   0.0625   0.0625   0.0625   0.0625   0.0625
     0.0625   0.0625   0.0624   0.0622   0.0614   0.0599   0.0016   0.0000
     0.0000   0.0000   0.0000   0.0000   0.0000   0.0000

          k = 0.2471 0.4280 0.0000 (  2203 PWs)   bands (ev):

   -19.7449 -19.6942  -6.8435  -6.6469  -6.0388  -5.9873  -5.4462  -5.3657
    -3.5372  -3.2989  -2.8056  -2.7082  -2.5728  -2.5656   5.8272   6.1693
     6.6578   6.9838   7.0543   7.1150   7.3413   7.3434   7.4001   7.7337
     7.9381   8.8710   8.8837   9.3396   9.7328   9.7497  10.0272  10.3264
    10.6103  10.6450  10.8025  10.9242  10.9375  11.3092  12.2012  13.2947
    13.3719  14.1237  16.4327  16.9931  17.4204  17.9239

     occupation numbers 
     0.0625   0.0625   0.0625   0.0625   0.0625   0.0625   0.0625   0.0625
     0.0625   0.0625   0.0625   0.0625   0.0625   0.0625   0.0625   0.0625
     0.0625   0.0625   0.0625   0.0625   0.0625   0.0625   0.0625   0.0625
     0.0625   0.0625   0.0625   0.0625   0.0625   0.0625   0.0625   0.0625
     0.0625   0.0625   0.0625   0.0623   0.0623   0.0577   0.0030   0.0000
     0.0000   0.0000   0.0000   0.0000   0.0000   0.0000

          k = 0.4942-0.2853-0.4107 (  2202 PWs)   bands (ev):

   -19.7329 -19.7082  -7.1738  -6.4560  -6.2458  -5.9539  -5.5190  -5.3013
    -3.2029  -3.1214  -3.0530  -2.6533  -2.4837  -2.2257   5.7624   5.8629
     6.1420   6.8037   7.1397   7.2504   7.3126   7.4738   7.9537   7.9618
     8.1504   8.2771   8.5980   9.3736   9.3862   9.6581  10.0171  10.0568
    10.4045  10.6971  10.8555  11.0075  11.1377  11.3491  11.8244  12.3953
    13.3008  14.7668  17.0430  17.2643  17.5197  17.6115

     occupation numbers 
     0.0313   0.0313   0.0313   0.0313   0.0313   0.0313   0.0313   0.0313
     0.0313   0.0313   0.0313   0.0313   0.0313   0.0313   0.0313   0.0313
     0.0313   0.0313   0.0313   0.0313   0.0313   0.0313   0.0313   0.0313
     0.0313   0.0313   0.0313   0.0312   0.0312   0.0312   0.0312   0.0312
     0.0312   0.0312   0.0312   0.0310   0.0306   0.0282   0.0112   0.0003
     0.0000   0.0000   0.0000   0.0000   0.0000   0.0000

          k = 0.0000 0.0000 0.3080 (  2187 PWs)   bands (ev):

   -19.7727 -19.6598  -6.6150  -5.9861  -5.9432  -5.9297  -5.8493  -5.8320
    -3.2147  -3.1329  -3.1304  -2.9715  -2.9011  -2.8989   5.5841   6.8616
     6.9007   6.9093   7.0905   7.1512   7.1566   7.4701   7.4814   8.4418
     8.4437   8.8480   9.4234   9.5263   9.5370   9.7144  10.0953  10.1054
    10.4287  10.4329  10.6508  11.2491  11.2516  11.3036  12.2643  12.2656
    14.2406  14.2430  15.9091  15.9110  16.8785  17.4797

     occupation numbers 
     0.0625   0.0625   0.0625   0.0625   0.0625   0.0625   0.0625   0.0625
     0.0625   0.0625   0.0625   0.0625   0.0625   0.0625   0.0625   0.0625
     0.0625   0.0625   0.0625   0.0625   0.0625   0.0625   0.0625   0.0625
     0.0625   0.0625   0.0625   0.0625   0.0625   0.0625   0.0625   0.0625
     0.0625   0.0625   0.0625   0.0593   0.0592   0.0579   0.0019   0.0018
     0.0000   0.0000   0.0000   0.0000   0.0000   0.0000

          k = 0.7412 0.4280 0.0000 (  2204 PWs)   bands (ev):

   -19.7442 -19.6955  -6.7341  -6.6019  -6.1455  -5.8339  -5.6887  -5.5439
    -3.1873  -3.0976  -3.0472  -2.6800  -2.6621  -2.5867   5.8792   6.4197
     6.5598   6.9987   7.0778   7.2126   7.2577   7.3886   7.4565   7.6727
     8.0158   8.6884   8.9588   9.4428   9.5227   9.6596   9.8180  10.2023
    10.6099  10.7533  10.8162  10.9932  11.0334  11.1364  12.2009  13.2147
    13.2863  14.1536  16.6860  16.7229  17.5892  17.7924

     occupation numbers 
     0.0625   0.0625   0.0625   0.0625   0.0625   0.0625   0.0625   0.0625
     0.0625   0.0625   0.0625   0.0625   0.0625   0.0625   0.0625   0.0625
     0.0625   0.0625   0.0625   0.0625   0.0625   0.0625   0.0625   0.0625
     0.0625   0.0625   0.0625   0.0625   0.0625   0.0625   0.0625   0.0625
     0.0625   0.0625   0.0624   0.0621   0.0620   0.0612   0.0030   0.0000
     0.0000   0.0000   0.0000   0.0000   0.0000   0.0000

          k = 0.4942 0.2853 0.1027 (  2211 PWs)   bands (ev):

   -19.7346 -19.7072  -6.9687  -6.5438  -6.3221  -5.7030  -5.6266  -5.3554
    -3.3288  -3.1683  -3.0396  -2.6039  -2.5651  -2.3786   5.8565   6.1383
     6.3210   6.8672   7.1106   7.1497   7.3337   7.4209   7.5793   7.6349
     8.0670   8.6451   8.9371   9.3616   9.3885   9.6392   9.9642  10.2122
    10.4325  10.8544  10.9928  11.0086  11.0490  11.0797  12.2394  12.7291
    13.4491  14.3114  16.8835  16.9337  17.5780  17.9255

     occupation numbers 
     0.0625   0.0625   0.0625   0.0625   0.0625   0.0625   0.0625   0.0625
     0.0625   0.0625   0.0625   0.0625   0.0625   0.0625   0.0625   0.0625
     0.0625   0.0625   0.0625   0.0625   0.0625   0.0625   0.0625   0.0625
     0.0625   0.0625   0.0625   0.0625   0.0625   0.0625   0.0625   0.0625
     0.0625   0.0624   0.0621   0.0621   0.0619   0.0617   0.0023   0.0000
     0.0000   0.0000   0.0000   0.0000   0.0000   0.0000

          k = 0.7412-0.4280-0.3080 (  2210 PWs)   bands (ev):

   -19.7335 -19.7076  -6.9147  -6.4514  -6.3030  -5.7932  -5.7499  -5.4954
    -3.0756  -3.0595  -2.9664  -2.7343  -2.6269  -2.4314   5.9471   6.2672
     6.3750   6.8485   7.0885   7.2023   7.3766   7.4514   7.6179   7.6501
     8.0248   8.6636   8.8128   9.3504   9.4626   9.4738   9.6285  10.1505
    10.4815  10.8561  10.9523  10.9990  11.1168  11.1386  12.1997  12.6820
    13.3945  14.2834  17.0587  17.0679  17.5457  17.9015

     occupation numbers 
     0.0625   0.0625   0.0625   0.0625   0.0625   0.0625   0.0625   0.0625
     0.0625   0.0625   0.0625   0.0625   0.0625   0.0625   0.0625   0.0625
     0.0625   0.0625   0.0625   0.0625   0.0625   0.0625   0.0625   0.0625
     0.0625   0.0625   0.0625   0.0625   0.0625   0.0625   0.0625   0.0625
     0.0625   0.0624   0.0623   0.0621   0.0614   0.0611   0.0030   0.0000
     0.0000   0.0000   0.0000   0.0000   0.0000   0.0000

          k = 0.4942-0.5706-0.2053 (  2206 PWs)   bands (ev):

   -19.7218 -19.7214  -6.8900  -6.8758  -6.0411  -6.0209  -5.4364  -5.4223
    -3.1569  -3.1564  -2.8195  -2.8160  -2.3866  -2.3838   6.0014   6.0227
     6.5102   6.5223   7.0096   7.0124   7.3115   7.3210   7.6424   7.6753
     8.6453   8.6571   8.7813   8.7991   9.4780   9.4871  10.0322  10.0389
    10.6506  10.6531  10.8477  10.8595  11.1735  11.1842  12.2511  12.2553
    13.9747  13.9853  17.4235  17.4256  17.8682  17.8695

[...]
     0.0625   0.0625   0.0625   0.0625   0.0625   0.0625   0.0625   0.0625
     0.0625   0.0625   0.0625   0.0625   0.0625   0.0625   0.0625   0.0625
     0.0625   0.0625   0.0623   0.0623   0.0599   0.0582   0.0181   0.0000
     0.0000   0.0000   0.0000   0.0000   0.0000   0.0000

          k = 0.4942-0.5706 0.1027 (  2198 PWs)   bands (ev):

   -19.7340 -19.7078  -6.9529  -6.6462  -6.1281  -5.8964  -5.5172  -5.3811
    -3.3154  -3.2595  -2.8817  -2.7094  -2.5307  -2.3859   5.8194   6.1604
     6.3682   6.8840   7.0889   7.2211   7.3057   7.4580   7.4856   7.6546
     8.0317   8.5949   8.9402   9.2318   9.5375   9.7717   9.8488  10.3035
    10.3501  10.7832  10.8981  10.9650  11.1205  11.2222  12.2842  12.7145
    13.4025  14.3297  16.9057  17.1083  17.3070  18.0133

     occupation numbers 
     0.0625   0.0625   0.0625   0.0625   0.0625   0.0625   0.0625   0.0625
     0.0625   0.0625   0.0625   0.0625   0.0625   0.0625   0.0625   0.0625
     0.0625   0.0625   0.0625   0.0625   0.0625   0.0625   0.0625   0.0625
     0.0625   0.0625   0.0625   0.0625   0.0625   0.0625   0.0625   0.0625
     0.0625   0.0625   0.0624   0.0622   0.0613   0.0599   0.0016   0.0000
     0.0000   0.0000   0.0000   0.0000   0.0000   0.0000

          k =-0.7412 0.1427-0.1027 (  2198 PWs)   bands (ev):

   -19.7340 -19.7078  -6.9525  -6.6470  -6.1271  -5.8975  -5.5162  -5.3818
    -3.3147  -3.2596  -2.8816  -2.7104  -2.5302  -2.3862   5.8219   6.1544
     6.3738   6.8822   7.0877   7.2191   7.2953   7.4707   7.5003   7.6428
     8.0285   8.5916   8.9431   9.2323   9.5400   9.7716   9.8489  10.3014
    10.3505  10.7893  10.8921  10.9665  11.1136  11.2273  12.2843  12.7147
    13.4026  14.3299  16.9039  17.1112  17.3064  18.0130

     occupation numbers 
     0.0625   0.0625   0.0625   0.0625   0.0625   0.0625   0.0625   0.0625
     0.0625   0.0625   0.0625   0.0625   0.0625   0.0625   0.0625   0.0625
     0.0625   0.0625   0.0625   0.0625   0.0625   0.0625   0.0625   0.0625
     0.0625   0.0625   0.0625   0.0625   0.0625   0.0625   0.0625   0.0625
     0.0625   0.0625   0.0624   0.0622   0.0614   0.0598   0.0016   0.0000
     0.0000   0.0000   0.0000   0.0000   0.0000   0.0000

          k = 0.2471-0.7133-0.1027 (  2198 PWs)   bands (ev):

   -19.7340 -19.7078  -6.9522  -6.6475  -6.1261  -5.8984  -5.5170  -5.3807
    -3.3148  -3.2597  -2.8813  -2.7113  -2.5301  -2.3859   5.8226   6.1542
     6.3753   6.8814   7.0861   7.2232   7.2928   7.4673   7.5039   7.6421
     8.0283   8.5914   8.9405   9.2322   9.5446   9.7675   9.8521  10.2985
    10.3518  10.7874  10.8936  10.9734  11.1085  11.2261  12.2844  12.7147
    13.4026  14.3300  16.9024  17.1133  17.3065  18.0140

     occupation numbers 
     0.0625   0.0625   0.0625   0.0625   0.0625   0.0625   0.0625   0.0625
     0.0625   0.0625   0.0625   0.0625   0.0625   0.0625   0.0625   0.0625
     0.0625   0.0625   0.0625   0.0625   0.0625   0.0625   0.0625   0.0625
     0.0625   0.0625   0.0625   0.0625   0.0625   0.0625   0.0625   0.0625
     0.0625   0.0625   0.0624   0.0622   0.0614   0.0598   0.0016   0.0000
     0.0000   0.0000   0.0000   0.0000   0.0000   0.0000

          k =-0.7412-0.1427 0.1027 (  2198 PWs)   bands (ev):

   -19.7340 -19.7078  -6.9526  -6.6466  -6.1272  -5.8973  -5.5179  -5.3800
    -3.3155  -3.2597  -2.8814  -2.7102  -2.5307  -2.3856   5.8200   6.1602
     6.3698   6.8829   7.0875   7.2250   7.3034   7.4560   7.4874   7.6542
     8.0314   8.5948   8.9377   9.2316   9.5420   9.7677   9.8520  10.3008
    10.3514  10.7812  10.8997  10.9718  11.1153  11.2211  12.2843  12.7144
    13.4025  14.3297  16.9043  17.1105  17.3071  18.0142

     occupation numbers 
     0.0625   0.0625   0.0625   0.0625   0.0625   0.0625   0.0625   0.0625
     0.0625   0.0625   0.0625   0.0625   0.0625   0.0625   0.0625   0.0625
     0.0625   0.0625   0.0625   0.0625   0.0625   0.0625   0.0625   0.0625
     0.0625   0.0625   0.0625   0.0625   0.0625   0.0625   0.0625   0.0625
     0.0625   0.0625   0.0624   0.0622   0.0614   0.0599   0.0016   0.0000
     0.0000   0.0000   0.0000   0.0000   0.0000   0.0000

          k = 0.2471 0.7133 0.1027 (  2198 PWs)   bands (ev):

   -19.7332 -19.7073  -6.9620  -6.6442  -6.1369  -5.8792  -5.5077  -5.3922
    -3.3164  -3.2599  -2.8803  -2.7120  -2.5316  -2.3885   5.8322   6.1492
     6.3797   6.8894   7.0924   7.2265   7.3017   7.4632   7.4877   7.6499
     8.0159   8.5999   8.9336   9.2258   9.5442   9.7672   9.8480  10.3057
    10.3565  10.7779  10.9005  10.9704  11.1185  11.2139  12.2851  12.7150
    13.3989  14.3316  16.9057  17.1102  17.3075  18.0137

     occupation numbers 
     0.0625   0.0625   0.0625   0.0625   0.0625   0.0625   0.0625   0.0625
     0.0625   0.0625   0.0625   0.0625   0.0625   0.0625   0.0625   0.0625
     0.0625   0.0625   0.0625   0.0625   0.0625   0.0625   0.0625   0.0625
     0.0625   0.0625   0.0625   0.0625   0.0625   0.0625   0.0625   0.0625
     0.0625   0.0625   0.0624   0.0622   0.0613   0.0600   0.0016   0.0000
     0.0000   0.0000   0.0000   0.0000   0.0000   0.0000

          k = 0.2471-0.4280 0.0000 (  2203 PWs)   bands (ev):

   -19.7448 -19.6944  -6.8482  -6.6375  -6.0579  -5.9768  -5.4372  -5.3707
    -3.5356  -3.2990  -2.8036  -2.7124  -2.5747  -2.5631   5.8376   6.1655
     6.6602   6.9811   7.0445   7.1169   7.3315   7.3476   7.4033   7.7259
     7.9307   8.8782   8.8961   9.3584   9.7262   9.7466  10.0275  10.3222
    10.6072  10.6416  10.8004  10.9201  10.9379  11.3172  12.2007  13.2930
    13.3703  14.1268  16.4332  16.9912  17.4184  17.9246

     occupation numbers 
     0.0625   0.0625   0.0625   0.0625   0.0625   0.0625   0.0625   0.0625
     0.0625   0.0625   0.0625   0.0625   0.0625   0.0625   0.0625   0.0625
     0.0625   0.0625   0.0625   0.0625   0.0625   0.0625   0.0625   0.0625
     0.0625   0.0625   0.0625   0.0625   0.0625   0.0625   0.0625   0.0625
     0.0625   0.0625   0.0625   0.0623   0.0623   0.0574   0.0030   0.0000
     0.0000   0.0000   0.0000   0.0000   0.0000   0.0000

          k =-0.4942 0.0000 0.0000 (  2203 PWs)   bands (ev):

   -19.7448 -19.6944  -6.8482  -6.6375  -6.0580  -5.9768  -5.4372  -5.3707
    -3.5356  -3.2990  -2.8036  -2.7124  -2.5748  -2.5630   5.8376   6.1655
     6.6601   6.9808   7.0462   7.1159   7.3307   7.3478   7.4031   7.7264
     7.9307   8.8782   8.8960   9.3584   9.7255   9.7475  10.0273  10.3222
    10.6073  10.6418  10.8005  10.9202  10.9375  11.3172  12.2007  13.2930
    13.3703  14.1268  16.4332  16.9912  17.4184  17.9245

     occupation numbers 
     0.0625   0.0625   0.0625   0.0625   0.0625   0.0625   0.0625   0.0625
     0.0625   0.0625   0.0625   0.0625   0.0625   0.0625   0.0625   0.0625
     0.0625   0.0625   0.0625   0.0625   0.0625   0.0625   0.0625   0.0625
     0.0625   0.0625   0.0625   0.0625   0.0625   0.0625   0.0625   0.0625
     0.0625   0.0625   0.0625   0.0623   0.0623   0.0574   0.0030   0.0000
     0.0000   0.0000   0.0000   0.0000   0.0000   0.0000

          k = 0.4942 0.2853 0.4107 (  2202 PWs)   bands (ev):

   -19.7344 -19.7093  -7.1630  -6.4516  -6.2343  -5.9760  -5.5356  -5.2889
    -3.2022  -3.1206  -3.0526  -2.6494  -2.4813  -2.2223   5.7455   5.8486
     6.1603   6.7980   7.1267   7.2357   7.3032   7.4695   7.9678   7.9753
     8.1486   8.2983   8.5815   9.3727   9.4070   9.6631  10.0183  10.0503
    10.3972  10.6957  10.8595  11.0039  11.1370  11.3583  11.8239  12.3943
    13.3052  14.7649  17.0419  17.2637  17.5173  17.6097

     occupation numbers 
     0.0313   0.0313   0.0313   0.0313   0.0313   0.0313   0.0313   0.0313
     0.0313   0.0313   0.0313   0.0313   0.0313   0.0313   0.0313   0.0313
     0.0313   0.0313   0.0313   0.0313   0.0313   0.0313   0.0313   0.0313
     0.0313   0.0313   0.0313   0.0312   0.0312   0.0312   0.0312   0.0312
     0.0312   0.0312   0.0312   0.0310   0.0306   0.0280   0.0113   0.0003
     0.0000   0.0000   0.0000   0.0000   0.0000   0.0000

          k = 0.0000 0.5706-0.4107 (  2202 PWs)   bands (ev):

   -19.7344 -19.7093  -7.1630  -6.4515  -6.2344  -5.9760  -5.5356  -5.2890
    -3.2022  -3.1206  -3.0526  -2.6494  -2.4813  -2.2223   5.7454   5.8485
     6.1603   6.7980   7.1267   7.2357   7.3035   7.4692   7.9678   7.9753
     8.1484   8.2985   8.5815   9.3727   9.4070   9.6631  10.0181  10.0504
    10.3973  10.6957  10.8592  11.0045  11.1367  11.3583  11.8239  12.3943
    13.3052  14.7649  17.0419  17.2637  17.5173  17.6097

     occupation numbers 
     0.0313   0.0313   0.0313   0.0313   0.0313   0.0313   0.0313   0.0313
     0.0313   0.0313   0.0313   0.0313   0.0313   0.0313   0.0313   0.0313
     0.0313   0.0313   0.0313   0.0313   0.0313   0.0313   0.0313   0.0313
     0.0313   0.0313   0.0313   0.0312   0.0312   0.0312   0.0312   0.0312
     0.0312   0.0312   0.0312   0.0310   0.0306   0.0280   0.0113   0.0003
     0.0000   0.0000   0.0000   0.0000   0.0000   0.0000

          k = 0.7412-0.4280 0.0000 (  2204 PWs)   bands (ev):

   -19.7443 -19.6954  -6.7293  -6.6105  -6.1410  -5.8299  -5.6826  -5.5552
    -3.1886  -3.0974  -3.0472  -2.6781  -2.6594  -2.5891   5.8660   6.4288
     6.5498   7.0050   7.0848   7.2207   7.2563   7.3824   7.4622   7.6804
     8.0225   8.6803   8.9451   9.4263   9.5263   9.6628   9.8186  10.2065
    10.6138  10.7564  10.8191  10.9974  11.0309  11.1310  12.2010  13.2163
    13.2880  14.1506  16.6845  16.7239  17.5906  17.7927

     occupation numbers 
     0.0625   0.0625   0.0625   0.0625   0.0625   0.0625   0.0625   0.0625
     0.0625   0.0625   0.0625   0.0625   0.0625   0.0625   0.0625   0.0625
     0.0625   0.0625   0.0625   0.0625   0.0625   0.0625   0.0625   0.0625
     0.0625   0.0625   0.0625   0.0625   0.0625   0.0625   0.0625   0.0625
     0.0625   0.0625   0.0624   0.0621   0.0620   0.0612   0.0030   0.0000
     0.0000   0.0000   0.0000   0.0000   0.0000   0.0000

          k = 0.0000-0.8559 0.0000 (  2204 PWs)   bands (ev):

   -19.7442 -19.6955  -6.7341  -6.6019  -6.1455  -5.8338  -5.6887  -5.5440
    -3.1873  -3.0976  -3.0471  -2.6801  -2.6620  -2.5867   5.8792   6.4199
     6.5597   6.9988   7.0761   7.2142   7.2578   7.3887   7.4571   7.6720
     8.0158   8.6884   8.9588   9.4428   9.5227   9.6598   9.8179  10.2023
    10.6098  10.7533  10.8162  10.9933  11.0333  11.1365  12.2009  13.2147
    13.2863  14.1536  16.6860  16.7229  17.5892  17.7924

     occupation numbers 
     0.0625   0.0625   0.0625   0.0625   0.0625   0.0625   0.0625   0.0625
     0.0625   0.0625   0.0625   0.0625   0.0625   0.0625   0.0625   0.0625
     0.0625   0.0625   0.0625   0.0625   0.0625   0.0625   0.0625   0.0625
     0.0625   0.0625   0.0625   0.0625   0.0625   0.0625   0.0625   0.0625
     0.0625   0.0625   0.0624   0.0621   0.0620   0.0612   0.0030   0.0000
     0.0000   0.0000   0.0000   0.0000   0.0000   0.0000

          k = 0.4942-0.2853-0.1027 (  2211 PWs)   bands (ev):

   -19.7338 -19.7067  -6.9775  -6.5420  -6.3237  -5.6981  -5.6138  -5.3651
    -3.3290  -3.1684  -3.0399  -2.6056  -2.5652  -2.3814   5.8684   6.1244
     6.3341   6.8695   7.1160   7.1540   7.3388   7.4199   7.5803   7.6304
     8.0522   8.6516   8.9314   9.3654   9.3960   9.6210   9.9603  10.2178
    10.4399  10.8534  10.9921  11.0070  11.0484  11.0769  12.2402  12.7296
    13.4456  14.3134  16.8841  16.9334  17.5775  17.9258

     occupation numbers 
     0.0625   0.0625   0.0625   0.0625   0.0625   0.0625   0.0625   0.0625
     0.0625   0.0625   0.0625   0.0625   0.0625   0.0625   0.0625   0.0625
     0.0625   0.0625   0.0625   0.0625   0.0625   0.0625   0.0625   0.0625
     0.0625   0.0625   0.0625   0.0625   0.0625   0.0625   0.0625   0.0625
     0.0625   0.0624   0.0621   0.0621   0.0619   0.0617   0.0022   0.0000
     0.0000   0.0000   0.0000   0.0000   0.0000   0.0000

          k = 0.0000-0.5706 0.1027 (  2211 PWs)   bands (ev):

   -19.7346 -19.7072  -6.9687  -6.5437  -6.3221  -5.7031  -5.6265  -5.3555
    -3.3288  -3.1683  -3.0396  -2.6039  -2.5650  -2.3786   5.8565   6.1382
     6.3211   6.8672   7.1101   7.1502   7.3340   7.4208   7.5795   7.6345
     8.0671   8.6451   8.9371   9.3611   9.3890   9.6392   9.9642  10.2122
    10.4326  10.8544  10.9921  11.0101  11.0477  11.0802  12.2394  12.7291
    13.4492  14.3114  16.8835  16.9337  17.5780  17.9255

     occupation numbers 
     0.0625   0.0625   0.0625   0.0625   0.0625   0.0625   0.0625   0.0625
     0.0625   0.0625   0.0625   0.0625   0.0625   0.0625   0.0625   0.0625
     0.0625   0.0625   0.0625   0.0625   0.0625   0.0625   0.0625   0.0625
     0.0625   0.0625   0.0625   0.0625   0.0625   0.0625   0.0625   0.0625
     0.0625   0.0624   0.0621   0.0621   0.0619   0.0617   0.0023   0.0000
     0.0000   0.0000   0.0000   0.0000   0.0000   0.0000

          k = 0.7412 0.4280 0.3080 (  2210 PWs)   bands (ev):

   -19.7343 -19.7081  -6.9050  -6.4534  -6.2996  -5.8003  -5.7649  -5.4837
    -3.0752  -3.0596  -2.9675  -2.7319  -2.6255  -2.4288   5.9333   6.2839
     6.3620   6.8441   7.0819   7.1981   7.3710   7.4549   7.6158   7.6532
     8.0409   8.6570   8.8190   9.3498   9.4607   9.4820   9.6312  10.1451
    10.4772  10.8591  10.9523  10.9965  11.1216  11.1406  12.1991  12.6815
    13.3980  14.2814  17.0576  17.0678  17.5465  17.9010

     occupation numbers 
     0.0625   0.0625   0.0625   0.0625   0.0625   0.0625   0.0625   0.0625
     0.0625   0.0625   0.0625   0.0625   0.0625   0.0625   0.0625   0.0625
     0.0625   0.0625   0.0625   0.0625   0.0625   0.0625   0.0625   0.0625
     0.0625   0.0625   0.0625   0.0625   0.0625   0.0625   0.0625   0.0625
     0.0625   0.0624   0.0623   0.0621   0.0613   0.0611   0.0030   0.0000
     0.0000   0.0000   0.0000   0.0000   0.0000   0.0000

          k = 0.0000 0.8559-0.3080 (  2210 PWs)   bands (ev):

   -19.7343 -19.7081  -6.9050  -6.4534  -6.2996  -5.8003  -5.7649  -5.4837
    -3.0752  -3.0596  -2.9675  -2.7320  -2.6255  -2.4288   5.9332   6.2840
     6.3619   6.8442   7.0818   7.1983   7.3713   7.4543   7.6140   7.6553
     8.0407   8.6568   8.8190   9.3500   9.4607   9.4819   9.6311  10.1451
    10.4772  10.8589  10.9533  10.9957  11.1218  11.1404  12.1991  12.6815
    13.3980  14.2814  17.0576  17.0678  17.5465  17.9010

     occupation numbers 
     0.0625   0.0625   0.0625   0.0625   0.0625   0.0625   0.0625   0.0625
     0.0625   0.0625   0.0625   0.0625   0.0625   0.0625   0.0625   0.0625
     0.0625   0.0625   0.0625   0.0625   0.0625   0.0625   0.0625   0.0625
     0.0625   0.0625   0.0625   0.0625   0.0625   0.0625   0.0625   0.0625
     0.0625   0.0624   0.0623   0.0621   0.0613   0.0611   0.0030   0.0000
     0.0000   0.0000   0.0000   0.0000   0.0000   0.0000

          k = 0.2471 0.7133-0.2053 (  2206 PWs)   bands (ev):

   -19.7218 -19.7214  -6.8901  -6.8756  -6.0413  -6.0207  -5.4363  -5.4223
    -3.1569  -3.1564  -2.8194  -2.8161  -2.3870  -2.3835   6.0014   6.0227
     6.5110   6.5215   7.0096   7.0125   7.3114   7.3210   7.6433   7.6745
     8.6451   8.6570   8.7837   8.7969   9.4773   9.4878  10.0332  10.0378
    10.6493  10.6544  10.8519  10.8552  11.1746  11.1832  12.2510  12.2554
    13.9747  13.9853  17.4238  17.4253  17.8669  17.8708

     occupation numbers 
     0.0625   0.0625   0.0625   0.0625   0.0625   0.0625   0.0625   0.0625
     0.0625   0.0625   0.0625   0.0625   0.0625   0.0625   0.0625   0.0625
     0.0625   0.0625   0.0625   0.0625   0.0625   0.0625   0.0625   0.0625
     0.0625   0.0625   0.0625   0.0625   0.0625   0.0625   0.0625   0.0625
     0.0625   0.0625   0.0624   0.0624   0.0607   0.0605   0.0021   0.0020
     0.0000   0.0000   0.0000   0.0000   0.0000   0.0000

          k =-0.7412-0.1427-0.2053 (  2206 PWs)   bands (ev):

   -19.7223 -19.7222  -6.8886  -6.8649  -6.0405  -6.0390  -5.4370  -5.4153
    -3.1566  -3.1553  -2.8195  -2.8185  -2.3869  -2.3775   6.0058   6.0240
     6.5084   6.5117   6.9847   7.0127   7.3058   7.3105   7.6520   7.6808
     8.6537   8.6584   8.7971   8.8027   9.4906   9.4925  10.0253  10.0278
    10.6437  10.6473  10.8515  10.8588  11.1803  11.1859  12.2499  12.2549
    13.9753  13.9859  17.4248  17.4255  17.8665  17.8689

     occupation numbers 
     0.0625   0.0625   0.0625   0.0625   0.0625   0.0625   0.0625   0.0625
     0.0625   0.0625   0.0625   0.0625   0.0625   0.0625   0.0625   0.0625
     0.0625   0.0625   0.0625   0.0625   0.0625   0.0625   0.0625   0.0625
     0.0625   0.0625   0.0625   0.0625   0.0625   0.0625   0.0625   0.0625
     0.0625   0.0625   0.0624   0.0624   0.0606   0.0605   0.0021   0.0020
     0.0000   0.0000   0.0000   0.0000   0.0000   0.0000

     the Fermi energy is    11.7208 ev

!    total energy              =    -538.11591500 Ry
     Harris-Foulkes estimate   =    -538.11590049 Ry
     estimated scf accuracy    <          7.0E-09 Ry

     The total energy is the sum of the following terms:

     one-electron contribution =     -32.91127592 Ry
     hartree contribution      =      83.66601747 Ry
     xc contribution           =    -199.60950131 Ry
     ewald contribution        =    -389.44315552 Ry
     Hubbard energy            =       0.19522552 Ry
     smearing contrib. (-TS)   =      -0.01322525 Ry

     convergence has been achieved in  12 iterations

     init_run     :      6.90s CPU      7.06s WALL (       1 calls)
     electrons    :    499.79s CPU    513.80s WALL (       1 calls)

     Called by init_run:
     wfcinit      :      0.00s CPU      0.00s WALL (       1 calls)
     potinit      :      0.29s CPU      0.35s WALL (       1 calls)

     Called by electrons:
     c_bands      :    381.35s CPU    390.56s WALL (      12 calls)
     sum_band     :     86.47s CPU     89.69s WALL (      12 calls)
     v_of_rho     :      4.44s CPU      4.55s WALL (      13 calls)
     v_h          :      0.26s CPU      0.26s WALL (      13 calls)
     v_xc         :      4.18s CPU      4.28s WALL (      13 calls)
     newd         :     28.13s CPU     28.34s WALL (      13 calls)
     mix_rho      :      0.45s CPU      0.45s WALL (      12 calls)

     Called by c_bands:
     init_us_2    :      3.68s CPU      3.74s WALL (     864 calls)
     cegterg      :    371.18s CPU    379.44s WALL (     432 calls)

     Called by sum_band:
     sum_band:bec :      0.32s CPU      0.33s WALL (     432 calls)
     addusdens    :     16.42s CPU     16.54s WALL (      12 calls)

     Called by *egterg:
     h_psi        :    280.28s CPU    286.82s WALL (    1689 calls)
     s_psi        :     15.02s CPU     15.03s WALL (    1689 calls)
     g_psi        :      1.07s CPU      1.08s WALL (    1257 calls)
     cdiaghg      :     24.21s CPU     24.53s WALL (    1653 calls)
     cegterg:over :     18.74s CPU     19.34s WALL (    1257 calls)
     cegterg:upda :     11.26s CPU     11.29s WALL (    1257 calls)
     cegterg:last :      7.68s CPU      7.75s WALL (     492 calls)

     Called by h_psi:
     h_psi:vloc   :    229.67s CPU    235.43s WALL (    1689 calls)
     h_psi:vnl    :     31.25s CPU     31.51s WALL (    1689 calls)
     add_vuspsi   :     14.91s CPU     14.97s WALL (    1689 calls)
     vhpsi        :     18.59s CPU     19.13s WALL (    1689 calls)

     General routines
     calbec       :     35.72s CPU     36.92s WALL (    4242 calls)
     fft          :      3.52s CPU      3.84s WALL (     203 calls)
     ffts         :      0.07s CPU      0.13s WALL (      25 calls)
     fftw         :    213.64s CPU    221.04s WALL (  121656 calls)
     interpolate  :      0.45s CPU      0.65s WALL (      25 calls)
     davcio       :      0.02s CPU      1.31s WALL (     900 calls)

     Parallel routines
     fft_scatter  :     79.47s CPU     86.99s WALL (  121884 calls)
     Hubbard U routines
     new_ns       :      3.57s CPU      4.17s WALL (      12 calls)
     vhpsi        :     18.59s CPU     19.13s WALL (    1689 calls)

     PWSCF        :  8m27.11s CPU     8m41.39s WALL


   This run was terminated on:  15:11:41  11Nov2012            

=------------------------------------------------------------------------------=
