   JOB DONE.
=------------------------------------------------------------------------------=

     Program PWSCF v.5.0.1 starts on 11Nov2012 at 14:55:47 

     This program is part of the open-source Quantum ESPRESSO suite
     for quantum simulation of materials; please cite
         "P. Giannozzi et al., J. Phys.:Condens. Matter 21 395502 (2009);
          URL http://www.quantum-espresso.org", 
     in publications or presentations arising from this work. More details at
     http://www.quantum-espresso.org/quote.php

     Parallel version (MPI), running on     2 processors
     R & G space division:  proc/pool =    2

     Current dimensions of program PWSCF are:
     Max number of different atomic species (ntypx) = 10
     Max number of k-points (npk) =  40000
     Max angular momentum in pseudopotentials (lmaxx) =  3
     Reading input from CoLaO_U200_a-10.in
               file Co.pbe-nd-rrkjus.UPF: wavefunction(s)  4S 3D renormalized
               file O.pbe-rrkjus.UPF: wavefunction(s)  2S renormalized
               file O.pbe-rrkjus.UPF: wavefunction(s)  2S renormalized

     Subspace diagonalization in iterative solution of the eigenvalue problem:
     a serial algorithm will be used


     Parallelization info
     --------------------
     sticks:   dense  smooth     PW     G-vecs:    dense   smooth      PW
     Min        1112     444    131                34808     8786    1448
     Max        1113     445    132                34809     8787    1449
     Sum        2225     889    263                69617    17573    2897


     Title: 
     GGA + U, U = 2.000, alpha = -0.100                                         


     bravais-lattice index     =            5
     lattice parameter (alat)  =      10.3292  a.u.
     unit-cell volume          =     793.0599 (a.u.)^3
     number of atoms/cell      =           10
     number of atomic types    =            4
     number of electrons       =        76.00
     number of Kohn-Sham states=           46
     kinetic-energy cutoff     =      30.0000  Ry
     charge density cutoff     =     300.0000  Ry
     convergence threshold     =      1.0E-08
     mixing beta               =       0.2000
     number of iterations used =            8  plain     mixing
     Exchange-correlation      =  SLA  PW   PBE  PBE ( 1 4 3 4 0)
     EXX-fraction              =        0.00

     celldm(1)=  10.329242  celldm(2)=   0.000000  celldm(3)=   0.000000
     celldm(4)=   0.488100  celldm(5)=   0.000000  celldm(6)=   0.000000

     crystal axes: (cart. coord. in units of alat)
               a(1) = (   0.505915  -0.292090   0.811624 )  
               a(2) = (   0.000000   0.584180   0.811624 )  
               a(3) = (  -0.505915  -0.292090   0.811624 )  

     reciprocal axes: (cart. coord. in units 2 pi/alat)
               b(1) = (  0.988308 -0.570600  0.410699 )  
               b(2) = (  0.000000  1.141200  0.410699 )  
               b(3) = ( -0.988308 -0.570600  0.410699 )  


     PseudoPot. # 1 for Co read from file:
     /home/mcurnan/dft-course/Project1/example_LaCoO3/Co.pbe-nd-rrkjus.UPF
     MD5 check sum: 3e47a84addf5e975e0edeaeee2a73f59
     Pseudo is Ultrasoft + core correction, Zval =  9.0
     Generated by new atomic code, or converted to UPF format
     Using radial grid of  961 points,  6 beta functions with: 
                l(1) =   0
                l(2) =   0
                l(3) =   1
                l(4) =   1
                l(5) =   2
                l(6) =   2
     Q(r) pseudized with 0 coefficients 


     PseudoPot. # 2 for La read from file:
     /home/mcurnan/dft-course/Project1/example_LaCoO3/La.pbe-nsp-van.UPF
     MD5 check sum: b2f11743f52dde65f77d1302becd7929
     Pseudo is Ultrasoft + core correction, Zval = 11.0
     Generated by new atomic code, or converted to UPF format
     Using radial grid of  907 points,  6 beta functions with: 
                l(1) =   0
                l(2) =   0
                l(3) =   1
                l(4) =   1
                l(5) =   2
                l(6) =   2
     Q(r) pseudized with  6 coefficients,  rinner =    1.200   1.200   1.200
                                                       1.200   1.200

     PseudoPot. # 3 for O  read from file:
     /home/mcurnan/dft-course/Project1/example_LaCoO3/O.pbe-rrkjus.UPF
     MD5 check sum: 390ba29e75625707450f3bd3f0eb6be9
     Pseudo is Ultrasoft, Zval =  6.0
     Generated by new atomic code, or converted to UPF format
     Using radial grid of 1269 points,  4 beta functions with: 
                l(1) =   0
                l(2) =   0
                l(3) =   1
                l(4) =   1
     Q(r) pseudized with 0 coefficients 


     PseudoPot. # 4 for O  read from file:
     /home/mcurnan/dft-course/Project1/example_LaCoO3/O.pbe-rrkjus.UPF
     MD5 check sum: 390ba29e75625707450f3bd3f0eb6be9
     Pseudo is Ultrasoft, Zval =  6.0
     Generated by new atomic code, or converted to UPF format
     Using radial grid of 1269 points,  4 beta functions with: 
                l(1) =   0
                l(2) =   0
                l(3) =   1
                l(4) =   1
     Q(r) pseudized with 0 coefficients 


     atomic species   valence    mass     pseudopotential
        Co1            9.00     1.00000     Co( 1.00)
        La1           11.00     1.00000     La( 1.00)
        O1             6.00     1.00000     O ( 1.00)
        O2             6.00     1.00000     O ( 1.00)
 -----
     simplified LDA+U calculation, Hubbard_lmax = 2
     atomic species  L   Hubbard U  Hubbard alpha
        Co1          2    2.000000    0.000000
        La1          2    0.000000    0.000000
        O1           1    0.000000   -0.100000
        O2           1    0.000000    0.000000
 -----

     No symmetry found


                                    s                        frac. trans.

      isym =  1     identity                                     

 cryst.   s( 1) = (     1          0          0      )
                  (     0          1          0      )
                  (     0          0          1      )

 cart.    s( 1) = (  1.0000000  0.0000000  0.0000000 )
                  (  0.0000000  1.0000000  0.0000000 )
                  (  0.0000000  0.0000000  1.0000000 )


     point group C_1 (1)    
     there are  1 classes
     the character table:

       E    
A      1.00

     the symmetry operations in each class:
     E        1

   Cartesian axes

     site n.     atom                  positions (alat units)
         1           Co1 tau(   1) = (   0.2228050  -0.1992639   1.0141240  )
         2           Co1 tau(   2) = (  -0.2831100   0.0928263   1.4199360  )
         3           La1 tau(   3) = (  -0.2831100   0.0928263   0.8112181  )
         4           La1 tau(   4) = (   0.2228050   0.3849164   1.2170300  )
         5           O1  tau(   5) = (   0.0000000   0.0000000   0.0000000  )
         6           O2  tau(   6) = (   0.0008601   0.1861491   1.6232478  )
         7           O2  tau(   7) = (   0.1616398   0.0923297   0.8116239  )
         8           O2  tau(   8) = (  -0.0603051  -0.1064377   1.2166242  )
         9           O2  tau(   9) = (   0.4447499  -0.0004966   1.2166242  )
        10           O2  tau(  10) = (  -0.2219449   0.3854130   1.2166242  )

   Crystallographic axes

     site n.     atom                  positions (cryst. coord.)
         1           Co1 tau(   1) = (  0.7504000  0.1891000  0.3100000  )
         2           Co1 tau(   2) = (  0.2504000  0.6891000  0.8100000  )
         3           La1 tau(   3) = (  0.0004000  0.4391000  0.5600000  )
         4           La1 tau(   4) = (  0.5004000  0.9391000  0.0600000  )
         5           O1  tau(   5) = (  0.0000000  0.0000000  0.0000000  )
         6           O2  tau(   6) = (  0.5613000  0.8791000  0.5596000  )
         7           O2  tau(   7) = (  0.4404000  0.4387000  0.1209000  )
         8           O2  tau(   8) = (  0.5008000  0.3782000  0.6200000  )
         9           O2  tau(   9) = (  0.9395000  0.4991000  0.0604000  )
        10           O2  tau(  10) = (  0.0604000  0.9395000  0.4991000  )

     number of k points=    36  gaussian smearing, width (Ry)=  0.0300
                       cart. coord. in units 2pi/alat
        k(    1) = (   0.0000000   0.0000000   0.0000000), wk =   0.0312500
        k(    2) = (  -0.2470771  -0.1426500   0.1026748), wk =   0.0625000
        k(    3) = (   0.4941541   0.2853000  -0.2053496), wk =   0.0312500
        k(    4) = (  -0.2470771   0.1426500   0.2053496), wk =   0.0625000
        k(    5) = (   0.4941541   0.5706001  -0.1026748), wk =   0.0625000
        k(    6) = (   0.2470771   0.4279500   0.0000000), wk =   0.0625000
        k(    7) = (   0.4941541  -0.2853000  -0.4106993), wk =   0.0312500
        k(    8) = (   0.0000000   0.0000000   0.3080244), wk =   0.0625000
        k(    9) = (   0.7412312   0.4279500   0.0000000), wk =   0.0625000
        k(   10) = (   0.4941541   0.2853000   0.1026748), wk =   0.0625000
        k(   11) = (   0.7412312  -0.4279500  -0.3080244), wk =   0.0625000
        k(   12) = (   0.4941541  -0.5706001  -0.2053496), wk =   0.0625000
        k(   13) = (   0.0000000   0.0000000  -0.6160489), wk =   0.0312500
        k(   14) = (  -0.2470771   0.1426500  -0.1026748), wk =   0.0625000
        k(   15) = (   0.0000000   0.2853000   0.1026748), wk =   0.0625000
        k(   16) = (   0.4941541  -0.2853000   0.2053496), wk =   0.0312500
        k(   17) = (   0.0000000  -0.5706001  -0.2053496), wk =   0.0312500
        k(   18) = (  -0.2470771  -0.1426500  -0.2053496), wk =   0.0625000
        k(   19) = (   0.0000000  -0.2853000   0.2053496), wk =   0.0625000
        k(   20) = (   0.4941541  -0.5706001   0.1026748), wk =   0.0625000
        k(   21) = (  -0.7412312   0.1426500  -0.1026748), wk =   0.0625000
        k(   22) = (   0.2470771  -0.7132501  -0.1026748), wk =   0.0625000
        k(   23) = (  -0.7412312  -0.1426500   0.1026748), wk =   0.0625000
        k(   24) = (   0.2470771   0.7132501   0.1026748), wk =   0.0625000
        k(   25) = (   0.2470771  -0.4279500   0.0000000), wk =   0.0625000
        k(   26) = (  -0.4941541   0.0000000   0.0000000), wk =   0.0625000
        k(   27) = (   0.4941541   0.2853000   0.4106993), wk =   0.0312500
        k(   28) = (   0.0000000   0.5706001  -0.4106993), wk =   0.0312500
        k(   29) = (   0.7412312  -0.4279500   0.0000000), wk =   0.0625000
        k(   30) = (   0.0000000  -0.8559001   0.0000000), wk =   0.0625000
        k(   31) = (   0.4941541  -0.2853000  -0.1026748), wk =   0.0625000
        k(   32) = (   0.0000000  -0.5706001   0.1026748), wk =   0.0625000
        k(   33) = (   0.7412312   0.4279500   0.3080244), wk =   0.0625000
        k(   34) = (   0.0000000   0.8559001  -0.3080244), wk =   0.0625000
        k(   35) = (   0.2470771   0.7132501  -0.2053496), wk =   0.0625000
        k(   36) = (  -0.7412312  -0.1426500  -0.2053496), wk =   0.0625000

                       cryst. coord.
        k(    1) = (   0.0000000   0.0000000   0.0000000), wk =   0.0312500
        k(    2) = (   0.0000000   0.0000000   0.2500000), wk =   0.0625000
        k(    3) = (   0.0000000   0.0000000  -0.5000000), wk =   0.0312500
        k(    4) = (   0.0000000   0.2500000   0.2500000), wk =   0.0625000
        k(    5) = (   0.0000000   0.2500000  -0.5000000), wk =   0.0625000
        k(    6) = (   0.0000000   0.2500000  -0.2500000), wk =   0.0625000
        k(    7) = (   0.0000000  -0.5000000  -0.5000000), wk =   0.0312500
        k(    8) = (   0.2500000   0.2500000   0.2500000), wk =   0.0625000
        k(    9) = (   0.2500000   0.2500000  -0.5000000), wk =   0.0625000
        k(   10) = (   0.2500000   0.2500000  -0.2500000), wk =   0.0625000
        k(   11) = (   0.2500000  -0.5000000  -0.5000000), wk =   0.0625000
        k(   12) = (   0.2500000  -0.5000000  -0.2500000), wk =   0.0625000
        k(   13) = (  -0.5000000  -0.5000000  -0.5000000), wk =   0.0312500
        k(   14) = (  -0.2500000   0.0000000   0.0000000), wk =   0.0625000
        k(   15) = (   0.0000000   0.2500000   0.0000000), wk =   0.0625000
        k(   16) = (   0.5000000   0.0000000   0.0000000), wk =   0.0312500
        k(   17) = (   0.0000000  -0.5000000   0.0000000), wk =   0.0312500
        k(   18) = (  -0.2500000  -0.2500000   0.0000000), wk =   0.0625000
        k(   19) = (   0.2500000   0.0000000   0.2500000), wk =   0.0625000
        k(   20) = (   0.5000000  -0.2500000   0.0000000), wk =   0.0625000
        k(   21) = (  -0.5000000   0.0000000   0.2500000), wk =   0.0625000
        k(   22) = (   0.2500000  -0.5000000   0.0000000), wk =   0.0625000
        k(   23) = (  -0.2500000   0.0000000   0.5000000), wk =   0.0625000
        k(   24) = (   0.0000000   0.5000000  -0.2500000), wk =   0.0625000
        k(   25) = (   0.2500000  -0.2500000   0.0000000), wk =   0.0625000
        k(   26) = (  -0.2500000   0.0000000   0.2500000), wk =   0.0625000
        k(   27) = (   0.5000000   0.5000000   0.0000000), wk =   0.0312500
        k(   28) = (  -0.5000000   0.0000000  -0.5000000), wk =   0.0312500
        k(   29) = (   0.5000000  -0.2500000  -0.2500000), wk =   0.0625000
        k(   30) = (   0.2500000  -0.5000000   0.2500000), wk =   0.0625000
        k(   31) = (   0.2500000  -0.2500000  -0.2500000), wk =   0.0625000
        k(   32) = (   0.2500000  -0.2500000   0.2500000), wk =   0.0625000
        k(   33) = (   0.5000000   0.5000000  -0.2500000), wk =   0.0625000
        k(   34) = (  -0.5000000   0.2500000  -0.5000000), wk =   0.0625000
        k(   35) = (  -0.2500000   0.2500000  -0.5000000), wk =   0.0625000
        k(   36) = (  -0.5000000  -0.2500000   0.2500000), wk =   0.0625000

     Dense  grid:    69617 G-vectors     FFT dimensions: (  60,  60,  60)

     Smooth grid:    17573 G-vectors     FFT dimensions: (  40,  40,  40)

     Largest allocated arrays     est. size (Mb)     dimensions
        Kohn-Sham Wavefunctions         0.79 Mb     (   1119,   46)
        Atomic wavefunctions            1.06 Mb     (   1119,   62)
        NL pseudopotentials             2.05 Mb     (   1119,  120)
        Each V/rho on FFT grid          1.65 Mb     ( 108000)
        Each G-vector array             0.27 Mb     (  34808)
        G-vector shells                 0.04 Mb     (   4682)
     Largest temporary arrays     est. size (Mb)     dimensions
        Auxiliary wavefunctions         3.14 Mb     (   1119,  184)
        Each subspace H/S matrix        0.52 Mb     ( 184, 184)
        Each <psi_i|beta_j> matrix      0.08 Mb     (    120,   46)
        Arrays for rho mixing          13.18 Mb     ( 108000,   8)

     Check: negative/imaginary core charge=   -0.000028    0.000000

     The initial density is read from file :
     /home/mcurnan/dft-course/Project1/example_LaCoO3/200/O/alpha/CoLaO_U200.save/charge-density.dat

 --- in v_hubbard ---
Hubbard energy    0.1514
 -------
     Number of +U iterations with fixed ns =  0
     Starting occupations:
 --- enter write_ns ---
 LDA+U parameters:
U( 1)     =  2.00000000
alpha( 1) =  0.00000000
U( 2)     =  0.00000000
alpha( 2) =  0.00000000
U( 3)     =  0.00000000
alpha( 3) = -0.10000000
U( 4)     =  0.00000000
alpha( 4) =  0.00000000
atom    1   Tr[ns(na)] =   8.02205
    eigenvalues: 
  0.596  0.596  0.938  0.941  0.941
    eigenvectors:
  0.000  0.000  1.000  0.000  0.000
  0.057  0.598  0.000  0.178  0.167
  0.598  0.057  0.000  0.167  0.178
  0.210  0.135  0.000  0.095  0.560
  0.135  0.210  0.000  0.560  0.095
    occupations:
  0.938  0.000  0.000  0.000  0.000
  0.000  0.715  0.000 -0.060  0.152
  0.000  0.000  0.715  0.152  0.060
  0.000 -0.060  0.152  0.822  0.000
  0.000  0.152  0.060  0.000  0.822
atom    2   Tr[ns(na)] =   8.02142
    eigenvalues: 
  0.595  0.595  0.938  0.941  0.941
    eigenvectors:
  0.000  0.000  1.000  0.000  0.000
  0.332  0.323  0.000  0.023  0.322
  0.323  0.332  0.000  0.322  0.023
  0.288  0.057  0.000  0.647  0.008
  0.057  0.288  0.000  0.008  0.647
    occupations:
  0.938  0.000  0.000  0.000  0.000
  0.000  0.715  0.000  0.060  0.153
  0.000  0.000  0.715  0.153 -0.060
  0.000  0.060  0.153  0.822  0.000
  0.000  0.153 -0.060  0.000  0.822
atom    3   Tr[ns(na)] =   3.80282
    eigenvalues: 
  0.355  0.355  0.384  0.403  0.403
    eigenvectors:
  0.000  0.000  1.000  0.000  0.000
  0.065  0.856  0.000  0.058  0.021
  0.856  0.065  0.000  0.021  0.058
  0.073  0.006  0.000  0.250  0.670
  0.006  0.073  0.000  0.670  0.250
    occupations:
  0.384  0.000  0.000  0.000  0.000
  0.000  0.359  0.000  0.000  0.013
  0.000  0.000  0.359  0.013  0.000
  0.000  0.000  0.013  0.399  0.000
  0.000  0.013  0.000  0.000  0.399
atom    4   Tr[ns(na)] =   3.80282
    eigenvalues: 
  0.355  0.355  0.384  0.403  0.403
    eigenvectors:
  0.000  0.000  1.000  0.000  0.000
  0.729  0.192  0.000  0.048  0.032
  0.192  0.729  0.000  0.032  0.048
  0.017  0.062  0.000  0.359  0.562
  0.062  0.017  0.000  0.562  0.359
    occupations:
  0.384  0.000  0.000  0.000  0.000
  0.000  0.359  0.000  0.000  0.013
  0.000  0.000  0.359  0.013  0.000
  0.000  0.000  0.013  0.399  0.000
  0.000  0.013  0.000  0.000  0.399
atom    5   Tr[ns(na)] =   5.43357
    eigenvalues: 
  0.846  0.929  0.941
    eigenvectors:
  0.340  0.000  0.660
  0.496  0.250  0.255
  0.164  0.750  0.086
    occupations:
  0.909 -0.039  0.022
 -0.039  0.891  0.022
  0.022  0.022  0.917
atom    6   Tr[ns(na)] =   5.43358
    eigenvalues: 
  0.846  0.929  0.941
    eigenvectors:
  0.340  0.000  0.660
  0.494  0.250  0.256
  0.166  0.750  0.085
    occupations:
  0.909  0.039  0.022
  0.039  0.891 -0.022
  0.022 -0.022  0.917
atom    7   Tr[ns(na)] =   5.43358
    eigenvalues: 
  0.846  0.929  0.941
    eigenvectors:
  0.340  0.000  0.660
  0.000  1.000  0.000
  0.660  0.000  0.340
    occupations:
  0.909  0.000 -0.045
  0.000  0.929  0.000
 -0.045  0.000  0.879
atom    8   Tr[ns(na)] =   5.43357
    eigenvalues: 
  0.846  0.929  0.941
    eigenvectors:
  0.340  0.000  0.660
  0.496  0.250  0.255
  0.164  0.750  0.086
    occupations:
  0.909 -0.039  0.022
 -0.039  0.891  0.022
  0.022  0.022  0.917
atom    9   Tr[ns(na)] =   5.43358
    eigenvalues: 
  0.846  0.929  0.941
    eigenvectors:
  0.340  0.000  0.660
  0.494  0.250  0.256
  0.166  0.750  0.085
    occupations:
  0.909  0.039  0.022
  0.039  0.891 -0.022
  0.022 -0.022  0.917
atom   10   Tr[ns(na)] =   5.43358
    eigenvalues: 
  0.846  0.929  0.941
    eigenvectors:
  0.340  0.000  0.660
  0.000  1.000  0.000
  0.660  0.000  0.340
    occupations:
  0.909  0.000 -0.045
  0.000  0.929  0.000
 -0.045  0.000  0.879
N of occupied +U levels =  56.2505796
 --- exit write_ns ---
 LDA+U Projector read from file 
     Starting wfc from file

     total cpu time spent up to now is        7.9 secs

     per-process dynamical memory:    62.8 Mb

     Self-consistent Calculation

     iteration #  1     ecut=    30.00 Ry     beta=0.20
     Davidson diagonalization with overlap
     c_bands:  1 eigenvalues not converged
     c_bands:  1 eigenvalues not converged
     c_bands:  1 eigenvalues not converged
     c_bands:  1 eigenvalues not converged
     c_bands:  1 eigenvalues not converged
     c_bands:  1 eigenvalues not converged
     c_bands:  1 eigenvalues not converged
     c_bands:  1 eigenvalues not converged
     c_bands:  1 eigenvalues not converged
     c_bands:  1 eigenvalues not converged
     c_bands:  1 eigenvalues not converged
     c_bands:  1 eigenvalues not converged
     c_bands:  1 eigenvalues not converged
     ethr =  1.00E-10,  avg # of iterations = 16.9
 --- enter write_ns ---
 LDA+U parameters:
U( 1)     =  2.00000000
alpha( 1) =  0.00000000
U( 2)     =  0.00000000
alpha( 2) =  0.00000000
U( 3)     =  0.00000000
alpha( 3) = -0.10000000
U( 4)     =  0.00000000
alpha( 4) =  0.00000000
atom    1   Tr[ns(na)] =   8.11409
    eigenvalues: 
  0.565  0.567  0.974  0.975  0.976
    eigenvectors:
  0.000  0.000  0.063  0.005  0.932
  0.554  0.101  0.197  0.129  0.020
  0.100  0.554  0.127  0.215  0.004
  0.167  0.179  0.457  0.176  0.021
  0.179  0.167  0.156  0.476  0.023
    occupations:
  0.976  0.000  0.000  0.000  0.000
  0.000  0.707  0.000 -0.070  0.182
  0.000  0.000  0.708  0.181  0.069
  0.000 -0.070  0.181  0.833  0.000
  0.000  0.182  0.069  0.000  0.834
atom    2   Tr[ns(na)] =   8.10846
    eigenvalues: 
  0.563  0.565  0.975  0.975  0.976
    eigenvectors:
  0.000  0.000  0.077  0.006  0.918
  0.418  0.235  0.277  0.051  0.018
  0.236  0.419  0.042  0.292  0.011
  0.027  0.319  0.000  0.650  0.004
  0.319  0.027  0.604  0.001  0.049
    occupations:
  0.976  0.000  0.000  0.000  0.000
  0.000  0.706  0.001  0.069  0.183
  0.000  0.001  0.706  0.183 -0.069
  0.000  0.069  0.183  0.833  0.000
  0.000  0.183 -0.069  0.000  0.833
atom    3   Tr[ns(na)] =   3.79513
    eigenvalues: 
  0.355  0.356  0.382  0.402  0.402
    eigenvectors:
  0.000  0.000  1.000  0.000  0.000
  0.229  0.688  0.000  0.063  0.020
  0.689  0.229  0.000  0.020  0.062
  0.061  0.021  0.000  0.226  0.692
  0.021  0.062  0.000  0.691  0.226
    occupations:
  0.382  0.000  0.000  0.000  0.000
  0.000  0.360  0.000  0.000  0.013
  0.000  0.000  0.359  0.013  0.000
  0.000  0.000  0.013  0.398  0.000
  0.000  0.013  0.000  0.000  0.398
atom    4   Tr[ns(na)] =   3.79528
    eigenvalues: 
  0.355  0.356  0.382  0.402  0.402
    eigenvectors:
  0.000  0.000  1.000  0.000  0.000
  0.689  0.232  0.000  0.059  0.020
  0.233  0.687  0.000  0.019  0.061
  0.020  0.060  0.000  0.234  0.686
  0.058  0.021  0.000  0.688  0.233
    occupations:
  0.382  0.000  0.000  0.000  0.000
  0.000  0.359  0.000  0.000  0.013
  0.000  0.000  0.359  0.013  0.000
  0.000  0.000  0.013  0.398  0.000
  0.000  0.013  0.000  0.000  0.398
atom    5   Tr[ns(na)] =   5.42740
    eigenvalues: 
  0.840  0.929  0.945
    eigenvectors:
  0.340  0.000  0.660
  0.496  0.250  0.254
  0.165  0.750  0.085
    occupations:
  0.909 -0.043  0.025
 -0.043  0.889  0.023
  0.025  0.023  0.916
atom    6   Tr[ns(na)] =   5.41090
    eigenvalues: 
  0.836  0.927  0.943
    eigenvectors:
  0.341  0.000  0.659
  0.494  0.249  0.257
  0.165  0.751  0.084
    occupations:
  0.906  0.044  0.025
  0.044  0.886 -0.023
  0.025 -0.023  0.913
atom    7   Tr[ns(na)] =   5.41090
    eigenvalues: 
  0.836  0.927  0.943
    eigenvectors:
  0.341  0.000  0.659
  0.000  1.000  0.000
  0.659  0.000  0.341
    occupations:
  0.906  0.000 -0.051
  0.000  0.927  0.000
 -0.051  0.000  0.872
atom    8   Tr[ns(na)] =   5.41090
    eigenvalues: 
  0.836  0.927  0.943
    eigenvectors:
  0.341  0.000  0.659
  0.495  0.250  0.255
  0.164  0.750  0.086
    occupations:
  0.907 -0.044  0.025
 -0.044  0.886  0.023
  0.025  0.023  0.913
atom    9   Tr[ns(na)] =   5.41092
    eigenvalues: 
  0.836  0.927  0.943
    eigenvectors:
  0.340  0.000  0.660
  0.494  0.249  0.257
  0.165  0.751  0.084
    occupations:
  0.907  0.044  0.025
  0.044  0.886 -0.023
  0.025 -0.023  0.913
atom   10   Tr[ns(na)] =   5.41092
    eigenvalues: 
  0.836  0.927  0.943
    eigenvectors:
  0.340  0.000  0.660
  0.000  1.000  0.000
  0.660  0.000  0.340
    occupations:
  0.907  0.000 -0.051
  0.000  0.927  0.000
 -0.051  0.000  0.872
N of occupied +U levels =  56.2949061
 --- exit write_ns ---
 --- in v_hubbard ---
Hubbard energy    0.1466
 -------

     total cpu time spent up to now is      136.0 secs

     total energy              =    -538.19336907 Ry
     Harris-Foulkes estimate   =    -538.19531291 Ry
     estimated scf accuracy    <       0.01196273 Ry

     iteration #  2     ecut=    30.00 Ry     beta=0.20
     Davidson diagonalization with overlap
     ethr =  1.57E-05,  avg # of iterations =  1.1
 --- enter write_ns ---
 LDA+U parameters:
U( 1)     =  2.00000000
alpha( 1) =  0.00000000
U( 2)     =  0.00000000
alpha( 2) =  0.00000000
U( 3)     =  0.00000000
alpha( 3) = -0.10000000
U( 4)     =  0.00000000
alpha( 4) =  0.00000000
atom    1   Tr[ns(na)] =   8.03010
    eigenvalues: 
  0.545  0.546  0.974  0.975  0.976
    eigenvectors:
  0.000  0.000  0.021  0.002  0.977
  0.554  0.101  0.193  0.145  0.006
  0.101  0.554  0.144  0.199  0.001
  0.168  0.177  0.499  0.148  0.008
  0.177  0.168  0.142  0.506  0.007
    occupations:
  0.976  0.000  0.000  0.000  0.000
  0.000  0.693  0.000 -0.074  0.190
  0.000  0.000  0.693  0.190  0.073
  0.000 -0.074  0.190  0.826  0.000
  0.000  0.190  0.073  0.000  0.827
atom    2   Tr[ns(na)] =   8.03912
    eigenvalues: 
  0.544  0.545  0.976  0.976  0.977
    eigenvectors:
  0.000  0.000  0.020  0.002  0.978
  0.420  0.235  0.304  0.036  0.005
  0.235  0.420  0.034  0.308  0.002
  0.025  0.319  0.001  0.654  0.001
  0.319  0.026  0.641  0.001  0.013
    occupations:
  0.977  0.000  0.000  0.000  0.000
  0.000  0.694  0.000  0.073  0.191
  0.000  0.000  0.694  0.191 -0.074
  0.000  0.073  0.191  0.828  0.000
  0.000  0.191 -0.074  0.000  0.827
atom    3   Tr[ns(na)] =   3.79353
    eigenvalues: 
  0.355  0.355  0.382  0.402  0.402
    eigenvectors:
  0.000  0.000  1.000  0.000  0.000
  0.223  0.697  0.000  0.062  0.018
  0.697  0.223  0.000  0.018  0.062
  0.060  0.020  0.000  0.218  0.702
  0.020  0.060  0.000  0.701  0.218
    occupations:
  0.382  0.000  0.000  0.000  0.000
  0.000  0.359  0.000  0.000  0.013
  0.000  0.000  0.359  0.013  0.000
  0.000  0.000  0.013  0.398  0.000
  0.000  0.013  0.000  0.000  0.398
atom    4   Tr[ns(na)] =   3.79368
    eigenvalues: 
  0.355  0.355  0.382  0.402  0.402
    eigenvectors:
  0.000  0.000  1.000  0.000  0.000
  0.685  0.236  0.000  0.060  0.019
  0.236  0.684  0.000  0.018  0.061
  0.021  0.059  0.000  0.223  0.697
  0.058  0.021  0.000  0.698  0.223
    occupations:
  0.382  0.000  0.000  0.000  0.000
  0.000  0.359  0.000  0.000  0.013
  0.000  0.000  0.359  0.013  0.000
  0.000  0.000  0.013  0.398  0.000
  0.000  0.013  0.000  0.000  0.398
atom    5   Tr[ns(na)] =   5.44322
    eigenvalues: 
  0.845  0.931  0.946
    eigenvectors:
  0.338  0.000  0.662
  0.496  0.251  0.253
  0.166  0.749  0.085
    occupations:
  0.912 -0.041  0.024
 -0.041  0.892  0.023
  0.024  0.023  0.918
atom    6   Tr[ns(na)] =   5.43660
    eigenvalues: 
  0.843  0.930  0.945
    eigenvectors:
  0.338  0.000  0.662
  0.497  0.248  0.255
  0.165  0.752  0.083
    occupations:
  0.911  0.042  0.024
  0.042  0.891 -0.023
  0.024 -0.023  0.917
atom    7   Tr[ns(na)] =   5.43660
    eigenvalues: 
  0.843  0.930  0.945
    eigenvectors:
  0.338  0.000  0.662
  0.000  1.000  0.000
  0.662  0.000  0.338
    occupations:
  0.911  0.000 -0.048
  0.000  0.930  0.000
 -0.048  0.000  0.878
atom    8   Tr[ns(na)] =   5.43727
    eigenvalues: 
  0.843  0.930  0.945
    eigenvectors:
  0.338  0.000  0.662
  0.496  0.251  0.253
  0.166  0.749  0.085
    occupations:
  0.911 -0.042  0.024
 -0.042  0.891  0.023
  0.024  0.023  0.917
atom    9   Tr[ns(na)] =   5.43646
    eigenvalues: 
  0.843  0.930  0.945
    eigenvectors:
  0.338  0.000  0.662
  0.496  0.249  0.255
  0.165  0.751  0.083
    occupations:
  0.911  0.042  0.024
  0.042  0.891 -0.023
  0.024 -0.023  0.917
atom   10   Tr[ns(na)] =   5.43646
    eigenvalues: 
  0.843  0.930  0.945
    eigenvectors:
  0.338  0.000  0.662
  0.000  1.000  0.000
  0.662  0.000  0.338
    occupations:
  0.911  0.000 -0.048
  0.000  0.930  0.000
 -0.048  0.000  0.878
N of occupied +U levels =  56.2830298
 --- exit write_ns ---
 --- in v_hubbard ---
Hubbard energy    0.1441
 -------

     total cpu time spent up to now is      171.5 secs

     total energy              =    -538.19498294 Ry
     Harris-Foulkes estimate   =    -538.19501755 Ry
     estimated scf accuracy    <       0.00709505 Ry

     iteration #  3     ecut=    30.00 Ry     beta=0.20
     Davidson diagonalization with overlap
     ethr =  9.34E-06,  avg # of iterations =  1.0
 --- enter write_ns ---
 LDA+U parameters:
U( 1)     =  2.00000000
alpha( 1) =  0.00000000
U( 2)     =  0.00000000
alpha( 2) =  0.00000000
U( 3)     =  0.00000000
alpha( 3) = -0.10000000
U( 4)     =  0.00000000
alpha( 4) =  0.00000000
atom    1   Tr[ns(na)] =   8.06018
    eigenvalues: 
  0.550  0.551  0.976  0.976  0.977
    eigenvectors:
  0.000  0.000  0.020  0.001  0.978
  0.554  0.102  0.194  0.144  0.006
  0.101  0.554  0.144  0.199  0.001
  0.168  0.176  0.500  0.148  0.007
  0.176  0.168  0.143  0.506  0.007
    occupations:
  0.977  0.000  0.000  0.000  0.000
  0.000  0.697  0.000 -0.073  0.188
  0.000  0.000  0.697  0.188  0.073
  0.000 -0.073  0.188  0.829  0.000
  0.000  0.188  0.073  0.000  0.830
atom    2   Tr[ns(na)] =   8.04656
    eigenvalues: 
  0.547  0.548  0.976  0.976  0.977
    eigenvectors:
  0.000  0.000  0.032  0.002  0.966
  0.421  0.234  0.295  0.041  0.008
  0.235  0.421  0.038  0.302  0.004
  0.026  0.319  0.000  0.654  0.001
  0.319  0.026  0.634  0.000  0.021
    occupations:
  0.977  0.000  0.000  0.000  0.000
  0.000  0.695  0.000  0.072  0.190
  0.000  0.000  0.695  0.190 -0.073
  0.000  0.072  0.190  0.829  0.000
  0.000  0.190 -0.073  0.000  0.828
atom    3   Tr[ns(na)] =   3.79382
    eigenvalues: 
  0.355  0.355  0.382  0.402  0.402
    eigenvectors:
  0.000  0.000  1.000  0.000  0.000
  0.223  0.697  0.000  0.063  0.017
  0.697  0.223  0.000  0.017  0.063
  0.060  0.020  0.000  0.204  0.716
  0.020  0.060  0.000  0.716  0.204
    occupations:
  0.382  0.000  0.000  0.000  0.000
  0.000  0.359  0.000  0.000  0.013
  0.000  0.000  0.359  0.013  0.000
  0.000  0.000  0.013  0.398  0.000
  0.000  0.013  0.000  0.000  0.398
atom    4   Tr[ns(na)] =   3.79388
    eigenvalues: 
  0.355  0.355  0.382  0.402  0.402
    eigenvectors:
  0.000  0.000  1.000  0.000  0.000
  0.679  0.242  0.000  0.060  0.019
  0.242  0.678  0.000  0.018  0.061
  0.021  0.058  0.000  0.223  0.698
  0.057  0.022  0.000  0.699  0.222
    occupations:
  0.382  0.000  0.000  0.000  0.000
  0.000  0.359  0.000  0.000  0.013
  0.000  0.000  0.359  0.013  0.000
  0.000  0.000  0.013  0.398  0.000
  0.000  0.013  0.000  0.000  0.398
atom    5   Tr[ns(na)] =   5.43714
    eigenvalues: 
  0.843  0.930  0.945
    eigenvectors:
  0.338  0.000  0.662
  0.497  0.249  0.253
  0.164  0.751  0.085
    occupations:
  0.911 -0.042  0.024
 -0.042  0.891  0.023
  0.024  0.023  0.917
atom    6   Tr[ns(na)] =   5.43085
    eigenvalues: 
  0.842  0.929  0.945
    eigenvectors:
  0.338  0.000  0.662
  0.495  0.250  0.255
  0.166  0.750  0.084
    occupations:
  0.910  0.042  0.024
  0.042  0.890 -0.023
  0.024 -0.023  0.916
atom    7   Tr[ns(na)] =   5.43085
    eigenvalues: 
  0.842  0.929  0.945
    eigenvectors:
  0.338  0.000  0.662
  0.000  1.000  0.000
  0.662  0.000  0.338
    occupations:
  0.910  0.000 -0.049
  0.000  0.929  0.000
 -0.049  0.000  0.876
atom    8   Tr[ns(na)] =   5.43140
    eigenvalues: 
  0.842  0.929  0.945
    eigenvectors:
  0.339  0.000  0.661
  0.497  0.249  0.254
  0.164  0.751  0.085
    occupations:
  0.910 -0.042  0.024
 -0.042  0.890  0.023
  0.024  0.023  0.916
atom    9   Tr[ns(na)] =   5.43076
    eigenvalues: 
  0.842  0.929  0.945
    eigenvectors:
  0.339  0.000  0.661
  0.495  0.250  0.255
  0.167  0.750  0.084
    occupations:
  0.910  0.042  0.024
  0.042  0.890 -0.023
  0.024 -0.023  0.916
atom   10   Tr[ns(na)] =   5.43076
    eigenvalues: 
  0.842  0.929  0.945
    eigenvectors:
  0.339  0.000  0.661
  0.000  1.000  0.000
  0.661  0.000  0.339
    occupations:
  0.910  0.000 -0.049
  0.000  0.929  0.000
 -0.049  0.000  0.876
N of occupied +U levels =  56.2861995
 --- exit write_ns ---
 --- in v_hubbard ---
Hubbard energy    0.1355
 -------

     total cpu time spent up to now is      198.1 secs

     total energy              =    -538.19562657 Ry
     Harris-Foulkes estimate   =    -538.19513209 Ry
     estimated scf accuracy    <       0.00395015 Ry

     iteration #  4     ecut=    30.00 Ry     beta=0.20
     Davidson diagonalization with overlap
     ethr =  5.20E-06,  avg # of iterations =  1.0
 --- enter write_ns ---
 LDA+U parameters:
U( 1)     =  2.00000000
alpha( 1) =  0.00000000
U( 2)     =  0.00000000
alpha( 2) =  0.00000000
U( 3)     =  0.00000000
alpha( 3) = -0.10000000
U( 4)     =  0.00000000
alpha( 4) =  0.00000000
atom    1   Tr[ns(na)] =   8.00600
    eigenvalues: 
  0.542  0.543  0.972  0.973  0.973
    eigenvectors:
  0.000  0.000  0.155  0.009  0.836
  0.554  0.103  0.188  0.106  0.049
  0.103  0.553  0.102  0.234  0.008
  0.166  0.177  0.390  0.217  0.049
  0.177  0.166  0.165  0.434  0.059
    occupations:
  0.973  0.000  0.000  0.000  0.000
  0.000  0.690  0.000 -0.072  0.191
  0.000  0.000  0.690  0.191  0.072
  0.000 -0.072  0.191  0.825  0.000
  0.000  0.191  0.072  0.000  0.825
atom    2   Tr[ns(na)] =   8.10504
    eigenvalues: 
  0.554  0.555  0.981  0.981  0.982
    eigenvectors:
  0.000  0.000  0.012  0.001  0.987
  0.420  0.236  0.301  0.039  0.003
  0.237  0.420  0.038  0.303  0.001
  0.025  0.318  0.001  0.656  0.000
  0.319  0.025  0.648  0.000  0.008
    occupations:
  0.982  0.000  0.000  0.000  0.000
  0.000  0.701  0.000  0.073  0.188
  0.000  0.000  0.701  0.188 -0.074
  0.000  0.073  0.188  0.835  0.000
  0.000  0.188 -0.074  0.000  0.834
atom    3   Tr[ns(na)] =   3.79502
    eigenvalues: 
  0.355  0.356  0.382  0.402  0.402
    eigenvectors:
  0.000  0.000  1.000  0.000  0.000
  0.230  0.691  0.000  0.057  0.022
  0.691  0.230  0.000  0.022  0.057
  0.059  0.020  0.000  0.264  0.657
  0.020  0.059  0.000  0.657  0.264
    occupations:
  0.382  0.000  0.000  0.000  0.000
  0.000  0.359  0.000  0.000  0.013
  0.000  0.000  0.359  0.013  0.000
  0.000  0.000  0.013  0.398  0.000
  0.000  0.013  0.000  0.000  0.398
atom    4   Tr[ns(na)] =   3.79504
    eigenvalues: 
  0.356  0.356  0.382  0.402  0.402
    eigenvectors:
  0.000  0.000  1.000  0.000  0.000
  0.671  0.251  0.000  0.059  0.020
  0.251  0.670  0.000  0.019  0.060
  0.022  0.057  0.000  0.232  0.689
  0.057  0.022  0.000  0.690  0.232
    occupations:
  0.382  0.000  0.000  0.000  0.000
  0.000  0.359  0.000  0.000  0.013
  0.000  0.000  0.359  0.013  0.000
  0.000  0.000  0.013  0.398  0.000
  0.000  0.013  0.000  0.000  0.398
atom    5   Tr[ns(na)] =   5.43587
    eigenvalues: 
  0.843  0.930  0.945
    eigenvectors:
  0.338  0.000  0.662
  0.490  0.258  0.252
  0.171  0.742  0.087
    occupations:
  0.910 -0.042  0.025
 -0.042  0.891  0.023
  0.025  0.023  0.916
atom    6   Tr[ns(na)] =   5.42966
    eigenvalues: 
  0.841  0.929  0.944
    eigenvectors:
  0.338  0.000  0.662
  0.502  0.241  0.257
  0.159  0.759  0.082
    occupations:
  0.909  0.043  0.024
  0.043  0.889 -0.023
  0.024 -0.023  0.916
atom    7   Tr[ns(na)] =   5.42966
    eigenvalues: 
  0.841  0.929  0.944
    eigenvectors:
  0.338  0.000  0.662
  0.000  1.000  0.000
  0.661  0.000  0.338
    occupations:
  0.909  0.000 -0.049
  0.000  0.929 -0.001
 -0.049 -0.001  0.876
atom    8   Tr[ns(na)] =   5.42986
    eigenvalues: 
  0.841  0.929  0.945
    eigenvectors:
  0.339  0.000  0.661
  0.490  0.258  0.252
  0.172  0.742  0.087
    occupations:
  0.910 -0.042  0.025
 -0.042  0.890  0.023
  0.025  0.023  0.915
atom    9   Tr[ns(na)] =   5.42965
    eigenvalues: 
  0.841  0.929  0.944
    eigenvectors:
  0.339  0.000  0.661
  0.502  0.242  0.257
  0.159  0.758  0.082
    occupations:
  0.909  0.043  0.024
  0.043  0.889 -0.023
  0.024 -0.023  0.916
atom   10   Tr[ns(na)] =   5.42965
    eigenvalues: 
  0.841  0.929  0.944
    eigenvectors:
  0.339  0.000  0.661
  0.000  1.000  0.000
  0.661  0.000  0.339
    occupations:
  0.909 -0.001 -0.049
 -0.001  0.929 -0.001
 -0.049 -0.001  0.876
N of occupied +U levels =  56.2854601
 --- exit write_ns ---
 --- in v_hubbard ---
Hubbard energy    0.1256
 -------

     total cpu time spent up to now is      224.9 secs

     total energy              =    -538.19550257 Ry
     Harris-Foulkes estimate   =    -538.19606098 Ry
     estimated scf accuracy    <       0.00689172 Ry

     iteration #  5     ecut=    30.00 Ry     beta=0.20
     Davidson diagonalization with overlap
     ethr =  5.20E-06,  avg # of iterations =  1.0
 --- enter write_ns ---
 LDA+U parameters:
U( 1)     =  2.00000000
alpha( 1) =  0.00000000
U( 2)     =  0.00000000
alpha( 2) =  0.00000000
U( 3)     =  0.00000000
alpha( 3) = -0.10000000
U( 4)     =  0.00000000
alpha( 4) =  0.00000000
atom    1   Tr[ns(na)] =   8.05594
    eigenvalues: 
  0.547  0.548  0.978  0.978  0.978
    eigenvectors:
  0.000  0.000  0.047  0.003  0.950
  0.556  0.102  0.204  0.124  0.014
  0.102  0.555  0.122  0.217  0.003
  0.167  0.175  0.459  0.182  0.017
  0.175  0.167  0.167  0.474  0.016
    occupations:
  0.978  0.000  0.000  0.000  0.000
  0.000  0.694  0.000 -0.074  0.191
  0.000  0.000  0.695  0.190  0.074
  0.000 -0.074  0.190  0.830  0.000
  0.000  0.191  0.074  0.000  0.830
atom    2   Tr[ns(na)] =   8.05238
    eigenvalues: 
  0.545  0.546  0.978  0.979  0.979
    eigenvectors:
  0.000  0.000  0.057  0.003  0.940
  0.422  0.235  0.275  0.054  0.013
  0.236  0.422  0.048  0.287  0.007
  0.025  0.317  0.001  0.655  0.003
  0.317  0.025  0.620  0.001  0.037
    occupations:
  0.979  0.000  0.000  0.000  0.000
  0.000  0.693  0.000  0.073  0.192
  0.000  0.000  0.693  0.192 -0.074
  0.000  0.073  0.192  0.830  0.000
  0.000  0.192 -0.074  0.000  0.830
atom    3   Tr[ns(na)] =   3.79621
    eigenvalues: 
  0.356  0.356  0.382  0.402  0.402
    eigenvectors:
  0.000  0.000  1.000  0.000  0.000
  0.227  0.694  0.000  0.060  0.019
  0.694  0.227  0.000  0.019  0.060
  0.059  0.020  0.000  0.233  0.689
  0.020  0.059  0.000  0.688  0.233
    occupations:
  0.382  0.000  0.000  0.000  0.000
  0.000  0.359  0.000  0.000  0.012
  0.000  0.000  0.359  0.013  0.000
  0.000  0.000  0.013  0.398  0.000
  0.000  0.012  0.000  0.000  0.398
atom    4   Tr[ns(na)] =   3.79623
    eigenvalues: 
  0.356  0.356  0.382  0.402  0.402
    eigenvectors:
  0.000  0.000  1.000  0.000  0.000
  0.670  0.252  0.000  0.058  0.020
  0.253  0.669  0.000  0.019  0.059
  0.022  0.057  0.000  0.238  0.684
  0.056  0.022  0.000  0.685  0.238
    occupations:
  0.382  0.000  0.000  0.000  0.000
  0.000  0.359  0.000  0.000  0.012
  0.000  0.000  0.359  0.012  0.000
  0.000  0.000  0.012  0.399  0.000
  0.000  0.012  0.000  0.000  0.399
atom    5   Tr[ns(na)] =   5.43591
    eigenvalues: 
  0.843  0.930  0.945
    eigenvectors:
  0.338  0.000  0.662
  0.497  0.250  0.253
  0.165  0.750  0.085
    occupations:
  0.910 -0.042  0.024
 -0.042  0.891  0.023
  0.024  0.023  0.917
atom    6   Tr[ns(na)] =   5.42966
    eigenvalues: 
  0.841  0.929  0.944
    eigenvectors:
  0.338  0.000  0.662
  0.496  0.249  0.255
  0.166  0.751  0.083
    occupations:
  0.910  0.042  0.024
  0.042  0.889 -0.023
  0.024 -0.023  0.916
atom    7   Tr[ns(na)] =   5.42966
    eigenvalues: 
  0.841  0.929  0.944
    eigenvectors:
  0.338  0.000  0.662
  0.000  1.000  0.000
  0.662  0.000  0.338
    occupations:
  0.910  0.000 -0.049
  0.000  0.929  0.000
 -0.049  0.000  0.876
atom    8   Tr[ns(na)] =   5.42962
    eigenvalues: 
  0.841  0.929  0.945
    eigenvectors:
  0.338  0.000  0.662
  0.496  0.250  0.253
  0.165  0.750  0.085
    occupations:
  0.910 -0.042  0.024
 -0.042  0.889  0.023
  0.024  0.023  0.916
atom    9   Tr[ns(na)] =   5.42969
    eigenvalues: 
  0.841  0.929  0.944
    eigenvectors:
  0.339  0.000  0.661
  0.495  0.249  0.255
  0.166  0.751  0.084
    occupations:
  0.909  0.042  0.024
  0.042  0.889 -0.023
  0.024 -0.023  0.916
atom   10   Tr[ns(na)] =   5.42971
    eigenvalues: 
  0.841  0.929  0.944
    eigenvectors:
  0.339  0.000  0.661
  0.000  1.000  0.000
  0.661  0.000  0.339
    occupations:
  0.909  0.000 -0.049
  0.000  0.929  0.000
 -0.049  0.000  0.876
N of occupied +U levels =  56.2850173
 --- exit write_ns ---
 --- in v_hubbard ---
Hubbard energy    0.1243
 -------

     total cpu time spent up to now is      253.5 secs

     total energy              =    -538.19590581 Ry
     Harris-Foulkes estimate   =    -538.19587796 Ry
     estimated scf accuracy    <       0.00004969 Ry

     iteration #  6     ecut=    30.00 Ry     beta=0.20
     Davidson diagonalization with overlap
     ethr =  6.54E-08,  avg # of iterations =  2.1
 --- enter write_ns ---
 LDA+U parameters:
U( 1)     =  2.00000000
alpha( 1) =  0.00000000
U( 2)     =  0.00000000
alpha( 2) =  0.00000000
U( 3)     =  0.00000000
alpha( 3) = -0.10000000
U( 4)     =  0.00000000
alpha( 4) =  0.00000000
atom    1   Tr[ns(na)] =   8.05242
    eigenvalues: 
  0.546  0.547  0.978  0.978  0.979
    eigenvectors:
  0.000  0.000  0.038  0.002  0.960
  0.556  0.102  0.205  0.126  0.011
  0.102  0.556  0.125  0.215  0.002
  0.167  0.175  0.466  0.178  0.013
  0.175  0.167  0.167  0.478  0.013
    occupations:
  0.979  0.000  0.000  0.000  0.000
  0.000  0.694  0.000 -0.074  0.191
  0.000  0.000  0.694  0.191  0.074
  0.000 -0.074  0.191  0.830  0.000
  0.000  0.191  0.074  0.000  0.830
atom    2   Tr[ns(na)] =   8.05005
    eigenvalues: 
  0.544  0.545  0.979  0.979  0.979
    eigenvectors:
  0.000  0.000  0.043  0.002  0.955
  0.422  0.235  0.281  0.052  0.010
  0.236  0.422  0.047  0.290  0.005
  0.025  0.317  0.000  0.656  0.002
  0.317  0.025  0.629  0.001  0.028
    occupations:
  0.979  0.000  0.000  0.000  0.000
  0.000  0.693  0.000  0.074  0.193
  0.000  0.000  0.693  0.192 -0.074
  0.000  0.074  0.192  0.830  0.000
  0.000  0.193 -0.074  0.000  0.830
atom    3   Tr[ns(na)] =   3.79579
    eigenvalues: 
  0.356  0.356  0.382  0.402  0.402
    eigenvectors:
  0.000  0.000  1.000  0.000  0.000
  0.228  0.693  0.000  0.063  0.016
  0.693  0.228  0.000  0.016  0.063
  0.059  0.020  0.000  0.199  0.722
  0.020  0.059  0.000  0.722  0.199
    occupations:
  0.382  0.000  0.000  0.000  0.000
  0.000  0.359  0.000  0.000  0.013
  0.000  0.000  0.359  0.013  0.000
  0.000  0.000  0.013  0.398  0.000
  0.000  0.013  0.000  0.000  0.398
atom    4   Tr[ns(na)] =   3.79580
    eigenvalues: 
  0.356  0.356  0.382  0.402  0.402
    eigenvectors:
  0.000  0.000  1.000  0.000  0.000
  0.660  0.262  0.000  0.059  0.019
  0.262  0.659  0.000  0.019  0.060
  0.023  0.056  0.000  0.232  0.689
  0.055  0.023  0.000  0.690  0.232
    occupations:
  0.382  0.000  0.000  0.000  0.000
  0.000  0.359  0.000  0.000  0.012
  0.000  0.000  0.359  0.013  0.000
  0.000  0.000  0.013  0.398  0.000
  0.000  0.012  0.000  0.000  0.398
atom    5   Tr[ns(na)] =   5.43672
    eigenvalues: 
  0.843  0.930  0.945
    eigenvectors:
  0.338  0.000  0.662
  0.497  0.250  0.253
  0.165  0.750  0.085
    occupations:
  0.911 -0.042  0.024
 -0.042  0.891  0.023
  0.024  0.023  0.917
atom    6   Tr[ns(na)] =   5.43062
    eigenvalues: 
  0.841  0.929  0.945
    eigenvectors:
  0.338  0.000  0.662
  0.496  0.249  0.255
  0.165  0.751  0.083
    occupations:
  0.910  0.042  0.024
  0.042  0.890 -0.023
  0.024 -0.023  0.916
atom    7   Tr[ns(na)] =   5.43062
    eigenvalues: 
  0.841  0.929  0.945
    eigenvectors:
  0.338  0.000  0.662
  0.000  1.000  0.000
  0.662  0.000  0.338
    occupations:
  0.910  0.000 -0.049
  0.000  0.929  0.000
 -0.049  0.000  0.876
atom    8   Tr[ns(na)] =   5.43092
    eigenvalues: 
  0.841  0.929  0.945
    eigenvectors:
  0.338  0.000  0.662
  0.496  0.250  0.253
  0.165  0.750  0.085
    occupations:
  0.910 -0.042  0.024
 -0.042  0.890  0.023
  0.024  0.023  0.916
atom    9   Tr[ns(na)] =   5.43057
    eigenvalues: 
  0.841  0.929  0.945
    eigenvectors:
  0.339  0.000  0.661
  0.495  0.249  0.255
  0.166  0.751  0.083
    occupations:
  0.910  0.042  0.024
  0.042  0.890 -0.023
  0.024 -0.023  0.916
atom   10   Tr[ns(na)] =   5.43057
    eigenvalues: 
  0.841  0.929  0.945
    eigenvectors:
  0.339  0.000  0.661
  0.000  1.000  0.000
  0.661  0.000  0.339
    occupations:
  0.910  0.000 -0.049
  0.000  0.929  0.000
 -0.049  0.000  0.876
N of occupied +U levels =  56.2840776
 --- exit write_ns ---
 --- in v_hubbard ---
Hubbard energy    0.1243
 -------

     total cpu time spent up to now is      291.5 secs

     total energy              =    -538.19594520 Ry
     Harris-Foulkes estimate   =    -538.19591199 Ry
     estimated scf accuracy    <       0.00001272 Ry

     iteration #  7     ecut=    30.00 Ry     beta=0.20
     Davidson diagonalization with overlap
     ethr =  1.67E-08,  avg # of iterations =  2.0
 --- enter write_ns ---
 LDA+U parameters:
U( 1)     =  2.00000000
alpha( 1) =  0.00000000
U( 2)     =  0.00000000
alpha( 2) =  0.00000000
U( 3)     =  0.00000000
alpha( 3) = -0.10000000
U( 4)     =  0.00000000
alpha( 4) =  0.00000000
atom    1   Tr[ns(na)] =   8.05104
    eigenvalues: 
  0.545  0.546  0.978  0.978  0.979
    eigenvectors:
  0.000  0.000  0.025  0.001  0.974
  0.555  0.102  0.206  0.130  0.007
  0.102  0.555  0.129  0.213  0.002
  0.168  0.176  0.475  0.173  0.009
  0.175  0.167  0.165  0.483  0.008
    occupations:
  0.979  0.000  0.000  0.000  0.000
  0.000  0.694  0.000 -0.074  0.191
  0.000  0.000  0.694  0.191  0.074
  0.000 -0.074  0.191  0.829  0.000
  0.000  0.191  0.074  0.000  0.830
atom    2   Tr[ns(na)] =   8.05110
    eigenvalues: 
  0.544  0.545  0.979  0.979  0.980
    eigenvectors:
  0.000  0.000  0.026  0.001  0.973
  0.422  0.235  0.289  0.048  0.006
  0.235  0.422  0.045  0.294  0.003
  0.025  0.318  0.000  0.656  0.001
  0.318  0.025  0.640  0.000  0.017
    occupations:
  0.980  0.000  0.000  0.000  0.000
  0.000  0.693  0.000  0.074  0.193
  0.000  0.000  0.693  0.192 -0.074
  0.000  0.074  0.192  0.830  0.000
  0.000  0.193 -0.074  0.000  0.830
atom    3   Tr[ns(na)] =   3.79463
    eigenvalues: 
  0.356  0.356  0.382  0.402  0.402
    eigenvectors:
  0.000  0.000  1.000  0.000  0.000
  0.229  0.692  0.000  0.064  0.015
  0.692  0.229  0.000  0.015  0.064
  0.059  0.020  0.000  0.178  0.743
  0.020  0.059  0.000  0.743  0.178
    occupations:
  0.382  0.000  0.000  0.000  0.000
  0.000  0.359  0.000  0.000  0.013
  0.000  0.000  0.359  0.013  0.000
  0.000  0.000  0.013  0.398  0.000
  0.000  0.013  0.000  0.000  0.398
atom    4   Tr[ns(na)] =   3.79466
    eigenvalues: 
  0.356  0.356  0.382  0.402  0.402
    eigenvectors:
  0.000  0.000  1.000  0.000  0.000
  0.652  0.270  0.000  0.059  0.020
  0.270  0.651  0.000  0.019  0.060
  0.024  0.055  0.000  0.235  0.686
  0.055  0.024  0.000  0.686  0.235
    occupations:
  0.382  0.000  0.000  0.000  0.000
  0.000  0.359  0.000  0.000  0.012
  0.000  0.000  0.359  0.013  0.000
  0.000  0.000  0.013  0.398  0.000
  0.000  0.012  0.000  0.000  0.398
atom    5   Tr[ns(na)] =   5.43712
    eigenvalues: 
  0.843  0.930  0.945
    eigenvectors:
  0.338  0.000  0.662
  0.496  0.250  0.253
  0.165  0.750  0.085
    occupations:
  0.911 -0.042  0.024
 -0.042  0.891  0.023
  0.024  0.023  0.917
atom    6   Tr[ns(na)] =   5.43088
    eigenvalues: 
  0.841  0.929  0.945
    eigenvectors:
  0.338  0.000  0.662
  0.496  0.249  0.255
  0.165  0.751  0.083
    occupations:
  0.910  0.042  0.024
  0.042  0.890 -0.023
  0.024 -0.023  0.916
atom    7   Tr[ns(na)] =   5.43088
    eigenvalues: 
  0.841  0.929  0.945
    eigenvectors:
  0.338  0.000  0.662
  0.000  1.000  0.000
  0.662  0.000  0.338
    occupations:
  0.910  0.000 -0.049
  0.000  0.929  0.000
 -0.049  0.000  0.876
atom    8   Tr[ns(na)] =   5.43136
    eigenvalues: 
  0.842  0.929  0.945
    eigenvectors:
  0.339  0.000  0.661
  0.496  0.250  0.253
  0.165  0.750  0.085
    occupations:
  0.910 -0.042  0.024
 -0.042  0.890  0.023
  0.024  0.023  0.916
atom    9   Tr[ns(na)] =   5.43081
    eigenvalues: 
  0.841  0.929  0.945
    eigenvectors:
  0.339  0.000  0.661
  0.496  0.249  0.255
  0.166  0.751  0.083
    occupations:
  0.910  0.042  0.024
  0.042  0.890 -0.023
  0.024 -0.023  0.916
atom   10   Tr[ns(na)] =   5.43081
    eigenvalues: 
  0.841  0.929  0.945
    eigenvectors:
  0.339  0.000  0.661
  0.000  1.000  0.000
  0.661  0.000  0.339
    occupations:
  0.910  0.000 -0.049
  0.000  0.929  0.000
 -0.049  0.000  0.876
N of occupied +U levels =  56.2832971
 --- exit write_ns ---
 --- in v_hubbard ---
Hubbard energy    0.1243
 -------

     total cpu time spent up to now is      330.4 secs

     total energy              =    -538.19597521 Ry
     Harris-Foulkes estimate   =    -538.19594710 Ry
     estimated scf accuracy    <       0.00000266 Ry

     iteration #  8     ecut=    30.00 Ry     beta=0.20
     Davidson diagonalization with overlap
     ethr =  3.50E-09,  avg # of iterations =  1.8
 --- enter write_ns ---
 LDA+U parameters:
U( 1)     =  2.00000000
alpha( 1) =  0.00000000
U( 2)     =  0.00000000
alpha( 2) =  0.00000000
U( 3)     =  0.00000000
alpha( 3) = -0.10000000
U( 4)     =  0.00000000
alpha( 4) =  0.00000000
atom    1   Tr[ns(na)] =   8.05252
    eigenvalues: 
  0.546  0.546  0.978  0.978  0.979
    eigenvectors:
  0.000  0.000  0.023  0.001  0.976
  0.555  0.102  0.205  0.131  0.007
  0.102  0.555  0.130  0.212  0.001
  0.168  0.176  0.478  0.171  0.008
  0.175  0.167  0.164  0.485  0.008
    occupations:
  0.979  0.000  0.000  0.000  0.000
  0.000  0.694  0.000 -0.074  0.191
  0.000  0.000  0.694  0.191  0.074
  0.000 -0.074  0.191  0.830  0.000
  0.000  0.191  0.074  0.000  0.830
atom    2   Tr[ns(na)] =   8.05051
    eigenvalues: 
  0.544  0.545  0.979  0.979  0.980
    eigenvectors:
  0.000  0.000  0.025  0.001  0.974
  0.422  0.235  0.290  0.047  0.006
  0.235  0.422  0.045  0.295  0.003
  0.025  0.317  0.000  0.656  0.001
  0.318  0.025  0.641  0.000  0.016
    occupations:
  0.980  0.000  0.000  0.000  0.000
  0.000  0.693  0.000  0.074  0.193
  0.000  0.000  0.693  0.192 -0.074
  0.000  0.074  0.192  0.830  0.000
  0.000  0.193 -0.074  0.000  0.829
atom    3   Tr[ns(na)] =   3.79484
    eigenvalues: 
  0.356  0.356  0.382  0.402  0.402
    eigenvectors:
  0.000  0.000  1.000  0.000  0.000
  0.228  0.692  0.000  0.066  0.013
  0.692  0.228  0.000  0.013  0.066
  0.059  0.020  0.000  0.157  0.764
  0.020  0.059  0.000  0.764  0.157
    occupations:
  0.382  0.000  0.000  0.000  0.000
  0.000  0.359  0.000  0.000  0.013
  0.000  0.000  0.359  0.013  0.000
  0.000  0.000  0.013  0.398  0.000
  0.000  0.013  0.000  0.000  0.398
atom    4   Tr[ns(na)] =   3.79487
    eigenvalues: 
  0.356  0.356  0.382  0.402  0.402
    eigenvectors:
  0.000  0.000  1.000  0.000  0.000
  0.659  0.263  0.000  0.059  0.019
  0.263  0.658  0.000  0.019  0.060
  0.023  0.056  0.000  0.234  0.687
  0.055  0.023  0.000  0.688  0.233
    occupations:
  0.382  0.000  0.000  0.000  0.000
  0.000  0.359  0.000  0.000  0.012
  0.000  0.000  0.359  0.013  0.000
  0.000  0.000  0.013  0.398  0.000
  0.000  0.012  0.000  0.000  0.398
atom    5   Tr[ns(na)] =   5.43690
    eigenvalues: 
  0.843  0.930  0.945
    eigenvectors:
  0.338  0.000  0.662
  0.496  0.250  0.253
  0.165  0.750  0.085
    occupations:
  0.911 -0.042  0.024
 -0.042  0.891  0.023
  0.024  0.023  0.917
atom    6   Tr[ns(na)] =   5.43073
    eigenvalues: 
  0.841  0.929  0.945
    eigenvectors:
  0.338  0.000  0.662
  0.496  0.249  0.255
  0.165  0.751  0.083
    occupations:
  0.910  0.042  0.024
  0.042  0.890 -0.023
  0.024 -0.023  0.916
atom    7   Tr[ns(na)] =   5.43073
    eigenvalues: 
  0.841  0.929  0.945
    eigenvectors:
  0.338  0.000  0.662
  0.000  1.000  0.000
  0.662  0.000  0.338
    occupations:
  0.910  0.000 -0.049
  0.000  0.929  0.000
 -0.049  0.000  0.876
atom    8   Tr[ns(na)] =   5.43106
    eigenvalues: 
  0.841  0.929  0.945
    eigenvectors:
  0.339  0.000  0.661
  0.496  0.250  0.253
  0.165  0.750  0.085
    occupations:
  0.910 -0.042  0.024
 -0.042  0.890  0.023
  0.024  0.023  0.916
atom    9   Tr[ns(na)] =   5.43068
    eigenvalues: 
  0.841  0.929  0.945
    eigenvectors:
  0.339  0.000  0.661
  0.495  0.249  0.255
  0.166  0.751  0.084
    occupations:
  0.910  0.042  0.024
  0.042  0.890 -0.023
  0.024 -0.023  0.916
atom   10   Tr[ns(na)] =   5.43068
    eigenvalues: 
  0.841  0.929  0.945
    eigenvectors:
  0.339  0.000  0.661
  0.000  1.000  0.000
  0.661  0.000  0.339
    occupations:
  0.910  0.000 -0.049
  0.000  0.929  0.000
 -0.049  0.000  0.876
N of occupied +U levels =  56.2835067
 --- exit write_ns ---
 --- in v_hubbard ---
Hubbard energy    0.1243
 -------

     total cpu time spent up to now is      366.8 secs

     total energy              =    -538.19599328 Ry
     Harris-Foulkes estimate   =    -538.19597551 Ry
     estimated scf accuracy    <       0.00000062 Ry

     iteration #  9     ecut=    30.00 Ry     beta=0.20
     Davidson diagonalization with overlap
     ethr =  8.13E-10,  avg # of iterations =  2.0
 --- enter write_ns ---
 LDA+U parameters:
U( 1)     =  2.00000000
alpha( 1) =  0.00000000
U( 2)     =  0.00000000
alpha( 2) =  0.00000000
U( 3)     =  0.00000000
alpha( 3) = -0.10000000
U( 4)     =  0.00000000
alpha( 4) =  0.00000000
atom    1   Tr[ns(na)] =   8.05182
    eigenvalues: 
  0.545  0.546  0.978  0.978  0.979
    eigenvectors:
  0.000  0.000  0.022  0.001  0.976
  0.555  0.102  0.205  0.131  0.007
  0.102  0.555  0.130  0.211  0.001
  0.168  0.176  0.479  0.170  0.008
  0.175  0.167  0.163  0.486  0.007
    occupations:
  0.979  0.000  0.000  0.000  0.000
  0.000  0.694  0.000 -0.074  0.191
  0.000  0.000  0.694  0.191  0.074
  0.000 -0.074  0.191  0.829  0.000
  0.000  0.191  0.074  0.000  0.830
atom    2   Tr[ns(na)] =   8.05074
    eigenvalues: 
  0.544  0.545  0.979  0.979  0.980
    eigenvectors:
  0.000  0.000  0.024  0.001  0.975
  0.422  0.235  0.291  0.047  0.006
  0.235  0.422  0.044  0.296  0.003
  0.025  0.318  0.000  0.656  0.001
  0.318  0.025  0.641  0.000  0.015
    occupations:
  0.980  0.000  0.000  0.000  0.000
  0.000  0.693  0.000  0.074  0.193
  0.000  0.000  0.693  0.192 -0.074
  0.000  0.074  0.192  0.830  0.000
  0.000  0.193 -0.074  0.000  0.829
atom    3   Tr[ns(na)] =   3.79490
    eigenvalues: 
  0.356  0.356  0.382  0.402  0.402
    eigenvectors:
  0.000  0.000  1.000  0.000  0.000
  0.229  0.692  0.000  0.065  0.014
  0.692  0.229  0.000  0.014  0.065
  0.059  0.020  0.000  0.167  0.754
  0.020  0.059  0.000  0.754  0.167
    occupations:
  0.382  0.000  0.000  0.000  0.000
  0.000  0.359  0.000  0.000  0.013
  0.000  0.000  0.359  0.013  0.000
  0.000  0.000  0.013  0.398  0.000
  0.000  0.013  0.000  0.000  0.398
atom    4   Tr[ns(na)] =   3.79493
    eigenvalues: 
  0.356  0.356  0.382  0.402  0.402
    eigenvectors:
  0.000  0.000  1.000  0.000  0.000
  0.661  0.260  0.000  0.059  0.019
  0.261  0.661  0.000  0.019  0.060
  0.023  0.056  0.000  0.233  0.688
  0.055  0.023  0.000  0.689  0.232
    occupations:
  0.382  0.000  0.000  0.000  0.000
  0.000  0.359  0.000  0.000  0.012
  0.000  0.000  0.359  0.013  0.000
  0.000  0.000  0.013  0.398  0.000
  0.000  0.012  0.000  0.000  0.398
atom    5   Tr[ns(na)] =   5.43696
    eigenvalues: 
  0.843  0.930  0.945
    eigenvectors:
  0.338  0.000  0.662
  0.496  0.250  0.253
  0.165  0.750  0.085
    occupations:
  0.911 -0.042  0.024
 -0.042  0.891  0.023
  0.024  0.023  0.917
atom    6   Tr[ns(na)] =   5.43078
    eigenvalues: 
  0.841  0.929  0.945
    eigenvectors:
  0.338  0.000  0.662
  0.496  0.249  0.255
  0.165  0.751  0.083
    occupations:
  0.910  0.042  0.024
  0.042  0.890 -0.023
  0.024 -0.023  0.916
atom    7   Tr[ns(na)] =   5.43078
    eigenvalues: 
  0.841  0.929  0.945
    eigenvectors:
  0.338  0.000  0.662
  0.000  1.000  0.000
  0.662  0.000  0.338
    occupations:
  0.910  0.000 -0.049
  0.000  0.929  0.000
 -0.049  0.000  0.876
atom    8   Tr[ns(na)] =   5.43114
    eigenvalues: 
  0.841  0.929  0.945
    eigenvectors:
  0.339  0.000  0.661
  0.496  0.250  0.253
  0.165  0.750  0.085
    occupations:
  0.910 -0.042  0.024
 -0.042  0.890  0.023
  0.024  0.023  0.916
atom    9   Tr[ns(na)] =   5.43073
    eigenvalues: 
  0.841  0.929  0.945
    eigenvectors:
  0.339  0.000  0.661
  0.495  0.249  0.255
  0.166  0.751  0.084
    occupations:
  0.910  0.042  0.024
  0.042  0.890 -0.023
  0.024 -0.023  0.916
atom   10   Tr[ns(na)] =   5.43073
    eigenvalues: 
  0.841  0.929  0.945
    eigenvectors:
  0.339  0.000  0.661
  0.000  1.000  0.000
  0.661  0.000  0.339
    occupations:
  0.910  0.000 -0.049
  0.000  0.929  0.000
 -0.049  0.000  0.876
N of occupied +U levels =  56.2834888
 --- exit write_ns ---
 --- in v_hubbard ---
Hubbard energy    0.1244
 -------

     total cpu time spent up to now is      405.4 secs

     total energy              =    -538.19600532 Ry
     Harris-Foulkes estimate   =    -538.19599338 Ry
     estimated scf accuracy    <       0.00000013 Ry

     iteration # 10     ecut=    30.00 Ry     beta=0.20
     Davidson diagonalization with overlap
     ethr =  1.67E-10,  avg # of iterations =  1.6
 --- enter write_ns ---
 LDA+U parameters:
U( 1)     =  2.00000000
alpha( 1) =  0.00000000
U( 2)     =  0.00000000
alpha( 2) =  0.00000000
U( 3)     =  0.00000000
alpha( 3) = -0.10000000
U( 4)     =  0.00000000
alpha( 4) =  0.00000000
atom    1   Tr[ns(na)] =   8.05211
    eigenvalues: 
  0.546  0.546  0.978  0.978  0.979
    eigenvectors:
  0.000  0.000  0.023  0.001  0.976
  0.555  0.102  0.205  0.131  0.007
  0.102  0.555  0.130  0.211  0.001
  0.168  0.176  0.479  0.170  0.008
  0.175  0.167  0.163  0.486  0.008
    occupations:
  0.979  0.000  0.000  0.000  0.000
  0.000  0.694  0.000 -0.074  0.191
  0.000  0.000  0.694  0.191  0.074
  0.000 -0.074  0.191  0.830  0.000
  0.000  0.191  0.074  0.000  0.830
atom    2   Tr[ns(na)] =   8.05074
    eigenvalues: 
  0.544  0.545  0.979  0.979  0.980
    eigenvectors:
  0.000  0.000  0.025  0.001  0.974
  0.422  0.235  0.290  0.047  0.006
  0.235  0.422  0.044  0.295  0.003
  0.025  0.317  0.000  0.656  0.001
  0.318  0.025  0.641  0.000  0.016
    occupations:
  0.980  0.000  0.000  0.000  0.000
  0.000  0.693  0.000  0.074  0.193
  0.000  0.000  0.693  0.192 -0.074
  0.000  0.074  0.192  0.830  0.000
  0.000  0.193 -0.074  0.000  0.830
atom    3   Tr[ns(na)] =   3.79492
    eigenvalues: 
  0.356  0.356  0.382  0.402  0.402
    eigenvectors:
  0.000  0.000  1.000  0.000  0.000
  0.229  0.692  0.000  0.065  0.014
  0.692  0.229  0.000  0.014  0.065
  0.059  0.020  0.000  0.169  0.751
  0.020  0.059  0.000  0.751  0.169
    occupations:
  0.382  0.000  0.000  0.000  0.000
  0.000  0.359  0.000  0.000  0.013
  0.000  0.000  0.359  0.013  0.000
  0.000  0.000  0.013  0.398  0.000
  0.000  0.013  0.000  0.000  0.398
atom    4   Tr[ns(na)] =   3.79494
    eigenvalues: 
  0.356  0.356  0.382  0.402  0.402
    eigenvectors:
  0.000  0.000  1.000  0.000  0.000
  0.663  0.258  0.000  0.059  0.019
  0.259  0.662  0.000  0.019  0.060
  0.023  0.056  0.000  0.232  0.689
  0.056  0.023  0.000  0.690  0.232
    occupations:
  0.382  0.000  0.000  0.000  0.000
  0.000  0.359  0.000  0.000  0.012
  0.000  0.000  0.359  0.013  0.000
  0.000  0.000  0.013  0.398  0.000
  0.000  0.012  0.000  0.000  0.398
atom    5   Tr[ns(na)] =   5.43692
    eigenvalues: 
  0.843  0.930  0.945
    eigenvectors:
  0.338  0.000  0.662
  0.496  0.250  0.253
  0.165  0.750  0.085
    occupations:
  0.911 -0.042  0.024
 -0.042  0.891  0.023
  0.024  0.023  0.917
atom    6   Tr[ns(na)] =   5.43072
    eigenvalues: 
  0.841  0.929  0.945
    eigenvectors:
  0.338  0.000  0.662
  0.496  0.249  0.255
  0.165  0.751  0.083
    occupations:
  0.910  0.042  0.024
  0.042  0.890 -0.023
  0.024 -0.023  0.916
atom    7   Tr[ns(na)] =   5.43072
    eigenvalues: 
  0.841  0.929  0.945
    eigenvectors:
  0.338  0.000  0.662
  0.000  1.000  0.000
  0.662  0.000  0.338
    occupations:
  0.910  0.000 -0.049
  0.000  0.929  0.000
 -0.049  0.000  0.876
atom    8   Tr[ns(na)] =   5.43109
    eigenvalues: 
  0.841  0.929  0.945
    eigenvectors:
  0.339  0.000  0.661
  0.496  0.250  0.253
  0.165  0.750  0.085
    occupations:
  0.910 -0.042  0.024
 -0.042  0.890  0.023
  0.024  0.023  0.916
atom    9   Tr[ns(na)] =   5.43067
    eigenvalues: 
  0.841  0.929  0.945
    eigenvectors:
  0.339  0.000  0.661
  0.495  0.249  0.255
  0.166  0.751  0.084
    occupations:
  0.910  0.042  0.024
  0.042  0.890 -0.023
  0.024 -0.023  0.916
atom   10   Tr[ns(na)] =   5.43067
    eigenvalues: 
  0.841  0.929  0.945
    eigenvectors:
  0.339  0.000  0.661
  0.000  1.000  0.000
  0.661  0.000  0.339
    occupations:
  0.910  0.000 -0.049
  0.000  0.929  0.000
 -0.049  0.000  0.876
N of occupied +U levels =  56.2835122
 --- exit write_ns ---
 --- in v_hubbard ---
Hubbard energy    0.1244
 -------

     total cpu time spent up to now is      443.9 secs

     total energy              =    -538.19601300 Ry
     Harris-Foulkes estimate   =    -538.19600533 Ry
     estimated scf accuracy    <       0.00000002 Ry

     iteration # 11     ecut=    30.00 Ry     beta=0.20
     Davidson diagonalization with overlap
     ethr =  2.31E-11,  avg # of iterations =  2.1
 --- enter write_ns ---
 LDA+U parameters:
U( 1)     =  2.00000000
alpha( 1) =  0.00000000
U( 2)     =  0.00000000
alpha( 2) =  0.00000000
U( 3)     =  0.00000000
alpha( 3) = -0.10000000
U( 4)     =  0.00000000
alpha( 4) =  0.00000000
atom    1   Tr[ns(na)] =   8.05202
    eigenvalues: 
  0.546  0.546  0.978  0.978  0.979
    eigenvectors:
  0.000  0.000  0.023  0.001  0.976
  0.555  0.102  0.205  0.131  0.007
  0.102  0.555  0.130  0.211  0.001
  0.168  0.176  0.479  0.170  0.008
  0.175  0.167  0.163  0.486  0.008
    occupations:
  0.979  0.000  0.000  0.000  0.000
  0.000  0.694  0.000 -0.074  0.191
  0.000  0.000  0.694  0.191  0.074
  0.000 -0.074  0.191  0.830  0.000
  0.000  0.191  0.074  0.000  0.830
atom    2   Tr[ns(na)] =   8.05068
    eigenvalues: 
  0.544  0.545  0.979  0.979  0.980
    eigenvectors:
  0.000  0.000  0.025  0.001  0.974
  0.422  0.235  0.290  0.047  0.006
  0.235  0.422  0.044  0.295  0.003
  0.025  0.317  0.000  0.656  0.001
  0.318  0.025  0.641  0.000  0.016
    occupations:
  0.980  0.000  0.000  0.000  0.000
  0.000  0.693  0.000  0.074  0.193
  0.000  0.000  0.693  0.192 -0.074
  0.000  0.074  0.192  0.830  0.000
  0.000  0.193 -0.074  0.000  0.830
atom    3   Tr[ns(na)] =   3.79490
    eigenvalues: 
  0.356  0.356  0.382  0.402  0.402
    eigenvectors:
  0.000  0.000  1.000  0.000  0.000
  0.229  0.692  0.000  0.065  0.014
  0.692  0.229  0.000  0.014  0.065
  0.059  0.020  0.000  0.169  0.752
  0.020  0.059  0.000  0.752  0.169
    occupations:
  0.382  0.000  0.000  0.000  0.000
  0.000  0.359  0.000  0.000  0.013
  0.000  0.000  0.359  0.013  0.000
  0.000  0.000  0.013  0.398  0.000
  0.000  0.013  0.000  0.000  0.398
atom    4   Tr[ns(na)] =   3.79493
    eigenvalues: 
  0.356  0.356  0.382  0.402  0.402
    eigenvectors:
  0.000  0.000  1.000  0.000  0.000
  0.665  0.257  0.000  0.059  0.019
  0.257  0.664  0.000  0.019  0.060
  0.022  0.056  0.000  0.232  0.689
  0.056  0.023  0.000  0.690  0.232
    occupations:
  0.382  0.000  0.000  0.000  0.000
  0.000  0.359  0.000  0.000  0.012
  0.000  0.000  0.359  0.013  0.000
  0.000  0.000  0.013  0.398  0.000
  0.000  0.012  0.000  0.000  0.398
atom    5   Tr[ns(na)] =   5.43694
    eigenvalues: 
  0.843  0.930  0.945
    eigenvectors:
  0.338  0.000  0.662
  0.496  0.250  0.253
  0.165  0.750  0.085
    occupations:
  0.911 -0.042  0.024
 -0.042  0.891  0.023
  0.024  0.023  0.917
atom    6   Tr[ns(na)] =   5.43075
    eigenvalues: 
  0.841  0.929  0.945
    eigenvectors:
  0.338  0.000  0.662
  0.496  0.249  0.255
  0.165  0.751  0.083
    occupations:
  0.910  0.042  0.024
  0.042  0.890 -0.023
  0.024 -0.023  0.916
atom    7   Tr[ns(na)] =   5.43075
    eigenvalues: 
  0.841  0.929  0.945
    eigenvectors:
  0.338  0.000  0.662
  0.000  1.000  0.000
  0.662  0.000  0.338
    occupations:
  0.910  0.000 -0.049
  0.000  0.929  0.000
 -0.049  0.000  0.876
atom    8   Tr[ns(na)] =   5.43111
    eigenvalues: 
  0.841  0.929  0.945
    eigenvectors:
  0.339  0.000  0.661
  0.496  0.250  0.253
  0.165  0.750  0.085
    occupations:
  0.910 -0.042  0.024
 -0.042  0.890  0.023
  0.024  0.023  0.916
atom    9   Tr[ns(na)] =   5.43070
    eigenvalues: 
  0.841  0.929  0.945
    eigenvectors:
  0.339  0.000  0.661
  0.495  0.249  0.255
  0.166  0.751  0.084
    occupations:
  0.910  0.042  0.024
  0.042  0.890 -0.023
  0.024 -0.023  0.916
atom   10   Tr[ns(na)] =   5.43070
    eigenvalues: 
  0.841  0.929  0.945
    eigenvectors:
  0.339  0.000  0.661
  0.000  1.000  0.000
  0.661  0.000  0.339
    occupations:
  0.910  0.000 -0.049
  0.000  0.929  0.000
 -0.049  0.000  0.876
N of occupied +U levels =  56.2834838
 --- exit write_ns ---
 --- in v_hubbard ---
Hubbard energy    0.1244
 -------

     total cpu time spent up to now is      483.1 secs

     End of self-consistent calculation

          k = 0.0000 0.0000 0.0000 (  2175 PWs)   bands (ev):

   -19.8010 -19.6280  -6.5457  -5.8431  -5.8389  -5.8287  -5.8065  -5.4797
    -3.7977  -3.2646  -3.2262  -3.2246  -3.0293  -3.0287   5.1697   6.8496
     6.8581   7.4130   7.4173   7.4619   7.4959   7.5073   7.6981   9.2808
     9.4988   9.6014   9.6113   9.6845   9.6858  10.0977  10.1005  10.3462
    10.4472  10.4496  10.6631  11.2843  11.2866  11.7542  12.0495  12.0519
    14.7504  14.7529  15.4244  15.4260  16.1966  16.7852

     occupation numbers 
     0.0313   0.0313   0.0313   0.0313   0.0313   0.0313   0.0313   0.0313
     0.0313   0.0313   0.0313   0.0313   0.0313   0.0313   0.0313   0.0313
     0.0313   0.0313   0.0313   0.0313   0.0313   0.0313   0.0313   0.0313
     0.0312   0.0312   0.0312   0.0312   0.0312   0.0312   0.0312   0.0312
     0.0312   0.0312   0.0312   0.0306   0.0306   0.0205   0.0083   0.0082
     0.0000   0.0000   0.0000   0.0000   0.0000   0.0000

          k =-0.2471-0.1427 0.1027 (  2181 PWs)   bands (ev):

   -19.7746 -19.6576  -6.7250  -6.2898  -5.9434  -5.8496  -5.6103  -5.4759
    -3.6028  -3.3977  -2.9370  -2.9080  -2.8540  -2.7639   5.5297   6.8447
     6.9534   6.9696   7.0111   7.3926   7.4239   7.5062   7.6131   8.4214
     8.4720   9.0604   9.6231   9.7417   9.7642   9.9902  10.3350  10.3457
    10.5211  10.5269  10.6528  11.4401  11.5075  11.5461  12.3098  12.3794
    14.2957  14.3064  15.8130  16.0680  16.9710  17.2651

     occupation numbers 
     0.0625   0.0625   0.0625   0.0625   0.0625   0.0625   0.0625   0.0625
     0.0625   0.0625   0.0625   0.0625   0.0625   0.0625   0.0625   0.0625
     0.0625   0.0625   0.0625   0.0625   0.0625   0.0625   0.0625   0.0625
     0.0625   0.0625   0.0625   0.0625   0.0625   0.0625   0.0625   0.0625
     0.0625   0.0625   0.0625   0.0582   0.0559   0.0543   0.0040   0.0024
     0.0000   0.0000   0.0000   0.0000   0.0000   0.0000

          k = 0.4942 0.2853-0.2053 (  2202 PWs)   bands (ev):

   -19.7185 -19.7172  -6.7282  -6.7099  -5.9650  -5.9538  -5.5287  -5.5097
    -3.3865  -3.3858  -2.7955  -2.7909  -2.5108  -2.5070   6.0087   6.0302
     7.1314   7.1460   7.1977   7.2148   7.4663   7.5052   7.6843   7.7052
     7.8976   7.9214   9.4628   9.4658   9.8513   9.8632  10.2591  10.2693
    10.9145  10.9257  11.0381  11.0531  11.2628  11.2741  13.2787  13.3114
    13.3630  13.3983  16.8293  16.8367  17.1287  17.1337

     occupation numbers 
     0.0313   0.0313   0.0313   0.0313   0.0313   0.0313   0.0313   0.0313
     0.0313   0.0313   0.0313   0.0313   0.0313   0.0313   0.0313   0.0313
     0.0313   0.0313   0.0313   0.0313   0.0313   0.0313   0.0313   0.0313
     0.0313   0.0313   0.0313   0.0313   0.0312   0.0312   0.0312   0.0312
     0.0312   0.0312   0.0312   0.0312   0.0307   0.0306   0.0000   0.0000
     0.0000   0.0000   0.0000   0.0000   0.0000   0.0000

          k =-0.2471 0.1427 0.2053 (  2195 PWs)   bands (ev):

   -19.7683 -19.6637  -6.8566  -6.2356  -6.0706  -5.8184  -5.6449  -5.4657
    -3.4196  -3.2666  -3.1065  -2.8976  -2.8227  -2.5637   5.5666   6.7561
     6.7588   6.8565   7.1920   7.4348   7.4745   7.5033   7.5466   8.5145
     8.5747   8.7778   9.2780   9.6225   9.9224  10.0207  10.0246  10.1392
    10.2669  10.9686  11.1046  11.1269  11.4620  11.5400  11.9554  12.7194
    13.6217  14.7693  15.9899  16.1921  17.0358  17.5362

     occupation numbers 
     0.0625   0.0625   0.0625   0.0625   0.0625   0.0625   0.0625   0.0625
     0.0625   0.0625   0.0625   0.0625   0.0625   0.0625   0.0625   0.0625
     0.0625   0.0625   0.0625   0.0625   0.0625   0.0625   0.0625   0.0625
     0.0625   0.0625   0.0625   0.0625   0.0625   0.0625   0.0625   0.0625
     0.0625   0.0624   0.0622   0.0622   0.0576   0.0546   0.0239   0.0001
     0.0000   0.0000   0.0000   0.0000   0.0000   0.0000

          k = 0.4942 0.5706-0.1027 (  2198 PWs)   bands (ev):

   -19.7330 -19.7020  -6.9605  -6.6434  -6.1342  -5.8785  -5.5037  -5.3888
    -3.3096  -3.2570  -2.8788  -2.7118  -2.5304  -2.3887   5.8729   6.1986
     6.5779   6.9488   7.1541   7.3107   7.4054   7.6050   7.6525   7.8212
     8.1318   8.7524   9.0114   9.2732   9.5918   9.7841   9.8967  10.3350
    10.5700  11.0344  11.1460  11.2214  11.3560  11.4264  12.3028  12.7273
    13.4110  14.3470  16.9025  17.1120  17.3068  18.0124

     occupation numbers 
     0.0625   0.0625   0.0625   0.0625   0.0625   0.0625   0.0625   0.0625
     0.0625   0.0625   0.0625   0.0625   0.0625   0.0625   0.0625   0.0625
     0.0625   0.0625   0.0625   0.0625   0.0625   0.0625   0.0625   0.0625
     0.0625   0.0625   0.0625   0.0625   0.0625   0.0625   0.0625   0.0625
     0.0625   0.0624   0.0621   0.0617   0.0601   0.0586   0.0042   0.0001
     0.0000   0.0000   0.0000   0.0000   0.0000   0.0000

          k = 0.2471 0.4280 0.0000 (  2203 PWs)   bands (ev):

   -19.7442 -19.6910  -6.8422  -6.6443  -6.0364  -5.9853  -5.4431  -5.3625
    -3.5253  -3.2970  -2.8048  -2.7085  -2.5704  -2.5635   5.8475   6.2503
     6.8088   7.0545   7.1491   7.2294   7.3886   7.4759   7.5359   7.9116
     8.1471   8.8964   9.1151   9.3679   9.7485   9.7637  10.0413  10.3392
    10.8799  10.9089  10.9864  11.1727  11.1988  11.5223  12.2247  13.3085
    13.3833  14.1388  16.4323  16.9912  17.4195  17.9224

     occupation numbers 
     0.0625   0.0625   0.0625   0.0625   0.0625   0.0625   0.0625   0.0625
     0.0625   0.0625   0.0625   0.0625   0.0625   0.0625   0.0625   0.0625
     0.0625   0.0625   0.0625   0.0625   0.0625   0.0625   0.0625   0.0625
     0.0625   0.0625   0.0625   0.0625   0.0625   0.0625   0.0625   0.0625
     0.0625   0.0625   0.0624   0.0620   0.0619   0.0553   0.0068   0.0000
     0.0000   0.0000   0.0000   0.0000   0.0000   0.0000

          k = 0.4942-0.2853-0.4107 (  2202 PWs)   bands (ev):

   -19.7352 -19.6991  -7.1729  -6.4558  -6.2454  -5.9508  -5.5172  -5.2968
    -3.1976  -3.1239  -3.0486  -2.6542  -2.4841  -2.2260   5.7831   6.0962
     6.2093   6.8479   7.1422   7.2526   7.5500   7.6461   8.1476   8.2127
     8.2234   8.2826   8.5972   9.3872   9.6580   9.8471  10.0185  10.0593
    10.4210  10.9322  11.0961  11.2595  11.3914  11.5548  11.8847  12.4149
    13.3120  14.7826  17.0407  17.2621  17.5190  17.6092

     occupation numbers 
     0.0313   0.0313   0.0313   0.0313   0.0313   0.0313   0.0313   0.0313
     0.0313   0.0313   0.0313   0.0313   0.0313   0.0313   0.0313   0.0313
     0.0313   0.0313   0.0313   0.0313   0.0313   0.0313   0.0313   0.0313
     0.0313   0.0313   0.0313   0.0313   0.0312   0.0312   0.0312   0.0312
     0.0312   0.0312   0.0311   0.0307   0.0297   0.0269   0.0150   0.0009
     0.0000   0.0000   0.0000   0.0000   0.0000   0.0000

          k = 0.0000 0.0000 0.3080 (  2187 PWs)   bands (ev):

   -19.7743 -19.6581  -6.6133  -5.9822  -5.9364  -5.9229  -5.8466  -5.8292
    -3.2079  -3.1228  -3.1203  -2.9705  -2.9006  -2.8984   5.5895   6.9460
     6.9556   7.1078   7.1230   7.3347   7.3418   7.5428   7.5515   8.6330
     8.6363   9.1372   9.4242   9.5751   9.5856   9.7534  10.1050  10.1148
    10.6482  10.6509  10.8027  11.4745  11.4763  11.5499  12.2841  12.2857
    14.2566  14.2591  15.9073  15.9092  16.8777  17.4788

     occupation numbers 
     0.0625   0.0625   0.0625   0.0625   0.0625   0.0625   0.0625   0.0625
     0.0625   0.0625   0.0625   0.0625   0.0625   0.0625   0.0625   0.0625
     0.0625   0.0625   0.0625   0.0625   0.0625   0.0625   0.0625   0.0625
     0.0625   0.0625   0.0625   0.0625   0.0625   0.0625   0.0625   0.0625
     0.0625   0.0625   0.0625   0.0571   0.0571   0.0541   0.0047   0.0047
     0.0000   0.0000   0.0000   0.0000   0.0000   0.0000

          k = 0.7412 0.4280 0.0000 (  2204 PWs)   bands (ev):

   -19.7436 -19.6918  -6.7328  -6.5989  -6.1446  -5.8312  -5.6825  -5.5410
    -3.1794  -3.0944  -3.0469  -2.6792  -2.6596  -2.5859   5.8993   6.4573
     6.7899   7.0785   7.1557   7.2577   7.3664   7.4623   7.6667   7.8540
     8.1905   8.7852   9.1429   9.4597   9.5572   9.6649   9.8262  10.2041
    10.8712  10.9877  11.0171  11.2375  11.2599  11.3987  12.2267  13.2294
    13.2974  14.1675  16.6860  16.7207  17.5885  17.7911

     occupation numbers 
     0.0625   0.0625   0.0625   0.0625   0.0625   0.0625   0.0625   0.0625
     0.0625   0.0625   0.0625   0.0625   0.0625   0.0625   0.0625   0.0625
     0.0625   0.0625   0.0625   0.0625   0.0625   0.0625   0.0625   0.0625
     0.0625   0.0625   0.0625   0.0625   0.0625   0.0625   0.0625   0.0625
     0.0625   0.0624   0.0624   0.0616   0.0614   0.0593   0.0067   0.0000
     0.0000   0.0000   0.0000   0.0000   0.0000   0.0000

          k = 0.4942 0.2853 0.1027 (  2211 PWs)   bands (ev):

   -19.7342 -19.7021  -6.9675  -6.5425  -6.3204  -5.6995  -5.6249  -5.3519
    -3.3226  -3.1674  -3.0352  -2.6041  -2.5637  -2.3787   5.8926   6.1849
     6.5201   6.9359   7.1867   7.1899   7.4404   7.6029   7.7259   7.8129
     8.1809   8.8261   9.0187   9.3747   9.4456   9.6508   9.9843  10.3227
    10.5929  11.0988  11.2342  11.2432  11.2910  11.3165  12.2560  12.7418
    13.4610  14.3266  16.8822  16.9325  17.5780  17.9246

     occupation numbers 
     0.0625   0.0625   0.0625   0.0625   0.0625   0.0625   0.0625   0.0625
     0.0625   0.0625   0.0625   0.0625   0.0625   0.0625   0.0625   0.0625
     0.0625   0.0625   0.0625   0.0625   0.0625   0.0625   0.0625   0.0625
     0.0625   0.0625   0.0625   0.0625   0.0625   0.0625   0.0625   0.0625
     0.0625   0.0623   0.0616   0.0616   0.0611   0.0608   0.0056   0.0001
     0.0000   0.0000   0.0000   0.0000   0.0000   0.0000

          k = 0.7412-0.4280-0.3080 (  2210 PWs)   bands (ev):

   -19.7331 -19.7021  -6.9135  -6.4494  -6.3012  -5.7914  -5.7467  -5.4906
    -3.0734  -3.0558  -2.9651  -2.7330  -2.6255  -2.4314   5.9735   6.3131
     6.5954   6.9200   7.1781   7.2447   7.4737   7.6221   7.7676   7.8342
     8.1438   8.8368   8.8783   9.4345   9.4812   9.4957   9.6353  10.1817
    10.6798  11.1077  11.2073  11.2334  11.3481  11.3815  12.2159  12.6936
    13.4058  14.2984  17.0576  17.0661  17.5458  17.9009

     occupation numbers 
     0.0625   0.0625   0.0625   0.0625   0.0625   0.0625   0.0625   0.0625
     0.0625   0.0625   0.0625   0.0625   0.0625   0.0625   0.0625   0.0625
     0.0625   0.0625   0.0625   0.0625   0.0625   0.0625   0.0625   0.0625
     0.0625   0.0625   0.0625   0.0625   0.0625   0.0625   0.0625   0.0625
     0.0625   0.0622   0.0618   0.0616   0.0603   0.0597   0.0072   0.0001
     0.0000   0.0000   0.0000   0.0000   0.0000   0.0000

          k = 0.4942-0.5706-0.2053 (  2206 PWs)   bands (ev):

   -19.7183 -19.7179  -6.8892  -6.8749  -6.0401  -6.0199  -5.4328  -5.4188
    -3.1553  -3.1549  -2.8172  -2.8137  -2.3870  -2.3841   6.0348   6.0566
     6.7147   6.7274   7.0633   7.0683   7.3592   7.3705   7.8626   7.9006
     8.7521   8.7625   8.8539   8.8683   9.5005   9.5096  10.0611  10.0677
    10.8869  10.8877  11.1010  11.1086  11.4051  11.4127  12.2723  12.2755
    13.9888  13.9987  17.4230  17.4251  17.8664  17.8676

     occupation numbers 
     0.0625   0.0625   0.0625   0.0625   0.0625   0.0625   0.0625   0.0625
     0.0625   0.0625   0.0625   0.0625   0.0625   0.0625   0.0625   0.0625
     0.0625   0.0625   0.0625   0.0625   0.0625   0.0625   0.0625   0.0625
     0.0625   0.0625   0.0625   0.0625   0.0625   0.0625   0.0625   0.0625
     0.0625   0.0625   0.0623   0.0622   0.0591   0.0589   0.0051   0.0050
     0.0000   0.0000   0.0000   0.0000   0.0000   0.0000

          k = 0.0000 0.0000-0.6160 (  2186 PWs)   bands (ev):

   -19.7187 -19.7174  -6.5166  -6.4950  -5.9464  -5.9451  -5.9432  -5.9168
    -2.8969  -2.8958  -2.8948  -2.8904  -2.7097  -2.7064   6.2396   6.2626
     7.1362   7.1514   7.1637   7.1687   7.5687   7.5995   7.8212   7.8249
     7.8505   7.8534   9.5961   9.6005   9.6126   9.6140   9.6710   9.6864
    11.0970  11.1097  11.1663  11.1702  11.1810  11.1837  13.2178  13.2204
    13.2515  13.2535  17.1129  17.1150  17.1163  17.1174

     occupation numbers 
     0.0313   0.0313   0.0313   0.0313   0.0313   0.0313   0.0313   0.0313
     0.0313   0.0313   0.0313   0.0313   0.0313   0.0313   0.0313   0.0313
     0.0313   0.0313   0.0313   0.0313   0.0313   0.0313   0.0313   0.0313
     0.0313   0.0313   0.0312   0.0312   0.0312   0.0312   0.0312   0.0312
     0.0311   0.0311   0.0310   0.0310   0.0310   0.0310   0.0000   0.0000
     0.0000   0.0000   0.0000   0.0000   0.0000   0.0000

          k =-0.2471 0.1427-0.1027 (  2181 PWs)   bands (ev):

   -19.7746 -19.6576  -6.7251  -6.2901  -5.9447  -5.8467  -5.6098  -5.4781
    -3.6015  -3.3984  -2.9364  -2.9086  -2.8546  -2.7633   5.5288   6.8425
     6.9511   6.9748   7.0093   7.3905   7.4274   7.5140   7.6059   8.4230
     8.4687   9.0629   9.6296   9.7335   9.7657   9.9894  10.3330  10.3463
    10.5220  10.5253  10.6543  11.4404  11.5071  11.5471  12.3111  12.3780
    14.2977  14.3045  15.8141  16.0663  16.9705  17.2639

     occupation numbers 
     0.0625   0.0625   0.0625   0.0625   0.0625   0.0625   0.0625   0.0625
     0.0625   0.0625   0.0625   0.0625   0.0625   0.0625   0.0625   0.0625
     0.0625   0.0625   0.0625   0.0625   0.0625   0.0625   0.0625   0.0625
     0.0625   0.0625   0.0625   0.0625   0.0625   0.0625   0.0625   0.0625
     0.0625   0.0625   0.0625   0.0582   0.0559   0.0542   0.0039   0.0024
     0.0000   0.0000   0.0000   0.0000   0.0000   0.0000

          k = 0.0000 0.2853 0.1027 (  2181 PWs)   bands (ev):

   -19.7746 -19.6576  -6.7250  -6.2898  -5.9436  -5.8494  -5.6101  -5.4762
    -3.6028  -3.3977  -2.9369  -2.9081  -2.8539  -2.7639   5.5297   6.8447
     6.9531   6.9696   7.0114   7.3925   7.4239   7.5064   7.6130   8.4212
     8.4721   9.0604   9.6229   9.7418   9.7643   9.9901  10.3343  10.3464
    10.5218  10.5264  10.6527  11.4401  11.5073  11.5463  12.3098  12.3794
    14.2958  14.3063  15.8130  16.0680  16.9709  17.2651

     occupation numbers 
     0.0625   0.0625   0.0625   0.0625   0.0625   0.0625   0.0625   0.0625
     0.0625   0.0625   0.0625   0.0625   0.0625   0.0625   0.0625   0.0625
     0.0625   0.0625   0.0625   0.0625   0.0625   0.0625   0.0625   0.0625
     0.0625   0.0625   0.0625   0.0625   0.0625   0.0625   0.0625   0.0625
     0.0625   0.0625   0.0625   0.0582   0.0559   0.0543   0.0040   0.0024
     0.0000   0.0000   0.0000   0.0000   0.0000   0.0000

          k = 0.4942-0.2853 0.2053 (  2202 PWs)   bands (ev):

   -19.7185 -19.7172  -6.7288  -6.7097  -5.9658  -5.9523  -5.5274  -5.5119
    -3.3871  -3.3843  -2.7951  -2.7919  -2.5107  -2.5068   6.0064   6.0304
     7.1143   7.1437   7.2055   7.2212   7.4809   7.5061   7.6772   7.7057
     7.8946   7.9225   9.4644   9.4713   9.8427   9.8618  10.2588  10.2721
    10.9132  10.9255  11.0386  11.0518  11.2633  11.2770  13.2794  13.3133
    13.3622  13.3966  16.8309  16.8358  17.1278  17.1315

     occupation numbers 
     0.0313   0.0313   0.0313   0.0313   0.0313   0.0313   0.0313   0.0313
     0.0313   0.0313   0.0313   0.0313   0.0313   0.0313   0.0313   0.0313
     0.0313   0.0313   0.0313   0.0313   0.0313   0.0313   0.0313   0.0313
     0.0313   0.0313   0.0313   0.0313   0.0312   0.0312   0.0312   0.0312
     0.0312   0.0312   0.0312   0.0312   0.0307   0.0306   0.0000   0.0000
     0.0000   0.0000   0.0000   0.0000   0.0000   0.0000

          k = 0.0000-0.5706-0.2053 (  2202 PWs)   bands (ev):

   -19.7185 -19.7172  -6.7290  -6.7090  -5.9667  -5.9522  -5.5264  -5.5121
[...]
     0.0625   0.0625   0.0625   0.0625   0.0625   0.0625   0.0625   0.0625
     0.0625   0.0625   0.0625   0.0625   0.0625   0.0625   0.0625   0.0625
     0.0625   0.0624   0.0622   0.0622   0.0575   0.0546   0.0240   0.0001
     0.0000   0.0000   0.0000   0.0000   0.0000   0.0000

          k = 0.4942-0.5706 0.1027 (  2198 PWs)   bands (ev):

   -19.7338 -19.7025  -6.9518  -6.6446  -6.1264  -5.8948  -5.5142  -5.3771
    -3.3094  -3.2566  -2.8804  -2.7081  -2.5301  -2.3857   5.8577   6.2156
     6.5601   6.9439   7.1547   7.2975   7.4226   7.5926   7.6358   7.8424
     8.1440   8.7522   9.0161   9.2789   9.5825   9.7897   9.8978  10.3316
    10.5664  11.0346  11.1504  11.2164  11.3608  11.4290  12.3015  12.7267
    13.4146  14.3448  16.9044  17.1072  17.3068  18.0122

     occupation numbers 
     0.0625   0.0625   0.0625   0.0625   0.0625   0.0625   0.0625   0.0625
     0.0625   0.0625   0.0625   0.0625   0.0625   0.0625   0.0625   0.0625
     0.0625   0.0625   0.0625   0.0625   0.0625   0.0625   0.0625   0.0625
     0.0625   0.0625   0.0625   0.0625   0.0625   0.0625   0.0625   0.0625
     0.0625   0.0624   0.0621   0.0618   0.0601   0.0585   0.0042   0.0001
     0.0000   0.0000   0.0000   0.0000   0.0000   0.0000

          k =-0.7412 0.1427-0.1027 (  2198 PWs)   bands (ev):

   -19.7338 -19.7025  -6.9513  -6.6454  -6.1253  -5.8958  -5.5132  -5.3778
    -3.3086  -3.2566  -2.8802  -2.7091  -2.5295  -2.3860   5.8597   6.2119
     6.5643   6.9428   7.1505   7.2990   7.4125   7.6053   7.6507   7.8255
     8.1443   8.7473   9.0201   9.2798   9.5848   9.7891   9.8981  10.3298
    10.5668  11.0384  11.1452  11.2174  11.3569  11.4328  12.3017  12.7269
    13.4148  14.3451  16.9025  17.1101  17.3062  18.0120

     occupation numbers 
     0.0625   0.0625   0.0625   0.0625   0.0625   0.0625   0.0625   0.0625
     0.0625   0.0625   0.0625   0.0625   0.0625   0.0625   0.0625   0.0625
     0.0625   0.0625   0.0625   0.0625   0.0625   0.0625   0.0625   0.0625
     0.0625   0.0625   0.0625   0.0625   0.0625   0.0625   0.0625   0.0625
     0.0625   0.0624   0.0621   0.0618   0.0601   0.0584   0.0042   0.0001
     0.0000   0.0000   0.0000   0.0000   0.0000   0.0000

          k = 0.2471-0.7133-0.1027 (  2198 PWs)   bands (ev):

   -19.7338 -19.7025  -6.9510  -6.6459  -6.1243  -5.8967  -5.5140  -5.3767
    -3.3088  -3.2568  -2.8799  -2.7100  -2.5295  -2.3858   5.8604   6.2118
     6.5658   6.9415   7.1490   7.3011   7.4132   7.6064   7.6486   7.8244
     8.1447   8.7474   9.0180   9.2785   9.5898   9.7855   9.9008  10.3288
    10.5668  11.0370  11.1458  11.2224  11.3535  11.4317  12.3018  12.7268
    13.4148  14.3451  16.9010  17.1123  17.3063  18.0129

     occupation numbers 
     0.0625   0.0625   0.0625   0.0625   0.0625   0.0625   0.0625   0.0625
     0.0625   0.0625   0.0625   0.0625   0.0625   0.0625   0.0625   0.0625
     0.0625   0.0625   0.0625   0.0625   0.0625   0.0625   0.0625   0.0625
     0.0625   0.0625   0.0625   0.0625   0.0625   0.0625   0.0625   0.0625
     0.0625   0.0624   0.0621   0.0617   0.0602   0.0585   0.0042   0.0001
     0.0000   0.0000   0.0000   0.0000   0.0000   0.0000

          k =-0.7412-0.1427 0.1027 (  2198 PWs)   bands (ev):

   -19.7338 -19.7025  -6.9515  -6.6450  -6.1255  -5.8957  -5.5149  -5.3760
    -3.3095  -3.2567  -2.8800  -2.7089  -2.5301  -2.3854   5.8585   6.2155
     6.5616   6.9424   7.1533   7.2995   7.4237   7.5932   7.6338   7.8414
     8.1442   8.7524   9.0141   9.2776   9.5874   9.7862   9.9004  10.3305
    10.5664  11.0332  11.1510  11.2214  11.3573  11.4279  12.3015  12.7266
    13.4146  14.3448  16.9029  17.1094  17.3069  18.0131

     occupation numbers 
     0.0625   0.0625   0.0625   0.0625   0.0625   0.0625   0.0625   0.0625
     0.0625   0.0625   0.0625   0.0625   0.0625   0.0625   0.0625   0.0625
     0.0625   0.0625   0.0625   0.0625   0.0625   0.0625   0.0625   0.0625
     0.0625   0.0625   0.0625   0.0625   0.0625   0.0625   0.0625   0.0625
     0.0625   0.0624   0.0621   0.0617   0.0601   0.0586   0.0042   0.0001
     0.0000   0.0000   0.0000   0.0000   0.0000   0.0000

          k = 0.2471 0.7133 0.1027 (  2198 PWs)   bands (ev):

   -19.7330 -19.7020  -6.9610  -6.6426  -6.1352  -5.8775  -5.5047  -5.3881
    -3.3104  -3.2569  -2.8789  -2.7108  -2.5310  -2.3883   5.8708   6.2023
     6.5738   6.9497   7.1582   7.3094   7.4155   7.5924   7.6367   7.8392
     8.1312   8.7574   9.0073   9.2722   9.5894   9.7850   9.8963  10.3368
    10.5696  11.0306  11.1514  11.2203  11.3598  11.4226  12.3025  12.7271
    13.4109  14.3468  16.9043  17.1091  17.3073  18.0127

     occupation numbers 
     0.0625   0.0625   0.0625   0.0625   0.0625   0.0625   0.0625   0.0625
     0.0625   0.0625   0.0625   0.0625   0.0625   0.0625   0.0625   0.0625
     0.0625   0.0625   0.0625   0.0625   0.0625   0.0625   0.0625   0.0625
     0.0625   0.0625   0.0625   0.0625   0.0625   0.0625   0.0625   0.0625
     0.0625   0.0624   0.0621   0.0617   0.0601   0.0587   0.0042   0.0001
     0.0000   0.0000   0.0000   0.0000   0.0000   0.0000

          k = 0.2471-0.4280 0.0000 (  2203 PWs)   bands (ev):

   -19.7440 -19.6911  -6.8470  -6.6349  -6.0556  -5.9749  -5.4341  -5.3676
    -3.5238  -3.2970  -2.8028  -2.7127  -2.5722  -2.5610   5.8580   6.2443
     6.8136   7.0519   7.1387   7.2277   7.3962   7.4670   7.5403   7.9033
     8.1386   8.9089   9.1204   9.3868   9.7414   9.7620  10.0418  10.3355
    10.8768  10.9068  10.9845  11.1695  11.1988  11.5286  12.2245  13.3067
    13.3815  14.1419  16.4329  16.9893  17.4174  17.9232

     occupation numbers 
     0.0625   0.0625   0.0625   0.0625   0.0625   0.0625   0.0625   0.0625
     0.0625   0.0625   0.0625   0.0625   0.0625   0.0625   0.0625   0.0625
     0.0625   0.0625   0.0625   0.0625   0.0625   0.0625   0.0625   0.0625
     0.0625   0.0625   0.0625   0.0625   0.0625   0.0625   0.0625   0.0625
     0.0625   0.0625   0.0624   0.0620   0.0619   0.0551   0.0068   0.0000
     0.0000   0.0000   0.0000   0.0000   0.0000   0.0000

          k =-0.4942 0.0000 0.0000 (  2203 PWs)   bands (ev):

   -19.7440 -19.6911  -6.8470  -6.6348  -6.0557  -5.9749  -5.4341  -5.3675
    -3.5238  -3.2970  -2.8028  -2.7127  -2.5724  -2.5608   5.8580   6.2443
     6.8136   7.0514   7.1408   7.2263   7.3961   7.4667   7.5403   7.9036
     8.1385   8.9089   9.1204   9.3868   9.7409   9.7626  10.0417  10.3356
    10.8768  10.9069  10.9845  11.1695  11.1987  11.5286  12.2245  13.3067
    13.3815  14.1419  16.4329  16.9893  17.4174  17.9238

     occupation numbers 
     0.0625   0.0625   0.0625   0.0625   0.0625   0.0625   0.0625   0.0625
     0.0625   0.0625   0.0625   0.0625   0.0625   0.0625   0.0625   0.0625
     0.0625   0.0625   0.0625   0.0625   0.0625   0.0625   0.0625   0.0625
     0.0625   0.0625   0.0625   0.0625   0.0625   0.0625   0.0625   0.0625
     0.0625   0.0625   0.0624   0.0620   0.0619   0.0551   0.0068   0.0000
     0.0000   0.0000   0.0000   0.0000   0.0000   0.0000

          k = 0.4942 0.2853 0.4107 (  2202 PWs)   bands (ev):

   -19.7367 -19.7002  -7.1620  -6.4513  -6.2338  -5.9730  -5.5339  -5.2845
    -3.1969  -3.1231  -3.0482  -2.6503  -2.4817  -2.2226   5.7662   6.0813
     6.2291   6.8415   7.1293   7.2380   7.5393   7.6399   8.1474   8.2280
     8.2378   8.3037   8.5808   9.4078   9.6631   9.8468  10.0196  10.0528
    10.4135  10.9315  11.0994  11.2570  11.3902  11.5622  11.8838  12.4141
    13.3166  14.7807  17.0396  17.2615  17.5166  17.6074

     occupation numbers 
     0.0313   0.0313   0.0313   0.0313   0.0313   0.0313   0.0313   0.0313
     0.0313   0.0313   0.0313   0.0313   0.0313   0.0313   0.0313   0.0313
     0.0313   0.0313   0.0313   0.0313   0.0313   0.0313   0.0313   0.0313
     0.0313   0.0313   0.0313   0.0313   0.0312   0.0312   0.0312   0.0312
     0.0312   0.0312   0.0311   0.0307   0.0297   0.0268   0.0150   0.0009
     0.0000   0.0000   0.0000   0.0000   0.0000   0.0000

          k = 0.0000 0.5706-0.4107 (  2202 PWs)   bands (ev):

   -19.7367 -19.7002  -7.1620  -6.4512  -6.2339  -5.9729  -5.5338  -5.2845
    -3.1969  -3.1231  -3.0482  -2.6503  -2.4817  -2.2226   5.7662   6.0813
     6.2291   6.8415   7.1293   7.2380   7.5397   7.6395   8.1472   8.2280
     8.2378   8.3039   8.5808   9.4077   9.6631   9.8468  10.0194  10.0529
    10.4134  10.9315  11.0992  11.2572  11.3900  11.5622  11.8838  12.4141
    13.3166  14.7807  17.0396  17.2615  17.5166  17.6075

     occupation numbers 
     0.0313   0.0313   0.0313   0.0313   0.0313   0.0313   0.0313   0.0313
     0.0313   0.0313   0.0313   0.0313   0.0313   0.0313   0.0313   0.0313
     0.0313   0.0313   0.0313   0.0313   0.0313   0.0313   0.0313   0.0313
     0.0313   0.0313   0.0313   0.0313   0.0312   0.0312   0.0312   0.0312
     0.0312   0.0312   0.0311   0.0307   0.0297   0.0268   0.0150   0.0009
     0.0000   0.0000   0.0000   0.0000   0.0000   0.0000

          k = 0.7412-0.4280 0.0000 (  2204 PWs)   bands (ev):

   -19.7437 -19.6916  -6.7280  -6.6077  -6.1401  -5.8272  -5.6764  -5.5523
    -3.1807  -3.0942  -3.0469  -2.6772  -2.6569  -2.5883   5.8862   6.4665
     6.7803   7.0843   7.1633   7.2644   7.3617   7.4617   7.6691   7.8623
     8.1985   8.7730   9.1353   9.4435   9.5599   9.6673   9.8266  10.2082
    10.8743  10.9900  11.0195  11.2408  11.2585  11.3945  12.2266  13.2311
    13.2991  14.1645  16.6845  16.7217  17.5899  17.7914

     occupation numbers 
     0.0625   0.0625   0.0625   0.0625   0.0625   0.0625   0.0625   0.0625
     0.0625   0.0625   0.0625   0.0625   0.0625   0.0625   0.0625   0.0625
     0.0625   0.0625   0.0625   0.0625   0.0625   0.0625   0.0625   0.0625
     0.0625   0.0625   0.0625   0.0625   0.0625   0.0625   0.0625   0.0625
     0.0625   0.0624   0.0624   0.0616   0.0614   0.0594   0.0067   0.0000
     0.0000   0.0000   0.0000   0.0000   0.0000   0.0000

          k = 0.0000-0.8559 0.0000 (  2204 PWs)   bands (ev):

   -19.7436 -19.6918  -6.7328  -6.5990  -6.1446  -5.8312  -5.6825  -5.5411
    -3.1794  -3.0944  -3.0469  -2.6792  -2.6595  -2.5859   5.8994   6.4574
     6.7899   7.0789   7.1537   7.2593   7.3664   7.4624   7.6670   7.8535
     8.1905   8.7852   9.1429   9.4597   9.5571   9.6651   9.8261  10.2041
    10.8712  10.9878  11.0170  11.2375  11.2598  11.3987  12.2267  13.2294
    13.2974  14.1675  16.6860  16.7207  17.5885  17.7911

     occupation numbers 
     0.0625   0.0625   0.0625   0.0625   0.0625   0.0625   0.0625   0.0625
     0.0625   0.0625   0.0625   0.0625   0.0625   0.0625   0.0625   0.0625
     0.0625   0.0625   0.0625   0.0625   0.0625   0.0625   0.0625   0.0625
     0.0625   0.0625   0.0625   0.0625   0.0625   0.0625   0.0625   0.0625
     0.0625   0.0624   0.0624   0.0616   0.0614   0.0593   0.0067   0.0000
     0.0000   0.0000   0.0000   0.0000   0.0000   0.0000

          k = 0.4942-0.2853-0.1027 (  2211 PWs)   bands (ev):

   -19.7334 -19.7016  -6.9764  -6.5407  -6.3220  -5.6945  -5.6119  -5.3616
    -3.3227  -3.1676  -3.0355  -2.6058  -2.5639  -2.3815   5.9047   6.1705
     6.5332   6.9407   7.1896   7.1985   7.4412   7.6004   7.7278   7.8082
     8.1688   8.8330   9.0113   9.3783   9.4518   9.6331   9.9811  10.3299
    10.5971  11.0974  11.2329  11.2409  11.2924  11.3148  12.2569  12.7422
    13.4572  14.3285  16.8828  16.9321  17.5775  17.9250

     occupation numbers 
     0.0625   0.0625   0.0625   0.0625   0.0625   0.0625   0.0625   0.0625
     0.0625   0.0625   0.0625   0.0625   0.0625   0.0625   0.0625   0.0625
     0.0625   0.0625   0.0625   0.0625   0.0625   0.0625   0.0625   0.0625
     0.0625   0.0625   0.0625   0.0625   0.0625   0.0625   0.0625   0.0625
     0.0625   0.0623   0.0616   0.0616   0.0611   0.0608   0.0056   0.0001
     0.0000   0.0000   0.0000   0.0000   0.0000   0.0000

          k = 0.0000-0.5706 0.1027 (  2211 PWs)   bands (ev):

   -19.7342 -19.7021  -6.9675  -6.5425  -6.3204  -5.6995  -5.6247  -5.3520
    -3.3226  -3.1674  -3.0352  -2.6042  -2.5637  -2.3787   5.8926   6.1849
     6.5201   6.9359   7.1829   7.1937   7.4407   7.6029   7.7259   7.8124
     8.1811   8.8260   9.0187   9.3745   9.4458   9.6508   9.9843  10.3228
    10.5929  11.0987  11.2349  11.2427  11.2905  11.3168  12.2560  12.7418
    13.4610  14.3266  16.8822  16.9325  17.5780  17.9246

     occupation numbers 
     0.0625   0.0625   0.0625   0.0625   0.0625   0.0625   0.0625   0.0625
     0.0625   0.0625   0.0625   0.0625   0.0625   0.0625   0.0625   0.0625
     0.0625   0.0625   0.0625   0.0625   0.0625   0.0625   0.0625   0.0625
     0.0625   0.0625   0.0625   0.0625   0.0625   0.0625   0.0625   0.0625
     0.0625   0.0623   0.0616   0.0616   0.0611   0.0608   0.0056   0.0001
     0.0000   0.0000   0.0000   0.0000   0.0000   0.0000

          k = 0.7412 0.4280 0.3080 (  2210 PWs)   bands (ev):

   -19.7339 -19.7026  -6.9038  -6.4514  -6.2979  -5.7988  -5.7616  -5.4790
    -3.0729  -3.0561  -2.9662  -2.7307  -2.6241  -2.4287   5.9596   6.3305
     6.5820   6.9139   7.1707   7.2375   7.4745   7.6267   7.7638   7.8379
     8.1566   8.8297   8.8859   9.4364   9.4902   9.4943   9.6370  10.1750
    10.6767  11.1108  11.2076  11.2315  11.3515  11.3823  12.2151  12.6932
    13.4095  14.2964  17.0565  17.0661  17.5466  17.9003

     occupation numbers 
     0.0625   0.0625   0.0625   0.0625   0.0625   0.0625   0.0625   0.0625
     0.0625   0.0625   0.0625   0.0625   0.0625   0.0625   0.0625   0.0625
     0.0625   0.0625   0.0625   0.0625   0.0625   0.0625   0.0625   0.0625
     0.0625   0.0625   0.0625   0.0625   0.0625   0.0625   0.0625   0.0625
     0.0625   0.0622   0.0618   0.0617   0.0602   0.0596   0.0072   0.0001
     0.0000   0.0000   0.0000   0.0000   0.0000   0.0000

          k = 0.0000 0.8559-0.3080 (  2210 PWs)   bands (ev):

   -19.7339 -19.7026  -6.9038  -6.4514  -6.2978  -5.7989  -5.7616  -5.4790
    -3.0729  -3.0561  -2.9662  -2.7307  -2.6241  -2.4287   5.9596   6.3305
     6.5819   6.9139   7.1707   7.2375   7.4746   7.6264   7.7625   7.8396
     8.1564   8.8294   8.8861   9.4366   9.4907   9.4937   9.6370  10.1750
    10.6767  11.1107  11.2085  11.2307  11.3516  11.3823  12.2151  12.6932
    13.4095  14.2964  17.0564  17.0661  17.5466  17.9003

     occupation numbers 
     0.0625   0.0625   0.0625   0.0625   0.0625   0.0625   0.0625   0.0625
     0.0625   0.0625   0.0625   0.0625   0.0625   0.0625   0.0625   0.0625
     0.0625   0.0625   0.0625   0.0625   0.0625   0.0625   0.0625   0.0625
     0.0625   0.0625   0.0625   0.0625   0.0625   0.0625   0.0625   0.0625
     0.0625   0.0622   0.0618   0.0617   0.0602   0.0596   0.0072   0.0001
     0.0000   0.0000   0.0000   0.0000   0.0000   0.0000

          k = 0.2471 0.7133-0.2053 (  2206 PWs)   bands (ev):

   -19.7183 -19.7179  -6.8894  -6.8747  -6.0404  -6.0197  -5.4328  -5.4188
    -3.1553  -3.1548  -2.8171  -2.8138  -2.3874  -2.3838   6.0349   6.0565
     6.7156   6.7265   7.0633   7.0684   7.3592   7.3704   7.8633   7.8999
     8.7498   8.7651   8.8545   8.8675   9.4995   9.5106  10.0614  10.0673
    10.8860  10.8885  11.1036  11.1061  11.4058  11.4121  12.2722  12.2756
    13.9888  13.9987  17.4233  17.4248  17.8650  17.8689

     occupation numbers 
     0.0625   0.0625   0.0625   0.0625   0.0625   0.0625   0.0625   0.0625
     0.0625   0.0625   0.0625   0.0625   0.0625   0.0625   0.0625   0.0625
     0.0625   0.0625   0.0625   0.0625   0.0625   0.0625   0.0625   0.0625
     0.0625   0.0625   0.0625   0.0625   0.0625   0.0625   0.0625   0.0625
     0.0625   0.0625   0.0623   0.0622   0.0591   0.0590   0.0051   0.0050
     0.0000   0.0000   0.0000   0.0000   0.0000   0.0000

          k =-0.7412-0.1427-0.2053 (  2206 PWs)   bands (ev):

   -19.7188 -19.7187  -6.8878  -6.8639  -6.0395  -6.0380  -5.4336  -5.4118
    -3.1550  -3.1537  -2.8173  -2.8162  -2.3872  -2.3778   6.0393   6.0576
     6.7125   6.7156   7.0397   7.0686   7.3558   7.3590   7.8732   7.9064
     8.7629   8.7684   8.8624   8.8677   9.5130   9.5157  10.0563  10.0571
    10.8813  10.8830  11.1034  11.1081  11.4104  11.4138  12.2711  12.2753
    13.9895  13.9994  17.4243  17.4250  17.8646  17.8670

     occupation numbers 
     0.0625   0.0625   0.0625   0.0625   0.0625   0.0625   0.0625   0.0625
     0.0625   0.0625   0.0625   0.0625   0.0625   0.0625   0.0625   0.0625
     0.0625   0.0625   0.0625   0.0625   0.0625   0.0625   0.0625   0.0625
     0.0625   0.0625   0.0625   0.0625   0.0625   0.0625   0.0625   0.0625
     0.0625   0.0625   0.0623   0.0622   0.0590   0.0589   0.0051   0.0050
     0.0000   0.0000   0.0000   0.0000   0.0000   0.0000

     the Fermi energy is    11.8692 ev

!    total energy              =    -538.19602663 Ry
     Harris-Foulkes estimate   =    -538.19601300 Ry
     estimated scf accuracy    <          5.2E-09 Ry

     The total energy is the sum of the following terms:

     one-electron contribution =     -32.91956605 Ry
     hartree contribution      =      83.66160893 Ry
     xc contribution           =    -199.59764269 Ry
     ewald contribution        =    -389.44315552 Ry
     Hubbard energy            =       0.12439347 Ry
     smearing contrib. (-TS)   =      -0.02166477 Ry

     convergence has been achieved in  11 iterations

     init_run     :      7.34s CPU      7.45s WALL (       1 calls)
     electrons    :    471.58s CPU    475.19s WALL (       1 calls)

     Called by init_run:
     wfcinit      :      0.00s CPU      0.00s WALL (       1 calls)
     potinit      :      0.30s CPU      0.33s WALL (       1 calls)

     Called by electrons:
     c_bands      :    364.31s CPU    365.83s WALL (      11 calls)
     sum_band     :     76.88s CPU     77.61s WALL (      11 calls)
     v_of_rho     :      3.59s CPU      3.61s WALL (      12 calls)
     v_h          :      0.24s CPU      0.23s WALL (      12 calls)
     v_xc         :      3.35s CPU      3.38s WALL (      12 calls)
     newd         :     28.07s CPU     28.12s WALL (      12 calls)
     mix_rho      :      0.43s CPU      0.43s WALL (      11 calls)

     Called by c_bands:
     init_us_2    :      3.40s CPU      3.42s WALL (     792 calls)
     cegterg      :    354.95s CPU    355.78s WALL (     396 calls)

     Called by sum_band:
     sum_band:bec :      0.29s CPU      0.30s WALL (     396 calls)
     addusdens    :     15.52s CPU     15.53s WALL (      11 calls)

     Called by *egterg:
     h_psi        :    263.00s CPU    263.69s WALL (    1571 calls)
     s_psi        :     13.99s CPU     14.02s WALL (    1571 calls)
     g_psi        :      0.95s CPU      0.95s WALL (    1175 calls)
     cdiaghg      :     30.27s CPU     30.30s WALL (    1535 calls)
     cegterg:over :     17.24s CPU     17.29s WALL (    1175 calls)
     cegterg:upda :     11.86s CPU     11.88s WALL (    1175 calls)
     cegterg:last :      7.40s CPU      7.39s WALL (     438 calls)

     Called by h_psi:
     h_psi:vloc   :    216.57s CPU    217.09s WALL (    1571 calls)
     h_psi:vnl    :     29.01s CPU     29.08s WALL (    1571 calls)
     add_vuspsi   :     14.32s CPU     14.34s WALL (    1571 calls)
     vhpsi        :     16.68s CPU     16.76s WALL (    1571 calls)

     General routines
     calbec       :     30.23s CPU     30.39s WALL (    3934 calls)
     fft          :      2.67s CPU      2.68s WALL (     187 calls)
     ffts         :      0.07s CPU      0.07s WALL (      23 calls)
     fftw         :    193.24s CPU    193.72s WALL (  110110 calls)
     interpolate  :      0.45s CPU      0.45s WALL (      23 calls)
     davcio       :      0.02s CPU      1.25s WALL (     828 calls)

     Parallel routines
     fft_scatter  :     61.03s CPU     61.54s WALL (  110320 calls)
     Hubbard U routines
     new_ns       :      2.95s CPU      3.52s WALL (      11 calls)
     vhpsi        :     16.68s CPU     16.76s WALL (    1571 calls)

     PWSCF        :  7m59.34s CPU     8m 3.24s WALL


   This run was terminated on:  15: 3:51  11Nov2012            

=------------------------------------------------------------------------------=
