   JOB DONE.
=------------------------------------------------------------------------------=

     Program PWSCF v.5.0.1 starts on 11Nov2012 at 15:10:37 

     This program is part of the open-source Quantum ESPRESSO suite
     for quantum simulation of materials; please cite
         "P. Giannozzi et al., J. Phys.:Condens. Matter 21 395502 (2009);
          URL http://www.quantum-espresso.org", 
     in publications or presentations arising from this work. More details at
     http://www.quantum-espresso.org/quote.php

     Parallel version (MPI), running on     2 processors
     R & G space division:  proc/pool =    2

     Current dimensions of program PWSCF are:
     Max number of different atomic species (ntypx) = 10
     Max number of k-points (npk) =  40000
     Max angular momentum in pseudopotentials (lmaxx) =  3
     Reading input from CoLaO_U200_a0.in
               file Co.pbe-nd-rrkjus.UPF: wavefunction(s)  4S 3D renormalized
               file O.pbe-rrkjus.UPF: wavefunction(s)  2S renormalized
               file O.pbe-rrkjus.UPF: wavefunction(s)  2S renormalized

     Subspace diagonalization in iterative solution of the eigenvalue problem:
     a serial algorithm will be used


     Parallelization info
     --------------------
     sticks:   dense  smooth     PW     G-vecs:    dense   smooth      PW
     Min        1112     444    131                34808     8786    1448
     Max        1113     445    132                34809     8787    1449
     Sum        2225     889    263                69617    17573    2897


     Title: 
     GGA + U, U = 2.000, alpha = 1D-40                                          


     bravais-lattice index     =            5
     lattice parameter (alat)  =      10.3292  a.u.
     unit-cell volume          =     793.0599 (a.u.)^3
     number of atoms/cell      =           10
     number of atomic types    =            4
     number of electrons       =        76.00
     number of Kohn-Sham states=           46
     kinetic-energy cutoff     =      30.0000  Ry
     charge density cutoff     =     300.0000  Ry
     convergence threshold     =      1.0E-08
     mixing beta               =       0.2000
     number of iterations used =            8  plain     mixing
     Exchange-correlation      =  SLA  PW   PBE  PBE ( 1 4 3 4 0)
     EXX-fraction              =        0.00

     celldm(1)=  10.329242  celldm(2)=   0.000000  celldm(3)=   0.000000
     celldm(4)=   0.488100  celldm(5)=   0.000000  celldm(6)=   0.000000

     crystal axes: (cart. coord. in units of alat)
               a(1) = (   0.505915  -0.292090   0.811624 )  
               a(2) = (   0.000000   0.584180   0.811624 )  
               a(3) = (  -0.505915  -0.292090   0.811624 )  

     reciprocal axes: (cart. coord. in units 2 pi/alat)
               b(1) = (  0.988308 -0.570600  0.410699 )  
               b(2) = (  0.000000  1.141200  0.410699 )  
               b(3) = ( -0.988308 -0.570600  0.410699 )  


     PseudoPot. # 1 for Co read from file:
     /home/mcurnan/dft-course/Project1/example_LaCoO3/Co.pbe-nd-rrkjus.UPF
     MD5 check sum: 3e47a84addf5e975e0edeaeee2a73f59
     Pseudo is Ultrasoft + core correction, Zval =  9.0
     Generated by new atomic code, or converted to UPF format
     Using radial grid of  961 points,  6 beta functions with: 
                l(1) =   0
                l(2) =   0
                l(3) =   1
                l(4) =   1
                l(5) =   2
                l(6) =   2
     Q(r) pseudized with 0 coefficients 


     PseudoPot. # 2 for La read from file:
     /home/mcurnan/dft-course/Project1/example_LaCoO3/La.pbe-nsp-van.UPF
     MD5 check sum: b2f11743f52dde65f77d1302becd7929
     Pseudo is Ultrasoft + core correction, Zval = 11.0
     Generated by new atomic code, or converted to UPF format
     Using radial grid of  907 points,  6 beta functions with: 
                l(1) =   0
                l(2) =   0
                l(3) =   1
                l(4) =   1
                l(5) =   2
                l(6) =   2
     Q(r) pseudized with  6 coefficients,  rinner =    1.200   1.200   1.200
                                                       1.200   1.200

     PseudoPot. # 3 for O  read from file:
     /home/mcurnan/dft-course/Project1/example_LaCoO3/O.pbe-rrkjus.UPF
     MD5 check sum: 390ba29e75625707450f3bd3f0eb6be9
     Pseudo is Ultrasoft, Zval =  6.0
     Generated by new atomic code, or converted to UPF format
     Using radial grid of 1269 points,  4 beta functions with: 
                l(1) =   0
                l(2) =   0
                l(3) =   1
                l(4) =   1
     Q(r) pseudized with 0 coefficients 


     PseudoPot. # 4 for O  read from file:
     /home/mcurnan/dft-course/Project1/example_LaCoO3/O.pbe-rrkjus.UPF
     MD5 check sum: 390ba29e75625707450f3bd3f0eb6be9
     Pseudo is Ultrasoft, Zval =  6.0
     Generated by new atomic code, or converted to UPF format
     Using radial grid of 1269 points,  4 beta functions with: 
                l(1) =   0
                l(2) =   0
                l(3) =   1
                l(4) =   1
     Q(r) pseudized with 0 coefficients 


     atomic species   valence    mass     pseudopotential
        Co1            9.00     1.00000     Co( 1.00)
        La1           11.00     1.00000     La( 1.00)
        O1             6.00     1.00000     O ( 1.00)
        O2             6.00     1.00000     O ( 1.00)
 -----
     simplified LDA+U calculation, Hubbard_lmax = 2
     atomic species  L   Hubbard U  Hubbard alpha
        Co1          2    2.000000    0.000000
        La1          2    0.000000    0.000000
        O1           1    0.000000    0.000000
        O2           1    0.000000    0.000000
 -----

     No symmetry found


                                    s                        frac. trans.

      isym =  1     identity                                     

 cryst.   s( 1) = (     1          0          0      )
                  (     0          1          0      )
                  (     0          0          1      )

 cart.    s( 1) = (  1.0000000  0.0000000  0.0000000 )
                  (  0.0000000  1.0000000  0.0000000 )
                  (  0.0000000  0.0000000  1.0000000 )


     point group C_1 (1)    
     there are  1 classes
     the character table:

       E    
A      1.00

     the symmetry operations in each class:
     E        1

   Cartesian axes

     site n.     atom                  positions (alat units)
         1           Co1 tau(   1) = (   0.2228050  -0.1992639   1.0141240  )
         2           Co1 tau(   2) = (  -0.2831100   0.0928263   1.4199360  )
         3           La1 tau(   3) = (  -0.2831100   0.0928263   0.8112181  )
         4           La1 tau(   4) = (   0.2228050   0.3849164   1.2170300  )
         5           O1  tau(   5) = (   0.0000000   0.0000000   0.0000000  )
         6           O2  tau(   6) = (   0.0008601   0.1861491   1.6232478  )
         7           O2  tau(   7) = (   0.1616398   0.0923297   0.8116239  )
         8           O2  tau(   8) = (  -0.0603051  -0.1064377   1.2166242  )
         9           O2  tau(   9) = (   0.4447499  -0.0004966   1.2166242  )
        10           O2  tau(  10) = (  -0.2219449   0.3854130   1.2166242  )

   Crystallographic axes

     site n.     atom                  positions (cryst. coord.)
         1           Co1 tau(   1) = (  0.7504000  0.1891000  0.3100000  )
         2           Co1 tau(   2) = (  0.2504000  0.6891000  0.8100000  )
         3           La1 tau(   3) = (  0.0004000  0.4391000  0.5600000  )
         4           La1 tau(   4) = (  0.5004000  0.9391000  0.0600000  )
         5           O1  tau(   5) = (  0.0000000  0.0000000  0.0000000  )
         6           O2  tau(   6) = (  0.5613000  0.8791000  0.5596000  )
         7           O2  tau(   7) = (  0.4404000  0.4387000  0.1209000  )
         8           O2  tau(   8) = (  0.5008000  0.3782000  0.6200000  )
         9           O2  tau(   9) = (  0.9395000  0.4991000  0.0604000  )
        10           O2  tau(  10) = (  0.0604000  0.9395000  0.4991000  )

     number of k points=    36  gaussian smearing, width (Ry)=  0.0300
                       cart. coord. in units 2pi/alat
        k(    1) = (   0.0000000   0.0000000   0.0000000), wk =   0.0312500
        k(    2) = (  -0.2470771  -0.1426500   0.1026748), wk =   0.0625000
        k(    3) = (   0.4941541   0.2853000  -0.2053496), wk =   0.0312500
        k(    4) = (  -0.2470771   0.1426500   0.2053496), wk =   0.0625000
        k(    5) = (   0.4941541   0.5706001  -0.1026748), wk =   0.0625000
        k(    6) = (   0.2470771   0.4279500   0.0000000), wk =   0.0625000
        k(    7) = (   0.4941541  -0.2853000  -0.4106993), wk =   0.0312500
        k(    8) = (   0.0000000   0.0000000   0.3080244), wk =   0.0625000
        k(    9) = (   0.7412312   0.4279500   0.0000000), wk =   0.0625000
        k(   10) = (   0.4941541   0.2853000   0.1026748), wk =   0.0625000
        k(   11) = (   0.7412312  -0.4279500  -0.3080244), wk =   0.0625000
        k(   12) = (   0.4941541  -0.5706001  -0.2053496), wk =   0.0625000
        k(   13) = (   0.0000000   0.0000000  -0.6160489), wk =   0.0312500
        k(   14) = (  -0.2470771   0.1426500  -0.1026748), wk =   0.0625000
        k(   15) = (   0.0000000   0.2853000   0.1026748), wk =   0.0625000
        k(   16) = (   0.4941541  -0.2853000   0.2053496), wk =   0.0312500
        k(   17) = (   0.0000000  -0.5706001  -0.2053496), wk =   0.0312500
        k(   18) = (  -0.2470771  -0.1426500  -0.2053496), wk =   0.0625000
        k(   19) = (   0.0000000  -0.2853000   0.2053496), wk =   0.0625000
        k(   20) = (   0.4941541  -0.5706001   0.1026748), wk =   0.0625000
        k(   21) = (  -0.7412312   0.1426500  -0.1026748), wk =   0.0625000
        k(   22) = (   0.2470771  -0.7132501  -0.1026748), wk =   0.0625000
        k(   23) = (  -0.7412312  -0.1426500   0.1026748), wk =   0.0625000
        k(   24) = (   0.2470771   0.7132501   0.1026748), wk =   0.0625000
        k(   25) = (   0.2470771  -0.4279500   0.0000000), wk =   0.0625000
        k(   26) = (  -0.4941541   0.0000000   0.0000000), wk =   0.0625000
        k(   27) = (   0.4941541   0.2853000   0.4106993), wk =   0.0312500
        k(   28) = (   0.0000000   0.5706001  -0.4106993), wk =   0.0312500
        k(   29) = (   0.7412312  -0.4279500   0.0000000), wk =   0.0625000
        k(   30) = (   0.0000000  -0.8559001   0.0000000), wk =   0.0625000
        k(   31) = (   0.4941541  -0.2853000  -0.1026748), wk =   0.0625000
        k(   32) = (   0.0000000  -0.5706001   0.1026748), wk =   0.0625000
        k(   33) = (   0.7412312   0.4279500   0.3080244), wk =   0.0625000
        k(   34) = (   0.0000000   0.8559001  -0.3080244), wk =   0.0625000
        k(   35) = (   0.2470771   0.7132501  -0.2053496), wk =   0.0625000
        k(   36) = (  -0.7412312  -0.1426500  -0.2053496), wk =   0.0625000

                       cryst. coord.
        k(    1) = (   0.0000000   0.0000000   0.0000000), wk =   0.0312500
        k(    2) = (   0.0000000   0.0000000   0.2500000), wk =   0.0625000
        k(    3) = (   0.0000000   0.0000000  -0.5000000), wk =   0.0312500
        k(    4) = (   0.0000000   0.2500000   0.2500000), wk =   0.0625000
        k(    5) = (   0.0000000   0.2500000  -0.5000000), wk =   0.0625000
        k(    6) = (   0.0000000   0.2500000  -0.2500000), wk =   0.0625000
        k(    7) = (   0.0000000  -0.5000000  -0.5000000), wk =   0.0312500
        k(    8) = (   0.2500000   0.2500000   0.2500000), wk =   0.0625000
        k(    9) = (   0.2500000   0.2500000  -0.5000000), wk =   0.0625000
        k(   10) = (   0.2500000   0.2500000  -0.2500000), wk =   0.0625000
        k(   11) = (   0.2500000  -0.5000000  -0.5000000), wk =   0.0625000
        k(   12) = (   0.2500000  -0.5000000  -0.2500000), wk =   0.0625000
        k(   13) = (  -0.5000000  -0.5000000  -0.5000000), wk =   0.0312500
        k(   14) = (  -0.2500000   0.0000000   0.0000000), wk =   0.0625000
        k(   15) = (   0.0000000   0.2500000   0.0000000), wk =   0.0625000
        k(   16) = (   0.5000000   0.0000000   0.0000000), wk =   0.0312500
        k(   17) = (   0.0000000  -0.5000000   0.0000000), wk =   0.0312500
        k(   18) = (  -0.2500000  -0.2500000   0.0000000), wk =   0.0625000
        k(   19) = (   0.2500000   0.0000000   0.2500000), wk =   0.0625000
        k(   20) = (   0.5000000  -0.2500000   0.0000000), wk =   0.0625000
        k(   21) = (  -0.5000000   0.0000000   0.2500000), wk =   0.0625000
        k(   22) = (   0.2500000  -0.5000000   0.0000000), wk =   0.0625000
        k(   23) = (  -0.2500000   0.0000000   0.5000000), wk =   0.0625000
        k(   24) = (   0.0000000   0.5000000  -0.2500000), wk =   0.0625000
        k(   25) = (   0.2500000  -0.2500000   0.0000000), wk =   0.0625000
        k(   26) = (  -0.2500000   0.0000000   0.2500000), wk =   0.0625000
        k(   27) = (   0.5000000   0.5000000   0.0000000), wk =   0.0312500
        k(   28) = (  -0.5000000   0.0000000  -0.5000000), wk =   0.0312500
        k(   29) = (   0.5000000  -0.2500000  -0.2500000), wk =   0.0625000
        k(   30) = (   0.2500000  -0.5000000   0.2500000), wk =   0.0625000
        k(   31) = (   0.2500000  -0.2500000  -0.2500000), wk =   0.0625000
        k(   32) = (   0.2500000  -0.2500000   0.2500000), wk =   0.0625000
        k(   33) = (   0.5000000   0.5000000  -0.2500000), wk =   0.0625000
        k(   34) = (  -0.5000000   0.2500000  -0.5000000), wk =   0.0625000
        k(   35) = (  -0.2500000   0.2500000  -0.5000000), wk =   0.0625000
        k(   36) = (  -0.5000000  -0.2500000   0.2500000), wk =   0.0625000

     Dense  grid:    69617 G-vectors     FFT dimensions: (  60,  60,  60)

     Smooth grid:    17573 G-vectors     FFT dimensions: (  40,  40,  40)

     Largest allocated arrays     est. size (Mb)     dimensions
        Kohn-Sham Wavefunctions         0.79 Mb     (   1119,   46)
        Atomic wavefunctions            1.06 Mb     (   1119,   62)
        NL pseudopotentials             2.05 Mb     (   1119,  120)
        Each V/rho on FFT grid          1.65 Mb     ( 108000)
        Each G-vector array             0.27 Mb     (  34808)
        G-vector shells                 0.04 Mb     (   4682)
     Largest temporary arrays     est. size (Mb)     dimensions
        Auxiliary wavefunctions         3.14 Mb     (   1119,  184)
        Each subspace H/S matrix        0.52 Mb     ( 184, 184)
        Each <psi_i|beta_j> matrix      0.08 Mb     (    120,   46)
        Arrays for rho mixing          13.18 Mb     ( 108000,   8)

     Check: negative/imaginary core charge=   -0.000028    0.000000

     The initial density is read from file :
     /home/mcurnan/dft-course/Project1/example_LaCoO3/200/O/alpha/CoLaO_U200.save/charge-density.dat

 --- in v_hubbard ---
Hubbard energy    0.1914
 -------
     Number of +U iterations with fixed ns =  0
     Starting occupations:
 --- enter write_ns ---
 LDA+U parameters:
U( 1)     =  2.00000000
alpha( 1) =  0.00000000
U( 2)     =  0.00000000
alpha( 2) =  0.00000000
U( 3)     =  0.00000000
alpha( 3) =  0.00000000
U( 4)     =  0.00000000
alpha( 4) =  0.00000000
atom    1   Tr[ns(na)] =   8.02205
    eigenvalues: 
  0.596  0.596  0.938  0.941  0.941
    eigenvectors:
  0.000  0.000  1.000  0.000  0.000
  0.057  0.598  0.000  0.178  0.167
  0.598  0.057  0.000  0.167  0.178
  0.210  0.135  0.000  0.095  0.560
  0.135  0.210  0.000  0.560  0.095
    occupations:
  0.938  0.000  0.000  0.000  0.000
  0.000  0.715  0.000 -0.060  0.152
  0.000  0.000  0.715  0.152  0.060
  0.000 -0.060  0.152  0.822  0.000
  0.000  0.152  0.060  0.000  0.822
atom    2   Tr[ns(na)] =   8.02142
    eigenvalues: 
  0.595  0.595  0.938  0.941  0.941
    eigenvectors:
  0.000  0.000  1.000  0.000  0.000
  0.332  0.323  0.000  0.023  0.322
  0.323  0.332  0.000  0.322  0.023
  0.288  0.057  0.000  0.647  0.008
  0.057  0.288  0.000  0.008  0.647
    occupations:
  0.938  0.000  0.000  0.000  0.000
  0.000  0.715  0.000  0.060  0.153
  0.000  0.000  0.715  0.153 -0.060
  0.000  0.060  0.153  0.822  0.000
  0.000  0.153 -0.060  0.000  0.822
atom    3   Tr[ns(na)] =   3.80282
    eigenvalues: 
  0.355  0.355  0.384  0.403  0.403
    eigenvectors:
  0.000  0.000  1.000  0.000  0.000
  0.065  0.856  0.000  0.058  0.021
  0.856  0.065  0.000  0.021  0.058
  0.073  0.006  0.000  0.250  0.670
  0.006  0.073  0.000  0.670  0.250
    occupations:
  0.384  0.000  0.000  0.000  0.000
  0.000  0.359  0.000  0.000  0.013
  0.000  0.000  0.359  0.013  0.000
  0.000  0.000  0.013  0.399  0.000
  0.000  0.013  0.000  0.000  0.399
atom    4   Tr[ns(na)] =   3.80282
    eigenvalues: 
  0.355  0.355  0.384  0.403  0.403
    eigenvectors:
  0.000  0.000  1.000  0.000  0.000
  0.729  0.192  0.000  0.048  0.032
  0.192  0.729  0.000  0.032  0.048
  0.017  0.062  0.000  0.359  0.562
  0.062  0.017  0.000  0.562  0.359
    occupations:
  0.384  0.000  0.000  0.000  0.000
  0.000  0.359  0.000  0.000  0.013
  0.000  0.000  0.359  0.013  0.000
  0.000  0.000  0.013  0.399  0.000
  0.000  0.013  0.000  0.000  0.399
atom    5   Tr[ns(na)] =   5.43357
    eigenvalues: 
  0.846  0.929  0.941
    eigenvectors:
  0.340  0.000  0.660
  0.496  0.250  0.255
  0.164  0.750  0.086
    occupations:
  0.909 -0.039  0.022
 -0.039  0.891  0.022
  0.022  0.022  0.917
atom    6   Tr[ns(na)] =   5.43358
    eigenvalues: 
  0.846  0.929  0.941
    eigenvectors:
  0.340  0.000  0.660
  0.494  0.250  0.256
  0.166  0.750  0.085
    occupations:
  0.909  0.039  0.022
  0.039  0.891 -0.022
  0.022 -0.022  0.917
atom    7   Tr[ns(na)] =   5.43358
    eigenvalues: 
  0.846  0.929  0.941
    eigenvectors:
  0.340  0.000  0.660
  0.000  1.000  0.000
  0.660  0.000  0.340
    occupations:
  0.909  0.000 -0.045
  0.000  0.929  0.000
 -0.045  0.000  0.879
atom    8   Tr[ns(na)] =   5.43357
    eigenvalues: 
  0.846  0.929  0.941
    eigenvectors:
  0.340  0.000  0.660
  0.496  0.250  0.255
  0.164  0.750  0.086
    occupations:
  0.909 -0.039  0.022
 -0.039  0.891  0.022
  0.022  0.022  0.917
atom    9   Tr[ns(na)] =   5.43358
    eigenvalues: 
  0.846  0.929  0.941
    eigenvectors:
  0.340  0.000  0.660
  0.494  0.250  0.256
  0.166  0.750  0.085
    occupations:
  0.909  0.039  0.022
  0.039  0.891 -0.022
  0.022 -0.022  0.917
atom   10   Tr[ns(na)] =   5.43358
    eigenvalues: 
  0.846  0.929  0.941
    eigenvectors:
  0.340  0.000  0.660
  0.000  1.000  0.000
  0.660  0.000  0.340
    occupations:
  0.909  0.000 -0.045
  0.000  0.929  0.000
 -0.045  0.000  0.879
N of occupied +U levels =  56.2505796
 --- exit write_ns ---
 LDA+U Projector read from file 
     Starting wfc from file

     total cpu time spent up to now is        7.6 secs

     per-process dynamical memory:    62.8 Mb

     Self-consistent Calculation

     iteration #  1     ecut=    30.00 Ry     beta=0.20
     Davidson diagonalization with overlap
     c_bands:  1 eigenvalues not converged
     c_bands:  1 eigenvalues not converged
     c_bands:  1 eigenvalues not converged
     c_bands:  1 eigenvalues not converged
     c_bands:  1 eigenvalues not converged
     c_bands:  1 eigenvalues not converged
     c_bands:  1 eigenvalues not converged
     c_bands:  1 eigenvalues not converged
     c_bands:  1 eigenvalues not converged
     c_bands:  1 eigenvalues not converged
     ethr =  1.00E-10,  avg # of iterations = 15.6
 --- enter write_ns ---
 LDA+U parameters:
U( 1)     =  2.00000000
alpha( 1) =  0.00000000
U( 2)     =  0.00000000
alpha( 2) =  0.00000000
U( 3)     =  0.00000000
alpha( 3) =  0.00000000
U( 4)     =  0.00000000
alpha( 4) =  0.00000000
atom    1   Tr[ns(na)] =   8.11879
    eigenvalues: 
  0.567  0.567  0.975  0.975  0.976
    eigenvectors:
  0.000  0.000  0.000  0.000  1.000
  0.022  0.633  0.174  0.172  0.000
  0.633  0.022  0.172  0.174  0.000
  0.252  0.094  0.107  0.547  0.000
  0.094  0.252  0.547  0.107  0.000
    occupations:
  0.976  0.000  0.000  0.000  0.000
  0.000  0.708  0.000 -0.069  0.181
  0.000  0.000  0.708  0.181  0.069
  0.000 -0.069  0.181  0.834  0.000
  0.000  0.181  0.069  0.000  0.834
atom    2   Tr[ns(na)] =   8.11324
    eigenvalues: 
  0.565  0.565  0.975  0.975  0.976
    eigenvectors:
  0.000  0.000  0.000  0.000  1.000
  0.363  0.291  0.002  0.344  0.000
  0.291  0.363  0.344  0.002  0.000
  0.272  0.074  0.603  0.051  0.000
  0.074  0.272  0.051  0.603  0.000
    occupations:
  0.976  0.000  0.000  0.000  0.000
  0.000  0.707  0.000  0.069  0.183
  0.000  0.000  0.707  0.183 -0.069
  0.000  0.069  0.183  0.833  0.000
  0.000  0.183 -0.069  0.000  0.833
atom    3   Tr[ns(na)] =   3.79745
    eigenvalues: 
  0.356  0.356  0.383  0.402  0.402
    eigenvectors:
  0.000  0.000  1.000  0.000  0.000
  0.035  0.884  0.000  0.048  0.033
  0.884  0.035  0.000  0.033  0.048
  0.077  0.003  0.000  0.386  0.533
  0.003  0.077  0.000  0.533  0.386
    occupations:
  0.383  0.000  0.000  0.000  0.000
  0.000  0.360  0.000  0.000  0.013
  0.000  0.000  0.360  0.013  0.000
  0.000  0.000  0.013  0.398  0.000
  0.000  0.013  0.000  0.000  0.398
atom    4   Tr[ns(na)] =   3.79745
    eigenvalues: 
  0.356  0.356  0.383  0.402  0.402
    eigenvectors:
  0.000  0.000  1.000  0.000  0.000
  0.706  0.213  0.000  0.019  0.062
  0.213  0.706  0.000  0.062  0.019
  0.019  0.062  0.000  0.701  0.218
  0.062  0.019  0.000  0.218  0.701
    occupations:
  0.383  0.000  0.000  0.000  0.000
  0.000  0.360  0.000  0.000  0.013
  0.000  0.000  0.360  0.013  0.000
  0.000  0.000  0.013  0.398  0.000
  0.000  0.013  0.000  0.000  0.398
atom    5   Tr[ns(na)] =   5.41163
    eigenvalues: 
  0.836  0.927  0.943
    eigenvectors:
  0.341  0.000  0.659
  0.495  0.250  0.255
  0.164  0.750  0.086
    occupations:
  0.907 -0.044  0.025
 -0.044  0.886  0.023
  0.025  0.023  0.913
atom    6   Tr[ns(na)] =   5.41165
    eigenvalues: 
  0.836  0.927  0.943
    eigenvectors:
  0.341  0.000  0.659
  0.494  0.250  0.256
  0.165  0.750  0.085
    occupations:
  0.907  0.044  0.025
  0.044  0.886 -0.023
  0.025 -0.023  0.913
atom    7   Tr[ns(na)] =   5.41165
    eigenvalues: 
  0.836  0.927  0.943
    eigenvectors:
  0.341  0.000  0.659
  0.000  1.000  0.000
  0.659  0.000  0.341
    occupations:
  0.907  0.000 -0.051
  0.000  0.927  0.000
 -0.051  0.000  0.873
atom    8   Tr[ns(na)] =   5.41164
    eigenvalues: 
  0.836  0.927  0.943
    eigenvectors:
  0.341  0.000  0.659
  0.495  0.250  0.255
  0.164  0.750  0.086
    occupations:
  0.907 -0.044  0.025
 -0.044  0.886  0.023
  0.025  0.023  0.913
atom    9   Tr[ns(na)] =   5.41164
    eigenvalues: 
  0.836  0.927  0.943
    eigenvectors:
  0.341  0.000  0.659
  0.494  0.250  0.256
  0.165  0.750  0.085
    occupations:
  0.907  0.044  0.025
  0.044  0.886 -0.023
  0.025 -0.023  0.913
atom   10   Tr[ns(na)] =   5.41164
    eigenvalues: 
  0.836  0.927  0.943
    eigenvectors:
  0.341  0.000  0.659
  0.000  1.000  0.000
  0.659  0.000  0.341
    occupations:
  0.907  0.000 -0.051
  0.000  0.927  0.000
 -0.051  0.000  0.873
N of occupied +U levels =  56.2967798
 --- exit write_ns ---
 --- in v_hubbard ---
Hubbard energy    0.1865
 -------

     total cpu time spent up to now is       94.8 secs

     total energy              =    -538.15324968 Ry
     Harris-Foulkes estimate   =    -538.15547963 Ry
     estimated scf accuracy    <       0.01263391 Ry

     iteration #  2     ecut=    30.00 Ry     beta=0.20
     Davidson diagonalization with overlap
     ethr =  1.66E-05,  avg # of iterations =  1.4
 --- enter write_ns ---
 LDA+U parameters:
U( 1)     =  2.00000000
alpha( 1) =  0.00000000
U( 2)     =  0.00000000
alpha( 2) =  0.00000000
U( 3)     =  0.00000000
alpha( 3) =  0.00000000
U( 4)     =  0.00000000
alpha( 4) =  0.00000000
atom    1   Tr[ns(na)] =   8.02979
    eigenvalues: 
  0.545  0.545  0.975  0.975  0.976
    eigenvectors:
  0.000  0.000  0.000  0.000  1.000
  0.052  0.604  0.218  0.127  0.000
  0.604  0.052  0.127  0.218  0.000
  0.217  0.127  0.051  0.604  0.000
  0.127  0.217  0.604  0.051  0.000
    occupations:
  0.976  0.000  0.000  0.000  0.000
  0.000  0.693  0.000 -0.074  0.190
  0.000  0.000  0.693  0.190  0.074
  0.000 -0.074  0.190  0.827  0.000
  0.000  0.190  0.074  0.000  0.827
atom    2   Tr[ns(na)] =   8.03860
    eigenvalues: 
  0.545  0.545  0.976  0.976  0.977
    eigenvectors:
  0.000  0.000  0.000  0.000  1.000
  0.404  0.251  0.035  0.310  0.000
  0.251  0.404  0.310  0.035  0.000
  0.255  0.090  0.654  0.001  0.000
  0.090  0.255  0.001  0.654  0.000
    occupations:
  0.977  0.000  0.000  0.000  0.000
  0.000  0.693  0.000  0.074  0.191
  0.000  0.000  0.693  0.191 -0.074
  0.000  0.074  0.191  0.828  0.000
  0.000  0.191 -0.074  0.000  0.828
atom    3   Tr[ns(na)] =   3.79533
    eigenvalues: 
  0.355  0.355  0.382  0.402  0.402
    eigenvectors:
  0.000  0.000  1.000  0.000  0.000
  0.001  0.919  0.000  0.078  0.002
  0.919  0.001  0.000  0.002  0.078
  0.080  0.000  0.000  0.027  0.894
  0.000  0.080  0.000  0.894  0.027
    occupations:
  0.382  0.000  0.000  0.000  0.000
  0.000  0.359  0.000  0.000  0.013
  0.000  0.000  0.359  0.013  0.000
  0.000  0.000  0.013  0.398  0.000
  0.000  0.013  0.000  0.000  0.398
atom    4   Tr[ns(na)] =   3.79533
    eigenvalues: 
  0.355  0.355  0.382  0.402  0.402
    eigenvectors:
  0.000  0.000  1.000  0.000  0.000
  0.396  0.524  0.000  0.079  0.001
  0.524  0.396  0.000  0.001  0.079
  0.046  0.034  0.000  0.015  0.906
  0.034  0.046  0.000  0.906  0.015
    occupations:
  0.382  0.000  0.000  0.000  0.000
  0.000  0.359  0.000  0.000  0.013
  0.000  0.000  0.359  0.013  0.000
  0.000  0.000  0.013  0.398  0.000
  0.000  0.013  0.000  0.000  0.398
atom    5   Tr[ns(na)] =   5.43748
    eigenvalues: 
  0.844  0.930  0.945
    eigenvectors:
  0.338  0.000  0.662
  0.496  0.251  0.253
  0.166  0.749  0.085
    occupations:
  0.911 -0.041  0.024
 -0.041  0.891  0.023
  0.024  0.023  0.917
atom    6   Tr[ns(na)] =   5.43749
    eigenvalues: 
  0.844  0.930  0.945
    eigenvectors:
  0.338  0.000  0.662
  0.497  0.249  0.254
  0.165  0.751  0.084
    occupations:
  0.911  0.042  0.024
  0.042  0.891 -0.023
  0.024 -0.023  0.917
atom    7   Tr[ns(na)] =   5.43749
    eigenvalues: 
  0.844  0.930  0.945
    eigenvectors:
  0.338  0.000  0.662
  0.000  1.000  0.000
  0.662  0.000  0.338
    occupations:
  0.911  0.000 -0.048
  0.000  0.930  0.000
 -0.048  0.000  0.878
atom    8   Tr[ns(na)] =   5.43748
    eigenvalues: 
  0.844  0.930  0.945
    eigenvectors:
  0.338  0.000  0.662
  0.496  0.251  0.253
  0.166  0.749  0.085
    occupations:
  0.911 -0.041  0.024
 -0.041  0.891  0.023
  0.024  0.023  0.917
atom    9   Tr[ns(na)] =   5.43749
    eigenvalues: 
  0.844  0.930  0.945
    eigenvectors:
  0.338  0.000  0.662
  0.497  0.249  0.254
  0.165  0.751  0.084
    occupations:
  0.911  0.042  0.024
  0.042  0.891 -0.023
  0.024 -0.023  0.917
atom   10   Tr[ns(na)] =   5.43749
    eigenvalues: 
  0.844  0.930  0.945
    eigenvectors:
  0.338  0.000  0.662
  0.000  1.000  0.000
  0.662  0.000  0.338
    occupations:
  0.911  0.000 -0.048
  0.000  0.930  0.000
 -0.048  0.000  0.878
N of occupied +U levels =  56.2839752
 --- exit write_ns ---
 --- in v_hubbard ---
Hubbard energy    0.1841
 -------

     total cpu time spent up to now is      120.7 secs

     total energy              =    -538.15503138 Ry
     Harris-Foulkes estimate   =    -538.15510662 Ry
     estimated scf accuracy    <       0.00731289 Ry

     iteration #  3     ecut=    30.00 Ry     beta=0.20
     Davidson diagonalization with overlap
     ethr =  9.62E-06,  avg # of iterations =  1.0
 --- enter write_ns ---
 LDA+U parameters:
U( 1)     =  2.00000000
alpha( 1) =  0.00000000
U( 2)     =  0.00000000
alpha( 2) =  0.00000000
U( 3)     =  0.00000000
alpha( 3) =  0.00000000
U( 4)     =  0.00000000
alpha( 4) =  0.00000000
atom    1   Tr[ns(na)] =   8.06095
    eigenvalues: 
  0.551  0.551  0.976  0.976  0.977
    eigenvectors:
  0.000  0.000  0.000  0.000  1.000
  0.040  0.616  0.199  0.145  0.000
  0.616  0.040  0.145  0.199  0.000
  0.229  0.116  0.072  0.584  0.000
  0.116  0.229  0.584  0.072  0.000
    occupations:
  0.977  0.000  0.000  0.000  0.000
  0.000  0.697  0.000 -0.073  0.188
  0.000  0.000  0.697  0.188  0.073
  0.000 -0.073  0.188  0.830  0.000
  0.000  0.188  0.073  0.000  0.830
atom    2   Tr[ns(na)] =   8.04753
    eigenvalues: 
  0.548  0.548  0.976  0.976  0.977
    eigenvectors:
  0.000  0.000  0.000  0.000  1.000
  0.390  0.265  0.016  0.328  0.000
  0.265  0.390  0.328  0.016  0.000
  0.260  0.084  0.642  0.014  0.000
  0.084  0.260  0.014  0.642  0.000
    occupations:
  0.977  0.000  0.000  0.000  0.000
  0.000  0.695  0.000  0.072  0.190
  0.000  0.000  0.695  0.190 -0.072
  0.000  0.072  0.190  0.828  0.000
  0.000  0.190 -0.072  0.000  0.828
atom    3   Tr[ns(na)] =   3.79531
    eigenvalues: 
  0.356  0.356  0.382  0.402  0.402
    eigenvectors:
  0.000  0.000  1.000  0.000  0.000
  0.005  0.915  0.000  0.077  0.003
  0.915  0.005  0.000  0.003  0.077
  0.079  0.001  0.000  0.036  0.885
  0.001  0.079  0.000  0.885  0.036
    occupations:
  0.382  0.000  0.000  0.000  0.000
  0.000  0.359  0.000  0.000  0.013
  0.000  0.000  0.359  0.013  0.000
  0.000  0.000  0.013  0.398  0.000
  0.000  0.013  0.000  0.000  0.398
atom    4   Tr[ns(na)] =   3.79531
    eigenvalues: 
  0.356  0.356  0.382  0.402  0.402
    eigenvectors:
  0.000  0.000  1.000  0.000  0.000
  0.582  0.338  0.000  0.079  0.000
  0.338  0.582  0.000  0.000  0.079
  0.030  0.050  0.000  0.002  0.919
  0.050  0.030  0.000  0.919  0.002
    occupations:
  0.382  0.000  0.000  0.000  0.000
  0.000  0.359  0.000  0.000  0.013
  0.000  0.000  0.359  0.013  0.000
  0.000  0.000  0.013  0.398  0.000
  0.000  0.013  0.000  0.000  0.398
atom    5   Tr[ns(na)] =   5.43134
    eigenvalues: 
  0.842  0.929  0.945
    eigenvectors:
  0.339  0.000  0.661
  0.497  0.249  0.254
  0.164  0.751  0.085
    occupations:
  0.910 -0.042  0.024
 -0.042  0.890  0.023
  0.024  0.023  0.916
atom    6   Tr[ns(na)] =   5.43135
    eigenvalues: 
  0.842  0.929  0.945
    eigenvectors:
  0.339  0.000  0.661
  0.495  0.251  0.254
  0.166  0.749  0.084
    occupations:
  0.910  0.042  0.024
  0.042  0.890 -0.023
  0.024 -0.023  0.916
atom    7   Tr[ns(na)] =   5.43135
    eigenvalues: 
  0.842  0.929  0.945
    eigenvectors:
  0.339  0.000  0.661
  0.000  1.000  0.000
  0.661  0.000  0.339
    occupations:
  0.910  0.000 -0.049
  0.000  0.929  0.000
 -0.049  0.000  0.877
atom    8   Tr[ns(na)] =   5.43134
    eigenvalues: 
  0.842  0.929  0.945
    eigenvectors:
  0.339  0.000  0.661
  0.497  0.249  0.254
  0.164  0.751  0.085
    occupations:
  0.910 -0.042  0.024
 -0.042  0.890  0.023
  0.024  0.023  0.916
atom    9   Tr[ns(na)] =   5.43135
    eigenvalues: 
  0.842  0.929  0.945
    eigenvectors:
  0.339  0.000  0.661
  0.495  0.251  0.254
  0.166  0.749  0.084
    occupations:
  0.910  0.042  0.024
  0.042  0.890 -0.023
  0.024 -0.023  0.916
atom   10   Tr[ns(na)] =   5.43135
    eigenvalues: 
  0.842  0.929  0.945
    eigenvectors:
  0.339  0.000  0.661
  0.000  1.000  0.000
  0.661  0.000  0.339
    occupations:
  0.910  0.000 -0.049
  0.000  0.929  0.000
 -0.049  0.000  0.877
N of occupied +U levels =  56.2871913
 --- exit write_ns ---
 --- in v_hubbard ---
Hubbard energy    0.1751
 -------

     total cpu time spent up to now is      151.7 secs

     total energy              =    -538.15569711 Ry
     Harris-Foulkes estimate   =    -538.15519572 Ry
     estimated scf accuracy    <       0.00394924 Ry

     iteration #  4     ecut=    30.00 Ry     beta=0.20
     Davidson diagonalization with overlap
     ethr =  5.20E-06,  avg # of iterations =  1.0
 --- enter write_ns ---
 LDA+U parameters:
U( 1)     =  2.00000000
alpha( 1) =  0.00000000
U( 2)     =  0.00000000
alpha( 2) =  0.00000000
U( 3)     =  0.00000000
alpha( 3) =  0.00000000
U( 4)     =  0.00000000
alpha( 4) =  0.00000000
atom    1   Tr[ns(na)] =   8.00638
    eigenvalues: 
  0.543  0.543  0.972  0.972  0.973
    eigenvectors:
  0.000  0.000  0.000  0.000  1.000
  0.042  0.615  0.218  0.125  0.000
  0.615  0.042  0.125  0.218  0.000
  0.229  0.114  0.053  0.604  0.000
  0.115  0.229  0.604  0.053  0.000
    occupations:
  0.973  0.000  0.000  0.000  0.000
  0.000  0.690  0.000 -0.072  0.191
  0.000  0.000  0.690  0.191  0.072
  0.000 -0.072  0.191  0.825  0.000
  0.000  0.191  0.072  0.000  0.825
atom    2   Tr[ns(na)] =   8.10753
    eigenvalues: 
  0.555  0.555  0.981  0.981  0.982
    eigenvectors:
  0.000  0.000  0.000  0.000  1.000
  0.356  0.301  0.003  0.340  0.000
  0.301  0.356  0.340  0.003  0.000
  0.277  0.066  0.607  0.050  0.000
  0.066  0.277  0.050  0.607  0.000
    occupations:
  0.982  0.000  0.000  0.000  0.000
  0.000  0.701  0.000  0.073  0.188
  0.000  0.000  0.701  0.188 -0.073
  0.000  0.073  0.188  0.835  0.000
  0.000  0.188 -0.073  0.000  0.835
atom    3   Tr[ns(na)] =   3.79620
    eigenvalues: 
  0.356  0.356  0.382  0.402  0.402
    eigenvectors:
  0.000  0.000  1.000  0.000  0.000
  0.075  0.846  0.000  0.036  0.043
  0.846  0.075  0.000  0.043  0.036
  0.072  0.007  0.000  0.505  0.416
  0.007  0.072  0.000  0.416  0.505
    occupations:
  0.382  0.000  0.000  0.000  0.000
  0.000  0.359  0.000  0.000  0.013
  0.000  0.000  0.359  0.013  0.000
  0.000  0.000  0.013  0.398  0.000
  0.000  0.013  0.000  0.000  0.398
atom    4   Tr[ns(na)] =   3.79620
    eigenvalues: 
  0.356  0.356  0.382  0.402  0.402
    eigenvectors:
  0.000  0.000  1.000  0.000  0.000
  0.748  0.173  0.000  0.024  0.055
  0.173  0.748  0.000  0.055  0.024
  0.015  0.064  0.000  0.641  0.280
  0.064  0.015  0.000  0.280  0.641
    occupations:
  0.382  0.000  0.000  0.000  0.000
  0.000  0.359  0.000  0.000  0.013
  0.000  0.000  0.359  0.013  0.000
  0.000  0.000  0.013  0.398  0.000
  0.000  0.013  0.000  0.000  0.398
atom    5   Tr[ns(na)] =   5.42998
    eigenvalues: 
  0.841  0.929  0.944
    eigenvectors:
  0.339  0.000  0.661
  0.490  0.258  0.252
  0.172  0.742  0.087
    occupations:
  0.910 -0.042  0.025
 -0.042  0.890  0.023
  0.025  0.023  0.915
atom    6   Tr[ns(na)] =   5.43000
    eigenvalues: 
  0.841  0.929  0.944
    eigenvectors:
  0.339  0.000  0.661
  0.502  0.242  0.256
  0.159  0.758  0.083
    occupations:
  0.910  0.042  0.024
  0.042  0.889 -0.023
  0.024 -0.023  0.916
atom    7   Tr[ns(na)] =   5.43000
    eigenvalues: 
  0.841  0.929  0.944
    eigenvectors:
  0.339  0.000  0.661
  0.000  1.000  0.000
  0.661  0.000  0.339
    occupations:
  0.910 -0.001 -0.049
 -0.001  0.929 -0.001
 -0.049 -0.001  0.876
atom    8   Tr[ns(na)] =   5.42999
    eigenvalues: 
  0.841  0.929  0.944
    eigenvectors:
  0.339  0.000  0.661
  0.490  0.258  0.252
  0.172  0.742  0.087
    occupations:
  0.910 -0.042  0.025
 -0.042  0.890  0.023
  0.025  0.023  0.915
atom    9   Tr[ns(na)] =   5.42999
    eigenvalues: 
  0.841  0.929  0.944
    eigenvectors:
  0.339  0.000  0.661
  0.502  0.242  0.256
  0.159  0.758  0.083
    occupations:
  0.910  0.042  0.024
  0.042  0.889 -0.023
  0.024 -0.023  0.916
atom   10   Tr[ns(na)] =   5.42999
    eigenvalues: 
  0.841  0.929  0.944
    eigenvectors:
  0.339  0.000  0.661
  0.000  1.000  0.000
  0.661  0.000  0.339
    occupations:
  0.910 -0.001 -0.049
 -0.001  0.929 -0.001
 -0.049 -0.001  0.876
N of occupied +U levels =  56.2862629
 --- exit write_ns ---
 --- in v_hubbard ---
Hubbard energy    0.1649
 -------

     total cpu time spent up to now is      177.9 secs

     total energy              =    -538.15554900 Ry
     Harris-Foulkes estimate   =    -538.15614775 Ry
     estimated scf accuracy    <       0.00708555 Ry

     iteration #  5     ecut=    30.00 Ry     beta=0.20
     Davidson diagonalization with overlap
     ethr =  5.20E-06,  avg # of iterations =  1.0
 --- enter write_ns ---
 LDA+U parameters:
U( 1)     =  2.00000000
alpha( 1) =  0.00000000
U( 2)     =  0.00000000
alpha( 2) =  0.00000000
U( 3)     =  0.00000000
alpha( 3) =  0.00000000
U( 4)     =  0.00000000
alpha( 4) =  0.00000000
atom    1   Tr[ns(na)] =   8.05675
    eigenvalues: 
  0.547  0.547  0.978  0.978  0.978
    eigenvectors:
  0.000  0.000  0.000  0.000  1.000
  0.042  0.616  0.189  0.153  0.000
  0.616  0.042  0.153  0.189  0.000
  0.226  0.117  0.084  0.574  0.000
  0.117  0.226  0.574  0.084  0.000
    occupations:
  0.978  0.000  0.000  0.000  0.000
  0.000  0.695  0.000 -0.074  0.190
  0.000  0.000  0.695  0.190  0.074
  0.000 -0.074  0.190  0.830  0.000
  0.000  0.190  0.074  0.000  0.830
atom    2   Tr[ns(na)] =   8.05528
    eigenvalues: 
  0.546  0.546  0.979  0.979  0.979
    eigenvectors:
  0.000  0.000  0.000  0.000  1.000
  0.348  0.310  0.008  0.334  0.000
  0.310  0.348  0.334  0.008  0.000
  0.278  0.064  0.628  0.030  0.000
  0.064  0.278  0.030  0.628  0.000
    occupations:
  0.979  0.000  0.000  0.000  0.000
  0.000  0.694  0.000  0.074  0.192
  0.000  0.000  0.694  0.192 -0.073
  0.000  0.074  0.192  0.831  0.000
  0.000  0.192 -0.073  0.000  0.831
atom    3   Tr[ns(na)] =   3.79720
    eigenvalues: 
  0.356  0.356  0.382  0.402  0.402
    eigenvectors:
  0.000  0.000  1.000  0.000  0.000
  0.003  0.918  0.000  0.001  0.077
  0.918  0.003  0.000  0.077  0.001
  0.078  0.000  0.000  0.908  0.014
  0.000  0.078  0.000  0.014  0.908
    occupations:
  0.382  0.000  0.000  0.000  0.000
  0.000  0.360  0.000  0.000  0.012
  0.000  0.000  0.360  0.012  0.000
  0.000  0.000  0.012  0.399  0.000
  0.000  0.012  0.000  0.000  0.399
atom    4   Tr[ns(na)] =   3.79719
    eigenvalues: 
  0.356  0.356  0.382  0.402  0.402
    eigenvectors:
  0.000  0.000  1.000  0.000  0.000
  0.712  0.210  0.000  0.009  0.070
  0.210  0.712  0.000  0.070  0.009
  0.018  0.060  0.000  0.813  0.108
  0.060  0.018  0.000  0.108  0.813
    occupations:
  0.382  0.000  0.000  0.000  0.000
  0.000  0.360  0.000  0.000  0.012
  0.000  0.000  0.360  0.012  0.000
  0.000  0.000  0.012  0.399  0.000
  0.000  0.012  0.000  0.000  0.399
atom    5   Tr[ns(na)] =   5.42987
    eigenvalues: 
  0.841  0.929  0.944
    eigenvectors:
  0.338  0.000  0.662
  0.496  0.250  0.253
  0.165  0.750  0.085
    occupations:
  0.910 -0.042  0.024
 -0.042  0.889  0.023
  0.024  0.023  0.916
atom    6   Tr[ns(na)] =   5.42988
    eigenvalues: 
  0.841  0.929  0.944
    eigenvectors:
  0.339  0.000  0.661
  0.496  0.250  0.254
  0.166  0.750  0.084
    occupations:
  0.910  0.042  0.024
  0.042  0.889 -0.023
  0.024 -0.023  0.916
atom    7   Tr[ns(na)] =   5.42988
    eigenvalues: 
  0.841  0.929  0.944
    eigenvectors:
  0.339  0.000  0.661
  0.000  1.000  0.000
  0.661  0.000  0.339
    occupations:
  0.910  0.000 -0.049
  0.000  0.929  0.000
 -0.049  0.000  0.876
atom    8   Tr[ns(na)] =   5.42987
    eigenvalues: 
  0.841  0.929  0.944
    eigenvectors:
  0.338  0.000  0.662
  0.496  0.250  0.253
  0.165  0.750  0.085
    occupations:
  0.910 -0.042  0.024
 -0.042  0.889  0.023
  0.024  0.023  0.916
atom    9   Tr[ns(na)] =   5.42988
    eigenvalues: 
  0.841  0.929  0.944
    eigenvectors:
  0.339  0.000  0.661
  0.496  0.250  0.254
  0.166  0.750  0.084
    occupations:
  0.910  0.042  0.024
  0.042  0.889 -0.023
  0.024 -0.023  0.916
atom   10   Tr[ns(na)] =   5.42988
    eigenvalues: 
  0.841  0.929  0.944
    eigenvectors:
  0.338  0.000  0.662
  0.000  1.000  0.000
  0.662  0.000  0.338
    occupations:
  0.910  0.000 -0.049
  0.000  0.929  0.000
 -0.049  0.000  0.876
N of occupied +U levels =  56.2856928
 --- exit write_ns ---
 --- in v_hubbard ---
Hubbard energy    0.1643
 -------

     total cpu time spent up to now is      204.5 secs

     total energy              =    -538.15596602 Ry
     Harris-Foulkes estimate   =    -538.15592783 Ry
     estimated scf accuracy    <       0.00004720 Ry

     iteration #  6     ecut=    30.00 Ry     beta=0.20
     Davidson diagonalization with overlap
     ethr =  6.21E-08,  avg # of iterations =  2.3
 --- enter write_ns ---
 LDA+U parameters:
U( 1)     =  2.00000000
alpha( 1) =  0.00000000
U( 2)     =  0.00000000
alpha( 2) =  0.00000000
U( 3)     =  0.00000000
alpha( 3) =  0.00000000
U( 4)     =  0.00000000
alpha( 4) =  0.00000000
atom    1   Tr[ns(na)] =   8.05360
    eigenvalues: 
  0.546  0.546  0.978  0.978  0.978
    eigenvectors:
  0.000  0.000  0.000  0.000  1.000
  0.042  0.616  0.186  0.157  0.000
  0.616  0.042  0.157  0.186  0.000
  0.226  0.117  0.088  0.570  0.000
  0.117  0.226  0.570  0.088  0.000
    occupations:
  0.978  0.000  0.000  0.000  0.000
  0.000  0.694  0.000 -0.074  0.191
  0.000  0.000  0.694  0.191  0.074
  0.000 -0.074  0.191  0.830  0.000
  0.000  0.191  0.074  0.000  0.830
atom    2   Tr[ns(na)] =   8.05127
    eigenvalues: 
  0.545  0.545  0.979  0.979  0.979
    eigenvectors:
  0.000  0.000  0.000  0.000  1.000
  0.352  0.306  0.007  0.335  0.000
  0.306  0.352  0.335  0.007  0.000
  0.276  0.066  0.626  0.032  0.000
  0.066  0.276  0.032  0.626  0.000
    occupations:
  0.979  0.000  0.000  0.000  0.000
  0.000  0.693  0.000  0.074  0.192
  0.000  0.000  0.693  0.192 -0.074
  0.000  0.074  0.192  0.830  0.000
  0.000  0.192 -0.074  0.000  0.830
atom    3   Tr[ns(na)] =   3.79676
    eigenvalues: 
  0.356  0.356  0.382  0.402  0.402
    eigenvectors:
  0.000  0.000  1.000  0.000  0.000
  0.015  0.906  0.000  0.071  0.008
  0.906  0.015  0.000  0.008  0.071
  0.077  0.001  0.000  0.097  0.824
  0.001  0.077  0.000  0.824  0.097
    occupations:
  0.382  0.000  0.000  0.000  0.000
  0.000  0.359  0.000  0.000  0.012
  0.000  0.000  0.359  0.012  0.000
  0.000  0.000  0.012  0.399  0.000
  0.000  0.012  0.000  0.000  0.399
atom    4   Tr[ns(na)] =   3.79676
    eigenvalues: 
  0.356  0.356  0.382  0.402  0.402
    eigenvectors:
  0.000  0.000  1.000  0.000  0.000
  0.695  0.226  0.000  0.074  0.005
  0.226  0.695  0.000  0.005  0.074
  0.020  0.059  0.000  0.053  0.868
  0.059  0.020  0.000  0.868  0.053
    occupations:
  0.382  0.000  0.000  0.000  0.000
  0.000  0.359  0.000  0.000  0.012
  0.000  0.000  0.359  0.012  0.000
  0.000  0.000  0.012  0.399  0.000
  0.000  0.012  0.000  0.000  0.399
atom    5   Tr[ns(na)] =   5.43105
    eigenvalues: 
  0.842  0.929  0.945
    eigenvectors:
  0.338  0.000  0.662
  0.496  0.250  0.253
  0.165  0.750  0.085
    occupations:
  0.910 -0.042  0.024
 -0.042  0.890  0.023
  0.024  0.023  0.916
atom    6   Tr[ns(na)] =   5.43106
    eigenvalues: 
  0.842  0.929  0.945
    eigenvectors:
  0.338  0.000  0.662
  0.496  0.250  0.254
  0.166  0.750  0.084
    occupations:
  0.910  0.042  0.024
  0.042  0.890 -0.023
  0.024 -0.023  0.916
atom    7   Tr[ns(na)] =   5.43106
    eigenvalues: 
  0.842  0.929  0.945
    eigenvectors:
  0.338  0.000  0.662
  0.000  1.000  0.000
  0.662  0.000  0.338
    occupations:
  0.910  0.000 -0.049
  0.000  0.929  0.000
 -0.049  0.000  0.876
atom    8   Tr[ns(na)] =   5.43105
    eigenvalues: 
  0.842  0.929  0.945
    eigenvectors:
  0.338  0.000  0.662
  0.496  0.250  0.253
  0.165  0.750  0.085
    occupations:
  0.910 -0.042  0.024
 -0.042  0.890  0.023
  0.024  0.023  0.916
atom    9   Tr[ns(na)] =   5.43106
    eigenvalues: 
  0.842  0.929  0.945
    eigenvectors:
  0.338  0.000  0.662
  0.496  0.250  0.254
  0.166  0.750  0.084
    occupations:
  0.910  0.042  0.024
  0.042  0.890 -0.023
  0.024 -0.023  0.916
atom   10   Tr[ns(na)] =   5.43106
    eigenvalues: 
  0.842  0.929  0.945
    eigenvectors:
  0.338  0.000  0.662
  0.000  1.000  0.000
  0.662  0.000  0.338
    occupations:
  0.910  0.000 -0.049
  0.000  0.929  0.000
 -0.049  0.000  0.876
N of occupied +U levels =  56.2847437
 --- exit write_ns ---
 --- in v_hubbard ---
Hubbard energy    0.1642
 -------

     total cpu time spent up to now is      235.5 secs

     total energy              =    -538.15600451 Ry
     Harris-Foulkes estimate   =    -538.15597323 Ry
     estimated scf accuracy    <       0.00001203 Ry

     iteration #  7     ecut=    30.00 Ry     beta=0.20
     Davidson diagonalization with overlap
     ethr =  1.58E-08,  avg # of iterations =  2.0
 --- enter write_ns ---
 LDA+U parameters:
U( 1)     =  2.00000000
alpha( 1) =  0.00000000
U( 2)     =  0.00000000
alpha( 2) =  0.00000000
U( 3)     =  0.00000000
alpha( 3) =  0.00000000
U( 4)     =  0.00000000
alpha( 4) =  0.00000000
atom    1   Tr[ns(na)] =   8.05179
    eigenvalues: 
  0.546  0.546  0.978  0.978  0.979
    eigenvectors:
  0.000  0.000  0.000  0.000  1.000
  0.035  0.622  0.192  0.151  0.000
  0.622  0.035  0.151  0.192  0.000
  0.233  0.110  0.080  0.577  0.000
  0.110  0.233  0.577  0.080  0.000
    occupations:
  0.979  0.000  0.000  0.000  0.000
  0.000  0.694  0.000 -0.074  0.191
  0.000  0.000  0.694  0.191  0.074
  0.000 -0.074  0.191  0.830  0.000
  0.000  0.191  0.074  0.000  0.830
atom    2   Tr[ns(na)] =   8.05181
    eigenvalues: 
  0.544  0.544  0.979  0.979  0.980
    eigenvectors:
  0.000  0.000  0.000  0.000  1.000
  0.356  0.301  0.008  0.335  0.000
  0.301  0.356  0.335  0.008  0.000
  0.275  0.068  0.629  0.028  0.000
  0.068  0.275  0.028  0.629  0.000
    occupations:
  0.980  0.000  0.000  0.000  0.000
  0.000  0.693  0.000  0.074  0.192
  0.000  0.000  0.693  0.192 -0.074
  0.000  0.074  0.192  0.830  0.000
  0.000  0.192 -0.074  0.000  0.830
atom    3   Tr[ns(na)] =   3.79557
    eigenvalues: 
  0.356  0.356  0.382  0.402  0.402
    eigenvectors:
  0.000  0.000  1.000  0.000  0.000
  0.038  0.884  0.000  0.061  0.018
  0.884  0.038  0.000  0.018  0.061
  0.075  0.004  0.000  0.219  0.702
  0.004  0.075  0.000  0.702  0.219
    occupations:
  0.382  0.000  0.000  0.000  0.000
  0.000  0.359  0.000  0.000  0.012
  0.000  0.000  0.359  0.012  0.000
  0.000  0.000  0.012  0.398  0.000
  0.000  0.012  0.000  0.000  0.398
atom    4   Tr[ns(na)] =   3.79556
    eigenvalues: 
  0.356  0.356  0.382  0.402  0.402
    eigenvectors:
  0.000  0.000  1.000  0.000  0.000
  0.713  0.209  0.000  0.068  0.011
  0.209  0.713  0.000  0.011  0.068
  0.018  0.060  0.000  0.118  0.803
  0.060  0.018  0.000  0.803  0.118
    occupations:
  0.382  0.000  0.000  0.000  0.000
  0.000  0.359  0.000  0.000  0.012
  0.000  0.000  0.359  0.012  0.000
  0.000  0.000  0.012  0.398  0.000
  0.000  0.012  0.000  0.000  0.398
atom    5   Tr[ns(na)] =   5.43152
    eigenvalues: 
  0.842  0.929  0.945
    eigenvectors:
  0.339  0.000  0.661
  0.496  0.250  0.253
  0.165  0.750  0.085
    occupations:
  0.910 -0.042  0.024
 -0.042  0.890  0.023
  0.024  0.023  0.916
atom    6   Tr[ns(na)] =   5.43153
    eigenvalues: 
  0.842  0.929  0.945
    eigenvectors:
  0.339  0.000  0.661
  0.496  0.250  0.255
  0.165  0.750  0.084
    occupations:
  0.910  0.042  0.024
  0.042  0.890 -0.023
  0.024 -0.023  0.916
atom    7   Tr[ns(na)] =   5.43153
    eigenvalues: 
  0.842  0.929  0.945
    eigenvectors:
  0.339  0.000  0.661
  0.000  1.000  0.000
  0.661  0.000  0.339
    occupations:
  0.910  0.000 -0.049
  0.000  0.929  0.000
 -0.049  0.000  0.877
atom    8   Tr[ns(na)] =   5.43152
    eigenvalues: 
  0.842  0.929  0.945
    eigenvectors:
  0.339  0.000  0.661
  0.496  0.250  0.253
  0.165  0.750  0.085
    occupations:
  0.910 -0.042  0.024
 -0.042  0.890  0.023
  0.024  0.023  0.916
atom    9   Tr[ns(na)] =   5.43153
    eigenvalues: 
  0.842  0.929  0.945
    eigenvectors:
  0.339  0.000  0.661
  0.496  0.250  0.255
  0.165  0.750  0.084
    occupations:
  0.910  0.042  0.024
  0.042  0.890 -0.023
  0.024 -0.023  0.916
atom   10   Tr[ns(na)] =   5.43153
    eigenvalues: 
  0.842  0.929  0.945
    eigenvectors:
  0.339  0.000  0.661
  0.000  1.000  0.000
  0.661  0.000  0.339
    occupations:
  0.910  0.000 -0.049
  0.000  0.929  0.000
 -0.049  0.000  0.877
N of occupied +U levels =  56.2838812
 --- exit write_ns ---
 --- in v_hubbard ---
Hubbard energy    0.1642
 -------

     total cpu time spent up to now is      266.4 secs

     total energy              =    -538.15603563 Ry
     Harris-Foulkes estimate   =    -538.15600694 Ry
     estimated scf accuracy    <       0.00000431 Ry

     iteration #  8     ecut=    30.00 Ry     beta=0.20
     Davidson diagonalization with overlap
     ethr =  5.68E-09,  avg # of iterations =  1.0
 --- enter write_ns ---
 LDA+U parameters:
U( 1)     =  2.00000000
alpha( 1) =  0.00000000
U( 2)     =  0.00000000
alpha( 2) =  0.00000000
U( 3)     =  0.00000000
alpha( 3) =  0.00000000
U( 4)     =  0.00000000
alpha( 4) =  0.00000000
atom    1   Tr[ns(na)] =   8.05347
    eigenvalues: 
  0.546  0.546  0.978  0.978  0.979
    eigenvectors:
  0.000  0.000  0.000  0.000  1.000
  0.038  0.619  0.193  0.150  0.000
  0.619  0.038  0.150  0.193  0.000
  0.230  0.113  0.079  0.578  0.000
  0.113  0.230  0.578  0.079  0.000
    occupations:
  0.979  0.000  0.000  0.000  0.000
  0.000  0.694  0.000 -0.074  0.191
  0.000  0.000  0.694  0.191  0.074
  0.000 -0.074  0.191  0.830  0.000
  0.000  0.191  0.074  0.000  0.830
atom    2   Tr[ns(na)] =   8.05149
    eigenvalues: 
  0.545  0.545  0.979  0.979  0.980
    eigenvectors:
  0.000  0.000  0.000  0.000  1.000
  0.359  0.298  0.008  0.334  0.000
  0.298  0.359  0.334  0.008  0.000
  0.274  0.069  0.629  0.028  0.000
  0.069  0.274  0.028  0.629  0.000
    occupations:
  0.980  0.000  0.000  0.000  0.000
  0.000  0.693  0.000  0.074  0.192
  0.000  0.000  0.693  0.192 -0.074
  0.000  0.074  0.192  0.830  0.000
  0.000  0.192 -0.074  0.000  0.830
atom    3   Tr[ns(na)] =   3.79587
    eigenvalues: 
  0.356  0.356  0.382  0.402  0.402
    eigenvectors:
  0.000  0.000  1.000  0.000  0.000
  0.050  0.871  0.000  0.027  0.052
  0.871  0.050  0.000  0.052  0.027
  0.074  0.005  0.000  0.614  0.308
  0.005  0.074  0.000  0.308  0.614
    occupations:
  0.382  0.000  0.000  0.000  0.000
  0.000  0.359  0.000  0.000  0.012
  0.000  0.000  0.359  0.012  0.000
  0.000  0.000  0.012  0.398  0.000
  0.000  0.012  0.000  0.000  0.398
atom    4   Tr[ns(na)] =   3.79587
    eigenvalues: 
  0.356  0.356  0.382  0.402  0.402
    eigenvectors:
  0.000  0.000  1.000  0.000  0.000
  0.723  0.198  0.000  0.026  0.053
  0.198  0.723  0.000  0.053  0.026
  0.018  0.061  0.000  0.610  0.311
  0.061  0.018  0.000  0.311  0.610
    occupations:
  0.382  0.000  0.000  0.000  0.000
  0.000  0.359  0.000  0.000  0.012
  0.000  0.000  0.359  0.012  0.000
  0.000  0.000  0.012  0.398  0.000
  0.000  0.012  0.000  0.000  0.398
atom    5   Tr[ns(na)] =   5.43124
    eigenvalues: 
  0.842  0.929  0.945
    eigenvectors:
  0.339  0.000  0.661
  0.496  0.250  0.253
  0.165  0.750  0.085
    occupations:
  0.910 -0.042  0.024
 -0.042  0.890  0.023
  0.024  0.023  0.916
atom    6   Tr[ns(na)] =   5.43125
    eigenvalues: 
  0.842  0.929  0.945
    eigenvectors:
  0.339  0.000  0.661
  0.496  0.250  0.255
  0.166  0.750  0.084
    occupations:
  0.910  0.042  0.024
  0.042  0.890 -0.023
  0.024 -0.023  0.916
atom    7   Tr[ns(na)] =   5.43125
    eigenvalues: 
  0.842  0.929  0.945
    eigenvectors:
  0.339  0.000  0.661
  0.000  1.000  0.000
  0.661  0.000  0.339
    occupations:
  0.910  0.000 -0.049
  0.000  0.929  0.000
 -0.049  0.000  0.876
atom    8   Tr[ns(na)] =   5.43124
    eigenvalues: 
  0.842  0.929  0.945
    eigenvectors:
  0.339  0.000  0.661
  0.496  0.250  0.253
  0.165  0.750  0.085
    occupations:
  0.910 -0.042  0.024
 -0.042  0.890  0.023
  0.024  0.023  0.916
atom    9   Tr[ns(na)] =   5.43125
    eigenvalues: 
  0.842  0.929  0.945
    eigenvectors:
  0.339  0.000  0.661
  0.496  0.250  0.255
  0.166  0.750  0.084
    occupations:
  0.910  0.042  0.024
  0.042  0.890 -0.023
  0.024 -0.023  0.916
atom   10   Tr[ns(na)] =   5.43125
    eigenvalues: 
  0.842  0.929  0.945
    eigenvectors:
  0.339  0.000  0.661
  0.000  1.000  0.000
  0.661  0.000  0.339
    occupations:
  0.910  0.000 -0.049
  0.000  0.929  0.000
 -0.049  0.000  0.876
N of occupied +U levels =  56.2841855
 --- exit write_ns ---
 --- in v_hubbard ---
Hubbard energy    0.1643
 -------

     total cpu time spent up to now is      292.0 secs

     total energy              =    -538.15605453 Ry
     Harris-Foulkes estimate   =    -538.15603601 Ry
     estimated scf accuracy    <       0.00000066 Ry

     iteration #  9     ecut=    30.00 Ry     beta=0.20
     Davidson diagonalization with overlap
     ethr =  8.72E-10,  avg # of iterations =  2.0
 --- enter write_ns ---
 LDA+U parameters:
U( 1)     =  2.00000000
alpha( 1) =  0.00000000
U( 2)     =  0.00000000
alpha( 2) =  0.00000000
U( 3)     =  0.00000000
alpha( 3) =  0.00000000
U( 4)     =  0.00000000
alpha( 4) =  0.00000000
atom    1   Tr[ns(na)] =   8.05330
    eigenvalues: 
  0.546  0.546  0.978  0.978  0.979
    eigenvectors:
  0.000  0.000  0.000  0.000  1.000
  0.038  0.619  0.190  0.153  0.000
  0.619  0.038  0.153  0.190  0.000
  0.229  0.114  0.083  0.574  0.000
  0.114  0.229  0.574  0.083  0.000
    occupations:
  0.979  0.000  0.000  0.000  0.000
  0.000  0.694  0.000 -0.074  0.191
  0.000  0.000  0.694  0.191  0.074
  0.000 -0.074  0.191  0.830  0.000
  0.000  0.191  0.074  0.000  0.830
atom    2   Tr[ns(na)] =   8.05204
    eigenvalues: 
  0.545  0.545  0.979  0.979  0.980
    eigenvectors:
  0.000  0.000  0.000  0.000  1.000
  0.359  0.298  0.009  0.334  0.000
  0.298  0.359  0.334  0.009  0.000
  0.274  0.069  0.630  0.027  0.000
  0.069  0.274  0.027  0.630  0.000
    occupations:
  0.980  0.000  0.000  0.000  0.000
  0.000  0.693  0.000  0.074  0.192
  0.000  0.000  0.693  0.192 -0.074
  0.000  0.074  0.192  0.830  0.000
  0.000  0.192 -0.074  0.000  0.830
atom    3   Tr[ns(na)] =   3.79617
    eigenvalues: 
  0.356  0.356  0.382  0.402  0.402
    eigenvectors:
  0.000  0.000  1.000  0.000  0.000
  0.055  0.866  0.000  0.052  0.027
  0.866  0.055  0.000  0.027  0.052
  0.074  0.005  0.000  0.322  0.599
  0.005  0.074  0.000  0.599  0.322
    occupations:
  0.382  0.000  0.000  0.000  0.000
  0.000  0.359  0.000  0.000  0.012
  0.000  0.000  0.359  0.012  0.000
  0.000  0.000  0.012  0.398  0.000
  0.000  0.012  0.000  0.000  0.398
atom    4   Tr[ns(na)] =   3.79617
    eigenvalues: 
  0.356  0.356  0.382  0.402  0.402
    eigenvectors:
  0.000  0.000  1.000  0.000  0.000
  0.721  0.201  0.000  0.047  0.032
  0.201  0.721  0.000  0.032  0.047
  0.018  0.061  0.000  0.363  0.558
  0.061  0.018  0.000  0.558  0.363
    occupations:
  0.382  0.000  0.000  0.000  0.000
  0.000  0.359  0.000  0.000  0.012
  0.000  0.000  0.359  0.012  0.000
  0.000  0.000  0.012  0.398  0.000
  0.000  0.012  0.000  0.000  0.398
atom    5   Tr[ns(na)] =   5.43111
    eigenvalues: 
  0.842  0.929  0.945
    eigenvectors:
  0.339  0.000  0.661
  0.496  0.250  0.253
  0.165  0.750  0.085
    occupations:
  0.910 -0.042  0.024
 -0.042  0.890  0.023
  0.024  0.023  0.916
atom    6   Tr[ns(na)] =   5.43112
    eigenvalues: 
  0.842  0.929  0.945
    eigenvectors:
  0.339  0.000  0.661
  0.496  0.250  0.255
  0.166  0.750  0.084
    occupations:
  0.910  0.042  0.024
  0.042  0.890 -0.023
  0.024 -0.023  0.916
atom    7   Tr[ns(na)] =   5.43112
    eigenvalues: 
  0.842  0.929  0.945
    eigenvectors:
  0.339  0.000  0.661
  0.000  1.000  0.000
  0.661  0.000  0.339
    occupations:
  0.910  0.000 -0.049
  0.000  0.929  0.000
 -0.049  0.000  0.876
atom    8   Tr[ns(na)] =   5.43111
    eigenvalues: 
  0.842  0.929  0.945
    eigenvectors:
  0.339  0.000  0.661
  0.496  0.250  0.253
  0.165  0.750  0.085
    occupations:
  0.910 -0.042  0.024
 -0.042  0.890  0.023
  0.024  0.023  0.916
atom    9   Tr[ns(na)] =   5.43112
    eigenvalues: 
  0.842  0.929  0.945
    eigenvectors:
  0.339  0.000  0.661
  0.496  0.250  0.255
  0.166  0.750  0.084
    occupations:
  0.910  0.042  0.024
  0.042  0.890 -0.023
  0.024 -0.023  0.916
atom   10   Tr[ns(na)] =   5.43112
    eigenvalues: 
  0.842  0.929  0.945
    eigenvectors:
  0.339  0.000  0.661
  0.000  1.000  0.000
  0.661  0.000  0.339
    occupations:
  0.910  0.000 -0.049
  0.000  0.929  0.000
 -0.049  0.000  0.876
N of occupied +U levels =  56.2843764
 --- exit write_ns ---
 --- in v_hubbard ---
Hubbard energy    0.1643
 -------

     total cpu time spent up to now is      325.6 secs

     total energy              =    -538.15606620 Ry
     Harris-Foulkes estimate   =    -538.15605464 Ry
     estimated scf accuracy    <       0.00000008 Ry

     iteration # 10     ecut=    30.00 Ry     beta=0.20
     Davidson diagonalization with overlap
     ethr =  1.03E-10,  avg # of iterations =  2.0
 --- enter write_ns ---
 LDA+U parameters:
U( 1)     =  2.00000000
alpha( 1) =  0.00000000
U( 2)     =  0.00000000
alpha( 2) =  0.00000000
U( 3)     =  0.00000000
alpha( 3) =  0.00000000
U( 4)     =  0.00000000
alpha( 4) =  0.00000000
atom    1   Tr[ns(na)] =   8.05341
    eigenvalues: 
  0.546  0.546  0.978  0.978  0.979
    eigenvectors:
  0.000  0.000  0.000  0.000  1.000
  0.037  0.620  0.191  0.152  0.000
  0.620  0.037  0.152  0.191  0.000
  0.231  0.112  0.082  0.575  0.000
  0.112  0.231  0.575  0.082  0.000
    occupations:
  0.979  0.000  0.000  0.000  0.000
  0.000  0.694  0.000 -0.074  0.191
  0.000  0.000  0.694  0.191  0.074
  0.000 -0.074  0.191  0.830  0.000
  0.000  0.191  0.074  0.000  0.830
atom    2   Tr[ns(na)] =   8.05205
    eigenvalues: 
  0.545  0.545  0.979  0.979  0.980
    eigenvectors:
  0.000  0.000  0.000  0.000  1.000
  0.360  0.297  0.008  0.335  0.000
  0.297  0.360  0.335  0.008  0.000
  0.273  0.070  0.628  0.029  0.000
  0.070  0.273  0.029  0.628  0.000
    occupations:
  0.980  0.000  0.000  0.000  0.000
  0.000  0.693  0.000  0.074  0.192
  0.000  0.000  0.693  0.192 -0.074
  0.000  0.074  0.192  0.830  0.000
  0.000  0.192 -0.074  0.000  0.830
atom    3   Tr[ns(na)] =   3.79606
    eigenvalues: 
  0.356  0.356  0.382  0.402  0.402
    eigenvectors:
  0.000  0.000  1.000  0.000  0.000
  0.052  0.869  0.000  0.055  0.024
  0.869  0.052  0.000  0.024  0.055
  0.074  0.005  0.000  0.283  0.638
  0.005  0.074  0.000  0.638  0.283
    occupations:
  0.382  0.000  0.000  0.000  0.000
  0.000  0.359  0.000  0.000  0.012
  0.000  0.000  0.359  0.012  0.000
  0.000  0.000  0.012  0.398  0.000
  0.000  0.012  0.000  0.000  0.398
atom    4   Tr[ns(na)] =   3.79606
    eigenvalues: 
  0.356  0.356  0.382  0.402  0.402
    eigenvectors:
  0.000  0.000  1.000  0.000  0.000
  0.720  0.201  0.000  0.056  0.023
  0.201  0.720  0.000  0.023  0.056
  0.018  0.061  0.000  0.258  0.663
  0.061  0.018  0.000  0.663  0.258
    occupations:
  0.382  0.000  0.000  0.000  0.000
  0.000  0.359  0.000  0.000  0.012
  0.000  0.000  0.359  0.012  0.000
  0.000  0.000  0.012  0.398  0.000
  0.000  0.012  0.000  0.000  0.398
atom    5   Tr[ns(na)] =   5.43111
    eigenvalues: 
  0.842  0.929  0.945
    eigenvectors:
  0.339  0.000  0.661
  0.496  0.250  0.253
  0.165  0.750  0.085
    occupations:
  0.910 -0.042  0.024
 -0.042  0.890  0.023
  0.024  0.023  0.916
atom    6   Tr[ns(na)] =   5.43113
    eigenvalues: 
  0.842  0.929  0.945
    eigenvectors:
  0.339  0.000  0.661
  0.496  0.250  0.255
  0.166  0.750  0.084
    occupations:
  0.910  0.042  0.024
  0.042  0.890 -0.023
  0.024 -0.023  0.916
atom    7   Tr[ns(na)] =   5.43113
    eigenvalues: 
  0.842  0.929  0.945
    eigenvectors:
  0.339  0.000  0.661
  0.000  1.000  0.000
  0.661  0.000  0.339
    occupations:
  0.910  0.000 -0.049
  0.000  0.929  0.000
 -0.049  0.000  0.876
atom    8   Tr[ns(na)] =   5.43112
    eigenvalues: 
  0.842  0.929  0.945
    eigenvectors:
  0.339  0.000  0.661
  0.496  0.250  0.253
  0.165  0.750  0.085
    occupations:
  0.910 -0.042  0.024
 -0.042  0.890  0.023
  0.024  0.023  0.916
atom    9   Tr[ns(na)] =   5.43112
    eigenvalues: 
  0.842  0.929  0.945
    eigenvectors:
  0.339  0.000  0.661
  0.496  0.250  0.255
  0.166  0.750  0.084
    occupations:
  0.910  0.042  0.024
  0.042  0.890 -0.023
  0.024 -0.023  0.916
atom   10   Tr[ns(na)] =   5.43112
    eigenvalues: 
  0.842  0.929  0.945
    eigenvectors:
  0.339  0.000  0.661
  0.000  1.000  0.000
  0.661  0.000  0.339
    occupations:
  0.910  0.000 -0.049
  0.000  0.929  0.000
 -0.049  0.000  0.876
N of occupied +U levels =  56.2843102
 --- exit write_ns ---
 --- in v_hubbard ---
Hubbard energy    0.1644
 -------

     total cpu time spent up to now is      359.1 secs

     total energy              =    -538.15607372 Ry
     Harris-Foulkes estimate   =    -538.15606621 Ry
     estimated scf accuracy    <       0.00000004 Ry

     iteration # 11     ecut=    30.00 Ry     beta=0.20
     Davidson diagonalization with overlap
     ethr =  4.79E-11,  avg # of iterations =  2.0
 --- enter write_ns ---
 LDA+U parameters:
U( 1)     =  2.00000000
alpha( 1) =  0.00000000
U( 2)     =  0.00000000
alpha( 2) =  0.00000000
U( 3)     =  0.00000000
alpha( 3) =  0.00000000
U( 4)     =  0.00000000
alpha( 4) =  0.00000000
atom    1   Tr[ns(na)] =   8.05330
    eigenvalues: 
  0.546  0.546  0.978  0.978  0.979
    eigenvectors:
  0.000  0.000  0.000  0.000  1.000
  0.037  0.620  0.191  0.152  0.000
  0.620  0.037  0.152  0.191  0.000
  0.231  0.112  0.081  0.576  0.000
  0.112  0.231  0.576  0.081  0.000
    occupations:
  0.979  0.000  0.000  0.000  0.000
  0.000  0.694  0.000 -0.074  0.191
  0.000  0.000  0.694  0.191  0.074
  0.000 -0.074  0.191  0.830  0.000
  0.000  0.191  0.074  0.000  0.830
atom    2   Tr[ns(na)] =   8.05192
    eigenvalues: 
  0.545  0.545  0.979  0.979  0.980
    eigenvectors:
  0.000  0.000  0.000  0.000  1.000
  0.360  0.298  0.008  0.335  0.000
  0.298  0.360  0.335  0.008  0.000
  0.273  0.069  0.628  0.029  0.000
  0.069  0.273  0.029  0.628  0.000
    occupations:
  0.980  0.000  0.000  0.000  0.000
  0.000  0.693  0.000  0.074  0.192
  0.000  0.000  0.693  0.192 -0.074
  0.000  0.074  0.192  0.830  0.000
  0.000  0.192 -0.074  0.000  0.830
atom    3   Tr[ns(na)] =   3.79604
    eigenvalues: 
  0.356  0.356  0.382  0.402  0.402
    eigenvectors:
  0.000  0.000  1.000  0.000  0.000
  0.053  0.869  0.000  0.056  0.022
  0.869  0.053  0.000  0.022  0.056
  0.074  0.005  0.000  0.270  0.652
  0.005  0.074  0.000  0.652  0.270
    occupations:
  0.382  0.000  0.000  0.000  0.000
  0.000  0.359  0.000  0.000  0.012
  0.000  0.000  0.359  0.012  0.000
  0.000  0.000  0.012  0.398  0.000
  0.000  0.012  0.000  0.000  0.398
atom    4   Tr[ns(na)] =   3.79604
    eigenvalues: 
  0.356  0.356  0.382  0.402  0.402
    eigenvectors:
  0.000  0.000  1.000  0.000  0.000
  0.721  0.200  0.000  0.059  0.020
  0.200  0.721  0.000  0.020  0.059
  0.018  0.061  0.000  0.230  0.691
  0.061  0.018  0.000  0.691  0.230
    occupations:
  0.382  0.000  0.000  0.000  0.000
  0.000  0.359  0.000  0.000  0.012
  0.000  0.000  0.359  0.012  0.000
  0.000  0.000  0.012  0.398  0.000
  0.000  0.012  0.000  0.000  0.398
atom    5   Tr[ns(na)] =   5.43115
    eigenvalues: 
  0.842  0.929  0.945
    eigenvectors:
  0.339  0.000  0.661
  0.496  0.250  0.253
  0.165  0.750  0.085
    occupations:
  0.910 -0.042  0.024
 -0.042  0.890  0.023
  0.024  0.023  0.916
atom    6   Tr[ns(na)] =   5.43117
    eigenvalues: 
  0.842  0.929  0.945
    eigenvectors:
  0.339  0.000  0.661
  0.496  0.250  0.254
  0.166  0.750  0.084
    occupations:
  0.910  0.042  0.024
  0.042  0.890 -0.023
  0.024 -0.023  0.916
atom    7   Tr[ns(na)] =   5.43117
    eigenvalues: 
  0.842  0.929  0.945
    eigenvectors:
  0.339  0.000  0.661
  0.000  1.000  0.000
  0.661  0.000  0.339
    occupations:
  0.910  0.000 -0.049
  0.000  0.929  0.000
 -0.049  0.000  0.876
atom    8   Tr[ns(na)] =   5.43116
    eigenvalues: 
  0.842  0.929  0.945
    eigenvectors:
  0.339  0.000  0.661
  0.496  0.250  0.253
  0.165  0.750  0.085
    occupations:
  0.910 -0.042  0.024
 -0.042  0.890  0.023
  0.024  0.023  0.916
atom    9   Tr[ns(na)] =   5.43116
    eigenvalues: 
  0.842  0.929  0.945
    eigenvectors:
  0.339  0.000  0.661
  0.496  0.250  0.255
  0.166  0.750  0.084
    occupations:
  0.910  0.042  0.024
  0.042  0.890 -0.023
  0.024 -0.023  0.916
atom   10   Tr[ns(na)] =   5.43116
    eigenvalues: 
  0.842  0.929  0.945
    eigenvectors:
  0.339  0.000  0.661
  0.000  1.000  0.000
  0.661  0.000  0.339
    occupations:
  0.910  0.000 -0.049
  0.000  0.929  0.000
 -0.049  0.000  0.876
N of occupied +U levels =  56.2842736
 --- exit write_ns ---
 --- in v_hubbard ---
Hubbard energy    0.1644
 -------

     total cpu time spent up to now is      388.5 secs

     End of self-consistent calculation

          k = 0.0000 0.0000 0.0000 (  2175 PWs)   bands (ev):

   -19.7991 -19.6259  -6.5491  -5.8396  -5.8394  -5.8252  -5.8250  -5.4847
    -3.7934  -3.2618  -3.2226  -3.2226  -3.0263  -3.0263   5.1883   6.8633
     6.8633   7.4267   7.4267   7.4727   7.5155   7.5155   7.7115   9.2924
     9.5061   9.6175   9.6175   9.6920   9.6920  10.1072  10.1073  10.3550
    10.4577  10.4578  10.6726  11.2923  11.2923  11.7625  12.0581  12.0581
    14.7586  14.7586  15.4257  15.4257  16.1967  16.7842

     occupation numbers 
     0.0313   0.0313   0.0313   0.0313   0.0313   0.0313   0.0313   0.0313
     0.0313   0.0313   0.0313   0.0313   0.0313   0.0313   0.0313   0.0313
     0.0313   0.0313   0.0313   0.0313   0.0313   0.0313   0.0313   0.0313
     0.0312   0.0312   0.0312   0.0312   0.0312   0.0312   0.0312   0.0312
     0.0312   0.0312   0.0312   0.0306   0.0306   0.0204   0.0083   0.0083
     0.0000   0.0000   0.0000   0.0000   0.0000   0.0000

          k =-0.2471-0.1427 0.1027 (  2181 PWs)   bands (ev):

   -19.7724 -19.6553  -6.7278  -6.2920  -5.9459  -5.8517  -5.6138  -5.4815
    -3.5988  -3.3947  -2.9349  -2.9062  -2.8523  -2.7620   5.5470   6.8594
     6.9632   6.9802   7.0225   7.4040   7.4371   7.5204   7.6225   8.4318
     8.4807   9.0703   9.6356   9.7496   9.7732   9.9993  10.3445  10.3545
    10.5308  10.5327  10.6612  11.4481  11.5154  11.5545  12.3172  12.3859
    14.3034  14.3124  15.8140  16.0679  16.9712  17.2651

     occupation numbers 
     0.0625   0.0625   0.0625   0.0625   0.0625   0.0625   0.0625   0.0625
     0.0625   0.0625   0.0625   0.0625   0.0625   0.0625   0.0625   0.0625
     0.0625   0.0625   0.0625   0.0625   0.0625   0.0625   0.0625   0.0625
     0.0625   0.0625   0.0625   0.0625   0.0625   0.0625   0.0625   0.0625
     0.0625   0.0625   0.0625   0.0582   0.0559   0.0542   0.0040   0.0024
     0.0000   0.0000   0.0000   0.0000   0.0000   0.0000

          k = 0.4942 0.2853-0.2053 (  2202 PWs)   bands (ev):

   -19.7152 -19.7152  -6.7275  -6.7151  -5.9628  -5.9608  -5.5247  -5.5218
    -3.3846  -3.3818  -2.7927  -2.7909  -2.5089  -2.5070   6.0332   6.0371
     7.1393   7.1555   7.2118   7.2276   7.4868   7.5121   7.6924   7.7164
     7.9056   7.9329   9.4731   9.4777   9.8621   9.8692  10.2694  10.2791
    10.9215  10.9335  11.0467  11.0597  11.2702  11.2836  13.2856  13.3194
    13.3702  13.4041  16.8312  16.8360  17.1296  17.1330

     occupation numbers 
     0.0313   0.0313   0.0313   0.0313   0.0313   0.0313   0.0313   0.0313
     0.0313   0.0313   0.0313   0.0313   0.0313   0.0313   0.0313   0.0313
     0.0313   0.0313   0.0313   0.0313   0.0313   0.0313   0.0313   0.0313
     0.0313   0.0313   0.0313   0.0313   0.0312   0.0312   0.0312   0.0312
     0.0312   0.0312   0.0312   0.0312   0.0307   0.0306   0.0000   0.0000
     0.0000   0.0000   0.0000   0.0000   0.0000   0.0000

          k =-0.2471 0.1427 0.2053 (  2195 PWs)   bands (ev):

   -19.7665 -19.6616  -6.8536  -6.2352  -6.0678  -5.8325  -5.6578  -5.4629
    -3.4165  -3.2639  -3.1037  -2.8942  -2.8199  -2.5615   5.5765   6.7612
     6.7819   6.8615   7.2070   7.4464   7.4822   7.5149   7.5576   8.5302
     8.5910   8.7849   9.2831   9.6333   9.9288  10.0329  10.0344  10.1451
    10.2715  10.9812  11.1181  11.1346  11.4700  11.5469  11.9617  12.7284
    13.6289  14.7751  15.9905  16.1922  17.0344  17.5363

     occupation numbers 
     0.0625   0.0625   0.0625   0.0625   0.0625   0.0625   0.0625   0.0625
     0.0625   0.0625   0.0625   0.0625   0.0625   0.0625   0.0625   0.0625
     0.0625   0.0625   0.0625   0.0625   0.0625   0.0625   0.0625   0.0625
     0.0625   0.0625   0.0625   0.0625   0.0625   0.0625   0.0625   0.0625
     0.0625   0.0624   0.0622   0.0622   0.0575   0.0546   0.0240   0.0001
     0.0000   0.0000   0.0000   0.0000   0.0000   0.0000

          k = 0.4942 0.5706-0.1027 (  2198 PWs)   bands (ev):

   -19.7308 -19.6996  -6.9561  -6.6469  -6.1301  -5.8932  -5.5143  -5.3856
    -3.3063  -3.2544  -2.8779  -2.7091  -2.5287  -2.3861   5.8799   6.2215
     6.5826   6.9546   7.1634   7.3162   7.4219   7.6174   7.6607   7.8340
     8.1507   8.7590   9.0268   9.2874   9.5988   9.7964   9.9083  10.3408
    10.5756  11.0442  11.1534  11.2282  11.3633  11.4383  12.3089  12.7338
    13.4205  14.3527  16.9024  17.1120  17.3070  18.0129

     occupation numbers 
     0.0625   0.0625   0.0625   0.0625   0.0625   0.0625   0.0625   0.0625
     0.0625   0.0625   0.0625   0.0625   0.0625   0.0625   0.0625   0.0625
     0.0625   0.0625   0.0625   0.0625   0.0625   0.0625   0.0625   0.0625
     0.0625   0.0625   0.0625   0.0625   0.0625   0.0625   0.0625   0.0625
     0.0625   0.0624   0.0621   0.0617   0.0601   0.0585   0.0042   0.0001
     0.0000   0.0000   0.0000   0.0000   0.0000   0.0000

          k = 0.2471 0.4280 0.0000 (  2203 PWs)   bands (ev):

   -19.7415 -19.6884  -6.8476  -6.6399  -6.0518  -5.9808  -5.4405  -5.3713
    -3.5208  -3.2943  -2.8018  -2.7102  -2.5702  -2.5608   5.8705   6.2611
     6.8250   7.0635   7.1543   7.2387   7.4067   7.4810   7.5495   7.9164
     8.1509   8.9153   9.1273   9.3913   9.7546   9.7716  10.0515  10.3465
    10.8856  10.9150  10.9929  11.1785  11.2063  11.5345  12.2314  13.3143
    13.3890  14.1479  16.4333  16.9904  17.4186  17.9236

     occupation numbers 
     0.0625   0.0625   0.0625   0.0625   0.0625   0.0625   0.0625   0.0625
     0.0625   0.0625   0.0625   0.0625   0.0625   0.0625   0.0625   0.0625
     0.0625   0.0625   0.0625   0.0625   0.0625   0.0625   0.0625   0.0625
     0.0625   0.0625   0.0625   0.0625   0.0625   0.0625   0.0625   0.0625
     0.0625   0.0625   0.0624   0.0620   0.0619   0.0551   0.0068   0.0000
     0.0000   0.0000   0.0000   0.0000   0.0000   0.0000

          k = 0.4942-0.2853-0.4107 (  2202 PWs)   bands (ev):

   -19.7333 -19.6970  -7.1674  -6.4543  -6.2397  -5.9687  -5.5323  -5.2931
    -3.1948  -3.1214  -3.0459  -2.6507  -2.4816  -2.2234   5.7869   6.1003
     6.2350   6.8532   7.1473   7.2564   7.5536   7.6513   8.1594   8.2324
     8.2423   8.3088   8.5991   9.4121   9.6724   9.8531  10.0294  10.0649
    10.4252  10.9385  11.1057  11.2657  11.3982  11.5678  11.8909  12.4210
    13.3220  14.7884  17.0402  17.2624  17.5177  17.6088

     occupation numbers 
     0.0313   0.0313   0.0313   0.0313   0.0313   0.0313   0.0313   0.0313
     0.0313   0.0313   0.0313   0.0313   0.0313   0.0313   0.0313   0.0313
     0.0313   0.0313   0.0313   0.0313   0.0313   0.0313   0.0313   0.0313
     0.0313   0.0313   0.0313   0.0313   0.0312   0.0312   0.0312   0.0312
     0.0312   0.0312   0.0311   0.0307   0.0297   0.0268   0.0150   0.0009
     0.0000   0.0000   0.0000   0.0000   0.0000   0.0000

          k = 0.0000 0.0000 0.3080 (  2187 PWs)   bands (ev):

   -19.7721 -19.6557  -6.6160  -5.9829  -5.9319  -5.9319  -5.8425  -5.8425
    -3.2058  -3.1189  -3.1189  -2.9687  -2.8976  -2.8975   5.6071   6.9607
     6.9607   7.1240   7.1334   7.3504   7.3504   7.5586   7.5586   8.6443
     8.6443   9.1460   9.4356   9.5898   9.5898   9.7630  10.1194  10.1194
    10.6573  10.6573  10.8111  11.4832  11.4832  11.5581  12.2917  12.2917
    14.2647  14.2647  15.9088  15.9088  16.8779  17.4786

     occupation numbers 
     0.0625   0.0625   0.0625   0.0625   0.0625   0.0625   0.0625   0.0625
     0.0625   0.0625   0.0625   0.0625   0.0625   0.0625   0.0625   0.0625
     0.0625   0.0625   0.0625   0.0625   0.0625   0.0625   0.0625   0.0625
     0.0625   0.0625   0.0625   0.0625   0.0625   0.0625   0.0625   0.0625
     0.0625   0.0625   0.0625   0.0571   0.0571   0.0541   0.0047   0.0047
     0.0000   0.0000   0.0000   0.0000   0.0000   0.0000

          k = 0.7412 0.4280 0.0000 (  2204 PWs)   bands (ev):

   -19.7410 -19.6891  -6.7331  -6.6039  -6.1453  -5.8323  -5.6839  -5.5494
    -3.1773  -3.0920  -3.0453  -2.6770  -2.6576  -2.5857   5.9105   6.4752
     6.7992   7.0919   7.1689   7.2711   7.3776   7.4734   7.6784   7.8667
     8.2027   8.7919   9.1493   9.4653   9.5679   9.6760   9.8361  10.2154
    10.8801  10.9963  11.0255  11.2465  11.2669  11.4052  12.2335  13.2369
    13.3048  14.1735  16.6862  16.7215  17.5895  17.7918

     occupation numbers 
     0.0625   0.0625   0.0625   0.0625   0.0625   0.0625   0.0625   0.0625
     0.0625   0.0625   0.0625   0.0625   0.0625   0.0625   0.0625   0.0625
     0.0625   0.0625   0.0625   0.0625   0.0625   0.0625   0.0625   0.0625
     0.0625   0.0625   0.0625   0.0625   0.0625   0.0625   0.0625   0.0625
     0.0625   0.0624   0.0624   0.0616   0.0614   0.0593   0.0068   0.0000
     0.0000   0.0000   0.0000   0.0000   0.0000   0.0000

          k = 0.4942 0.2853 0.1027 (  2211 PWs)   bands (ev):

   -19.7312 -19.6992  -6.9724  -6.5438  -6.3231  -5.7002  -5.6247  -5.3598
    -3.3200  -3.1654  -3.0330  -2.6036  -2.5627  -2.3789   5.9123   6.1940
     6.5377   6.9477   7.2000   7.2052   7.4526   7.6136   7.7367   7.8215
     8.1873   8.8380   9.0263   9.3863   9.4579   9.6553   9.9930  10.3344
    10.6023  11.1060  11.2418  11.2501  11.2991  11.3238  12.2631  12.7487
    13.4667  14.3343  16.8830  16.9328  17.5784  17.9252

     occupation numbers 
     0.0625   0.0625   0.0625   0.0625   0.0625   0.0625   0.0625   0.0625
     0.0625   0.0625   0.0625   0.0625   0.0625   0.0625   0.0625   0.0625
     0.0625   0.0625   0.0625   0.0625   0.0625   0.0625   0.0625   0.0625
     0.0625   0.0625   0.0625   0.0625   0.0625   0.0625   0.0625   0.0625
     0.0625   0.0623   0.0616   0.0616   0.0611   0.0608   0.0056   0.0001
     0.0000   0.0000   0.0000   0.0000   0.0000   0.0000

          k = 0.7412-0.4280-0.3080 (  2210 PWs)   bands (ev):

   -19.7309 -19.6997  -6.9088  -6.4524  -6.3011  -5.7973  -5.7624  -5.4869
    -3.0710  -3.0536  -2.9644  -2.7304  -2.6234  -2.4288   5.9795   6.3382
     6.5995   6.9260   7.1858   7.2526   7.4858   7.6363   7.7750   7.8475
     8.1625   8.8419   8.8938   9.4467   9.4999   9.5022   9.6464  10.1868
    10.6857  11.1175  11.2156  11.2396  11.3582  11.3899  12.2220  12.7000
    13.4152  14.3041  17.0576  17.0663  17.5469  17.9009

     occupation numbers 
     0.0625   0.0625   0.0625   0.0625   0.0625   0.0625   0.0625   0.0625
     0.0625   0.0625   0.0625   0.0625   0.0625   0.0625   0.0625   0.0625
     0.0625   0.0625   0.0625   0.0625   0.0625   0.0625   0.0625   0.0625
     0.0625   0.0625   0.0625   0.0625   0.0625   0.0625   0.0625   0.0625
     0.0625   0.0622   0.0618   0.0616   0.0602   0.0596   0.0072   0.0001
     0.0000   0.0000   0.0000   0.0000   0.0000   0.0000

          k = 0.4942-0.5706-0.2053 (  2206 PWs)   bands (ev):

   -19.7155 -19.7155  -6.8874  -6.8759  -6.0361  -6.0347  -5.4293  -5.4285
    -3.1529  -3.1526  -2.8147  -2.8140  -2.3851  -2.3824   6.0553   6.0662
     6.7304   6.7329   7.0709   7.0760   7.3726   7.3757   7.8775   7.9108
     8.7692   8.7732   8.8699   8.8749   9.5175   9.5199  10.0714  10.0718
    10.8925  10.8941  11.1102  11.1149  11.4161  11.4195  12.2788  12.2820
    13.9963  14.0056  17.4247  17.4252  17.8659  17.8682

     occupation numbers 
     0.0625   0.0625   0.0625   0.0625   0.0625   0.0625   0.0625   0.0625
     0.0625   0.0625   0.0625   0.0625   0.0625   0.0625   0.0625   0.0625
     0.0625   0.0625   0.0625   0.0625   0.0625   0.0625   0.0625   0.0625
     0.0625   0.0625   0.0625   0.0625   0.0625   0.0625   0.0625   0.0625
     0.0625   0.0625   0.0623   0.0622   0.0590   0.0590   0.0051   0.0050
     0.0000   0.0000   0.0000   0.0000   0.0000   0.0000

          k = 0.0000 0.0000-0.6160 (  2186 PWs)   bands (ev):

   -19.7154 -19.7154  -6.5156  -6.5000  -5.9423  -5.9421  -5.9393  -5.9391
    -2.8935  -2.8935  -2.8917  -2.8917  -2.7074  -2.7072   6.2644   6.2693
     7.1574   7.1575   7.1747   7.1747   7.5827   7.6090   7.8342   7.8342
     7.8612   7.8612   9.6125   9.6125   9.6199   9.6199   9.6829   9.6937
    11.1053  11.1174  11.1764  11.1764  11.1897  11.1897  13.2261  13.2261
    13.2592  13.2592  17.1149  17.1150  17.1170  17.1170

     occupation numbers 
     0.0313   0.0313   0.0313   0.0313   0.0313   0.0313   0.0313   0.0313
     0.0313   0.0313   0.0313   0.0313   0.0313   0.0313   0.0313   0.0313
     0.0313   0.0313   0.0313   0.0313   0.0313   0.0313   0.0313   0.0313
     0.0313   0.0313   0.0312   0.0312   0.0312   0.0312   0.0312   0.0312
     0.0311   0.0311   0.0310   0.0310   0.0310   0.0310   0.0000   0.0000
     0.0000   0.0000   0.0000   0.0000   0.0000   0.0000

          k =-0.2471 0.1427-0.1027 (  2181 PWs)   bands (ev):

   -19.7724 -19.6553  -6.7278  -6.2920  -5.9459  -5.8517  -5.6138  -5.4814
    -3.5988  -3.3947  -2.9349  -2.9062  -2.8523  -2.7620   5.5470   6.8594
     6.9632   6.9802   7.0225   7.4040   7.4371   7.5204   7.6225   8.4318
     8.4807   9.0703   9.6356   9.7496   9.7732   9.9994  10.3445  10.3545
    10.5308  10.5327  10.6612  11.4481  11.5154  11.5545  12.3172  12.3859
    14.3034  14.3124  15.8140  16.0679  16.9712  17.2651

     occupation numbers 
     0.0625   0.0625   0.0625   0.0625   0.0625   0.0625   0.0625   0.0625
     0.0625   0.0625   0.0625   0.0625   0.0625   0.0625   0.0625   0.0625
     0.0625   0.0625   0.0625   0.0625   0.0625   0.0625   0.0625   0.0625
     0.0625   0.0625   0.0625   0.0625   0.0625   0.0625   0.0625   0.0625
     0.0625   0.0625   0.0625   0.0582   0.0559   0.0542   0.0040   0.0024
     0.0000   0.0000   0.0000   0.0000   0.0000   0.0000

          k = 0.0000 0.2853 0.1027 (  2181 PWs)   bands (ev):

   -19.7724 -19.6553  -6.7278  -6.2920  -5.9459  -5.8517  -5.6138  -5.4815
    -3.5988  -3.3947  -2.9349  -2.9062  -2.8523  -2.7620   5.5470   6.8594
     6.9632   6.9802   7.0225   7.4040   7.4371   7.5204   7.6225   8.4318
     8.4807   9.0703   9.6356   9.7496   9.7732   9.9993  10.3445  10.3545
    10.5308  10.5327  10.6612  11.4481  11.5154  11.5545  12.3172  12.3859
    14.3034  14.3124  15.8140  16.0679  16.9712  17.2651

     occupation numbers 
     0.0625   0.0625   0.0625   0.0625   0.0625   0.0625   0.0625   0.0625
     0.0625   0.0625   0.0625   0.0625   0.0625   0.0625   0.0625   0.0625
     0.0625   0.0625   0.0625   0.0625   0.0625   0.0625   0.0625   0.0625
     0.0625   0.0625   0.0625   0.0625   0.0625   0.0625   0.0625   0.0625
     0.0625   0.0625   0.0625   0.0582   0.0559   0.0542   0.0040   0.0024
     0.0000   0.0000   0.0000   0.0000   0.0000   0.0000

          k = 0.4942-0.2853 0.2053 (  2202 PWs)   bands (ev):

   -19.7152 -19.7152  -6.7275  -6.7151  -5.9627  -5.9609  -5.5247  -5.5217
    -3.3846  -3.3818  -2.7927  -2.7909  -2.5089  -2.5070   6.0332   6.0372
     7.1393   7.1555   7.2118   7.2276   7.4867   7.5120   7.6924   7.7164
     7.9056   7.9329   9.4731   9.4777   9.8621   9.8692  10.2694  10.2791
    10.9215  10.9335  11.0467  11.0597  11.2702  11.2836  13.2856  13.3194
    13.3702  13.4041  16.8312  16.8361  17.1296  17.1330

     occupation numbers 
     0.0313   0.0313   0.0313   0.0313   0.0313   0.0313   0.0313   0.0313
     0.0313   0.0313   0.0313   0.0313   0.0313   0.0313   0.0313   0.0313
     0.0313   0.0313   0.0313   0.0313   0.0313   0.0313   0.0313   0.0313
     0.0313   0.0313   0.0313   0.0313   0.0312   0.0312   0.0312   0.0312
     0.0312   0.0312   0.0312   0.0312   0.0307   0.0306   0.0000   0.0000
     0.0000   0.0000   0.0000   0.0000   0.0000   0.0000

          k = 0.0000-0.5706-0.2053 (  2202 PWs)   bands (ev):

   -19.7152 -19.7152  -6.7275  -6.7151  -5.9626  -5.9610  -5.5248  -5.5216
    -3.3846  -3.3818  -2.7927  -2.7909  -2.5089  -2.5070   6.0332   6.0371
     7.1393   7.1555   7.2118   7.2276   7.4868   7.5120   7.6925   7.7164
[...]
     0.0625   0.0625   0.0625   0.0625   0.0625   0.0625   0.0625   0.0625
     0.0625   0.0625   0.0625   0.0625   0.0625   0.0625   0.0625   0.0625
     0.0625   0.0624   0.0622   0.0622   0.0575   0.0546   0.0240   0.0001
     0.0000   0.0000   0.0000   0.0000   0.0000   0.0000

          k = 0.4942-0.5706 0.1027 (  2198 PWs)   bands (ev):

   -19.7308 -19.6996  -6.9567  -6.6460  -6.1313  -5.8919  -5.5151  -5.3850
    -3.3071  -3.2543  -2.8780  -2.7081  -2.5293  -2.3858   5.8779   6.2252
     6.5784   6.9555   7.1676   7.3147   7.4322   7.6046   7.6455   7.8513
     8.1503   8.7639   9.0228   9.2865   9.5965   9.7971   9.9079  10.3426
    10.5753  11.0404  11.1586  11.2272  11.3671  11.4345  12.3087  12.7336
    13.4203  14.3525  16.9043  17.1092  17.3076  18.0132

     occupation numbers 
     0.0625   0.0625   0.0625   0.0625   0.0625   0.0625   0.0625   0.0625
     0.0625   0.0625   0.0625   0.0625   0.0625   0.0625   0.0625   0.0625
     0.0625   0.0625   0.0625   0.0625   0.0625   0.0625   0.0625   0.0625
     0.0625   0.0625   0.0625   0.0625   0.0625   0.0625   0.0625   0.0625
     0.0625   0.0624   0.0621   0.0617   0.0601   0.0586   0.0042   0.0001
     0.0000   0.0000   0.0000   0.0000   0.0000   0.0000

          k =-0.7412 0.1427-0.1027 (  2198 PWs)   bands (ev):

   -19.7308 -19.6996  -6.9562  -6.6469  -6.1302  -5.8930  -5.5142  -5.3857
    -3.3063  -3.2544  -2.8779  -2.7091  -2.5287  -2.3861   5.8799   6.2215
     6.5825   6.9546   7.1634   7.3162   7.4219   7.6174   7.6607   7.8341
     8.1507   8.7589   9.0268   9.2874   9.5989   9.7964   9.9083  10.3408
    10.5756  11.0442  11.1534  11.2282  11.3633  11.4383  12.3089  12.7338
    13.4205  14.3527  16.9024  17.1121  17.3070  18.0129

     occupation numbers 
     0.0625   0.0625   0.0625   0.0625   0.0625   0.0625   0.0625   0.0625
     0.0625   0.0625   0.0625   0.0625   0.0625   0.0625   0.0625   0.0625
     0.0625   0.0625   0.0625   0.0625   0.0625   0.0625   0.0625   0.0625
     0.0625   0.0625   0.0625   0.0625   0.0625   0.0625   0.0625   0.0625
     0.0625   0.0624   0.0621   0.0617   0.0601   0.0585   0.0042   0.0001
     0.0000   0.0000   0.0000   0.0000   0.0000   0.0000

          k = 0.2471-0.7133-0.1027 (  2198 PWs)   bands (ev):

   -19.7308 -19.6996  -6.9562  -6.6469  -6.1302  -5.8930  -5.5141  -5.3857
    -3.3063  -3.2544  -2.8779  -2.7091  -2.5287  -2.3861   5.8799   6.2215
     6.5825   6.9546   7.1634   7.3162   7.4219   7.6174   7.6607   7.8341
     8.1508   8.7589   9.0268   9.2874   9.5989   9.7964   9.9083  10.3408
    10.5756  11.0442  11.1534  11.2282  11.3633  11.4383  12.3089  12.7338
    13.4205  14.3527  16.9024  17.1121  17.3070  18.0129

     occupation numbers 
     0.0625   0.0625   0.0625   0.0625   0.0625   0.0625   0.0625   0.0625
     0.0625   0.0625   0.0625   0.0625   0.0625   0.0625   0.0625   0.0625
     0.0625   0.0625   0.0625   0.0625   0.0625   0.0625   0.0625   0.0625
     0.0625   0.0625   0.0625   0.0625   0.0625   0.0625   0.0625   0.0625
     0.0625   0.0624   0.0621   0.0617   0.0601   0.0585   0.0042   0.0001
     0.0000   0.0000   0.0000   0.0000   0.0000   0.0000

          k =-0.7412-0.1427 0.1027 (  2198 PWs)   bands (ev):

   -19.7308 -19.6996  -6.9567  -6.6460  -6.1313  -5.8919  -5.5151  -5.3850
    -3.3071  -3.2543  -2.8780  -2.7081  -2.5293  -2.3858   5.8779   6.2252
     6.5784   6.9555   7.1676   7.3147   7.4322   7.6046   7.6455   7.8513
     8.1503   8.7639   9.0228   9.2864   9.5965   9.7971   9.9079  10.3426
    10.5753  11.0404  11.1586  11.2272  11.3671  11.4345  12.3087  12.7336
    13.4203  14.3525  16.9043  17.1092  17.3076  18.0132

     occupation numbers 
     0.0625   0.0625   0.0625   0.0625   0.0625   0.0625   0.0625   0.0625
     0.0625   0.0625   0.0625   0.0625   0.0625   0.0625   0.0625   0.0625
     0.0625   0.0625   0.0625   0.0625   0.0625   0.0625   0.0625   0.0625
     0.0625   0.0625   0.0625   0.0625   0.0625   0.0625   0.0625   0.0625
     0.0625   0.0624   0.0621   0.0617   0.0601   0.0586   0.0042   0.0001
     0.0000   0.0000   0.0000   0.0000   0.0000   0.0000

          k = 0.2471 0.7133 0.1027 (  2198 PWs)   bands (ev):

   -19.7308 -19.6996  -6.9566  -6.6461  -6.1312  -5.8921  -5.5152  -5.3849
    -3.3071  -3.2543  -2.8780  -2.7081  -2.5293  -2.3857   5.8779   6.2252
     6.5784   6.9555   7.1676   7.3147   7.4322   7.6046   7.6455   7.8513
     8.1503   8.7639   9.0228   9.2865   9.5965   9.7971   9.9079  10.3426
    10.5753  11.0404  11.1586  11.2272  11.3671  11.4345  12.3087  12.7336
    13.4203  14.3525  16.9043  17.1092  17.3076  18.0132

     occupation numbers 
     0.0625   0.0625   0.0625   0.0625   0.0625   0.0625   0.0625   0.0625
     0.0625   0.0625   0.0625   0.0625   0.0625   0.0625   0.0625   0.0625
     0.0625   0.0625   0.0625   0.0625   0.0625   0.0625   0.0625   0.0625
     0.0625   0.0625   0.0625   0.0625   0.0625   0.0625   0.0625   0.0625
     0.0625   0.0624   0.0621   0.0617   0.0601   0.0586   0.0042   0.0001
     0.0000   0.0000   0.0000   0.0000   0.0000   0.0000

          k = 0.2471-0.4280 0.0000 (  2203 PWs)   bands (ev):

   -19.7415 -19.6884  -6.8475  -6.6401  -6.0516  -5.9809  -5.4407  -5.3712
    -3.5208  -3.2943  -2.8018  -2.7101  -2.5702  -2.5609   5.8705   6.2611
     6.8250   7.0635   7.1543   7.2387   7.4067   7.4810   7.5495   7.9164
     8.1509   8.9153   9.1273   9.3913   9.7546   9.7716  10.0515  10.3465
    10.8856  10.9150  10.9929  11.1785  11.2063  11.5345  12.2314  13.3143
    13.3890  14.1479  16.4333  16.9904  17.4186  17.9236

     occupation numbers 
     0.0625   0.0625   0.0625   0.0625   0.0625   0.0625   0.0625   0.0625
     0.0625   0.0625   0.0625   0.0625   0.0625   0.0625   0.0625   0.0625
     0.0625   0.0625   0.0625   0.0625   0.0625   0.0625   0.0625   0.0625
     0.0625   0.0625   0.0625   0.0625   0.0625   0.0625   0.0625   0.0625
     0.0625   0.0625   0.0624   0.0620   0.0619   0.0551   0.0068   0.0000
     0.0000   0.0000   0.0000   0.0000   0.0000   0.0000

          k =-0.4942 0.0000 0.0000 (  2203 PWs)   bands (ev):

   -19.7415 -19.6884  -6.8475  -6.6401  -6.0516  -5.9809  -5.4407  -5.3712
    -3.5208  -3.2943  -2.8018  -2.7101  -2.5702  -2.5609   5.8705   6.2611
     6.8250   7.0635   7.1543   7.2387   7.4067   7.4810   7.5495   7.9164
     8.1509   8.9153   9.1273   9.3913   9.7546   9.7716  10.0515  10.3465
    10.8856  10.9150  10.9929  11.1785  11.2063  11.5345  12.2314  13.3143
    13.3890  14.1479  16.4333  16.9904  17.4186  17.9236

     occupation numbers 
     0.0625   0.0625   0.0625   0.0625   0.0625   0.0625   0.0625   0.0625
     0.0625   0.0625   0.0625   0.0625   0.0625   0.0625   0.0625   0.0625
     0.0625   0.0625   0.0625   0.0625   0.0625   0.0625   0.0625   0.0625
     0.0625   0.0625   0.0625   0.0625   0.0625   0.0625   0.0625   0.0625
     0.0625   0.0625   0.0624   0.0620   0.0619   0.0551   0.0068   0.0000
     0.0000   0.0000   0.0000   0.0000   0.0000   0.0000

          k = 0.4942 0.2853 0.4107 (  2202 PWs)   bands (ev):

   -19.7333 -19.6970  -7.1675  -6.4544  -6.2398  -5.9684  -5.5321  -5.2932
    -3.1948  -3.1214  -3.0459  -2.6507  -2.4816  -2.2234   5.7869   6.1003
     6.2350   6.8532   7.1474   7.2563   7.5536   7.6513   8.1595   8.2324
     8.2422   8.3088   8.5991   9.4121   9.6724   9.8531  10.0294  10.0649
    10.4252  10.9385  11.1057  11.2657  11.3982  11.5678  11.8909  12.4211
    13.3220  14.7884  17.0402  17.2624  17.5177  17.6088

     occupation numbers 
     0.0313   0.0313   0.0313   0.0313   0.0313   0.0313   0.0313   0.0313
     0.0313   0.0313   0.0313   0.0313   0.0313   0.0313   0.0313   0.0313
     0.0313   0.0313   0.0313   0.0313   0.0313   0.0313   0.0313   0.0313
     0.0313   0.0313   0.0313   0.0313   0.0312   0.0312   0.0312   0.0312
     0.0312   0.0312   0.0311   0.0307   0.0297   0.0268   0.0150   0.0009
     0.0000   0.0000   0.0000   0.0000   0.0000   0.0000

          k = 0.0000 0.5706-0.4107 (  2202 PWs)   bands (ev):

   -19.7333 -19.6970  -7.1675  -6.4544  -6.2398  -5.9684  -5.5322  -5.2932
    -3.1948  -3.1214  -3.0459  -2.6507  -2.4816  -2.2234   5.7869   6.1003
     6.2350   6.8532   7.1474   7.2563   7.5536   7.6513   8.1595   8.2324
     8.2423   8.3088   8.5991   9.4121   9.6724   9.8531  10.0294  10.0649
    10.4252  10.9385  11.1057  11.2657  11.3982  11.5678  11.8909  12.4211
    13.3220  14.7884  17.0402  17.2624  17.5177  17.6088

     occupation numbers 
     0.0313   0.0313   0.0313   0.0313   0.0313   0.0313   0.0313   0.0313
     0.0313   0.0313   0.0313   0.0313   0.0313   0.0313   0.0313   0.0313
     0.0313   0.0313   0.0313   0.0313   0.0313   0.0313   0.0313   0.0313
     0.0313   0.0313   0.0313   0.0313   0.0312   0.0312   0.0312   0.0312
     0.0312   0.0312   0.0311   0.0307   0.0297   0.0268   0.0150   0.0009
     0.0000   0.0000   0.0000   0.0000   0.0000   0.0000

          k = 0.7412-0.4280 0.0000 (  2204 PWs)   bands (ev):

   -19.7410 -19.6891  -6.7332  -6.6038  -6.1454  -5.8323  -5.6839  -5.5492
    -3.1773  -3.0921  -3.0453  -2.6770  -2.6576  -2.5857   5.9106   6.4752
     6.7992   7.0919   7.1688   7.2711   7.3776   7.4734   7.6784   7.8667
     8.2027   8.7919   9.1493   9.4653   9.5679   9.6760   9.8361  10.2154
    10.8801  10.9963  11.0255  11.2465  11.2669  11.4052  12.2335  13.2369
    13.3048  14.1735  16.6862  16.7215  17.5894  17.7918

     occupation numbers 
     0.0625   0.0625   0.0625   0.0625   0.0625   0.0625   0.0625   0.0625
     0.0625   0.0625   0.0625   0.0625   0.0625   0.0625   0.0625   0.0625
     0.0625   0.0625   0.0625   0.0625   0.0625   0.0625   0.0625   0.0625
     0.0625   0.0625   0.0625   0.0625   0.0625   0.0625   0.0625   0.0625
     0.0625   0.0624   0.0624   0.0616   0.0614   0.0593   0.0068   0.0000
     0.0000   0.0000   0.0000   0.0000   0.0000   0.0000

          k = 0.0000-0.8559 0.0000 (  2204 PWs)   bands (ev):

   -19.7410 -19.6891  -6.7331  -6.6039  -6.1453  -5.8323  -5.6839  -5.5494
    -3.1773  -3.0920  -3.0453  -2.6770  -2.6576  -2.5857   5.9106   6.4752
     6.7992   7.0919   7.1689   7.2711   7.3776   7.4734   7.6784   7.8667
     8.2027   8.7919   9.1493   9.4653   9.5679   9.6760   9.8361  10.2154
    10.8801  10.9963  11.0255  11.2465  11.2669  11.4052  12.2335  13.2369
    13.3048  14.1735  16.6862  16.7215  17.5895  17.7918

     occupation numbers 
     0.0625   0.0625   0.0625   0.0625   0.0625   0.0625   0.0625   0.0625
     0.0625   0.0625   0.0625   0.0625   0.0625   0.0625   0.0625   0.0625
     0.0625   0.0625   0.0625   0.0625   0.0625   0.0625   0.0625   0.0625
     0.0625   0.0625   0.0625   0.0625   0.0625   0.0625   0.0625   0.0625
     0.0625   0.0624   0.0624   0.0616   0.0614   0.0593   0.0068   0.0000
     0.0000   0.0000   0.0000   0.0000   0.0000   0.0000

          k = 0.4942-0.2853-0.1027 (  2211 PWs)   bands (ev):

   -19.7312 -19.6992  -6.9723  -6.5438  -6.3231  -5.7003  -5.6248  -5.3597
    -3.3200  -3.1654  -3.0330  -2.6036  -2.5627  -2.3789   5.9123   6.1940
     6.5377   6.9477   7.2000   7.2052   7.4526   7.6135   7.7367   7.8215
     8.1873   8.8380   9.0263   9.3863   9.4579   9.6553   9.9930  10.3344
    10.6023  11.1060  11.2418  11.2501  11.2991  11.3238  12.2631  12.7487
    13.4667  14.3343  16.8830  16.9328  17.5784  17.9252

     occupation numbers 
     0.0625   0.0625   0.0625   0.0625   0.0625   0.0625   0.0625   0.0625
     0.0625   0.0625   0.0625   0.0625   0.0625   0.0625   0.0625   0.0625
     0.0625   0.0625   0.0625   0.0625   0.0625   0.0625   0.0625   0.0625
     0.0625   0.0625   0.0625   0.0625   0.0625   0.0625   0.0625   0.0625
     0.0625   0.0623   0.0616   0.0616   0.0611   0.0608   0.0056   0.0001
     0.0000   0.0000   0.0000   0.0000   0.0000   0.0000

          k = 0.0000-0.5706 0.1027 (  2211 PWs)   bands (ev):

   -19.7312 -19.6992  -6.9724  -6.5438  -6.3231  -5.7002  -5.6247  -5.3598
    -3.3200  -3.1654  -3.0330  -2.6036  -2.5627  -2.3789   5.9123   6.1940
     6.5377   6.9477   7.2000   7.2052   7.4526   7.6136   7.7367   7.8215
     8.1873   8.8380   9.0263   9.3863   9.4579   9.6553   9.9930  10.3344
    10.6023  11.1060  11.2418  11.2501  11.2991  11.3238  12.2631  12.7487
    13.4667  14.3343  16.8830  16.9328  17.5784  17.9252

     occupation numbers 
     0.0625   0.0625   0.0625   0.0625   0.0625   0.0625   0.0625   0.0625
     0.0625   0.0625   0.0625   0.0625   0.0625   0.0625   0.0625   0.0625
     0.0625   0.0625   0.0625   0.0625   0.0625   0.0625   0.0625   0.0625
     0.0625   0.0625   0.0625   0.0625   0.0625   0.0625   0.0625   0.0625
     0.0625   0.0623   0.0616   0.0616   0.0611   0.0608   0.0056   0.0001
     0.0000   0.0000   0.0000   0.0000   0.0000   0.0000

          k = 0.7412 0.4280 0.3080 (  2210 PWs)   bands (ev):

   -19.7309 -19.6997  -6.9089  -6.4524  -6.3011  -5.7972  -5.7622  -5.4870
    -3.0710  -3.0536  -2.9644  -2.7304  -2.6234  -2.4289   5.9795   6.3382
     6.5995   6.9260   7.1858   7.2526   7.4858   7.6363   7.7750   7.8475
     8.1625   8.8419   8.8937   9.4467   9.4999   9.5022   9.6463  10.1868
    10.6857  11.1175  11.2156  11.2396  11.3582  11.3899  12.2220  12.7001
    13.4152  14.3041  17.0576  17.0663  17.5469  17.9009

     occupation numbers 
     0.0625   0.0625   0.0625   0.0625   0.0625   0.0625   0.0625   0.0625
     0.0625   0.0625   0.0625   0.0625   0.0625   0.0625   0.0625   0.0625
     0.0625   0.0625   0.0625   0.0625   0.0625   0.0625   0.0625   0.0625
     0.0625   0.0625   0.0625   0.0625   0.0625   0.0625   0.0625   0.0625
     0.0625   0.0622   0.0618   0.0616   0.0602   0.0596   0.0072   0.0001
     0.0000   0.0000   0.0000   0.0000   0.0000   0.0000

          k = 0.0000 0.8559-0.3080 (  2210 PWs)   bands (ev):

   -19.7309 -19.6997  -6.9089  -6.4524  -6.3011  -5.7972  -5.7622  -5.4870
    -3.0710  -3.0536  -2.9644  -2.7304  -2.6234  -2.4289   5.9795   6.3382
     6.5995   6.9260   7.1858   7.2526   7.4858   7.6363   7.7750   7.8475
     8.1625   8.8419   8.8937   9.4467   9.4999   9.5022   9.6464  10.1868
    10.6857  11.1175  11.2156  11.2396  11.3582  11.3899  12.2220  12.7001
    13.4152  14.3041  17.0576  17.0663  17.5469  17.9009

     occupation numbers 
     0.0625   0.0625   0.0625   0.0625   0.0625   0.0625   0.0625   0.0625
     0.0625   0.0625   0.0625   0.0625   0.0625   0.0625   0.0625   0.0625
     0.0625   0.0625   0.0625   0.0625   0.0625   0.0625   0.0625   0.0625
     0.0625   0.0625   0.0625   0.0625   0.0625   0.0625   0.0625   0.0625
     0.0625   0.0622   0.0618   0.0616   0.0602   0.0596   0.0072   0.0001
     0.0000   0.0000   0.0000   0.0000   0.0000   0.0000

          k = 0.2471 0.7133-0.2053 (  2206 PWs)   bands (ev):

   -19.7155 -19.7155  -6.8874  -6.8759  -6.0361  -6.0347  -5.4293  -5.4285
    -3.1529  -3.1526  -2.8147  -2.8140  -2.3851  -2.3825   6.0553   6.0662
     6.7304   6.7329   7.0708   7.0760   7.3727   7.3757   7.8775   7.9108
     8.7692   8.7732   8.8699   8.8749   9.5175   9.5199  10.0714  10.0718
    10.8925  10.8941  11.1102  11.1149  11.4161  11.4195  12.2788  12.2820
    13.9963  14.0056  17.4247  17.4252  17.8659  17.8682

     occupation numbers 
     0.0625   0.0625   0.0625   0.0625   0.0625   0.0625   0.0625   0.0625
     0.0625   0.0625   0.0625   0.0625   0.0625   0.0625   0.0625   0.0625
     0.0625   0.0625   0.0625   0.0625   0.0625   0.0625   0.0625   0.0625
     0.0625   0.0625   0.0625   0.0625   0.0625   0.0625   0.0625   0.0625
     0.0625   0.0625   0.0623   0.0622   0.0590   0.0590   0.0051   0.0050
     0.0000   0.0000   0.0000   0.0000   0.0000   0.0000

          k =-0.7412-0.1427-0.2053 (  2206 PWs)   bands (ev):

   -19.7155 -19.7155  -6.8875  -6.8760  -6.0360  -6.0346  -5.4294  -5.4286
    -3.1529  -3.1526  -2.8147  -2.8139  -2.3852  -2.3825   6.0553   6.0662
     6.7304   6.7329   7.0709   7.0760   7.3726   7.3757   7.8775   7.9108
     8.7693   8.7732   8.8699   8.8748   9.5175   9.5199  10.0714  10.0718
    10.8925  10.8941  11.1102  11.1149  11.4161  11.4195  12.2788  12.2820
    13.9963  14.0056  17.4247  17.4252  17.8659  17.8682

     occupation numbers 
     0.0625   0.0625   0.0625   0.0625   0.0625   0.0625   0.0625   0.0625
     0.0625   0.0625   0.0625   0.0625   0.0625   0.0625   0.0625   0.0625
     0.0625   0.0625   0.0625   0.0625   0.0625   0.0625   0.0625   0.0625
     0.0625   0.0625   0.0625   0.0625   0.0625   0.0625   0.0625   0.0625
     0.0625   0.0625   0.0623   0.0622   0.0590   0.0590   0.0051   0.0050
     0.0000   0.0000   0.0000   0.0000   0.0000   0.0000

     the Fermi energy is    11.8766 ev

!    total energy              =    -538.15608717 Ry
     Harris-Foulkes estimate   =    -538.15607372 Ry
     estimated scf accuracy    <          3.4E-09 Ry

     The total energy is the sum of the following terms:

     one-electron contribution =     -32.91666055 Ry
     hartree contribution      =      83.65770456 Ry
     xc contribution           =    -199.59662388 Ry
     ewald contribution        =    -389.44315552 Ry
     Hubbard energy            =       0.16436223 Ry
     smearing contrib. (-TS)   =      -0.02171402 Ry

     convergence has been achieved in  11 iterations

     init_run     :      7.02s CPU      7.15s WALL (       1 calls)
     electrons    :    378.34s CPU    380.85s WALL (       1 calls)

     Called by init_run:
     wfcinit      :      0.00s CPU      0.00s WALL (       1 calls)
     potinit      :      0.30s CPU      0.35s WALL (       1 calls)

     Called by electrons:
     c_bands      :    291.89s CPU    292.94s WALL (      11 calls)
     sum_band     :     62.04s CPU     62.54s WALL (      11 calls)
     v_of_rho     :      3.21s CPU      3.22s WALL (      12 calls)
     v_h          :      0.19s CPU      0.20s WALL (      12 calls)
     v_xc         :      3.01s CPU      3.03s WALL (      12 calls)
     newd         :     22.27s CPU     22.29s WALL (      12 calls)
     mix_rho      :      0.35s CPU      0.36s WALL (      11 calls)

     Called by c_bands:
     init_us_2    :      3.00s CPU      3.00s WALL (     792 calls)
     cegterg      :    283.46s CPU    283.96s WALL (     396 calls)

     Called by sum_band:
     sum_band:bec :      0.31s CPU      0.30s WALL (     396 calls)
     addusdens    :     13.41s CPU     13.42s WALL (      11 calls)

     Called by *egterg:
     h_psi        :    208.60s CPU    209.03s WALL (    1522 calls)
     s_psi        :     11.81s CPU     11.81s WALL (    1522 calls)
     g_psi        :      0.96s CPU      0.96s WALL (    1126 calls)
     cdiaghg      :     25.06s CPU     25.11s WALL (    1486 calls)
     cegterg:over :     13.71s CPU     13.74s WALL (    1126 calls)
     cegterg:upda :      9.27s CPU      9.26s WALL (    1126 calls)
     cegterg:last :      5.80s CPU      5.80s WALL (     437 calls)

     Called by h_psi:
     h_psi:vloc   :    170.97s CPU    171.33s WALL (    1522 calls)
     h_psi:vnl    :     23.77s CPU     23.82s WALL (    1522 calls)
     add_vuspsi   :     11.79s CPU     11.81s WALL (    1522 calls)
     vhpsi        :     13.34s CPU     13.37s WALL (    1522 calls)

     General routines
     calbec       :     25.00s CPU     25.03s WALL (    3836 calls)
     fft          :      2.25s CPU      2.25s WALL (     187 calls)
     ffts         :      0.07s CPU      0.06s WALL (      23 calls)
     fftw         :    162.08s CPU    162.13s WALL (  112236 calls)
     interpolate  :      0.38s CPU      0.38s WALL (      23 calls)
     davcio       :      0.01s CPU      0.92s WALL (     828 calls)

     Parallel routines
     fft_scatter  :     42.44s CPU     42.59s WALL (  112446 calls)
     Hubbard U routines
     new_ns       :      2.49s CPU      2.89s WALL (      11 calls)
     vhpsi        :     13.34s CPU     13.37s WALL (    1522 calls)

     PWSCF        :  6m25.78s CPU     6m28.50s WALL


   This run was terminated on:  15:17: 5  11Nov2012            

=------------------------------------------------------------------------------=
