   JOB DONE.
=------------------------------------------------------------------------------=

     Program PWSCF v.5.0.1 starts on 11Nov2012 at 15: 4: 6 

     This program is part of the open-source Quantum ESPRESSO suite
     for quantum simulation of materials; please cite
         "P. Giannozzi et al., J. Phys.:Condens. Matter 21 395502 (2009);
          URL http://www.quantum-espresso.org", 
     in publications or presentations arising from this work. More details at
     http://www.quantum-espresso.org/quote.php

     Parallel version (MPI), running on     2 processors
     R & G space division:  proc/pool =    2

     Current dimensions of program PWSCF are:
     Max number of different atomic species (ntypx) = 10
     Max number of k-points (npk) =  40000
     Max angular momentum in pseudopotentials (lmaxx) =  3
     Reading input from CoLaO_U200_a-5.in
               file Co.pbe-nd-rrkjus.UPF: wavefunction(s)  4S 3D renormalized
               file O.pbe-rrkjus.UPF: wavefunction(s)  2S renormalized
               file O.pbe-rrkjus.UPF: wavefunction(s)  2S renormalized

     Subspace diagonalization in iterative solution of the eigenvalue problem:
     a serial algorithm will be used


     Parallelization info
     --------------------
     sticks:   dense  smooth     PW     G-vecs:    dense   smooth      PW
     Min        1112     444    131                34808     8786    1448
     Max        1113     445    132                34809     8787    1449
     Sum        2225     889    263                69617    17573    2897


     Title: 
     GGA + U, U = 2.000, alpha = -0.050                                         


     bravais-lattice index     =            5
     lattice parameter (alat)  =      10.3292  a.u.
     unit-cell volume          =     793.0599 (a.u.)^3
     number of atoms/cell      =           10
     number of atomic types    =            4
     number of electrons       =        76.00
     number of Kohn-Sham states=           46
     kinetic-energy cutoff     =      30.0000  Ry
     charge density cutoff     =     300.0000  Ry
     convergence threshold     =      1.0E-08
     mixing beta               =       0.2000
     number of iterations used =            8  plain     mixing
     Exchange-correlation      =  SLA  PW   PBE  PBE ( 1 4 3 4 0)
     EXX-fraction              =        0.00

     celldm(1)=  10.329242  celldm(2)=   0.000000  celldm(3)=   0.000000
     celldm(4)=   0.488100  celldm(5)=   0.000000  celldm(6)=   0.000000

     crystal axes: (cart. coord. in units of alat)
               a(1) = (   0.505915  -0.292090   0.811624 )  
               a(2) = (   0.000000   0.584180   0.811624 )  
               a(3) = (  -0.505915  -0.292090   0.811624 )  

     reciprocal axes: (cart. coord. in units 2 pi/alat)
               b(1) = (  0.988308 -0.570600  0.410699 )  
               b(2) = (  0.000000  1.141200  0.410699 )  
               b(3) = ( -0.988308 -0.570600  0.410699 )  


     PseudoPot. # 1 for Co read from file:
     /home/mcurnan/dft-course/Project1/example_LaCoO3/Co.pbe-nd-rrkjus.UPF
     MD5 check sum: 3e47a84addf5e975e0edeaeee2a73f59
     Pseudo is Ultrasoft + core correction, Zval =  9.0
     Generated by new atomic code, or converted to UPF format
     Using radial grid of  961 points,  6 beta functions with: 
                l(1) =   0
                l(2) =   0
                l(3) =   1
                l(4) =   1
                l(5) =   2
                l(6) =   2
     Q(r) pseudized with 0 coefficients 


     PseudoPot. # 2 for La read from file:
     /home/mcurnan/dft-course/Project1/example_LaCoO3/La.pbe-nsp-van.UPF
     MD5 check sum: b2f11743f52dde65f77d1302becd7929
     Pseudo is Ultrasoft + core correction, Zval = 11.0
     Generated by new atomic code, or converted to UPF format
     Using radial grid of  907 points,  6 beta functions with: 
                l(1) =   0
                l(2) =   0
                l(3) =   1
                l(4) =   1
                l(5) =   2
                l(6) =   2
     Q(r) pseudized with  6 coefficients,  rinner =    1.200   1.200   1.200
                                                       1.200   1.200

     PseudoPot. # 3 for O  read from file:
     /home/mcurnan/dft-course/Project1/example_LaCoO3/O.pbe-rrkjus.UPF
     MD5 check sum: 390ba29e75625707450f3bd3f0eb6be9
     Pseudo is Ultrasoft, Zval =  6.0
     Generated by new atomic code, or converted to UPF format
     Using radial grid of 1269 points,  4 beta functions with: 
                l(1) =   0
                l(2) =   0
                l(3) =   1
                l(4) =   1
     Q(r) pseudized with 0 coefficients 


     PseudoPot. # 4 for O  read from file:
     /home/mcurnan/dft-course/Project1/example_LaCoO3/O.pbe-rrkjus.UPF
     MD5 check sum: 390ba29e75625707450f3bd3f0eb6be9
     Pseudo is Ultrasoft, Zval =  6.0
     Generated by new atomic code, or converted to UPF format
     Using radial grid of 1269 points,  4 beta functions with: 
                l(1) =   0
                l(2) =   0
                l(3) =   1
                l(4) =   1
     Q(r) pseudized with 0 coefficients 


     atomic species   valence    mass     pseudopotential
        Co1            9.00     1.00000     Co( 1.00)
        La1           11.00     1.00000     La( 1.00)
        O1             6.00     1.00000     O ( 1.00)
        O2             6.00     1.00000     O ( 1.00)
 -----
     simplified LDA+U calculation, Hubbard_lmax = 2
     atomic species  L   Hubbard U  Hubbard alpha
        Co1          2    2.000000    0.000000
        La1          2    0.000000    0.000000
        O1           1    0.000000   -0.050000
        O2           1    0.000000    0.000000
 -----

     No symmetry found


                                    s                        frac. trans.

      isym =  1     identity                                     

 cryst.   s( 1) = (     1          0          0      )
                  (     0          1          0      )
                  (     0          0          1      )

 cart.    s( 1) = (  1.0000000  0.0000000  0.0000000 )
                  (  0.0000000  1.0000000  0.0000000 )
                  (  0.0000000  0.0000000  1.0000000 )


     point group C_1 (1)    
     there are  1 classes
     the character table:

       E    
A      1.00

     the symmetry operations in each class:
     E        1

   Cartesian axes

     site n.     atom                  positions (alat units)
         1           Co1 tau(   1) = (   0.2228050  -0.1992639   1.0141240  )
         2           Co1 tau(   2) = (  -0.2831100   0.0928263   1.4199360  )
         3           La1 tau(   3) = (  -0.2831100   0.0928263   0.8112181  )
         4           La1 tau(   4) = (   0.2228050   0.3849164   1.2170300  )
         5           O1  tau(   5) = (   0.0000000   0.0000000   0.0000000  )
         6           O2  tau(   6) = (   0.0008601   0.1861491   1.6232478  )
         7           O2  tau(   7) = (   0.1616398   0.0923297   0.8116239  )
         8           O2  tau(   8) = (  -0.0603051  -0.1064377   1.2166242  )
         9           O2  tau(   9) = (   0.4447499  -0.0004966   1.2166242  )
        10           O2  tau(  10) = (  -0.2219449   0.3854130   1.2166242  )

   Crystallographic axes

     site n.     atom                  positions (cryst. coord.)
         1           Co1 tau(   1) = (  0.7504000  0.1891000  0.3100000  )
         2           Co1 tau(   2) = (  0.2504000  0.6891000  0.8100000  )
         3           La1 tau(   3) = (  0.0004000  0.4391000  0.5600000  )
         4           La1 tau(   4) = (  0.5004000  0.9391000  0.0600000  )
         5           O1  tau(   5) = (  0.0000000  0.0000000  0.0000000  )
         6           O2  tau(   6) = (  0.5613000  0.8791000  0.5596000  )
         7           O2  tau(   7) = (  0.4404000  0.4387000  0.1209000  )
         8           O2  tau(   8) = (  0.5008000  0.3782000  0.6200000  )
         9           O2  tau(   9) = (  0.9395000  0.4991000  0.0604000  )
        10           O2  tau(  10) = (  0.0604000  0.9395000  0.4991000  )

     number of k points=    36  gaussian smearing, width (Ry)=  0.0300
                       cart. coord. in units 2pi/alat
        k(    1) = (   0.0000000   0.0000000   0.0000000), wk =   0.0312500
        k(    2) = (  -0.2470771  -0.1426500   0.1026748), wk =   0.0625000
        k(    3) = (   0.4941541   0.2853000  -0.2053496), wk =   0.0312500
        k(    4) = (  -0.2470771   0.1426500   0.2053496), wk =   0.0625000
        k(    5) = (   0.4941541   0.5706001  -0.1026748), wk =   0.0625000
        k(    6) = (   0.2470771   0.4279500   0.0000000), wk =   0.0625000
        k(    7) = (   0.4941541  -0.2853000  -0.4106993), wk =   0.0312500
        k(    8) = (   0.0000000   0.0000000   0.3080244), wk =   0.0625000
        k(    9) = (   0.7412312   0.4279500   0.0000000), wk =   0.0625000
        k(   10) = (   0.4941541   0.2853000   0.1026748), wk =   0.0625000
        k(   11) = (   0.7412312  -0.4279500  -0.3080244), wk =   0.0625000
        k(   12) = (   0.4941541  -0.5706001  -0.2053496), wk =   0.0625000
        k(   13) = (   0.0000000   0.0000000  -0.6160489), wk =   0.0312500
        k(   14) = (  -0.2470771   0.1426500  -0.1026748), wk =   0.0625000
        k(   15) = (   0.0000000   0.2853000   0.1026748), wk =   0.0625000
        k(   16) = (   0.4941541  -0.2853000   0.2053496), wk =   0.0312500
        k(   17) = (   0.0000000  -0.5706001  -0.2053496), wk =   0.0312500
        k(   18) = (  -0.2470771  -0.1426500  -0.2053496), wk =   0.0625000
        k(   19) = (   0.0000000  -0.2853000   0.2053496), wk =   0.0625000
        k(   20) = (   0.4941541  -0.5706001   0.1026748), wk =   0.0625000
        k(   21) = (  -0.7412312   0.1426500  -0.1026748), wk =   0.0625000
        k(   22) = (   0.2470771  -0.7132501  -0.1026748), wk =   0.0625000
        k(   23) = (  -0.7412312  -0.1426500   0.1026748), wk =   0.0625000
        k(   24) = (   0.2470771   0.7132501   0.1026748), wk =   0.0625000
        k(   25) = (   0.2470771  -0.4279500   0.0000000), wk =   0.0625000
        k(   26) = (  -0.4941541   0.0000000   0.0000000), wk =   0.0625000
        k(   27) = (   0.4941541   0.2853000   0.4106993), wk =   0.0312500
        k(   28) = (   0.0000000   0.5706001  -0.4106993), wk =   0.0312500
        k(   29) = (   0.7412312  -0.4279500   0.0000000), wk =   0.0625000
        k(   30) = (   0.0000000  -0.8559001   0.0000000), wk =   0.0625000
        k(   31) = (   0.4941541  -0.2853000  -0.1026748), wk =   0.0625000
        k(   32) = (   0.0000000  -0.5706001   0.1026748), wk =   0.0625000
        k(   33) = (   0.7412312   0.4279500   0.3080244), wk =   0.0625000
        k(   34) = (   0.0000000   0.8559001  -0.3080244), wk =   0.0625000
        k(   35) = (   0.2470771   0.7132501  -0.2053496), wk =   0.0625000
        k(   36) = (  -0.7412312  -0.1426500  -0.2053496), wk =   0.0625000

                       cryst. coord.
        k(    1) = (   0.0000000   0.0000000   0.0000000), wk =   0.0312500
        k(    2) = (   0.0000000   0.0000000   0.2500000), wk =   0.0625000
        k(    3) = (   0.0000000   0.0000000  -0.5000000), wk =   0.0312500
        k(    4) = (   0.0000000   0.2500000   0.2500000), wk =   0.0625000
        k(    5) = (   0.0000000   0.2500000  -0.5000000), wk =   0.0625000
        k(    6) = (   0.0000000   0.2500000  -0.2500000), wk =   0.0625000
        k(    7) = (   0.0000000  -0.5000000  -0.5000000), wk =   0.0312500
        k(    8) = (   0.2500000   0.2500000   0.2500000), wk =   0.0625000
        k(    9) = (   0.2500000   0.2500000  -0.5000000), wk =   0.0625000
        k(   10) = (   0.2500000   0.2500000  -0.2500000), wk =   0.0625000
        k(   11) = (   0.2500000  -0.5000000  -0.5000000), wk =   0.0625000
        k(   12) = (   0.2500000  -0.5000000  -0.2500000), wk =   0.0625000
        k(   13) = (  -0.5000000  -0.5000000  -0.5000000), wk =   0.0312500
        k(   14) = (  -0.2500000   0.0000000   0.0000000), wk =   0.0625000
        k(   15) = (   0.0000000   0.2500000   0.0000000), wk =   0.0625000
        k(   16) = (   0.5000000   0.0000000   0.0000000), wk =   0.0312500
        k(   17) = (   0.0000000  -0.5000000   0.0000000), wk =   0.0312500
        k(   18) = (  -0.2500000  -0.2500000   0.0000000), wk =   0.0625000
        k(   19) = (   0.2500000   0.0000000   0.2500000), wk =   0.0625000
        k(   20) = (   0.5000000  -0.2500000   0.0000000), wk =   0.0625000
        k(   21) = (  -0.5000000   0.0000000   0.2500000), wk =   0.0625000
        k(   22) = (   0.2500000  -0.5000000   0.0000000), wk =   0.0625000
        k(   23) = (  -0.2500000   0.0000000   0.5000000), wk =   0.0625000
        k(   24) = (   0.0000000   0.5000000  -0.2500000), wk =   0.0625000
        k(   25) = (   0.2500000  -0.2500000   0.0000000), wk =   0.0625000
        k(   26) = (  -0.2500000   0.0000000   0.2500000), wk =   0.0625000
        k(   27) = (   0.5000000   0.5000000   0.0000000), wk =   0.0312500
        k(   28) = (  -0.5000000   0.0000000  -0.5000000), wk =   0.0312500
        k(   29) = (   0.5000000  -0.2500000  -0.2500000), wk =   0.0625000
        k(   30) = (   0.2500000  -0.5000000   0.2500000), wk =   0.0625000
        k(   31) = (   0.2500000  -0.2500000  -0.2500000), wk =   0.0625000
        k(   32) = (   0.2500000  -0.2500000   0.2500000), wk =   0.0625000
        k(   33) = (   0.5000000   0.5000000  -0.2500000), wk =   0.0625000
        k(   34) = (  -0.5000000   0.2500000  -0.5000000), wk =   0.0625000
        k(   35) = (  -0.2500000   0.2500000  -0.5000000), wk =   0.0625000
        k(   36) = (  -0.5000000  -0.2500000   0.2500000), wk =   0.0625000

     Dense  grid:    69617 G-vectors     FFT dimensions: (  60,  60,  60)

     Smooth grid:    17573 G-vectors     FFT dimensions: (  40,  40,  40)

     Largest allocated arrays     est. size (Mb)     dimensions
        Kohn-Sham Wavefunctions         0.79 Mb     (   1119,   46)
        Atomic wavefunctions            1.06 Mb     (   1119,   62)
        NL pseudopotentials             2.05 Mb     (   1119,  120)
        Each V/rho on FFT grid          1.65 Mb     ( 108000)
        Each G-vector array             0.27 Mb     (  34808)
        G-vector shells                 0.04 Mb     (   4682)
     Largest temporary arrays     est. size (Mb)     dimensions
        Auxiliary wavefunctions         3.14 Mb     (   1119,  184)
        Each subspace H/S matrix        0.52 Mb     ( 184, 184)
        Each <psi_i|beta_j> matrix      0.08 Mb     (    120,   46)
        Arrays for rho mixing          13.18 Mb     ( 108000,   8)

     Check: negative/imaginary core charge=   -0.000028    0.000000

     The initial density is read from file :
     /home/mcurnan/dft-course/Project1/example_LaCoO3/200/O/alpha/CoLaO_U200.save/charge-density.dat

 --- in v_hubbard ---
Hubbard energy    0.1714
 -------
     Number of +U iterations with fixed ns =  0
     Starting occupations:
 --- enter write_ns ---
 LDA+U parameters:
U( 1)     =  2.00000000
alpha( 1) =  0.00000000
U( 2)     =  0.00000000
alpha( 2) =  0.00000000
U( 3)     =  0.00000000
alpha( 3) = -0.05000000
U( 4)     =  0.00000000
alpha( 4) =  0.00000000
atom    1   Tr[ns(na)] =   8.02205
    eigenvalues: 
  0.596  0.596  0.938  0.941  0.941
    eigenvectors:
  0.000  0.000  1.000  0.000  0.000
  0.057  0.598  0.000  0.178  0.167
  0.598  0.057  0.000  0.167  0.178
  0.210  0.135  0.000  0.095  0.560
  0.135  0.210  0.000  0.560  0.095
    occupations:
  0.938  0.000  0.000  0.000  0.000
  0.000  0.715  0.000 -0.060  0.152
  0.000  0.000  0.715  0.152  0.060
  0.000 -0.060  0.152  0.822  0.000
  0.000  0.152  0.060  0.000  0.822
atom    2   Tr[ns(na)] =   8.02142
    eigenvalues: 
  0.595  0.595  0.938  0.941  0.941
    eigenvectors:
  0.000  0.000  1.000  0.000  0.000
  0.332  0.323  0.000  0.023  0.322
  0.323  0.332  0.000  0.322  0.023
  0.288  0.057  0.000  0.647  0.008
  0.057  0.288  0.000  0.008  0.647
    occupations:
  0.938  0.000  0.000  0.000  0.000
  0.000  0.715  0.000  0.060  0.153
  0.000  0.000  0.715  0.153 -0.060
  0.000  0.060  0.153  0.822  0.000
  0.000  0.153 -0.060  0.000  0.822
atom    3   Tr[ns(na)] =   3.80282
    eigenvalues: 
  0.355  0.355  0.384  0.403  0.403
    eigenvectors:
  0.000  0.000  1.000  0.000  0.000
  0.065  0.856  0.000  0.058  0.021
  0.856  0.065  0.000  0.021  0.058
  0.073  0.006  0.000  0.250  0.670
  0.006  0.073  0.000  0.670  0.250
    occupations:
  0.384  0.000  0.000  0.000  0.000
  0.000  0.359  0.000  0.000  0.013
  0.000  0.000  0.359  0.013  0.000
  0.000  0.000  0.013  0.399  0.000
  0.000  0.013  0.000  0.000  0.399
atom    4   Tr[ns(na)] =   3.80282
    eigenvalues: 
  0.355  0.355  0.384  0.403  0.403
    eigenvectors:
  0.000  0.000  1.000  0.000  0.000
  0.729  0.192  0.000  0.048  0.032
  0.192  0.729  0.000  0.032  0.048
  0.017  0.062  0.000  0.359  0.562
  0.062  0.017  0.000  0.562  0.359
    occupations:
  0.384  0.000  0.000  0.000  0.000
  0.000  0.359  0.000  0.000  0.013
  0.000  0.000  0.359  0.013  0.000
  0.000  0.000  0.013  0.399  0.000
  0.000  0.013  0.000  0.000  0.399
atom    5   Tr[ns(na)] =   5.43357
    eigenvalues: 
  0.846  0.929  0.941
    eigenvectors:
  0.340  0.000  0.660
  0.496  0.250  0.255
  0.164  0.750  0.086
    occupations:
  0.909 -0.039  0.022
 -0.039  0.891  0.022
  0.022  0.022  0.917
atom    6   Tr[ns(na)] =   5.43358
    eigenvalues: 
  0.846  0.929  0.941
    eigenvectors:
  0.340  0.000  0.660
  0.494  0.250  0.256
  0.166  0.750  0.085
    occupations:
  0.909  0.039  0.022
  0.039  0.891 -0.022
  0.022 -0.022  0.917
atom    7   Tr[ns(na)] =   5.43358
    eigenvalues: 
  0.846  0.929  0.941
    eigenvectors:
  0.340  0.000  0.660
  0.000  1.000  0.000
  0.660  0.000  0.340
    occupations:
  0.909  0.000 -0.045
  0.000  0.929  0.000
 -0.045  0.000  0.879
atom    8   Tr[ns(na)] =   5.43357
    eigenvalues: 
  0.846  0.929  0.941
    eigenvectors:
  0.340  0.000  0.660
  0.496  0.250  0.255
  0.164  0.750  0.086
    occupations:
  0.909 -0.039  0.022
 -0.039  0.891  0.022
  0.022  0.022  0.917
atom    9   Tr[ns(na)] =   5.43358
    eigenvalues: 
  0.846  0.929  0.941
    eigenvectors:
  0.340  0.000  0.660
  0.494  0.250  0.256
  0.166  0.750  0.085
    occupations:
  0.909  0.039  0.022
  0.039  0.891 -0.022
  0.022 -0.022  0.917
atom   10   Tr[ns(na)] =   5.43358
    eigenvalues: 
  0.846  0.929  0.941
    eigenvectors:
  0.340  0.000  0.660
  0.000  1.000  0.000
  0.660  0.000  0.340
    occupations:
  0.909  0.000 -0.045
  0.000  0.929  0.000
 -0.045  0.000  0.879
N of occupied +U levels =  56.2505796
 --- exit write_ns ---
 LDA+U Projector read from file 
     Starting wfc from file

     total cpu time spent up to now is        8.0 secs

     per-process dynamical memory:    62.8 Mb

     Self-consistent Calculation

     iteration #  1     ecut=    30.00 Ry     beta=0.20
     Davidson diagonalization with overlap
     c_bands:  1 eigenvalues not converged
     c_bands:  1 eigenvalues not converged
     c_bands:  1 eigenvalues not converged
     c_bands:  1 eigenvalues not converged
     c_bands:  1 eigenvalues not converged
     c_bands:  1 eigenvalues not converged
     c_bands:  1 eigenvalues not converged
     c_bands:  1 eigenvalues not converged
     c_bands:  1 eigenvalues not converged
     c_bands:  1 eigenvalues not converged
     c_bands:  1 eigenvalues not converged
     c_bands:  1 eigenvalues not converged
     c_bands:  1 eigenvalues not converged
     ethr =  1.00E-10,  avg # of iterations = 16.6
 --- enter write_ns ---
 LDA+U parameters:
U( 1)     =  2.00000000
alpha( 1) =  0.00000000
U( 2)     =  0.00000000
alpha( 2) =  0.00000000
U( 3)     =  0.00000000
alpha( 3) = -0.05000000
U( 4)     =  0.00000000
alpha( 4) =  0.00000000
atom    1   Tr[ns(na)] =   8.11640
    eigenvalues: 
  0.566  0.567  0.975  0.975  0.976
    eigenvectors:
  0.000  0.000  0.021  0.002  0.978
  0.554  0.101  0.194  0.145  0.006
  0.101  0.554  0.145  0.200  0.001
  0.167  0.179  0.497  0.150  0.007
  0.179  0.167  0.144  0.503  0.007
    occupations:
  0.976  0.000  0.000  0.000  0.000
  0.000  0.707  0.000 -0.070  0.181
  0.000  0.000  0.708  0.181  0.069
  0.000 -0.070  0.181  0.833  0.000
  0.000  0.181  0.069  0.000  0.834
atom    2   Tr[ns(na)] =   8.11081
    eigenvalues: 
  0.564  0.565  0.975  0.975  0.976
    eigenvectors:
  0.000  0.000  0.026  0.002  0.972
  0.419  0.235  0.300  0.040  0.006
  0.236  0.419  0.037  0.305  0.003
  0.027  0.319  0.000  0.653  0.001
  0.319  0.027  0.637  0.000  0.017
    occupations:
  0.976  0.000  0.000  0.000  0.000
  0.000  0.706  0.000  0.069  0.183
  0.000  0.000  0.706  0.183 -0.069
  0.000  0.069  0.183  0.833  0.000
  0.000  0.183 -0.069  0.000  0.833
atom    3   Tr[ns(na)] =   3.79629
    eigenvalues: 
  0.356  0.356  0.383  0.402  0.402
    eigenvectors:
  0.000  0.000  1.000  0.000  0.000
  0.229  0.690  0.000  0.062  0.019
  0.690  0.228  0.000  0.020  0.062
  0.061  0.021  0.000  0.227  0.692
  0.021  0.061  0.000  0.691  0.227
    occupations:
  0.383  0.000  0.000  0.000  0.000
  0.000  0.360  0.000  0.000  0.013
  0.000  0.000  0.359  0.013  0.000
  0.000  0.000  0.013  0.398  0.000
  0.000  0.013  0.000  0.000  0.398
atom    4   Tr[ns(na)] =   3.79636
    eigenvalues: 
  0.356  0.356  0.383  0.402  0.402
    eigenvectors:
  0.000  0.000  1.000  0.000  0.000
  0.688  0.232  0.000  0.060  0.020
  0.232  0.687  0.000  0.020  0.061
  0.021  0.060  0.000  0.234  0.686
  0.059  0.021  0.000  0.687  0.233
    occupations:
  0.383  0.000  0.000  0.000  0.000
  0.000  0.359  0.000  0.000  0.013
  0.000  0.000  0.359  0.013  0.000
  0.000  0.000  0.013  0.398  0.000
  0.000  0.013  0.000  0.000  0.398
atom    5   Tr[ns(na)] =   5.41963
    eigenvalues: 
  0.838  0.928  0.944
    eigenvectors:
  0.340  0.000  0.660
  0.495  0.250  0.255
  0.165  0.750  0.085
    occupations:
  0.908 -0.043  0.025
 -0.043  0.887  0.023
  0.025  0.023  0.914
atom    6   Tr[ns(na)] =   5.41126
    eigenvalues: 
  0.836  0.927  0.943
    eigenvectors:
  0.341  0.000  0.659
  0.494  0.249  0.256
  0.165  0.751  0.084
    occupations:
  0.907  0.044  0.025
  0.044  0.886 -0.023
  0.025 -0.023  0.913
atom    7   Tr[ns(na)] =   5.41127
    eigenvalues: 
  0.836  0.927  0.943
    eigenvectors:
  0.341  0.000  0.659
  0.000  1.000  0.000
  0.659  0.000  0.341
    occupations:
  0.907  0.000 -0.051
  0.000  0.927  0.000
 -0.051  0.000  0.872
atom    8   Tr[ns(na)] =   5.41126
    eigenvalues: 
  0.836  0.927  0.943
    eigenvectors:
  0.341  0.000  0.659
  0.495  0.250  0.255
  0.164  0.750  0.086
    occupations:
  0.907 -0.044  0.025
 -0.044  0.886  0.023
  0.025  0.023  0.913
atom    9   Tr[ns(na)] =   5.41128
    eigenvalues: 
  0.836  0.927  0.943
    eigenvectors:
  0.341  0.000  0.659
  0.494  0.250  0.256
  0.165  0.750  0.084
    occupations:
  0.907  0.044  0.025
  0.044  0.886 -0.023
  0.025 -0.023  0.913
atom   10   Tr[ns(na)] =   5.41128
    eigenvalues: 
  0.836  0.927  0.943
    eigenvectors:
  0.341  0.000  0.659
  0.000  1.000  0.000
  0.659  0.000  0.341
    occupations:
  0.907  0.000 -0.051
  0.000  0.927  0.000
 -0.051  0.000  0.872
N of occupied +U levels =  56.2958505
 --- exit write_ns ---
 --- in v_hubbard ---
Hubbard energy    0.1666
 -------

     total cpu time spent up to now is      107.1 secs

     total energy              =    -538.17331383 Ry
     Harris-Foulkes estimate   =    -538.17538178 Ry
     estimated scf accuracy    <       0.01224190 Ry

     iteration #  2     ecut=    30.00 Ry     beta=0.20
     Davidson diagonalization with overlap
     ethr =  1.61E-05,  avg # of iterations =  1.3
 --- enter write_ns ---
 LDA+U parameters:
U( 1)     =  2.00000000
alpha( 1) =  0.00000000
U( 2)     =  0.00000000
alpha( 2) =  0.00000000
U( 3)     =  0.00000000
alpha( 3) = -0.05000000
U( 4)     =  0.00000000
alpha( 4) =  0.00000000
atom    1   Tr[ns(na)] =   8.02998
    eigenvalues: 
  0.545  0.545  0.975  0.975  0.976
    eigenvectors:
  0.000  0.000  0.006  0.000  0.994
  0.554  0.101  0.190  0.153  0.002
  0.101  0.554  0.153  0.191  0.000
  0.168  0.177  0.517  0.136  0.002
  0.177  0.168  0.134  0.519  0.002
    occupations:
  0.976  0.000  0.000  0.000  0.000
  0.000  0.693  0.000 -0.074  0.190
  0.000  0.000  0.693  0.190  0.073
  0.000 -0.074  0.190  0.827  0.000
  0.000  0.190  0.073  0.000  0.827
atom    2   Tr[ns(na)] =   8.03890
    eigenvalues: 
  0.545  0.545  0.976  0.976  0.977
    eigenvectors:
  0.000  0.000  0.005  0.000  0.994
  0.420  0.235  0.313  0.030  0.001
  0.235  0.420  0.030  0.314  0.001
  0.025  0.319  0.003  0.652  0.000
  0.319  0.025  0.649  0.003  0.004
    occupations:
  0.977  0.000  0.000  0.000  0.000
  0.000  0.694  0.000  0.073  0.191
  0.000  0.000  0.694  0.191 -0.074
  0.000  0.073  0.191  0.828  0.000
  0.000  0.191 -0.074  0.000  0.827
atom    3   Tr[ns(na)] =   3.79446
    eigenvalues: 
  0.355  0.355  0.382  0.402  0.402
    eigenvectors:
  0.000  0.000  1.000  0.000  0.000
  0.221  0.699  0.000  0.064  0.016
  0.699  0.221  0.000  0.016  0.064
  0.060  0.020  0.000  0.187  0.733
  0.020  0.060  0.000  0.733  0.187
    occupations:
  0.382  0.000  0.000  0.000  0.000
  0.000  0.359  0.000  0.000  0.013
  0.000  0.000  0.359  0.013  0.000
  0.000  0.000  0.013  0.398  0.000
  0.000  0.013  0.000  0.000  0.398
atom    4   Tr[ns(na)] =   3.79450
    eigenvalues: 
  0.355  0.355  0.382  0.402  0.402
    eigenvectors:
  0.000  0.000  1.000  0.000  0.000
  0.683  0.238  0.000  0.061  0.018
  0.238  0.682  0.000  0.018  0.062
  0.021  0.059  0.000  0.214  0.706
  0.058  0.021  0.000  0.707  0.214
    occupations:
  0.382  0.000  0.000  0.000  0.000
  0.000  0.359  0.000  0.000  0.013
  0.000  0.000  0.359  0.013  0.000
  0.000  0.000  0.013  0.398  0.000
  0.000  0.013  0.000  0.000  0.398
atom    5   Tr[ns(na)] =   5.44033
    eigenvalues: 
  0.844  0.931  0.945
    eigenvectors:
  0.338  0.000  0.662
  0.496  0.251  0.253
  0.166  0.749  0.085
    occupations:
  0.911 -0.041  0.024
 -0.041  0.892  0.023
  0.024  0.023  0.917
atom    6   Tr[ns(na)] =   5.43704
    eigenvalues: 
  0.844  0.930  0.945
    eigenvectors:
  0.338  0.000  0.662
  0.497  0.249  0.254
  0.165  0.751  0.084
    occupations:
  0.911  0.042  0.024
  0.042  0.891 -0.023
  0.024 -0.023  0.917
atom    7   Tr[ns(na)] =   5.43704
    eigenvalues: 
  0.844  0.930  0.945
    eigenvectors:
  0.338  0.000  0.662
  0.000  1.000  0.000
  0.662  0.000  0.338
    occupations:
  0.911  0.000 -0.048
  0.000  0.930  0.000
 -0.048  0.000  0.878
atom    8   Tr[ns(na)] =   5.43736
    eigenvalues: 
  0.844  0.930  0.945
    eigenvectors:
  0.338  0.000  0.662
  0.496  0.251  0.253
  0.166  0.749  0.085
    occupations:
  0.911 -0.042  0.024
 -0.042  0.891  0.023
  0.024  0.023  0.917
atom    9   Tr[ns(na)] =   5.43697
    eigenvalues: 
  0.843  0.930  0.945
    eigenvectors:
  0.338  0.000  0.662
  0.497  0.249  0.255
  0.165  0.751  0.084
    occupations:
  0.911  0.042  0.024
  0.042  0.891 -0.023
  0.024 -0.023  0.917
atom   10   Tr[ns(na)] =   5.43697
    eigenvalues: 
  0.843  0.930  0.945
    eigenvectors:
  0.338  0.000  0.662
  0.000  1.000  0.000
  0.662  0.000  0.338
    occupations:
  0.911  0.000 -0.048
  0.000  0.930  0.000
 -0.048  0.000  0.878
N of occupied +U levels =  56.2835344
 --- exit write_ns ---
 --- in v_hubbard ---
Hubbard energy    0.1641
 -------

     total cpu time spent up to now is      133.8 secs

     total energy              =    -538.17500273 Ry
     Harris-Foulkes estimate   =    -538.17505650 Ry
     estimated scf accuracy    <       0.00719680 Ry

     iteration #  3     ecut=    30.00 Ry     beta=0.20
     Davidson diagonalization with overlap
     ethr =  9.47E-06,  avg # of iterations =  1.0
 --- enter write_ns ---
 LDA+U parameters:
U( 1)     =  2.00000000
alpha( 1) =  0.00000000
U( 2)     =  0.00000000
alpha( 2) =  0.00000000
U( 3)     =  0.00000000
alpha( 3) = -0.05000000
U( 4)     =  0.00000000
alpha( 4) =  0.00000000
atom    1   Tr[ns(na)] =   8.06056
    eigenvalues: 
  0.551  0.551  0.976  0.976  0.977
    eigenvectors:
  0.000  0.000  0.005  0.000  0.994
  0.554  0.102  0.189  0.153  0.002
  0.102  0.554  0.153  0.191  0.000
  0.168  0.176  0.519  0.135  0.002
  0.176  0.168  0.133  0.521  0.002
    occupations:
  0.977  0.000  0.000  0.000  0.000
  0.000  0.697  0.000 -0.073  0.188
  0.000  0.000  0.697  0.188  0.073
  0.000 -0.073  0.188  0.829  0.000
  0.000  0.188  0.073  0.000  0.830
atom    2   Tr[ns(na)] =   8.04701
    eigenvalues: 
  0.547  0.548  0.976  0.976  0.977
    eigenvectors:
  0.000  0.000  0.009  0.001  0.990
  0.422  0.234  0.307  0.035  0.002
  0.234  0.422  0.034  0.309  0.001
  0.026  0.319  0.001  0.654  0.000
  0.319  0.026  0.649  0.001  0.006
    occupations:
  0.977  0.000  0.000  0.000  0.000
  0.000  0.695  0.000  0.072  0.190
  0.000  0.000  0.695  0.190 -0.073
  0.000  0.072  0.190  0.829  0.000
  0.000  0.190 -0.073  0.000  0.828
atom    3   Tr[ns(na)] =   3.79455
    eigenvalues: 
  0.355  0.355  0.382  0.402  0.402
    eigenvectors:
  0.000  0.000  1.000  0.000  0.000
  0.222  0.698  0.000  0.064  0.016
  0.698  0.222  0.000  0.016  0.064
  0.060  0.020  0.000  0.190  0.730
  0.020  0.060  0.000  0.730  0.190
    occupations:
  0.382  0.000  0.000  0.000  0.000
  0.000  0.359  0.000  0.000  0.013
  0.000  0.000  0.359  0.013  0.000
  0.000  0.000  0.013  0.398  0.000
  0.000  0.013  0.000  0.000  0.398
atom    4   Tr[ns(na)] =   3.79457
    eigenvalues: 
  0.355  0.355  0.382  0.402  0.402
    eigenvectors:
  0.000  0.000  1.000  0.000  0.000
  0.680  0.240  0.000  0.061  0.018
  0.241  0.680  0.000  0.018  0.062
  0.021  0.058  0.000  0.218  0.702
  0.058  0.022  0.000  0.703  0.218
    occupations:
  0.382  0.000  0.000  0.000  0.000
  0.000  0.359  0.000  0.000  0.013
  0.000  0.000  0.359  0.013  0.000
  0.000  0.000  0.013  0.398  0.000
  0.000  0.013  0.000  0.000  0.398
atom    5   Tr[ns(na)] =   5.43427
    eigenvalues: 
  0.842  0.930  0.945
    eigenvectors:
  0.339  0.000  0.661
  0.497  0.249  0.254
  0.164  0.751  0.085
    occupations:
  0.910 -0.042  0.024
 -0.042  0.890  0.023
  0.024  0.023  0.917
atom    6   Tr[ns(na)] =   5.43111
    eigenvalues: 
  0.842  0.929  0.945
    eigenvectors:
  0.339  0.000  0.661
  0.495  0.250  0.255
  0.166  0.750  0.084
    occupations:
  0.910  0.042  0.024
  0.042  0.890 -0.023
  0.024 -0.023  0.916
atom    7   Tr[ns(na)] =   5.43111
    eigenvalues: 
  0.842  0.929  0.945
    eigenvectors:
  0.339  0.000  0.661
  0.000  1.000  0.000
  0.661  0.000  0.339
    occupations:
  0.910  0.000 -0.049
  0.000  0.929  0.000
 -0.049  0.000  0.877
atom    8   Tr[ns(na)] =   5.43138
    eigenvalues: 
  0.842  0.929  0.945
    eigenvectors:
  0.339  0.000  0.661
  0.497  0.249  0.254
  0.164  0.751  0.085
    occupations:
  0.910 -0.042  0.024
 -0.042  0.890  0.023
  0.024  0.023  0.916
atom    9   Tr[ns(na)] =   5.43106
    eigenvalues: 
  0.842  0.929  0.945
    eigenvectors:
  0.339  0.000  0.661
  0.495  0.251  0.255
  0.166  0.749  0.084
    occupations:
  0.910  0.042  0.024
  0.042  0.890 -0.023
  0.024 -0.023  0.916
atom   10   Tr[ns(na)] =   5.43106
    eigenvalues: 
  0.842  0.929  0.945
    eigenvectors:
  0.339  0.000  0.661
  0.000  1.000  0.000
  0.661  0.000  0.339
    occupations:
  0.910  0.000 -0.049
  0.000  0.929  0.000
 -0.049  0.000  0.877
N of occupied +U levels =  56.2867003
 --- exit write_ns ---
 --- in v_hubbard ---
Hubbard energy    0.1553
 -------

     total cpu time spent up to now is      161.0 secs

     total energy              =    -538.17565704 Ry
     Harris-Foulkes estimate   =    -538.17515821 Ry
     estimated scf accuracy    <       0.00395226 Ry

     iteration #  4     ecut=    30.00 Ry     beta=0.20
     Davidson diagonalization with overlap
     ethr =  5.20E-06,  avg # of iterations =  1.0
 --- enter write_ns ---
 LDA+U parameters:
U( 1)     =  2.00000000
alpha( 1) =  0.00000000
U( 2)     =  0.00000000
alpha( 2) =  0.00000000
U( 3)     =  0.00000000
alpha( 3) = -0.05000000
U( 4)     =  0.00000000
alpha( 4) =  0.00000000
atom    1   Tr[ns(na)] =   8.00595
    eigenvalues: 
  0.542  0.543  0.972  0.973  0.973
    eigenvectors:
  0.000  0.000  0.071  0.004  0.926
  0.553  0.104  0.200  0.121  0.021
  0.104  0.553  0.119  0.220  0.004
  0.166  0.177  0.442  0.191  0.024
  0.177  0.166  0.169  0.464  0.025
    occupations:
  0.973  0.000  0.000  0.000  0.000
  0.000  0.690  0.000 -0.072  0.191
  0.000  0.000  0.690  0.191  0.072
  0.000 -0.072  0.191  0.825  0.000
  0.000  0.191  0.072  0.000  0.825
atom    2   Tr[ns(na)] =   8.10659
    eigenvalues: 
  0.555  0.555  0.981  0.981  0.982
    eigenvectors:
  0.000  0.000  0.003  0.000  0.997
  0.420  0.236  0.307  0.035  0.001
  0.236  0.421  0.035  0.308  0.000
  0.025  0.319  0.001  0.655  0.000
  0.319  0.025  0.653  0.001  0.002
    occupations:
  0.982  0.000  0.000  0.000  0.000
  0.000  0.701  0.000  0.073  0.188
  0.000  0.000  0.701  0.188 -0.074
  0.000  0.073  0.188  0.835  0.000
  0.000  0.188 -0.074  0.000  0.835
atom    3   Tr[ns(na)] =   3.79563
    eigenvalues: 
  0.356  0.356  0.382  0.402  0.402
    eigenvectors:
  0.000  0.000  1.000  0.000  0.000
  0.231  0.690  0.000  0.054  0.026
  0.690  0.231  0.000  0.026  0.054
  0.059  0.020  0.000  0.301  0.619
  0.020  0.059  0.000  0.619  0.301
    occupations:
  0.382  0.000  0.000  0.000  0.000
  0.000  0.359  0.000  0.000  0.013
  0.000  0.000  0.359  0.013  0.000
  0.000  0.000  0.013  0.398  0.000
  0.000  0.013  0.000  0.000  0.398
atom    4   Tr[ns(na)] =   3.79563
    eigenvalues: 
  0.356  0.356  0.382  0.402  0.402
    eigenvectors:
  0.000  0.000  1.000  0.000  0.000
  0.682  0.239  0.000  0.059  0.020
  0.239  0.682  0.000  0.020  0.059
  0.021  0.058  0.000  0.236  0.685
  0.058  0.021  0.000  0.686  0.236
    occupations:
  0.382  0.000  0.000  0.000  0.000
  0.000  0.359  0.000  0.000  0.013
  0.000  0.000  0.359  0.013  0.000
  0.000  0.000  0.013  0.398  0.000
  0.000  0.013  0.000  0.000  0.398
atom    5   Tr[ns(na)] =   5.43287
    eigenvalues: 
  0.842  0.930  0.945
    eigenvectors:
  0.339  0.000  0.661
  0.490  0.258  0.252
  0.172  0.742  0.087
    occupations:
  0.910 -0.042  0.025
 -0.042  0.891  0.023
  0.025  0.023  0.916
atom    6   Tr[ns(na)] =   5.42982
    eigenvalues: 
  0.841  0.929  0.944
    eigenvectors:
  0.339  0.000  0.661
  0.502  0.241  0.256
  0.159  0.759  0.082
    occupations:
  0.910  0.043  0.024
  0.043  0.889 -0.023
  0.024 -0.023  0.916
atom    7   Tr[ns(na)] =   5.42982
    eigenvalues: 
  0.841  0.929  0.944
    eigenvectors:
  0.339  0.000  0.661
  0.000  1.000  0.000
  0.661  0.000  0.339
    occupations:
  0.910  0.000 -0.049
  0.000  0.929 -0.001
 -0.049 -0.001  0.876
atom    8   Tr[ns(na)] =   5.42992
    eigenvalues: 
  0.841  0.929  0.944
    eigenvectors:
  0.339  0.000  0.661
  0.490  0.258  0.252
  0.172  0.742  0.087
    occupations:
  0.910 -0.042  0.025
 -0.042  0.890  0.023
  0.025  0.023  0.915
atom    9   Tr[ns(na)] =   5.42982
    eigenvalues: 
  0.841  0.929  0.944
    eigenvectors:
  0.339  0.000  0.661
  0.502  0.242  0.256
  0.159  0.758  0.082
    occupations:
  0.909  0.043  0.024
  0.043  0.889 -0.023
  0.024 -0.023  0.916
atom   10   Tr[ns(na)] =   5.42982
    eigenvalues: 
  0.841  0.929  0.944
    eigenvectors:
  0.339  0.000  0.661
  0.000  1.000  0.000
  0.661  0.000  0.339
    occupations:
  0.909 -0.001 -0.049
 -0.001  0.929 -0.001
 -0.049 -0.001  0.876
N of occupied +U levels =  56.2858686
 --- exit write_ns ---
 --- in v_hubbard ---
Hubbard energy    0.1451
 -------

     total cpu time spent up to now is      190.1 secs

     total energy              =    -538.17551615 Ry
     Harris-Foulkes estimate   =    -538.17610394 Ry
     estimated scf accuracy    <       0.00704737 Ry

     iteration #  5     ecut=    30.00 Ry     beta=0.20
     Davidson diagonalization with overlap
     ethr =  5.20E-06,  avg # of iterations =  1.0
 --- enter write_ns ---
 LDA+U parameters:
U( 1)     =  2.00000000
alpha( 1) =  0.00000000
U( 2)     =  0.00000000
alpha( 2) =  0.00000000
U( 3)     =  0.00000000
alpha( 3) = -0.05000000
U( 4)     =  0.00000000
alpha( 4) =  0.00000000
atom    1   Tr[ns(na)] =   8.05611
    eigenvalues: 
  0.547  0.547  0.978  0.978  0.978
    eigenvectors:
  0.000  0.000  0.014  0.001  0.985
  0.555  0.103  0.204  0.134  0.004
  0.103  0.555  0.134  0.208  0.001
  0.168  0.175  0.488  0.165  0.005
  0.174  0.168  0.161  0.493  0.005
    occupations:
  0.978  0.000  0.000  0.000  0.000
  0.000  0.694  0.000 -0.074  0.190
  0.000  0.000  0.695  0.190  0.074
  0.000 -0.074  0.190  0.830  0.000
  0.000  0.190  0.074  0.000  0.830
atom    2   Tr[ns(na)] =   8.05415
    eigenvalues: 
  0.545  0.546  0.979  0.979  0.979
    eigenvectors:
  0.000  0.000  0.017  0.001  0.982
  0.422  0.235  0.292  0.046  0.004
  0.236  0.423  0.044  0.296  0.002
  0.025  0.317  0.000  0.657  0.001
  0.317  0.025  0.647  0.000  0.011
    occupations:
  0.979  0.000  0.000  0.000  0.000
  0.000  0.694  0.000  0.073  0.192
  0.000  0.000  0.694  0.192 -0.074
  0.000  0.073  0.192  0.831  0.000
  0.000  0.192 -0.074  0.000  0.830
atom    3   Tr[ns(na)] =   3.79677
    eigenvalues: 
  0.356  0.356  0.382  0.402  0.402
    eigenvectors:
  0.000  0.000  1.000  0.000  0.000
  0.228  0.694  0.000  0.062  0.016
  0.694  0.228  0.000  0.016  0.062
  0.059  0.020  0.000  0.198  0.723
  0.020  0.059  0.000  0.723  0.198
    occupations:
  0.382  0.000  0.000  0.000  0.000
  0.000  0.359  0.000  0.000  0.012
  0.000  0.000  0.359  0.012  0.000
  0.000  0.000  0.012  0.399  0.000
  0.000  0.012  0.000  0.000  0.399
atom    4   Tr[ns(na)] =   3.79677
    eigenvalues: 
  0.356  0.356  0.382  0.402  0.402
    eigenvectors:
  0.000  0.000  1.000  0.000  0.000
  0.683  0.239  0.000  0.058  0.020
  0.239  0.682  0.000  0.020  0.059
  0.021  0.058  0.000  0.241  0.681
  0.057  0.021  0.000  0.681  0.241
    occupations:
  0.382  0.000  0.000  0.000  0.000
  0.000  0.359  0.000  0.000  0.012
  0.000  0.000  0.359  0.012  0.000
  0.000  0.000  0.012  0.399  0.000
  0.000  0.012  0.000  0.000  0.399
atom    5   Tr[ns(na)] =   5.43279
    eigenvalues: 
  0.842  0.930  0.945
    eigenvectors:
  0.338  0.000  0.662
  0.496  0.250  0.253
  0.165  0.750  0.085
    occupations:
  0.910 -0.042  0.024
 -0.042  0.890  0.023
  0.024  0.023  0.916
atom    6   Tr[ns(na)] =   5.42976
    eigenvalues: 
  0.841  0.929  0.944
    eigenvectors:
  0.338  0.000  0.662
  0.496  0.249  0.255
  0.165  0.751  0.084
    occupations:
  0.910  0.042  0.024
  0.042  0.889 -0.023
  0.024 -0.023  0.916
atom    7   Tr[ns(na)] =   5.42975
    eigenvalues: 
  0.841  0.929  0.944
    eigenvectors:
  0.338  0.000  0.662
  0.000  1.000  0.000
  0.662  0.000  0.338
    occupations:
  0.910  0.000 -0.049
  0.000  0.929  0.000
 -0.049  0.000  0.876
atom    8   Tr[ns(na)] =   5.42971
    eigenvalues: 
  0.841  0.929  0.944
    eigenvectors:
  0.338  0.000  0.662
  0.496  0.250  0.253
  0.165  0.750  0.085
    occupations:
  0.910 -0.042  0.024
 -0.042  0.889  0.023
  0.024  0.023  0.916
atom    9   Tr[ns(na)] =   5.42978
    eigenvalues: 
  0.841  0.929  0.944
    eigenvectors:
  0.339  0.000  0.661
  0.496  0.249  0.255
  0.166  0.751  0.084
    occupations:
  0.909  0.042  0.024
  0.042  0.889 -0.023
  0.024 -0.023  0.916
atom   10   Tr[ns(na)] =   5.42979
    eigenvalues: 
  0.841  0.929  0.944
    eigenvectors:
  0.339  0.000  0.661
  0.000  1.000  0.000
  0.661  0.000  0.339
    occupations:
  0.909  0.000 -0.049
  0.000  0.929  0.000
 -0.049  0.000  0.876
N of occupied +U levels =  56.2853763
 --- exit write_ns ---
 --- in v_hubbard ---
Hubbard energy    0.1443
 -------

     total cpu time spent up to now is      214.1 secs

     total energy              =    -538.17593041 Ry
     Harris-Foulkes estimate   =    -538.17589447 Ry
     estimated scf accuracy    <       0.00004571 Ry

     iteration #  6     ecut=    30.00 Ry     beta=0.20
     Davidson diagonalization with overlap
     ethr =  6.01E-08,  avg # of iterations =  2.3
 --- enter write_ns ---
 LDA+U parameters:
U( 1)     =  2.00000000
alpha( 1) =  0.00000000
U( 2)     =  0.00000000
alpha( 2) =  0.00000000
U( 3)     =  0.00000000
alpha( 3) = -0.05000000
U( 4)     =  0.00000000
alpha( 4) =  0.00000000
atom    1   Tr[ns(na)] =   8.05297
    eigenvalues: 
  0.546  0.546  0.978  0.978  0.979
    eigenvectors:
  0.000  0.000  0.011  0.001  0.988
  0.555  0.102  0.203  0.136  0.003
  0.102  0.555  0.136  0.206  0.001
  0.168  0.175  0.492  0.161  0.004
  0.175  0.167  0.158  0.496  0.004
    occupations:
  0.979  0.000  0.000  0.000  0.000
  0.000  0.694  0.000 -0.074  0.191
  0.000  0.000  0.694  0.191  0.074
  0.000 -0.074  0.191  0.830  0.000
  0.000  0.191  0.074  0.000  0.830
atom    2   Tr[ns(na)] =   8.05062
    eigenvalues: 
  0.544  0.545  0.979  0.979  0.979
    eigenvectors:
  0.000  0.000  0.013  0.001  0.986
  0.422  0.235  0.295  0.044  0.003
  0.235  0.423  0.043  0.298  0.002
  0.025  0.317  0.000  0.657  0.000
  0.317  0.025  0.649  0.000  0.008
    occupations:
  0.979  0.000  0.000  0.000  0.000
  0.000  0.693  0.000  0.074  0.192
  0.000  0.000  0.693  0.192 -0.074
  0.000  0.074  0.192  0.830  0.000
  0.000  0.192 -0.074  0.000  0.830
atom    3   Tr[ns(na)] =   3.79629
    eigenvalues: 
  0.356  0.356  0.382  0.402  0.402
    eigenvectors:
  0.000  0.000  1.000  0.000  0.000
  0.228  0.693  0.000  0.068  0.010
  0.693  0.228  0.000  0.010  0.068
  0.059  0.020  0.000  0.128  0.793
  0.020  0.059  0.000  0.793  0.128
    occupations:
  0.382  0.000  0.000  0.000  0.000
  0.000  0.359  0.000  0.000  0.012
  0.000  0.000  0.359  0.012  0.000
  0.000  0.000  0.012  0.398  0.000
  0.000  0.012  0.000  0.000  0.398
atom    4   Tr[ns(na)] =   3.79630
    eigenvalues: 
  0.356  0.356  0.382  0.402  0.402
    eigenvectors:
  0.000  0.000  1.000  0.000  0.000
  0.661  0.260  0.000  0.059  0.019
  0.261  0.661  0.000  0.019  0.060
  0.023  0.056  0.000  0.232  0.690
  0.055  0.023  0.000  0.690  0.231
    occupations:
  0.382  0.000  0.000  0.000  0.000
  0.000  0.359  0.000  0.000  0.012
  0.000  0.000  0.359  0.012  0.000
  0.000  0.000  0.012  0.399  0.000
  0.000  0.012  0.000  0.000  0.399
atom    5   Tr[ns(na)] =   5.43390
    eigenvalues: 
  0.842  0.930  0.945
    eigenvectors:
  0.338  0.000  0.662
  0.497  0.250  0.253
  0.165  0.750  0.085
    occupations:
  0.910 -0.042  0.024
 -0.042  0.890  0.023
  0.024  0.023  0.917
atom    6   Tr[ns(na)] =   5.43085
    eigenvalues: 
  0.841  0.929  0.945
    eigenvectors:
  0.338  0.000  0.662
  0.496  0.249  0.255
  0.166  0.751  0.084
    occupations:
  0.910  0.042  0.024
  0.042  0.890 -0.023
  0.024 -0.023  0.916
atom    7   Tr[ns(na)] =   5.43085
    eigenvalues: 
  0.841  0.929  0.945
    eigenvectors:
  0.338  0.000  0.662
  0.000  1.000  0.000
  0.662  0.000  0.338
    occupations:
  0.910  0.000 -0.049
  0.000  0.929  0.000
 -0.049  0.000  0.876
atom    8   Tr[ns(na)] =   5.43099
    eigenvalues: 
  0.842  0.929  0.945
    eigenvectors:
  0.338  0.000  0.662
  0.496  0.250  0.253
  0.165  0.750  0.085
    occupations:
  0.910 -0.042  0.024
 -0.042  0.890  0.023
  0.024  0.023  0.916
atom    9   Tr[ns(na)] =   5.43082
    eigenvalues: 
  0.841  0.929  0.945
    eigenvectors:
  0.339  0.000  0.661
  0.496  0.250  0.255
  0.166  0.750  0.084
    occupations:
  0.910  0.042  0.024
  0.042  0.890 -0.023
  0.024 -0.023  0.916
atom   10   Tr[ns(na)] =   5.43082
    eigenvalues: 
  0.841  0.929  0.945
    eigenvectors:
  0.339  0.000  0.661
  0.000  1.000  0.000
  0.661  0.000  0.339
    occupations:
  0.910  0.000 -0.049
  0.000  0.929  0.000
 -0.049  0.000  0.876
N of occupied +U levels =  56.2844135
 --- exit write_ns ---
 --- in v_hubbard ---
Hubbard energy    0.1442
 -------

     total cpu time spent up to now is      240.2 secs

     total energy              =    -538.17597008 Ry
     Harris-Foulkes estimate   =    -538.17593721 Ry
     estimated scf accuracy    <       0.00001237 Ry

     iteration #  7     ecut=    30.00 Ry     beta=0.20
     Davidson diagonalization with overlap
     ethr =  1.63E-08,  avg # of iterations =  2.0
 --- enter write_ns ---
 LDA+U parameters:
U( 1)     =  2.00000000
alpha( 1) =  0.00000000
U( 2)     =  0.00000000
alpha( 2) =  0.00000000
U( 3)     =  0.00000000
alpha( 3) = -0.05000000
U( 4)     =  0.00000000
alpha( 4) =  0.00000000
atom    1   Tr[ns(na)] =   8.05158
    eigenvalues: 
  0.546  0.546  0.978  0.978  0.979
    eigenvectors:
  0.000  0.000  0.007  0.000  0.993
  0.555  0.102  0.203  0.138  0.002
  0.102  0.555  0.138  0.205  0.000
  0.168  0.175  0.496  0.159  0.003
  0.175  0.168  0.157  0.498  0.002
    occupations:
  0.979  0.000  0.000  0.000  0.000
  0.000  0.694  0.000 -0.074  0.191
  0.000  0.000  0.694  0.191  0.074
  0.000 -0.074  0.191  0.829  0.000
  0.000  0.191  0.074  0.000  0.830
atom    2   Tr[ns(na)] =   8.05157
    eigenvalues: 
  0.544  0.545  0.979  0.979  0.980
    eigenvectors:
  0.000  0.000  0.007  0.000  0.992
  0.422  0.235  0.299  0.042  0.002
  0.235  0.422  0.041  0.301  0.001
  0.025  0.318  0.000  0.657  0.000
  0.318  0.025  0.652  0.000  0.005
    occupations:
  0.980  0.000  0.000  0.000  0.000
  0.000  0.693  0.000  0.074  0.193
  0.000  0.000  0.693  0.192 -0.074
  0.000  0.074  0.192  0.830  0.000
  0.000  0.193 -0.074  0.000  0.830
atom    3   Tr[ns(na)] =   3.79511
    eigenvalues: 
  0.356  0.356  0.382  0.402  0.402
    eigenvectors:
  0.000  0.000  1.000  0.000  0.000
  0.228  0.693  0.000  0.063  0.016
  0.693  0.228  0.000  0.016  0.063
  0.059  0.020  0.000  0.194  0.727
  0.020  0.059  0.000  0.727  0.194
    occupations:
  0.382  0.000  0.000  0.000  0.000
  0.000  0.359  0.000  0.000  0.013
  0.000  0.000  0.359  0.013  0.000
  0.000  0.000  0.013  0.398  0.000
  0.000  0.013  0.000  0.000  0.398
atom    4   Tr[ns(na)] =   3.79512
    eigenvalues: 
  0.356  0.356  0.382  0.402  0.402
    eigenvectors:
  0.000  0.000  1.000  0.000  0.000
  0.649  0.272  0.000  0.059  0.019
  0.273  0.649  0.000  0.019  0.060
  0.024  0.055  0.000  0.232  0.689
  0.055  0.024  0.000  0.689  0.232
    occupations:
  0.382  0.000  0.000  0.000  0.000
  0.000  0.359  0.000  0.000  0.012
  0.000  0.000  0.359  0.013  0.000
  0.000  0.000  0.013  0.398  0.000
  0.000  0.012  0.000  0.000  0.398
atom    5   Tr[ns(na)] =   5.43431
    eigenvalues: 
  0.842  0.930  0.945
    eigenvectors:
  0.339  0.000  0.661
  0.496  0.250  0.253
  0.165  0.750  0.085
    occupations:
  0.910 -0.042  0.024
 -0.042  0.890  0.023
  0.024  0.023  0.917
atom    6   Tr[ns(na)] =   5.43115
    eigenvalues: 
  0.842  0.929  0.945
    eigenvectors:
  0.339  0.000  0.661
  0.496  0.249  0.255
  0.165  0.751  0.084
    occupations:
  0.910  0.042  0.024
  0.042  0.890 -0.023
  0.024 -0.023  0.916
atom    7   Tr[ns(na)] =   5.43115
    eigenvalues: 
  0.842  0.929  0.945
    eigenvectors:
  0.339  0.000  0.661
  0.000  1.000  0.000
  0.661  0.000  0.339
    occupations:
  0.910  0.000 -0.049
  0.000  0.929  0.000
 -0.049  0.000  0.876
atom    8   Tr[ns(na)] =   5.43140
    eigenvalues: 
  0.842  0.929  0.945
    eigenvectors:
  0.339  0.000  0.661
  0.496  0.250  0.253
  0.165  0.750  0.085
    occupations:
  0.910 -0.042  0.024
 -0.042  0.890  0.023
  0.024  0.023  0.916
atom    9   Tr[ns(na)] =   5.43111
    eigenvalues: 
  0.842  0.929  0.945
    eigenvectors:
  0.339  0.000  0.661
  0.496  0.249  0.255
  0.166  0.751  0.084
    occupations:
  0.910  0.042  0.024
  0.042  0.890 -0.023
  0.024 -0.023  0.916
atom   10   Tr[ns(na)] =   5.43111
    eigenvalues: 
  0.842  0.929  0.945
    eigenvectors:
  0.339  0.000  0.661
  0.000  1.000  0.000
  0.661  0.000  0.339
    occupations:
  0.910  0.000 -0.049
  0.000  0.929  0.000
 -0.049  0.000  0.876
N of occupied +U levels =  56.2836206
 --- exit write_ns ---
 --- in v_hubbard ---
Hubbard energy    0.1443
 -------

     total cpu time spent up to now is      268.5 secs

     total energy              =    -538.17600025 Ry
     Harris-Foulkes estimate   =    -538.17597212 Ry
     estimated scf accuracy    <       0.00000279 Ry

     iteration #  8     ecut=    30.00 Ry     beta=0.20
     Davidson diagonalization with overlap
     ethr =  3.67E-09,  avg # of iterations =  1.7
 --- enter write_ns ---
 LDA+U parameters:
U( 1)     =  2.00000000
alpha( 1) =  0.00000000
U( 2)     =  0.00000000
alpha( 2) =  0.00000000
U( 3)     =  0.00000000
alpha( 3) = -0.05000000
U( 4)     =  0.00000000
alpha( 4) =  0.00000000
atom    1   Tr[ns(na)] =   8.05314
    eigenvalues: 
  0.546  0.546  0.978  0.978  0.979
    eigenvectors:
  0.000  0.000  0.006  0.000  0.993
  0.555  0.102  0.202  0.139  0.002
  0.102  0.555  0.139  0.204  0.000
  0.168  0.175  0.497  0.157  0.002
  0.175  0.168  0.155  0.500  0.002
    occupations:
  0.979  0.000  0.000  0.000  0.000
  0.000  0.694  0.000 -0.074  0.191
  0.000  0.000  0.694  0.191  0.074
  0.000 -0.074  0.191  0.830  0.000
  0.000  0.191  0.074  0.000  0.830
atom    2   Tr[ns(na)] =   8.05102
    eigenvalues: 
  0.544  0.545  0.979  0.979  0.980
    eigenvectors:
  0.000  0.000  0.007  0.000  0.993
  0.422  0.235  0.299  0.042  0.002
  0.235  0.422  0.041  0.301  0.001
  0.025  0.318  0.000  0.657  0.000
  0.318  0.025  0.652  0.000  0.005
    occupations:
  0.980  0.000  0.000  0.000  0.000
  0.000  0.693  0.000  0.074  0.193
  0.000  0.000  0.693  0.192 -0.074
  0.000  0.074  0.192  0.830  0.000
  0.000  0.193 -0.074  0.000  0.830
atom    3   Tr[ns(na)] =   3.79540
    eigenvalues: 
  0.356  0.356  0.382  0.402  0.402
    eigenvectors:
  0.000  0.000  1.000  0.000  0.000
  0.228  0.693  0.000  0.064  0.015
  0.693  0.228  0.000  0.015  0.064
  0.059  0.020  0.000  0.182  0.739
  0.020  0.059  0.000  0.739  0.182
    occupations:
  0.382  0.000  0.000  0.000  0.000
  0.000  0.359  0.000  0.000  0.013
  0.000  0.000  0.359  0.013  0.000
  0.000  0.000  0.013  0.398  0.000
  0.000  0.013  0.000  0.000  0.398
atom    4   Tr[ns(na)] =   3.79541
    eigenvalues: 
  0.356  0.356  0.382  0.402  0.402
    eigenvectors:
  0.000  0.000  1.000  0.000  0.000
  0.664  0.258  0.000  0.059  0.019
  0.258  0.663  0.000  0.019  0.060
  0.023  0.056  0.000  0.233  0.688
  0.056  0.023  0.000  0.688  0.233
    occupations:
  0.382  0.000  0.000  0.000  0.000
  0.000  0.359  0.000  0.000  0.012
  0.000  0.000  0.359  0.013  0.000
  0.000  0.000  0.013  0.398  0.000
  0.000  0.012  0.000  0.000  0.398
atom    5   Tr[ns(na)] =   5.43403
    eigenvalues: 
  0.842  0.930  0.945
    eigenvectors:
  0.338  0.000  0.662
  0.496  0.250  0.253
  0.165  0.750  0.085
    occupations:
  0.910 -0.042  0.024
 -0.042  0.890  0.023
  0.024  0.023  0.917
atom    6   Tr[ns(na)] =   5.43095
    eigenvalues: 
  0.841  0.929  0.945
    eigenvectors:
  0.339  0.000  0.661
  0.496  0.249  0.255
  0.165  0.751  0.084
    occupations:
  0.910  0.042  0.024
  0.042  0.890 -0.023
  0.024 -0.023  0.916
atom    7   Tr[ns(na)] =   5.43095
    eigenvalues: 
  0.841  0.929  0.945
    eigenvectors:
  0.339  0.000  0.661
  0.000  1.000  0.000
  0.661  0.000  0.339
    occupations:
  0.910  0.000 -0.049
  0.000  0.929  0.000
 -0.049  0.000  0.876
atom    8   Tr[ns(na)] =   5.43112
    eigenvalues: 
  0.842  0.929  0.945
    eigenvectors:
  0.339  0.000  0.661
  0.496  0.250  0.253
  0.165  0.750  0.085
    occupations:
  0.910 -0.042  0.024
 -0.042  0.890  0.023
  0.024  0.023  0.916
atom    9   Tr[ns(na)] =   5.43093
    eigenvalues: 
  0.841  0.929  0.945
    eigenvectors:
  0.339  0.000  0.661
  0.496  0.250  0.255
  0.166  0.750  0.084
    occupations:
  0.910  0.042  0.024
  0.042  0.890 -0.023
  0.024 -0.023  0.916
atom   10   Tr[ns(na)] =   5.43093
    eigenvalues: 
  0.841  0.929  0.945
    eigenvectors:
  0.339  0.000  0.661
  0.000  1.000  0.000
  0.661  0.000  0.339
    occupations:
  0.910  0.000 -0.049
  0.000  0.929  0.000
 -0.049  0.000  0.876
N of occupied +U levels =  56.2838897
 --- exit write_ns ---
 --- in v_hubbard ---
Hubbard energy    0.1443
 -------

     total cpu time spent up to now is      294.1 secs

     total energy              =    -538.17601851 Ry
     Harris-Foulkes estimate   =    -538.17600059 Ry
     estimated scf accuracy    <       0.00000067 Ry

     iteration #  9     ecut=    30.00 Ry     beta=0.20
     Davidson diagonalization with overlap
     ethr =  8.87E-10,  avg # of iterations =  2.0
 --- enter write_ns ---
 LDA+U parameters:
U( 1)     =  2.00000000
alpha( 1) =  0.00000000
U( 2)     =  0.00000000
alpha( 2) =  0.00000000
U( 3)     =  0.00000000
alpha( 3) = -0.05000000
U( 4)     =  0.00000000
alpha( 4) =  0.00000000
atom    1   Tr[ns(na)] =   8.05249
    eigenvalues: 
  0.546  0.546  0.978  0.978  0.979
    eigenvectors:
  0.000  0.000  0.006  0.000  0.993
  0.555  0.102  0.202  0.139  0.002
  0.102  0.555  0.139  0.203  0.000
  0.168  0.175  0.498  0.157  0.002
  0.175  0.168  0.155  0.500  0.002
    occupations:
  0.979  0.000  0.000  0.000  0.000
  0.000  0.694  0.000 -0.074  0.191
  0.000  0.000  0.694  0.191  0.074
  0.000 -0.074  0.191  0.830  0.000
  0.000  0.191  0.074  0.000  0.830
atom    2   Tr[ns(na)] =   8.05134
    eigenvalues: 
  0.544  0.545  0.979  0.979  0.980
    eigenvectors:
  0.000  0.000  0.007  0.000  0.993
  0.422  0.235  0.300  0.041  0.002
  0.235  0.422  0.041  0.302  0.001
  0.025  0.318  0.000  0.657  0.000
  0.318  0.025  0.653  0.000  0.004
    occupations:
  0.980  0.000  0.000  0.000  0.000
  0.000  0.693  0.000  0.074  0.193
  0.000  0.000  0.693  0.192 -0.074
  0.000  0.074  0.192  0.830  0.000
  0.000  0.193 -0.074  0.000  0.830
atom    3   Tr[ns(na)] =   3.79548
    eigenvalues: 
  0.356  0.356  0.382  0.402  0.402
    eigenvectors:
  0.000  0.000  1.000  0.000  0.000
  0.228  0.693  0.000  0.065  0.014
  0.693  0.228  0.000  0.014  0.065
  0.059  0.020  0.000  0.175  0.746
  0.020  0.059  0.000  0.746  0.175
    occupations:
  0.382  0.000  0.000  0.000  0.000
  0.000  0.359  0.000  0.000  0.013
  0.000  0.000  0.359  0.013  0.000
  0.000  0.000  0.013  0.398  0.000
  0.000  0.013  0.000  0.000  0.398
atom    4   Tr[ns(na)] =   3.79550
    eigenvalues: 
  0.356  0.356  0.382  0.402  0.402
    eigenvectors:
  0.000  0.000  1.000  0.000  0.000
  0.661  0.261  0.000  0.059  0.019
  0.261  0.660  0.000  0.019  0.060
  0.023  0.056  0.000  0.234  0.688
  0.056  0.023  0.000  0.688  0.233
    occupations:
  0.382  0.000  0.000  0.000  0.000
  0.000  0.359  0.000  0.000  0.012
  0.000  0.000  0.359  0.013  0.000
  0.000  0.000  0.013  0.398  0.000
  0.000  0.012  0.000  0.000  0.398
atom    5   Tr[ns(na)] =   5.43407
    eigenvalues: 
  0.842  0.930  0.945
    eigenvectors:
  0.338  0.000  0.662
  0.496  0.250  0.253
  0.165  0.750  0.085
    occupations:
  0.910 -0.042  0.024
 -0.042  0.890  0.023
  0.024  0.023  0.917
atom    6   Tr[ns(na)] =   5.43098
    eigenvalues: 
  0.842  0.929  0.945
    eigenvectors:
  0.339  0.000  0.661
  0.496  0.249  0.255
  0.165  0.751  0.084
    occupations:
  0.910  0.042  0.024
  0.042  0.890 -0.023
  0.024 -0.023  0.916
atom    7   Tr[ns(na)] =   5.43098
    eigenvalues: 
  0.842  0.929  0.945
    eigenvectors:
  0.339  0.000  0.661
  0.000  1.000  0.000
  0.661  0.000  0.339
    occupations:
  0.910  0.000 -0.049
  0.000  0.929  0.000
 -0.049  0.000  0.876
atom    8   Tr[ns(na)] =   5.43115
    eigenvalues: 
  0.842  0.929  0.945
    eigenvectors:
  0.339  0.000  0.661
  0.496  0.250  0.253
  0.165  0.750  0.085
    occupations:
  0.910 -0.042  0.024
 -0.042  0.890  0.023
  0.024  0.023  0.916
atom    9   Tr[ns(na)] =   5.43095
    eigenvalues: 
  0.841  0.929  0.945
    eigenvectors:
  0.339  0.000  0.661
  0.496  0.249  0.255
  0.166  0.751  0.084
    occupations:
  0.910  0.042  0.024
  0.042  0.890 -0.023
  0.024 -0.023  0.916
atom   10   Tr[ns(na)] =   5.43095
    eigenvalues: 
  0.841  0.929  0.945
    eigenvectors:
  0.339  0.000  0.661
  0.000  1.000  0.000
  0.661  0.000  0.339
    occupations:
  0.910  0.000 -0.049
  0.000  0.929  0.000
 -0.049  0.000  0.876
N of occupied +U levels =  56.2839013
 --- exit write_ns ---
 --- in v_hubbard ---
Hubbard energy    0.1444
 -------

     total cpu time spent up to now is      321.4 secs

     total energy              =    -538.17603045 Ry
     Harris-Foulkes estimate   =    -538.17601860 Ry
     estimated scf accuracy    <       0.00000009 Ry

     iteration # 10     ecut=    30.00 Ry     beta=0.20
     Davidson diagonalization with overlap
     ethr =  1.23E-10,  avg # of iterations =  2.0
 --- enter write_ns ---
 LDA+U parameters:
U( 1)     =  2.00000000
alpha( 1) =  0.00000000
U( 2)     =  0.00000000
alpha( 2) =  0.00000000
U( 3)     =  0.00000000
alpha( 3) = -0.05000000
U( 4)     =  0.00000000
alpha( 4) =  0.00000000
atom    1   Tr[ns(na)] =   8.05279
    eigenvalues: 
  0.546  0.546  0.978  0.978  0.979
    eigenvectors:
  0.000  0.000  0.007  0.000  0.993
  0.555  0.102  0.202  0.139  0.002
  0.102  0.555  0.139  0.203  0.000
  0.168  0.175  0.498  0.157  0.002
  0.175  0.168  0.155  0.500  0.002
    occupations:
  0.979  0.000  0.000  0.000  0.000
  0.000  0.694  0.000 -0.074  0.191
  0.000  0.000  0.694  0.191  0.074
  0.000 -0.074  0.191  0.830  0.000
  0.000  0.191  0.074  0.000  0.830
atom    2   Tr[ns(na)] =   8.05140
    eigenvalues: 
  0.544  0.545  0.979  0.979  0.980
    eigenvectors:
  0.000  0.000  0.007  0.000  0.993
  0.422  0.235  0.300  0.041  0.002
  0.235  0.422  0.041  0.301  0.001
  0.025  0.318  0.000  0.657  0.000
  0.318  0.025  0.652  0.000  0.005
    occupations:
  0.980  0.000  0.000  0.000  0.000
  0.000  0.693  0.000  0.074  0.193
  0.000  0.000  0.693  0.192 -0.074
  0.000  0.074  0.192  0.830  0.000
  0.000  0.193 -0.074  0.000  0.830
atom    3   Tr[ns(na)] =   3.79549
    eigenvalues: 
  0.356  0.356  0.382  0.402  0.402
    eigenvectors:
  0.000  0.000  1.000  0.000  0.000
  0.228  0.693  0.000  0.065  0.014
  0.693  0.228  0.000  0.014  0.065
  0.059  0.020  0.000  0.171  0.750
  0.020  0.059  0.000  0.750  0.171
    occupations:
  0.382  0.000  0.000  0.000  0.000
  0.000  0.359  0.000  0.000  0.013
  0.000  0.000  0.359  0.013  0.000
  0.000  0.000  0.013  0.398  0.000
  0.000  0.013  0.000  0.000  0.398
atom    4   Tr[ns(na)] =   3.79550
    eigenvalues: 
  0.356  0.356  0.382  0.402  0.402
    eigenvectors:
  0.000  0.000  1.000  0.000  0.000
  0.665  0.257  0.000  0.059  0.019
  0.257  0.664  0.000  0.019  0.060
  0.022  0.056  0.000  0.231  0.690
  0.056  0.023  0.000  0.690  0.231
    occupations:
  0.382  0.000  0.000  0.000  0.000
  0.000  0.359  0.000  0.000  0.012
  0.000  0.000  0.359  0.013  0.000
  0.000  0.000  0.013  0.398  0.000
  0.000  0.012  0.000  0.000  0.398
atom    5   Tr[ns(na)] =   5.43402
    eigenvalues: 
  0.842  0.930  0.945
    eigenvectors:
  0.338  0.000  0.662
  0.496  0.250  0.253
  0.165  0.750  0.085
    occupations:
  0.910 -0.042  0.024
 -0.042  0.890  0.023
  0.024  0.023  0.917
atom    6   Tr[ns(na)] =   5.43092
    eigenvalues: 
  0.841  0.929  0.945
    eigenvectors:
  0.339  0.000  0.661
  0.496  0.249  0.255
  0.165  0.751  0.084
    occupations:
  0.910  0.042  0.024
  0.042  0.890 -0.023
  0.024 -0.023  0.916
atom    7   Tr[ns(na)] =   5.43092
    eigenvalues: 
  0.841  0.929  0.945
    eigenvectors:
  0.339  0.000  0.661
  0.000  1.000  0.000
  0.661  0.000  0.339
    occupations:
  0.910  0.000 -0.049
  0.000  0.929  0.000
 -0.049  0.000  0.876
atom    8   Tr[ns(na)] =   5.43110
    eigenvalues: 
  0.841  0.929  0.945
    eigenvectors:
  0.339  0.000  0.661
  0.496  0.250  0.253
  0.165  0.750  0.085
    occupations:
  0.910 -0.042  0.024
 -0.042  0.890  0.023
  0.024  0.023  0.916
atom    9   Tr[ns(na)] =   5.43089
    eigenvalues: 
  0.841  0.929  0.945
    eigenvectors:
  0.339  0.000  0.661
  0.496  0.249  0.255
  0.166  0.751  0.084
    occupations:
  0.910  0.042  0.024
  0.042  0.890 -0.023
  0.024 -0.023  0.916
atom   10   Tr[ns(na)] =   5.43089
    eigenvalues: 
  0.841  0.929  0.945
    eigenvectors:
  0.339  0.000  0.661
  0.000  1.000  0.000
  0.661  0.000  0.339
    occupations:
  0.910  0.000 -0.049
  0.000  0.929  0.000
 -0.049  0.000  0.876
N of occupied +U levels =  56.2839187
 --- exit write_ns ---
 --- in v_hubbard ---
Hubbard energy    0.1444
 -------

     total cpu time spent up to now is      348.9 secs

     total energy              =    -538.17603804 Ry
     Harris-Foulkes estimate   =    -538.17603046 Ry
     estimated scf accuracy    <       0.00000003 Ry

     iteration # 11     ecut=    30.00 Ry     beta=0.20
     Davidson diagonalization with overlap
     ethr =  4.00E-11,  avg # of iterations =  2.0
 --- enter write_ns ---
 LDA+U parameters:
U( 1)     =  2.00000000
alpha( 1) =  0.00000000
U( 2)     =  0.00000000
alpha( 2) =  0.00000000
U( 3)     =  0.00000000
alpha( 3) = -0.05000000
U( 4)     =  0.00000000
alpha( 4) =  0.00000000
atom    1   Tr[ns(na)] =   8.05267
    eigenvalues: 
  0.546  0.546  0.978  0.978  0.979
    eigenvectors:
  0.000  0.000  0.007  0.000  0.993
  0.555  0.102  0.202  0.139  0.002
  0.102  0.555  0.139  0.203  0.000
  0.168  0.175  0.498  0.157  0.002
  0.175  0.168  0.155  0.500  0.002
    occupations:
  0.979  0.000  0.000  0.000  0.000
  0.000  0.694  0.000 -0.074  0.191
  0.000  0.000  0.694  0.191  0.074
  0.000 -0.074  0.191  0.830  0.000
  0.000  0.191  0.074  0.000  0.830
atom    2   Tr[ns(na)] =   8.05131
    eigenvalues: 
  0.544  0.545  0.979  0.979  0.980
    eigenvectors:
  0.000  0.000  0.007  0.000  0.993
  0.422  0.235  0.300  0.041  0.002
  0.235  0.422  0.041  0.301  0.001
  0.025  0.318  0.000  0.657  0.000
  0.318  0.025  0.652  0.000  0.005
    occupations:
  0.980  0.000  0.000  0.000  0.000
  0.000  0.693  0.000  0.074  0.193
  0.000  0.000  0.693  0.192 -0.074
  0.000  0.074  0.192  0.830  0.000
  0.000  0.193 -0.074  0.000  0.830
atom    3   Tr[ns(na)] =   3.79547
    eigenvalues: 
  0.356  0.356  0.382  0.402  0.402
    eigenvectors:
  0.000  0.000  1.000  0.000  0.000
  0.228  0.693  0.000  0.065  0.014
  0.693  0.228  0.000  0.014  0.065
  0.059  0.020  0.000  0.170  0.751
  0.020  0.059  0.000  0.751  0.170
    occupations:
  0.382  0.000  0.000  0.000  0.000
  0.000  0.359  0.000  0.000  0.013
  0.000  0.000  0.359  0.013  0.000
  0.000  0.000  0.013  0.398  0.000
  0.000  0.013  0.000  0.000  0.398
atom    4   Tr[ns(na)] =   3.79549
    eigenvalues: 
  0.356  0.356  0.382  0.402  0.402
    eigenvectors:
  0.000  0.000  1.000  0.000  0.000
  0.668  0.254  0.000  0.059  0.019
  0.254  0.667  0.000  0.019  0.060
  0.022  0.057  0.000  0.231  0.690
  0.056  0.022  0.000  0.691  0.231
    occupations:
  0.382  0.000  0.000  0.000  0.000
  0.000  0.359  0.000  0.000  0.012
  0.000  0.000  0.359  0.013  0.000
  0.000  0.000  0.013  0.398  0.000
  0.000  0.012  0.000  0.000  0.398
atom    5   Tr[ns(na)] =   5.43406
    eigenvalues: 
  0.842  0.930  0.945
    eigenvectors:
  0.338  0.000  0.662
  0.496  0.250  0.253
  0.165  0.750  0.085
    occupations:
  0.910 -0.042  0.024
 -0.042  0.890  0.023
  0.024  0.023  0.917
atom    6   Tr[ns(na)] =   5.43096
    eigenvalues: 
  0.841  0.929  0.945
    eigenvectors:
  0.339  0.000  0.661
  0.496  0.249  0.255
  0.165  0.751  0.084
    occupations:
  0.910  0.042  0.024
  0.042  0.890 -0.023
  0.024 -0.023  0.916
atom    7   Tr[ns(na)] =   5.43096
    eigenvalues: 
  0.841  0.929  0.945
    eigenvectors:
  0.339  0.000  0.661
  0.000  1.000  0.000
  0.661  0.000  0.339
    occupations:
  0.910  0.000 -0.049
  0.000  0.929  0.000
 -0.049  0.000  0.876
atom    8   Tr[ns(na)] =   5.43113
    eigenvalues: 
  0.842  0.929  0.945
    eigenvectors:
  0.339  0.000  0.661
  0.496  0.250  0.253
  0.165  0.750  0.085
    occupations:
  0.910 -0.042  0.024
 -0.042  0.890  0.023
  0.024  0.023  0.916
atom    9   Tr[ns(na)] =   5.43093
    eigenvalues: 
  0.841  0.929  0.945
    eigenvectors:
  0.339  0.000  0.661
  0.496  0.249  0.255
  0.166  0.751  0.084
    occupations:
  0.910  0.042  0.024
  0.042  0.890 -0.023
  0.024 -0.023  0.916
atom   10   Tr[ns(na)] =   5.43093
    eigenvalues: 
  0.841  0.929  0.945
    eigenvectors:
  0.339  0.000  0.661
  0.000  1.000  0.000
  0.661  0.000  0.339
    occupations:
  0.910  0.000 -0.049
  0.000  0.929  0.000
 -0.049  0.000  0.876
N of occupied +U levels =  56.2838826
 --- exit write_ns ---
 --- in v_hubbard ---
Hubbard energy    0.1444
 -------

     total cpu time spent up to now is      378.7 secs

     End of self-consistent calculation

          k = 0.0000 0.0000 0.0000 (  2175 PWs)   bands (ev):

   -19.8001 -19.6269  -6.5473  -5.8413  -5.8379  -5.8269  -5.8170  -5.4824
    -3.7956  -3.2632  -3.2244  -3.2236  -3.0278  -3.0275   5.1791   6.8565
     6.8607   7.4200   7.4222   7.4672   7.5057   7.5113   7.7047   9.2866
     9.5024   9.6096   9.6144   9.6882   9.6889  10.1025  10.1039  10.3507
    10.4524  10.4536  10.6679  11.2883  11.2894  11.7583  12.0538  12.0550
    14.7545  14.7558  15.4250  15.4258  16.1966  16.7847

     occupation numbers 
     0.0313   0.0313   0.0313   0.0313   0.0313   0.0313   0.0313   0.0313
     0.0313   0.0313   0.0313   0.0313   0.0313   0.0313   0.0313   0.0313
     0.0313   0.0313   0.0313   0.0313   0.0313   0.0313   0.0313   0.0313
     0.0312   0.0312   0.0312   0.0312   0.0312   0.0312   0.0312   0.0312
     0.0312   0.0312   0.0312   0.0306   0.0306   0.0204   0.0083   0.0083
     0.0000   0.0000   0.0000   0.0000   0.0000   0.0000

          k =-0.2471-0.1427 0.1027 (  2181 PWs)   bands (ev):

   -19.7735 -19.6565  -6.7263  -6.2909  -5.9445  -5.8507  -5.6121  -5.4789
    -3.6008  -3.3962  -2.9359  -2.9071  -2.8532  -2.7630   5.5384   6.8522
     6.9586   6.9746   7.0167   7.3984   7.4305   7.5133   7.6177   8.4266
     8.4763   9.0653   9.6295   9.7458   9.7686   9.9948  10.3398  10.3500
    10.5259  10.5298  10.6570  11.4441  11.5114  11.5503  12.3135  12.3826
    14.2996  14.3094  15.8135  16.0680  16.9711  17.2651

     occupation numbers 
     0.0625   0.0625   0.0625   0.0625   0.0625   0.0625   0.0625   0.0625
     0.0625   0.0625   0.0625   0.0625   0.0625   0.0625   0.0625   0.0625
     0.0625   0.0625   0.0625   0.0625   0.0625   0.0625   0.0625   0.0625
     0.0625   0.0625   0.0625   0.0625   0.0625   0.0625   0.0625   0.0625
     0.0625   0.0625   0.0625   0.0582   0.0559   0.0543   0.0040   0.0024
     0.0000   0.0000   0.0000   0.0000   0.0000   0.0000

          k = 0.4942 0.2853-0.2053 (  2202 PWs)   bands (ev):

   -19.7169 -19.7162  -6.7270  -6.7132  -5.9629  -5.9582  -5.5266  -5.5160
    -3.3855  -3.3839  -2.7941  -2.7909  -2.5096  -2.5073   6.0217   6.0330
     7.1354   7.1510   7.2058   7.2201   7.4767   7.5084   7.6887   7.7105
     7.9016   7.9271   9.4681   9.4717   9.8571   9.8658  10.2644  10.2740
    10.9180  10.9296  11.0425  11.0563  11.2665  11.2788  13.2822  13.3154
    13.3666  13.4012  16.8303  16.8363  17.1292  17.1333

     occupation numbers 
     0.0313   0.0313   0.0313   0.0313   0.0313   0.0313   0.0313   0.0313
     0.0313   0.0313   0.0313   0.0313   0.0313   0.0313   0.0313   0.0313
     0.0313   0.0313   0.0313   0.0313   0.0313   0.0313   0.0313   0.0313
     0.0313   0.0313   0.0313   0.0313   0.0312   0.0312   0.0312   0.0312
     0.0312   0.0312   0.0312   0.0312   0.0307   0.0306   0.0000   0.0000
     0.0000   0.0000   0.0000   0.0000   0.0000   0.0000

          k =-0.2471 0.1427 0.2053 (  2195 PWs)   bands (ev):

   -19.7674 -19.6627  -6.8551  -6.2353  -6.0692  -5.8250  -5.6519  -5.4643
    -3.4180  -3.2653  -3.1051  -2.8959  -2.8213  -2.5626   5.5716   6.7590
     6.7702   6.8590   7.1995   7.4406   7.4785   7.5089   7.5520   8.5225
     8.5828   8.7813   9.2806   9.6279   9.9257  10.0269  10.0294  10.1421
    10.2692  10.9749  11.1115  11.1306  11.4660  11.5434  11.9585  12.7239
    13.6253  14.7722  15.9902  16.1922  17.0351  17.5362

     occupation numbers 
     0.0625   0.0625   0.0625   0.0625   0.0625   0.0625   0.0625   0.0625
     0.0625   0.0625   0.0625   0.0625   0.0625   0.0625   0.0625   0.0625
     0.0625   0.0625   0.0625   0.0625   0.0625   0.0625   0.0625   0.0625
     0.0625   0.0625   0.0625   0.0625   0.0625   0.0625   0.0625   0.0625
     0.0625   0.0624   0.0622   0.0622   0.0575   0.0546   0.0240   0.0001
     0.0000   0.0000   0.0000   0.0000   0.0000   0.0000

          k = 0.4942 0.5706-0.1027 (  2198 PWs)   bands (ev):

   -19.7319 -19.7008  -6.9583  -6.6451  -6.1321  -5.8857  -5.5092  -5.3872
    -3.3080  -3.2557  -2.8783  -2.7105  -2.5295  -2.3874   5.8764   6.2101
     6.5802   6.9517   7.1588   7.3135   7.4137   7.6112   7.6566   7.8276
     8.1412   8.7557   9.0191   9.2803   9.5953   9.7902   9.9025  10.3379
    10.5728  11.0393  11.1497  11.2248  11.3596  11.4323  12.3058  12.7305
    13.4157  14.3499  16.9024  17.1120  17.3069  18.0126

     occupation numbers 
     0.0625   0.0625   0.0625   0.0625   0.0625   0.0625   0.0625   0.0625
     0.0625   0.0625   0.0625   0.0625   0.0625   0.0625   0.0625   0.0625
     0.0625   0.0625   0.0625   0.0625   0.0625   0.0625   0.0625   0.0625
     0.0625   0.0625   0.0625   0.0625   0.0625   0.0625   0.0625   0.0625
     0.0625   0.0624   0.0621   0.0617   0.0601   0.0585   0.0042   0.0001
     0.0000   0.0000   0.0000   0.0000   0.0000   0.0000

          k = 0.2471 0.4280 0.0000 (  2203 PWs)   bands (ev):

   -19.7429 -19.6897  -6.8448  -6.6421  -6.0440  -5.9830  -5.4418  -5.3670
    -3.5231  -3.2956  -2.8033  -2.7093  -2.5703  -2.5622   5.8591   6.2558
     6.8170   7.0591   7.1517   7.2341   7.3976   7.4785   7.5427   7.9140
     8.1490   8.9059   9.1212   9.3797   9.7515   9.7676  10.0464  10.3428
    10.8828  10.9119  10.9896  11.1756  11.2025  11.5284  12.2280  13.3114
    13.3861  14.1433  16.4328  16.9908  17.4190  17.9230

     occupation numbers 
     0.0625   0.0625   0.0625   0.0625   0.0625   0.0625   0.0625   0.0625
     0.0625   0.0625   0.0625   0.0625   0.0625   0.0625   0.0625   0.0625
     0.0625   0.0625   0.0625   0.0625   0.0625   0.0625   0.0625   0.0625
     0.0625   0.0625   0.0625   0.0625   0.0625   0.0625   0.0625   0.0625
     0.0625   0.0625   0.0624   0.0620   0.0619   0.0552   0.0068   0.0000
     0.0000   0.0000   0.0000   0.0000   0.0000   0.0000

          k = 0.4942-0.2853-0.4107 (  2202 PWs)   bands (ev):

   -19.7343 -19.6981  -7.1701  -6.4550  -6.2425  -5.9595  -5.5250  -5.2949
    -3.1962  -3.1227  -3.0472  -2.6525  -2.4829  -2.2247   5.7850   6.0982
     6.2222   6.8505   7.1448   7.2545   7.5518   7.6487   8.1539   8.2226
     8.2326   8.2956   8.5982   9.3996   9.6652   9.8501  10.0239  10.0621
    10.4231  10.9354  11.1009  11.2626  11.3948  11.5613  11.8877  12.4179
    13.3170  14.7855  17.0405  17.2622  17.5183  17.6090

     occupation numbers 
     0.0313   0.0313   0.0313   0.0313   0.0313   0.0313   0.0313   0.0313
     0.0313   0.0313   0.0313   0.0313   0.0313   0.0313   0.0313   0.0313
     0.0313   0.0313   0.0313   0.0313   0.0313   0.0313   0.0313   0.0313
     0.0313   0.0313   0.0313   0.0313   0.0312   0.0312   0.0312   0.0312
     0.0312   0.0312   0.0311   0.0307   0.0297   0.0269   0.0150   0.0009
     0.0000   0.0000   0.0000   0.0000   0.0000   0.0000

          k = 0.0000 0.0000 0.3080 (  2187 PWs)   bands (ev):

   -19.7732 -19.6569  -6.6146  -5.9821  -5.9341  -5.9271  -5.8446  -5.8366
    -3.2068  -3.1209  -3.1196  -2.9696  -2.8991  -2.8980   5.5984   6.9535
     6.9582   7.1163   7.1279   7.3424   7.3461   7.5507   7.5550   8.6387
     8.6403   9.1416   9.4300   9.5824   9.5877   9.7582  10.1122  10.1171
    10.6528  10.6541  10.8069  11.4788  11.4797  11.5540  12.2879  12.2887
    14.2606  14.2619  15.9080  15.9090  16.8778  17.4786

     occupation numbers 
     0.0625   0.0625   0.0625   0.0625   0.0625   0.0625   0.0625   0.0625
     0.0625   0.0625   0.0625   0.0625   0.0625   0.0625   0.0625   0.0625
     0.0625   0.0625   0.0625   0.0625   0.0625   0.0625   0.0625   0.0625
     0.0625   0.0625   0.0625   0.0625   0.0625   0.0625   0.0625   0.0625
     0.0625   0.0625   0.0625   0.0571   0.0571   0.0541   0.0047   0.0047
     0.0000   0.0000   0.0000   0.0000   0.0000   0.0000

          k = 0.7412 0.4280 0.0000 (  2204 PWs)   bands (ev):

   -19.7423 -19.6905  -6.7328  -6.6014  -6.1449  -5.8317  -5.6831  -5.5454
    -3.1783  -3.0932  -3.0461  -2.6781  -2.6586  -2.5858   5.9050   6.4664
     6.7946   7.0853   7.1624   7.2643   7.3720   7.4678   7.6726   7.8602
     8.1966   8.7885   9.1461   9.4625   9.5626   9.6704   9.8312  10.2097
    10.8756  10.9920  11.0213  11.2419  11.2634  11.4019  12.2301  13.2332
    13.3011  14.1705  16.6861  16.7211  17.5890  17.7914

     occupation numbers 
     0.0625   0.0625   0.0625   0.0625   0.0625   0.0625   0.0625   0.0625
     0.0625   0.0625   0.0625   0.0625   0.0625   0.0625   0.0625   0.0625
     0.0625   0.0625   0.0625   0.0625   0.0625   0.0625   0.0625   0.0625
     0.0625   0.0625   0.0625   0.0625   0.0625   0.0625   0.0625   0.0625
     0.0625   0.0624   0.0624   0.0616   0.0614   0.0593   0.0067   0.0000
     0.0000   0.0000   0.0000   0.0000   0.0000   0.0000

          k = 0.4942 0.2853 0.1027 (  2211 PWs)   bands (ev):

   -19.7327 -19.7007  -6.9699  -6.5431  -6.3217  -5.6997  -5.6248  -5.3560
    -3.3213  -3.1664  -3.0341  -2.6039  -2.5633  -2.3788   5.9025   6.1895
     6.5289   6.9419   7.1940   7.1969   7.4466   7.6082   7.7313   7.8171
     8.1841   8.8320   9.0225   9.3806   9.4517   9.6530   9.9886  10.3285
    10.5975  11.1024  11.2380  11.2466  11.2950  11.3201  12.2595  12.7453
    13.4638  14.3304  16.8826  16.9326  17.5782  17.9249

     occupation numbers 
     0.0625   0.0625   0.0625   0.0625   0.0625   0.0625   0.0625   0.0625
     0.0625   0.0625   0.0625   0.0625   0.0625   0.0625   0.0625   0.0625
     0.0625   0.0625   0.0625   0.0625   0.0625   0.0625   0.0625   0.0625
     0.0625   0.0625   0.0625   0.0625   0.0625   0.0625   0.0625   0.0625
     0.0625   0.0623   0.0616   0.0616   0.0611   0.0608   0.0056   0.0001
     0.0000   0.0000   0.0000   0.0000   0.0000   0.0000

          k = 0.7412-0.4280-0.3080 (  2210 PWs)   bands (ev):

   -19.7320 -19.7009  -6.9111  -6.4507  -6.3011  -5.7930  -5.7560  -5.4888
    -3.0722  -3.0547  -2.9648  -2.7317  -2.6245  -2.4302   5.9765   6.3257
     6.5974   6.9230   7.1820   7.2487   7.4797   7.6293   7.7713   7.8408
     8.1531   8.8394   8.8860   9.4408   9.4907   9.4987   9.6407  10.1843
    10.6828  11.1126  11.2114  11.2365  11.3531  11.3857  12.2189  12.6968
    13.4105  14.3012  17.0576  17.0662  17.5464  17.9009

     occupation numbers 
     0.0625   0.0625   0.0625   0.0625   0.0625   0.0625   0.0625   0.0625
     0.0625   0.0625   0.0625   0.0625   0.0625   0.0625   0.0625   0.0625
     0.0625   0.0625   0.0625   0.0625   0.0625   0.0625   0.0625   0.0625
     0.0625   0.0625   0.0625   0.0625   0.0625   0.0625   0.0625   0.0625
     0.0625   0.0622   0.0618   0.0616   0.0603   0.0596   0.0072   0.0001
     0.0000   0.0000   0.0000   0.0000   0.0000   0.0000

          k = 0.4942-0.5706-0.2053 (  2206 PWs)   bands (ev):

   -19.7169 -19.7167  -6.8879  -6.8757  -6.0377  -6.0276  -5.4308  -5.4240
    -3.1541  -3.1537  -2.8159  -2.8140  -2.3860  -2.3834   6.0461   6.0605
     6.7229   6.7299   7.0671   7.0722   7.3663   7.3726   7.8706   7.9052
     8.7619   8.7667   8.8624   8.8711   9.5097   9.5141  10.0662  10.0697
    10.8897  10.8908  11.1056  11.1118  11.4108  11.4159  12.2755  12.2788
    13.9926  14.0021  17.4239  17.4251  17.8662  17.8679

     occupation numbers 
     0.0625   0.0625   0.0625   0.0625   0.0625   0.0625   0.0625   0.0625
     0.0625   0.0625   0.0625   0.0625   0.0625   0.0625   0.0625   0.0625
     0.0625   0.0625   0.0625   0.0625   0.0625   0.0625   0.0625   0.0625
     0.0625   0.0625   0.0625   0.0625   0.0625   0.0625   0.0625   0.0625
     0.0625   0.0625   0.0623   0.0622   0.0591   0.0590   0.0051   0.0050
     0.0000   0.0000   0.0000   0.0000   0.0000   0.0000

          k = 0.0000 0.0000-0.6160 (  2186 PWs)   bands (ev):

   -19.7171 -19.7164  -6.5154  -6.4980  -5.9442  -5.9430  -5.9412  -5.9288
    -2.8952  -2.8944  -2.8933  -2.8913  -2.7085  -2.7069   6.2529   6.2651
     7.1479   7.1544   7.1682   7.1717   7.5762   7.6038   7.8280   7.8298
     7.8555   7.8571   9.6050   9.6074   9.6155   9.6165   9.6771   9.6894
    11.1012  11.1135  11.1715  11.1733  11.1851  11.1866  13.2220  13.2233
    13.2553  13.2563  17.1140  17.1150  17.1165  17.1171

     occupation numbers 
     0.0313   0.0313   0.0313   0.0313   0.0313   0.0313   0.0313   0.0313
     0.0313   0.0313   0.0313   0.0313   0.0313   0.0313   0.0313   0.0313
     0.0313   0.0313   0.0313   0.0313   0.0313   0.0313   0.0313   0.0313
     0.0313   0.0313   0.0312   0.0312   0.0312   0.0312   0.0312   0.0312
     0.0311   0.0311   0.0310   0.0310   0.0310   0.0310   0.0000   0.0000
     0.0000   0.0000   0.0000   0.0000   0.0000   0.0000

          k =-0.2471 0.1427-0.1027 (  2181 PWs)   bands (ev):

   -19.7735 -19.6565  -6.7264  -6.2910  -5.9452  -5.8492  -5.6118  -5.4800
    -3.6002  -3.3965  -2.9357  -2.9074  -2.8535  -2.7627   5.5380   6.8511
     6.9571   6.9775   7.0159   7.3974   7.4321   7.5172   7.6141   8.4274
     8.4747   9.0666   9.6326   9.7419   9.7691   9.9944  10.3394  10.3497
    10.5270  10.5284  10.6577  11.4442  11.5112  11.5508  12.3141  12.3819
    14.3005  14.3084  15.8140  16.0671  16.9708  17.2645

     occupation numbers 
     0.0625   0.0625   0.0625   0.0625   0.0625   0.0625   0.0625   0.0625
     0.0625   0.0625   0.0625   0.0625   0.0625   0.0625   0.0625   0.0625
     0.0625   0.0625   0.0625   0.0625   0.0625   0.0625   0.0625   0.0625
     0.0625   0.0625   0.0625   0.0625   0.0625   0.0625   0.0625   0.0625
     0.0625   0.0625   0.0625   0.0582   0.0559   0.0542   0.0039   0.0024
     0.0000   0.0000   0.0000   0.0000   0.0000   0.0000

          k = 0.0000 0.2853 0.1027 (  2181 PWs)   bands (ev):

   -19.7735 -19.6565  -6.7263  -6.2908  -5.9446  -5.8506  -5.6120  -5.4790
    -3.6008  -3.3962  -2.9359  -2.9071  -2.8532  -2.7630   5.5384   6.8522
     6.9585   6.9745   7.0169   7.3984   7.4305   7.5134   7.6177   8.4265
     8.4764   9.0653   9.6293   9.7458   9.7686   9.9947  10.3394  10.3504
    10.5264  10.5293  10.6569  11.4441  11.5113  11.5504  12.3135  12.3826
    14.2996  14.3093  15.8135  16.0680  16.9711  17.2651

     occupation numbers 
     0.0625   0.0625   0.0625   0.0625   0.0625   0.0625   0.0625   0.0625
     0.0625   0.0625   0.0625   0.0625   0.0625   0.0625   0.0625   0.0625
     0.0625   0.0625   0.0625   0.0625   0.0625   0.0625   0.0625   0.0625
     0.0625   0.0625   0.0625   0.0625   0.0625   0.0625   0.0625   0.0625
     0.0625   0.0625   0.0625   0.0582   0.0559   0.0543   0.0040   0.0024
     0.0000   0.0000   0.0000   0.0000   0.0000   0.0000

          k = 0.4942-0.2853 0.2053 (  2202 PWs)   bands (ev):

   -19.7169 -19.7162  -6.7274  -6.7130  -5.9639  -5.9568  -5.5255  -5.5175
    -3.3859  -3.3830  -2.7938  -2.7916  -2.5096  -2.5071   6.0207   6.0330
     7.1281   7.1484   7.2086   7.2244   7.4838   7.5091   7.6853   7.7105
     7.9002   7.9276   9.4690   9.4743   9.8533   9.8647  10.2645  10.2752
    10.9173  10.9295  11.0426  11.0557  11.2667  11.2802  13.2825  13.3164
    13.3662  13.4003  16.8311  16.8359  17.1287  17.1322

     occupation numbers 
     0.0313   0.0313   0.0313   0.0313   0.0313   0.0313   0.0313   0.0313
     0.0313   0.0313   0.0313   0.0313   0.0313   0.0313   0.0313   0.0313
     0.0313   0.0313   0.0313   0.0313   0.0313   0.0313   0.0313   0.0313
     0.0313   0.0313   0.0313   0.0313   0.0312   0.0312   0.0312   0.0312
     0.0312   0.0312   0.0312   0.0312   0.0307   0.0306   0.0000   0.0000
     0.0000   0.0000   0.0000   0.0000   0.0000   0.0000

          k = 0.0000-0.5706-0.2053 (  2202 PWs)   bands (ev):

   -19.7169 -19.7162  -6.7276  -6.7126  -5.9647  -5.9565  -5.5243  -5.5183
[...]
     0.0625   0.0625   0.0625   0.0625   0.0625   0.0625   0.0625   0.0625
     0.0625   0.0625   0.0625   0.0625   0.0625   0.0625   0.0625   0.0625
     0.0625   0.0624   0.0622   0.0622   0.0575   0.0546   0.0240   0.0001
     0.0000   0.0000   0.0000   0.0000   0.0000   0.0000

          k = 0.4942-0.5706 0.1027 (  2198 PWs)   bands (ev):

   -19.7323 -19.7011  -6.9541  -6.6453  -6.1288  -5.8933  -5.5146  -5.3812
    -3.3083  -3.2554  -2.8792  -2.7081  -2.5297  -2.3858   5.8679   6.2204
     6.5693   6.9497   7.1611   7.3061   7.4275   7.5987   7.6405   7.8468
     8.1471   8.7581   9.0195   9.2827   9.5895   9.7934   9.9028  10.3371
    10.5708  11.0375  11.1545  11.2218  11.3640  11.4317  12.3050  12.7301
    13.4175  14.3487  16.9043  17.1082  17.3072  18.0127

     occupation numbers 
     0.0625   0.0625   0.0625   0.0625   0.0625   0.0625   0.0625   0.0625
     0.0625   0.0625   0.0625   0.0625   0.0625   0.0625   0.0625   0.0625
     0.0625   0.0625   0.0625   0.0625   0.0625   0.0625   0.0625   0.0625
     0.0625   0.0625   0.0625   0.0625   0.0625   0.0625   0.0625   0.0625
     0.0625   0.0624   0.0621   0.0617   0.0601   0.0586   0.0042   0.0001
     0.0000   0.0000   0.0000   0.0000   0.0000   0.0000

          k =-0.7412 0.1427-0.1027 (  2198 PWs)   bands (ev):

   -19.7323 -19.7011  -6.9537  -6.6462  -6.1277  -5.8944  -5.5136  -5.3819
    -3.3075  -3.2555  -2.8791  -2.7091  -2.5291  -2.3861   5.8699   6.2167
     6.5735   6.9487   7.1569   7.3075   7.4173   7.6115   7.6555   7.8298
     8.1475   8.7531   9.0234   9.2836   9.5919   9.7927   9.9032  10.3353
    10.5712  11.0413  11.1492  11.2228  11.3601  11.4355  12.3053  12.7303
    13.4176  14.3489  16.9025  17.1110  17.3066  18.0124

     occupation numbers 
     0.0625   0.0625   0.0625   0.0625   0.0625   0.0625   0.0625   0.0625
     0.0625   0.0625   0.0625   0.0625   0.0625   0.0625   0.0625   0.0625
     0.0625   0.0625   0.0625   0.0625   0.0625   0.0625   0.0625   0.0625
     0.0625   0.0625   0.0625   0.0625   0.0625   0.0625   0.0625   0.0625
     0.0625   0.0624   0.0621   0.0617   0.0601   0.0584   0.0042   0.0001
     0.0000   0.0000   0.0000   0.0000   0.0000   0.0000

          k = 0.2471-0.7133-0.1027 (  2198 PWs)   bands (ev):

   -19.7323 -19.7011  -6.9535  -6.6464  -6.1272  -5.8948  -5.5140  -5.3814
    -3.3075  -3.2556  -2.8789  -2.7096  -2.5291  -2.3860   5.8703   6.2167
     6.5742   6.9481   7.1562   7.3086   7.4176   7.6121   7.6545   7.8292
     8.1477   8.7532   9.0224   9.2829   9.5943   9.7909   9.9045  10.3348
    10.5712  11.0406  11.1496  11.2253  11.3584  11.4350  12.3053  12.7303
    13.4176  14.3489  16.9017  17.1122  17.3067  18.0129

     occupation numbers 
     0.0625   0.0625   0.0625   0.0625   0.0625   0.0625   0.0625   0.0625
     0.0625   0.0625   0.0625   0.0625   0.0625   0.0625   0.0625   0.0625
     0.0625   0.0625   0.0625   0.0625   0.0625   0.0625   0.0625   0.0625
     0.0625   0.0625   0.0625   0.0625   0.0625   0.0625   0.0625   0.0625
     0.0625   0.0624   0.0621   0.0617   0.0602   0.0585   0.0042   0.0001
     0.0000   0.0000   0.0000   0.0000   0.0000   0.0000

          k =-0.7412-0.1427 0.1027 (  2198 PWs)   bands (ev):

   -19.7323 -19.7011  -6.9540  -6.6455  -6.1283  -5.8938  -5.5149  -5.3807
    -3.3083  -3.2555  -2.8790  -2.7085  -2.5297  -2.3856   5.8683   6.2204
     6.5700   6.9491   7.1604   7.3071   7.4281   7.5991   7.6395   7.8463
     8.1473   8.7582   9.0185   9.2820   9.5919   9.7916   9.9041  10.3366
    10.5708  11.0368  11.1548  11.2243  11.3622  11.4312  12.3051  12.7301
    13.4175  14.3487  16.9036  17.1093  17.3072  18.0131

     occupation numbers 
     0.0625   0.0625   0.0625   0.0625   0.0625   0.0625   0.0625   0.0625
     0.0625   0.0625   0.0625   0.0625   0.0625   0.0625   0.0625   0.0625
     0.0625   0.0625   0.0625   0.0625   0.0625   0.0625   0.0625   0.0625
     0.0625   0.0625   0.0625   0.0625   0.0625   0.0625   0.0625   0.0625
     0.0625   0.0624   0.0621   0.0617   0.0601   0.0586   0.0042   0.0001
     0.0000   0.0000   0.0000   0.0000   0.0000   0.0000

          k = 0.2471 0.7133 0.1027 (  2198 PWs)   bands (ev):

   -19.7319 -19.7008  -6.9587  -6.6442  -6.1332  -5.8846  -5.5101  -5.3865
    -3.3087  -3.2556  -2.8785  -2.7094  -2.5302  -2.3870   5.8744   6.2138
     6.5761   6.9526   7.1629   7.3121   7.4239   7.5985   7.6411   7.8452
     8.1407   8.7607   9.0151   9.2793   9.5929   9.7910   9.9020  10.3397
    10.5724  11.0355  11.1550  11.2237  11.3635  11.4285  12.3056  12.7303
    13.4156  14.3496  16.9043  17.1092  17.3074  18.0129

     occupation numbers 
     0.0625   0.0625   0.0625   0.0625   0.0625   0.0625   0.0625   0.0625
     0.0625   0.0625   0.0625   0.0625   0.0625   0.0625   0.0625   0.0625
     0.0625   0.0625   0.0625   0.0625   0.0625   0.0625   0.0625   0.0625
     0.0625   0.0625   0.0625   0.0625   0.0625   0.0625   0.0625   0.0625
     0.0625   0.0624   0.0621   0.0617   0.0601   0.0586   0.0042   0.0001
     0.0000   0.0000   0.0000   0.0000   0.0000   0.0000

          k = 0.2471-0.4280 0.0000 (  2203 PWs)   bands (ev):

   -19.7428 -19.6898  -6.8471  -6.6374  -6.0536  -5.9778  -5.4372  -5.3697
    -3.5223  -3.2956  -2.8023  -2.7114  -2.5712  -2.5610   5.8644   6.2527
     6.8194   7.0578   7.1466   7.2330   7.4015   7.4740   7.5449   7.9098
     8.1447   8.9121   9.1238   9.3891   9.7484   9.7664  10.0466  10.3410
    10.8812  10.9109  10.9887  11.1740  11.2025  11.5315  12.2280  13.3105
    13.3853  14.1449  16.4331  16.9898  17.4180  17.9233

     occupation numbers 
     0.0625   0.0625   0.0625   0.0625   0.0625   0.0625   0.0625   0.0625
     0.0625   0.0625   0.0625   0.0625   0.0625   0.0625   0.0625   0.0625
     0.0625   0.0625   0.0625   0.0625   0.0625   0.0625   0.0625   0.0625
     0.0625   0.0625   0.0625   0.0625   0.0625   0.0625   0.0625   0.0625
     0.0625   0.0625   0.0624   0.0620   0.0619   0.0551   0.0068   0.0000
     0.0000   0.0000   0.0000   0.0000   0.0000   0.0000

          k =-0.4942 0.0000 0.0000 (  2203 PWs)   bands (ev):

   -19.7428 -19.6898  -6.8471  -6.6374  -6.0536  -5.9778  -5.4372  -5.3697
    -3.5223  -3.2956  -2.8023  -2.7114  -2.5713  -2.5609   5.8643   6.2527
     6.8194   7.0575   7.1477   7.2323   7.4015   7.4738   7.5449   7.9099
     8.1447   8.9121   9.1238   9.3891   9.7481   9.7667  10.0466  10.3410
    10.8812  10.9109  10.9886  11.1740  11.2025  11.5315  12.2280  13.3105
    13.3853  14.1449  16.4331  16.9899  17.4180  17.9237

     occupation numbers 
     0.0625   0.0625   0.0625   0.0625   0.0625   0.0625   0.0625   0.0625
     0.0625   0.0625   0.0625   0.0625   0.0625   0.0625   0.0625   0.0625
     0.0625   0.0625   0.0625   0.0625   0.0625   0.0625   0.0625   0.0625
     0.0625   0.0625   0.0625   0.0625   0.0625   0.0625   0.0625   0.0625
     0.0625   0.0625   0.0624   0.0620   0.0619   0.0551   0.0068   0.0000
     0.0000   0.0000   0.0000   0.0000   0.0000   0.0000

          k = 0.4942 0.2853 0.4107 (  2202 PWs)   bands (ev):

   -19.7350 -19.6986  -7.1647  -6.4527  -6.2368  -5.9707  -5.5330  -5.2889
    -3.1959  -3.1223  -3.0470  -2.6505  -2.4817  -2.2230   5.7766   6.0909
     6.2320   6.8474   7.1383   7.2471   7.5467   7.6455   8.1534   8.2302
     8.2400   8.3062   8.5899   9.4099   9.6677   9.8499  10.0245  10.0588
    10.4193  10.9350  11.1025  11.2613  11.3942  11.5650  11.8873  12.4176
    13.3193  14.7845  17.0399  17.2619  17.5172  17.6081

     occupation numbers 
     0.0313   0.0313   0.0313   0.0313   0.0313   0.0313   0.0313   0.0313
     0.0313   0.0313   0.0313   0.0313   0.0313   0.0313   0.0313   0.0313
     0.0313   0.0313   0.0313   0.0313   0.0313   0.0313   0.0313   0.0313
     0.0313   0.0313   0.0313   0.0313   0.0312   0.0312   0.0312   0.0312
     0.0312   0.0312   0.0311   0.0307   0.0297   0.0268   0.0150   0.0009
     0.0000   0.0000   0.0000   0.0000   0.0000   0.0000

          k = 0.0000 0.5706-0.4107 (  2202 PWs)   bands (ev):

   -19.7350 -19.6986  -7.1647  -6.4527  -6.2369  -5.9707  -5.5330  -5.2889
    -3.1959  -3.1223  -3.0470  -2.6505  -2.4817  -2.2230   5.7766   6.0909
     6.2320   6.8474   7.1383   7.2472   7.5469   7.6453   8.1533   8.2302
     8.2400   8.3063   8.5899   9.4099   9.6677   9.8499  10.0244  10.0589
    10.4193  10.9350  11.1025  11.2614  11.3941  11.5650  11.8873  12.4176
    13.3193  14.7845  17.0399  17.2619  17.5172  17.6081

     occupation numbers 
     0.0313   0.0313   0.0313   0.0313   0.0313   0.0313   0.0313   0.0313
     0.0313   0.0313   0.0313   0.0313   0.0313   0.0313   0.0313   0.0313
     0.0313   0.0313   0.0313   0.0313   0.0313   0.0313   0.0313   0.0313
     0.0313   0.0313   0.0313   0.0313   0.0312   0.0312   0.0312   0.0312
     0.0312   0.0312   0.0311   0.0307   0.0297   0.0268   0.0150   0.0009
     0.0000   0.0000   0.0000   0.0000   0.0000   0.0000

          k = 0.7412-0.4280 0.0000 (  2204 PWs)   bands (ev):

   -19.7424 -19.6904  -6.7304  -6.6057  -6.1426  -5.8296  -5.6804  -5.5508
    -3.1790  -3.0932  -3.0461  -2.6770  -2.6574  -2.5870   5.8985   6.4709
     6.7898   7.0882   7.1661   7.2678   7.3697   7.4675   7.6738   7.8645
     8.2006   8.7825   9.1423   9.4546   9.5638   9.6716   9.8313  10.2118
    10.8771  10.9931  11.0225  11.2436  11.2627  11.3998  12.2300  13.2340
    13.3020  14.1690  16.6853  16.7216  17.5897  17.7916

     occupation numbers 
     0.0625   0.0625   0.0625   0.0625   0.0625   0.0625   0.0625   0.0625
     0.0625   0.0625   0.0625   0.0625   0.0625   0.0625   0.0625   0.0625
     0.0625   0.0625   0.0625   0.0625   0.0625   0.0625   0.0625   0.0625
     0.0625   0.0625   0.0625   0.0625   0.0625   0.0625   0.0625   0.0625
     0.0625   0.0624   0.0624   0.0616   0.0614   0.0593   0.0067   0.0000
     0.0000   0.0000   0.0000   0.0000   0.0000   0.0000

          k = 0.0000-0.8559 0.0000 (  2204 PWs)   bands (ev):

   -19.7423 -19.6905  -6.7328  -6.6014  -6.1449  -5.8316  -5.6831  -5.5455
    -3.1783  -3.0932  -3.0461  -2.6781  -2.6586  -2.5858   5.9050   6.4664
     6.7946   7.0856   7.1614   7.2651   7.3721   7.4678   7.6727   7.8600
     8.1966   8.7886   9.1461   9.4625   9.5625   9.6705   9.8311  10.2097
    10.8756  10.9920  11.0212  11.2420  11.2634  11.4019  12.2301  13.2332
    13.3011  14.1705  16.6861  16.7211  17.5890  17.7914

     occupation numbers 
     0.0625   0.0625   0.0625   0.0625   0.0625   0.0625   0.0625   0.0625
     0.0625   0.0625   0.0625   0.0625   0.0625   0.0625   0.0625   0.0625
     0.0625   0.0625   0.0625   0.0625   0.0625   0.0625   0.0625   0.0625
     0.0625   0.0625   0.0625   0.0625   0.0625   0.0625   0.0625   0.0625
     0.0625   0.0624   0.0624   0.0616   0.0614   0.0593   0.0067   0.0000
     0.0000   0.0000   0.0000   0.0000   0.0000   0.0000

          k = 0.4942-0.2853-0.1027 (  2211 PWs)   bands (ev):

   -19.7323 -19.7004  -6.9744  -6.5421  -6.3225  -5.6968  -5.6190  -5.3607
    -3.3214  -3.1665  -3.0342  -2.6047  -2.5633  -2.3802   5.9086   6.1823
     6.5354   6.9442   7.1952   7.2015   7.4469   7.6070   7.7323   7.8147
     8.1780   8.8355   9.0188   9.3823   9.4548   9.6442   9.9870  10.3321
    10.5997  11.1017  11.2374  11.2455  11.2957  11.3192  12.2600  12.7455
    13.4620  14.3314  16.8829  16.9324  17.5779  17.9251

     occupation numbers 
     0.0625   0.0625   0.0625   0.0625   0.0625   0.0625   0.0625   0.0625
     0.0625   0.0625   0.0625   0.0625   0.0625   0.0625   0.0625   0.0625
     0.0625   0.0625   0.0625   0.0625   0.0625   0.0625   0.0625   0.0625
     0.0625   0.0625   0.0625   0.0625   0.0625   0.0625   0.0625   0.0625
     0.0625   0.0623   0.0616   0.0616   0.0611   0.0608   0.0056   0.0001
     0.0000   0.0000   0.0000   0.0000   0.0000   0.0000

          k = 0.0000-0.5706 0.1027 (  2211 PWs)   bands (ev):

   -19.7327 -19.7007  -6.9699  -6.5431  -6.3218  -5.6998  -5.6247  -5.3560
    -3.3213  -3.1664  -3.0341  -2.6039  -2.5632  -2.3788   5.9026   6.1894
     6.5290   6.9419   7.1915   7.1994   7.4467   7.6082   7.7313   7.8168
     8.1842   8.8320   9.0225   9.3805   9.4518   9.6530   9.9886  10.3286
    10.5976  11.1024  11.2384  11.2464  11.2948  11.3202  12.2595  12.7453
    13.4638  14.3304  16.8826  16.9326  17.5782  17.9249

     occupation numbers 
     0.0625   0.0625   0.0625   0.0625   0.0625   0.0625   0.0625   0.0625
     0.0625   0.0625   0.0625   0.0625   0.0625   0.0625   0.0625   0.0625
     0.0625   0.0625   0.0625   0.0625   0.0625   0.0625   0.0625   0.0625
     0.0625   0.0625   0.0625   0.0625   0.0625   0.0625   0.0625   0.0625
     0.0625   0.0623   0.0616   0.0616   0.0611   0.0608   0.0056   0.0001
     0.0000   0.0000   0.0000   0.0000   0.0000   0.0000

          k = 0.7412 0.4280 0.3080 (  2210 PWs)   bands (ev):

   -19.7324 -19.7012  -6.9062  -6.4518  -6.2995  -5.7979  -5.7620  -5.4831
    -3.0720  -3.0549  -2.9653  -2.7305  -2.6238  -2.4288   5.9697   6.3343
     6.5908   6.9200   7.1783   7.2450   7.4802   7.6315   7.7694   7.8426
     8.1596   8.8358   8.8898   9.4417   9.4953   9.4979   9.6416  10.1809
    10.6812  11.1141  11.2116  11.2355  11.3548  11.3861  12.2186  12.6966
    13.4123  14.3002  17.0571  17.0661  17.5468  17.9006

     occupation numbers 
     0.0625   0.0625   0.0625   0.0625   0.0625   0.0625   0.0625   0.0625
     0.0625   0.0625   0.0625   0.0625   0.0625   0.0625   0.0625   0.0625
     0.0625   0.0625   0.0625   0.0625   0.0625   0.0625   0.0625   0.0625
     0.0625   0.0625   0.0625   0.0625   0.0625   0.0625   0.0625   0.0625
     0.0625   0.0622   0.0618   0.0616   0.0602   0.0596   0.0072   0.0001
     0.0000   0.0000   0.0000   0.0000   0.0000   0.0000

          k = 0.0000 0.8559-0.3080 (  2210 PWs)   bands (ev):

   -19.7324 -19.7012  -6.9062  -6.4518  -6.2995  -5.7979  -5.7620  -5.4831
    -3.0720  -3.0549  -2.9653  -2.7306  -2.6237  -2.4288   5.9697   6.3344
     6.5908   6.9200   7.1783   7.2450   7.4803   7.6314   7.7688   7.8435
     8.1594   8.8356   8.8899   9.4418   9.4958   9.4974   9.6416  10.1809
    10.6812  11.1141  11.2120  11.2351  11.3549  11.3861  12.2186  12.6966
    13.4123  14.3002  17.0571  17.0662  17.5468  17.9006

     occupation numbers 
     0.0625   0.0625   0.0625   0.0625   0.0625   0.0625   0.0625   0.0625
     0.0625   0.0625   0.0625   0.0625   0.0625   0.0625   0.0625   0.0625
     0.0625   0.0625   0.0625   0.0625   0.0625   0.0625   0.0625   0.0625
     0.0625   0.0625   0.0625   0.0625   0.0625   0.0625   0.0625   0.0625
     0.0625   0.0622   0.0618   0.0617   0.0602   0.0596   0.0072   0.0001
     0.0000   0.0000   0.0000   0.0000   0.0000   0.0000

          k = 0.2471 0.7133-0.2053 (  2206 PWs)   bands (ev):

   -19.7169 -19.7167  -6.8880  -6.8756  -6.0379  -6.0274  -5.4308  -5.4240
    -3.1541  -3.1537  -2.8158  -2.8140  -2.3862  -2.3832   6.0461   6.0604
     6.7237   6.7290   7.0671   7.0722   7.3664   7.3726   7.8710   7.9049
     8.7597   8.7690   8.8629   8.8704   9.5087   9.5150  10.0666  10.0694
    10.8892  10.8913  11.1070  11.1104  11.4113  11.4154  12.2755  12.2788
    13.9926  14.0021  17.4242  17.4248  17.8655  17.8686

     occupation numbers 
     0.0625   0.0625   0.0625   0.0625   0.0625   0.0625   0.0625   0.0625
     0.0625   0.0625   0.0625   0.0625   0.0625   0.0625   0.0625   0.0625
     0.0625   0.0625   0.0625   0.0625   0.0625   0.0625   0.0625   0.0625
     0.0625   0.0625   0.0625   0.0625   0.0625   0.0625   0.0625   0.0625
     0.0625   0.0625   0.0623   0.0622   0.0591   0.0590   0.0051   0.0050
     0.0000   0.0000   0.0000   0.0000   0.0000   0.0000

          k =-0.7412-0.1427-0.2053 (  2206 PWs)   bands (ev):

   -19.7172 -19.7171  -6.8865  -6.8709  -6.0377  -6.0363  -5.4313  -5.4204
    -3.1540  -3.1532  -2.8160  -2.8151  -2.3858  -2.3806   6.0481   6.0612
     6.7216   6.7242   7.0562   7.0713   7.3642   7.3673   7.8754   7.9086
     8.7662   8.7707   8.8662   8.8713   9.5153   9.5178  10.0639  10.0644
    10.8869  10.8885  11.1068  11.1115  11.4132  11.4167  12.2750  12.2785
    13.9930  14.0024  17.4246  17.4251  17.8652  17.8676

     occupation numbers 
     0.0625   0.0625   0.0625   0.0625   0.0625   0.0625   0.0625   0.0625
     0.0625   0.0625   0.0625   0.0625   0.0625   0.0625   0.0625   0.0625
     0.0625   0.0625   0.0625   0.0625   0.0625   0.0625   0.0625   0.0625
     0.0625   0.0625   0.0625   0.0625   0.0625   0.0625   0.0625   0.0625
     0.0625   0.0625   0.0623   0.0622   0.0590   0.0589   0.0051   0.0050
     0.0000   0.0000   0.0000   0.0000   0.0000   0.0000

     the Fermi energy is    11.8729 ev

!    total energy              =    -538.17605159 Ry
     Harris-Foulkes estimate   =    -538.17603804 Ry
     estimated scf accuracy    <          2.9E-09 Ry

     The total energy is the sum of the following terms:

     one-electron contribution =     -32.91810360 Ry
     hartree contribution      =      83.65964353 Ry
     xc contribution           =    -199.59713527 Ry
     ewald contribution        =    -389.44315552 Ry
     Hubbard energy            =       0.14438832 Ry
     smearing contrib. (-TS)   =      -0.02168905 Ry

     convergence has been achieved in  11 iterations

     init_run     :      7.28s CPU      7.41s WALL (       1 calls)
     electrons    :    368.36s CPU    370.71s WALL (       1 calls)

     Called by init_run:
     wfcinit      :      0.00s CPU      0.00s WALL (       1 calls)
     potinit      :      0.31s CPU      0.33s WALL (       1 calls)

     Called by electrons:
     c_bands      :    285.49s CPU    286.41s WALL (      11 calls)
     sum_band     :     60.45s CPU     60.95s WALL (      11 calls)
     v_of_rho     :      3.07s CPU      3.08s WALL (      12 calls)
     v_h          :      0.17s CPU      0.17s WALL (      12 calls)
     v_xc         :      2.90s CPU      2.91s WALL (      12 calls)
     newd         :     20.79s CPU     20.81s WALL (      12 calls)
     mix_rho      :      0.29s CPU      0.30s WALL (      11 calls)

     Called by c_bands:
     init_us_2    :      2.86s CPU      2.85s WALL (     792 calls)
     cegterg      :    277.39s CPU    277.84s WALL (     396 calls)

     Called by sum_band:
     sum_band:bec :      0.31s CPU      0.30s WALL (     396 calls)
     addusdens    :     13.09s CPU     13.10s WALL (      11 calls)

     Called by *egterg:
     h_psi        :    202.15s CPU    202.52s WALL (    1580 calls)
     s_psi        :     11.37s CPU     11.37s WALL (    1580 calls)
     g_psi        :      0.93s CPU      0.92s WALL (    1184 calls)
     cdiaghg      :     27.27s CPU     27.31s WALL (    1544 calls)
     cegterg:over :     13.37s CPU     13.39s WALL (    1184 calls)
     cegterg:upda :      9.19s CPU      9.19s WALL (    1184 calls)
     cegterg:last :      5.60s CPU      5.60s WALL (     433 calls)

     Called by h_psi:
     h_psi:vloc   :    165.55s CPU    165.90s WALL (    1580 calls)
     h_psi:vnl    :     23.05s CPU     23.06s WALL (    1580 calls)
     add_vuspsi   :     11.42s CPU     11.42s WALL (    1580 calls)
     vhpsi        :     13.10s CPU     13.10s WALL (    1580 calls)

     General routines
     calbec       :     24.09s CPU     24.11s WALL (    3952 calls)
     fft          :      2.05s CPU      2.06s WALL (     187 calls)
     ffts         :      0.06s CPU      0.06s WALL (      23 calls)
     fftw         :    158.86s CPU    159.13s WALL (  110006 calls)
     interpolate  :      0.36s CPU      0.36s WALL (      23 calls)
     davcio       :      0.02s CPU      0.82s WALL (     828 calls)

     Parallel routines
     fft_scatter  :     39.55s CPU     39.82s WALL (  110216 calls)
     Hubbard U routines
     new_ns       :      2.41s CPU      2.79s WALL (      11 calls)
     vhpsi        :     13.10s CPU     13.10s WALL (    1580 calls)

     PWSCF        :  6m16.07s CPU     6m18.72s WALL


   This run was terminated on:  15:10:25  11Nov2012            

=------------------------------------------------------------------------------=
