   JOB DONE.
=------------------------------------------------------------------------------=

     Program PWSCF v.5.0.1 starts on 11Nov2012 at 15:31: 2 

     This program is part of the open-source Quantum ESPRESSO suite
     for quantum simulation of materials; please cite
         "P. Giannozzi et al., J. Phys.:Condens. Matter 21 395502 (2009);
          URL http://www.quantum-espresso.org", 
     in publications or presentations arising from this work. More details at
     http://www.quantum-espresso.org/quote.php

     Parallel version (MPI), running on     2 processors
     R & G space division:  proc/pool =    2

     Current dimensions of program PWSCF are:
     Max number of different atomic species (ntypx) = 10
     Max number of k-points (npk) =  40000
     Max angular momentum in pseudopotentials (lmaxx) =  3
     Reading input from CoLaO_U200_a15.in
               file Co.pbe-nd-rrkjus.UPF: wavefunction(s)  4S 3D renormalized
               file O.pbe-rrkjus.UPF: wavefunction(s)  2S renormalized
               file O.pbe-rrkjus.UPF: wavefunction(s)  2S renormalized

     Subspace diagonalization in iterative solution of the eigenvalue problem:
     a serial algorithm will be used


     Parallelization info
     --------------------
     sticks:   dense  smooth     PW     G-vecs:    dense   smooth      PW
     Min        1112     444    131                34808     8786    1448
     Max        1113     445    132                34809     8787    1449
     Sum        2225     889    263                69617    17573    2897


     Title: 
     GGA + U, U = 2.000, alpha = 0.150                                          


     bravais-lattice index     =            5
     lattice parameter (alat)  =      10.3292  a.u.
     unit-cell volume          =     793.0599 (a.u.)^3
     number of atoms/cell      =           10
     number of atomic types    =            4
     number of electrons       =        76.00
     number of Kohn-Sham states=           46
     kinetic-energy cutoff     =      30.0000  Ry
     charge density cutoff     =     300.0000  Ry
     convergence threshold     =      1.0E-08
     mixing beta               =       0.2000
     number of iterations used =            8  plain     mixing
     Exchange-correlation      =  SLA  PW   PBE  PBE ( 1 4 3 4 0)
     EXX-fraction              =        0.00

     celldm(1)=  10.329242  celldm(2)=   0.000000  celldm(3)=   0.000000
     celldm(4)=   0.488100  celldm(5)=   0.000000  celldm(6)=   0.000000

     crystal axes: (cart. coord. in units of alat)
               a(1) = (   0.505915  -0.292090   0.811624 )  
               a(2) = (   0.000000   0.584180   0.811624 )  
               a(3) = (  -0.505915  -0.292090   0.811624 )  

     reciprocal axes: (cart. coord. in units 2 pi/alat)
               b(1) = (  0.988308 -0.570600  0.410699 )  
               b(2) = (  0.000000  1.141200  0.410699 )  
               b(3) = ( -0.988308 -0.570600  0.410699 )  


     PseudoPot. # 1 for Co read from file:
     /home/mcurnan/dft-course/Project1/example_LaCoO3/Co.pbe-nd-rrkjus.UPF
     MD5 check sum: 3e47a84addf5e975e0edeaeee2a73f59
     Pseudo is Ultrasoft + core correction, Zval =  9.0
     Generated by new atomic code, or converted to UPF format
     Using radial grid of  961 points,  6 beta functions with: 
                l(1) =   0
                l(2) =   0
                l(3) =   1
                l(4) =   1
                l(5) =   2
                l(6) =   2
     Q(r) pseudized with 0 coefficients 


     PseudoPot. # 2 for La read from file:
     /home/mcurnan/dft-course/Project1/example_LaCoO3/La.pbe-nsp-van.UPF
     MD5 check sum: b2f11743f52dde65f77d1302becd7929
     Pseudo is Ultrasoft + core correction, Zval = 11.0
     Generated by new atomic code, or converted to UPF format
     Using radial grid of  907 points,  6 beta functions with: 
                l(1) =   0
                l(2) =   0
                l(3) =   1
                l(4) =   1
                l(5) =   2
                l(6) =   2
     Q(r) pseudized with  6 coefficients,  rinner =    1.200   1.200   1.200
                                                       1.200   1.200

     PseudoPot. # 3 for O  read from file:
     /home/mcurnan/dft-course/Project1/example_LaCoO3/O.pbe-rrkjus.UPF
     MD5 check sum: 390ba29e75625707450f3bd3f0eb6be9
     Pseudo is Ultrasoft, Zval =  6.0
     Generated by new atomic code, or converted to UPF format
     Using radial grid of 1269 points,  4 beta functions with: 
                l(1) =   0
                l(2) =   0
                l(3) =   1
                l(4) =   1
     Q(r) pseudized with 0 coefficients 


     PseudoPot. # 4 for O  read from file:
     /home/mcurnan/dft-course/Project1/example_LaCoO3/O.pbe-rrkjus.UPF
     MD5 check sum: 390ba29e75625707450f3bd3f0eb6be9
     Pseudo is Ultrasoft, Zval =  6.0
     Generated by new atomic code, or converted to UPF format
     Using radial grid of 1269 points,  4 beta functions with: 
                l(1) =   0
                l(2) =   0
                l(3) =   1
                l(4) =   1
     Q(r) pseudized with 0 coefficients 


     atomic species   valence    mass     pseudopotential
        Co1            9.00     1.00000     Co( 1.00)
        La1           11.00     1.00000     La( 1.00)
        O1             6.00     1.00000     O ( 1.00)
        O2             6.00     1.00000     O ( 1.00)
 -----
     simplified LDA+U calculation, Hubbard_lmax = 2
     atomic species  L   Hubbard U  Hubbard alpha
        Co1          2    2.000000    0.000000
        La1          2    0.000000    0.000000
        O1           1    0.000000    0.150000
        O2           1    0.000000    0.000000
 -----

     No symmetry found


                                    s                        frac. trans.

      isym =  1     identity                                     

 cryst.   s( 1) = (     1          0          0      )
                  (     0          1          0      )
                  (     0          0          1      )

 cart.    s( 1) = (  1.0000000  0.0000000  0.0000000 )
                  (  0.0000000  1.0000000  0.0000000 )
                  (  0.0000000  0.0000000  1.0000000 )


     point group C_1 (1)    
     there are  1 classes
     the character table:

       E    
A      1.00

     the symmetry operations in each class:
     E        1

   Cartesian axes

     site n.     atom                  positions (alat units)
         1           Co1 tau(   1) = (   0.2228050  -0.1992639   1.0141240  )
         2           Co1 tau(   2) = (  -0.2831100   0.0928263   1.4199360  )
         3           La1 tau(   3) = (  -0.2831100   0.0928263   0.8112181  )
         4           La1 tau(   4) = (   0.2228050   0.3849164   1.2170300  )
         5           O1  tau(   5) = (   0.0000000   0.0000000   0.0000000  )
         6           O2  tau(   6) = (   0.0008601   0.1861491   1.6232478  )
         7           O2  tau(   7) = (   0.1616398   0.0923297   0.8116239  )
         8           O2  tau(   8) = (  -0.0603051  -0.1064377   1.2166242  )
         9           O2  tau(   9) = (   0.4447499  -0.0004966   1.2166242  )
        10           O2  tau(  10) = (  -0.2219449   0.3854130   1.2166242  )

   Crystallographic axes

     site n.     atom                  positions (cryst. coord.)
         1           Co1 tau(   1) = (  0.7504000  0.1891000  0.3100000  )
         2           Co1 tau(   2) = (  0.2504000  0.6891000  0.8100000  )
         3           La1 tau(   3) = (  0.0004000  0.4391000  0.5600000  )
         4           La1 tau(   4) = (  0.5004000  0.9391000  0.0600000  )
         5           O1  tau(   5) = (  0.0000000  0.0000000  0.0000000  )
         6           O2  tau(   6) = (  0.5613000  0.8791000  0.5596000  )
         7           O2  tau(   7) = (  0.4404000  0.4387000  0.1209000  )
         8           O2  tau(   8) = (  0.5008000  0.3782000  0.6200000  )
         9           O2  tau(   9) = (  0.9395000  0.4991000  0.0604000  )
        10           O2  tau(  10) = (  0.0604000  0.9395000  0.4991000  )

     number of k points=    36  gaussian smearing, width (Ry)=  0.0300
                       cart. coord. in units 2pi/alat
        k(    1) = (   0.0000000   0.0000000   0.0000000), wk =   0.0312500
        k(    2) = (  -0.2470771  -0.1426500   0.1026748), wk =   0.0625000
        k(    3) = (   0.4941541   0.2853000  -0.2053496), wk =   0.0312500
        k(    4) = (  -0.2470771   0.1426500   0.2053496), wk =   0.0625000
        k(    5) = (   0.4941541   0.5706001  -0.1026748), wk =   0.0625000
        k(    6) = (   0.2470771   0.4279500   0.0000000), wk =   0.0625000
        k(    7) = (   0.4941541  -0.2853000  -0.4106993), wk =   0.0312500
        k(    8) = (   0.0000000   0.0000000   0.3080244), wk =   0.0625000
        k(    9) = (   0.7412312   0.4279500   0.0000000), wk =   0.0625000
        k(   10) = (   0.4941541   0.2853000   0.1026748), wk =   0.0625000
        k(   11) = (   0.7412312  -0.4279500  -0.3080244), wk =   0.0625000
        k(   12) = (   0.4941541  -0.5706001  -0.2053496), wk =   0.0625000
        k(   13) = (   0.0000000   0.0000000  -0.6160489), wk =   0.0312500
        k(   14) = (  -0.2470771   0.1426500  -0.1026748), wk =   0.0625000
        k(   15) = (   0.0000000   0.2853000   0.1026748), wk =   0.0625000
        k(   16) = (   0.4941541  -0.2853000   0.2053496), wk =   0.0312500
        k(   17) = (   0.0000000  -0.5706001  -0.2053496), wk =   0.0312500
        k(   18) = (  -0.2470771  -0.1426500  -0.2053496), wk =   0.0625000
        k(   19) = (   0.0000000  -0.2853000   0.2053496), wk =   0.0625000
        k(   20) = (   0.4941541  -0.5706001   0.1026748), wk =   0.0625000
        k(   21) = (  -0.7412312   0.1426500  -0.1026748), wk =   0.0625000
        k(   22) = (   0.2470771  -0.7132501  -0.1026748), wk =   0.0625000
        k(   23) = (  -0.7412312  -0.1426500   0.1026748), wk =   0.0625000
        k(   24) = (   0.2470771   0.7132501   0.1026748), wk =   0.0625000
        k(   25) = (   0.2470771  -0.4279500   0.0000000), wk =   0.0625000
        k(   26) = (  -0.4941541   0.0000000   0.0000000), wk =   0.0625000
        k(   27) = (   0.4941541   0.2853000   0.4106993), wk =   0.0312500
        k(   28) = (   0.0000000   0.5706001  -0.4106993), wk =   0.0312500
        k(   29) = (   0.7412312  -0.4279500   0.0000000), wk =   0.0625000
        k(   30) = (   0.0000000  -0.8559001   0.0000000), wk =   0.0625000
        k(   31) = (   0.4941541  -0.2853000  -0.1026748), wk =   0.0625000
        k(   32) = (   0.0000000  -0.5706001   0.1026748), wk =   0.0625000
        k(   33) = (   0.7412312   0.4279500   0.3080244), wk =   0.0625000
        k(   34) = (   0.0000000   0.8559001  -0.3080244), wk =   0.0625000
        k(   35) = (   0.2470771   0.7132501  -0.2053496), wk =   0.0625000
        k(   36) = (  -0.7412312  -0.1426500  -0.2053496), wk =   0.0625000

                       cryst. coord.
        k(    1) = (   0.0000000   0.0000000   0.0000000), wk =   0.0312500
        k(    2) = (   0.0000000   0.0000000   0.2500000), wk =   0.0625000
        k(    3) = (   0.0000000   0.0000000  -0.5000000), wk =   0.0312500
        k(    4) = (   0.0000000   0.2500000   0.2500000), wk =   0.0625000
        k(    5) = (   0.0000000   0.2500000  -0.5000000), wk =   0.0625000
        k(    6) = (   0.0000000   0.2500000  -0.2500000), wk =   0.0625000
        k(    7) = (   0.0000000  -0.5000000  -0.5000000), wk =   0.0312500
        k(    8) = (   0.2500000   0.2500000   0.2500000), wk =   0.0625000
        k(    9) = (   0.2500000   0.2500000  -0.5000000), wk =   0.0625000
        k(   10) = (   0.2500000   0.2500000  -0.2500000), wk =   0.0625000
        k(   11) = (   0.2500000  -0.5000000  -0.5000000), wk =   0.0625000
        k(   12) = (   0.2500000  -0.5000000  -0.2500000), wk =   0.0625000
        k(   13) = (  -0.5000000  -0.5000000  -0.5000000), wk =   0.0312500
        k(   14) = (  -0.2500000   0.0000000   0.0000000), wk =   0.0625000
        k(   15) = (   0.0000000   0.2500000   0.0000000), wk =   0.0625000
        k(   16) = (   0.5000000   0.0000000   0.0000000), wk =   0.0312500
        k(   17) = (   0.0000000  -0.5000000   0.0000000), wk =   0.0312500
        k(   18) = (  -0.2500000  -0.2500000   0.0000000), wk =   0.0625000
        k(   19) = (   0.2500000   0.0000000   0.2500000), wk =   0.0625000
        k(   20) = (   0.5000000  -0.2500000   0.0000000), wk =   0.0625000
        k(   21) = (  -0.5000000   0.0000000   0.2500000), wk =   0.0625000
        k(   22) = (   0.2500000  -0.5000000   0.0000000), wk =   0.0625000
        k(   23) = (  -0.2500000   0.0000000   0.5000000), wk =   0.0625000
        k(   24) = (   0.0000000   0.5000000  -0.2500000), wk =   0.0625000
        k(   25) = (   0.2500000  -0.2500000   0.0000000), wk =   0.0625000
        k(   26) = (  -0.2500000   0.0000000   0.2500000), wk =   0.0625000
        k(   27) = (   0.5000000   0.5000000   0.0000000), wk =   0.0312500
        k(   28) = (  -0.5000000   0.0000000  -0.5000000), wk =   0.0312500
        k(   29) = (   0.5000000  -0.2500000  -0.2500000), wk =   0.0625000
        k(   30) = (   0.2500000  -0.5000000   0.2500000), wk =   0.0625000
        k(   31) = (   0.2500000  -0.2500000  -0.2500000), wk =   0.0625000
        k(   32) = (   0.2500000  -0.2500000   0.2500000), wk =   0.0625000
        k(   33) = (   0.5000000   0.5000000  -0.2500000), wk =   0.0625000
        k(   34) = (  -0.5000000   0.2500000  -0.5000000), wk =   0.0625000
        k(   35) = (  -0.2500000   0.2500000  -0.5000000), wk =   0.0625000
        k(   36) = (  -0.5000000  -0.2500000   0.2500000), wk =   0.0625000

     Dense  grid:    69617 G-vectors     FFT dimensions: (  60,  60,  60)

     Smooth grid:    17573 G-vectors     FFT dimensions: (  40,  40,  40)

     Largest allocated arrays     est. size (Mb)     dimensions
        Kohn-Sham Wavefunctions         0.79 Mb     (   1119,   46)
        Atomic wavefunctions            1.06 Mb     (   1119,   62)
        NL pseudopotentials             2.05 Mb     (   1119,  120)
        Each V/rho on FFT grid          1.65 Mb     ( 108000)
        Each G-vector array             0.27 Mb     (  34808)
        G-vector shells                 0.04 Mb     (   4682)
     Largest temporary arrays     est. size (Mb)     dimensions
        Auxiliary wavefunctions         3.14 Mb     (   1119,  184)
        Each subspace H/S matrix        0.52 Mb     ( 184, 184)
        Each <psi_i|beta_j> matrix      0.08 Mb     (    120,   46)
        Arrays for rho mixing          13.18 Mb     ( 108000,   8)

     Check: negative/imaginary core charge=   -0.000028    0.000000

     The initial density is read from file :
     /home/mcurnan/dft-course/Project1/example_LaCoO3/200/O/alpha/CoLaO_U200.save/charge-density.dat

 --- in v_hubbard ---
Hubbard energy    0.2513
 -------
     Number of +U iterations with fixed ns =  0
     Starting occupations:
 --- enter write_ns ---
 LDA+U parameters:
U( 1)     =  2.00000000
alpha( 1) =  0.00000000
U( 2)     =  0.00000000
alpha( 2) =  0.00000000
U( 3)     =  0.00000000
alpha( 3) =  0.15000000
U( 4)     =  0.00000000
alpha( 4) =  0.00000000
atom    1   Tr[ns(na)] =   8.02205
    eigenvalues: 
  0.596  0.596  0.938  0.941  0.941
    eigenvectors:
  0.000  0.000  1.000  0.000  0.000
  0.057  0.598  0.000  0.178  0.167
  0.598  0.057  0.000  0.167  0.178
  0.210  0.135  0.000  0.095  0.560
  0.135  0.210  0.000  0.560  0.095
    occupations:
  0.938  0.000  0.000  0.000  0.000
  0.000  0.715  0.000 -0.060  0.152
  0.000  0.000  0.715  0.152  0.060
  0.000 -0.060  0.152  0.822  0.000
  0.000  0.152  0.060  0.000  0.822
atom    2   Tr[ns(na)] =   8.02142
    eigenvalues: 
  0.595  0.595  0.938  0.941  0.941
    eigenvectors:
  0.000  0.000  1.000  0.000  0.000
  0.332  0.323  0.000  0.023  0.322
  0.323  0.332  0.000  0.322  0.023
  0.288  0.057  0.000  0.647  0.008
  0.057  0.288  0.000  0.008  0.647
    occupations:
  0.938  0.000  0.000  0.000  0.000
  0.000  0.715  0.000  0.060  0.153
  0.000  0.000  0.715  0.153 -0.060
  0.000  0.060  0.153  0.822  0.000
  0.000  0.153 -0.060  0.000  0.822
atom    3   Tr[ns(na)] =   3.80282
    eigenvalues: 
  0.355  0.355  0.384  0.403  0.403
    eigenvectors:
  0.000  0.000  1.000  0.000  0.000
  0.065  0.856  0.000  0.058  0.021
  0.856  0.065  0.000  0.021  0.058
  0.073  0.006  0.000  0.250  0.670
  0.006  0.073  0.000  0.670  0.250
    occupations:
  0.384  0.000  0.000  0.000  0.000
  0.000  0.359  0.000  0.000  0.013
  0.000  0.000  0.359  0.013  0.000
  0.000  0.000  0.013  0.399  0.000
  0.000  0.013  0.000  0.000  0.399
atom    4   Tr[ns(na)] =   3.80282
    eigenvalues: 
  0.355  0.355  0.384  0.403  0.403
    eigenvectors:
  0.000  0.000  1.000  0.000  0.000
  0.729  0.192  0.000  0.048  0.032
  0.192  0.729  0.000  0.032  0.048
  0.017  0.062  0.000  0.359  0.562
  0.062  0.017  0.000  0.562  0.359
    occupations:
  0.384  0.000  0.000  0.000  0.000
  0.000  0.359  0.000  0.000  0.013
  0.000  0.000  0.359  0.013  0.000
  0.000  0.000  0.013  0.399  0.000
  0.000  0.013  0.000  0.000  0.399
atom    5   Tr[ns(na)] =   5.43357
    eigenvalues: 
  0.846  0.929  0.941
    eigenvectors:
  0.340  0.000  0.660
  0.496  0.250  0.255
  0.164  0.750  0.086
    occupations:
  0.909 -0.039  0.022
 -0.039  0.891  0.022
  0.022  0.022  0.917
atom    6   Tr[ns(na)] =   5.43358
    eigenvalues: 
  0.846  0.929  0.941
    eigenvectors:
  0.340  0.000  0.660
  0.494  0.250  0.256
  0.166  0.750  0.085
    occupations:
  0.909  0.039  0.022
  0.039  0.891 -0.022
  0.022 -0.022  0.917
atom    7   Tr[ns(na)] =   5.43358
    eigenvalues: 
  0.846  0.929  0.941
    eigenvectors:
  0.340  0.000  0.660
  0.000  1.000  0.000
  0.660  0.000  0.340
    occupations:
  0.909  0.000 -0.045
  0.000  0.929  0.000
 -0.045  0.000  0.879
atom    8   Tr[ns(na)] =   5.43357
    eigenvalues: 
  0.846  0.929  0.941
    eigenvectors:
  0.340  0.000  0.660
  0.496  0.250  0.255
  0.164  0.750  0.086
    occupations:
  0.909 -0.039  0.022
 -0.039  0.891  0.022
  0.022  0.022  0.917
atom    9   Tr[ns(na)] =   5.43358
    eigenvalues: 
  0.846  0.929  0.941
    eigenvectors:
  0.340  0.000  0.660
  0.494  0.250  0.256
  0.166  0.750  0.085
    occupations:
  0.909  0.039  0.022
  0.039  0.891 -0.022
  0.022 -0.022  0.917
atom   10   Tr[ns(na)] =   5.43358
    eigenvalues: 
  0.846  0.929  0.941
    eigenvectors:
  0.340  0.000  0.660
  0.000  1.000  0.000
  0.660  0.000  0.340
    occupations:
  0.909  0.000 -0.045
  0.000  0.929  0.000
 -0.045  0.000  0.879
N of occupied +U levels =  56.2505796
 --- exit write_ns ---
 LDA+U Projector read from file 
     Starting wfc from file

     total cpu time spent up to now is       10.3 secs

     per-process dynamical memory:    62.8 Mb

     Self-consistent Calculation

     iteration #  1     ecut=    30.00 Ry     beta=0.20
     Davidson diagonalization with overlap
     c_bands:  1 eigenvalues not converged
     c_bands:  1 eigenvalues not converged
     c_bands:  1 eigenvalues not converged
     c_bands:  1 eigenvalues not converged
     c_bands:  1 eigenvalues not converged
     c_bands:  1 eigenvalues not converged
     c_bands:  1 eigenvalues not converged
     c_bands:  1 eigenvalues not converged
     c_bands:  1 eigenvalues not converged
     c_bands:  1 eigenvalues not converged
     c_bands:  1 eigenvalues not converged
     c_bands:  1 eigenvalues not converged
     c_bands:  1 eigenvalues not converged
     c_bands:  1 eigenvalues not converged
     c_bands:  1 eigenvalues not converged
     c_bands:  1 eigenvalues not converged
     c_bands:  1 eigenvalues not converged
     ethr =  1.00E-10,  avg # of iterations = 16.8
 --- enter write_ns ---
 LDA+U parameters:
U( 1)     =  2.00000000
alpha( 1) =  0.00000000
U( 2)     =  0.00000000
alpha( 2) =  0.00000000
U( 3)     =  0.00000000
alpha( 3) =  0.15000000
U( 4)     =  0.00000000
alpha( 4) =  0.00000000
atom    1   Tr[ns(na)] =   8.12639
    eigenvalues: 
  0.568  0.570  0.974  0.975  0.976
    eigenvectors:
  0.000  0.000  0.081  0.106  0.812
  0.100  0.554  0.274  0.023  0.049
  0.554  0.100  0.044  0.285  0.016
  0.179  0.166  0.000  0.581  0.074
  0.167  0.179  0.600  0.004  0.049
    occupations:
  0.976  0.000  0.000  0.000  0.000
  0.000  0.710  0.000 -0.068  0.180
  0.000  0.000  0.709  0.180  0.069
  0.000 -0.068  0.180  0.835 -0.001
  0.000  0.180  0.069 -0.001  0.834
atom    2   Tr[ns(na)] =   8.12097
    eigenvalues: 
  0.566  0.568  0.975  0.975  0.977
    eigenvectors:
  0.000  0.000  0.111  0.106  0.783
  0.236  0.419  0.015  0.274  0.057
  0.418  0.236  0.293  0.035  0.018
  0.319  0.027  0.406  0.244  0.003
  0.027  0.319  0.175  0.341  0.139
    occupations:
  0.976  0.000  0.000  0.000  0.000
  0.000  0.708 -0.001  0.069  0.181
  0.000 -0.001  0.708  0.182 -0.068
  0.000  0.069  0.182  0.833  0.000
  0.000  0.181 -0.068  0.000  0.835
atom    3   Tr[ns(na)] =   3.80096
    eigenvalues: 
  0.356  0.356  0.383  0.402  0.403
    eigenvectors:
  0.000  0.000  1.000  0.000  0.000
  0.692  0.230  0.000  0.019  0.059
  0.230  0.691  0.000  0.060  0.018
  0.020  0.059  0.000  0.694  0.227
  0.058  0.020  0.000  0.227  0.695
    occupations:
  0.383  0.000  0.000  0.000  0.000
  0.000  0.360  0.000  0.000  0.013
  0.000  0.000  0.360  0.012  0.000
  0.000  0.000  0.012  0.399  0.000
  0.000  0.013  0.000  0.000  0.399
atom    4   Tr[ns(na)] =   3.80077
    eigenvalues: 
  0.356  0.357  0.383  0.402  0.403
    eigenvectors:
  0.000  0.000  1.000  0.000  0.000
  0.233  0.683  0.000  0.020  0.064
  0.687  0.231  0.000  0.060  0.021
  0.059  0.022  0.000  0.687  0.232
  0.021  0.063  0.000  0.233  0.682
    occupations:
  0.383  0.000  0.000  0.000  0.000
  0.000  0.360  0.000  0.000  0.013
  0.000  0.000  0.360  0.013  0.000
  0.000  0.000  0.013  0.399  0.000
  0.000  0.013  0.000  0.000  0.399
atom    5   Tr[ns(na)] =   5.38618
    eigenvalues: 
  0.830  0.923  0.940
    eigenvectors:
  0.342  0.000  0.658
  0.494  0.250  0.256
  0.164  0.750  0.086
    occupations:
  0.903 -0.045  0.026
 -0.045  0.882  0.024
  0.026  0.024  0.909
atom    6   Tr[ns(na)] =   5.41287
    eigenvalues: 
  0.836  0.927  0.943
    eigenvectors:
  0.341  0.000  0.659
  0.494  0.252  0.254
  0.166  0.748  0.086
    occupations:
  0.907  0.044  0.025
  0.044  0.886 -0.023
  0.025 -0.023  0.913
atom    7   Tr[ns(na)] =   5.41287
    eigenvalues: 
  0.836  0.927  0.943
    eigenvectors:
  0.341  0.000  0.659
  0.000  1.000  0.000
  0.659  0.000  0.341
    occupations:
  0.907  0.000 -0.051
  0.000  0.927  0.000
 -0.051  0.000  0.873
atom    8   Tr[ns(na)] =   5.41280
    eigenvalues: 
  0.837  0.927  0.943
    eigenvectors:
  0.341  0.000  0.659
  0.495  0.250  0.255
  0.164  0.750  0.086
    occupations:
  0.907 -0.044  0.025
 -0.044  0.886  0.023
  0.025  0.023  0.913
atom    9   Tr[ns(na)] =   5.41282
    eigenvalues: 
  0.836  0.927  0.943
    eigenvectors:
  0.341  0.000  0.659
  0.494  0.251  0.255
  0.165  0.749  0.086
    occupations:
  0.907  0.044  0.025
  0.044  0.886 -0.023
  0.025 -0.023  0.913
atom   10   Tr[ns(na)] =   5.41282
    eigenvalues: 
  0.836  0.927  0.943
    eigenvectors:
  0.341  0.000  0.659
  0.000  1.000  0.000
  0.659  0.000  0.341
    occupations:
  0.907  0.000 -0.051
  0.000  0.927  0.000
 -0.051  0.000  0.873
N of occupied +U levels =  56.2994604
 --- exit write_ns ---
 --- in v_hubbard ---
Hubbard energy    0.2463
 -------

     total cpu time spent up to now is      118.2 secs

     total energy              =    -538.09298247 Ry
     Harris-Foulkes estimate   =    -538.09595567 Ry
     estimated scf accuracy    <       0.01457658 Ry

     iteration #  2     ecut=    30.00 Ry     beta=0.20
     Davidson diagonalization with overlap
     ethr =  1.92E-05,  avg # of iterations =  2.0
 --- enter write_ns ---
 LDA+U parameters:
U( 1)     =  2.00000000
alpha( 1) =  0.00000000
U( 2)     =  0.00000000
alpha( 2) =  0.00000000
U( 3)     =  0.00000000
alpha( 3) =  0.15000000
U( 4)     =  0.00000000
alpha( 4) =  0.00000000
atom    1   Tr[ns(na)] =   8.02864
    eigenvalues: 
  0.544  0.546  0.974  0.975  0.976
    eigenvectors:
  0.000  0.000  0.007  0.050  0.943
  0.101  0.554  0.193  0.137  0.015
  0.554  0.101  0.149  0.190  0.005
  0.177  0.168  0.078  0.556  0.022
  0.168  0.177  0.573  0.067  0.016
    occupations:
  0.975  0.000  0.000  0.000  0.000
  0.000  0.693  0.000 -0.073  0.190
  0.000  0.000  0.693  0.191  0.074
  0.000 -0.073  0.191  0.827  0.000
  0.000  0.190  0.074  0.000  0.826
atom    2   Tr[ns(na)] =   8.03708
    eigenvalues: 
  0.544  0.545  0.976  0.976  0.977
    eigenvectors:
  0.000  0.000  0.007  0.047  0.946
  0.236  0.419  0.011  0.319  0.014
  0.419  0.236  0.331  0.009  0.005
  0.319  0.026  0.629  0.025  0.001
  0.026  0.319  0.022  0.599  0.035
    occupations:
  0.977  0.000  0.000  0.000  0.000
  0.000  0.693  0.000  0.074  0.191
  0.000  0.000  0.693  0.192 -0.073
  0.000  0.074  0.192  0.827  0.000
  0.000  0.191 -0.073  0.000  0.828
atom    3   Tr[ns(na)] =   3.79749
    eigenvalues: 
  0.356  0.356  0.383  0.402  0.402
    eigenvectors:
  0.000  0.000  1.000  0.000  0.000
  0.689  0.232  0.000  0.020  0.059
  0.232  0.689  0.000  0.059  0.020
  0.020  0.058  0.000  0.683  0.239
  0.058  0.020  0.000  0.239  0.683
    occupations:
  0.383  0.000  0.000  0.000  0.000
  0.000  0.359  0.000  0.000  0.013
  0.000  0.000  0.359  0.013  0.000
  0.000  0.000  0.013  0.399  0.000
  0.000  0.013  0.000  0.000  0.399
atom    4   Tr[ns(na)] =   3.79755
    eigenvalues: 
  0.356  0.356  0.383  0.402  0.402
    eigenvectors:
  0.000  0.000  1.000  0.000  0.000
  0.211  0.709  0.000  0.018  0.062
  0.710  0.210  0.000  0.061  0.018
  0.060  0.019  0.000  0.703  0.217
  0.019  0.062  0.000  0.218  0.702
    occupations:
  0.383  0.000  0.000  0.000  0.000
  0.000  0.359  0.000  0.000  0.013
  0.000  0.000  0.359  0.013  0.000
  0.000  0.000  0.013  0.399  0.000
  0.000  0.013  0.000  0.000  0.399
atom    5   Tr[ns(na)] =   5.43004
    eigenvalues: 
  0.842  0.929  0.944
    eigenvectors:
  0.338  0.000  0.662
  0.496  0.251  0.253
  0.166  0.749  0.085
    occupations:
  0.910 -0.042  0.024
 -0.042  0.890  0.023
  0.024  0.023  0.916
atom    6   Tr[ns(na)] =   5.43893
    eigenvalues: 
  0.844  0.930  0.945
    eigenvectors:
  0.338  0.000  0.662
  0.496  0.250  0.254
  0.165  0.750  0.085
    occupations:
  0.911  0.041  0.024
  0.041  0.891 -0.023
  0.024 -0.023  0.917
atom    7   Tr[ns(na)] =   5.43894
    eigenvalues: 
  0.844  0.930  0.945
    eigenvectors:
  0.338  0.000  0.662
  0.000  1.000  0.000
  0.662  0.000  0.338
    occupations:
  0.911  0.000 -0.048
  0.000  0.930  0.000
 -0.048  0.000  0.878
atom    8   Tr[ns(na)] =   5.43793
    eigenvalues: 
  0.844  0.930  0.945
    eigenvectors:
  0.338  0.000  0.662
  0.496  0.251  0.253
  0.166  0.749  0.085
    occupations:
  0.911 -0.041  0.024
 -0.041  0.891  0.023
  0.024  0.023  0.917
atom    9   Tr[ns(na)] =   5.43914
    eigenvalues: 
  0.844  0.930  0.945
    eigenvectors:
  0.338  0.000  0.662
  0.498  0.249  0.253
  0.165  0.751  0.084
    occupations:
  0.911  0.041  0.024
  0.041  0.891 -0.022
  0.024 -0.022  0.917
atom   10   Tr[ns(na)] =   5.43914
    eigenvalues: 
  0.844  0.930  0.945
    eigenvectors:
  0.338  0.000  0.662
  0.000  1.000  0.000
  0.662  0.000  0.338
    occupations:
  0.911  0.000 -0.048
  0.000  0.930  0.000
 -0.048  0.000  0.878
N of occupied +U levels =  56.2848867
 --- exit write_ns ---
 --- in v_hubbard ---
Hubbard energy    0.2439
 -------

     total cpu time spent up to now is      151.3 secs

     total energy              =    -538.09516846 Ry
     Harris-Foulkes estimate   =    -538.09534682 Ry
     estimated scf accuracy    <       0.00784217 Ry

     iteration #  3     ecut=    30.00 Ry     beta=0.20
     Davidson diagonalization with overlap
     ethr =  1.03E-05,  avg # of iterations =  1.0
 --- enter write_ns ---
 LDA+U parameters:
U( 1)     =  2.00000000
alpha( 1) =  0.00000000
U( 2)     =  0.00000000
alpha( 2) =  0.00000000
U( 3)     =  0.00000000
alpha( 3) =  0.15000000
U( 4)     =  0.00000000
alpha( 4) =  0.00000000
atom    1   Tr[ns(na)] =   8.06275
    eigenvalues: 
  0.551  0.552  0.976  0.976  0.977
    eigenvectors:
  0.000  0.000  0.009  0.055  0.937
  0.101  0.554  0.201  0.127  0.017
  0.554  0.101  0.141  0.199  0.005
  0.176  0.168  0.067  0.564  0.024
  0.168  0.176  0.582  0.056  0.017
    occupations:
  0.977  0.000  0.000  0.000  0.000
  0.000  0.698  0.000 -0.072  0.188
  0.000  0.000  0.697  0.188  0.073
  0.000 -0.072  0.188  0.830  0.000
  0.000  0.188  0.073  0.000  0.830
atom    2   Tr[ns(na)] =   8.04961
    eigenvalues: 
  0.548  0.549  0.976  0.976  0.977
    eigenvectors:
  0.000  0.000  0.017  0.080  0.902
  0.235  0.421  0.004  0.315  0.025
  0.421  0.235  0.334  0.002  0.009
  0.318  0.026  0.604  0.050  0.002
  0.026  0.318  0.040  0.554  0.062
    occupations:
  0.976  0.000  0.000  0.000  0.000
  0.000  0.696 -0.001  0.073  0.190
  0.000 -0.001  0.695  0.190 -0.072
  0.000  0.073  0.190  0.828  0.000
  0.000  0.190 -0.072  0.000  0.829
atom    3   Tr[ns(na)] =   3.79736
    eigenvalues: 
  0.356  0.356  0.382  0.402  0.402
    eigenvectors:
  0.000  0.000  1.000  0.000  0.000
  0.692  0.229  0.000  0.019  0.060
  0.229  0.692  0.000  0.060  0.019
  0.020  0.059  0.000  0.691  0.230
  0.058  0.020  0.000  0.230  0.691
    occupations:
  0.382  0.000  0.000  0.000  0.000
  0.000  0.359  0.000  0.000  0.013
  0.000  0.000  0.359  0.013  0.000
  0.000  0.000  0.013  0.399  0.000
  0.000  0.013  0.000  0.000  0.399
atom    4   Tr[ns(na)] =   3.79737
    eigenvalues: 
  0.356  0.356  0.383  0.402  0.402
    eigenvectors:
  0.000  0.000  1.000  0.000  0.000
  0.226  0.694  0.000  0.018  0.062
  0.695  0.226  0.000  0.061  0.018
  0.059  0.020  0.000  0.703  0.218
  0.020  0.060  0.000  0.218  0.702
    occupations:
  0.383  0.000  0.000  0.000  0.000
  0.000  0.360  0.000  0.000  0.013
  0.000  0.000  0.359  0.013  0.000
  0.000  0.000  0.013  0.399  0.000
  0.000  0.013  0.000  0.000  0.399
atom    5   Tr[ns(na)] =   5.42247
    eigenvalues: 
  0.840  0.928  0.944
    eigenvectors:
  0.339  0.000  0.661
  0.497  0.249  0.254
  0.164  0.751  0.085
    occupations:
  0.908 -0.043  0.025
 -0.043  0.888  0.023
  0.025  0.023  0.915
atom    6   Tr[ns(na)] =   5.43193
    eigenvalues: 
  0.842  0.929  0.945
    eigenvectors:
  0.339  0.000  0.661
  0.494  0.252  0.254
  0.167  0.748  0.085
    occupations:
  0.910  0.042  0.024
  0.042  0.890 -0.023
  0.024 -0.023  0.916
atom    7   Tr[ns(na)] =   5.43193
    eigenvalues: 
  0.842  0.929  0.945
    eigenvectors:
  0.339  0.000  0.661
  0.000  1.000  0.000
  0.661  0.000  0.339
    occupations:
  0.910  0.000 -0.049
  0.000  0.929  0.000
 -0.049  0.000  0.877
atom    8   Tr[ns(na)] =   5.43109
    eigenvalues: 
  0.842  0.929  0.944
    eigenvectors:
  0.339  0.000  0.661
  0.497  0.249  0.254
  0.164  0.751  0.085
    occupations:
  0.910 -0.042  0.024
 -0.042  0.890  0.023
  0.024  0.023  0.916
atom    9   Tr[ns(na)] =   5.43205
    eigenvalues: 
  0.842  0.929  0.945
    eigenvectors:
  0.338  0.000  0.662
  0.496  0.251  0.253
  0.166  0.749  0.085
    occupations:
  0.910  0.042  0.024
  0.042  0.890 -0.023
  0.024 -0.023  0.916
atom   10   Tr[ns(na)] =   5.43205
    eigenvalues: 
  0.842  0.929  0.945
    eigenvectors:
  0.338  0.000  0.662
  0.000  1.000  0.000
  0.662  0.000  0.338
    occupations:
  0.910  0.000 -0.049
  0.000  0.929  0.000
 -0.049  0.000  0.877
N of occupied +U levels =  56.2886167
 --- exit write_ns ---
 --- in v_hubbard ---
Hubbard energy    0.2351
 -------

     total cpu time spent up to now is      181.0 secs

     total energy              =    -538.09586523 Ry
     Harris-Foulkes estimate   =    -538.09537302 Ry
     estimated scf accuracy    <       0.00391052 Ry

     iteration #  4     ecut=    30.00 Ry     beta=0.20
     Davidson diagonalization with overlap
     ethr =  5.15E-06,  avg # of iterations =  1.0
 --- enter write_ns ---
 LDA+U parameters:
U( 1)     =  2.00000000
alpha( 1) =  0.00000000
U( 2)     =  0.00000000
alpha( 2) =  0.00000000
U( 3)     =  0.00000000
alpha( 3) =  0.15000000
U( 4)     =  0.00000000
alpha( 4) =  0.00000000
atom    1   Tr[ns(na)] =   8.01058
    eigenvalues: 
  0.543  0.544  0.972  0.973  0.973
    eigenvectors:
  0.000  0.000  0.253  0.115  0.631
  0.103  0.553  0.251  0.002  0.090
  0.554  0.103  0.005  0.302  0.036
  0.177  0.166  0.024  0.478  0.155
  0.166  0.177  0.466  0.103  0.087
    occupations:
  0.973  0.000  0.000  0.000  0.000
  0.000  0.691  0.000 -0.072  0.190
  0.000  0.000  0.690  0.191  0.072
  0.000 -0.072  0.191  0.826  0.000
  0.000  0.190  0.072  0.000  0.825
atom    2   Tr[ns(na)] =   8.10737
    eigenvalues: 
  0.555  0.556  0.980  0.981  0.982
    eigenvectors:
  0.000  0.000  0.005  0.034  0.961
  0.237  0.420  0.013  0.321  0.010
  0.420  0.236  0.329  0.011  0.004
  0.318  0.025  0.633  0.023  0.001
  0.025  0.318  0.021  0.611  0.025
    occupations:
  0.982  0.000  0.000  0.000  0.000
  0.000  0.701  0.000  0.074  0.188
  0.000  0.000  0.701  0.188 -0.073
  0.000  0.074  0.188  0.834  0.000
  0.000  0.188 -0.073  0.000  0.835
atom    3   Tr[ns(na)] =   3.79776
    eigenvalues: 
  0.356  0.356  0.382  0.402  0.402
    eigenvectors:
  0.000  0.000  1.000  0.000  0.000
  0.691  0.231  0.000  0.017  0.061
  0.231  0.691  0.000  0.061  0.017
  0.020  0.058  0.000  0.718  0.204
  0.058  0.020  0.000  0.204  0.718
    occupations:
  0.382  0.000  0.000  0.000  0.000
  0.000  0.359  0.000  0.000  0.012
  0.000  0.000  0.360  0.012  0.000
  0.000  0.000  0.012  0.399  0.000
  0.000  0.012  0.000  0.000  0.399
atom    4   Tr[ns(na)] =   3.79776
    eigenvalues: 
  0.356  0.356  0.383  0.402  0.402
    eigenvectors:
  0.000  0.000  1.000  0.000  0.000
  0.243  0.677  0.000  0.018  0.062
  0.678  0.243  0.000  0.061  0.018
  0.057  0.021  0.000  0.709  0.212
  0.021  0.059  0.000  0.213  0.708
    occupations:
  0.383  0.000  0.000  0.000  0.000
  0.000  0.360  0.000  0.000  0.013
  0.000  0.000  0.360  0.012  0.000
  0.000  0.000  0.012  0.399  0.000
  0.000  0.013  0.000  0.000  0.399
atom    5   Tr[ns(na)] =   5.42103
    eigenvalues: 
  0.839  0.928  0.944
    eigenvectors:
  0.339  0.000  0.661
  0.489  0.258  0.252
  0.172  0.742  0.087
    occupations:
  0.908 -0.043  0.025
 -0.043  0.888  0.023
  0.025  0.023  0.914
atom    6   Tr[ns(na)] =   5.43065
    eigenvalues: 
  0.842  0.929  0.944
    eigenvectors:
  0.339  0.000  0.661
  0.501  0.243  0.255
  0.160  0.757  0.084
    occupations:
  0.910  0.042  0.024
  0.042  0.889 -0.023
  0.024 -0.023  0.917
atom    7   Tr[ns(na)] =   5.43065
    eigenvalues: 
  0.842  0.929  0.944
    eigenvectors:
  0.339  0.000  0.661
  0.000  1.000  0.000
  0.661  0.000  0.339
    occupations:
  0.910 -0.001 -0.049
 -0.001  0.929 -0.001
 -0.049 -0.001  0.876
atom    8   Tr[ns(na)] =   5.43031
    eigenvalues: 
  0.842  0.929  0.944
    eigenvectors:
  0.339  0.000  0.661
  0.490  0.258  0.252
  0.171  0.742  0.087
    occupations:
  0.910 -0.042  0.025
 -0.042  0.890  0.023
  0.025  0.023  0.916
atom    9   Tr[ns(na)] =   5.43065
    eigenvalues: 
  0.842  0.929  0.944
    eigenvectors:
  0.338  0.000  0.662
  0.503  0.243  0.255
  0.159  0.757  0.083
    occupations:
  0.910  0.042  0.024
  0.042  0.889 -0.023
  0.024 -0.023  0.917
atom   10   Tr[ns(na)] =   5.43064
    eigenvalues: 
  0.842  0.929  0.944
    eigenvectors:
  0.338  0.000  0.662
  0.000  1.000  0.000
  0.662  0.000  0.338
    occupations:
  0.910  0.000 -0.049
  0.000  0.929 -0.001
 -0.049 -0.001  0.876
N of occupied +U levels =  56.2873988
 --- exit write_ns ---
 --- in v_hubbard ---
Hubbard energy    0.2260
 -------

     total cpu time spent up to now is      214.4 secs

     total energy              =    -538.09575608 Ry
     Harris-Foulkes estimate   =    -538.09628395 Ry
     estimated scf accuracy    <       0.00661282 Ry

     iteration #  5     ecut=    30.00 Ry     beta=0.20
     Davidson diagonalization with overlap
     ethr =  5.15E-06,  avg # of iterations =  1.0
 --- enter write_ns ---
 LDA+U parameters:
U( 1)     =  2.00000000
alpha( 1) =  0.00000000
U( 2)     =  0.00000000
alpha( 2) =  0.00000000
U( 3)     =  0.00000000
alpha( 3) =  0.15000000
U( 4)     =  0.00000000
alpha( 4) =  0.00000000
atom    1   Tr[ns(na)] =   8.06069
    eigenvalues: 
  0.548  0.549  0.977  0.978  0.978
    eigenvectors:
  0.000  0.000  0.030  0.112  0.859
  0.102  0.555  0.227  0.080  0.036
  0.555  0.102  0.106  0.224  0.012
  0.175  0.167  0.033  0.568  0.057
  0.168  0.175  0.605  0.016  0.036
    occupations:
  0.978  0.000  0.000  0.000  0.000
  0.000  0.696  0.000 -0.073  0.190
  0.000  0.000  0.695  0.190  0.074
  0.000 -0.073  0.190  0.831  0.000
  0.000  0.190  0.074  0.000  0.831
atom    2   Tr[ns(na)] =   8.05547
    eigenvalues: 
  0.546  0.547  0.978  0.978  0.979
    eigenvectors:
  0.000  0.000  0.045  0.126  0.828
  0.235  0.423  0.000  0.297  0.045
  0.422  0.235  0.327  0.002  0.014
  0.317  0.025  0.552  0.103  0.002
  0.025  0.317  0.076  0.472  0.110
    occupations:
  0.979  0.000  0.000  0.000  0.000
  0.000  0.694  0.000  0.073  0.191
  0.000  0.000  0.694  0.192 -0.073
  0.000  0.073  0.192  0.830  0.000
  0.000  0.191 -0.073  0.000  0.831
atom    3   Tr[ns(na)] =   3.79825
    eigenvalues: 
  0.356  0.356  0.382  0.402  0.402
    eigenvectors:
  0.000  0.000  1.000  0.000  0.000
  0.693  0.229  0.000  0.012  0.066
  0.229  0.693  0.000  0.066  0.012
  0.020  0.058  0.000  0.772  0.150
  0.058  0.020  0.000  0.150  0.772
    occupations:
  0.382  0.000  0.000  0.000  0.000
  0.000  0.360  0.000  0.000  0.012
  0.000  0.000  0.360  0.012  0.000
  0.000  0.000  0.012  0.399  0.000
  0.000  0.012  0.000  0.000  0.399
atom    4   Tr[ns(na)] =   3.79823
    eigenvalues: 
  0.356  0.356  0.383  0.402  0.402
    eigenvectors:
  0.000  0.000  1.000  0.000  0.000
  0.242  0.679  0.000  0.019  0.060
  0.680  0.242  0.000  0.059  0.019
  0.057  0.022  0.000  0.693  0.229
  0.021  0.058  0.000  0.229  0.691
    occupations:
  0.383  0.000  0.000  0.000  0.000
  0.000  0.360  0.000  0.000  0.012
  0.000  0.000  0.360  0.012  0.000
  0.000  0.000  0.012  0.399  0.000
  0.000  0.012  0.000  0.000  0.399
atom    5   Tr[ns(na)] =   5.42090
    eigenvalues: 
  0.839  0.928  0.944
    eigenvectors:
  0.339  0.000  0.661
  0.496  0.250  0.254
  0.165  0.750  0.085
    occupations:
  0.908 -0.043  0.025
 -0.043  0.888  0.023
  0.025  0.023  0.915
atom    6   Tr[ns(na)] =   5.43065
    eigenvalues: 
  0.841  0.929  0.945
    eigenvectors:
  0.339  0.000  0.661
  0.495  0.251  0.253
  0.166  0.748  0.085
    occupations:
  0.910  0.042  0.024
  0.042  0.890 -0.023
  0.024 -0.023  0.916
atom    7   Tr[ns(na)] =   5.43066
    eigenvalues: 
  0.841  0.929  0.945
    eigenvectors:
  0.339  0.000  0.661
  0.000  1.000  0.000
  0.661  0.000  0.339
    occupations:
  0.910  0.000 -0.049
  0.000  0.929  0.000
 -0.049  0.000  0.876
atom    8   Tr[ns(na)] =   5.43063
    eigenvalues: 
  0.842  0.929  0.944
    eigenvectors:
  0.338  0.000  0.662
  0.497  0.250  0.253
  0.165  0.750  0.085
    occupations:
  0.910 -0.042  0.024
 -0.042  0.890  0.023
  0.024  0.023  0.916
atom    9   Tr[ns(na)] =   5.43059
    eigenvalues: 
  0.841  0.929  0.945
    eigenvectors:
  0.338  0.000  0.662
  0.496  0.251  0.253
  0.166  0.749  0.085
    occupations:
  0.910  0.042  0.024
  0.042  0.890 -0.023
  0.024 -0.023  0.916
atom   10   Tr[ns(na)] =   5.43057
    eigenvalues: 
  0.841  0.929  0.945
    eigenvectors:
  0.338  0.000  0.662
  0.000  1.000  0.000
  0.662  0.000  0.338
    occupations:
  0.910  0.000 -0.049
  0.000  0.929  0.000
 -0.049  0.000  0.876
N of occupied +U levels =  56.2866472
 --- exit write_ns ---
 --- in v_hubbard ---
Hubbard energy    0.2241
 -------

     total cpu time spent up to now is      247.1 secs

     total energy              =    -538.09613816 Ry
     Harris-Foulkes estimate   =    -538.09612273 Ry
     estimated scf accuracy    <       0.00006964 Ry

     iteration #  6     ecut=    30.00 Ry     beta=0.20
     Davidson diagonalization with overlap
     ethr =  9.16E-08,  avg # of iterations =  2.1
 --- enter write_ns ---
 LDA+U parameters:
U( 1)     =  2.00000000
alpha( 1) =  0.00000000
U( 2)     =  0.00000000
alpha( 2) =  0.00000000
U( 3)     =  0.00000000
alpha( 3) =  0.15000000
U( 4)     =  0.00000000
alpha( 4) =  0.00000000
atom    1   Tr[ns(na)] =   8.05571
    eigenvalues: 
  0.546  0.548  0.978  0.978  0.979
    eigenvectors:
  0.000  0.000  0.020  0.096  0.883
  0.102  0.555  0.215  0.098  0.030
  0.556  0.102  0.121  0.211  0.010
  0.175  0.167  0.048  0.564  0.046
  0.167  0.175  0.596  0.030  0.031
    occupations:
  0.978  0.000  0.000  0.000  0.000
  0.000  0.695  0.000 -0.073  0.190
  0.000  0.000  0.694  0.191  0.074
  0.000 -0.073  0.191  0.830  0.000
  0.000  0.190  0.074  0.000  0.830
atom    2   Tr[ns(na)] =   8.05330
    eigenvalues: 
  0.545  0.546  0.978  0.979  0.979
    eigenvectors:
  0.000  0.000  0.026  0.104  0.870
  0.236  0.422  0.003  0.306  0.033
  0.422  0.235  0.331  0.000  0.011
  0.317  0.025  0.592  0.064  0.002
  0.025  0.317  0.049  0.526  0.083
    occupations:
  0.979  0.000  0.000  0.000  0.000
  0.000  0.694  0.000  0.074  0.192
  0.000  0.000  0.693  0.192 -0.073
  0.000  0.074  0.192  0.830  0.000
  0.000  0.192 -0.073  0.000  0.830
atom    3   Tr[ns(na)] =   3.79810
    eigenvalues: 
  0.356  0.356  0.382  0.402  0.402
    eigenvectors:
  0.000  0.000  1.000  0.000  0.000
  0.692  0.230  0.000  0.015  0.063
  0.230  0.692  0.000  0.063  0.015
  0.020  0.058  0.000  0.742  0.180
  0.058  0.020  0.000  0.180  0.742
    occupations:
  0.382  0.000  0.000  0.000  0.000
  0.000  0.360  0.000  0.000  0.012
  0.000  0.000  0.360  0.012  0.000
  0.000  0.000  0.012  0.399  0.000
  0.000  0.012  0.000  0.000  0.399
atom    4   Tr[ns(na)] =   3.79806
    eigenvalues: 
  0.356  0.356  0.383  0.402  0.402
    eigenvectors:
  0.000  0.000  1.000  0.000  0.000
  0.265  0.656  0.000  0.019  0.060
  0.657  0.265  0.000  0.059  0.019
  0.055  0.023  0.000  0.691  0.231
  0.023  0.056  0.000  0.231  0.690
    occupations:
  0.383  0.000  0.000  0.000  0.000
  0.000  0.360  0.000  0.000  0.012
  0.000  0.000  0.360  0.012  0.000
  0.000  0.000  0.012  0.399  0.000
  0.000  0.012  0.000  0.000  0.399
atom    5   Tr[ns(na)] =   5.42227
    eigenvalues: 
  0.839  0.928  0.944
    eigenvectors:
  0.339  0.000  0.661
  0.496  0.250  0.254
  0.165  0.750  0.085
    occupations:
  0.908 -0.043  0.025
 -0.043  0.888  0.023
  0.025  0.023  0.915
atom    6   Tr[ns(na)] =   5.43173
    eigenvalues: 
  0.842  0.929  0.945
    eigenvectors:
  0.339  0.000  0.661
  0.495  0.251  0.253
  0.166  0.749  0.085
    occupations:
  0.910  0.042  0.024
  0.042  0.890 -0.023
  0.024 -0.023  0.916
atom    7   Tr[ns(na)] =   5.43173
    eigenvalues: 
  0.842  0.929  0.945
    eigenvectors:
  0.339  0.000  0.661
  0.000  1.000  0.000
  0.661  0.000  0.339
    occupations:
  0.910  0.000 -0.049
  0.000  0.929  0.000
 -0.049  0.000  0.877
atom    8   Tr[ns(na)] =   5.43123
    eigenvalues: 
  0.842  0.929  0.944
    eigenvectors:
  0.338  0.000  0.662
  0.496  0.250  0.253
  0.165  0.750  0.085
    occupations:
  0.910 -0.042  0.024
 -0.042  0.890  0.023
  0.024  0.023  0.916
atom    9   Tr[ns(na)] =   5.43179
    eigenvalues: 
  0.842  0.929  0.945
    eigenvectors:
  0.338  0.000  0.662
  0.496  0.250  0.253
  0.165  0.750  0.085
    occupations:
  0.910  0.042  0.024
  0.042  0.890 -0.023
  0.024 -0.023  0.916
atom   10   Tr[ns(na)] =   5.43179
    eigenvalues: 
  0.842  0.929  0.945
    eigenvectors:
  0.338  0.000  0.662
  0.000  1.000  0.000
  0.662  0.000  0.338
    occupations:
  0.910  0.000 -0.049
  0.000  0.929  0.000
 -0.049  0.000  0.877
N of occupied +U levels =  56.2857020
 --- exit write_ns ---
 --- in v_hubbard ---
Hubbard energy    0.2240
 -------

     total cpu time spent up to now is      280.4 secs

     total energy              =    -538.09617882 Ry
     Harris-Foulkes estimate   =    -538.09614612 Ry
     estimated scf accuracy    <       0.00001169 Ry

     iteration #  7     ecut=    30.00 Ry     beta=0.20
     Davidson diagonalization with overlap
     ethr =  1.54E-08,  avg # of iterations =  1.8
 --- enter write_ns ---
 LDA+U parameters:
U( 1)     =  2.00000000
alpha( 1) =  0.00000000
U( 2)     =  0.00000000
alpha( 2) =  0.00000000
U( 3)     =  0.00000000
alpha( 3) =  0.15000000
U( 4)     =  0.00000000
alpha( 4) =  0.00000000
atom    1   Tr[ns(na)] =   8.05406
    eigenvalues: 
  0.546  0.547  0.977  0.978  0.979
    eigenvectors:
  0.000  0.000  0.009  0.065  0.926
  0.102  0.555  0.193  0.130  0.020
  0.555  0.102  0.147  0.190  0.006
  0.175  0.167  0.076  0.553  0.029
  0.167  0.176  0.575  0.062  0.020
    occupations:
  0.979  0.000  0.000  0.000  0.000
  0.000  0.695  0.000 -0.073  0.191
  0.000  0.000  0.694  0.191  0.074
  0.000 -0.073  0.191  0.830  0.000
  0.000  0.191  0.074  0.000  0.830
atom    2   Tr[ns(na)] =   8.05428
    eigenvalues: 
  0.545  0.546  0.979  0.979  0.980
    eigenvectors:
  0.000  0.000  0.010  0.066  0.924
  0.236  0.421  0.011  0.313  0.019
  0.421  0.236  0.329  0.007  0.007
  0.317  0.026  0.628  0.027  0.002
  0.025  0.317  0.022  0.586  0.049
    occupations:
  0.980  0.000  0.000  0.000  0.000
  0.000  0.694  0.000  0.074  0.192
  0.000  0.000  0.694  0.192 -0.073
  0.000  0.074  0.192  0.830  0.000
  0.000  0.192 -0.073  0.000  0.830
atom    3   Tr[ns(na)] =   3.79779
    eigenvalues: 
  0.356  0.356  0.382  0.402  0.402
    eigenvectors:
  0.000  0.000  1.000  0.000  0.000
  0.692  0.230  0.000  0.012  0.066
  0.230  0.692  0.000  0.066  0.012
  0.020  0.058  0.000  0.778  0.144
  0.058  0.020  0.000  0.144  0.778
    occupations:
  0.382  0.000  0.000  0.000  0.000
  0.000  0.360  0.000  0.000  0.012
  0.000  0.000  0.360  0.012  0.000
  0.000  0.000  0.012  0.399  0.000
  0.000  0.012  0.000  0.000  0.399
atom    4   Tr[ns(na)] =   3.79776
    eigenvalues: 
  0.356  0.356  0.382  0.402  0.402
    eigenvectors:
  0.000  0.000  1.000  0.000  0.000
  0.321  0.599  0.000  0.019  0.060
  0.601  0.321  0.000  0.059  0.019
  0.050  0.028  0.000  0.691  0.231
  0.028  0.051  0.000  0.231  0.690
    occupations:
  0.382  0.000  0.000  0.000  0.000
  0.000  0.360  0.000  0.000  0.013
  0.000  0.000  0.360  0.012  0.000
  0.000  0.000  0.012  0.399  0.000
  0.000  0.013  0.000  0.000  0.399
atom    5   Tr[ns(na)] =   5.42244
    eigenvalues: 
  0.839  0.928  0.944
    eigenvectors:
  0.339  0.000  0.661
  0.496  0.251  0.254
  0.165  0.749  0.085
    occupations:
  0.908 -0.043  0.025
 -0.043  0.888  0.023
  0.025  0.023  0.915
atom    6   Tr[ns(na)] =   5.43192
    eigenvalues: 
  0.842  0.929  0.945
    eigenvectors:
  0.339  0.000  0.661
  0.495  0.251  0.254
  0.166  0.749  0.085
    occupations:
  0.910  0.042  0.024
  0.042  0.890 -0.023
  0.024 -0.023  0.916
atom    7   Tr[ns(na)] =   5.43192
    eigenvalues: 
  0.842  0.929  0.945
    eigenvectors:
  0.339  0.000  0.661
  0.000  1.000  0.000
  0.661  0.000  0.339
    occupations:
  0.910  0.000 -0.049
  0.000  0.929  0.000
 -0.049  0.000  0.877
atom    8   Tr[ns(na)] =   5.43124
    eigenvalues: 
  0.842  0.929  0.944
    eigenvectors:
  0.339  0.000  0.661
  0.496  0.250  0.253
  0.165  0.750  0.085
    occupations:
  0.910 -0.042  0.024
 -0.042  0.890  0.023
  0.024  0.023  0.916
atom    9   Tr[ns(na)] =   5.43202
    eigenvalues: 
  0.842  0.929  0.945
    eigenvectors:
  0.338  0.000  0.662
  0.496  0.250  0.253
  0.165  0.750  0.085
    occupations:
  0.910  0.042  0.024
  0.042  0.890 -0.023
  0.024 -0.023  0.916
atom   10   Tr[ns(na)] =   5.43202
    eigenvalues: 
  0.842  0.929  0.945
    eigenvectors:
  0.338  0.000  0.662
  0.000  1.000  0.000
  0.662  0.000  0.338
    occupations:
  0.910  0.000 -0.049
  0.000  0.929  0.000
 -0.049  0.000  0.877
N of occupied +U levels =  56.2854594
 --- exit write_ns ---
 --- in v_hubbard ---
Hubbard energy    0.2240
 -------

     total cpu time spent up to now is      308.1 secs

     total energy              =    -538.09620781 Ry
     Harris-Foulkes estimate   =    -538.09618020 Ry
     estimated scf accuracy    <       0.00000277 Ry

     iteration #  8     ecut=    30.00 Ry     beta=0.20
     Davidson diagonalization with overlap
     ethr =  3.64E-09,  avg # of iterations =  1.8
 --- enter write_ns ---
 LDA+U parameters:
U( 1)     =  2.00000000
alpha( 1) =  0.00000000
U( 2)     =  0.00000000
alpha( 2) =  0.00000000
U( 3)     =  0.00000000
alpha( 3) =  0.15000000
U( 4)     =  0.00000000
alpha( 4) =  0.00000000
atom    1   Tr[ns(na)] =   8.05543
    eigenvalues: 
  0.546  0.548  0.978  0.978  0.979
    eigenvectors:
  0.000  0.000  0.008  0.060  0.932
  0.102  0.555  0.192  0.134  0.018
  0.555  0.102  0.149  0.189  0.005
  0.176  0.167  0.078  0.553  0.026
  0.167  0.176  0.573  0.065  0.019
    occupations:
  0.979  0.000  0.000  0.000  0.000
  0.000  0.695  0.000 -0.073  0.191
  0.000  0.000  0.694  0.191  0.074
  0.000 -0.073  0.191  0.830  0.000
  0.000  0.191  0.074  0.000  0.830
atom    2   Tr[ns(na)] =   8.05379
    eigenvalues: 
  0.544  0.546  0.978  0.979  0.980
    eigenvectors:
  0.000  0.000  0.010  0.063  0.927
  0.236  0.421  0.011  0.313  0.018
  0.421  0.236  0.329  0.008  0.007
  0.317  0.026  0.629  0.026  0.001
  0.025  0.317  0.021  0.590  0.046
    occupations:
  0.979  0.000  0.000  0.000  0.000
  0.000  0.694  0.000  0.074  0.192
  0.000  0.000  0.694  0.192 -0.073
  0.000  0.074  0.192  0.830  0.000
  0.000  0.192 -0.073  0.000  0.830
atom    3   Tr[ns(na)] =   3.79776
    eigenvalues: 
  0.356  0.356  0.382  0.402  0.402
    eigenvectors:
  0.000  0.000  1.000  0.000  0.000
  0.692  0.230  0.000  0.008  0.070
  0.230  0.692  0.000  0.070  0.008
  0.020  0.058  0.000  0.823  0.099
  0.058  0.020  0.000  0.099  0.823
    occupations:
  0.382  0.000  0.000  0.000  0.000
  0.000  0.360  0.000  0.000  0.012
  0.000  0.000  0.360  0.012  0.000
  0.000  0.000  0.012  0.399  0.000
  0.000  0.012  0.000  0.000  0.399
atom    4   Tr[ns(na)] =   3.79772
    eigenvalues: 
  0.356  0.356  0.382  0.402  0.402
    eigenvectors:
  0.000  0.000  1.000  0.000  0.000
  0.279  0.642  0.000  0.019  0.060
  0.643  0.278  0.000  0.059  0.019
  0.054  0.025  0.000  0.692  0.230
  0.024  0.055  0.000  0.230  0.691
    occupations:
  0.382  0.000  0.000  0.000  0.000
  0.000  0.360  0.000  0.000  0.013
  0.000  0.000  0.360  0.012  0.000
  0.000  0.000  0.012  0.399  0.000
  0.000  0.013  0.000  0.000  0.399
atom    5   Tr[ns(na)] =   5.42229
    eigenvalues: 
  0.839  0.928  0.944
    eigenvectors:
  0.339  0.000  0.661
  0.496  0.250  0.254
  0.165  0.750  0.085
    occupations:
  0.908 -0.043  0.025
 -0.043  0.888  0.023
  0.025  0.023  0.915
atom    6   Tr[ns(na)] =   5.43179
    eigenvalues: 
  0.842  0.929  0.945
    eigenvectors:
  0.339  0.000  0.661
  0.495  0.251  0.254
  0.166  0.749  0.085
    occupations:
  0.910  0.042  0.024
  0.042  0.890 -0.023
  0.024 -0.023  0.916
atom    7   Tr[ns(na)] =   5.43179
    eigenvalues: 
  0.842  0.929  0.945
    eigenvectors:
  0.339  0.000  0.661
  0.000  1.000  0.000
  0.661  0.000  0.339
    occupations:
  0.910  0.000 -0.049
  0.000  0.929  0.000
 -0.049  0.000  0.877
atom    8   Tr[ns(na)] =   5.43121
    eigenvalues: 
  0.842  0.929  0.944
    eigenvectors:
  0.339  0.000  0.661
  0.496  0.250  0.253
  0.165  0.750  0.085
    occupations:
  0.910 -0.042  0.024
 -0.042  0.890  0.023
  0.024  0.023  0.916
atom    9   Tr[ns(na)] =   5.43186
    eigenvalues: 
  0.842  0.929  0.945
    eigenvectors:
  0.338  0.000  0.662
  0.496  0.250  0.253
  0.165  0.750  0.085
    occupations:
  0.910  0.042  0.024
  0.042  0.890 -0.023
  0.024 -0.023  0.916
atom   10   Tr[ns(na)] =   5.43186
    eigenvalues: 
  0.842  0.929  0.945
    eigenvectors:
  0.338  0.000  0.662
  0.000  1.000  0.000
  0.662  0.000  0.338
    occupations:
  0.910  0.000 -0.049
  0.000  0.929  0.000
 -0.049  0.000  0.877
N of occupied +U levels =  56.2854827
 --- exit write_ns ---
 --- in v_hubbard ---
Hubbard energy    0.2241
 -------

     total cpu time spent up to now is      335.4 secs

     total energy              =    -538.09622584 Ry
     Harris-Foulkes estimate   =    -538.09620808 Ry
     estimated scf accuracy    <       0.00000031 Ry

     iteration #  9     ecut=    30.00 Ry     beta=0.20
     Davidson diagonalization with overlap
     ethr =  4.07E-10,  avg # of iterations =  2.3
 --- enter write_ns ---
 LDA+U parameters:
U( 1)     =  2.00000000
alpha( 1) =  0.00000000
U( 2)     =  0.00000000
alpha( 2) =  0.00000000
U( 3)     =  0.00000000
alpha( 3) =  0.15000000
U( 4)     =  0.00000000
alpha( 4) =  0.00000000
atom    1   Tr[ns(na)] =   8.05495
    eigenvalues: 
  0.546  0.547  0.978  0.978  0.979
    eigenvectors:
  0.000  0.000  0.009  0.061  0.930
  0.101  0.555  0.194  0.131  0.018
  0.556  0.102  0.146  0.191  0.006
  0.176  0.167  0.075  0.556  0.027
  0.167  0.176  0.576  0.061  0.019
    occupations:
  0.979  0.000  0.000  0.000  0.000
  0.000  0.695  0.000 -0.073  0.191
  0.000  0.000  0.694  0.191  0.074
  0.000 -0.073  0.191  0.830  0.000
  0.000  0.191  0.074  0.000  0.830
atom    2   Tr[ns(na)] =   8.05386
    eigenvalues: 
  0.544  0.546  0.978  0.979  0.980
    eigenvectors:
  0.000  0.000  0.010  0.064  0.926
  0.236  0.421  0.010  0.314  0.019
  0.421  0.236  0.329  0.007  0.007
  0.317  0.026  0.627  0.028  0.001
  0.025  0.317  0.023  0.587  0.047
    occupations:
  0.980  0.000  0.000  0.000  0.000
  0.000  0.694  0.000  0.074  0.192
  0.000  0.000  0.694  0.192 -0.073
  0.000  0.074  0.192  0.830  0.000
  0.000  0.192 -0.073  0.000  0.830
atom    3   Tr[ns(na)] =   3.79776
    eigenvalues: 
  0.356  0.356  0.382  0.402  0.402
    eigenvectors:
  0.000  0.000  1.000  0.000  0.000
  0.692  0.230  0.000  0.007  0.071
  0.230  0.692  0.000  0.071  0.007
  0.020  0.058  0.000  0.834  0.088
  0.058  0.020  0.000  0.088  0.834
    occupations:
  0.382  0.000  0.000  0.000  0.000
  0.000  0.360  0.000  0.000  0.012
  0.000  0.000  0.360  0.012  0.000
  0.000  0.000  0.012  0.399  0.000
  0.000  0.012  0.000  0.000  0.399
atom    4   Tr[ns(na)] =   3.79772
    eigenvalues: 
  0.356  0.356  0.382  0.402  0.402
    eigenvectors:
  0.000  0.000  1.000  0.000  0.000
  0.292  0.629  0.000  0.019  0.060
  0.630  0.292  0.000  0.059  0.019
  0.053  0.026  0.000  0.690  0.232
  0.025  0.054  0.000  0.232  0.689
    occupations:
  0.382  0.000  0.000  0.000  0.000
  0.000  0.360  0.000  0.000  0.013
  0.000  0.000  0.360  0.012  0.000
  0.000  0.000  0.012  0.399  0.000
  0.000  0.013  0.000  0.000  0.399
atom    5   Tr[ns(na)] =   5.42236
    eigenvalues: 
  0.839  0.928  0.944
    eigenvectors:
  0.339  0.000  0.661
  0.496  0.250  0.254
  0.165  0.750  0.085
    occupations:
  0.908 -0.043  0.025
 -0.043  0.888  0.023
  0.025  0.023  0.915
atom    6   Tr[ns(na)] =   5.43184
    eigenvalues: 
  0.842  0.929  0.945
    eigenvectors:
  0.339  0.000  0.661
  0.495  0.251  0.254
  0.166  0.749  0.085
    occupations:
  0.910  0.042  0.024
  0.042  0.890 -0.023
  0.024 -0.023  0.916
atom    7   Tr[ns(na)] =   5.43184
    eigenvalues: 
  0.842  0.929  0.945
    eigenvectors:
  0.339  0.000  0.661
  0.000  1.000  0.000
  0.661  0.000  0.339
    occupations:
  0.910  0.000 -0.049
  0.000  0.929  0.000
 -0.049  0.000  0.877
atom    8   Tr[ns(na)] =   5.43127
    eigenvalues: 
  0.842  0.929  0.945
    eigenvectors:
  0.339  0.000  0.661
  0.496  0.250  0.253
  0.165  0.750  0.085
    occupations:
  0.910 -0.042  0.024
 -0.042  0.890  0.023
  0.024  0.023  0.916
atom    9   Tr[ns(na)] =   5.43192
    eigenvalues: 
  0.842  0.929  0.945
    eigenvectors:
  0.338  0.000  0.662
  0.496  0.250  0.253
  0.165  0.750  0.085
    occupations:
  0.910  0.042  0.024
  0.042  0.890 -0.023
  0.024 -0.023  0.916
atom   10   Tr[ns(na)] =   5.43192
    eigenvalues: 
  0.842  0.929  0.945
    eigenvectors:
  0.338  0.000  0.662
  0.000  1.000  0.000
  0.662  0.000  0.338
    occupations:
  0.910  0.000 -0.049
  0.000  0.929  0.000
 -0.049  0.000  0.877
N of occupied +U levels =  56.2854354
 --- exit write_ns ---
 --- in v_hubbard ---
Hubbard energy    0.2241
 -------

     total cpu time spent up to now is      363.9 secs

     total energy              =    -538.09623758 Ry
     Harris-Foulkes estimate   =    -538.09622589 Ry
     estimated scf accuracy    <       0.00000011 Ry

     iteration # 10     ecut=    30.00 Ry     beta=0.20
     Davidson diagonalization with overlap
     ethr =  1.46E-10,  avg # of iterations =  1.1
 --- enter write_ns ---
 LDA+U parameters:
U( 1)     =  2.00000000
alpha( 1) =  0.00000000
U( 2)     =  0.00000000
alpha( 2) =  0.00000000
U( 3)     =  0.00000000
alpha( 3) =  0.15000000
U( 4)     =  0.00000000
alpha( 4) =  0.00000000
atom    1   Tr[ns(na)] =   8.05521
    eigenvalues: 
  0.546  0.548  0.978  0.978  0.979
    eigenvectors:
  0.000  0.000  0.009  0.062  0.929
  0.101  0.555  0.195  0.129  0.019
  0.556  0.102  0.145  0.192  0.006
  0.176  0.167  0.074  0.556  0.027
  0.167  0.176  0.577  0.060  0.019
    occupations:
  0.979  0.000  0.000  0.000  0.000
  0.000  0.695  0.000 -0.073  0.191
  0.000  0.000  0.694  0.191  0.074
  0.000 -0.073  0.191  0.830  0.000
  0.000  0.191  0.074  0.000  0.830
atom    2   Tr[ns(na)] =   8.05389
    eigenvalues: 
  0.544  0.546  0.978  0.979  0.980
    eigenvectors:
  0.000  0.000  0.010  0.065  0.924
  0.236  0.421  0.010  0.313  0.019
  0.421  0.236  0.329  0.007  0.007
  0.317  0.026  0.626  0.029  0.001
  0.025  0.317  0.024  0.585  0.048
    occupations:
  0.979  0.000  0.000  0.000  0.000
  0.000  0.694  0.000  0.074  0.192
  0.000  0.000  0.694  0.192 -0.073
  0.000  0.074  0.192  0.830  0.000
  0.000  0.192 -0.073  0.000  0.830
atom    3   Tr[ns(na)] =   3.79777
    eigenvalues: 
  0.356  0.356  0.382  0.402  0.402
    eigenvectors:
  0.000  0.000  1.000  0.000  0.000
  0.692  0.230  0.000  0.007  0.071
  0.230  0.692  0.000  0.071  0.007
  0.020  0.058  0.000  0.831  0.091
  0.058  0.020  0.000  0.091  0.831
    occupations:
  0.382  0.000  0.000  0.000  0.000
  0.000  0.360  0.000  0.000  0.012
  0.000  0.000  0.360  0.012  0.000
  0.000  0.000  0.012  0.399  0.000
  0.000  0.012  0.000  0.000  0.399
atom    4   Tr[ns(na)] =   3.79773
    eigenvalues: 
  0.356  0.356  0.382  0.402  0.402
    eigenvectors:
  0.000  0.000  1.000  0.000  0.000
  0.290  0.630  0.000  0.019  0.060
  0.631  0.290  0.000  0.059  0.019
  0.053  0.026  0.000  0.689  0.232
  0.025  0.054  0.000  0.232  0.688
    occupations:
  0.382  0.000  0.000  0.000  0.000
  0.000  0.360  0.000  0.000  0.013
  0.000  0.000  0.360  0.012  0.000
  0.000  0.000  0.012  0.399  0.000
  0.000  0.013  0.000  0.000  0.399
atom    5   Tr[ns(na)] =   5.42230
    eigenvalues: 
  0.839  0.928  0.944
    eigenvectors:
  0.339  0.000  0.661
  0.496  0.250  0.254
  0.165  0.750  0.085
    occupations:
  0.908 -0.043  0.025
 -0.043  0.888  0.023
  0.025  0.023  0.915
atom    6   Tr[ns(na)] =   5.43180
    eigenvalues: 
  0.842  0.929  0.945
    eigenvectors:
  0.339  0.000  0.661
  0.495  0.251  0.254
  0.166  0.749  0.085
    occupations:
  0.910  0.042  0.024
  0.042  0.890 -0.023
  0.024 -0.023  0.916
atom    7   Tr[ns(na)] =   5.43180
    eigenvalues: 
  0.842  0.929  0.945
    eigenvectors:
  0.339  0.000  0.661
  0.000  1.000  0.000
  0.661  0.000  0.339
    occupations:
  0.910  0.000 -0.049
  0.000  0.929  0.000
 -0.049  0.000  0.877
atom    8   Tr[ns(na)] =   5.43122
    eigenvalues: 
  0.842  0.929  0.944
    eigenvectors:
  0.339  0.000  0.661
  0.496  0.250  0.253
  0.165  0.750  0.085
    occupations:
  0.910 -0.042  0.024
 -0.042  0.890  0.023
  0.024  0.023  0.916
atom    9   Tr[ns(na)] =   5.43187
    eigenvalues: 
  0.842  0.929  0.945
    eigenvectors:
  0.338  0.000  0.662
  0.496  0.250  0.253
  0.165  0.750  0.085
    occupations:
  0.910  0.042  0.024
  0.042  0.890 -0.023
  0.024 -0.023  0.916
atom   10   Tr[ns(na)] =   5.43187
    eigenvalues: 
  0.842  0.929  0.945
    eigenvectors:
  0.338  0.000  0.662
  0.000  1.000  0.000
  0.662  0.000  0.338
    occupations:
  0.910  0.000 -0.049
  0.000  0.929  0.000
 -0.049  0.000  0.877
N of occupied +U levels =  56.2854554
 --- exit write_ns ---
 --- in v_hubbard ---
Hubbard energy    0.2242
 -------

     total cpu time spent up to now is      393.1 secs

     End of self-consistent calculation

          k = 0.0000 0.0000 0.0000 (  2175 PWs)   bands (ev):

   -19.7965 -19.6229  -6.5555  -5.8705  -5.8337  -5.8251  -5.8192  -5.4895
    -3.7870  -3.2577  -3.2196  -3.2171  -3.0228  -3.0218   5.2154   6.8713
     6.8833   7.4382   7.4456   7.4901   7.5290   7.5453   7.7334   9.3090
     9.5172   9.6272   9.6398   9.7019   9.7050  10.1176  10.1220  10.3679
    10.4704  10.4752  10.6874  11.3010  11.3047  11.7753  12.0678  12.0714
    14.7675  14.7712  15.4253  15.4277  16.1967  16.7825

     occupation numbers 
     0.0313   0.0313   0.0313   0.0313   0.0313   0.0313   0.0313   0.0313
     0.0313   0.0313   0.0313   0.0313   0.0313   0.0313   0.0313   0.0313
     0.0313   0.0313   0.0313   0.0313   0.0313   0.0313   0.0313   0.0313
     0.0312   0.0312   0.0312   0.0312   0.0312   0.0312   0.0312   0.0312
     0.0312   0.0312   0.0312   0.0306   0.0306   0.0204   0.0083   0.0082
     0.0000   0.0000   0.0000   0.0000   0.0000   0.0000

          k =-0.2471-0.1427 0.1027 (  2181 PWs)   bands (ev):

   -19.7692 -19.6518  -6.7333  -6.2963  -5.9519  -5.8540  -5.6190  -5.4864
    -3.5931  -3.3901  -2.9319  -2.9035  -2.8497  -2.7590   5.5720   6.8791
     6.9742   6.9997   7.0405   7.4198   7.4575   7.5424   7.6379   8.4474
     8.4941   9.0855   9.6536   9.7600   9.7885  10.0135  10.3583  10.3687
    10.5416  10.5460  10.6744  11.4604  11.5271  11.5679  12.3285  12.3959
    14.3148  14.3223  15.8153  16.0678  16.9714  17.2650

     occupation numbers 
     0.0625   0.0625   0.0625   0.0625   0.0625   0.0625   0.0625   0.0625
     0.0625   0.0625   0.0625   0.0625   0.0625   0.0625   0.0625   0.0625
     0.0625   0.0625   0.0625   0.0625   0.0625   0.0625   0.0625   0.0625
     0.0625   0.0625   0.0625   0.0625   0.0625   0.0625   0.0625   0.0625
     0.0625   0.0625   0.0625   0.0582   0.0559   0.0542   0.0040   0.0025
     0.0000   0.0000   0.0000   0.0000   0.0000   0.0000

          k = 0.4942 0.2853-0.2053 (  2202 PWs)   bands (ev):

   -19.7124 -19.7105  -6.7395  -6.7115  -5.9772  -5.9546  -5.5383  -5.5176
    -3.3822  -3.3756  -2.7911  -2.7883  -2.5094  -2.5034   6.0430   6.0732
     7.1509   7.1678   7.2228   7.2563   7.5095   7.5325   7.7015   7.7363
     7.9183   7.9511   9.4877   9.4961   9.8711   9.8859  10.2838  10.2958
    10.9318  10.9460  11.0588  11.0710  11.2816  11.2986  13.2957  13.3318
    13.3816  13.4132  16.8328  16.8361  17.1295  17.1331

     occupation numbers 
     0.0313   0.0313   0.0313   0.0313   0.0313   0.0313   0.0313   0.0313
     0.0313   0.0313   0.0313   0.0313   0.0313   0.0313   0.0313   0.0313
     0.0313   0.0313   0.0313   0.0313   0.0313   0.0313   0.0313   0.0313
     0.0313   0.0313   0.0313   0.0312   0.0312   0.0312   0.0312   0.0312
     0.0312   0.0312   0.0312   0.0312   0.0307   0.0306   0.0000   0.0000
     0.0000   0.0000   0.0000   0.0000   0.0000   0.0000

          k =-0.2471 0.1427 0.2053 (  2195 PWs)   bands (ev):

   -19.7638 -19.6585  -6.8493  -6.2366  -6.0645  -5.8587  -5.6700  -5.4580
    -3.4119  -3.2598  -3.0994  -2.8893  -2.8158  -2.5581   5.5909   6.7679
     6.8155   6.8694   7.2301   7.4638   7.4925   7.5338   7.5750   8.5517
     8.6169   8.7961   9.2910   9.6497   9.9382  10.0479  10.0533  10.1546
    10.2787  11.0005  11.1347  11.1507  11.4823  11.5576  11.9714  12.7423
    13.6398  14.7841  15.9913  16.1922  17.0323  17.5363

     occupation numbers 
     0.0625   0.0625   0.0625   0.0625   0.0625   0.0625   0.0625   0.0625
     0.0625   0.0625   0.0625   0.0625   0.0625   0.0625   0.0625   0.0625
     0.0625   0.0625   0.0625   0.0625   0.0625   0.0625   0.0625   0.0625
     0.0625   0.0625   0.0625   0.0625   0.0625   0.0625   0.0625   0.0625
     0.0625   0.0624   0.0622   0.0622   0.0575   0.0546   0.0242   0.0001
     0.0000   0.0000   0.0000   0.0000   0.0000   0.0000

          k = 0.4942 0.5706-0.1027 (  2198 PWs)   bands (ev):

   -19.7277 -19.6961  -6.9495  -6.6535  -6.1242  -5.9171  -5.5271  -5.3802
    -3.3016  -3.2505  -2.8767  -2.7051  -2.5261  -2.3822   5.8900   6.2549
     6.5898   6.9634   7.1769   7.3242   7.4467   7.6359   7.6723   7.8536
     8.1804   8.7690   9.0496   9.3084   9.6097   9.8155   9.9263  10.3498
    10.5844  11.0592  11.1646  11.2387  11.3745  11.4567  12.3184  12.7437
    13.4350  14.3617  16.9022  17.1121  17.3073  18.0140

     occupation numbers 
     0.0625   0.0625   0.0625   0.0625   0.0625   0.0625   0.0625   0.0625
     0.0625   0.0625   0.0625   0.0625   0.0625   0.0625   0.0625   0.0625
     0.0625   0.0625   0.0625   0.0625   0.0625   0.0625   0.0625   0.0625
     0.0625   0.0625   0.0625   0.0625   0.0625   0.0625   0.0625   0.0625
     0.0625   0.0624   0.0621   0.0617   0.0602   0.0583   0.0043   0.0001
     0.0000   0.0000   0.0000   0.0000   0.0000   0.0000

          k = 0.2471 0.4280 0.0000 (  2203 PWs)   bands (ev):

   -19.7376 -19.6847  -6.8569  -6.6332  -6.0758  -5.9738  -5.4372  -5.3818
    -3.5143  -3.2903  -2.7974  -2.7130  -2.5697  -2.5568   5.9038   6.2766
     6.8491   7.0767   7.1624   7.2520   7.4346   7.4889   7.5701   7.9239
     8.1568   8.9437   9.1462   9.4256   9.7638   9.7842  10.0676  10.3578
    10.8944  10.9244  11.0030  11.1874  11.2180  11.5533  12.2418  13.3232
    13.3981  14.1618  16.4348  16.9891  17.4171  17.9253

     occupation numbers 
     0.0625   0.0625   0.0625   0.0625   0.0625   0.0625   0.0625   0.0625
     0.0625   0.0625   0.0625   0.0625   0.0625   0.0625   0.0625   0.0625
     0.0625   0.0625   0.0625   0.0625   0.0625   0.0625   0.0625   0.0625
     0.0625   0.0625   0.0625   0.0625   0.0625   0.0625   0.0625   0.0625
     0.0625   0.0625   0.0624   0.0620   0.0619   0.0548   0.0069   0.0000
     0.0000   0.0000   0.0000   0.0000   0.0000   0.0000

          k = 0.4942-0.2853-0.4107 (  2202 PWs)   bands (ev):

   -19.7307 -19.6939  -7.1589  -6.4534  -6.2310  -5.9989  -5.5510  -5.2872
    -3.1909  -3.1178  -3.0420  -2.6455  -2.4779  -2.2193   5.7927   6.1067
     6.2723   6.8613   7.1551   7.2622   7.5592   7.6593   8.1726   8.2609
     8.2734   8.3497   8.6022   9.4498   9.6936   9.8623  10.0469  10.0737
    10.4318  10.9482  11.1205  11.2752  11.4087  11.5878  11.9005  12.4306
    13.3374  14.7974  17.0392  17.2627  17.5158  17.6080

     occupation numbers 
     0.0313   0.0313   0.0313   0.0313   0.0313   0.0313   0.0313   0.0313
     0.0313   0.0313   0.0313   0.0313   0.0313   0.0313   0.0313   0.0313
     0.0313   0.0313   0.0313   0.0313   0.0313   0.0313   0.0313   0.0313
     0.0313   0.0313   0.0313   0.0313   0.0312   0.0312   0.0312   0.0312
     0.0312   0.0312   0.0311   0.0307   0.0297   0.0266   0.0151   0.0009
     0.0000   0.0000   0.0000   0.0000   0.0000   0.0000

          k = 0.0000 0.0000 0.3080 (  2187 PWs)   bands (ev):

   -19.7689 -19.6523  -6.6216  -5.9947  -5.9438  -5.9250  -5.8522  -5.8363
    -3.2028  -3.1168  -3.1131  -2.9662  -2.8961  -2.8931   5.6325   6.9686
     6.9810   7.1411   7.1553   7.3633   7.3751   7.5695   7.5828   8.6563
     8.6611   9.1596   9.4517   9.5962   9.6127   9.7778  10.1267  10.1419
    10.6673  10.6713  10.8242  11.4937  11.4967  11.5708  12.3011  12.3035
    14.2734  14.2771  15.9081  15.9110  16.8783  17.4800

     occupation numbers 
     0.0625   0.0625   0.0625   0.0625   0.0625   0.0625   0.0625   0.0625
     0.0625   0.0625   0.0625   0.0625   0.0625   0.0625   0.0625   0.0625
     0.0625   0.0625   0.0625   0.0625   0.0625   0.0625   0.0625   0.0625
     0.0625   0.0625   0.0625   0.0625   0.0625   0.0625   0.0625   0.0625
     0.0625   0.0625   0.0625   0.0571   0.0570   0.0540   0.0048   0.0047
     0.0000   0.0000   0.0000   0.0000   0.0000   0.0000

          k = 0.7412 0.4280 0.0000 (  2204 PWs)   bands (ev):

   -19.7373 -19.6852  -6.7360  -6.6108  -6.1468  -5.8347  -5.6863  -5.5584
    -3.1743  -3.0887  -3.0429  -2.6738  -2.6546  -2.5852   5.9265   6.5011
     6.8128   7.1105   7.1872   7.2937   7.3939   7.4912   7.6952   7.8870
     8.2213   8.8022   9.1592   9.4735   9.5836   9.6937   9.8512  10.2331
    10.8933  11.0096  11.0388  11.2604  11.2779  11.4153  12.2439  13.2482
    13.3167  14.1828  16.6863  16.7225  17.5908  17.7929

     occupation numbers 
     0.0625   0.0625   0.0625   0.0625   0.0625   0.0625   0.0625   0.0625
     0.0625   0.0625   0.0625   0.0625   0.0625   0.0625   0.0625   0.0625
     0.0625   0.0625   0.0625   0.0625   0.0625   0.0625   0.0625   0.0625
     0.0625   0.0625   0.0625   0.0625   0.0625   0.0625   0.0625   0.0625
     0.0625   0.0624   0.0624   0.0616   0.0614   0.0593   0.0068   0.0000
     0.0000   0.0000   0.0000   0.0000   0.0000   0.0000

          k = 0.4942 0.2853 0.1027 (  2211 PWs)   bands (ev):

   -19.7269 -19.6950  -6.9812  -6.5462  -6.3268  -5.7025  -5.6236  -5.3697
    -3.3163  -3.1625  -3.0297  -2.6033  -2.5609  -2.3791   5.9403   6.2080
     6.5630   6.9648   7.2172   7.2318   7.4703   7.6295   7.7529   7.8357
     8.1972   8.8564   9.0377   9.4026   9.4780   9.6626  10.0062  10.3521
    10.6170  11.1171  11.2536  11.2605  11.3112  11.3358  12.2740  12.7594
    13.4756  14.3461  16.8842  16.9332  17.5790  17.9261

     occupation numbers 
     0.0625   0.0625   0.0625   0.0625   0.0625   0.0625   0.0625   0.0625
     0.0625   0.0625   0.0625   0.0625   0.0625   0.0625   0.0625   0.0625
     0.0625   0.0625   0.0625   0.0625   0.0625   0.0625   0.0625   0.0625
     0.0625   0.0625   0.0625   0.0625   0.0625   0.0625   0.0625   0.0625
     0.0625   0.0623   0.0616   0.0616   0.0611   0.0608   0.0057   0.0001
     0.0000   0.0000   0.0000   0.0000   0.0000   0.0000

          k = 0.7412-0.4280-0.3080 (  2210 PWs)   bands (ev):

   -19.7278 -19.6962  -6.9015  -6.4598  -6.3007  -5.8242  -5.7655  -5.4810
    -3.0674  -3.0505  -2.9633  -2.7265  -2.6201  -2.4249   5.9884   6.3747
     6.6058   6.9351   7.1970   7.2643   7.5044   7.6563   7.7859   7.8688
     8.1913   8.8492   8.9171   9.4623   9.5112   9.5309   9.6652  10.1948
    10.6949  11.1322  11.2284  11.2491  11.3740  11.4031  12.2315  12.7099
    13.4297  14.3129  17.0575  17.0666  17.5487  17.9014

     occupation numbers 
     0.0625   0.0625   0.0625   0.0625   0.0625   0.0625   0.0625   0.0625
     0.0625   0.0625   0.0625   0.0625   0.0625   0.0625   0.0625   0.0625
     0.0625   0.0625   0.0625   0.0625   0.0625   0.0625   0.0625   0.0625
     0.0625   0.0625   0.0625   0.0625   0.0625   0.0625   0.0625   0.0625
     0.0625   0.0622   0.0618   0.0617   0.0602   0.0596   0.0073   0.0001
     0.0000   0.0000   0.0000   0.0000   0.0000   0.0000

          k = 0.4942-0.5706-0.2053 (  2206 PWs)   bands (ev):

   -19.7119 -19.7114  -6.8913  -6.8721  -6.0606  -6.0276  -5.4424  -5.4227
    -3.1497  -3.1491  -2.8153  -2.8102  -2.3832  -2.3789   6.0682   6.0972
     6.7394   6.7550   7.0822   7.0877   7.3802   7.3971   7.8926   7.9324
     8.7810   8.8030   8.8800   8.8998   9.5317   9.5475  10.0783  10.0878
    10.9011  10.9041  11.1234  11.1257  11.4269  11.4362  12.2887  12.2921
    14.0069  14.0173  17.4251  17.4275  17.8647  17.8695

     occupation numbers 
     0.0625   0.0625   0.0625   0.0625   0.0625   0.0625   0.0625   0.0625
     0.0625   0.0625   0.0625   0.0625   0.0625   0.0625   0.0625   0.0625
     0.0625   0.0625   0.0625   0.0625   0.0625   0.0625   0.0625   0.0625
     0.0625   0.0625   0.0625   0.0625   0.0625   0.0625   0.0625   0.0625
     0.0625   0.0625   0.0622   0.0622   0.0591   0.0588   0.0052   0.0051
     0.0000   0.0000   0.0000   0.0000   0.0000   0.0000

          k = 0.0000 0.0000-0.6160 (  2186 PWs)   bands (ev):

   -19.7127 -19.7106  -6.5269  -6.4973  -5.9748  -5.9358  -5.9341  -5.9324
    -2.8963  -2.8889  -2.8879  -2.8867  -2.7084  -2.7038   6.2736   6.3059
     7.1665   7.1720   7.1839   7.2073   7.5958   7.6315   7.8457   7.8499
     7.8766   7.8814   9.6206   9.6221   9.6338   9.6460   9.6936   9.7178
    11.1169  11.1302  11.1858  11.1894  11.1994  11.2060  13.2350  13.2377
    13.2681  13.2721  17.1142  17.1156  17.1170  17.1203

     occupation numbers 
     0.0313   0.0313   0.0313   0.0313   0.0313   0.0313   0.0313   0.0313
     0.0313   0.0313   0.0313   0.0313   0.0313   0.0313   0.0313   0.0313
     0.0313   0.0313   0.0313   0.0313   0.0313   0.0313   0.0313   0.0313
     0.0313   0.0313   0.0312   0.0312   0.0312   0.0312   0.0312   0.0312
     0.0311   0.0311   0.0310   0.0310   0.0310   0.0310   0.0000   0.0000
     0.0000   0.0000   0.0000   0.0000   0.0000   0.0000

          k =-0.2471 0.1427-0.1027 (  2181 PWs)   bands (ev):

   -19.7692 -19.6518  -6.7331  -6.2959  -5.9502  -5.8583  -5.6192  -5.4836
    -3.5950  -3.3892  -2.9328  -2.9026  -2.8488  -2.7599   5.5733   6.8819
     6.9824   6.9891   7.0421   7.4219   7.4538   7.5301   7.6486   8.4449
     8.4990   9.0817   9.6448   9.7664   9.7913  10.0150  10.3539  10.3751
    10.5400  10.5488  10.6720  11.4597  11.5281  11.5660  12.3265  12.3979
    14.3123  14.3246  15.8137  16.0704  16.9722  17.2667

     occupation numbers 
     0.0625   0.0625   0.0625   0.0625   0.0625   0.0625   0.0625   0.0625
     0.0625   0.0625   0.0625   0.0625   0.0625   0.0625   0.0625   0.0625
     0.0625   0.0625   0.0625   0.0625   0.0625   0.0625   0.0625   0.0625
     0.0625   0.0625   0.0625   0.0625   0.0625   0.0625   0.0625   0.0625
     0.0625   0.0625   0.0625   0.0582   0.0559   0.0542   0.0040   0.0024
     0.0000   0.0000   0.0000   0.0000   0.0000   0.0000

          k = 0.0000 0.2853 0.1027 (  2181 PWs)   bands (ev):

   -19.7692 -19.6518  -6.7333  -6.2964  -5.9515  -5.8543  -5.6193  -5.4861
    -3.5930  -3.3902  -2.9320  -2.9034  -2.8497  -2.7590   5.5720   6.8792
     6.9741   7.0000   7.0401   7.4200   7.4574   7.5421   7.6381   8.4476
     8.4939   9.0855   9.6539   9.7600   9.7882  10.0137  10.3596  10.3674
    10.5405  10.5469  10.6745  11.4603  11.5274  11.5677  12.3285  12.3959
    14.3146  14.3224  15.8153  16.0678  16.9714  17.2649

     occupation numbers 
     0.0625   0.0625   0.0625   0.0625   0.0625   0.0625   0.0625   0.0625
     0.0625   0.0625   0.0625   0.0625   0.0625   0.0625   0.0625   0.0625
     0.0625   0.0625   0.0625   0.0625   0.0625   0.0625   0.0625   0.0625
     0.0625   0.0625   0.0625   0.0625   0.0625   0.0625   0.0625   0.0625
     0.0625   0.0625   0.0625   0.0582   0.0559   0.0542   0.0040   0.0025
     0.0000   0.0000   0.0000   0.0000   0.0000   0.0000

          k = 0.4942-0.2853 0.2053 (  2202 PWs)   bands (ev):

   -19.7125 -19.7104  -6.7387  -6.7117  -5.9774  -5.9557  -5.5376  -5.5168
    -3.3810  -3.3782  -2.7915  -2.7871  -2.5093  -2.5040   6.0427   6.0768
     7.1549   7.1926   7.2218   7.2380   7.4954   7.5207   7.7075   7.7417
     7.9218   7.9499   9.4822   9.4913   9.8722   9.8996  10.2794  10.2963
    10.9338  10.9463  11.0591  11.0725  11.2804  11.2944  13.2950  13.3289
    13.3817  13.4166  16.8315  16.8364  17.1317  17.1357

     occupation numbers 
     0.0313   0.0313   0.0313   0.0313   0.0313   0.0313   0.0313   0.0313
     0.0313   0.0313   0.0313   0.0313   0.0313   0.0313   0.0313   0.0313
     0.0313   0.0313   0.0313   0.0313   0.0313   0.0313   0.0313   0.0313
     0.0313   0.0313   0.0313   0.0313   0.0312   0.0312   0.0312   0.0312
     0.0312   0.0312   0.0312   0.0312   0.0307   0.0306   0.0000   0.0000
     0.0000   0.0000   0.0000   0.0000   0.0000   0.0000

          k = 0.0000-0.5706-0.2053 (  2202 PWs)   bands (ev):

   -19.7124 -19.7105  -6.7385  -6.7125  -5.9754  -5.9563  -5.5407  -5.5153
    -3.3795  -3.3783  -2.7928  -2.7867  -2.5091  -2.5037   6.0429   6.0732
     7.1515   7.1671   7.2282   7.2512   7.4972   7.5446   7.7085   7.7293
     7.9238   7.9456   9.4902   9.4939   9.8705   9.8864  10.2842  10.2953
    10.9334  10.9444  11.0568  11.0730  11.2851  11.2950  13.2977  13.3300
    13.3793  13.4155  16.8301  16.8389  17.1283  17.1343

     occupation numbers 
     0.0313   0.0313   0.0313   0.0313   0.0313   0.0313   0.0313   0.0313
     0.0313   0.0313   0.0313   0.0313   0.0313   0.0313   0.0313   0.0313
     0.0313   0.0313   0.0313   0.0313   0.0313   0.0313   0.0313   0.0313
     0.0313   0.0313   0.0313   0.0313   0.0312   0.0312   0.0312   0.0312
     0.0312   0.0312   0.0312   0.0312   0.0307   0.0306   0.0000   0.0000
     0.0000   0.0000   0.0000   0.0000   0.0000   0.0000

          k =-0.2471-0.1427-0.2053 (  2195 PWs)   bands (ev):

   -19.7627 -19.6578  -6.8628  -6.2408  -6.0752  -5.8278  -5.6576  -5.4724
    -3.4125  -3.2599  -3.0999  -2.8928  -2.8178  -2.5607   5.6062   6.7850
     6.7942   6.8786   7.2216   7.4661   7.5073   7.5296   7.5756   8.5410
     8.5997   8.8029   9.3041   9.6440   9.9462  10.0430  10.0491  10.1617
    10.2906  10.9899  11.1269  11.1447  11.4820  11.5602  11.9733  12.7376
    13.6392  14.7869  15.9906  16.1934  17.0362  17.5376

     occupation numbers 
     0.0625   0.0625   0.0625   0.0625   0.0625   0.0625   0.0625   0.0625
     0.0625   0.0625   0.0625   0.0625   0.0625   0.0625   0.0625   0.0625
     0.0625   0.0625   0.0625   0.0625   0.0625   0.0625   0.0625   0.0625
     0.0625   0.0625   0.0625   0.0625   0.0625   0.0625   0.0625   0.0625
     0.0625   0.0624   0.0622   0.0622   0.0575   0.0545   0.0240   0.0001
     0.0000   0.0000   0.0000   0.0000   0.0000   0.0000

          k = 0.0000-0.2853 0.2053 (  2195 PWs)   bands (ev):

   -19.7627 -19.6578  -6.8628  -6.2410  -6.0750  -5.8279  -5.6576  -5.4724
    -3.4124  -3.2599  -3.1000  -2.8927  -2.8178  -2.5607   5.6062   6.7849
     6.7943   6.8787   7.2216   7.4653   7.5077   7.5298   7.5757   8.5408
     8.6000   8.8028   9.3042   9.6440   9.9462  10.0429  10.0493  10.1616
    10.2906  10.9899  11.1273  11.1442  11.4819  11.5603  11.9733  12.7376
    13.6392  14.7869  15.9906  16.1934  17.0362  17.5376

     occupation numbers 
     0.0625   0.0625   0.0625   0.0625   0.0625   0.0625   0.0625   0.0625
     0.0625   0.0625   0.0625   0.0625   0.0625   0.0625   0.0625   0.0625
     0.0625   0.0625   0.0625   0.0625   0.0625   0.0625   0.0625   0.0625
     0.0625   0.0625   0.0625   0.0625   0.0625   0.0625   0.0625   0.0625
     0.0625   0.0624   0.0622   0.0622   0.0575   0.0545   0.0240   0.0001
     0.0000   0.0000   0.0000   0.0000   0.0000   0.0000

          k = 0.4942-0.5706 0.1027 (  2198 PWs)   bands (ev):

   -19.7265 -19.6954  -6.9656  -6.6481  -6.1389  -5.8874  -5.5177  -5.3941
    -3.3037  -3.2510  -2.8745  -2.7083  -2.5281  -2.3856   5.9065   6.2399
     6.6046   6.9725   7.1873   7.3413   7.4458   7.6203   7.6626   7.8653
     8.1602   8.7819   9.0330   9.2981   9.6174   9.8086   9.9234  10.3594
    10.5891  11.0494  11.1713  11.2437  11.3769  11.4431  12.3197  12.7443
    13.4292  14.3643  16.9041  17.1122  17.3087  18.0145

     occupation numbers 
     0.0625   0.0625   0.0625   0.0625   0.0625   0.0625   0.0625   0.0625
     0.0625   0.0625   0.0625   0.0625   0.0625   0.0625   0.0625   0.0625
     0.0625   0.0625   0.0625   0.0625   0.0625   0.0625   0.0625   0.0625
     0.0625   0.0625   0.0625   0.0625   0.0625   0.0625   0.0625   0.0625
     0.0625   0.0624   0.0621   0.0617   0.0601   0.0587   0.0042   0.0001
     0.0000   0.0000   0.0000   0.0000   0.0000   0.0000

          k =-0.7412 0.1427-0.1027 (  2198 PWs)   bands (ev):

   -19.7265 -19.6954  -6.9651  -6.6490  -6.1377  -5.8885  -5.5167  -5.3948
    -3.3029  -3.2511  -2.8744  -2.7093  -2.5274  -2.3860   5.9085   6.2362
     6.6087   6.9717   7.1830   7.3426   7.4353   7.6333   7.6782   7.8476
     8.1608   8.7768   9.0370   9.2990   9.6199   9.8077   9.9238  10.3576
    10.5895  11.0532  11.1660  11.2448  11.3732  11.4468  12.3200  12.7445
    13.4293  14.3645  16.9023  17.1151  17.3081  18.0143

     occupation numbers 
     0.0625   0.0625   0.0625   0.0625   0.0625   0.0625   0.0625   0.0625
     0.0625   0.0625   0.0625   0.0625   0.0625   0.0625   0.0625   0.0625
     0.0625   0.0625   0.0625   0.0625   0.0625   0.0625   0.0625   0.0625
     0.0625   0.0625   0.0625   0.0625   0.0625   0.0625   0.0625   0.0625
     0.0625   0.0624   0.0621   0.0617   0.0602   0.0586   0.0042   0.0001
     0.0000   0.0000   0.0000   0.0000   0.0000   0.0000

          k = 0.2471-0.7133-0.1027 (  2198 PWs)   bands (ev):

   -19.7265 -19.6954  -6.9656  -6.6482  -6.1392  -5.8871  -5.5156  -5.3965
    -3.3028  -3.2509  -2.8750  -2.7079  -2.5276  -2.3864   5.9076   6.2359
     6.6069   6.9734   7.1852   7.3397   7.4343   7.6317   7.6808   7.8496
     8.1603   8.7766   9.0399   9.3010   9.6126   9.8129   9.9202  10.3590
    10.5896  11.0552  11.1650  11.2371  11.3785  11.4485  12.3198  12.7446
    13.4293  14.3645  16.9045  17.1117  17.3080  18.0128

     occupation numbers 
     0.0625   0.0625   0.0625   0.0625   0.0625   0.0625   0.0625   0.0625
     0.0625   0.0625   0.0625   0.0625   0.0625   0.0625   0.0625   0.0625
     0.0625   0.0625   0.0625   0.0625   0.0625   0.0625   0.0625   0.0625
     0.0625   0.0625   0.0625   0.0625   0.0625   0.0625   0.0625   0.0625
     0.0625   0.0624   0.0621   0.0617   0.0601   0.0585   0.0042   0.0001
     0.0000   0.0000   0.0000   0.0000   0.0000   0.0000

          k =-0.7412-0.1427 0.1027 (  2198 PWs)   bands (ev):

   -19.7265 -19.6954  -6.9660  -6.6474  -6.1402  -5.8861  -5.5166  -5.3958
    -3.3035  -3.2508  -2.8751  -2.7069  -2.5282  -2.3861   5.9056   6.2396
     6.6027   6.9744   7.1893   7.3385   7.4443   7.6191   7.6654   7.8671
     8.1598   8.7816   9.0358   9.3000   9.6103   9.8137   9.9198  10.3608
    10.5892  11.0515  11.1703  11.2360  11.3823  11.4447  12.3196  12.7444
    13.4292  14.3643  16.9063  17.1089  17.3085  18.0132

     occupation numbers 
     0.0625   0.0625   0.0625   0.0625   0.0625   0.0625   0.0625   0.0625
     0.0625   0.0625   0.0625   0.0625   0.0625   0.0625   0.0625   0.0625
     0.0625   0.0625   0.0625   0.0625   0.0625   0.0625   0.0625   0.0625
     0.0625   0.0625   0.0625   0.0625   0.0625   0.0625   0.0625   0.0625
     0.0625   0.0624   0.0621   0.0618   0.0600   0.0586   0.0042   0.0001
     0.0000   0.0000   0.0000   0.0000   0.0000   0.0000

          k = 0.2471 0.7133 0.1027 (  2198 PWs)   bands (ev):

   -19.7277 -19.6961  -6.9500  -6.6526  -6.1254  -5.9160  -5.5280  -5.3795
    -3.3023  -3.2504  -2.8768  -2.7041  -2.5267  -2.3818   5.8881   6.2587
     6.5855   6.9644   7.1812   7.3226   7.4572   7.6227   7.6581   7.8697
     8.1801   8.7738   9.0458   9.3076   9.6074   9.8159   9.9260  10.3516
    10.5840  11.0554  11.1697  11.2378  11.3785  11.4529  12.3181  12.7435
    13.4349  14.3614  16.9041  17.1093  17.3079  18.0141

     occupation numbers 
     0.0625   0.0625   0.0625   0.0625   0.0625   0.0625   0.0625   0.0625
     0.0625   0.0625   0.0625   0.0625   0.0625   0.0625   0.0625   0.0625
     0.0625   0.0625   0.0625   0.0625   0.0625   0.0625   0.0625   0.0625
     0.0625   0.0625   0.0625   0.0625   0.0625   0.0625   0.0625   0.0625
     0.0625   0.0624   0.0621   0.0617   0.0601   0.0584   0.0043   0.0001
     0.0000   0.0000   0.0000   0.0000   0.0000   0.0000

          k = 0.2471-0.4280 0.0000 (  2203 PWs)   bands (ev):

   -19.7378 -19.6845  -6.8499  -6.6479  -6.0455  -5.9904  -5.4530  -5.3720
    -3.5165  -3.2903  -2.8006  -2.7062  -2.5682  -2.5595   5.8879   6.2862
     6.8413   7.0801   7.1755   7.2580   7.4217   7.5017   7.5644   7.9371
     8.1697   8.9252   9.1380   9.3982   9.7681   9.7923  10.0665  10.3634
    10.8988  10.9277  11.0064  11.1921  11.2183  11.5437  12.2420  13.3256
    13.4009  14.1571  16.4339  16.9921  17.4203  17.9248

     occupation numbers 
     0.0625   0.0625   0.0625   0.0625   0.0625   0.0625   0.0625   0.0625
     0.0625   0.0625   0.0625   0.0625   0.0625   0.0625   0.0625   0.0625
     0.0625   0.0625   0.0625   0.0625   0.0625   0.0625   0.0625   0.0625
     0.0625   0.0625   0.0625   0.0625   0.0625   0.0625   0.0625   0.0625
     0.0625   0.0625   0.0624   0.0620   0.0619   0.0552   0.0069   0.0000
     0.0000   0.0000   0.0000   0.0000   0.0000   0.0000

          k =-0.4942 0.0000 0.0000 (  2203 PWs)   bands (ev):

   -19.7378 -19.6845  -6.8499  -6.6480  -6.0454  -5.9904  -5.4530  -5.3721
    -3.5166  -3.2903  -2.8006  -2.7062  -2.5678  -2.5599   5.8879   6.2862
     6.8414   7.0809   7.1725   7.2600   7.4218   7.5022   7.5644   7.9366
     8.1698   8.9252   9.1380   9.3982   9.7688   9.7915  10.0666  10.3633
    10.8988  10.9275  11.0064  11.1921  11.2185  11.5437  12.2420  13.3256
    13.4009  14.1571  16.4339  16.9921  17.4202  17.9239

     occupation numbers 
     0.0625   0.0625   0.0625   0.0625   0.0625   0.0625   0.0625   0.0625
     0.0625   0.0625   0.0625   0.0625   0.0625   0.0625   0.0625   0.0625
     0.0625   0.0625   0.0625   0.0625   0.0625   0.0625   0.0625   0.0625
     0.0625   0.0625   0.0625   0.0625   0.0625   0.0625   0.0625   0.0625
     0.0625   0.0625   0.0624   0.0620   0.0619   0.0552   0.0069   0.0000
     0.0000   0.0000   0.0000   0.0000   0.0000   0.0000

          k = 0.4942 0.2853 0.4107 (  2202 PWs)   bands (ev):

   -19.7284 -19.6924  -7.1768  -6.4601  -6.2481  -5.9614  -5.5297  -5.3049
    -3.1919  -3.1191  -3.0425  -2.6517  -2.4814  -2.2243   5.8167   6.1278
     6.2438   6.8700   7.1752   7.2847   7.5717   7.6703   8.1773   8.2392
     8.2490   8.3167   8.6285   9.4187   9.6866   9.8629  10.0441  10.0833
    10.4437  10.9493  11.1155  11.2789  11.4108  11.5765  11.9019  12.4318
    13.3304  14.8003  17.0410  17.2637  17.5194  17.6107

     occupation numbers 
     0.0313   0.0313   0.0313   0.0313   0.0313   0.0313   0.0313   0.0313
     0.0313   0.0313   0.0313   0.0313   0.0313   0.0313   0.0313   0.0313
     0.0313   0.0313   0.0313   0.0313   0.0313   0.0313   0.0313   0.0313
     0.0313   0.0313   0.0313   0.0313   0.0312   0.0312   0.0312   0.0312
     0.0312   0.0312   0.0311   0.0307   0.0297   0.0269   0.0150   0.0009
     0.0000   0.0000   0.0000   0.0000   0.0000   0.0000

          k = 0.0000 0.5706-0.4107 (  2202 PWs)   bands (ev):

   -19.7284 -19.6924  -7.1768  -6.4602  -6.2479  -5.9614  -5.5298  -5.3049
    -3.1919  -3.1191  -3.0425  -2.6517  -2.4814  -2.2243   5.8167   6.1278
     6.2438   6.8700   7.1752   7.2847   7.5711   7.6709   8.1775   8.2391
     8.2491   8.3164   8.6285   9.4187   9.6865   9.8629  10.0443  10.0831
    10.4437  10.9493  11.1157  11.2786  11.4111  11.5765  11.9018  12.4318
    13.3304  14.8003  17.0410  17.2638  17.5194  17.6107

     occupation numbers 
     0.0313   0.0313   0.0313   0.0313   0.0313   0.0313   0.0313   0.0313
     0.0313   0.0313   0.0313   0.0313   0.0313   0.0313   0.0313   0.0313
     0.0313   0.0313   0.0313   0.0313   0.0313   0.0313   0.0313   0.0313
     0.0313   0.0313   0.0313   0.0313   0.0312   0.0312   0.0312   0.0312
     0.0312   0.0312   0.0311   0.0307   0.0297   0.0269   0.0150   0.0009
     0.0000   0.0000   0.0000   0.0000   0.0000   0.0000

          k = 0.7412-0.4280 0.0000 (  2204 PWs)   bands (ev):

   -19.7372 -19.6853  -6.7428  -6.5976  -6.1549  -5.8412  -5.6914  -5.5441
    -3.1723  -3.0889  -3.0428  -2.6783  -2.6569  -2.5816   5.9459   6.4878
     6.8270   7.1032   7.1774   7.2811   7.4008   7.4923   7.6925   7.8734
     8.2092   8.8200   9.1709   9.4946   9.5826   9.6896   9.8517  10.2267
    10.8890  11.0059  11.0348  11.2552  11.2800  11.4216  12.2441  13.2459
    13.3137  14.1873  16.6887  16.7210  17.5887  17.7924

     occupation numbers 
     0.0625   0.0625   0.0625   0.0625   0.0625   0.0625   0.0625   0.0625
     0.0625   0.0625   0.0625   0.0625   0.0625   0.0625   0.0625   0.0625
     0.0625   0.0625   0.0625   0.0625   0.0625   0.0625   0.0625   0.0625
     0.0625   0.0625   0.0625   0.0625   0.0625   0.0625   0.0625   0.0625
     0.0625   0.0624   0.0624   0.0616   0.0614   0.0592   0.0068   0.0000
     0.0000   0.0000   0.0000   0.0000   0.0000   0.0000

          k = 0.0000-0.8559 0.0000 (  2204 PWs)   bands (ev):

   -19.7373 -19.6852  -6.7360  -6.6107  -6.1468  -5.8348  -5.6864  -5.5583
    -3.1743  -3.0887  -3.0429  -2.6738  -2.6546  -2.5852   5.9265   6.5011
     6.8129   7.1098   7.1901   7.2917   7.3937   7.4912   7.6948   7.8877
     8.2213   8.8022   9.1592   9.4735   9.5838   9.6933   9.8514  10.2330
    10.8933  11.0095  11.0390  11.2603  11.2780  11.4153  12.2439  13.2482
    13.3167  14.1828  16.6863  16.7226  17.5909  17.7929

     occupation numbers 
     0.0625   0.0625   0.0625   0.0625   0.0625   0.0625   0.0625   0.0625
     0.0625   0.0625   0.0625   0.0625   0.0625   0.0625   0.0625   0.0625
     0.0625   0.0625   0.0625   0.0625   0.0625   0.0625   0.0625   0.0625
     0.0625   0.0625   0.0625   0.0625   0.0625   0.0625   0.0625   0.0625
     0.0625   0.0624   0.0624   0.0616   0.0614   0.0593   0.0068   0.0000
     0.0000   0.0000   0.0000   0.0000   0.0000   0.0000

          k = 0.4942-0.2853-0.1027 (  2211 PWs)   bands (ev):

   -19.7281 -19.6957  -6.9662  -6.5506  -6.3248  -5.7175  -5.6344  -5.3559
    -3.3160  -3.1623  -3.0292  -2.6004  -2.5609  -2.3750   5.9231   6.2287
     6.5445   6.9582   7.2095   7.2209   7.4697   7.6326   7.7490   7.8432
     8.2159   8.8458   9.0482   9.3979   9.4680   9.6893  10.0114  10.3413
    10.6104  11.1192  11.2552  11.2640  11.3094  11.3384  12.2727  12.7587
    13.4812  14.3432  16.8834  16.9337  17.5798  17.9256

     occupation numbers 
     0.0625   0.0625   0.0625   0.0625   0.0625   0.0625   0.0625   0.0625
     0.0625   0.0625   0.0625   0.0625   0.0625   0.0625   0.0625   0.0625
     0.0625   0.0625   0.0625   0.0625   0.0625   0.0625   0.0625   0.0625
     0.0625   0.0625   0.0625   0.0625   0.0625   0.0625   0.0625   0.0625
     0.0625   0.0623   0.0616   0.0615   0.0611   0.0607   0.0057   0.0001
     0.0000   0.0000   0.0000   0.0000   0.0000   0.0000

          k = 0.0000-0.5706 0.1027 (  2211 PWs)   bands (ev):

   -19.7269 -19.6950  -6.9812  -6.5463  -6.3267  -5.7024  -5.6238  -5.3695
    -3.3163  -3.1625  -3.0297  -2.6032  -2.5611  -2.3791   5.9402   6.2080
     6.5630   6.9648   7.2208   7.2282   7.4698   7.6296   7.7525   7.8366
     8.1969   8.8564   9.0377   9.4028   9.4779   9.6625  10.0062  10.3521
    10.6170  11.1172  11.2522  11.2614  11.3121  11.3352  12.2740  12.7594
    13.4756  14.3461  16.8842  16.9332  17.5790  17.9261

     occupation numbers 
     0.0625   0.0625   0.0625   0.0625   0.0625   0.0625   0.0625   0.0625
     0.0625   0.0625   0.0625   0.0625   0.0625   0.0625   0.0625   0.0625
     0.0625   0.0625   0.0625   0.0625   0.0625   0.0625   0.0625   0.0625
     0.0625   0.0625   0.0625   0.0625   0.0625   0.0625   0.0625   0.0625
     0.0625   0.0623   0.0616   0.0616   0.0611   0.0608   0.0057   0.0001
     0.0000   0.0000   0.0000   0.0000   0.0000   0.0000

          k = 0.7412 0.4280 0.3080 (  2210 PWs)   bands (ev):

   -19.7266 -19.6955  -6.9181  -6.4549  -6.3053  -5.7960  -5.7620  -5.4971
    -3.0682  -3.0499  -2.9616  -2.7302  -2.6222  -2.4288   6.0080   6.3498
     6.6247   6.9436   7.2084   7.2766   7.5022   7.6504   7.7912   7.8637
     8.1718   8.8601   8.9060   9.4606   9.5116   9.5186   9.6615  10.2050
    10.6997  11.1277  11.2277  11.2522  11.3688  11.4017  12.2327  12.7107
    13.4241  14.3158  17.0585  17.0675  17.5474  17.9018

     occupation numbers 
     0.0625   0.0625   0.0625   0.0625   0.0625   0.0625   0.0625   0.0625
     0.0625   0.0625   0.0625   0.0625   0.0625   0.0625   0.0625   0.0625
     0.0625   0.0625   0.0625   0.0625   0.0625   0.0625   0.0625   0.0625
     0.0625   0.0625   0.0625   0.0625   0.0625   0.0625   0.0625   0.0625
     0.0625   0.0622   0.0618   0.0616   0.0603   0.0596   0.0073   0.0001
     0.0000   0.0000   0.0000   0.0000   0.0000   0.0000

          k = 0.0000 0.8559-0.3080 (  2210 PWs)   bands (ev):

   -19.7266 -19.6955  -6.9181  -6.4548  -6.3054  -5.7959  -5.7620  -5.4972
    -3.0682  -3.0499  -2.9616  -2.7302  -2.6222  -2.4288   6.0080   6.3497
     6.6248   6.9435   7.2083   7.2766   7.5020   7.6506   7.7936   7.8609
     8.1722   8.8607   8.9056   9.4603   9.5111   9.5193   9.6616  10.2050
    10.6997  11.1279  11.2265  11.2533  11.3686  11.4019  12.2327  12.7107
    13.4241  14.3158  17.0586  17.0674  17.5474  17.9018

     occupation numbers 
     0.0625   0.0625   0.0625   0.0625   0.0625   0.0625   0.0625   0.0625
     0.0625   0.0625   0.0625   0.0625   0.0625   0.0625   0.0625   0.0625
     0.0625   0.0625   0.0625   0.0625   0.0625   0.0625   0.0625   0.0625
     0.0625   0.0625   0.0625   0.0625   0.0625   0.0625   0.0625   0.0625
     0.0625   0.0622   0.0618   0.0616   0.0603   0.0596   0.0073   0.0001
     0.0000   0.0000   0.0000   0.0000   0.0000   0.0000

          k = 0.2471 0.7133-0.2053 (  2206 PWs)   bands (ev):

   -19.7119 -19.7114  -6.8911  -6.8723  -6.0603  -6.0278  -5.4424  -5.4227
    -3.1497  -3.1491  -2.8154  -2.8101  -2.3827  -2.3794   6.0682   6.0973
     6.7385   6.7559   7.0823   7.0876   7.3802   7.3971   7.8916   7.9333
     8.7835   8.8001   8.8795   8.9008   9.5328   9.5464  10.0780  10.0881
    10.9023  10.9029  11.1200  11.1291  11.4262  11.4369  12.2889  12.2920
    14.0069  14.0174  17.4247  17.4278  17.8665  17.8677

     occupation numbers 
     0.0625   0.0625   0.0625   0.0625   0.0625   0.0625   0.0625   0.0625
     0.0625   0.0625   0.0625   0.0625   0.0625   0.0625   0.0625   0.0625
     0.0625   0.0625   0.0625   0.0625   0.0625   0.0625   0.0625   0.0625
     0.0625   0.0625   0.0625   0.0625   0.0625   0.0625   0.0625   0.0625
     0.0625   0.0625   0.0623   0.0622   0.0591   0.0588   0.0052   0.0051
     0.0000   0.0000   0.0000   0.0000   0.0000   0.0000

          k =-0.7412-0.1427-0.2053 (  2206 PWs)   bands (ev):

   -19.7108 -19.7106  -6.9088  -6.8738  -6.0307  -6.0290  -5.4541  -5.4218
    -3.1515  -3.1494  -2.8114  -2.8101  -2.3926  -2.3788   6.0669   6.0901
     6.7551   6.7586   7.0812   7.1241   7.3983   7.4017   7.8843   7.9176
     8.7765   8.7830   8.8813   8.8861   9.5238   9.5270  10.0937  10.0949
    10.9095  10.9115  11.1208  11.1256  11.4250  11.4284  12.2889  12.2941
    14.0058  14.0164  17.4249  17.4258  17.8676  17.8702

     occupation numbers 
     0.0625   0.0625   0.0625   0.0625   0.0625   0.0625   0.0625   0.0625
     0.0625   0.0625   0.0625   0.0625   0.0625   0.0625   0.0625   0.0625
     0.0625   0.0625   0.0625   0.0625   0.0625   0.0625   0.0625   0.0625
     0.0625   0.0625   0.0625   0.0625   0.0625   0.0625   0.0625   0.0625
     0.0625   0.0625   0.0623   0.0622   0.0591   0.0590   0.0052   0.0050
     0.0000   0.0000   0.0000   0.0000   0.0000   0.0000

     the Fermi energy is    11.8882 ev

!    total energy              =    -538.09625849 Ry
     Harris-Foulkes estimate   =    -538.09623759 Ry
     estimated scf accuracy    <          8.8E-09 Ry

     The total energy is the sum of the following terms:

     one-electron contribution =     -32.91208589 Ry
     hartree contribution      =      83.65165773 Ry
     xc contribution           =    -199.59503527 Ry
     ewald contribution        =    -389.44315552 Ry
     Hubbard energy            =       0.22415267 Ry
     smearing contrib. (-TS)   =      -0.02179221 Ry

     convergence has been achieved in  10 iterations

     init_run     :      7.45s CPU      7.99s WALL (       1 calls)
     electrons    :    375.95s CPU    382.88s WALL (       1 calls)

     Called by init_run:
     wfcinit      :      0.00s CPU      0.00s WALL (       1 calls)
     potinit      :      0.32s CPU      0.58s WALL (       1 calls)

     Called by electrons:
     c_bands      :    289.52s CPU    292.53s WALL (      10 calls)
     sum_band     :     62.72s CPU     64.07s WALL (      10 calls)
     v_of_rho     :      3.02s CPU      3.12s WALL (      11 calls)
     v_h          :      0.18s CPU      0.18s WALL (      11 calls)
     v_xc         :      2.84s CPU      2.93s WALL (      11 calls)
     newd         :     22.34s CPU     23.44s WALL (      11 calls)
     mix_rho      :      0.31s CPU      0.31s WALL (      10 calls)

     Called by c_bands:
     init_us_2    :      2.94s CPU      2.97s WALL (     720 calls)
     cegterg      :    281.38s CPU    283.22s WALL (     360 calls)

     Called by sum_band:
     sum_band:bec :      0.27s CPU      0.28s WALL (     360 calls)
     addusdens    :     13.15s CPU     13.17s WALL (      10 calls)

     Called by *egterg:
     h_psi        :    203.79s CPU    205.18s WALL (    1472 calls)
     s_psi        :     11.75s CPU     11.78s WALL (    1472 calls)
     g_psi        :      0.89s CPU      0.88s WALL (    1112 calls)
     cdiaghg      :     26.19s CPU     26.30s WALL (    1436 calls)
     cegterg:over :     13.94s CPU     14.05s WALL (    1112 calls)
     cegterg:upda :      9.76s CPU      9.83s WALL (    1112 calls)
     cegterg:last :      6.68s CPU      6.74s WALL (     413 calls)

     Called by h_psi:
     h_psi:vloc   :    166.06s CPU    167.20s WALL (    1472 calls)
     h_psi:vnl    :     23.86s CPU     24.00s WALL (    1472 calls)
     add_vuspsi   :     11.75s CPU     11.81s WALL (    1472 calls)
     vhpsi        :     13.30s CPU     13.41s WALL (    1472 calls)

     General routines
     calbec       :     24.99s CPU     25.20s WALL (    3664 calls)
     fft          :      2.10s CPU      2.17s WALL (     171 calls)
     ffts         :      0.06s CPU      0.06s WALL (      21 calls)
     fftw         :    154.09s CPU    155.64s WALL (  101090 calls)
     interpolate  :      0.36s CPU      0.37s WALL (      21 calls)
     davcio       :      0.01s CPU      0.98s WALL (     756 calls)

     Parallel routines
     fft_scatter  :     41.55s CPU     42.00s WALL (  101282 calls)
     Hubbard U routines
     new_ns       :      2.55s CPU      2.99s WALL (      10 calls)
     vhpsi        :     13.30s CPU     13.41s WALL (    1472 calls)

     PWSCF        :  6m23.94s CPU     6m33.15s WALL


   This run was terminated on:  15:37:35  11Nov2012            

=------------------------------------------------------------------------------=
