   JOB DONE.
=------------------------------------------------------------------------------=

     Program PWSCF v.5.0.1 starts on 11Nov2012 at 14:48:43 

     This program is part of the open-source Quantum ESPRESSO suite
     for quantum simulation of materials; please cite
         "P. Giannozzi et al., J. Phys.:Condens. Matter 21 395502 (2009);
          URL http://www.quantum-espresso.org", 
     in publications or presentations arising from this work. More details at
     http://www.quantum-espresso.org/quote.php

     Parallel version (MPI), running on     2 processors
     R & G space division:  proc/pool =    2

     Current dimensions of program PWSCF are:
     Max number of different atomic species (ntypx) = 10
     Max number of k-points (npk) =  40000
     Max angular momentum in pseudopotentials (lmaxx) =  3
     Reading input from CoLaO_U200_a-15.in
               file Co.pbe-nd-rrkjus.UPF: wavefunction(s)  4S 3D renormalized
               file O.pbe-rrkjus.UPF: wavefunction(s)  2S renormalized
               file O.pbe-rrkjus.UPF: wavefunction(s)  2S renormalized

     Subspace diagonalization in iterative solution of the eigenvalue problem:
     a serial algorithm will be used


     Parallelization info
     --------------------
     sticks:   dense  smooth     PW     G-vecs:    dense   smooth      PW
     Min        1112     444    131                34808     8786    1448
     Max        1113     445    132                34809     8787    1449
     Sum        2225     889    263                69617    17573    2897


     Title: 
     GGA + U, U = 2.000, alpha = -0.150                                         


     bravais-lattice index     =            5
     lattice parameter (alat)  =      10.3292  a.u.
     unit-cell volume          =     793.0599 (a.u.)^3
     number of atoms/cell      =           10
     number of atomic types    =            4
     number of electrons       =        76.00
     number of Kohn-Sham states=           46
     kinetic-energy cutoff     =      30.0000  Ry
     charge density cutoff     =     300.0000  Ry
     convergence threshold     =      1.0E-08
     mixing beta               =       0.2000
     number of iterations used =            8  plain     mixing
     Exchange-correlation      =  SLA  PW   PBE  PBE ( 1 4 3 4 0)
     EXX-fraction              =        0.00

     celldm(1)=  10.329242  celldm(2)=   0.000000  celldm(3)=   0.000000
     celldm(4)=   0.488100  celldm(5)=   0.000000  celldm(6)=   0.000000

     crystal axes: (cart. coord. in units of alat)
               a(1) = (   0.505915  -0.292090   0.811624 )  
               a(2) = (   0.000000   0.584180   0.811624 )  
               a(3) = (  -0.505915  -0.292090   0.811624 )  

     reciprocal axes: (cart. coord. in units 2 pi/alat)
               b(1) = (  0.988308 -0.570600  0.410699 )  
               b(2) = (  0.000000  1.141200  0.410699 )  
               b(3) = ( -0.988308 -0.570600  0.410699 )  


     PseudoPot. # 1 for Co read from file:
     /home/mcurnan/dft-course/Project1/example_LaCoO3/Co.pbe-nd-rrkjus.UPF
     MD5 check sum: 3e47a84addf5e975e0edeaeee2a73f59
     Pseudo is Ultrasoft + core correction, Zval =  9.0
     Generated by new atomic code, or converted to UPF format
     Using radial grid of  961 points,  6 beta functions with: 
                l(1) =   0
                l(2) =   0
                l(3) =   1
                l(4) =   1
                l(5) =   2
                l(6) =   2
     Q(r) pseudized with 0 coefficients 


     PseudoPot. # 2 for La read from file:
     /home/mcurnan/dft-course/Project1/example_LaCoO3/La.pbe-nsp-van.UPF
     MD5 check sum: b2f11743f52dde65f77d1302becd7929
     Pseudo is Ultrasoft + core correction, Zval = 11.0
     Generated by new atomic code, or converted to UPF format
     Using radial grid of  907 points,  6 beta functions with: 
                l(1) =   0
                l(2) =   0
                l(3) =   1
                l(4) =   1
                l(5) =   2
                l(6) =   2
     Q(r) pseudized with  6 coefficients,  rinner =    1.200   1.200   1.200
                                                       1.200   1.200

     PseudoPot. # 3 for O  read from file:
     /home/mcurnan/dft-course/Project1/example_LaCoO3/O.pbe-rrkjus.UPF
     MD5 check sum: 390ba29e75625707450f3bd3f0eb6be9
     Pseudo is Ultrasoft, Zval =  6.0
     Generated by new atomic code, or converted to UPF format
     Using radial grid of 1269 points,  4 beta functions with: 
                l(1) =   0
                l(2) =   0
                l(3) =   1
                l(4) =   1
     Q(r) pseudized with 0 coefficients 


     PseudoPot. # 4 for O  read from file:
     /home/mcurnan/dft-course/Project1/example_LaCoO3/O.pbe-rrkjus.UPF
     MD5 check sum: 390ba29e75625707450f3bd3f0eb6be9
     Pseudo is Ultrasoft, Zval =  6.0
     Generated by new atomic code, or converted to UPF format
     Using radial grid of 1269 points,  4 beta functions with: 
                l(1) =   0
                l(2) =   0
                l(3) =   1
                l(4) =   1
     Q(r) pseudized with 0 coefficients 


     atomic species   valence    mass     pseudopotential
        Co1            9.00     1.00000     Co( 1.00)
        La1           11.00     1.00000     La( 1.00)
        O1             6.00     1.00000     O ( 1.00)
        O2             6.00     1.00000     O ( 1.00)
 -----
     simplified LDA+U calculation, Hubbard_lmax = 2
     atomic species  L   Hubbard U  Hubbard alpha
        Co1          2    2.000000    0.000000
        La1          2    0.000000    0.000000
        O1           1    0.000000   -0.150000
        O2           1    0.000000    0.000000
 -----

     No symmetry found


                                    s                        frac. trans.

      isym =  1     identity                                     

 cryst.   s( 1) = (     1          0          0      )
                  (     0          1          0      )
                  (     0          0          1      )

 cart.    s( 1) = (  1.0000000  0.0000000  0.0000000 )
                  (  0.0000000  1.0000000  0.0000000 )
                  (  0.0000000  0.0000000  1.0000000 )


     point group C_1 (1)    
     there are  1 classes
     the character table:

       E    
A      1.00

     the symmetry operations in each class:
     E        1

   Cartesian axes

     site n.     atom                  positions (alat units)
         1           Co1 tau(   1) = (   0.2228050  -0.1992639   1.0141240  )
         2           Co1 tau(   2) = (  -0.2831100   0.0928263   1.4199360  )
         3           La1 tau(   3) = (  -0.2831100   0.0928263   0.8112181  )
         4           La1 tau(   4) = (   0.2228050   0.3849164   1.2170300  )
         5           O1  tau(   5) = (   0.0000000   0.0000000   0.0000000  )
         6           O2  tau(   6) = (   0.0008601   0.1861491   1.6232478  )
         7           O2  tau(   7) = (   0.1616398   0.0923297   0.8116239  )
         8           O2  tau(   8) = (  -0.0603051  -0.1064377   1.2166242  )
         9           O2  tau(   9) = (   0.4447499  -0.0004966   1.2166242  )
        10           O2  tau(  10) = (  -0.2219449   0.3854130   1.2166242  )

   Crystallographic axes

     site n.     atom                  positions (cryst. coord.)
         1           Co1 tau(   1) = (  0.7504000  0.1891000  0.3100000  )
         2           Co1 tau(   2) = (  0.2504000  0.6891000  0.8100000  )
         3           La1 tau(   3) = (  0.0004000  0.4391000  0.5600000  )
         4           La1 tau(   4) = (  0.5004000  0.9391000  0.0600000  )
         5           O1  tau(   5) = (  0.0000000  0.0000000  0.0000000  )
         6           O2  tau(   6) = (  0.5613000  0.8791000  0.5596000  )
         7           O2  tau(   7) = (  0.4404000  0.4387000  0.1209000  )
         8           O2  tau(   8) = (  0.5008000  0.3782000  0.6200000  )
         9           O2  tau(   9) = (  0.9395000  0.4991000  0.0604000  )
        10           O2  tau(  10) = (  0.0604000  0.9395000  0.4991000  )

     number of k points=    36  gaussian smearing, width (Ry)=  0.0300
                       cart. coord. in units 2pi/alat
        k(    1) = (   0.0000000   0.0000000   0.0000000), wk =   0.0312500
        k(    2) = (  -0.2470771  -0.1426500   0.1026748), wk =   0.0625000
        k(    3) = (   0.4941541   0.2853000  -0.2053496), wk =   0.0312500
        k(    4) = (  -0.2470771   0.1426500   0.2053496), wk =   0.0625000
        k(    5) = (   0.4941541   0.5706001  -0.1026748), wk =   0.0625000
        k(    6) = (   0.2470771   0.4279500   0.0000000), wk =   0.0625000
        k(    7) = (   0.4941541  -0.2853000  -0.4106993), wk =   0.0312500
        k(    8) = (   0.0000000   0.0000000   0.3080244), wk =   0.0625000
        k(    9) = (   0.7412312   0.4279500   0.0000000), wk =   0.0625000
        k(   10) = (   0.4941541   0.2853000   0.1026748), wk =   0.0625000
        k(   11) = (   0.7412312  -0.4279500  -0.3080244), wk =   0.0625000
        k(   12) = (   0.4941541  -0.5706001  -0.2053496), wk =   0.0625000
        k(   13) = (   0.0000000   0.0000000  -0.6160489), wk =   0.0312500
        k(   14) = (  -0.2470771   0.1426500  -0.1026748), wk =   0.0625000
        k(   15) = (   0.0000000   0.2853000   0.1026748), wk =   0.0625000
        k(   16) = (   0.4941541  -0.2853000   0.2053496), wk =   0.0312500
        k(   17) = (   0.0000000  -0.5706001  -0.2053496), wk =   0.0312500
        k(   18) = (  -0.2470771  -0.1426500  -0.2053496), wk =   0.0625000
        k(   19) = (   0.0000000  -0.2853000   0.2053496), wk =   0.0625000
        k(   20) = (   0.4941541  -0.5706001   0.1026748), wk =   0.0625000
        k(   21) = (  -0.7412312   0.1426500  -0.1026748), wk =   0.0625000
        k(   22) = (   0.2470771  -0.7132501  -0.1026748), wk =   0.0625000
        k(   23) = (  -0.7412312  -0.1426500   0.1026748), wk =   0.0625000
        k(   24) = (   0.2470771   0.7132501   0.1026748), wk =   0.0625000
        k(   25) = (   0.2470771  -0.4279500   0.0000000), wk =   0.0625000
        k(   26) = (  -0.4941541   0.0000000   0.0000000), wk =   0.0625000
        k(   27) = (   0.4941541   0.2853000   0.4106993), wk =   0.0312500
        k(   28) = (   0.0000000   0.5706001  -0.4106993), wk =   0.0312500
        k(   29) = (   0.7412312  -0.4279500   0.0000000), wk =   0.0625000
        k(   30) = (   0.0000000  -0.8559001   0.0000000), wk =   0.0625000
        k(   31) = (   0.4941541  -0.2853000  -0.1026748), wk =   0.0625000
        k(   32) = (   0.0000000  -0.5706001   0.1026748), wk =   0.0625000
        k(   33) = (   0.7412312   0.4279500   0.3080244), wk =   0.0625000
        k(   34) = (   0.0000000   0.8559001  -0.3080244), wk =   0.0625000
        k(   35) = (   0.2470771   0.7132501  -0.2053496), wk =   0.0625000
        k(   36) = (  -0.7412312  -0.1426500  -0.2053496), wk =   0.0625000

                       cryst. coord.
        k(    1) = (   0.0000000   0.0000000   0.0000000), wk =   0.0312500
        k(    2) = (   0.0000000   0.0000000   0.2500000), wk =   0.0625000
        k(    3) = (   0.0000000   0.0000000  -0.5000000), wk =   0.0312500
        k(    4) = (   0.0000000   0.2500000   0.2500000), wk =   0.0625000
        k(    5) = (   0.0000000   0.2500000  -0.5000000), wk =   0.0625000
        k(    6) = (   0.0000000   0.2500000  -0.2500000), wk =   0.0625000
        k(    7) = (   0.0000000  -0.5000000  -0.5000000), wk =   0.0312500
        k(    8) = (   0.2500000   0.2500000   0.2500000), wk =   0.0625000
        k(    9) = (   0.2500000   0.2500000  -0.5000000), wk =   0.0625000
        k(   10) = (   0.2500000   0.2500000  -0.2500000), wk =   0.0625000
        k(   11) = (   0.2500000  -0.5000000  -0.5000000), wk =   0.0625000
        k(   12) = (   0.2500000  -0.5000000  -0.2500000), wk =   0.0625000
        k(   13) = (  -0.5000000  -0.5000000  -0.5000000), wk =   0.0312500
        k(   14) = (  -0.2500000   0.0000000   0.0000000), wk =   0.0625000
        k(   15) = (   0.0000000   0.2500000   0.0000000), wk =   0.0625000
        k(   16) = (   0.5000000   0.0000000   0.0000000), wk =   0.0312500
        k(   17) = (   0.0000000  -0.5000000   0.0000000), wk =   0.0312500
        k(   18) = (  -0.2500000  -0.2500000   0.0000000), wk =   0.0625000
        k(   19) = (   0.2500000   0.0000000   0.2500000), wk =   0.0625000
        k(   20) = (   0.5000000  -0.2500000   0.0000000), wk =   0.0625000
        k(   21) = (  -0.5000000   0.0000000   0.2500000), wk =   0.0625000
        k(   22) = (   0.2500000  -0.5000000   0.0000000), wk =   0.0625000
        k(   23) = (  -0.2500000   0.0000000   0.5000000), wk =   0.0625000
        k(   24) = (   0.0000000   0.5000000  -0.2500000), wk =   0.0625000
        k(   25) = (   0.2500000  -0.2500000   0.0000000), wk =   0.0625000
        k(   26) = (  -0.2500000   0.0000000   0.2500000), wk =   0.0625000
        k(   27) = (   0.5000000   0.5000000   0.0000000), wk =   0.0312500
        k(   28) = (  -0.5000000   0.0000000  -0.5000000), wk =   0.0312500
        k(   29) = (   0.5000000  -0.2500000  -0.2500000), wk =   0.0625000
        k(   30) = (   0.2500000  -0.5000000   0.2500000), wk =   0.0625000
        k(   31) = (   0.2500000  -0.2500000  -0.2500000), wk =   0.0625000
        k(   32) = (   0.2500000  -0.2500000   0.2500000), wk =   0.0625000
        k(   33) = (   0.5000000   0.5000000  -0.2500000), wk =   0.0625000
        k(   34) = (  -0.5000000   0.2500000  -0.5000000), wk =   0.0625000
        k(   35) = (  -0.2500000   0.2500000  -0.5000000), wk =   0.0625000
        k(   36) = (  -0.5000000  -0.2500000   0.2500000), wk =   0.0625000

     Dense  grid:    69617 G-vectors     FFT dimensions: (  60,  60,  60)

     Smooth grid:    17573 G-vectors     FFT dimensions: (  40,  40,  40)

     Largest allocated arrays     est. size (Mb)     dimensions
        Kohn-Sham Wavefunctions         0.79 Mb     (   1119,   46)
        Atomic wavefunctions            1.06 Mb     (   1119,   62)
        NL pseudopotentials             2.05 Mb     (   1119,  120)
        Each V/rho on FFT grid          1.65 Mb     ( 108000)
        Each G-vector array             0.27 Mb     (  34808)
        G-vector shells                 0.04 Mb     (   4682)
     Largest temporary arrays     est. size (Mb)     dimensions
        Auxiliary wavefunctions         3.14 Mb     (   1119,  184)
        Each subspace H/S matrix        0.52 Mb     ( 184, 184)
        Each <psi_i|beta_j> matrix      0.08 Mb     (    120,   46)
        Arrays for rho mixing          13.18 Mb     ( 108000,   8)

     Check: negative/imaginary core charge=   -0.000028    0.000000

     The initial density is read from file :
     /home/mcurnan/dft-course/Project1/example_LaCoO3/200/O/alpha/CoLaO_U200.save/charge-density.dat

 --- in v_hubbard ---
Hubbard energy    0.1315
 -------
     Number of +U iterations with fixed ns =  0
     Starting occupations:
 --- enter write_ns ---
 LDA+U parameters:
U( 1)     =  2.00000000
alpha( 1) =  0.00000000
U( 2)     =  0.00000000
alpha( 2) =  0.00000000
U( 3)     =  0.00000000
alpha( 3) = -0.15000000
U( 4)     =  0.00000000
alpha( 4) =  0.00000000
atom    1   Tr[ns(na)] =   8.02205
    eigenvalues: 
  0.596  0.596  0.938  0.941  0.941
    eigenvectors:
  0.000  0.000  1.000  0.000  0.000
  0.057  0.598  0.000  0.178  0.167
  0.598  0.057  0.000  0.167  0.178
  0.210  0.135  0.000  0.095  0.560
  0.135  0.210  0.000  0.560  0.095
    occupations:
  0.938  0.000  0.000  0.000  0.000
  0.000  0.715  0.000 -0.060  0.152
  0.000  0.000  0.715  0.152  0.060
  0.000 -0.060  0.152  0.822  0.000
  0.000  0.152  0.060  0.000  0.822
atom    2   Tr[ns(na)] =   8.02142
    eigenvalues: 
  0.595  0.595  0.938  0.941  0.941
    eigenvectors:
  0.000  0.000  1.000  0.000  0.000
  0.332  0.323  0.000  0.023  0.322
  0.323  0.332  0.000  0.322  0.023
  0.288  0.057  0.000  0.647  0.008
  0.057  0.288  0.000  0.008  0.647
    occupations:
  0.938  0.000  0.000  0.000  0.000
  0.000  0.715  0.000  0.060  0.153
  0.000  0.000  0.715  0.153 -0.060
  0.000  0.060  0.153  0.822  0.000
  0.000  0.153 -0.060  0.000  0.822
atom    3   Tr[ns(na)] =   3.80282
    eigenvalues: 
  0.355  0.355  0.384  0.403  0.403
    eigenvectors:
  0.000  0.000  1.000  0.000  0.000
  0.065  0.856  0.000  0.058  0.021
  0.856  0.065  0.000  0.021  0.058
  0.073  0.006  0.000  0.250  0.670
  0.006  0.073  0.000  0.670  0.250
    occupations:
  0.384  0.000  0.000  0.000  0.000
  0.000  0.359  0.000  0.000  0.013
  0.000  0.000  0.359  0.013  0.000
  0.000  0.000  0.013  0.399  0.000
  0.000  0.013  0.000  0.000  0.399
atom    4   Tr[ns(na)] =   3.80282
    eigenvalues: 
  0.355  0.355  0.384  0.403  0.403
    eigenvectors:
  0.000  0.000  1.000  0.000  0.000
  0.729  0.192  0.000  0.048  0.032
  0.192  0.729  0.000  0.032  0.048
  0.017  0.062  0.000  0.359  0.562
  0.062  0.017  0.000  0.562  0.359
    occupations:
  0.384  0.000  0.000  0.000  0.000
  0.000  0.359  0.000  0.000  0.013
  0.000  0.000  0.359  0.013  0.000
  0.000  0.000  0.013  0.399  0.000
  0.000  0.013  0.000  0.000  0.399
atom    5   Tr[ns(na)] =   5.43357
    eigenvalues: 
  0.846  0.929  0.941
    eigenvectors:
  0.340  0.000  0.660
  0.496  0.250  0.255
  0.164  0.750  0.086
    occupations:
  0.909 -0.039  0.022
 -0.039  0.891  0.022
  0.022  0.022  0.917
atom    6   Tr[ns(na)] =   5.43358
    eigenvalues: 
  0.846  0.929  0.941
    eigenvectors:
  0.340  0.000  0.660
  0.494  0.250  0.256
  0.166  0.750  0.085
    occupations:
  0.909  0.039  0.022
  0.039  0.891 -0.022
  0.022 -0.022  0.917
atom    7   Tr[ns(na)] =   5.43358
    eigenvalues: 
  0.846  0.929  0.941
    eigenvectors:
  0.340  0.000  0.660
  0.000  1.000  0.000
  0.660  0.000  0.340
    occupations:
  0.909  0.000 -0.045
  0.000  0.929  0.000
 -0.045  0.000  0.879
atom    8   Tr[ns(na)] =   5.43357
    eigenvalues: 
  0.846  0.929  0.941
    eigenvectors:
  0.340  0.000  0.660
  0.496  0.250  0.255
  0.164  0.750  0.086
    occupations:
  0.909 -0.039  0.022
 -0.039  0.891  0.022
  0.022  0.022  0.917
atom    9   Tr[ns(na)] =   5.43358
    eigenvalues: 
  0.846  0.929  0.941
    eigenvectors:
  0.340  0.000  0.660
  0.494  0.250  0.256
  0.166  0.750  0.085
    occupations:
  0.909  0.039  0.022
  0.039  0.891 -0.022
  0.022 -0.022  0.917
atom   10   Tr[ns(na)] =   5.43358
    eigenvalues: 
  0.846  0.929  0.941
    eigenvectors:
  0.340  0.000  0.660
  0.000  1.000  0.000
  0.660  0.000  0.340
    occupations:
  0.909  0.000 -0.045
  0.000  0.929  0.000
 -0.045  0.000  0.879
N of occupied +U levels =  56.2505796
 --- exit write_ns ---
 LDA+U Projector read from file 
     Starting wfc from file

     total cpu time spent up to now is        7.8 secs

     per-process dynamical memory:    62.8 Mb

     Self-consistent Calculation

     iteration #  1     ecut=    30.00 Ry     beta=0.20
     Davidson diagonalization with overlap
     c_bands:  1 eigenvalues not converged
     c_bands:  1 eigenvalues not converged
     c_bands:  1 eigenvalues not converged
     c_bands:  1 eigenvalues not converged
     c_bands:  1 eigenvalues not converged
     c_bands:  1 eigenvalues not converged
     c_bands:  1 eigenvalues not converged
     c_bands:  1 eigenvalues not converged
     c_bands:  1 eigenvalues not converged
     c_bands:  1 eigenvalues not converged
     c_bands:  1 eigenvalues not converged
     c_bands:  1 eigenvalues not converged
     c_bands:  1 eigenvalues not converged
     c_bands:  1 eigenvalues not converged
     c_bands:  1 eigenvalues not converged
     ethr =  1.00E-10,  avg # of iterations = 17.1
 --- enter write_ns ---
 LDA+U parameters:
U( 1)     =  2.00000000
alpha( 1) =  0.00000000
U( 2)     =  0.00000000
alpha( 2) =  0.00000000
U( 3)     =  0.00000000
alpha( 3) = -0.15000000
U( 4)     =  0.00000000
alpha( 4) =  0.00000000
atom    1   Tr[ns(na)] =   8.11184
    eigenvalues: 
  0.564  0.566  0.974  0.975  0.976
    eigenvectors:
  0.000  0.000  0.107  0.008  0.885
  0.554  0.101  0.194  0.117  0.034
  0.100  0.554  0.115  0.225  0.005
  0.167  0.179  0.425  0.194  0.034
  0.179  0.167  0.159  0.455  0.041
    occupations:
  0.976  0.000  0.000  0.000  0.000
  0.000  0.706  0.000 -0.070  0.182
  0.000  0.000  0.708  0.182  0.069
  0.000 -0.070  0.182  0.833  0.000
  0.000  0.182  0.069  0.000  0.833
atom    2   Tr[ns(na)] =   8.10618
    eigenvalues: 
  0.562  0.564  0.975  0.975  0.976
    eigenvectors:
  0.000  0.000  0.125  0.009  0.866
  0.418  0.235  0.258  0.060  0.028
  0.236  0.419  0.044  0.283  0.018
  0.027  0.319  0.001  0.645  0.008
  0.319  0.027  0.572  0.003  0.079
    occupations:
  0.976  0.000  0.000  0.000  0.000
  0.000  0.706  0.001  0.069  0.184
  0.000  0.001  0.706  0.183 -0.070
  0.000  0.069  0.183  0.833  0.000
  0.000  0.184 -0.070  0.000  0.832
atom    3   Tr[ns(na)] =   3.79398
    eigenvalues: 
  0.355  0.356  0.382  0.402  0.402
    eigenvectors:
  0.000  0.000  1.000  0.000  0.000
  0.229  0.687  0.000  0.064  0.020
  0.689  0.228  0.000  0.020  0.063
  0.061  0.022  0.000  0.226  0.691
  0.021  0.063  0.000  0.690  0.226
    occupations:
  0.382  0.000  0.000  0.000  0.000
  0.000  0.359  0.000  0.000  0.013
  0.000  0.000  0.359  0.013  0.000
  0.000  0.000  0.013  0.398  0.000
  0.000  0.013  0.000  0.000  0.398
atom    4   Tr[ns(na)] =   3.79421
    eigenvalues: 
  0.355  0.356  0.382  0.402  0.402
    eigenvectors:
  0.000  0.000  1.000  0.000  0.000
  0.690  0.232  0.000  0.058  0.020
  0.233  0.686  0.000  0.019  0.062
  0.020  0.060  0.000  0.234  0.685
  0.057  0.021  0.000  0.689  0.233
    occupations:
  0.382  0.000  0.000  0.000  0.000
  0.000  0.359  0.000  0.000  0.013
  0.000  0.000  0.359  0.013  0.000
  0.000  0.000  0.013  0.398  0.000
  0.000  0.013  0.000  0.000  0.398
atom    5   Tr[ns(na)] =   5.43496
    eigenvalues: 
  0.842  0.930  0.946
    eigenvectors:
  0.340  0.000  0.660
  0.496  0.250  0.254
  0.165  0.750  0.085
    occupations:
  0.910 -0.043  0.025
 -0.043  0.890  0.023
  0.025  0.023  0.917
atom    6   Tr[ns(na)] =   5.41054
    eigenvalues: 
  0.836  0.926  0.943
    eigenvectors:
  0.341  0.000  0.659
  0.494  0.248  0.257
  0.165  0.752  0.083
    occupations:
  0.906  0.044  0.025
  0.044  0.886 -0.023
  0.025 -0.023  0.913
atom    7   Tr[ns(na)] =   5.41055
    eigenvalues: 
  0.836  0.926  0.943
    eigenvectors:
  0.341  0.000  0.659
  0.000  1.000  0.000
  0.659  0.000  0.341
    occupations:
  0.906  0.000 -0.051
  0.000  0.926  0.000
 -0.051  0.000  0.872
atom    8   Tr[ns(na)] =   5.41053
    eigenvalues: 
  0.836  0.926  0.943
    eigenvectors:
  0.341  0.000  0.659
  0.495  0.250  0.255
  0.164  0.750  0.086
    occupations:
  0.907 -0.044  0.025
 -0.044  0.886  0.023
  0.025  0.023  0.913
atom    9   Tr[ns(na)] =   5.41058
    eigenvalues: 
  0.836  0.926  0.943
    eigenvectors:
  0.340  0.000  0.660
  0.494  0.249  0.257
  0.165  0.751  0.083
    occupations:
  0.906  0.044  0.025
  0.044  0.886 -0.023
  0.025 -0.023  0.913
atom   10   Tr[ns(na)] =   5.41058
    eigenvalues: 
  0.836  0.926  0.943
    eigenvectors:
  0.340  0.000  0.660
  0.000  1.000  0.000
  0.660  0.000  0.340
    occupations:
  0.906  0.000 -0.051
  0.000  0.926  0.000
 -0.051  0.000  0.872
N of occupied +U levels =  56.2939482
 --- exit write_ns ---
 --- in v_hubbard ---
Hubbard energy    0.1266
 -------

     total cpu time spent up to now is      110.8 secs

     total energy              =    -538.21341719 Ry
     Harris-Foulkes estimate   =    -538.21527220 Ry
     estimated scf accuracy    <       0.01178868 Ry

     iteration #  2     ecut=    30.00 Ry     beta=0.20
     Davidson diagonalization with overlap
     ethr =  1.55E-05,  avg # of iterations =  1.1
 --- enter write_ns ---
 LDA+U parameters:
U( 1)     =  2.00000000
alpha( 1) =  0.00000000
U( 2)     =  0.00000000
alpha( 2) =  0.00000000
U( 3)     =  0.00000000
alpha( 3) = -0.15000000
U( 4)     =  0.00000000
alpha( 4) =  0.00000000
atom    1   Tr[ns(na)] =   8.03018
    eigenvalues: 
  0.545  0.546  0.974  0.975  0.976
    eigenvectors:
  0.000  0.000  0.044  0.003  0.953
  0.554  0.101  0.195  0.136  0.013
  0.101  0.554  0.134  0.208  0.003
  0.168  0.177  0.477  0.162  0.016
  0.177  0.168  0.149  0.491  0.015
    occupations:
  0.976  0.000  0.000  0.000  0.000
  0.000  0.693  0.000 -0.074  0.190
  0.000  0.000  0.694  0.190  0.073
  0.000 -0.074  0.190  0.826  0.000
  0.000  0.190  0.073  0.000  0.827
atom    2   Tr[ns(na)] =   8.03930
    eigenvalues: 
  0.544  0.546  0.976  0.976  0.977
    eigenvectors:
  0.000  0.000  0.042  0.003  0.955
  0.420  0.235  0.292  0.042  0.010
  0.236  0.420  0.038  0.301  0.005
  0.025  0.319  0.000  0.653  0.002
  0.319  0.026  0.628  0.000  0.027
    occupations:
  0.977  0.000  0.000  0.000  0.000
  0.000  0.694  0.001  0.073  0.192
  0.000  0.001  0.694  0.191 -0.074
  0.000  0.073  0.191  0.828  0.000
  0.000  0.192 -0.074  0.000  0.827
atom    3   Tr[ns(na)] =   3.79269
    eigenvalues: 
  0.355  0.355  0.382  0.402  0.402
    eigenvectors:
  0.000  0.000  1.000  0.000  0.000
  0.223  0.697  0.000  0.062  0.019
  0.697  0.223  0.000  0.019  0.061
  0.060  0.020  0.000  0.225  0.695
  0.020  0.061  0.000  0.694  0.225
    occupations:
  0.382  0.000  0.000  0.000  0.000
  0.000  0.359  0.000  0.000  0.013
  0.000  0.000  0.359  0.013  0.000
  0.000  0.000  0.013  0.398  0.000
  0.000  0.013  0.000  0.000  0.398
atom    4   Tr[ns(na)] =   3.79292
    eigenvalues: 
  0.355  0.355  0.382  0.402  0.402
    eigenvectors:
  0.000  0.000  1.000  0.000  0.000
  0.685  0.236  0.000  0.060  0.019
  0.237  0.683  0.000  0.018  0.061
  0.021  0.059  0.000  0.224  0.697
  0.057  0.021  0.000  0.698  0.223
    occupations:
  0.382  0.000  0.000  0.000  0.000
  0.000  0.359  0.000  0.000  0.013
  0.000  0.000  0.359  0.013  0.000
  0.000  0.000  0.013  0.398  0.000
  0.000  0.013  0.000  0.000  0.398
atom    5   Tr[ns(na)] =   5.44603
    eigenvalues: 
  0.846  0.931  0.946
    eigenvectors:
  0.338  0.000  0.662
  0.496  0.251  0.253
  0.166  0.749  0.085
    occupations:
  0.912 -0.041  0.024
 -0.041  0.893  0.022
  0.024  0.022  0.918
atom    6   Tr[ns(na)] =   5.43617
    eigenvalues: 
  0.843  0.930  0.945
    eigenvectors:
  0.338  0.000  0.662
  0.497  0.248  0.255
  0.165  0.752  0.083
    occupations:
  0.911  0.042  0.024
  0.042  0.891 -0.023
  0.024 -0.023  0.917
atom    7   Tr[ns(na)] =   5.43616
    eigenvalues: 
  0.843  0.930  0.945
    eigenvectors:
  0.338  0.000  0.662
  0.000  1.000  0.000
  0.662  0.000  0.338
    occupations:
  0.911  0.000 -0.048
  0.000  0.930  0.000
 -0.048  0.000  0.878
atom    8   Tr[ns(na)] =   5.43719
    eigenvalues: 
  0.843  0.930  0.945
    eigenvectors:
  0.338  0.000  0.662
  0.496  0.251  0.253
  0.166  0.749  0.085
    occupations:
  0.911 -0.042  0.024
 -0.042  0.891  0.023
  0.024  0.023  0.917
atom    9   Tr[ns(na)] =   5.43597
    eigenvalues: 
  0.843  0.930  0.945
    eigenvectors:
  0.338  0.000  0.662
  0.496  0.249  0.255
  0.165  0.751  0.083
    occupations:
  0.910  0.042  0.024
  0.042  0.891 -0.023
  0.024 -0.023  0.917
atom   10   Tr[ns(na)] =   5.43597
    eigenvalues: 
  0.843  0.930  0.945
    eigenvectors:
  0.338  0.000  0.662
  0.000  1.000  0.000
  0.662  0.000  0.338
    occupations:
  0.910  0.000 -0.048
  0.000  0.930  0.000
 -0.048  0.000  0.878
N of occupied +U levels =  56.2825753
 --- exit write_ns ---
 --- in v_hubbard ---
Hubbard energy    0.1241
 -------

     total cpu time spent up to now is      142.0 secs

     total energy              =    -538.21497261 Ry
     Harris-Foulkes estimate   =    -538.21499137 Ry
     estimated scf accuracy    <       0.00701051 Ry

     iteration #  3     ecut=    30.00 Ry     beta=0.20
     Davidson diagonalization with overlap
     ethr =  9.22E-06,  avg # of iterations =  1.0
 --- enter write_ns ---
 LDA+U parameters:
U( 1)     =  2.00000000
alpha( 1) =  0.00000000
U( 2)     =  0.00000000
alpha( 2) =  0.00000000
U( 3)     =  0.00000000
alpha( 3) = -0.15000000
U( 4)     =  0.00000000
alpha( 4) =  0.00000000
atom    1   Tr[ns(na)] =   8.05999
    eigenvalues: 
  0.550  0.551  0.976  0.976  0.977
    eigenvectors:
  0.000  0.000  0.041  0.003  0.956
  0.554  0.101  0.195  0.136  0.013
  0.101  0.554  0.135  0.207  0.003
  0.168  0.176  0.479  0.161  0.015
  0.176  0.168  0.149  0.493  0.014
    occupations:
  0.977  0.000  0.000  0.000  0.000
  0.000  0.697  0.000 -0.073  0.188
  0.000  0.000  0.698  0.188  0.073
  0.000 -0.073  0.188  0.829  0.000
  0.000  0.188  0.073  0.000  0.830
atom    2   Tr[ns(na)] =   8.04608
    eigenvalues: 
  0.547  0.548  0.976  0.976  0.977
    eigenvectors:
  0.000  0.000  0.063  0.004  0.933
  0.421  0.235  0.282  0.048  0.015
  0.235  0.421  0.041  0.295  0.008
  0.026  0.318  0.000  0.653  0.003
  0.319  0.026  0.615  0.000  0.041
    occupations:
  0.977  0.000  0.000  0.000  0.000
  0.000  0.695  0.000  0.072  0.190
  0.000  0.000  0.695  0.190 -0.073
  0.000  0.072  0.190  0.829  0.000
  0.000  0.190 -0.073  0.000  0.828
atom    3   Tr[ns(na)] =   3.79310
    eigenvalues: 
  0.355  0.355  0.382  0.402  0.402
    eigenvectors:
  0.000  0.000  1.000  0.000  0.000
  0.224  0.696  0.000  0.062  0.018
  0.696  0.224  0.000  0.018  0.062
  0.060  0.020  0.000  0.213  0.707
  0.020  0.060  0.000  0.707  0.213
    occupations:
  0.382  0.000  0.000  0.000  0.000
  0.000  0.359  0.000  0.000  0.013
  0.000  0.000  0.359  0.013  0.000
  0.000  0.000  0.013  0.398  0.000
  0.000  0.013  0.000  0.000  0.398
atom    4   Tr[ns(na)] =   3.79320
    eigenvalues: 
  0.355  0.355  0.382  0.402  0.402
    eigenvectors:
  0.000  0.000  1.000  0.000  0.000
  0.680  0.241  0.000  0.060  0.019
  0.242  0.678  0.000  0.018  0.061
  0.021  0.058  0.000  0.225  0.696
  0.057  0.022  0.000  0.697  0.224
    occupations:
  0.382  0.000  0.000  0.000  0.000
  0.000  0.359  0.000  0.000  0.013
  0.000  0.000  0.359  0.013  0.000
  0.000  0.000  0.013  0.398  0.000
  0.000  0.013  0.000  0.000  0.398
atom    5   Tr[ns(na)] =   5.44001
    eigenvalues: 
  0.844  0.931  0.945
    eigenvectors:
  0.338  0.000  0.662
  0.497  0.249  0.253
  0.164  0.751  0.085
    occupations:
  0.911 -0.042  0.024
 -0.042  0.891  0.023
  0.024  0.023  0.918
atom    6   Tr[ns(na)] =   5.43056
    eigenvalues: 
  0.841  0.929  0.945
    eigenvectors:
  0.338  0.000  0.662
  0.496  0.249  0.255
  0.166  0.751  0.083
    occupations:
  0.910  0.042  0.024
  0.042  0.890 -0.023
  0.024 -0.023  0.916
atom    7   Tr[ns(na)] =   5.43056
    eigenvalues: 
  0.841  0.929  0.945
    eigenvectors:
  0.338  0.000  0.662
  0.000  1.000  0.000
  0.662  0.000  0.338
    occupations:
  0.910  0.000 -0.049
  0.000  0.929  0.000
 -0.049  0.000  0.876
atom    8   Tr[ns(na)] =   5.43139
    eigenvalues: 
  0.842  0.929  0.945
    eigenvectors:
  0.339  0.000  0.661
  0.497  0.249  0.254
  0.164  0.751  0.085
    occupations:
  0.910 -0.042  0.024
 -0.042  0.890  0.023
  0.024  0.023  0.916
atom    9   Tr[ns(na)] =   5.43043
    eigenvalues: 
  0.841  0.929  0.945
    eigenvectors:
  0.339  0.000  0.661
  0.494  0.250  0.255
  0.167  0.750  0.084
    occupations:
  0.910  0.042  0.024
  0.042  0.890 -0.023
  0.024 -0.023  0.916
atom   10   Tr[ns(na)] =   5.43043
    eigenvalues: 
  0.841  0.929  0.945
    eigenvectors:
  0.339  0.000  0.661
  0.000  1.000  0.000
  0.661  0.000  0.339
    occupations:
  0.910  0.000 -0.049
  0.000  0.929  0.000
 -0.049  0.000  0.876
N of occupied +U levels =  56.2857306
 --- exit write_ns ---
 --- in v_hubbard ---
Hubbard energy    0.1157
 -------

     total cpu time spent up to now is      172.4 secs

     total energy              =    -538.21560112 Ry
     Harris-Foulkes estimate   =    -538.21511702 Ry
     estimated scf accuracy    <       0.00394509 Ry

     iteration #  4     ecut=    30.00 Ry     beta=0.20
     Davidson diagonalization with overlap
     ethr =  5.19E-06,  avg # of iterations =  1.0
 --- enter write_ns ---
 LDA+U parameters:
U( 1)     =  2.00000000
alpha( 1) =  0.00000000
U( 2)     =  0.00000000
alpha( 2) =  0.00000000
U( 3)     =  0.00000000
alpha( 3) = -0.15000000
U( 4)     =  0.00000000
alpha( 4) =  0.00000000
atom    1   Tr[ns(na)] =   8.00629
    eigenvalues: 
  0.542  0.543  0.972  0.973  0.973
    eigenvectors:
  0.000  0.000  0.203  0.012  0.785
  0.554  0.103  0.180  0.098  0.065
  0.103  0.554  0.093  0.241  0.009
  0.166  0.177  0.364  0.232  0.061
  0.177  0.166  0.160  0.417  0.080
    occupations:
  0.973  0.000  0.000  0.000  0.000
  0.000  0.690  0.000 -0.073  0.191
  0.000  0.000  0.690  0.191  0.072
  0.000 -0.073  0.191  0.825  0.000
  0.000  0.191  0.072  0.000  0.825
atom    2   Tr[ns(na)] =   8.10315
    eigenvalues: 
  0.554  0.555  0.980  0.981  0.982
    eigenvectors:
  0.000  0.000  0.026  0.002  0.972
  0.420  0.237  0.294  0.043  0.006
  0.237  0.420  0.040  0.299  0.003
  0.025  0.318  0.000  0.656  0.001
  0.319  0.025  0.639  0.000  0.017
    occupations:
  0.982  0.000  0.000  0.000  0.000
  0.000  0.701  0.000  0.073  0.189
  0.000  0.000  0.701  0.188 -0.074
  0.000  0.073  0.188  0.835  0.000
  0.000  0.189 -0.074  0.000  0.834
atom    3   Tr[ns(na)] =   3.79440
    eigenvalues: 
  0.355  0.356  0.382  0.402  0.402
    eigenvectors:
  0.000  0.000  1.000  0.000  0.000
  0.230  0.690  0.000  0.060  0.019
  0.690  0.230  0.000  0.019  0.060
  0.059  0.020  0.000  0.226  0.694
  0.020  0.059  0.000  0.694  0.226
    occupations:
  0.382  0.000  0.000  0.000  0.000
  0.000  0.359  0.000  0.000  0.013
  0.000  0.000  0.359  0.013  0.000
  0.000  0.000  0.013  0.398  0.000
  0.000  0.013  0.000  0.000  0.398
atom    4   Tr[ns(na)] =   3.79445
    eigenvalues: 
  0.355  0.355  0.382  0.402  0.402
    eigenvectors:
  0.000  0.000  1.000  0.000  0.000
  0.671  0.251  0.000  0.059  0.020
  0.251  0.670  0.000  0.019  0.060
  0.022  0.058  0.000  0.231  0.690
  0.056  0.022  0.000  0.691  0.231
    occupations:
  0.382  0.000  0.000  0.000  0.000
  0.000  0.359  0.000  0.000  0.013
  0.000  0.000  0.359  0.013  0.000
  0.000  0.000  0.013  0.398  0.000
  0.000  0.013  0.000  0.000  0.398
atom    5   Tr[ns(na)] =   5.43878
    eigenvalues: 
  0.844  0.930  0.945
    eigenvectors:
  0.338  0.000  0.662
  0.490  0.258  0.252
  0.171  0.742  0.087
    occupations:
  0.911 -0.041  0.024
 -0.041  0.892  0.023
  0.024  0.023  0.917
atom    6   Tr[ns(na)] =   5.42954
    eigenvalues: 
  0.841  0.929  0.944
    eigenvectors:
  0.338  0.000  0.662
  0.503  0.241  0.257
  0.159  0.759  0.082
    occupations:
  0.909  0.043  0.024
  0.043  0.889 -0.023
  0.024 -0.023  0.916
atom    7   Tr[ns(na)] =   5.42954
    eigenvalues: 
  0.841  0.929  0.944
    eigenvectors:
  0.338  0.000  0.662
  0.000  1.000  0.000
  0.662  0.000  0.338
    occupations:
  0.909  0.000 -0.049
  0.000  0.929 -0.001
 -0.049 -0.001  0.876
atom    8   Tr[ns(na)] =   5.42986
    eigenvalues: 
  0.841  0.929  0.945
    eigenvectors:
  0.339  0.000  0.661
  0.490  0.258  0.252
  0.171  0.742  0.087
    occupations:
  0.910 -0.042  0.025
 -0.042  0.890  0.023
  0.025  0.023  0.915
atom    9   Tr[ns(na)] =   5.42952
    eigenvalues: 
  0.841  0.929  0.944
    eigenvectors:
  0.339  0.000  0.661
  0.501  0.242  0.257
  0.160  0.758  0.082
    occupations:
  0.909  0.043  0.024
  0.043  0.889 -0.023
  0.024 -0.023  0.916
atom   10   Tr[ns(na)] =   5.42952
    eigenvalues: 
  0.841  0.929  0.944
    eigenvectors:
  0.339  0.000  0.661
  0.000  1.000  0.000
  0.661  0.000  0.339
    occupations:
  0.909  0.000 -0.049
  0.000  0.929 -0.001
 -0.049 -0.001  0.876
N of occupied +U levels =  56.2850580
 --- exit write_ns ---
 --- in v_hubbard ---
Hubbard energy    0.1063
 -------

     total cpu time spent up to now is      203.6 secs

     total energy              =    -538.21550228 Ry
     Harris-Foulkes estimate   =    -538.21601957 Ry
     estimated scf accuracy    <       0.00669995 Ry

     iteration #  5     ecut=    30.00 Ry     beta=0.20
     Davidson diagonalization with overlap
     ethr =  5.19E-06,  avg # of iterations =  1.0
 --- enter write_ns ---
 LDA+U parameters:
U( 1)     =  2.00000000
alpha( 1) =  0.00000000
U( 2)     =  0.00000000
alpha( 2) =  0.00000000
U( 3)     =  0.00000000
alpha( 3) = -0.15000000
U( 4)     =  0.00000000
alpha( 4) =  0.00000000
atom    1   Tr[ns(na)] =   8.05583
    eigenvalues: 
  0.547  0.548  0.978  0.978  0.978
    eigenvectors:
  0.000  0.000  0.080  0.004  0.916
  0.556  0.102  0.201  0.117  0.024
  0.102  0.556  0.114  0.224  0.005
  0.167  0.175  0.437  0.194  0.027
  0.175  0.167  0.169  0.461  0.028
    occupations:
  0.978  0.000  0.000  0.000  0.000
  0.000  0.694  0.000 -0.074  0.191
  0.000  0.000  0.695  0.190  0.074
  0.000 -0.074  0.190  0.830  0.000
  0.000  0.191  0.074  0.000  0.830
atom    2   Tr[ns(na)] =   8.05031
    eigenvalues: 
  0.544  0.545  0.978  0.978  0.979
    eigenvectors:
  0.000  0.000  0.098  0.005  0.897
  0.422  0.235  0.260  0.060  0.022
  0.236  0.422  0.049  0.280  0.013
  0.025  0.317  0.001  0.652  0.005
  0.317  0.025  0.592  0.003  0.062
    occupations:
  0.979  0.000  0.000  0.000  0.000
  0.000  0.693  0.000  0.073  0.192
  0.000  0.000  0.693  0.192 -0.074
  0.000  0.073  0.192  0.830  0.000
  0.000  0.192 -0.074  0.000  0.830
atom    3   Tr[ns(na)] =   3.79565
    eigenvalues: 
  0.356  0.356  0.382  0.402  0.402
    eigenvectors:
  0.000  0.000  1.000  0.000  0.000
  0.228  0.693  0.000  0.059  0.021
  0.693  0.228  0.000  0.021  0.058
  0.059  0.020  0.000  0.248  0.673
  0.020  0.059  0.000  0.673  0.248
    occupations:
  0.382  0.000  0.000  0.000  0.000
  0.000  0.359  0.000  0.000  0.013
  0.000  0.000  0.359  0.013  0.000
  0.000  0.000  0.013  0.398  0.000
  0.000  0.013  0.000  0.000  0.398
atom    4   Tr[ns(na)] =   3.79568
    eigenvalues: 
  0.356  0.356  0.382  0.402  0.402
    eigenvectors:
  0.000  0.000  1.000  0.000  0.000
  0.672  0.250  0.000  0.058  0.020
  0.251  0.671  0.000  0.019  0.059
  0.022  0.057  0.000  0.239  0.683
  0.056  0.022  0.000  0.684  0.239
    occupations:
  0.382  0.000  0.000  0.000  0.000
  0.000  0.359  0.000  0.000  0.012
  0.000  0.000  0.359  0.013  0.000
  0.000  0.000  0.013  0.399  0.000
  0.000  0.012  0.000  0.000  0.399
atom    5   Tr[ns(na)] =   5.43885
    eigenvalues: 
  0.844  0.931  0.945
    eigenvectors:
  0.338  0.000  0.662
  0.497  0.250  0.253
  0.165  0.750  0.085
    occupations:
  0.911 -0.042  0.024
 -0.042  0.891  0.023
  0.024  0.023  0.917
atom    6   Tr[ns(na)] =   5.42966
    eigenvalues: 
  0.841  0.929  0.944
    eigenvectors:
  0.338  0.000  0.662
  0.496  0.249  0.255
  0.166  0.751  0.083
    occupations:
  0.910  0.042  0.024
  0.042  0.889 -0.023
  0.024 -0.023  0.916
atom    7   Tr[ns(na)] =   5.42965
    eigenvalues: 
  0.841  0.929  0.944
    eigenvectors:
  0.338  0.000  0.662
  0.000  1.000  0.000
  0.662  0.000  0.338
    occupations:
  0.910  0.000 -0.049
  0.000  0.929  0.000
 -0.049  0.000  0.876
atom    8   Tr[ns(na)] =   5.42963
    eigenvalues: 
  0.841  0.929  0.945
    eigenvectors:
  0.338  0.000  0.662
  0.497  0.250  0.253
  0.165  0.750  0.085
    occupations:
  0.910 -0.042  0.024
 -0.042  0.889  0.023
  0.024  0.023  0.916
atom    9   Tr[ns(na)] =   5.42969
    eigenvalues: 
  0.841  0.929  0.944
    eigenvectors:
  0.339  0.000  0.661
  0.495  0.249  0.255
  0.166  0.751  0.083
    occupations:
  0.909  0.042  0.024
  0.042  0.890 -0.023
  0.024 -0.023  0.916
atom   10   Tr[ns(na)] =   5.42970
    eigenvalues: 
  0.841  0.929  0.944
    eigenvectors:
  0.339  0.000  0.661
  0.000  1.000  0.000
  0.661  0.000  0.339
    occupations:
  0.909  0.000 -0.049
  0.000  0.929  0.000
 -0.049  0.000  0.876
N of occupied +U levels =  56.2846581
 --- exit write_ns ---
 --- in v_hubbard ---
Hubbard energy    0.1043
 -------

     total cpu time spent up to now is      235.0 secs

     total energy              =    -538.21589087 Ry
     Harris-Foulkes estimate   =    -538.21587304 Ry
     estimated scf accuracy    <       0.00006977 Ry

     iteration #  6     ecut=    30.00 Ry     beta=0.20
     Davidson diagonalization with overlap
     ethr =  9.18E-08,  avg # of iterations =  2.0
 --- enter write_ns ---
 LDA+U parameters:
U( 1)     =  2.00000000
alpha( 1) =  0.00000000
U( 2)     =  0.00000000
alpha( 2) =  0.00000000
U( 3)     =  0.00000000
alpha( 3) = -0.15000000
U( 4)     =  0.00000000
alpha( 4) =  0.00000000
atom    1   Tr[ns(na)] =   8.05182
    eigenvalues: 
  0.545  0.547  0.978  0.978  0.979
    eigenvectors:
  0.000  0.000  0.070  0.004  0.926
  0.556  0.102  0.203  0.118  0.021
  0.102  0.556  0.116  0.223  0.004
  0.167  0.175  0.442  0.192  0.024
  0.175  0.167  0.170  0.463  0.024
    occupations:
  0.979  0.000  0.000  0.000  0.000
  0.000  0.693  0.000 -0.074  0.191
  0.000  0.000  0.694  0.191  0.074
  0.000 -0.074  0.191  0.830  0.000
  0.000  0.191  0.074  0.000  0.830
atom    2   Tr[ns(na)] =   8.04940
    eigenvalues: 
  0.543  0.545  0.978  0.979  0.979
    eigenvectors:
  0.000  0.000  0.078  0.004  0.918
  0.422  0.235  0.267  0.058  0.018
  0.236  0.422  0.049  0.283  0.010
  0.025  0.317  0.001  0.653  0.004
  0.317  0.025  0.606  0.002  0.050
    occupations:
  0.979  0.000  0.000  0.000  0.000
  0.000  0.693  0.000  0.074  0.193
  0.000  0.000  0.693  0.192 -0.074
  0.000  0.074  0.192  0.830  0.000
  0.000  0.193 -0.074  0.000  0.830
atom    3   Tr[ns(na)] =   3.79527
    eigenvalues: 
  0.356  0.356  0.382  0.402  0.402
    eigenvectors:
  0.000  0.000  1.000  0.000  0.000
  0.229  0.692  0.000  0.062  0.018
  0.692  0.229  0.000  0.018  0.062
  0.059  0.020  0.000  0.211  0.709
  0.020  0.059  0.000  0.709  0.211
    occupations:
  0.382  0.000  0.000  0.000  0.000
  0.000  0.359  0.000  0.000  0.013
  0.000  0.000  0.359  0.013  0.000
  0.000  0.000  0.013  0.398  0.000
  0.000  0.013  0.000  0.000  0.398
atom    4   Tr[ns(na)] =   3.79530
    eigenvalues: 
  0.356  0.356  0.382  0.402  0.402
    eigenvectors:
  0.000  0.000  1.000  0.000  0.000
  0.662  0.260  0.000  0.059  0.019
  0.261  0.661  0.000  0.019  0.060
  0.023  0.056  0.000  0.230  0.691
  0.055  0.023  0.000  0.692  0.230
    occupations:
  0.382  0.000  0.000  0.000  0.000
  0.000  0.359  0.000  0.000  0.012
  0.000  0.000  0.359  0.013  0.000
  0.000  0.000  0.013  0.398  0.000
  0.000  0.012  0.000  0.000  0.398
atom    5   Tr[ns(na)] =   5.43953
    eigenvalues: 
  0.844  0.931  0.945
    eigenvectors:
  0.338  0.000  0.662
  0.497  0.250  0.253
  0.165  0.750  0.085
    occupations:
  0.911 -0.042  0.024
 -0.042  0.891  0.023
  0.024  0.023  0.918
atom    6   Tr[ns(na)] =   5.43041
    eigenvalues: 
  0.841  0.929  0.945
    eigenvectors:
  0.338  0.000  0.662
  0.496  0.248  0.255
  0.165  0.752  0.083
    occupations:
  0.910  0.042  0.024
  0.042  0.890 -0.023
  0.024 -0.023  0.916
atom    7   Tr[ns(na)] =   5.43041
    eigenvalues: 
  0.841  0.929  0.945
    eigenvectors:
  0.338  0.000  0.662
  0.000  1.000  0.000
  0.662  0.000  0.338
    occupations:
  0.910  0.000 -0.049
  0.000  0.929  0.000
 -0.049  0.000  0.876
atom    8   Tr[ns(na)] =   5.43087
    eigenvalues: 
  0.841  0.929  0.945
    eigenvectors:
  0.338  0.000  0.662
  0.496  0.250  0.253
  0.165  0.750  0.085
    occupations:
  0.910 -0.042  0.024
 -0.042  0.890  0.023
  0.024  0.023  0.916
atom    9   Tr[ns(na)] =   5.43034
    eigenvalues: 
  0.841  0.929  0.945
    eigenvectors:
  0.339  0.000  0.661
  0.495  0.249  0.256
  0.166  0.751  0.083
    occupations:
  0.910  0.042  0.024
  0.042  0.890 -0.023
  0.024 -0.023  0.916
atom   10   Tr[ns(na)] =   5.43034
    eigenvalues: 
  0.841  0.929  0.945
    eigenvectors:
  0.339  0.000  0.661
  0.000  1.000  0.000
  0.661  0.000  0.339
    occupations:
  0.910  0.000 -0.049
  0.000  0.929  0.000
 -0.049  0.000  0.876
N of occupied +U levels =  56.2837115
 --- exit write_ns ---
 --- in v_hubbard ---
Hubbard energy    0.1042
 -------

     total cpu time spent up to now is      266.1 secs

     total energy              =    -538.21593079 Ry
     Harris-Foulkes estimate   =    -538.21589701 Ry
     estimated scf accuracy    <       0.00001292 Ry

     iteration #  7     ecut=    30.00 Ry     beta=0.20
     Davidson diagonalization with overlap
     ethr =  1.70E-08,  avg # of iterations =  2.0
 --- enter write_ns ---
 LDA+U parameters:
U( 1)     =  2.00000000
alpha( 1) =  0.00000000
U( 2)     =  0.00000000
alpha( 2) =  0.00000000
U( 3)     =  0.00000000
alpha( 3) = -0.15000000
U( 4)     =  0.00000000
alpha( 4) =  0.00000000
atom    1   Tr[ns(na)] =   8.05060
    eigenvalues: 
  0.545  0.546  0.978  0.978  0.979
    eigenvectors:
  0.000  0.000  0.050  0.003  0.948
  0.555  0.102  0.205  0.122  0.015
  0.102  0.555  0.120  0.220  0.003
  0.167  0.176  0.454  0.185  0.017
  0.175  0.167  0.170  0.470  0.017
    occupations:
  0.979  0.000  0.000  0.000  0.000
  0.000  0.693  0.000 -0.074  0.191
  0.000  0.000  0.694  0.191  0.074
  0.000 -0.074  0.191  0.829  0.000
  0.000  0.191  0.074  0.000  0.830
atom    2   Tr[ns(na)] =   8.05045
    eigenvalues: 
  0.543  0.545  0.979  0.979  0.980
    eigenvectors:
  0.000  0.000  0.052  0.003  0.946
  0.421  0.235  0.278  0.053  0.012
  0.236  0.422  0.048  0.288  0.006
  0.025  0.317  0.000  0.654  0.002
  0.317  0.025  0.623  0.001  0.033
    occupations:
  0.980  0.000  0.000  0.000  0.000
  0.000  0.693  0.000  0.074  0.193
  0.000  0.000  0.693  0.192 -0.074
  0.000  0.074  0.192  0.830  0.000
  0.000  0.193 -0.074  0.000  0.829
atom    3   Tr[ns(na)] =   3.79421
    eigenvalues: 
  0.355  0.356  0.382  0.402  0.402
    eigenvectors:
  0.000  0.000  1.000  0.000  0.000
  0.229  0.692  0.000  0.062  0.017
  0.692  0.229  0.000  0.017  0.062
  0.059  0.020  0.000  0.207  0.713
  0.020  0.059  0.000  0.713  0.207
    occupations:
  0.382  0.000  0.000  0.000  0.000
  0.000  0.359  0.000  0.000  0.013
  0.000  0.000  0.359  0.013  0.000
  0.000  0.000  0.013  0.398  0.000
  0.000  0.013  0.000  0.000  0.398
atom    4   Tr[ns(na)] =   3.79425
    eigenvalues: 
  0.355  0.356  0.382  0.402  0.402
    eigenvectors:
  0.000  0.000  1.000  0.000  0.000
  0.663  0.259  0.000  0.059  0.020
  0.259  0.662  0.000  0.019  0.060
  0.022  0.056  0.000  0.235  0.686
  0.055  0.023  0.000  0.687  0.235
    occupations:
  0.382  0.000  0.000  0.000  0.000
  0.000  0.359  0.000  0.000  0.012
  0.000  0.000  0.359  0.013  0.000
  0.000  0.000  0.013  0.398  0.000
  0.000  0.012  0.000  0.000  0.398
atom    5   Tr[ns(na)] =   5.43994
    eigenvalues: 
  0.844  0.931  0.945
    eigenvectors:
  0.338  0.000  0.662
  0.496  0.250  0.253
  0.165  0.750  0.085
    occupations:
  0.911 -0.042  0.024
 -0.042  0.891  0.023
  0.024  0.023  0.918
atom    6   Tr[ns(na)] =   5.43061
    eigenvalues: 
  0.841  0.929  0.945
    eigenvectors:
  0.338  0.000  0.662
  0.496  0.248  0.256
  0.165  0.752  0.083
    occupations:
  0.910  0.042  0.024
  0.042  0.890 -0.023
  0.024 -0.023  0.916
atom    7   Tr[ns(na)] =   5.43061
    eigenvalues: 
  0.841  0.929  0.945
    eigenvectors:
  0.338  0.000  0.662
  0.000  1.000  0.000
  0.662  0.000  0.338
    occupations:
  0.910  0.000 -0.049
  0.000  0.929  0.000
 -0.049  0.000  0.876
atom    8   Tr[ns(na)] =   5.43131
    eigenvalues: 
  0.841  0.929  0.945
    eigenvectors:
  0.339  0.000  0.661
  0.496  0.250  0.253
  0.165  0.750  0.085
    occupations:
  0.910 -0.042  0.024
 -0.042  0.890  0.023
  0.024  0.023  0.916
atom    9   Tr[ns(na)] =   5.43051
    eigenvalues: 
  0.841  0.929  0.945
    eigenvectors:
  0.339  0.000  0.661
  0.495  0.249  0.256
  0.166  0.751  0.083
    occupations:
  0.910  0.042  0.024
  0.042  0.890 -0.023
  0.024 -0.023  0.916
atom   10   Tr[ns(na)] =   5.43051
    eigenvalues: 
  0.841  0.929  0.945
    eigenvectors:
  0.339  0.000  0.661
  0.000  1.000  0.000
  0.661  0.000  0.339
    occupations:
  0.910  0.000 -0.049
  0.000  0.929  0.000
 -0.049  0.000  0.876
N of occupied +U levels =  56.2830011
 --- exit write_ns ---
 --- in v_hubbard ---
Hubbard energy    0.1043
 -------

     total cpu time spent up to now is      297.8 secs

     total energy              =    -538.21596049 Ry
     Harris-Foulkes estimate   =    -538.21593246 Ry
     estimated scf accuracy    <       0.00000239 Ry

     iteration #  8     ecut=    30.00 Ry     beta=0.20
     Davidson diagonalization with overlap
     ethr =  3.14E-09,  avg # of iterations =  1.9
 --- enter write_ns ---
 LDA+U parameters:
U( 1)     =  2.00000000
alpha( 1) =  0.00000000
U( 2)     =  0.00000000
alpha( 2) =  0.00000000
U( 3)     =  0.00000000
alpha( 3) = -0.15000000
U( 4)     =  0.00000000
alpha( 4) =  0.00000000
atom    1   Tr[ns(na)] =   8.05188
    eigenvalues: 
  0.545  0.547  0.978  0.978  0.979
    eigenvectors:
  0.000  0.000  0.045  0.002  0.953
  0.555  0.102  0.205  0.124  0.013
  0.102  0.555  0.122  0.218  0.003
  0.168  0.176  0.459  0.182  0.016
  0.175  0.167  0.169  0.473  0.015
    occupations:
  0.979  0.000  0.000  0.000  0.000
  0.000  0.694  0.000 -0.074  0.191
  0.000  0.000  0.694  0.191  0.074
  0.000 -0.074  0.191  0.829  0.000
  0.000  0.191  0.074  0.000  0.830
atom    2   Tr[ns(na)] =   8.04992
    eigenvalues: 
  0.543  0.545  0.978  0.979  0.980
    eigenvectors:
  0.000  0.000  0.048  0.003  0.950
  0.422  0.235  0.279  0.052  0.011
  0.236  0.422  0.047  0.290  0.006
  0.025  0.317  0.000  0.655  0.002
  0.317  0.025  0.625  0.001  0.031
    occupations:
  0.980  0.000  0.000  0.000  0.000
  0.000  0.693  0.000  0.074  0.193
  0.000  0.000  0.693  0.192 -0.074
  0.000  0.074  0.192  0.830  0.000
  0.000  0.193 -0.074  0.000  0.829
atom    3   Tr[ns(na)] =   3.79428
    eigenvalues: 
  0.355  0.356  0.382  0.402  0.402
    eigenvectors:
  0.000  0.000  1.000  0.000  0.000
  0.229  0.692  0.000  0.064  0.015
  0.692  0.229  0.000  0.015  0.064
  0.059  0.020  0.000  0.185  0.735
  0.020  0.059  0.000  0.735  0.185
    occupations:
  0.382  0.000  0.000  0.000  0.000
  0.000  0.359  0.000  0.000  0.013
  0.000  0.000  0.359  0.013  0.000
  0.000  0.000  0.013  0.398  0.000
  0.000  0.013  0.000  0.000  0.398
atom    4   Tr[ns(na)] =   3.79432
    eigenvalues: 
  0.356  0.356  0.382  0.402  0.402
    eigenvectors:
  0.000  0.000  1.000  0.000  0.000
  0.661  0.261  0.000  0.059  0.019
  0.261  0.660  0.000  0.019  0.060
  0.023  0.056  0.000  0.233  0.688
  0.055  0.023  0.000  0.690  0.232
    occupations:
  0.382  0.000  0.000  0.000  0.000
  0.000  0.359  0.000  0.000  0.012
  0.000  0.000  0.359  0.013  0.000
  0.000  0.000  0.013  0.398  0.000
  0.000  0.012  0.000  0.000  0.398
atom    5   Tr[ns(na)] =   5.43975
    eigenvalues: 
  0.844  0.931  0.945
    eigenvectors:
  0.338  0.000  0.662
  0.497  0.250  0.253
  0.165  0.750  0.085
    occupations:
  0.911 -0.042  0.024
 -0.042  0.891  0.023
  0.024  0.023  0.918
atom    6   Tr[ns(na)] =   5.43052
    eigenvalues: 
  0.841  0.929  0.945
    eigenvectors:
  0.338  0.000  0.662
  0.496  0.248  0.255
  0.165  0.752  0.083
    occupations:
  0.910  0.042  0.024
  0.042  0.890 -0.023
  0.024 -0.023  0.916
atom    7   Tr[ns(na)] =   5.43052
    eigenvalues: 
  0.841  0.929  0.945
    eigenvectors:
  0.338  0.000  0.662
  0.000  1.000  0.000
  0.662  0.000  0.338
    occupations:
  0.910  0.000 -0.049
  0.000  0.929  0.000
 -0.049  0.000  0.876
atom    8   Tr[ns(na)] =   5.43102
    eigenvalues: 
  0.841  0.929  0.945
    eigenvectors:
  0.339  0.000  0.661
  0.496  0.250  0.253
  0.165  0.750  0.085
    occupations:
  0.910 -0.042  0.024
 -0.042  0.890  0.023
  0.024  0.023  0.916
atom    9   Tr[ns(na)] =   5.43045
    eigenvalues: 
  0.841  0.929  0.945
    eigenvectors:
  0.339  0.000  0.661
  0.495  0.249  0.256
  0.166  0.751  0.083
    occupations:
  0.910  0.042  0.024
  0.042  0.890 -0.023
  0.024 -0.023  0.916
atom   10   Tr[ns(na)] =   5.43045
    eigenvalues: 
  0.841  0.929  0.945
    eigenvectors:
  0.339  0.000  0.661
  0.000  1.000  0.000
  0.661  0.000  0.339
    occupations:
  0.910  0.000 -0.049
  0.000  0.929  0.000
 -0.049  0.000  0.876
N of occupied +U levels =  56.2831090
 --- exit write_ns ---
 --- in v_hubbard ---
Hubbard energy    0.1043
 -------

     total cpu time spent up to now is      329.0 secs

     total energy              =    -538.21597859 Ry
     Harris-Foulkes estimate   =    -538.21596075 Ry
     estimated scf accuracy    <       0.00000056 Ry

     iteration #  9     ecut=    30.00 Ry     beta=0.20
     Davidson diagonalization with overlap
     ethr =  7.36E-10,  avg # of iterations =  2.0
 --- enter write_ns ---
 LDA+U parameters:
U( 1)     =  2.00000000
alpha( 1) =  0.00000000
U( 2)     =  0.00000000
alpha( 2) =  0.00000000
U( 3)     =  0.00000000
alpha( 3) = -0.15000000
U( 4)     =  0.00000000
alpha( 4) =  0.00000000
atom    1   Tr[ns(na)] =   8.05116
    eigenvalues: 
  0.545  0.546  0.978  0.978  0.979
    eigenvectors:
  0.000  0.000  0.044  0.002  0.954
  0.555  0.102  0.205  0.125  0.013
  0.102  0.555  0.123  0.218  0.003
  0.168  0.176  0.460  0.181  0.015
  0.175  0.167  0.168  0.474  0.015
    occupations:
  0.979  0.000  0.000  0.000  0.000
  0.000  0.693  0.000 -0.074  0.191
  0.000  0.000  0.694  0.191  0.074
  0.000 -0.074  0.191  0.829  0.000
  0.000  0.191  0.074  0.000  0.830
atom    2   Tr[ns(na)] =   8.05014
    eigenvalues: 
  0.543  0.545  0.979  0.979  0.980
    eigenvectors:
  0.000  0.000  0.046  0.003  0.951
  0.421  0.235  0.281  0.052  0.011
  0.236  0.422  0.047  0.290  0.006
  0.025  0.317  0.000  0.655  0.002
  0.318  0.025  0.626  0.001  0.030
    occupations:
  0.980  0.000  0.000  0.000  0.000
  0.000  0.693  0.000  0.074  0.193
  0.000  0.000  0.693  0.192 -0.074
  0.000  0.074  0.192  0.830  0.000
  0.000  0.193 -0.074  0.000  0.829
atom    3   Tr[ns(na)] =   3.79431
    eigenvalues: 
  0.355  0.356  0.382  0.402  0.402
    eigenvectors:
  0.000  0.000  1.000  0.000  0.000
  0.229  0.692  0.000  0.065  0.015
  0.692  0.229  0.000  0.015  0.065
  0.059  0.020  0.000  0.179  0.742
  0.020  0.059  0.000  0.742  0.179
    occupations:
  0.382  0.000  0.000  0.000  0.000
  0.000  0.359  0.000  0.000  0.013
  0.000  0.000  0.359  0.013  0.000
  0.000  0.000  0.013  0.398  0.000
  0.000  0.013  0.000  0.000  0.398
atom    4   Tr[ns(na)] =   3.79435
    eigenvalues: 
  0.356  0.356  0.382  0.402  0.402
    eigenvectors:
  0.000  0.000  1.000  0.000  0.000
  0.663  0.259  0.000  0.059  0.019
  0.259  0.662  0.000  0.019  0.060
  0.023  0.056  0.000  0.232  0.689
  0.055  0.023  0.000  0.690  0.232
    occupations:
  0.382  0.000  0.000  0.000  0.000
  0.000  0.359  0.000  0.000  0.012
  0.000  0.000  0.359  0.013  0.000
  0.000  0.000  0.013  0.398  0.000
  0.000  0.012  0.000  0.000  0.398
atom    5   Tr[ns(na)] =   5.43982
    eigenvalues: 
  0.844  0.931  0.945
    eigenvectors:
  0.338  0.000  0.662
  0.496  0.250  0.253
  0.165  0.750  0.085
    occupations:
  0.911 -0.042  0.024
 -0.042  0.891  0.023
  0.024  0.023  0.918
atom    6   Tr[ns(na)] =   5.43058
    eigenvalues: 
  0.841  0.929  0.945
    eigenvectors:
  0.338  0.000  0.662
  0.496  0.248  0.255
  0.165  0.752  0.083
    occupations:
  0.910  0.042  0.024
  0.042  0.890 -0.023
  0.024 -0.023  0.916
atom    7   Tr[ns(na)] =   5.43058
    eigenvalues: 
  0.841  0.929  0.945
    eigenvectors:
  0.338  0.000  0.662
  0.000  1.000  0.000
  0.662  0.000  0.338
    occupations:
  0.910  0.000 -0.049
  0.000  0.929  0.000
 -0.049  0.000  0.876
atom    8   Tr[ns(na)] =   5.43113
    eigenvalues: 
  0.841  0.929  0.945
    eigenvectors:
  0.339  0.000  0.661
  0.496  0.250  0.253
  0.165  0.750  0.085
    occupations:
  0.910 -0.042  0.024
 -0.042  0.890  0.023
  0.024  0.023  0.916
atom    9   Tr[ns(na)] =   5.43050
    eigenvalues: 
  0.841  0.929  0.945
    eigenvectors:
  0.339  0.000  0.661
  0.495  0.249  0.256
  0.166  0.751  0.083
    occupations:
  0.910  0.042  0.024
  0.042  0.890 -0.023
  0.024 -0.023  0.916
atom   10   Tr[ns(na)] =   5.43050
    eigenvalues: 
  0.841  0.929  0.945
    eigenvectors:
  0.339  0.000  0.661
  0.000  1.000  0.000
  0.661  0.000  0.339
    occupations:
  0.910  0.000 -0.049
  0.000  0.929  0.000
 -0.049  0.000  0.876
N of occupied +U levels =  56.2830664
 --- exit write_ns ---
 --- in v_hubbard ---
Hubbard energy    0.1043
 -------

     total cpu time spent up to now is      359.6 secs

     total energy              =    -538.21599074 Ry
     Harris-Foulkes estimate   =    -538.21597868 Ry
     estimated scf accuracy    <       0.00000016 Ry

     iteration # 10     ecut=    30.00 Ry     beta=0.20
     Davidson diagonalization with overlap
     ethr =  2.06E-10,  avg # of iterations =  1.2
 --- enter write_ns ---
 LDA+U parameters:
U( 1)     =  2.00000000
alpha( 1) =  0.00000000
U( 2)     =  0.00000000
alpha( 2) =  0.00000000
U( 3)     =  0.00000000
alpha( 3) = -0.15000000
U( 4)     =  0.00000000
alpha( 4) =  0.00000000
atom    1   Tr[ns(na)] =   8.05147
    eigenvalues: 
  0.545  0.546  0.978  0.978  0.979
    eigenvectors:
  0.000  0.000  0.045  0.002  0.953
  0.555  0.102  0.205  0.124  0.014
  0.102  0.555  0.123  0.218  0.003
  0.168  0.176  0.460  0.181  0.016
  0.175  0.167  0.168  0.474  0.015
    occupations:
  0.979  0.000  0.000  0.000  0.000
  0.000  0.694  0.000 -0.074  0.191
  0.000  0.000  0.694  0.191  0.074
  0.000 -0.074  0.191  0.829  0.000
  0.000  0.191  0.074  0.000  0.830
atom    2   Tr[ns(na)] =   8.05012
    eigenvalues: 
  0.543  0.545  0.979  0.979  0.980
    eigenvectors:
  0.000  0.000  0.048  0.003  0.950
  0.422  0.235  0.280  0.052  0.011
  0.236  0.422  0.047  0.290  0.006
  0.025  0.317  0.000  0.655  0.002
  0.317  0.025  0.625  0.001  0.031
    occupations:
  0.980  0.000  0.000  0.000  0.000
  0.000  0.693  0.000  0.074  0.193
  0.000  0.000  0.693  0.192 -0.074
  0.000  0.074  0.192  0.830  0.000
  0.000  0.193 -0.074  0.000  0.829
atom    3   Tr[ns(na)] =   3.79435
    eigenvalues: 
  0.355  0.356  0.382  0.402  0.402
    eigenvectors:
  0.000  0.000  1.000  0.000  0.000
  0.229  0.692  0.000  0.065  0.015
  0.692  0.229  0.000  0.015  0.065
  0.059  0.020  0.000  0.177  0.744
  0.020  0.059  0.000  0.744  0.177
    occupations:
  0.382  0.000  0.000  0.000  0.000
  0.000  0.359  0.000  0.000  0.013
  0.000  0.000  0.359  0.013  0.000
  0.000  0.000  0.013  0.398  0.000
  0.000  0.013  0.000  0.000  0.398
atom    4   Tr[ns(na)] =   3.79439
    eigenvalues: 
  0.356  0.356  0.382  0.402  0.402
    eigenvectors:
  0.000  0.000  1.000  0.000  0.000
  0.663  0.259  0.000  0.059  0.019
  0.259  0.662  0.000  0.019  0.060
  0.023  0.056  0.000  0.232  0.689
  0.055  0.023  0.000  0.690  0.232
    occupations:
  0.382  0.000  0.000  0.000  0.000
  0.000  0.359  0.000  0.000  0.012
  0.000  0.000  0.359  0.013  0.000
  0.000  0.000  0.013  0.398  0.000
  0.000  0.012  0.000  0.000  0.398
atom    5   Tr[ns(na)] =   5.43978
    eigenvalues: 
  0.844  0.931  0.945
    eigenvectors:
  0.338  0.000  0.662
  0.497  0.250  0.253
  0.165  0.750  0.085
    occupations:
  0.911 -0.042  0.024
 -0.042  0.891  0.023
  0.024  0.023  0.918
atom    6   Tr[ns(na)] =   5.43052
    eigenvalues: 
  0.841  0.929  0.945
    eigenvectors:
  0.338  0.000  0.662
  0.496  0.248  0.255
  0.165  0.752  0.083
    occupations:
  0.910  0.042  0.024
  0.042  0.890 -0.023
  0.024 -0.023  0.916
atom    7   Tr[ns(na)] =   5.43052
    eigenvalues: 
  0.841  0.929  0.945
    eigenvectors:
  0.338  0.000  0.662
  0.000  1.000  0.000
  0.662  0.000  0.338
    occupations:
  0.910  0.000 -0.049
  0.000  0.929  0.000
 -0.049  0.000  0.876
atom    8   Tr[ns(na)] =   5.43108
    eigenvalues: 
  0.841  0.929  0.945
    eigenvectors:
  0.339  0.000  0.661
  0.496  0.250  0.253
  0.165  0.750  0.085
    occupations:
  0.910 -0.042  0.024
 -0.042  0.890  0.023
  0.024  0.023  0.916
atom    9   Tr[ns(na)] =   5.43044
    eigenvalues: 
  0.841  0.929  0.945
    eigenvectors:
  0.339  0.000  0.661
  0.495  0.249  0.256
  0.166  0.751  0.083
    occupations:
  0.910  0.042  0.024
  0.042  0.890 -0.023
  0.024 -0.023  0.916
atom   10   Tr[ns(na)] =   5.43044
    eigenvalues: 
  0.841  0.929  0.945
    eigenvectors:
  0.339  0.000  0.661
  0.000  1.000  0.000
  0.661  0.000  0.339
    occupations:
  0.910  0.000 -0.049
  0.000  0.929  0.000
 -0.049  0.000  0.876
N of occupied +U levels =  56.2831075
 --- exit write_ns ---
 --- in v_hubbard ---
Hubbard energy    0.1044
 -------

     total cpu time spent up to now is      385.3 secs

     total energy              =    -538.21599848 Ry
     Harris-Foulkes estimate   =    -538.21599075 Ry
     estimated scf accuracy    <       0.00000001 Ry

     iteration # 11     ecut=    30.00 Ry     beta=0.20
     Davidson diagonalization with overlap
     ethr =  1.90E-11,  avg # of iterations =  2.4
 --- enter write_ns ---
 LDA+U parameters:
U( 1)     =  2.00000000
alpha( 1) =  0.00000000
U( 2)     =  0.00000000
alpha( 2) =  0.00000000
U( 3)     =  0.00000000
alpha( 3) = -0.15000000
U( 4)     =  0.00000000
alpha( 4) =  0.00000000
atom    1   Tr[ns(na)] =   8.05138
    eigenvalues: 
  0.545  0.546  0.978  0.978  0.979
    eigenvectors:
  0.000  0.000  0.045  0.002  0.953
  0.555  0.102  0.205  0.124  0.014
  0.102  0.555  0.123  0.218  0.003
  0.168  0.176  0.460  0.181  0.016
  0.175  0.167  0.168  0.474  0.015
    occupations:
  0.979  0.000  0.000  0.000  0.000
  0.000  0.694  0.000 -0.074  0.191
  0.000  0.000  0.694  0.191  0.074
  0.000 -0.074  0.191  0.829  0.000
  0.000  0.191  0.074  0.000  0.830
atom    2   Tr[ns(na)] =   8.05008
    eigenvalues: 
  0.543  0.545  0.979  0.979  0.980
    eigenvectors:
  0.000  0.000  0.048  0.003  0.950
  0.422  0.235  0.280  0.052  0.011
  0.236  0.422  0.047  0.290  0.006
  0.025  0.317  0.000  0.655  0.002
  0.317  0.025  0.625  0.001  0.031
    occupations:
  0.980  0.000  0.000  0.000  0.000
  0.000  0.693  0.000  0.074  0.193
  0.000  0.000  0.693  0.192 -0.074
  0.000  0.074  0.192  0.830  0.000
  0.000  0.193 -0.074  0.000  0.829
atom    3   Tr[ns(na)] =   3.79433
    eigenvalues: 
  0.355  0.356  0.382  0.402  0.402
    eigenvectors:
  0.000  0.000  1.000  0.000  0.000
  0.229  0.692  0.000  0.065  0.014
  0.692  0.229  0.000  0.014  0.065
  0.059  0.020  0.000  0.172  0.749
  0.020  0.059  0.000  0.748  0.172
    occupations:
  0.382  0.000  0.000  0.000  0.000
  0.000  0.359  0.000  0.000  0.013
  0.000  0.000  0.359  0.013  0.000
  0.000  0.000  0.013  0.398  0.000
  0.000  0.013  0.000  0.000  0.398
atom    4   Tr[ns(na)] =   3.79437
    eigenvalues: 
  0.356  0.356  0.382  0.402  0.402
    eigenvectors:
  0.000  0.000  1.000  0.000  0.000
  0.664  0.258  0.000  0.059  0.019
  0.259  0.662  0.000  0.019  0.060
  0.022  0.056  0.000  0.232  0.689
  0.055  0.023  0.000  0.690  0.232
    occupations:
  0.382  0.000  0.000  0.000  0.000
  0.000  0.359  0.000  0.000  0.012
  0.000  0.000  0.359  0.013  0.000
  0.000  0.000  0.013  0.398  0.000
  0.000  0.012  0.000  0.000  0.398
atom    5   Tr[ns(na)] =   5.43980
    eigenvalues: 
  0.844  0.931  0.945
    eigenvectors:
  0.338  0.000  0.662
  0.497  0.250  0.253
  0.165  0.750  0.085
    occupations:
  0.911 -0.042  0.024
 -0.042  0.891  0.023
  0.024  0.023  0.918
atom    6   Tr[ns(na)] =   5.43055
    eigenvalues: 
  0.841  0.929  0.945
    eigenvectors:
  0.338  0.000  0.662
  0.496  0.248  0.255
  0.165  0.752  0.083
    occupations:
  0.910  0.042  0.024
  0.042  0.890 -0.023
  0.024 -0.023  0.916
atom    7   Tr[ns(na)] =   5.43055
    eigenvalues: 
  0.841  0.929  0.945
    eigenvectors:
  0.338  0.000  0.662
  0.000  1.000  0.000
  0.662  0.000  0.338
    occupations:
  0.910  0.000 -0.049
  0.000  0.929  0.000
 -0.049  0.000  0.876
atom    8   Tr[ns(na)] =   5.43109
    eigenvalues: 
  0.841  0.929  0.945
    eigenvectors:
  0.339  0.000  0.661
  0.496  0.250  0.253
  0.165  0.750  0.085
    occupations:
  0.910 -0.042  0.024
 -0.042  0.890  0.023
  0.024  0.023  0.916
atom    9   Tr[ns(na)] =   5.43047
    eigenvalues: 
  0.841  0.929  0.945
    eigenvectors:
  0.339  0.000  0.661
  0.495  0.249  0.256
  0.166  0.751  0.083
    occupations:
  0.910  0.042  0.024
  0.042  0.890 -0.023
  0.024 -0.023  0.916
atom   10   Tr[ns(na)] =   5.43047
    eigenvalues: 
  0.841  0.929  0.945
    eigenvectors:
  0.339  0.000  0.661
  0.000  1.000  0.000
  0.661  0.000  0.339
    occupations:
  0.910  0.000 -0.049
  0.000  0.929  0.000
 -0.049  0.000  0.876
N of occupied +U levels =  56.2830786
 --- exit write_ns ---
 --- in v_hubbard ---
Hubbard energy    0.1044
 -------

     total cpu time spent up to now is      417.2 secs

     End of self-consistent calculation

          k = 0.0000 0.0000 0.0000 (  2175 PWs)   bands (ev):

   -19.8019 -19.6290  -6.5443  -5.8450  -5.8406  -5.8305  -5.7958  -5.4766
    -3.7999  -3.2660  -3.2280  -3.2255  -3.0307  -3.0298   5.1603   6.8426
     6.8555   7.4058   7.4119   7.4567   7.4863   7.5035   7.6917   9.2748
     9.4951   9.5929   9.6083   9.6809   9.6827  10.0930  10.0970  10.3417
    10.4421  10.4456  10.6584  11.2803  11.2838  11.7501  12.0453  12.0488
    14.7463  14.7501  15.4237  15.4261  16.1966  16.7825

     occupation numbers 
     0.0313   0.0313   0.0313   0.0313   0.0313   0.0313   0.0313   0.0313
     0.0313   0.0313   0.0313   0.0313   0.0313   0.0313   0.0313   0.0313
     0.0313   0.0313   0.0313   0.0313   0.0313   0.0313   0.0313   0.0313
     0.0312   0.0312   0.0312   0.0312   0.0312   0.0312   0.0312   0.0312
     0.0312   0.0312   0.0312   0.0306   0.0306   0.0205   0.0083   0.0082
     0.0000   0.0000   0.0000   0.0000   0.0000   0.0000

          k =-0.2471-0.1427 0.1027 (  2181 PWs)   bands (ev):

   -19.7757 -19.6588  -6.7239  -6.2889  -5.9425  -5.8484  -5.6087  -5.4725
    -3.6047  -3.3992  -2.9381  -2.9088  -2.8547  -2.7649   5.5208   6.8369
     6.9475   6.9653   7.0056   7.3866   7.4174   7.4992   7.6086   8.4161
     8.4676   9.0555   9.6167   9.7374   9.7602   9.9857  10.3302  10.3414
    10.5163  10.5241  10.6488  11.4361  11.5035  11.5421  12.3062  12.3762
    14.2918  14.3034  15.8126  16.0680  16.9709  17.2651

     occupation numbers 
     0.0625   0.0625   0.0625   0.0625   0.0625   0.0625   0.0625   0.0625
     0.0625   0.0625   0.0625   0.0625   0.0625   0.0625   0.0625   0.0625
     0.0625   0.0625   0.0625   0.0625   0.0625   0.0625   0.0625   0.0625
     0.0625   0.0625   0.0625   0.0625   0.0625   0.0625   0.0625   0.0625
     0.0625   0.0625   0.0625   0.0582   0.0559   0.0543   0.0040   0.0024
     0.0000   0.0000   0.0000   0.0000   0.0000   0.0000

          k = 0.4942 0.2853-0.2053 (  2202 PWs)   bands (ev):

   -19.7201 -19.7181  -6.7301  -6.7061  -5.9670  -5.9497  -5.5309  -5.5032
    -3.3883  -3.3870  -2.7969  -2.7908  -2.5121  -2.5066   5.9954   6.0276
     7.1274   7.1404   7.1883   7.2109   7.4559   7.5022   7.6790   7.7006
     7.8937   7.9158   9.4570   9.4603   9.8452   9.8610  10.2537  10.2647
    10.9109  10.9220  11.0337  11.0500  11.2591  11.2695  13.2752  13.3074
    13.3595  13.3954  16.8284  16.8371  17.1282  17.1341

     occupation numbers 
     0.0313   0.0313   0.0313   0.0313   0.0313   0.0313   0.0313   0.0313
     0.0313   0.0313   0.0313   0.0313   0.0313   0.0313   0.0313   0.0313
     0.0313   0.0313   0.0313   0.0313   0.0313   0.0313   0.0313   0.0313
     0.0313   0.0313   0.0313   0.0313   0.0312   0.0312   0.0312   0.0312
     0.0312   0.0312   0.0312   0.0312   0.0307   0.0306   0.0000   0.0000
     0.0000   0.0000   0.0000   0.0000   0.0000   0.0000

          k =-0.2471 0.1427 0.2053 (  2195 PWs)   bands (ev):

   -19.7692 -19.6647  -6.8581  -6.2361  -6.0721  -5.8125  -5.6370  -5.4669
    -3.4211  -3.2680  -3.1079  -2.8992  -2.8240  -2.5648   5.5615   6.7453
     6.7550   6.8539   7.1847   7.4289   7.4702   7.4979   7.5412   8.5062
     8.5667   8.7742   9.2754   9.6170   9.9191  10.0146  10.0199  10.1364
    10.2646  10.9623  11.0975  11.1235  11.4581  11.5366  11.9523  12.7149
    13.6182  14.7665  15.9896  16.1921  17.0365  17.5361

     occupation numbers 
     0.0625   0.0625   0.0625   0.0625   0.0625   0.0625   0.0625   0.0625
     0.0625   0.0625   0.0625   0.0625   0.0625   0.0625   0.0625   0.0625
     0.0625   0.0625   0.0625   0.0625   0.0625   0.0625   0.0625   0.0625
     0.0625   0.0625   0.0625   0.0625   0.0625   0.0625   0.0625   0.0625
     0.0625   0.0624   0.0623   0.0622   0.0576   0.0545   0.0239   0.0001
     0.0000   0.0000   0.0000   0.0000   0.0000   0.0000

          k = 0.4942 0.5706-0.1027 (  2198 PWs)   bands (ev):

   -19.7341 -19.7032  -6.9628  -6.6420  -6.1363  -5.8716  -5.4979  -5.3903
    -3.3112  -3.2583  -2.8792  -2.7131  -2.5312  -2.3900   5.8692   6.1870
     6.5755   6.9459   7.1493   7.3079   7.3971   7.5987   7.6482   7.8149
     8.1225   8.7490   9.0037   9.2660   9.5884   9.7780   9.8911  10.3321
    10.5672  11.0295  11.1423  11.2180  11.3524  11.4206  12.2997  12.7241
    13.4063  14.3442  16.9025  17.1119  17.3067  18.0122

     occupation numbers 
     0.0625   0.0625   0.0625   0.0625   0.0625   0.0625   0.0625   0.0625
     0.0625   0.0625   0.0625   0.0625   0.0625   0.0625   0.0625   0.0625
     0.0625   0.0625   0.0625   0.0625   0.0625   0.0625   0.0625   0.0625
     0.0625   0.0625   0.0625   0.0625   0.0625   0.0625   0.0625   0.0625
     0.0625   0.0624   0.0621   0.0617   0.0601   0.0587   0.0041   0.0001
     0.0000   0.0000   0.0000   0.0000   0.0000   0.0000

          k = 0.2471 0.4280 0.0000 (  2203 PWs)   bands (ev):

   -19.7455 -19.6922  -6.8399  -6.6465  -6.0290  -5.9876  -5.4445  -5.3578
    -3.5275  -3.2983  -2.8062  -2.7077  -2.5704  -2.5648   5.8358   6.2448
     6.8007   7.0499   7.1465   7.2246   7.3798   7.4734   7.5291   7.9093
     8.1451   8.8869   9.1090   9.3560   9.7455   9.7599  10.0362  10.3357
    10.8771  10.9059  10.9831  11.1698  11.1950  11.5163  12.2214  13.3056
    13.3804  14.1342  16.4318  16.9916  17.4200  17.9219

     occupation numbers 
     0.0625   0.0625   0.0625   0.0625   0.0625   0.0625   0.0625   0.0625
     0.0625   0.0625   0.0625   0.0625   0.0625   0.0625   0.0625   0.0625
     0.0625   0.0625   0.0625   0.0625   0.0625   0.0625   0.0625   0.0625
     0.0625   0.0625   0.0625   0.0625   0.0625   0.0625   0.0625   0.0625
     0.0625   0.0625   0.0624   0.0620   0.0619   0.0554   0.0068   0.0000
     0.0000   0.0000   0.0000   0.0000   0.0000   0.0000

          k = 0.4942-0.2853-0.4107 (  2202 PWs)   bands (ev):

   -19.7361 -19.7001  -7.1757  -6.4567  -6.2482  -5.9426  -5.5089  -5.2986
    -3.1990  -3.1251  -3.0499  -2.6559  -2.4854  -2.2273   5.7812   6.0941
     6.1963   6.8452   7.1396   7.2507   7.5482   7.6434   8.1404   8.2026
     8.2147   8.2698   8.5962   9.3748   9.6508   9.8442  10.0131  10.0566
    10.4189  10.9291  11.0913  11.2564  11.3881  11.5484  11.8816  12.4118
    13.3070  14.7797  17.0410  17.2620  17.5196  17.6094

     occupation numbers 
     0.0313   0.0313   0.0313   0.0313   0.0313   0.0313   0.0313   0.0313
     0.0313   0.0313   0.0313   0.0313   0.0313   0.0313   0.0313   0.0313
     0.0313   0.0313   0.0313   0.0313   0.0313   0.0313   0.0313   0.0313
     0.0313   0.0313   0.0313   0.0313   0.0312   0.0312   0.0312   0.0312
     0.0312   0.0312   0.0311   0.0307   0.0297   0.0270   0.0149   0.0009
     0.0000   0.0000   0.0000   0.0000   0.0000   0.0000

          k = 0.0000 0.0000 0.3080 (  2187 PWs)   bands (ev):

   -19.7754 -19.6592  -6.6122  -5.9829  -5.9386  -5.9196  -5.8486  -5.8204
    -3.2090  -3.1247  -3.1210  -2.9714  -2.9020  -2.8987   5.5805   6.9382
     6.9530   7.0990   7.1185   7.3270   7.3375   7.5351   7.5481   8.6273
     8.6322   9.1328   9.4182   9.5679   9.5836   9.7486  10.0979  10.1125
    10.6437  10.6477  10.7986  11.4701  11.4729  11.5459  12.2803  12.2827
    14.2526  14.2563  15.9066  15.9094  16.8776  17.4789

     occupation numbers 
     0.0625   0.0625   0.0625   0.0625   0.0625   0.0625   0.0625   0.0625
     0.0625   0.0625   0.0625   0.0625   0.0625   0.0625   0.0625   0.0625
     0.0625   0.0625   0.0625   0.0625   0.0625   0.0625   0.0625   0.0625
     0.0625   0.0625   0.0625   0.0625   0.0625   0.0625   0.0625   0.0625
     0.0625   0.0625   0.0625   0.0572   0.0571   0.0541   0.0047   0.0046
     0.0000   0.0000   0.0000   0.0000   0.0000   0.0000

          k = 0.7412 0.4280 0.0000 (  2204 PWs)   bands (ev):

   -19.7448 -19.6931  -6.7330  -6.5965  -6.1444  -5.8309  -5.6820  -5.5361
    -3.1804  -3.0955  -3.0477  -2.6803  -2.6605  -2.5859   5.8935   6.4481
     6.7853   7.0713   7.1488   7.2514   7.3607   7.4570   7.6607   7.8479
     8.1844   8.7818   9.1396   9.4568   9.5518   9.6594   9.8214  10.1985
    10.8667  10.9834  11.0130  11.2330  11.2564  11.3954  12.2234  13.2256
    13.2937  14.1646  16.6859  16.7204  17.5880  17.7907

     occupation numbers 
     0.0625   0.0625   0.0625   0.0625   0.0625   0.0625   0.0625   0.0625
     0.0625   0.0625   0.0625   0.0625   0.0625   0.0625   0.0625   0.0625
     0.0625   0.0625   0.0625   0.0625   0.0625   0.0625   0.0625   0.0625
     0.0625   0.0625   0.0625   0.0625   0.0625   0.0625   0.0625   0.0625
     0.0625   0.0624   0.0624   0.0616   0.0614   0.0593   0.0067   0.0000
     0.0000   0.0000   0.0000   0.0000   0.0000   0.0000

          k = 0.4942 0.2853 0.1027 (  2211 PWs)   bands (ev):

   -19.7357 -19.7035  -6.9654  -6.5420  -6.3190  -5.6993  -5.6249  -5.3476
    -3.3238  -3.1684  -3.0363  -2.6044  -2.5642  -2.3784   5.8823   6.1804
     6.5111   6.9298   7.1783   7.1841   7.4341   7.5974   7.7205   7.8088
     8.1778   8.8201   9.0149   9.3686   9.4398   9.6485   9.9799  10.3169
    10.5882  11.0952  11.2304  11.2397  11.2870  11.3130  12.2525  12.7384
    13.4581  14.3227  16.8817  16.9324  17.5778  17.9243

     occupation numbers 
     0.0625   0.0625   0.0625   0.0625   0.0625   0.0625   0.0625   0.0625
     0.0625   0.0625   0.0625   0.0625   0.0625   0.0625   0.0625   0.0625
     0.0625   0.0625   0.0625   0.0625   0.0625   0.0625   0.0625   0.0625
     0.0625   0.0625   0.0625   0.0625   0.0625   0.0625   0.0625   0.0625
     0.0625   0.0623   0.0616   0.0616   0.0611   0.0608   0.0056   0.0001
     0.0000   0.0000   0.0000   0.0000   0.0000   0.0000

          k = 0.7412-0.4280-0.3080 (  2210 PWs)   bands (ev):

   -19.7342 -19.7033  -6.9160  -6.4484  -6.3013  -5.7915  -5.7356  -5.4925
    -3.0745  -3.0569  -2.9654  -2.7343  -2.6265  -2.4327   5.9703   6.3003
     6.5933   6.9170   7.1742   7.2407   7.4676   7.6148   7.7637   7.8278
     8.1346   8.8340   8.8707   9.4277   9.4720   9.4929   9.6301  10.1792
    10.6769  11.1029  11.2031  11.2304  11.3431  11.3774  12.2129  12.6904
    13.4012  14.2956  17.0575  17.0661  17.5452  17.9011

     occupation numbers 
     0.0625   0.0625   0.0625   0.0625   0.0625   0.0625   0.0625   0.0625
     0.0625   0.0625   0.0625   0.0625   0.0625   0.0625   0.0625   0.0625
     0.0625   0.0625   0.0625   0.0625   0.0625   0.0625   0.0625   0.0625
     0.0625   0.0625   0.0625   0.0625   0.0625   0.0625   0.0625   0.0625
     0.0625   0.0622   0.0618   0.0616   0.0603   0.0597   0.0071   0.0001
     0.0000   0.0000   0.0000   0.0000   0.0000   0.0000

          k = 0.4942-0.5706-0.2053 (  2206 PWs)   bands (ev):

   -19.7196 -19.7191  -6.8910  -6.8737  -6.0426  -6.0123  -5.4348  -5.4133
    -3.1564  -3.1560  -2.8186  -2.8134  -2.3881  -2.3848   6.0228   6.0533
     6.7064   6.7250   7.0595   7.0645   7.3520   7.3684   7.8538   7.8965
     8.7420   8.7586   8.8454   8.8658   9.4913   9.5053  10.0560  10.0656
    10.8840  10.8846  11.0964  11.1056  11.3993  11.4097  12.2691  12.2723
    13.9849  13.9954  17.4221  17.4251  17.8663  17.8675

     occupation numbers 
     0.0625   0.0625   0.0625   0.0625   0.0625   0.0625   0.0625   0.0625
     0.0625   0.0625   0.0625   0.0625   0.0625   0.0625   0.0625   0.0625
     0.0625   0.0625   0.0625   0.0625   0.0625   0.0625   0.0625   0.0625
     0.0625   0.0625   0.0625   0.0625   0.0625   0.0625   0.0625   0.0625
     0.0625   0.0625   0.0623   0.0622   0.0592   0.0589   0.0051   0.0050
     0.0000   0.0000   0.0000   0.0000   0.0000   0.0000

          k = 0.0000 0.0000-0.6160 (  2186 PWs)   bands (ev):

   -19.7204 -19.7183  -6.5185  -6.4916  -5.9487  -5.9472  -5.9452  -5.9045
    -2.8986  -2.8973  -2.8963  -2.8894  -2.7109  -2.7058   6.2257   6.2603
     7.1234   7.1484   7.1600   7.1657   7.5603   7.5961   7.8138   7.8198
     7.8461   7.8500   9.5868   9.5924   9.6101   9.6120   9.6652   9.6839
    11.0925  11.1060  11.1608  11.1671  11.1772  11.1808  13.2134  13.2175
    13.2479  13.2507  17.1117  17.1149  17.1163  17.1176

     occupation numbers 
     0.0313   0.0313   0.0313   0.0313   0.0313   0.0313   0.0313   0.0313
     0.0313   0.0313   0.0313   0.0313   0.0313   0.0313   0.0313   0.0313
     0.0313   0.0313   0.0313   0.0313   0.0313   0.0313   0.0313   0.0313
     0.0313   0.0313   0.0312   0.0312   0.0312   0.0312   0.0312   0.0312
     0.0311   0.0311   0.0310   0.0310   0.0310   0.0310   0.0000   0.0000
     0.0000   0.0000   0.0000   0.0000   0.0000   0.0000

          k =-0.2471 0.1427-0.1027 (  2181 PWs)   bands (ev):

   -19.7757 -19.6588  -6.7240  -6.2893  -5.9445  -5.8441  -5.6077  -5.4758
    -3.6028  -3.4002  -2.9372  -2.9098  -2.8557  -2.7640   5.5195   6.8336
     6.9453   6.9720   7.0027   7.3834   7.4229   7.5107   7.5978   8.4185
     8.4628   9.0593   9.6265   9.7245   9.7627   9.9846  10.3259  10.3435
    10.5170  10.5224  10.6510  11.4366  11.5031  11.5435  12.3081  12.3742
    14.2948  14.3005  15.8141  16.0655  16.9701  17.2634

     occupation numbers 
     0.0625   0.0625   0.0625   0.0625   0.0625   0.0625   0.0625   0.0625
     0.0625   0.0625   0.0625   0.0625   0.0625   0.0625   0.0625   0.0625
     0.0625   0.0625   0.0625   0.0625   0.0625   0.0625   0.0625   0.0625
     0.0625   0.0625   0.0625   0.0625   0.0625   0.0625   0.0625   0.0625
     0.0625   0.0625   0.0625   0.0582   0.0560   0.0542   0.0039   0.0024
     0.0000   0.0000   0.0000   0.0000   0.0000   0.0000

          k = 0.0000 0.2853 0.1027 (  2181 PWs)   bands (ev):

   -19.7757 -19.6588  -6.7239  -6.2888  -5.9429  -5.8481  -5.6084  -5.4728
    -3.6048  -3.3992  -2.9380  -2.9089  -2.8547  -2.7648   5.5208   6.8369
     6.9469   6.9654   7.0061   7.3864   7.4174   7.4995   7.6084   8.4158
     8.4678   9.0555   9.6163   9.7376   9.7603   9.9855  10.3292  10.3425
    10.5170  10.5235  10.6486  11.4362  11.5032  11.5423  12.3062  12.3762
    14.2919  14.3033  15.8126  16.0680  16.9708  17.2652

     occupation numbers 
     0.0625   0.0625   0.0625   0.0625   0.0625   0.0625   0.0625   0.0625
     0.0625   0.0625   0.0625   0.0625   0.0625   0.0625   0.0625   0.0625
     0.0625   0.0625   0.0625   0.0625   0.0625   0.0625   0.0625   0.0625
     0.0625   0.0625   0.0625   0.0625   0.0625   0.0625   0.0625   0.0625
     0.0625   0.0625   0.0625   0.0582   0.0560   0.0543   0.0040   0.0024
     0.0000   0.0000   0.0000   0.0000   0.0000   0.0000

          k = 0.4942-0.2853 0.2053 (  2202 PWs)   bands (ev):

   -19.7202 -19.7181  -6.7308  -6.7059  -5.9677  -5.9479  -5.5294  -5.5059
    -3.3883  -3.3855  -2.7965  -2.7922  -2.5118  -2.5064   5.9919   6.0278
     7.0993   7.1398   7.2023   7.2180   7.4779   7.5031   7.6685   7.7016
     7.8890   7.9175   9.4596   9.4686   9.8317   9.8594  10.2527  10.2694
    10.9090  10.9215  11.0345  11.0479  11.2598  11.2738  13.2763  13.3103
    13.3580  13.3930  16.8308  16.8357  17.1269  17.1308

     occupation numbers 
     0.0313   0.0313   0.0313   0.0313   0.0313   0.0313   0.0313   0.0313
     0.0313   0.0313   0.0313   0.0313   0.0313   0.0313   0.0313   0.0313
     0.0313   0.0313   0.0313   0.0313   0.0313   0.0313   0.0313   0.0313
     0.0313   0.0313   0.0313   0.0313   0.0312   0.0312   0.0312   0.0312
     0.0312   0.0312   0.0312   0.0312   0.0307   0.0306   0.0000   0.0000
     0.0000   0.0000   0.0000   0.0000   0.0000   0.0000

          k = 0.0000-0.5706-0.2053 (  2202 PWs)   bands (ev):

[...]
     0.0625   0.0625   0.0625   0.0625   0.0625   0.0625   0.0625   0.0625
     0.0625   0.0625   0.0625   0.0625   0.0625   0.0625   0.0625   0.0625
     0.0625   0.0624   0.0622   0.0622   0.0576   0.0547   0.0240   0.0001
     0.0000   0.0000   0.0000   0.0000   0.0000   0.0000

          k = 0.4942-0.5706 0.1027 (  2198 PWs)   bands (ev):

   -19.7353 -19.7039  -6.9497  -6.6439  -6.1241  -5.8962  -5.5140  -5.3726
    -3.3106  -3.2577  -2.8815  -2.7081  -2.5305  -2.3856   5.8473   6.2108
     6.5507   6.9379   7.1483   7.2890   7.4175   7.5863   7.6314   7.8381
     8.1409   8.7464   9.0127   9.2752   9.5755   9.7861   9.8928  10.3261
    10.5621  11.0316  11.1463  11.2111  11.3577  11.4262  12.2979  12.7232
    13.4118  14.3410  16.9044  17.1062  17.3064  18.0118

     occupation numbers 
     0.0625   0.0625   0.0625   0.0625   0.0625   0.0625   0.0625   0.0625
     0.0625   0.0625   0.0625   0.0625   0.0625   0.0625   0.0625   0.0625
     0.0625   0.0625   0.0625   0.0625   0.0625   0.0625   0.0625   0.0625
     0.0625   0.0625   0.0625   0.0625   0.0625   0.0625   0.0625   0.0625
     0.0625   0.0624   0.0621   0.0618   0.0600   0.0585   0.0042   0.0001
     0.0000   0.0000   0.0000   0.0000   0.0000   0.0000

          k =-0.7412 0.1427-0.1027 (  2198 PWs)   bands (ev):

   -19.7353 -19.7039  -6.9492  -6.6448  -6.1230  -5.8973  -5.5130  -5.3733
    -3.3098  -3.2578  -2.8814  -2.7091  -2.5299  -2.3859   5.8492   6.2071
     6.5550   6.9368   7.1442   7.2905   7.4076   7.5987   7.6462   7.8214
     8.1412   8.7415   9.0167   9.2760   9.5778   9.7855   9.8931  10.3243
    10.5625  11.0355  11.1411  11.2121  11.3538  11.4301  12.2981  12.7234
    13.4119  14.3412  16.9025  17.1091  17.3058  18.0115

     occupation numbers 
     0.0625   0.0625   0.0625   0.0625   0.0625   0.0625   0.0625   0.0625
     0.0625   0.0625   0.0625   0.0625   0.0625   0.0625   0.0625   0.0625
     0.0625   0.0625   0.0625   0.0625   0.0625   0.0625   0.0625   0.0625
     0.0625   0.0625   0.0625   0.0625   0.0625   0.0625   0.0625   0.0625
     0.0625   0.0624   0.0621   0.0618   0.0601   0.0584   0.0042   0.0001
     0.0000   0.0000   0.0000   0.0000   0.0000   0.0000

          k = 0.2471-0.7133-0.1027 (  2198 PWs)   bands (ev):

   -19.7353 -19.7039  -6.9488  -6.6455  -6.1215  -5.8986  -5.5142  -5.3717
    -3.3099  -3.2579  -2.8809  -2.7104  -2.5298  -2.3855   5.8504   6.2069
     6.5573   6.9348   7.1419   7.2937   7.4086   7.6002   7.6431   7.8198
     8.1417   8.7417   9.0136   9.2740   9.5852   9.7800   9.8972  10.3228
    10.5624  11.0334  11.1421  11.2196  11.3486  11.4285  12.2982  12.7233
    13.4119  14.3413  16.9004  17.1124  17.3060  18.0129

     occupation numbers 
     0.0625   0.0625   0.0625   0.0625   0.0625   0.0625   0.0625   0.0625
     0.0625   0.0625   0.0625   0.0625   0.0625   0.0625   0.0625   0.0625
     0.0625   0.0625   0.0625   0.0625   0.0625   0.0625   0.0625   0.0625
     0.0625   0.0625   0.0625   0.0625   0.0625   0.0625   0.0625   0.0625
     0.0625   0.0624   0.0621   0.0617   0.0602   0.0584   0.0042   0.0001
     0.0000   0.0000   0.0000   0.0000   0.0000   0.0000

          k =-0.7412-0.1427 0.1027 (  2198 PWs)   bands (ev):

   -19.7353 -19.7039  -6.9493  -6.6446  -6.1227  -5.8975  -5.5151  -5.3710
    -3.3107  -3.2579  -2.8810  -2.7094  -2.5305  -2.3851   5.8484   6.2107
     6.5530   6.9357   7.1462   7.2921   7.4192   7.5870   7.6285   7.8366
     8.1412   8.7467   9.0097   9.2732   9.5828   9.7807   9.8968  10.3246
    10.5621  11.0295  11.1473  11.2186  11.3525  11.4247  12.2980  12.7231
    13.4118  14.3410  16.9022  17.1095  17.3066  18.0131

     occupation numbers 
     0.0625   0.0625   0.0625   0.0625   0.0625   0.0625   0.0625   0.0625
     0.0625   0.0625   0.0625   0.0625   0.0625   0.0625   0.0625   0.0625
     0.0625   0.0625   0.0625   0.0625   0.0625   0.0625   0.0625   0.0625
     0.0625   0.0625   0.0625   0.0625   0.0625   0.0625   0.0625   0.0625
     0.0625   0.0624   0.0621   0.0617   0.0601   0.0585   0.0042   0.0001
     0.0000   0.0000   0.0000   0.0000   0.0000   0.0000

          k = 0.2471 0.7133 0.1027 (  2198 PWs)   bands (ev):

   -19.7341 -19.7032  -6.9632  -6.6411  -6.1373  -5.8706  -5.4989  -5.3896
    -3.3120  -3.2582  -2.8793  -2.7121  -2.5318  -2.3896   5.8672   6.1906
     6.5715   6.9468   7.1534   7.3067   7.4072   7.5862   7.6321   7.8331
     8.1219   8.7541   8.9995   9.2649   9.5860   9.7790   9.8906  10.3339
    10.5668  11.0257  11.1478  11.2169  11.3562  11.4168  12.2995  12.7239
    13.4062  14.3439  16.9044  17.1091  17.3072  18.0125

     occupation numbers 
     0.0625   0.0625   0.0625   0.0625   0.0625   0.0625   0.0625   0.0625
     0.0625   0.0625   0.0625   0.0625   0.0625   0.0625   0.0625   0.0625
     0.0625   0.0625   0.0625   0.0625   0.0625   0.0625   0.0625   0.0625
     0.0625   0.0625   0.0625   0.0625   0.0625   0.0625   0.0625   0.0625
     0.0625   0.0624   0.0621   0.0617   0.0601   0.0587   0.0041   0.0001
     0.0000   0.0000   0.0000   0.0000   0.0000   0.0000

          k = 0.2471-0.4280 0.0000 (  2203 PWs)   bands (ev):

   -19.7453 -19.6924  -6.8470  -6.6324  -6.0577  -5.9720  -5.4317  -5.3646
    -3.5252  -3.2983  -2.8032  -2.7140  -2.5733  -2.5609   5.8514   6.2358
     6.8077   7.0459   7.1306   7.2227   7.3907   7.4599   7.5358   7.8969
     8.1324   8.9057   9.1169   9.3846   9.7339   9.7581  10.0369  10.3301
    10.8724  10.9027  10.9804  11.1650  11.1952  11.5256  12.2211  13.3029
    13.3778  14.1390  16.4327  16.9887  17.4169  17.9235

     occupation numbers 
     0.0625   0.0625   0.0625   0.0625   0.0625   0.0625   0.0625   0.0625
     0.0625   0.0625   0.0625   0.0625   0.0625   0.0625   0.0625   0.0625
     0.0625   0.0625   0.0625   0.0625   0.0625   0.0625   0.0625   0.0625
     0.0625   0.0625   0.0625   0.0625   0.0625   0.0625   0.0625   0.0625
     0.0625   0.0625   0.0624   0.0620   0.0619   0.0550   0.0068   0.0000
     0.0000   0.0000   0.0000   0.0000   0.0000   0.0000

          k =-0.4942 0.0000 0.0000 (  2203 PWs)   bands (ev):

   -19.7453 -19.6924  -6.8470  -6.6323  -6.0578  -5.9720  -5.4317  -5.3646
    -3.5252  -3.2983  -2.8032  -2.7140  -2.5736  -2.5606   5.8514   6.2358
     6.8076   7.0451   7.1336   7.2206   7.3906   7.4595   7.5359   7.8973
     8.1324   8.9057   9.1169   9.3846   9.7332   9.7589  10.0367  10.3302
    10.8724  10.9028  10.9804  11.1650  11.1950  11.5257  12.2211  13.3029
    13.3778  14.1390  16.4327  16.9887  17.4169  17.9240

     occupation numbers 
     0.0625   0.0625   0.0625   0.0625   0.0625   0.0625   0.0625   0.0625
     0.0625   0.0625   0.0625   0.0625   0.0625   0.0625   0.0625   0.0625
     0.0625   0.0625   0.0625   0.0625   0.0625   0.0625   0.0625   0.0625
     0.0625   0.0625   0.0625   0.0625   0.0625   0.0625   0.0625   0.0625
     0.0625   0.0625   0.0624   0.0620   0.0619   0.0550   0.0068   0.0000
     0.0000   0.0000   0.0000   0.0000   0.0000   0.0000

          k = 0.4942 0.2853 0.4107 (  2202 PWs)   bands (ev):

   -19.7383 -19.7017  -7.1595  -6.4500  -6.2306  -5.9752  -5.5348  -5.2799
    -3.1979  -3.1239  -3.0493  -2.6501  -2.4817  -2.2222   5.7556   6.0717
     6.2261   6.8354   7.1205   7.2290   7.5313   7.6346   8.1412   8.2257
     8.2356   8.3012   8.5720   9.4056   9.6584   9.8436  10.0146  10.0468
    10.4077  10.9280  11.0962  11.2526  11.3862  11.5594  11.8803  12.4107
    13.3139  14.7768  17.0393  17.2611  17.5161  17.6068

     occupation numbers 
     0.0313   0.0313   0.0313   0.0313   0.0313   0.0313   0.0313   0.0313
     0.0313   0.0313   0.0313   0.0313   0.0313   0.0313   0.0313   0.0313
     0.0313   0.0313   0.0313   0.0313   0.0313   0.0313   0.0313   0.0313
     0.0313   0.0313   0.0313   0.0313   0.0312   0.0312   0.0312   0.0312
     0.0312   0.0312   0.0311   0.0307   0.0297   0.0267   0.0150   0.0009
     0.0000   0.0000   0.0000   0.0000   0.0000   0.0000

          k = 0.0000 0.5706-0.4107 (  2202 PWs)   bands (ev):

   -19.7383 -19.7017  -7.1595  -6.4499  -6.2308  -5.9752  -5.5348  -5.2799
    -3.1978  -3.1239  -3.0493  -2.6501  -2.4817  -2.2222   5.7556   6.0716
     6.2261   6.8354   7.1205   7.2290   7.5319   7.6340   8.1410   8.2258
     8.2356   8.3015   8.5720   9.4055   9.6585   9.8436  10.0143  10.0470
    10.4077  10.9280  11.0960  11.2530  11.3860  11.5594  11.8803  12.4106
    13.3139  14.7768  17.0394  17.2610  17.5160  17.6068

     occupation numbers 
     0.0313   0.0313   0.0313   0.0313   0.0313   0.0313   0.0313   0.0313
     0.0313   0.0313   0.0313   0.0313   0.0313   0.0313   0.0313   0.0313
     0.0313   0.0313   0.0313   0.0313   0.0313   0.0313   0.0313   0.0313
     0.0313   0.0313   0.0313   0.0313   0.0312   0.0312   0.0312   0.0312
     0.0312   0.0312   0.0311   0.0307   0.0297   0.0267   0.0150   0.0009
     0.0000   0.0000   0.0000   0.0000   0.0000   0.0000

          k = 0.7412-0.4280 0.0000 (  2204 PWs)   bands (ev):

   -19.7450 -19.6929  -6.7257  -6.6097  -6.1378  -5.8250  -5.6719  -5.5537
    -3.1824  -3.0953  -3.0477  -2.6776  -2.6562  -2.5896   5.8737   6.4619
     6.7708   7.0805   7.1606   7.2610   7.3537   7.4560   7.6645   7.8602
     8.1964   8.7635   9.1284   9.4320   9.5562   9.6630   9.8221  10.2047
    10.8714  10.9869  11.0166  11.2380  11.2544  11.3893  12.2232  13.2282
    13.2963  14.1600  16.6836  16.7219  17.5901  17.7912

     occupation numbers 
     0.0625   0.0625   0.0625   0.0625   0.0625   0.0625   0.0625   0.0625
     0.0625   0.0625   0.0625   0.0625   0.0625   0.0625   0.0625   0.0625
     0.0625   0.0625   0.0625   0.0625   0.0625   0.0625   0.0625   0.0625
     0.0625   0.0625   0.0625   0.0625   0.0625   0.0625   0.0625   0.0625
     0.0625   0.0624   0.0624   0.0616   0.0614   0.0594   0.0067   0.0000
     0.0000   0.0000   0.0000   0.0000   0.0000   0.0000

          k = 0.0000-0.8559 0.0000 (  2204 PWs)   bands (ev):

   -19.7448 -19.6931  -6.7330  -6.5966  -6.1443  -5.8308  -5.6819  -5.5363
    -3.1804  -3.0955  -3.0477  -2.6804  -2.6605  -2.5859   5.8935   6.4482
     6.7853   7.0719   7.1459   7.2539   7.3607   7.4570   7.6611   7.8472
     8.1844   8.7819   9.1396   9.4568   9.5516   9.6598   9.8211  10.1985
    10.8667  10.9836  11.0128  11.2331  11.2563  11.3955  12.2234  13.2256
    13.2937  14.1646  16.6859  16.7204  17.5880  17.7907

     occupation numbers 
     0.0625   0.0625   0.0625   0.0625   0.0625   0.0625   0.0625   0.0625
     0.0625   0.0625   0.0625   0.0625   0.0625   0.0625   0.0625   0.0625
     0.0625   0.0625   0.0625   0.0625   0.0625   0.0625   0.0625   0.0625
     0.0625   0.0625   0.0625   0.0625   0.0625   0.0625   0.0625   0.0625
     0.0625   0.0624   0.0624   0.0616   0.0614   0.0593   0.0067   0.0000
     0.0000   0.0000   0.0000   0.0000   0.0000   0.0000

          k = 0.4942-0.2853-0.1027 (  2211 PWs)   bands (ev):

   -19.7345 -19.7028  -6.9785  -6.5395  -6.3215  -5.6932  -5.6038  -5.3624
    -3.3240  -3.1686  -3.0367  -2.6069  -2.5644  -2.3828   5.9008   6.1586
     6.5310   6.9371   7.1836   7.1958   7.4355   7.5936   7.7230   7.8019
     8.1596   8.8304   9.0037   9.3741   9.4488   9.6220   9.9753  10.3277
    10.5945  11.0930  11.2283  11.2364  11.2892  11.3105  12.2539  12.7390
    13.4525  14.3257  16.8826  16.9319  17.5770  17.9250

     occupation numbers 
     0.0625   0.0625   0.0625   0.0625   0.0625   0.0625   0.0625   0.0625
     0.0625   0.0625   0.0625   0.0625   0.0625   0.0625   0.0625   0.0625
     0.0625   0.0625   0.0625   0.0625   0.0625   0.0625   0.0625   0.0625
     0.0625   0.0625   0.0625   0.0625   0.0625   0.0625   0.0625   0.0625
     0.0625   0.0623   0.0616   0.0616   0.0611   0.0608   0.0056   0.0001
     0.0000   0.0000   0.0000   0.0000   0.0000   0.0000

          k = 0.0000-0.5706 0.1027 (  2211 PWs)   bands (ev):

   -19.7357 -19.7035  -6.9654  -6.5419  -6.3191  -5.6995  -5.6247  -5.3477
    -3.3238  -3.1684  -3.0363  -2.6045  -2.5641  -2.3784   5.8823   6.1803
     6.5112   6.9298   7.1743   7.1882   7.4345   7.5975   7.7205   7.8081
     8.1781   8.8201   9.0149   9.3684   9.4399   9.6485   9.9799  10.3170
    10.5883  11.0951  11.2315  11.2391  11.2862  11.3135  12.2525  12.7384
    13.4581  14.3227  16.8817  16.9324  17.5778  17.9244

     occupation numbers 
     0.0625   0.0625   0.0625   0.0625   0.0625   0.0625   0.0625   0.0625
     0.0625   0.0625   0.0625   0.0625   0.0625   0.0625   0.0625   0.0625
     0.0625   0.0625   0.0625   0.0625   0.0625   0.0625   0.0625   0.0625
     0.0625   0.0625   0.0625   0.0625   0.0625   0.0625   0.0625   0.0625
     0.0625   0.0623   0.0616   0.0616   0.0611   0.0608   0.0056   0.0001
     0.0000   0.0000   0.0000   0.0000   0.0000   0.0000

          k = 0.7412 0.4280 0.3080 (  2210 PWs)   bands (ev):

   -19.7354 -19.7040  -6.9015  -6.4511  -6.2962  -5.7999  -5.7612  -5.4746
    -3.0739  -3.0573  -2.9672  -2.7308  -2.6244  -2.4286   5.9493   6.3266
     6.5730   6.9076   7.1632   7.2302   7.4685   7.6217   7.7581   7.8334
     8.1537   8.8235   8.8821   9.4309   9.4850   9.4909   9.6326  10.1691
    10.6723  11.1075  11.2035  11.2276  11.3481  11.3786  12.2117  12.6897
    13.4066  14.2926  17.0557  17.0661  17.5464  17.9000

     occupation numbers 
     0.0625   0.0625   0.0625   0.0625   0.0625   0.0625   0.0625   0.0625
     0.0625   0.0625   0.0625   0.0625   0.0625   0.0625   0.0625   0.0625
     0.0625   0.0625   0.0625   0.0625   0.0625   0.0625   0.0625   0.0625
     0.0625   0.0625   0.0625   0.0625   0.0625   0.0625   0.0625   0.0625
     0.0625   0.0622   0.0618   0.0617   0.0602   0.0596   0.0072   0.0001
     0.0000   0.0000   0.0000   0.0000   0.0000   0.0000

          k = 0.0000 0.8559-0.3080 (  2210 PWs)   bands (ev):

   -19.7354 -19.7040  -6.9015  -6.4511  -6.2961  -5.8000  -5.7611  -5.4746
    -3.0739  -3.0573  -2.9671  -2.7308  -2.6244  -2.4286   5.9492   6.3267
     6.5729   6.9077   7.1632   7.2301   7.4687   7.6214   7.7563   7.8358
     8.1533   8.8231   8.8823   9.4312   9.4854   9.4904   9.6325  10.1691
    10.6723  11.1074  11.2048  11.2264  11.3483  11.3785  12.2117  12.6897
    13.4066  14.2926  17.0557  17.0661  17.5464  17.8999

     occupation numbers 
     0.0625   0.0625   0.0625   0.0625   0.0625   0.0625   0.0625   0.0625
     0.0625   0.0625   0.0625   0.0625   0.0625   0.0625   0.0625   0.0625
     0.0625   0.0625   0.0625   0.0625   0.0625   0.0625   0.0625   0.0625
     0.0625   0.0625   0.0625   0.0625   0.0625   0.0625   0.0625   0.0625
     0.0625   0.0622   0.0618   0.0617   0.0602   0.0596   0.0072   0.0001
     0.0000   0.0000   0.0000   0.0000   0.0000   0.0000

          k = 0.2471 0.7133-0.2053 (  2206 PWs)   bands (ev):

   -19.7196 -19.7191  -6.8912  -6.8735  -6.0428  -6.0121  -5.4347  -5.4133
    -3.1565  -3.1559  -2.8185  -2.8135  -2.3886  -2.3843   6.0229   6.0532
     6.7073   6.7240   7.0595   7.0646   7.3520   7.3683   7.8547   7.8957
     8.7397   8.7612   8.8458   8.8650   9.4902   9.5063  10.0563  10.0653
    10.8828  10.8858  11.0998  11.1021  11.4000  11.4091  12.2689  12.2725
    13.9849  13.9954  17.4224  17.4248  17.8646  17.8693

     occupation numbers 
     0.0625   0.0625   0.0625   0.0625   0.0625   0.0625   0.0625   0.0625
     0.0625   0.0625   0.0625   0.0625   0.0625   0.0625   0.0625   0.0625
     0.0625   0.0625   0.0625   0.0625   0.0625   0.0625   0.0625   0.0625
     0.0625   0.0625   0.0625   0.0625   0.0625   0.0625   0.0625   0.0625
     0.0625   0.0625   0.0623   0.0622   0.0592   0.0589   0.0051   0.0050
     0.0000   0.0000   0.0000   0.0000   0.0000   0.0000

          k =-0.7412-0.1427-0.2053 (  2206 PWs)   bands (ev):

   -19.7204 -19.7203  -6.8896  -6.8565  -6.0414  -6.0397  -5.4359  -5.4031
    -3.1561  -3.1541  -2.8185  -2.8173  -2.3887  -2.3748   6.0297   6.0546
     6.7031   6.7069   7.0231   7.0659   7.3475   7.3508   7.8710   7.9043
     8.7594   8.7663   8.8587   8.8643   9.5107   9.5137  10.0487  10.0498
    10.8757  10.8776  11.1000  11.1047  11.4075  11.4110  12.2671  12.2722
    13.9858  13.9964  17.4241  17.4249  17.8639  17.8665

     occupation numbers 
     0.0625   0.0625   0.0625   0.0625   0.0625   0.0625   0.0625   0.0625
     0.0625   0.0625   0.0625   0.0625   0.0625   0.0625   0.0625   0.0625
     0.0625   0.0625   0.0625   0.0625   0.0625   0.0625   0.0625   0.0625
     0.0625   0.0625   0.0625   0.0625   0.0625   0.0625   0.0625   0.0625
     0.0625   0.0625   0.0623   0.0622   0.0590   0.0589   0.0051   0.0050
     0.0000   0.0000   0.0000   0.0000   0.0000   0.0000

     the Fermi energy is    11.8655 ev

!    total energy              =    -538.21601221 Ry
     Harris-Foulkes estimate   =    -538.21599848 Ry
     estimated scf accuracy    <          8.5E-09 Ry

     The total energy is the sum of the following terms:

     one-electron contribution =     -32.92111753 Ry
     hartree contribution      =      83.66370703 Ry
     xc contribution           =    -199.59818249 Ry
     ewald contribution        =    -389.44315552 Ry
     Hubbard energy            =       0.10437746 Ry
     smearing contrib. (-TS)   =      -0.02164116 Ry

     convergence has been achieved in  11 iterations

     init_run     :      7.13s CPU      7.29s WALL (       1 calls)
     electrons    :    406.11s CPU    409.43s WALL (       1 calls)

     Called by init_run:
     wfcinit      :      0.00s CPU      0.00s WALL (       1 calls)
     potinit      :      0.31s CPU      0.35s WALL (       1 calls)

     Called by electrons:
     c_bands      :    309.45s CPU    310.83s WALL (      11 calls)
     sum_band     :     69.70s CPU     70.24s WALL (      11 calls)
     v_of_rho     :      3.27s CPU      3.28s WALL (      12 calls)
     v_h          :      0.20s CPU      0.20s WALL (      12 calls)
     v_xc         :      3.07s CPU      3.08s WALL (      12 calls)
     newd         :     24.91s CPU     24.93s WALL (      12 calls)
     mix_rho      :      0.37s CPU      0.38s WALL (      11 calls)

     Called by c_bands:
     init_us_2    :      3.08s CPU      3.10s WALL (     792 calls)
     cegterg      :    300.84s CPU    301.61s WALL (     396 calls)

     Called by sum_band:
     sum_band:bec :      0.29s CPU      0.30s WALL (     396 calls)
     addusdens    :     14.79s CPU     14.81s WALL (      11 calls)

     Called by *egterg:
     h_psi        :    220.80s CPU    221.41s WALL (    1577 calls)
     s_psi        :     12.11s CPU     12.15s WALL (    1577 calls)
     g_psi        :      0.95s CPU      0.94s WALL (    1181 calls)
     cdiaghg      :     28.41s CPU     28.43s WALL (    1541 calls)
     cegterg:over :     14.39s CPU     14.42s WALL (    1181 calls)
     cegterg:upda :      9.65s CPU      9.68s WALL (    1181 calls)
     cegterg:last :      6.27s CPU      6.30s WALL (     442 calls)

     Called by h_psi:
     h_psi:vloc   :    181.18s CPU    181.73s WALL (    1577 calls)
     h_psi:vnl    :     25.00s CPU     25.05s WALL (    1577 calls)
     add_vuspsi   :     12.43s CPU     12.43s WALL (    1577 calls)
     vhpsi        :     14.02s CPU     14.05s WALL (    1577 calls)

     General routines
     calbec       :     25.92s CPU     26.00s WALL (    3946 calls)
     fft          :      2.33s CPU      2.37s WALL (     187 calls)
     ffts         :      0.06s CPU      0.09s WALL (      23 calls)
     fftw         :    167.39s CPU    167.69s WALL (  110582 calls)
     interpolate  :      0.40s CPU      0.44s WALL (      23 calls)
     davcio       :      0.01s CPU      0.92s WALL (     828 calls)

     Parallel routines
     fft_scatter  :     47.72s CPU     48.16s WALL (  110792 calls)
     Hubbard U routines
     new_ns       :      2.59s CPU      3.01s WALL (      11 calls)
     vhpsi        :     14.02s CPU     14.05s WALL (    1577 calls)

     PWSCF        :  6m53.64s CPU     6m57.21s WALL


   This run was terminated on:  14:55:41  11Nov2012            

=------------------------------------------------------------------------------=
