   JOB DONE.
=------------------------------------------------------------------------------=

     Program PWSCF v.5.0.1 starts on 11Nov2012 at 15:17:13 

     This program is part of the open-source Quantum ESPRESSO suite
     for quantum simulation of materials; please cite
         "P. Giannozzi et al., J. Phys.:Condens. Matter 21 395502 (2009);
          URL http://www.quantum-espresso.org", 
     in publications or presentations arising from this work. More details at
     http://www.quantum-espresso.org/quote.php

     Parallel version (MPI), running on     2 processors
     R & G space division:  proc/pool =    2

     Current dimensions of program PWSCF are:
     Max number of different atomic species (ntypx) = 10
     Max number of k-points (npk) =  40000
     Max angular momentum in pseudopotentials (lmaxx) =  3
     Reading input from CoLaO_U200_a5.in
               file Co.pbe-nd-rrkjus.UPF: wavefunction(s)  4S 3D renormalized
               file O.pbe-rrkjus.UPF: wavefunction(s)  2S renormalized
               file O.pbe-rrkjus.UPF: wavefunction(s)  2S renormalized

     Subspace diagonalization in iterative solution of the eigenvalue problem:
     a serial algorithm will be used


     Parallelization info
     --------------------
     sticks:   dense  smooth     PW     G-vecs:    dense   smooth      PW
     Min        1112     444    131                34808     8786    1448
     Max        1113     445    132                34809     8787    1449
     Sum        2225     889    263                69617    17573    2897


     Title: 
     GGA + U, U = 2.000, alpha = 0.050                                          


     bravais-lattice index     =            5
     lattice parameter (alat)  =      10.3292  a.u.
     unit-cell volume          =     793.0599 (a.u.)^3
     number of atoms/cell      =           10
     number of atomic types    =            4
     number of electrons       =        76.00
     number of Kohn-Sham states=           46
     kinetic-energy cutoff     =      30.0000  Ry
     charge density cutoff     =     300.0000  Ry
     convergence threshold     =      1.0E-08
     mixing beta               =       0.2000
     number of iterations used =            8  plain     mixing
     Exchange-correlation      =  SLA  PW   PBE  PBE ( 1 4 3 4 0)
     EXX-fraction              =        0.00

     celldm(1)=  10.329242  celldm(2)=   0.000000  celldm(3)=   0.000000
     celldm(4)=   0.488100  celldm(5)=   0.000000  celldm(6)=   0.000000

     crystal axes: (cart. coord. in units of alat)
               a(1) = (   0.505915  -0.292090   0.811624 )  
               a(2) = (   0.000000   0.584180   0.811624 )  
               a(3) = (  -0.505915  -0.292090   0.811624 )  

     reciprocal axes: (cart. coord. in units 2 pi/alat)
               b(1) = (  0.988308 -0.570600  0.410699 )  
               b(2) = (  0.000000  1.141200  0.410699 )  
               b(3) = ( -0.988308 -0.570600  0.410699 )  


     PseudoPot. # 1 for Co read from file:
     /home/mcurnan/dft-course/Project1/example_LaCoO3/Co.pbe-nd-rrkjus.UPF
     MD5 check sum: 3e47a84addf5e975e0edeaeee2a73f59
     Pseudo is Ultrasoft + core correction, Zval =  9.0
     Generated by new atomic code, or converted to UPF format
     Using radial grid of  961 points,  6 beta functions with: 
                l(1) =   0
                l(2) =   0
                l(3) =   1
                l(4) =   1
                l(5) =   2
                l(6) =   2
     Q(r) pseudized with 0 coefficients 


     PseudoPot. # 2 for La read from file:
     /home/mcurnan/dft-course/Project1/example_LaCoO3/La.pbe-nsp-van.UPF
     MD5 check sum: b2f11743f52dde65f77d1302becd7929
     Pseudo is Ultrasoft + core correction, Zval = 11.0
     Generated by new atomic code, or converted to UPF format
     Using radial grid of  907 points,  6 beta functions with: 
                l(1) =   0
                l(2) =   0
                l(3) =   1
                l(4) =   1
                l(5) =   2
                l(6) =   2
     Q(r) pseudized with  6 coefficients,  rinner =    1.200   1.200   1.200
                                                       1.200   1.200

     PseudoPot. # 3 for O  read from file:
     /home/mcurnan/dft-course/Project1/example_LaCoO3/O.pbe-rrkjus.UPF
     MD5 check sum: 390ba29e75625707450f3bd3f0eb6be9
     Pseudo is Ultrasoft, Zval =  6.0
     Generated by new atomic code, or converted to UPF format
     Using radial grid of 1269 points,  4 beta functions with: 
                l(1) =   0
                l(2) =   0
                l(3) =   1
                l(4) =   1
     Q(r) pseudized with 0 coefficients 


     PseudoPot. # 4 for O  read from file:
     /home/mcurnan/dft-course/Project1/example_LaCoO3/O.pbe-rrkjus.UPF
     MD5 check sum: 390ba29e75625707450f3bd3f0eb6be9
     Pseudo is Ultrasoft, Zval =  6.0
     Generated by new atomic code, or converted to UPF format
     Using radial grid of 1269 points,  4 beta functions with: 
                l(1) =   0
                l(2) =   0
                l(3) =   1
                l(4) =   1
     Q(r) pseudized with 0 coefficients 


     atomic species   valence    mass     pseudopotential
        Co1            9.00     1.00000     Co( 1.00)
        La1           11.00     1.00000     La( 1.00)
        O1             6.00     1.00000     O ( 1.00)
        O2             6.00     1.00000     O ( 1.00)
 -----
     simplified LDA+U calculation, Hubbard_lmax = 2
     atomic species  L   Hubbard U  Hubbard alpha
        Co1          2    2.000000    0.000000
        La1          2    0.000000    0.000000
        O1           1    0.000000    0.050000
        O2           1    0.000000    0.000000
 -----

     No symmetry found


                                    s                        frac. trans.

      isym =  1     identity                                     

 cryst.   s( 1) = (     1          0          0      )
                  (     0          1          0      )
                  (     0          0          1      )

 cart.    s( 1) = (  1.0000000  0.0000000  0.0000000 )
                  (  0.0000000  1.0000000  0.0000000 )
                  (  0.0000000  0.0000000  1.0000000 )


     point group C_1 (1)    
     there are  1 classes
     the character table:

       E    
A      1.00

     the symmetry operations in each class:
     E        1

   Cartesian axes

     site n.     atom                  positions (alat units)
         1           Co1 tau(   1) = (   0.2228050  -0.1992639   1.0141240  )
         2           Co1 tau(   2) = (  -0.2831100   0.0928263   1.4199360  )
         3           La1 tau(   3) = (  -0.2831100   0.0928263   0.8112181  )
         4           La1 tau(   4) = (   0.2228050   0.3849164   1.2170300  )
         5           O1  tau(   5) = (   0.0000000   0.0000000   0.0000000  )
         6           O2  tau(   6) = (   0.0008601   0.1861491   1.6232478  )
         7           O2  tau(   7) = (   0.1616398   0.0923297   0.8116239  )
         8           O2  tau(   8) = (  -0.0603051  -0.1064377   1.2166242  )
         9           O2  tau(   9) = (   0.4447499  -0.0004966   1.2166242  )
        10           O2  tau(  10) = (  -0.2219449   0.3854130   1.2166242  )

   Crystallographic axes

     site n.     atom                  positions (cryst. coord.)
         1           Co1 tau(   1) = (  0.7504000  0.1891000  0.3100000  )
         2           Co1 tau(   2) = (  0.2504000  0.6891000  0.8100000  )
         3           La1 tau(   3) = (  0.0004000  0.4391000  0.5600000  )
         4           La1 tau(   4) = (  0.5004000  0.9391000  0.0600000  )
         5           O1  tau(   5) = (  0.0000000  0.0000000  0.0000000  )
         6           O2  tau(   6) = (  0.5613000  0.8791000  0.5596000  )
         7           O2  tau(   7) = (  0.4404000  0.4387000  0.1209000  )
         8           O2  tau(   8) = (  0.5008000  0.3782000  0.6200000  )
         9           O2  tau(   9) = (  0.9395000  0.4991000  0.0604000  )
        10           O2  tau(  10) = (  0.0604000  0.9395000  0.4991000  )

     number of k points=    36  gaussian smearing, width (Ry)=  0.0300
                       cart. coord. in units 2pi/alat
        k(    1) = (   0.0000000   0.0000000   0.0000000), wk =   0.0312500
        k(    2) = (  -0.2470771  -0.1426500   0.1026748), wk =   0.0625000
        k(    3) = (   0.4941541   0.2853000  -0.2053496), wk =   0.0312500
        k(    4) = (  -0.2470771   0.1426500   0.2053496), wk =   0.0625000
        k(    5) = (   0.4941541   0.5706001  -0.1026748), wk =   0.0625000
        k(    6) = (   0.2470771   0.4279500   0.0000000), wk =   0.0625000
        k(    7) = (   0.4941541  -0.2853000  -0.4106993), wk =   0.0312500
        k(    8) = (   0.0000000   0.0000000   0.3080244), wk =   0.0625000
        k(    9) = (   0.7412312   0.4279500   0.0000000), wk =   0.0625000
        k(   10) = (   0.4941541   0.2853000   0.1026748), wk =   0.0625000
        k(   11) = (   0.7412312  -0.4279500  -0.3080244), wk =   0.0625000
        k(   12) = (   0.4941541  -0.5706001  -0.2053496), wk =   0.0625000
        k(   13) = (   0.0000000   0.0000000  -0.6160489), wk =   0.0312500
        k(   14) = (  -0.2470771   0.1426500  -0.1026748), wk =   0.0625000
        k(   15) = (   0.0000000   0.2853000   0.1026748), wk =   0.0625000
        k(   16) = (   0.4941541  -0.2853000   0.2053496), wk =   0.0312500
        k(   17) = (   0.0000000  -0.5706001  -0.2053496), wk =   0.0312500
        k(   18) = (  -0.2470771  -0.1426500  -0.2053496), wk =   0.0625000
        k(   19) = (   0.0000000  -0.2853000   0.2053496), wk =   0.0625000
        k(   20) = (   0.4941541  -0.5706001   0.1026748), wk =   0.0625000
        k(   21) = (  -0.7412312   0.1426500  -0.1026748), wk =   0.0625000
        k(   22) = (   0.2470771  -0.7132501  -0.1026748), wk =   0.0625000
        k(   23) = (  -0.7412312  -0.1426500   0.1026748), wk =   0.0625000
        k(   24) = (   0.2470771   0.7132501   0.1026748), wk =   0.0625000
        k(   25) = (   0.2470771  -0.4279500   0.0000000), wk =   0.0625000
        k(   26) = (  -0.4941541   0.0000000   0.0000000), wk =   0.0625000
        k(   27) = (   0.4941541   0.2853000   0.4106993), wk =   0.0312500
        k(   28) = (   0.0000000   0.5706001  -0.4106993), wk =   0.0312500
        k(   29) = (   0.7412312  -0.4279500   0.0000000), wk =   0.0625000
        k(   30) = (   0.0000000  -0.8559001   0.0000000), wk =   0.0625000
        k(   31) = (   0.4941541  -0.2853000  -0.1026748), wk =   0.0625000
        k(   32) = (   0.0000000  -0.5706001   0.1026748), wk =   0.0625000
        k(   33) = (   0.7412312   0.4279500   0.3080244), wk =   0.0625000
        k(   34) = (   0.0000000   0.8559001  -0.3080244), wk =   0.0625000
        k(   35) = (   0.2470771   0.7132501  -0.2053496), wk =   0.0625000
        k(   36) = (  -0.7412312  -0.1426500  -0.2053496), wk =   0.0625000

                       cryst. coord.
        k(    1) = (   0.0000000   0.0000000   0.0000000), wk =   0.0312500
        k(    2) = (   0.0000000   0.0000000   0.2500000), wk =   0.0625000
        k(    3) = (   0.0000000   0.0000000  -0.5000000), wk =   0.0312500
        k(    4) = (   0.0000000   0.2500000   0.2500000), wk =   0.0625000
        k(    5) = (   0.0000000   0.2500000  -0.5000000), wk =   0.0625000
        k(    6) = (   0.0000000   0.2500000  -0.2500000), wk =   0.0625000
        k(    7) = (   0.0000000  -0.5000000  -0.5000000), wk =   0.0312500
        k(    8) = (   0.2500000   0.2500000   0.2500000), wk =   0.0625000
        k(    9) = (   0.2500000   0.2500000  -0.5000000), wk =   0.0625000
        k(   10) = (   0.2500000   0.2500000  -0.2500000), wk =   0.0625000
        k(   11) = (   0.2500000  -0.5000000  -0.5000000), wk =   0.0625000
        k(   12) = (   0.2500000  -0.5000000  -0.2500000), wk =   0.0625000
        k(   13) = (  -0.5000000  -0.5000000  -0.5000000), wk =   0.0312500
        k(   14) = (  -0.2500000   0.0000000   0.0000000), wk =   0.0625000
        k(   15) = (   0.0000000   0.2500000   0.0000000), wk =   0.0625000
        k(   16) = (   0.5000000   0.0000000   0.0000000), wk =   0.0312500
        k(   17) = (   0.0000000  -0.5000000   0.0000000), wk =   0.0312500
        k(   18) = (  -0.2500000  -0.2500000   0.0000000), wk =   0.0625000
        k(   19) = (   0.2500000   0.0000000   0.2500000), wk =   0.0625000
        k(   20) = (   0.5000000  -0.2500000   0.0000000), wk =   0.0625000
        k(   21) = (  -0.5000000   0.0000000   0.2500000), wk =   0.0625000
        k(   22) = (   0.2500000  -0.5000000   0.0000000), wk =   0.0625000
        k(   23) = (  -0.2500000   0.0000000   0.5000000), wk =   0.0625000
        k(   24) = (   0.0000000   0.5000000  -0.2500000), wk =   0.0625000
        k(   25) = (   0.2500000  -0.2500000   0.0000000), wk =   0.0625000
        k(   26) = (  -0.2500000   0.0000000   0.2500000), wk =   0.0625000
        k(   27) = (   0.5000000   0.5000000   0.0000000), wk =   0.0312500
        k(   28) = (  -0.5000000   0.0000000  -0.5000000), wk =   0.0312500
        k(   29) = (   0.5000000  -0.2500000  -0.2500000), wk =   0.0625000
        k(   30) = (   0.2500000  -0.5000000   0.2500000), wk =   0.0625000
        k(   31) = (   0.2500000  -0.2500000  -0.2500000), wk =   0.0625000
        k(   32) = (   0.2500000  -0.2500000   0.2500000), wk =   0.0625000
        k(   33) = (   0.5000000   0.5000000  -0.2500000), wk =   0.0625000
        k(   34) = (  -0.5000000   0.2500000  -0.5000000), wk =   0.0625000
        k(   35) = (  -0.2500000   0.2500000  -0.5000000), wk =   0.0625000
        k(   36) = (  -0.5000000  -0.2500000   0.2500000), wk =   0.0625000

     Dense  grid:    69617 G-vectors     FFT dimensions: (  60,  60,  60)

     Smooth grid:    17573 G-vectors     FFT dimensions: (  40,  40,  40)

     Largest allocated arrays     est. size (Mb)     dimensions
        Kohn-Sham Wavefunctions         0.79 Mb     (   1119,   46)
        Atomic wavefunctions            1.06 Mb     (   1119,   62)
        NL pseudopotentials             2.05 Mb     (   1119,  120)
        Each V/rho on FFT grid          1.65 Mb     ( 108000)
        Each G-vector array             0.27 Mb     (  34808)
        G-vector shells                 0.04 Mb     (   4682)
     Largest temporary arrays     est. size (Mb)     dimensions
        Auxiliary wavefunctions         3.14 Mb     (   1119,  184)
        Each subspace H/S matrix        0.52 Mb     ( 184, 184)
        Each <psi_i|beta_j> matrix      0.08 Mb     (    120,   46)
        Arrays for rho mixing          13.18 Mb     ( 108000,   8)

     Check: negative/imaginary core charge=   -0.000028    0.000000

     The initial density is read from file :
     /home/mcurnan/dft-course/Project1/example_LaCoO3/200/O/alpha/CoLaO_U200.save/charge-density.dat

 --- in v_hubbard ---
Hubbard energy    0.2114
 -------
     Number of +U iterations with fixed ns =  0
     Starting occupations:
 --- enter write_ns ---
 LDA+U parameters:
U( 1)     =  2.00000000
alpha( 1) =  0.00000000
U( 2)     =  0.00000000
alpha( 2) =  0.00000000
U( 3)     =  0.00000000
alpha( 3) =  0.05000000
U( 4)     =  0.00000000
alpha( 4) =  0.00000000
atom    1   Tr[ns(na)] =   8.02205
    eigenvalues: 
  0.596  0.596  0.938  0.941  0.941
    eigenvectors:
  0.000  0.000  1.000  0.000  0.000
  0.057  0.598  0.000  0.178  0.167
  0.598  0.057  0.000  0.167  0.178
  0.210  0.135  0.000  0.095  0.560
  0.135  0.210  0.000  0.560  0.095
    occupations:
  0.938  0.000  0.000  0.000  0.000
  0.000  0.715  0.000 -0.060  0.152
  0.000  0.000  0.715  0.152  0.060
  0.000 -0.060  0.152  0.822  0.000
  0.000  0.152  0.060  0.000  0.822
atom    2   Tr[ns(na)] =   8.02142
    eigenvalues: 
  0.595  0.595  0.938  0.941  0.941
    eigenvectors:
  0.000  0.000  1.000  0.000  0.000
  0.332  0.323  0.000  0.023  0.322
  0.323  0.332  0.000  0.322  0.023
  0.288  0.057  0.000  0.647  0.008
  0.057  0.288  0.000  0.008  0.647
    occupations:
  0.938  0.000  0.000  0.000  0.000
  0.000  0.715  0.000  0.060  0.153
  0.000  0.000  0.715  0.153 -0.060
  0.000  0.060  0.153  0.822  0.000
  0.000  0.153 -0.060  0.000  0.822
atom    3   Tr[ns(na)] =   3.80282
    eigenvalues: 
  0.355  0.355  0.384  0.403  0.403
    eigenvectors:
  0.000  0.000  1.000  0.000  0.000
  0.065  0.856  0.000  0.058  0.021
  0.856  0.065  0.000  0.021  0.058
  0.073  0.006  0.000  0.250  0.670
  0.006  0.073  0.000  0.670  0.250
    occupations:
  0.384  0.000  0.000  0.000  0.000
  0.000  0.359  0.000  0.000  0.013
  0.000  0.000  0.359  0.013  0.000
  0.000  0.000  0.013  0.399  0.000
  0.000  0.013  0.000  0.000  0.399
atom    4   Tr[ns(na)] =   3.80282
    eigenvalues: 
  0.355  0.355  0.384  0.403  0.403
    eigenvectors:
  0.000  0.000  1.000  0.000  0.000
  0.729  0.192  0.000  0.048  0.032
  0.192  0.729  0.000  0.032  0.048
  0.017  0.062  0.000  0.359  0.562
  0.062  0.017  0.000  0.562  0.359
    occupations:
  0.384  0.000  0.000  0.000  0.000
  0.000  0.359  0.000  0.000  0.013
  0.000  0.000  0.359  0.013  0.000
  0.000  0.000  0.013  0.399  0.000
  0.000  0.013  0.000  0.000  0.399
atom    5   Tr[ns(na)] =   5.43357
    eigenvalues: 
  0.846  0.929  0.941
    eigenvectors:
  0.340  0.000  0.660
  0.496  0.250  0.255
  0.164  0.750  0.086
    occupations:
  0.909 -0.039  0.022
 -0.039  0.891  0.022
  0.022  0.022  0.917
atom    6   Tr[ns(na)] =   5.43358
    eigenvalues: 
  0.846  0.929  0.941
    eigenvectors:
  0.340  0.000  0.660
  0.494  0.250  0.256
  0.166  0.750  0.085
    occupations:
  0.909  0.039  0.022
  0.039  0.891 -0.022
  0.022 -0.022  0.917
atom    7   Tr[ns(na)] =   5.43358
    eigenvalues: 
  0.846  0.929  0.941
    eigenvectors:
  0.340  0.000  0.660
  0.000  1.000  0.000
  0.660  0.000  0.340
    occupations:
  0.909  0.000 -0.045
  0.000  0.929  0.000
 -0.045  0.000  0.879
atom    8   Tr[ns(na)] =   5.43357
    eigenvalues: 
  0.846  0.929  0.941
    eigenvectors:
  0.340  0.000  0.660
  0.496  0.250  0.255
  0.164  0.750  0.086
    occupations:
  0.909 -0.039  0.022
 -0.039  0.891  0.022
  0.022  0.022  0.917
atom    9   Tr[ns(na)] =   5.43358
    eigenvalues: 
  0.846  0.929  0.941
    eigenvectors:
  0.340  0.000  0.660
  0.494  0.250  0.256
  0.166  0.750  0.085
    occupations:
  0.909  0.039  0.022
  0.039  0.891 -0.022
  0.022 -0.022  0.917
atom   10   Tr[ns(na)] =   5.43358
    eigenvalues: 
  0.846  0.929  0.941
    eigenvectors:
  0.340  0.000  0.660
  0.000  1.000  0.000
  0.660  0.000  0.340
    occupations:
  0.909  0.000 -0.045
  0.000  0.929  0.000
 -0.045  0.000  0.879
N of occupied +U levels =  56.2505796
 --- exit write_ns ---
 LDA+U Projector read from file 
     Starting wfc from file

     total cpu time spent up to now is        7.6 secs

     per-process dynamical memory:    62.8 Mb

     Self-consistent Calculation

     iteration #  1     ecut=    30.00 Ry     beta=0.20
     Davidson diagonalization with overlap
     c_bands:  1 eigenvalues not converged
     c_bands:  1 eigenvalues not converged
     c_bands:  1 eigenvalues not converged
     c_bands:  1 eigenvalues not converged
     c_bands:  1 eigenvalues not converged
     c_bands:  1 eigenvalues not converged
     c_bands:  1 eigenvalues not converged
     c_bands:  1 eigenvalues not converged
     c_bands:  1 eigenvalues not converged
     c_bands:  1 eigenvalues not converged
     c_bands:  1 eigenvalues not converged
     c_bands:  1 eigenvalues not converged
     c_bands:  1 eigenvalues not converged
     ethr =  1.00E-10,  avg # of iterations = 16.3
 --- enter write_ns ---
 LDA+U parameters:
U( 1)     =  2.00000000
alpha( 1) =  0.00000000
U( 2)     =  0.00000000
alpha( 2) =  0.00000000
U( 3)     =  0.00000000
alpha( 3) =  0.05000000
U( 4)     =  0.00000000
alpha( 4) =  0.00000000
atom    1   Tr[ns(na)] =   8.12124
    eigenvalues: 
  0.567  0.568  0.975  0.975  0.976
    eigenvectors:
  0.000  0.000  0.004  0.024  0.971
  0.100  0.554  0.203  0.135  0.008
  0.554  0.100  0.142  0.202  0.002
  0.179  0.166  0.069  0.575  0.011
  0.167  0.179  0.582  0.063  0.008
    occupations:
  0.976  0.000  0.000  0.000  0.000
  0.000  0.709  0.000 -0.069  0.181
  0.000  0.000  0.708  0.181  0.069
  0.000 -0.069  0.181  0.834  0.000
  0.000  0.181  0.069  0.000  0.834
atom    2   Tr[ns(na)] =   8.11573
    eigenvalues: 
  0.565  0.566  0.975  0.975  0.976
    eigenvectors:
  0.000  0.000  0.006  0.030  0.963
  0.236  0.418  0.007  0.329  0.009
  0.418  0.236  0.337  0.006  0.004
  0.319  0.027  0.620  0.033  0.001
  0.027  0.319  0.030  0.602  0.023
    occupations:
  0.976  0.000  0.000  0.000  0.000
  0.000  0.707  0.000  0.069  0.182
  0.000  0.000  0.707  0.182 -0.069
  0.000  0.069  0.182  0.833  0.000
  0.000  0.182 -0.069  0.000  0.834
atom    3   Tr[ns(na)] =   3.79862
    eigenvalues: 
  0.356  0.356  0.383  0.402  0.402
    eigenvectors:
  0.000  0.000  1.000  0.000  0.000
  0.690  0.230  0.000  0.019  0.061
  0.230  0.689  0.000  0.061  0.019
  0.021  0.060  0.000  0.693  0.226
  0.059  0.021  0.000  0.226  0.694
    occupations:
  0.383  0.000  0.000  0.000  0.000
  0.000  0.360  0.000  0.000  0.013
  0.000  0.000  0.360  0.013  0.000
  0.000  0.000  0.013  0.399  0.000
  0.000  0.013  0.000  0.000  0.399
atom    4   Tr[ns(na)] =   3.79855
    eigenvalues: 
  0.356  0.356  0.383  0.402  0.402
    eigenvectors:
  0.000  0.000  1.000  0.000  0.000
  0.232  0.686  0.000  0.020  0.062
  0.687  0.232  0.000  0.061  0.020
  0.060  0.021  0.000  0.686  0.233
  0.021  0.061  0.000  0.233  0.685
    occupations:
  0.383  0.000  0.000  0.000  0.000
  0.000  0.360  0.000  0.000  0.013
  0.000  0.000  0.360  0.013  0.000
  0.000  0.000  0.013  0.399  0.000
  0.000  0.013  0.000  0.000  0.399
atom    5   Tr[ns(na)] =   5.40340
    eigenvalues: 
  0.834  0.925  0.942
    eigenvectors:
  0.341  0.000  0.659
  0.495  0.250  0.255
  0.164  0.750  0.086
    occupations:
  0.905 -0.044  0.026
 -0.044  0.885  0.024
  0.026  0.024  0.912
atom    6   Tr[ns(na)] =   5.41204
    eigenvalues: 
  0.836  0.927  0.943
    eigenvectors:
  0.341  0.000  0.659
  0.494  0.251  0.255
  0.165  0.749  0.085
    occupations:
  0.907  0.044  0.025
  0.044  0.886 -0.023
  0.025 -0.023  0.913
atom    7   Tr[ns(na)] =   5.41204
    eigenvalues: 
  0.836  0.927  0.943
    eigenvectors:
  0.341  0.000  0.659
  0.000  1.000  0.000
  0.659  0.000  0.341
    occupations:
  0.907  0.000 -0.051
  0.000  0.927  0.000
 -0.051  0.000  0.873
atom    8   Tr[ns(na)] =   5.41202
    eigenvalues: 
  0.836  0.927  0.943
    eigenvectors:
  0.341  0.000  0.659
  0.495  0.250  0.255
  0.164  0.750  0.086
    occupations:
  0.907 -0.044  0.025
 -0.044  0.886  0.023
  0.025  0.023  0.913
atom    9   Tr[ns(na)] =   5.41202
    eigenvalues: 
  0.836  0.927  0.943
    eigenvectors:
  0.341  0.000  0.659
  0.494  0.250  0.256
  0.165  0.750  0.085
    occupations:
  0.907  0.044  0.025
  0.044  0.886 -0.023
  0.025 -0.023  0.913
atom   10   Tr[ns(na)] =   5.41202
    eigenvalues: 
  0.836  0.927  0.943
    eigenvectors:
  0.341  0.000  0.659
  0.000  1.000  0.000
  0.659  0.000  0.341
    occupations:
  0.907  0.000 -0.051
  0.000  0.927  0.000
 -0.051  0.000  0.873
N of occupied +U levels =  56.2976924
 --- exit write_ns ---
 --- in v_hubbard ---
Hubbard energy    0.2064
 -------

     total cpu time spent up to now is       97.3 secs

     total energy              =    -538.13317461 Ry
     Harris-Foulkes estimate   =    -538.13560729 Ry
     estimated scf accuracy    <       0.01314729 Ry

     iteration #  2     ecut=    30.00 Ry     beta=0.20
     Davidson diagonalization with overlap
     ethr =  1.73E-05,  avg # of iterations =  1.6
 --- enter write_ns ---
 LDA+U parameters:
U( 1)     =  2.00000000
alpha( 1) =  0.00000000
U( 2)     =  0.00000000
alpha( 2) =  0.00000000
U( 3)     =  0.00000000
alpha( 3) =  0.05000000
U( 4)     =  0.00000000
alpha( 4) =  0.00000000
atom    1   Tr[ns(na)] =   8.02950
    eigenvalues: 
  0.545  0.545  0.975  0.975  0.975
    eigenvectors:
  0.000  0.000  0.001  0.006  0.993
  0.101  0.555  0.168  0.175  0.002
  0.555  0.101  0.177  0.167  0.000
  0.177  0.168  0.114  0.539  0.002
  0.168  0.177  0.541  0.112  0.002
    occupations:
  0.975  0.000  0.000  0.000  0.000
  0.000  0.693  0.000 -0.073  0.190
  0.000  0.000  0.693  0.190  0.074
  0.000 -0.073  0.190  0.827  0.000
  0.000  0.190  0.074  0.000  0.826
atom    2   Tr[ns(na)] =   8.03819
    eigenvalues: 
  0.545  0.545  0.976  0.976  0.977
    eigenvectors:
  0.000  0.000  0.001  0.006  0.994
  0.237  0.419  0.024  0.319  0.002
  0.419  0.237  0.321  0.024  0.001
  0.319  0.026  0.648  0.007  0.000
  0.026  0.319  0.007  0.645  0.004
    occupations:
  0.977  0.000  0.000  0.000  0.000
  0.000  0.693  0.000  0.074  0.191
  0.000  0.000  0.693  0.191 -0.073
  0.000  0.074  0.191  0.827  0.000
  0.000  0.191 -0.073  0.000  0.828
atom    3   Tr[ns(na)] =   3.79610
    eigenvalues: 
  0.355  0.356  0.382  0.402  0.402
    eigenvectors:
  0.000  0.000  1.000  0.000  0.000
  0.676  0.244  0.000  0.021  0.058
  0.244  0.676  0.000  0.058  0.021
  0.022  0.058  0.000  0.670  0.251
  0.058  0.022  0.000  0.251  0.670
    occupations:
  0.382  0.000  0.000  0.000  0.000
  0.000  0.359  0.000  0.000  0.013
  0.000  0.000  0.359  0.013  0.000
  0.000  0.000  0.013  0.399  0.000
  0.000  0.013  0.000  0.000  0.399
atom    4   Tr[ns(na)] =   3.79613
    eigenvalues: 
  0.356  0.356  0.382  0.402  0.402
    eigenvectors:
  0.000  0.000  1.000  0.000  0.000
  0.188  0.732  0.000  0.021  0.058
  0.733  0.187  0.000  0.058  0.022
  0.063  0.017  0.000  0.665  0.256
  0.017  0.063  0.000  0.256  0.664
    occupations:
  0.382  0.000  0.000  0.000  0.000
  0.000  0.359  0.000  0.000  0.013
  0.000  0.000  0.359  0.013  0.000
  0.000  0.000  0.013  0.399  0.000
  0.000  0.013  0.000  0.000  0.399
atom    5   Tr[ns(na)] =   5.43480
    eigenvalues: 
  0.843  0.930  0.945
    eigenvectors:
  0.338  0.000  0.662
  0.496  0.251  0.253
  0.166  0.749  0.085
    occupations:
  0.910 -0.042  0.024
 -0.042  0.890  0.023
  0.024  0.023  0.917
atom    6   Tr[ns(na)] =   5.43796
    eigenvalues: 
  0.844  0.930  0.945
    eigenvectors:
  0.338  0.000  0.662
  0.497  0.249  0.254
  0.165  0.751  0.084
    occupations:
  0.911  0.041  0.024
  0.041  0.891 -0.023
  0.024 -0.023  0.917
atom    7   Tr[ns(na)] =   5.43796
    eigenvalues: 
  0.844  0.930  0.945
    eigenvectors:
  0.338  0.000  0.662
  0.000  1.000  0.000
  0.662  0.000  0.338
    occupations:
  0.911  0.000 -0.048
  0.000  0.930  0.000
 -0.048  0.000  0.878
atom    8   Tr[ns(na)] =   5.43763
    eigenvalues: 
  0.844  0.930  0.945
    eigenvectors:
  0.338  0.000  0.662
  0.496  0.251  0.253
  0.166  0.749  0.085
    occupations:
  0.911 -0.041  0.024
 -0.041  0.891  0.023
  0.024  0.023  0.917
atom    9   Tr[ns(na)] =   5.43803
    eigenvalues: 
  0.844  0.930  0.945
    eigenvectors:
  0.338  0.000  0.662
  0.497  0.249  0.254
  0.165  0.751  0.084
    occupations:
  0.911  0.041  0.024
  0.041  0.891 -0.023
  0.024 -0.023  0.917
atom   10   Tr[ns(na)] =   5.43802
    eigenvalues: 
  0.844  0.930  0.945
    eigenvectors:
  0.338  0.000  0.662
  0.000  1.000  0.000
  0.662  0.000  0.338
    occupations:
  0.911  0.000 -0.048
  0.000  0.930  0.000
 -0.048  0.000  0.878
N of occupied +U levels =  56.2843263
 --- exit write_ns ---
 --- in v_hubbard ---
Hubbard energy    0.2040
 -------

     total cpu time spent up to now is      125.2 secs

     total energy              =    -538.13506844 Ry
     Harris-Foulkes estimate   =    -538.13517076 Ry
     estimated scf accuracy    <       0.00745551 Ry

     iteration #  3     ecut=    30.00 Ry     beta=0.20
     Davidson diagonalization with overlap
     ethr =  9.81E-06,  avg # of iterations =  1.0
 --- enter write_ns ---
 LDA+U parameters:
U( 1)     =  2.00000000
alpha( 1) =  0.00000000
U( 2)     =  0.00000000
alpha( 2) =  0.00000000
U( 3)     =  0.00000000
alpha( 3) =  0.05000000
U( 4)     =  0.00000000
alpha( 4) =  0.00000000
atom    1   Tr[ns(na)] =   8.06146
    eigenvalues: 
  0.551  0.552  0.976  0.976  0.977
    eigenvectors:
  0.000  0.000  0.001  0.006  0.993
  0.100  0.555  0.169  0.174  0.002
  0.555  0.101  0.176  0.168  0.001
  0.177  0.167  0.112  0.541  0.003
  0.167  0.177  0.543  0.111  0.002
    occupations:
  0.977  0.000  0.000  0.000  0.000
  0.000  0.698  0.000 -0.073  0.188
  0.000  0.000  0.697  0.188  0.073
  0.000 -0.073  0.188  0.830  0.000
  0.000  0.188  0.073  0.000  0.830
atom    2   Tr[ns(na)] =   8.04810
    eigenvalues: 
  0.548  0.548  0.976  0.976  0.977
    eigenvectors:
  0.000  0.000  0.001  0.011  0.988
  0.236  0.420  0.023  0.319  0.003
  0.420  0.236  0.321  0.022  0.001
  0.318  0.026  0.648  0.008  0.000
  0.026  0.318  0.007  0.641  0.007
    occupations:
  0.977  0.000  0.000  0.000  0.000
  0.000  0.695  0.000  0.073  0.190
  0.000  0.000  0.695  0.190 -0.072
  0.000  0.073  0.190  0.828  0.000
  0.000  0.190 -0.072  0.000  0.829
atom    3   Tr[ns(na)] =   3.79601
    eigenvalues: 
  0.356  0.356  0.382  0.402  0.402
    eigenvectors:
  0.000  0.000  1.000  0.000  0.000
  0.689  0.232  0.000  0.022  0.058
  0.232  0.689  0.000  0.058  0.022
  0.021  0.059  0.000  0.663  0.258
  0.059  0.021  0.000  0.258  0.663
    occupations:
  0.382  0.000  0.000  0.000  0.000
  0.000  0.359  0.000  0.000  0.013
  0.000  0.000  0.359  0.013  0.000
  0.000  0.000  0.013  0.398  0.000
  0.000  0.013  0.000  0.000  0.398
atom    4   Tr[ns(na)] =   3.79602
    eigenvalues: 
  0.356  0.356  0.382  0.402  0.402
    eigenvectors:
  0.000  0.000  1.000  0.000  0.000
  0.210  0.710  0.000  0.019  0.060
  0.711  0.210  0.000  0.060  0.020
  0.061  0.019  0.000  0.688  0.232
  0.019  0.061  0.000  0.232  0.688
    occupations:
  0.382  0.000  0.000  0.000  0.000
  0.000  0.359  0.000  0.000  0.013
  0.000  0.000  0.359  0.013  0.000
  0.000  0.000  0.013  0.398  0.000
  0.000  0.013  0.000  0.000  0.398
atom    5   Tr[ns(na)] =   5.42839
    eigenvalues: 
  0.841  0.929  0.944
    eigenvectors:
  0.339  0.000  0.661
  0.497  0.249  0.254
  0.164  0.751  0.085
    occupations:
  0.909 -0.042  0.024
 -0.042  0.889  0.023
  0.024  0.023  0.916
atom    6   Tr[ns(na)] =   5.43158
    eigenvalues: 
  0.842  0.929  0.945
    eigenvectors:
  0.339  0.000  0.661
  0.495  0.251  0.254
  0.166  0.749  0.085
    occupations:
  0.910  0.042  0.024
  0.042  0.890 -0.023
  0.024 -0.023  0.916
atom    7   Tr[ns(na)] =   5.43158
    eigenvalues: 
  0.842  0.929  0.945
    eigenvectors:
  0.339  0.000  0.661
  0.000  1.000  0.000
  0.661  0.000  0.339
    occupations:
  0.910  0.000 -0.049
  0.000  0.929  0.000
 -0.049  0.000  0.877
atom    8   Tr[ns(na)] =   5.43129
    eigenvalues: 
  0.842  0.929  0.945
    eigenvectors:
  0.339  0.000  0.661
  0.497  0.249  0.254
  0.164  0.751  0.085
    occupations:
  0.910 -0.042  0.024
 -0.042  0.890  0.023
  0.024  0.023  0.916
atom    9   Tr[ns(na)] =   5.43162
    eigenvalues: 
  0.842  0.929  0.945
    eigenvectors:
  0.339  0.000  0.661
  0.495  0.251  0.254
  0.166  0.749  0.085
    occupations:
  0.910  0.042  0.024
  0.042  0.890 -0.023
  0.024 -0.023  0.916
atom   10   Tr[ns(na)] =   5.43162
    eigenvalues: 
  0.842  0.929  0.945
    eigenvectors:
  0.339  0.000  0.661
  0.000  1.000  0.000
  0.661  0.000  0.339
    occupations:
  0.910  0.000 -0.049
  0.000  0.929  0.000
 -0.049  0.000  0.877
N of occupied +U levels =  56.2876506
 --- exit write_ns ---
 --- in v_hubbard ---
Hubbard energy    0.1951
 -------

     total cpu time spent up to now is      153.8 secs

     total energy              =    -538.13574432 Ry
     Harris-Foulkes estimate   =    -538.13524396 Ry
     estimated scf accuracy    <       0.00394125 Ry

     iteration #  4     ecut=    30.00 Ry     beta=0.20
     Davidson diagonalization with overlap
     ethr =  5.19E-06,  avg # of iterations =  1.0
 --- enter write_ns ---
 LDA+U parameters:
U( 1)     =  2.00000000
alpha( 1) =  0.00000000
U( 2)     =  0.00000000
alpha( 2) =  0.00000000
U( 3)     =  0.00000000
alpha( 3) =  0.05000000
U( 4)     =  0.00000000
alpha( 4) =  0.00000000
atom    1   Tr[ns(na)] =   8.00731
    eigenvalues: 
  0.543  0.543  0.972  0.972  0.973
    eigenvectors:
  0.000  0.000  0.018  0.100  0.883
  0.102  0.555  0.209  0.104  0.030
  0.555  0.102  0.128  0.204  0.010
  0.178  0.165  0.058  0.553  0.047
  0.165  0.178  0.588  0.039  0.030
    occupations:
  0.973  0.000  0.000  0.000  0.000
  0.000  0.690  0.000 -0.072  0.191
  0.000  0.000  0.690  0.191  0.072
  0.000 -0.072  0.191  0.825  0.000
  0.000  0.191  0.072  0.000  0.825
atom    2   Tr[ns(na)] =   8.10788
    eigenvalues: 
  0.555  0.556  0.981  0.981  0.982
    eigenvectors:
  0.000  0.000  0.000  0.003  0.996
  0.238  0.419  0.026  0.317  0.001
  0.419  0.238  0.317  0.025  0.000
  0.318  0.025  0.651  0.006  0.000
  0.025  0.318  0.006  0.649  0.002
    occupations:
  0.982  0.000  0.000  0.000  0.000
  0.000  0.701  0.000  0.073  0.188
  0.000  0.000  0.701  0.188 -0.073
  0.000  0.073  0.188  0.835  0.000
  0.000  0.188 -0.073  0.000  0.835
atom    3   Tr[ns(na)] =   3.79673
    eigenvalues: 
  0.356  0.356  0.382  0.402  0.402
    eigenvectors:
  0.000  0.000  1.000  0.000  0.000
  0.692  0.230  0.000  0.008  0.070
  0.230  0.692  0.000  0.070  0.008
  0.020  0.059  0.000  0.820  0.101
  0.059  0.020  0.000  0.101  0.821
    occupations:
  0.382  0.000  0.000  0.000  0.000
  0.000  0.359  0.000  0.000  0.013
  0.000  0.000  0.359  0.013  0.000
  0.000  0.000  0.013  0.399  0.000
  0.000  0.013  0.000  0.000  0.399
atom    4   Tr[ns(na)] =   3.79673
    eigenvalues: 
  0.356  0.356  0.382  0.402  0.402
    eigenvectors:
  0.000  0.000  1.000  0.000  0.000
  0.244  0.677  0.000  0.019  0.060
  0.678  0.243  0.000  0.060  0.019
  0.058  0.021  0.000  0.699  0.223
  0.021  0.058  0.000  0.223  0.698
    occupations:
  0.382  0.000  0.000  0.000  0.000
  0.000  0.359  0.000  0.000  0.013
  0.000  0.000  0.359  0.013  0.000
  0.000  0.000  0.013  0.399  0.000
  0.000  0.013  0.000  0.000  0.399
atom    5   Tr[ns(na)] =   5.42711
    eigenvalues: 
  0.841  0.929  0.944
    eigenvectors:
  0.339  0.000  0.661
  0.490  0.258  0.252
  0.172  0.742  0.087
    occupations:
  0.909 -0.042  0.025
 -0.042  0.889  0.023
  0.025  0.023  0.915
atom    6   Tr[ns(na)] =   5.43020
    eigenvalues: 
  0.841  0.929  0.944
    eigenvectors:
  0.339  0.000  0.661
  0.502  0.242  0.256
  0.159  0.758  0.083
    occupations:
  0.910  0.042  0.024
  0.042  0.889 -0.023
  0.024 -0.023  0.917
atom    7   Tr[ns(na)] =   5.43021
    eigenvalues: 
  0.841  0.929  0.944
    eigenvectors:
  0.339  0.000  0.661
  0.000  1.000  0.000
  0.661  0.000  0.339
    occupations:
  0.910 -0.001 -0.049
 -0.001  0.929 -0.001
 -0.049 -0.001  0.876
atom    8   Tr[ns(na)] =   5.43008
    eigenvalues: 
  0.841  0.929  0.944
    eigenvectors:
  0.339  0.000  0.661
  0.490  0.258  0.252
  0.172  0.742  0.087
    occupations:
  0.910 -0.042  0.025
 -0.042  0.890  0.023
  0.025  0.023  0.915
atom    9   Tr[ns(na)] =   5.43020
    eigenvalues: 
  0.841  0.929  0.944
    eigenvectors:
  0.339  0.000  0.661
  0.502  0.242  0.256
  0.159  0.758  0.083
    occupations:
  0.910  0.042  0.024
  0.042  0.889 -0.023
  0.024 -0.023  0.917
atom   10   Tr[ns(na)] =   5.43019
    eigenvalues: 
  0.841  0.929  0.944
    eigenvectors:
  0.339  0.000  0.661
  0.000  1.000  0.000
  0.661  0.000  0.339
    occupations:
  0.910 -0.001 -0.049
 -0.001  0.929 -0.001
 -0.049 -0.001  0.876
N of occupied +U levels =  56.2866313
 --- exit write_ns ---
 --- in v_hubbard ---
Hubbard energy    0.1851
 -------

     total cpu time spent up to now is      182.6 secs

     total energy              =    -538.13560165 Ry
     Harris-Foulkes estimate   =    -538.13619056 Ry
     estimated scf accuracy    <       0.00701594 Ry

     iteration #  5     ecut=    30.00 Ry     beta=0.20
     Davidson diagonalization with overlap
     ethr =  5.19E-06,  avg # of iterations =  1.0
 --- enter write_ns ---
 LDA+U parameters:
U( 1)     =  2.00000000
alpha( 1) =  0.00000000
U( 2)     =  0.00000000
alpha( 2) =  0.00000000
U( 3)     =  0.00000000
alpha( 3) =  0.05000000
U( 4)     =  0.00000000
alpha( 4) =  0.00000000
atom    1   Tr[ns(na)] =   8.05773
    eigenvalues: 
  0.547  0.548  0.978  0.978  0.978
    eigenvectors:
  0.000  0.000  0.002  0.017  0.981
  0.101  0.557  0.170  0.167  0.005
  0.557  0.101  0.171  0.169  0.001
  0.176  0.166  0.108  0.543  0.007
  0.166  0.176  0.549  0.104  0.005
    occupations:
  0.978  0.000  0.000  0.000  0.000
  0.000  0.695  0.000 -0.073  0.190
  0.000  0.000  0.695  0.190  0.074
  0.000 -0.073  0.190  0.831  0.000
  0.000  0.190  0.074  0.000  0.830
atom    2   Tr[ns(na)] =   8.05577
    eigenvalues: 
  0.546  0.546  0.979  0.979  0.979
    eigenvectors:
  0.000  0.000  0.002  0.021  0.978
  0.237  0.421  0.022  0.314  0.006
  0.421  0.237  0.319  0.021  0.002
  0.316  0.026  0.649  0.009  0.000
  0.026  0.316  0.008  0.636  0.014
    occupations:
  0.979  0.000  0.000  0.000  0.000
  0.000  0.694  0.000  0.074  0.192
  0.000  0.000  0.694  0.192 -0.073
  0.000  0.074  0.192  0.830  0.000
  0.000  0.192 -0.073  0.000  0.831
atom    3   Tr[ns(na)] =   3.79756
    eigenvalues: 
  0.356  0.356  0.382  0.402  0.402
    eigenvectors:
  0.000  0.000  1.000  0.000  0.000
  0.695  0.227  0.000  0.003  0.076
  0.227  0.695  0.000  0.076  0.003
  0.020  0.058  0.000  0.888  0.034
  0.058  0.020  0.000  0.034  0.888
    occupations:
  0.382  0.000  0.000  0.000  0.000
  0.000  0.360  0.000  0.000  0.012
  0.000  0.000  0.360  0.012  0.000
  0.000  0.000  0.012  0.399  0.000
  0.000  0.012  0.000  0.000  0.399
atom    4   Tr[ns(na)] =   3.79755
    eigenvalues: 
  0.356  0.356  0.382  0.402  0.402
    eigenvectors:
  0.000  0.000  1.000  0.000  0.000
  0.242  0.680  0.000  0.020  0.059
  0.680  0.242  0.000  0.059  0.020
  0.057  0.021  0.000  0.684  0.238
  0.021  0.058  0.000  0.238  0.683
    occupations:
  0.382  0.000  0.000  0.000  0.000
  0.000  0.360  0.000  0.000  0.012
  0.000  0.000  0.360  0.012  0.000
  0.000  0.000  0.012  0.399  0.000
  0.000  0.012  0.000  0.000  0.399
atom    5   Tr[ns(na)] =   5.42700
    eigenvalues: 
  0.840  0.929  0.944
    eigenvectors:
  0.339  0.000  0.661
  0.496  0.250  0.253
  0.165  0.750  0.085
    occupations:
  0.909 -0.043  0.025
 -0.043  0.889  0.023
  0.025  0.023  0.916
atom    6   Tr[ns(na)] =   5.43009
    eigenvalues: 
  0.841  0.929  0.944
    eigenvectors:
  0.339  0.000  0.661
  0.496  0.250  0.254
  0.166  0.750  0.085
    occupations:
  0.910  0.042  0.024
  0.042  0.890 -0.023
  0.024 -0.023  0.916
atom    7   Tr[ns(na)] =   5.43010
    eigenvalues: 
  0.841  0.929  0.944
    eigenvectors:
  0.339  0.000  0.661
  0.000  1.000  0.000
  0.661  0.000  0.339
    occupations:
  0.910  0.000 -0.049
  0.000  0.929  0.000
 -0.049  0.000  0.876
atom    8   Tr[ns(na)] =   5.43009
    eigenvalues: 
  0.841  0.929  0.944
    eigenvectors:
  0.338  0.000  0.662
  0.496  0.250  0.253
  0.165  0.750  0.085
    occupations:
  0.910 -0.042  0.024
 -0.042  0.889  0.023
  0.024  0.023  0.916
atom    9   Tr[ns(na)] =   5.43006
    eigenvalues: 
  0.841  0.929  0.944
    eigenvectors:
  0.338  0.000  0.662
  0.496  0.250  0.254
  0.166  0.750  0.084
    occupations:
  0.910  0.042  0.024
  0.042  0.889 -0.023
  0.024 -0.023  0.916
atom   10   Tr[ns(na)] =   5.43005
    eigenvalues: 
  0.841  0.929  0.944
    eigenvectors:
  0.338  0.000  0.662
  0.000  1.000  0.000
  0.662  0.000  0.338
    occupations:
  0.910  0.000 -0.049
  0.000  0.929  0.000
 -0.049  0.000  0.876
N of occupied +U levels =  56.2859920
 --- exit write_ns ---
 --- in v_hubbard ---
Hubbard energy    0.1842
 -------

     total cpu time spent up to now is      211.8 secs

     total energy              =    -538.13601239 Ry
     Harris-Foulkes estimate   =    -538.13597836 Ry
     estimated scf accuracy    <       0.00004735 Ry

     iteration #  6     ecut=    30.00 Ry     beta=0.20
     Davidson diagonalization with overlap
     ethr =  6.23E-08,  avg # of iterations =  2.4
 --- enter write_ns ---
 LDA+U parameters:
U( 1)     =  2.00000000
alpha( 1) =  0.00000000
U( 2)     =  0.00000000
alpha( 2) =  0.00000000
U( 3)     =  0.00000000
alpha( 3) =  0.05000000
U( 4)     =  0.00000000
alpha( 4) =  0.00000000
atom    1   Tr[ns(na)] =   8.05424
    eigenvalues: 
  0.546  0.547  0.978  0.978  0.978
    eigenvectors:
  0.000  0.000  0.001  0.013  0.986
  0.101  0.557  0.168  0.171  0.004
  0.557  0.101  0.174  0.167  0.001
  0.176  0.166  0.112  0.541  0.005
  0.166  0.176  0.545  0.108  0.004
    occupations:
  0.978  0.000  0.000  0.000  0.000
  0.000  0.694  0.000 -0.074  0.191
  0.000  0.000  0.694  0.191  0.074
  0.000 -0.074  0.191  0.830  0.000
  0.000  0.191  0.074  0.000  0.830
atom    2   Tr[ns(na)] =   8.05187
    eigenvalues: 
  0.545  0.545  0.979  0.979  0.979
    eigenvectors:
  0.000  0.000  0.001  0.015  0.983
  0.237  0.421  0.023  0.315  0.004
  0.421  0.237  0.318  0.022  0.002
  0.317  0.026  0.650  0.007  0.000
  0.026  0.317  0.007  0.640  0.011
    occupations:
  0.979  0.000  0.000  0.000  0.000
  0.000  0.693  0.000  0.074  0.192
  0.000  0.000  0.693  0.192 -0.074
  0.000  0.074  0.192  0.830  0.000
  0.000  0.192 -0.074  0.000  0.830
atom    3   Tr[ns(na)] =   3.79721
    eigenvalues: 
  0.356  0.356  0.382  0.402  0.402
    eigenvectors:
  0.000  0.000  1.000  0.000  0.000
  0.691  0.230  0.000  0.018  0.060
  0.230  0.691  0.000  0.061  0.018
  0.020  0.058  0.000  0.705  0.216
  0.058  0.020  0.000  0.216  0.705
    occupations:
  0.382  0.000  0.000  0.000  0.000
  0.000  0.359  0.000  0.000  0.012
  0.000  0.000  0.360  0.012  0.000
  0.000  0.000  0.012  0.399  0.000
  0.000  0.012  0.000  0.000  0.399
atom    4   Tr[ns(na)] =   3.79719
    eigenvalues: 
  0.356  0.356  0.382  0.402  0.402
    eigenvectors:
  0.000  0.000  1.000  0.000  0.000
  0.270  0.651  0.000  0.020  0.058
  0.651  0.270  0.000  0.058  0.020
  0.055  0.024  0.000  0.675  0.246
  0.024  0.055  0.000  0.246  0.675
    occupations:
  0.382  0.000  0.000  0.000  0.000
  0.000  0.360  0.000  0.000  0.012
  0.000  0.000  0.360  0.012  0.000
  0.000  0.000  0.012  0.399  0.000
  0.000  0.012  0.000  0.000  0.399
atom    5   Tr[ns(na)] =   5.42818
    eigenvalues: 
  0.841  0.929  0.944
    eigenvectors:
  0.339  0.000  0.661
  0.496  0.250  0.253
  0.165  0.750  0.085
    occupations:
  0.909 -0.042  0.024
 -0.042  0.889  0.023
  0.024  0.023  0.916
atom    6   Tr[ns(na)] =   5.43130
    eigenvalues: 
  0.842  0.929  0.945
    eigenvectors:
  0.339  0.000  0.661
  0.496  0.250  0.254
  0.166  0.750  0.085
    occupations:
  0.910  0.042  0.024
  0.042  0.890 -0.023
  0.024 -0.023  0.916
atom    7   Tr[ns(na)] =   5.43130
    eigenvalues: 
  0.842  0.929  0.945
    eigenvectors:
  0.339  0.000  0.661
  0.000  1.000  0.000
  0.661  0.000  0.339
    occupations:
  0.910  0.000 -0.049
  0.000  0.929  0.000
 -0.049  0.000  0.876
atom    8   Tr[ns(na)] =   5.43113
    eigenvalues: 
  0.842  0.929  0.945
    eigenvectors:
  0.338  0.000  0.662
  0.496  0.250  0.253
  0.165  0.750  0.085
    occupations:
  0.910 -0.042  0.024
 -0.042  0.890  0.023
  0.024  0.023  0.916
atom    9   Tr[ns(na)] =   5.43132
    eigenvalues: 
  0.842  0.929  0.945
    eigenvectors:
  0.338  0.000  0.662
  0.496  0.250  0.254
  0.166  0.750  0.084
    occupations:
  0.910  0.042  0.024
  0.042  0.890 -0.023
  0.024 -0.023  0.916
atom   10   Tr[ns(na)] =   5.43131
    eigenvalues: 
  0.842  0.929  0.945
    eigenvectors:
  0.338  0.000  0.662
  0.000  1.000  0.000
  0.662  0.000  0.338
    occupations:
  0.910  0.000 -0.049
  0.000  0.929  0.000
 -0.049  0.000  0.876
N of occupied +U levels =  56.2850510
 --- exit write_ns ---
 --- in v_hubbard ---
Hubbard energy    0.1842
 -------

     total cpu time spent up to now is      239.2 secs

     total energy              =    -538.13605262 Ry
     Harris-Foulkes estimate   =    -538.13601978 Ry
     estimated scf accuracy    <       0.00001169 Ry

     iteration #  7     ecut=    30.00 Ry     beta=0.20
     Davidson diagonalization with overlap
     ethr =  1.54E-08,  avg # of iterations =  2.0
 --- enter write_ns ---
 LDA+U parameters:
U( 1)     =  2.00000000
alpha( 1) =  0.00000000
U( 2)     =  0.00000000
alpha( 2) =  0.00000000
U( 3)     =  0.00000000
alpha( 3) =  0.05000000
U( 4)     =  0.00000000
alpha( 4) =  0.00000000
atom    1   Tr[ns(na)] =   8.05275
    eigenvalues: 
  0.546  0.547  0.978  0.978  0.979
    eigenvectors:
  0.000  0.000  0.001  0.008  0.992
  0.101  0.556  0.160  0.181  0.002
  0.556  0.101  0.183  0.160  0.001
  0.176  0.167  0.124  0.530  0.003
  0.167  0.176  0.532  0.122  0.002
    occupations:
  0.979  0.000  0.000  0.000  0.000
  0.000  0.694  0.000 -0.074  0.191
  0.000  0.000  0.694  0.191  0.074
  0.000 -0.074  0.191  0.830  0.000
  0.000  0.191  0.074  0.000  0.830
atom    2   Tr[ns(na)] =   8.05290
    eigenvalues: 
  0.545  0.545  0.979  0.979  0.980
    eigenvectors:
  0.000  0.000  0.001  0.008  0.991
  0.236  0.421  0.027  0.313  0.002
  0.421  0.236  0.315  0.027  0.001
  0.317  0.026  0.652  0.004  0.000
  0.026  0.317  0.004  0.648  0.005
    occupations:
  0.980  0.000  0.000  0.000  0.000
  0.000  0.694  0.000  0.074  0.192
  0.000  0.000  0.694  0.192 -0.074
  0.000  0.074  0.192  0.830  0.000
  0.000  0.192 -0.074  0.000  0.830
atom    3   Tr[ns(na)] =   3.79639
    eigenvalues: 
  0.356  0.356  0.382  0.402  0.402
    eigenvectors:
  0.000  0.000  1.000  0.000  0.000
  0.689  0.232  0.000  0.017  0.062
  0.232  0.689  0.000  0.062  0.017
  0.020  0.058  0.000  0.719  0.203
  0.058  0.020  0.000  0.203  0.719
    occupations:
  0.382  0.000  0.000  0.000  0.000
  0.000  0.359  0.000  0.000  0.012
  0.000  0.000  0.359  0.012  0.000
  0.000  0.000  0.012  0.399  0.000
  0.000  0.012  0.000  0.000  0.399
atom    4   Tr[ns(na)] =   3.79638
    eigenvalues: 
  0.356  0.356  0.382  0.402  0.402
    eigenvectors:
  0.000  0.000  1.000  0.000  0.000
  0.287  0.634  0.000  0.020  0.059
  0.635  0.287  0.000  0.059  0.020
  0.053  0.025  0.000  0.683  0.238
  0.025  0.054  0.000  0.238  0.683
    occupations:
  0.382  0.000  0.000  0.000  0.000
  0.000  0.359  0.000  0.000  0.013
  0.000  0.000  0.359  0.012  0.000
  0.000  0.000  0.012  0.398  0.000
  0.000  0.013  0.000  0.000  0.398
atom    5   Tr[ns(na)] =   5.42838
    eigenvalues: 
  0.841  0.929  0.944
    eigenvectors:
  0.339  0.000  0.661
  0.496  0.250  0.254
  0.165  0.750  0.085
    occupations:
  0.909 -0.042  0.025
 -0.042  0.889  0.023
  0.025  0.023  0.916
atom    6   Tr[ns(na)] =   5.43158
    eigenvalues: 
  0.842  0.929  0.945
    eigenvectors:
  0.339  0.000  0.661
  0.496  0.250  0.254
  0.166  0.750  0.085
    occupations:
  0.910  0.042  0.024
  0.042  0.890 -0.023
  0.024 -0.023  0.916
atom    7   Tr[ns(na)] =   5.43158
    eigenvalues: 
  0.842  0.929  0.945
    eigenvectors:
  0.339  0.000  0.661
  0.000  1.000  0.000
  0.661  0.000  0.339
    occupations:
  0.910  0.000 -0.049
  0.000  0.929  0.000
 -0.049  0.000  0.877
atom    8   Tr[ns(na)] =   5.43132
    eigenvalues: 
  0.842  0.929  0.945
    eigenvectors:
  0.339  0.000  0.661
  0.496  0.250  0.253
  0.165  0.750  0.085
    occupations:
  0.910 -0.042  0.024
 -0.042  0.890  0.023
  0.024  0.023  0.916
atom    9   Tr[ns(na)] =   5.43161
    eigenvalues: 
  0.842  0.929  0.945
    eigenvectors:
  0.339  0.000  0.661
  0.496  0.250  0.254
  0.165  0.750  0.084
    occupations:
  0.910  0.042  0.024
  0.042  0.890 -0.023
  0.024 -0.023  0.916
atom   10   Tr[ns(na)] =   5.43162
    eigenvalues: 
  0.842  0.929  0.945
    eigenvectors:
  0.339  0.000  0.661
  0.000  1.000  0.000
  0.661  0.000  0.339
    occupations:
  0.910  0.000 -0.049
  0.000  0.929  0.000
 -0.049  0.000  0.877
N of occupied +U levels =  56.2844958
 --- exit write_ns ---
 --- in v_hubbard ---
Hubbard energy    0.1842
 -------

     total cpu time spent up to now is      266.4 secs

     total energy              =    -538.13608249 Ry
     Harris-Foulkes estimate   =    -538.13605444 Ry
     estimated scf accuracy    <       0.00000272 Ry

     iteration #  8     ecut=    30.00 Ry     beta=0.20
     Davidson diagonalization with overlap
     ethr =  3.58E-09,  avg # of iterations =  1.6
 --- enter write_ns ---
 LDA+U parameters:
U( 1)     =  2.00000000
alpha( 1) =  0.00000000
U( 2)     =  0.00000000
alpha( 2) =  0.00000000
U( 3)     =  0.00000000
alpha( 3) =  0.05000000
U( 4)     =  0.00000000
alpha( 4) =  0.00000000
atom    1   Tr[ns(na)] =   8.05431
    eigenvalues: 
  0.546  0.547  0.978  0.978  0.979
    eigenvectors:
  0.000  0.000  0.001  0.007  0.992
  0.101  0.556  0.161  0.180  0.002
  0.556  0.101  0.182  0.160  0.001
  0.176  0.167  0.123  0.531  0.003
  0.167  0.176  0.534  0.121  0.002
    occupations:
  0.979  0.000  0.000  0.000  0.000
  0.000  0.695  0.000 -0.074  0.191
  0.000  0.000  0.694  0.191  0.074
  0.000 -0.074  0.191  0.830  0.000
  0.000  0.191  0.074  0.000  0.830
atom    2   Tr[ns(na)] =   8.05230
    eigenvalues: 
  0.545  0.545  0.979  0.979  0.980
    eigenvectors:
  0.000  0.000  0.001  0.008  0.991
  0.236  0.421  0.027  0.313  0.002
  0.421  0.236  0.316  0.027  0.001
  0.317  0.026  0.652  0.004  0.000
  0.026  0.317  0.004  0.647  0.005
    occupations:
  0.980  0.000  0.000  0.000  0.000
  0.000  0.694  0.000  0.074  0.192
  0.000  0.000  0.693  0.192 -0.074
  0.000  0.074  0.192  0.830  0.000
  0.000  0.192 -0.074  0.000  0.830
atom    3   Tr[ns(na)] =   3.79655
    eigenvalues: 
  0.356  0.356  0.382  0.402  0.402
    eigenvectors:
  0.000  0.000  1.000  0.000  0.000
  0.691  0.231  0.000  0.013  0.066
  0.231  0.691  0.000  0.066  0.013
  0.020  0.058  0.000  0.766  0.155
  0.058  0.020  0.000  0.155  0.766
    occupations:
  0.382  0.000  0.000  0.000  0.000
  0.000  0.359  0.000  0.000  0.012
  0.000  0.000  0.359  0.012  0.000
  0.000  0.000  0.012  0.399  0.000
  0.000  0.012  0.000  0.000  0.399
atom    4   Tr[ns(na)] =   3.79653
    eigenvalues: 
  0.356  0.356  0.382  0.402  0.402
    eigenvectors:
  0.000  0.000  1.000  0.000  0.000
  0.286  0.635  0.000  0.020  0.059
  0.636  0.286  0.000  0.059  0.020
  0.054  0.025  0.000  0.684  0.237
  0.025  0.054  0.000  0.237  0.684
    occupations:
  0.382  0.000  0.000  0.000  0.000
  0.000  0.359  0.000  0.000  0.012
  0.000  0.000  0.359  0.012  0.000
  0.000  0.000  0.012  0.398  0.000
  0.000  0.012  0.000  0.000  0.398
atom    5   Tr[ns(na)] =   5.42824
    eigenvalues: 
  0.841  0.929  0.944
    eigenvectors:
  0.339  0.000  0.661
  0.496  0.250  0.254
  0.165  0.750  0.085
    occupations:
  0.909 -0.042  0.025
 -0.042  0.889  0.023
  0.025  0.023  0.916
atom    6   Tr[ns(na)] =   5.43138
    eigenvalues: 
  0.842  0.929  0.945
    eigenvectors:
  0.339  0.000  0.661
  0.496  0.250  0.254
  0.166  0.750  0.085
    occupations:
  0.910  0.042  0.024
  0.042  0.890 -0.023
  0.024 -0.023  0.916
atom    7   Tr[ns(na)] =   5.43138
    eigenvalues: 
  0.842  0.929  0.945
    eigenvectors:
  0.339  0.000  0.661
  0.000  1.000  0.000
  0.661  0.000  0.339
    occupations:
  0.910  0.000 -0.049
  0.000  0.929  0.000
 -0.049  0.000  0.877
atom    8   Tr[ns(na)] =   5.43119
    eigenvalues: 
  0.842  0.929  0.945
    eigenvectors:
  0.339  0.000  0.661
  0.496  0.250  0.253
  0.165  0.750  0.085
    occupations:
  0.910 -0.042  0.024
 -0.042  0.890  0.023
  0.024  0.023  0.916
atom    9   Tr[ns(na)] =   5.43140
    eigenvalues: 
  0.842  0.929  0.945
    eigenvectors:
  0.339  0.000  0.661
  0.496  0.250  0.254
  0.165  0.750  0.084
    occupations:
  0.910  0.042  0.024
  0.042  0.890 -0.023
  0.024 -0.023  0.916
atom   10   Tr[ns(na)] =   5.43140
    eigenvalues: 
  0.842  0.929  0.945
    eigenvectors:
  0.339  0.000  0.661
  0.000  1.000  0.000
  0.661  0.000  0.339
    occupations:
  0.910  0.000 -0.049
  0.000  0.929  0.000
 -0.049  0.000  0.877
N of occupied +U levels =  56.2846709
 --- exit write_ns ---
 --- in v_hubbard ---
Hubbard energy    0.1843
 -------

     total cpu time spent up to now is      292.3 secs

     total energy              =    -538.13610072 Ry
     Harris-Foulkes estimate   =    -538.13608279 Ry
     estimated scf accuracy    <       0.00000051 Ry

     iteration #  9     ecut=    30.00 Ry     beta=0.20
     Davidson diagonalization with overlap
     ethr =  6.71E-10,  avg # of iterations =  2.0
 --- enter write_ns ---
 LDA+U parameters:
U( 1)     =  2.00000000
alpha( 1) =  0.00000000
U( 2)     =  0.00000000
alpha( 2) =  0.00000000
U( 3)     =  0.00000000
alpha( 3) =  0.05000000
U( 4)     =  0.00000000
alpha( 4) =  0.00000000
atom    1   Tr[ns(na)] =   8.05375
    eigenvalues: 
  0.546  0.547  0.978  0.978  0.979
    eigenvectors:
  0.000  0.000  0.001  0.007  0.992
  0.101  0.556  0.162  0.179  0.002
  0.556  0.101  0.181  0.161  0.001
  0.176  0.167  0.121  0.533  0.003
  0.167  0.176  0.535  0.119  0.002
    occupations:
  0.979  0.000  0.000  0.000  0.000
  0.000  0.694  0.000 -0.074  0.191
  0.000  0.000  0.694  0.191  0.074
  0.000 -0.074  0.191  0.830  0.000
  0.000  0.191  0.074  0.000  0.830
atom    2   Tr[ns(na)] =   8.05261
    eigenvalues: 
  0.545  0.545  0.979  0.979  0.980
    eigenvectors:
  0.000  0.000  0.001  0.008  0.992
  0.237  0.421  0.027  0.314  0.002
  0.421  0.236  0.316  0.026  0.001
  0.317  0.026  0.652  0.005  0.000
  0.026  0.317  0.005  0.647  0.005
    occupations:
  0.980  0.000  0.000  0.000  0.000
  0.000  0.694  0.000  0.074  0.192
  0.000  0.000  0.694  0.192 -0.074
  0.000  0.074  0.192  0.830  0.000
  0.000  0.192 -0.074  0.000  0.830
atom    3   Tr[ns(na)] =   3.79665
    eigenvalues: 
  0.356  0.356  0.382  0.402  0.402
    eigenvectors:
  0.000  0.000  1.000  0.000  0.000
  0.691  0.231  0.000  0.008  0.070
  0.231  0.691  0.000  0.070  0.008
  0.020  0.058  0.000  0.818  0.103
  0.058  0.020  0.000  0.103  0.818
    occupations:
  0.382  0.000  0.000  0.000  0.000
  0.000  0.359  0.000  0.000  0.012
  0.000  0.000  0.359  0.012  0.000
  0.000  0.000  0.012  0.399  0.000
  0.000  0.012  0.000  0.000  0.399
atom    4   Tr[ns(na)] =   3.79664
    eigenvalues: 
  0.356  0.356  0.382  0.402  0.402
    eigenvectors:
  0.000  0.000  1.000  0.000  0.000
  0.318  0.603  0.000  0.019  0.059
  0.603  0.318  0.000  0.059  0.020
  0.051  0.028  0.000  0.686  0.235
  0.028  0.051  0.000  0.236  0.685
    occupations:
  0.382  0.000  0.000  0.000  0.000
  0.000  0.359  0.000  0.000  0.012
  0.000  0.000  0.359  0.012  0.000
  0.000  0.000  0.012  0.398  0.000
  0.000  0.012  0.000  0.000  0.398
atom    5   Tr[ns(na)] =   5.42825
    eigenvalues: 
  0.841  0.929  0.944
    eigenvectors:
  0.339  0.000  0.661
  0.496  0.250  0.254
  0.165  0.750  0.085
    occupations:
  0.909 -0.042  0.025
 -0.042  0.889  0.023
  0.025  0.023  0.916
atom    6   Tr[ns(na)] =   5.43139
    eigenvalues: 
  0.842  0.929  0.945
    eigenvectors:
  0.339  0.000  0.661
  0.496  0.250  0.254
  0.166  0.750  0.085
    occupations:
  0.910  0.042  0.024
  0.042  0.890 -0.023
  0.024 -0.023  0.916
atom    7   Tr[ns(na)] =   5.43139
    eigenvalues: 
  0.842  0.929  0.945
    eigenvectors:
  0.339  0.000  0.661
  0.000  1.000  0.000
  0.661  0.000  0.339
    occupations:
  0.910  0.000 -0.049
  0.000  0.929  0.000
 -0.049  0.000  0.877
atom    8   Tr[ns(na)] =   5.43120
    eigenvalues: 
  0.842  0.929  0.945
    eigenvectors:
  0.339  0.000  0.661
  0.496  0.250  0.253
  0.165  0.750  0.085
    occupations:
  0.910 -0.042  0.024
 -0.042  0.890  0.023
  0.024  0.023  0.916
atom    9   Tr[ns(na)] =   5.43141
    eigenvalues: 
  0.842  0.929  0.945
    eigenvectors:
  0.339  0.000  0.661
  0.496  0.250  0.254
  0.165  0.750  0.084
    occupations:
  0.910  0.042  0.024
  0.042  0.890 -0.023
  0.024 -0.023  0.916
atom   10   Tr[ns(na)] =   5.43141
    eigenvalues: 
  0.842  0.929  0.945
    eigenvectors:
  0.339  0.000  0.661
  0.000  1.000  0.000
  0.661  0.000  0.339
    occupations:
  0.910  0.000 -0.049
  0.000  0.929  0.000
 -0.049  0.000  0.877
N of occupied +U levels =  56.2846999
 --- exit write_ns ---
 --- in v_hubbard ---
Hubbard energy    0.1843
 -------

     total cpu time spent up to now is      323.8 secs

     total energy              =    -538.13611250 Ry
     Harris-Foulkes estimate   =    -538.13610080 Ry
     estimated scf accuracy    <       0.00000008 Ry

     iteration # 10     ecut=    30.00 Ry     beta=0.20
     Davidson diagonalization with overlap
     ethr =  1.08E-10,  avg # of iterations =  2.0
 --- enter write_ns ---
 LDA+U parameters:
U( 1)     =  2.00000000
alpha( 1) =  0.00000000
U( 2)     =  0.00000000
alpha( 2) =  0.00000000
U( 3)     =  0.00000000
alpha( 3) =  0.05000000
U( 4)     =  0.00000000
alpha( 4) =  0.00000000
atom    1   Tr[ns(na)] =   8.05399
    eigenvalues: 
  0.546  0.547  0.978  0.978  0.979
    eigenvectors:
  0.000  0.000  0.001  0.008  0.992
  0.101  0.556  0.163  0.178  0.002
  0.556  0.101  0.180  0.162  0.001
  0.176  0.167  0.120  0.534  0.003
  0.167  0.176  0.536  0.118  0.002
    occupations:
  0.979  0.000  0.000  0.000  0.000
  0.000  0.695  0.000 -0.074  0.191
  0.000  0.000  0.694  0.191  0.074
  0.000 -0.074  0.191  0.830  0.000
  0.000  0.191  0.074  0.000  0.830
atom    2   Tr[ns(na)] =   8.05267
    eigenvalues: 
  0.545  0.545  0.979  0.979  0.980
    eigenvectors:
  0.000  0.000  0.001  0.008  0.991
  0.237  0.421  0.026  0.314  0.002
  0.421  0.236  0.316  0.026  0.001
  0.317  0.026  0.652  0.005  0.000
  0.026  0.317  0.005  0.647  0.006
    occupations:
  0.980  0.000  0.000  0.000  0.000
  0.000  0.694  0.000  0.074  0.192
  0.000  0.000  0.694  0.192 -0.074
  0.000  0.074  0.192  0.830  0.000
  0.000  0.192 -0.074  0.000  0.830
atom    3   Tr[ns(na)] =   3.79663
    eigenvalues: 
  0.356  0.356  0.382  0.402  0.402
    eigenvectors:
  0.000  0.000  1.000  0.000  0.000
  0.691  0.231  0.000  0.010  0.069
  0.231  0.691  0.000  0.069  0.010
  0.020  0.058  0.000  0.801  0.121
  0.058  0.020  0.000  0.121  0.801
    occupations:
  0.382  0.000  0.000  0.000  0.000
  0.000  0.359  0.000  0.000  0.012
  0.000  0.000  0.359  0.012  0.000
  0.000  0.000  0.012  0.399  0.000
  0.000  0.012  0.000  0.000  0.399
atom    4   Tr[ns(na)] =   3.79662
    eigenvalues: 
  0.356  0.356  0.382  0.402  0.402
    eigenvectors:
  0.000  0.000  1.000  0.000  0.000
  0.314  0.607  0.000  0.019  0.060
  0.608  0.314  0.000  0.059  0.020
  0.051  0.028  0.000  0.687  0.235
  0.027  0.051  0.000  0.235  0.686
    occupations:
  0.382  0.000  0.000  0.000  0.000
  0.000  0.359  0.000  0.000  0.012
  0.000  0.000  0.359  0.012  0.000
  0.000  0.000  0.012  0.398  0.000
  0.000  0.012  0.000  0.000  0.398
atom    5   Tr[ns(na)] =   5.42819
    eigenvalues: 
  0.841  0.929  0.944
    eigenvectors:
  0.339  0.000  0.661
  0.496  0.250  0.254
  0.165  0.750  0.085
    occupations:
  0.909 -0.042  0.025
 -0.042  0.889  0.023
  0.025  0.023  0.916
atom    6   Tr[ns(na)] =   5.43135
    eigenvalues: 
  0.842  0.929  0.945
    eigenvectors:
  0.339  0.000  0.661
  0.496  0.250  0.254
  0.166  0.750  0.085
    occupations:
  0.910  0.042  0.024
  0.042  0.890 -0.023
  0.024 -0.023  0.916
atom    7   Tr[ns(na)] =   5.43135
    eigenvalues: 
  0.842  0.929  0.945
    eigenvectors:
  0.339  0.000  0.661
  0.000  1.000  0.000
  0.661  0.000  0.339
    occupations:
  0.910  0.000 -0.049
  0.000  0.929  0.000
 -0.049  0.000  0.877
atom    8   Tr[ns(na)] =   5.43115
    eigenvalues: 
  0.842  0.929  0.945
    eigenvectors:
  0.339  0.000  0.661
  0.496  0.250  0.253
  0.165  0.750  0.085
    occupations:
  0.910 -0.042  0.024
 -0.042  0.890  0.023
  0.024  0.023  0.916
atom    9   Tr[ns(na)] =   5.43137
    eigenvalues: 
  0.842  0.929  0.945
    eigenvectors:
  0.339  0.000  0.661
  0.496  0.250  0.254
  0.165  0.750  0.084
    occupations:
  0.910  0.042  0.024
  0.042  0.890 -0.023
  0.024 -0.023  0.916
atom   10   Tr[ns(na)] =   5.43137
    eigenvalues: 
  0.842  0.929  0.945
    eigenvectors:
  0.339  0.000  0.661
  0.000  1.000  0.000
  0.661  0.000  0.339
    occupations:
  0.910  0.000 -0.049
  0.000  0.929  0.000
 -0.049  0.000  0.877
N of occupied +U levels =  56.2846988
 --- exit write_ns ---
 --- in v_hubbard ---
Hubbard energy    0.1843
 -------

     total cpu time spent up to now is      356.0 secs

     total energy              =    -538.13612005 Ry
     Harris-Foulkes estimate   =    -538.13611251 Ry
     estimated scf accuracy    <       0.00000002 Ry

     iteration # 11     ecut=    30.00 Ry     beta=0.20
     Davidson diagonalization with overlap
     ethr =  2.67E-11,  avg # of iterations =  2.0
 --- enter write_ns ---
 LDA+U parameters:
U( 1)     =  2.00000000
alpha( 1) =  0.00000000
U( 2)     =  0.00000000
alpha( 2) =  0.00000000
U( 3)     =  0.00000000
alpha( 3) =  0.05000000
U( 4)     =  0.00000000
alpha( 4) =  0.00000000
atom    1   Tr[ns(na)] =   8.05393
    eigenvalues: 
  0.546  0.547  0.978  0.978  0.979
    eigenvectors:
  0.000  0.000  0.001  0.008  0.992
  0.101  0.556  0.162  0.178  0.002
  0.556  0.101  0.180  0.162  0.001
  0.176  0.167  0.121  0.534  0.003
  0.167  0.176  0.536  0.119  0.002
    occupations:
  0.979  0.000  0.000  0.000  0.000
  0.000  0.695  0.000 -0.074  0.191
  0.000  0.000  0.694  0.191  0.074
  0.000 -0.074  0.191  0.830  0.000
  0.000  0.191  0.074  0.000  0.830
atom    2   Tr[ns(na)] =   8.05255
    eigenvalues: 
  0.545  0.545  0.979  0.979  0.980
    eigenvectors:
  0.000  0.000  0.001  0.008  0.991
  0.237  0.421  0.026  0.314  0.002
  0.421  0.236  0.316  0.026  0.001
  0.317  0.026  0.652  0.005  0.000
  0.026  0.317  0.005  0.647  0.006
    occupations:
  0.980  0.000  0.000  0.000  0.000
  0.000  0.694  0.000  0.074  0.192
  0.000  0.000  0.693  0.192 -0.074
  0.000  0.074  0.192  0.830  0.000
  0.000  0.192 -0.074  0.000  0.830
atom    3   Tr[ns(na)] =   3.79661
    eigenvalues: 
  0.356  0.356  0.382  0.402  0.402
    eigenvectors:
  0.000  0.000  1.000  0.000  0.000
  0.691  0.231  0.000  0.009  0.069
  0.231  0.691  0.000  0.069  0.009
  0.020  0.058  0.000  0.805  0.116
  0.058  0.020  0.000  0.116  0.805
    occupations:
  0.382  0.000  0.000  0.000  0.000
  0.000  0.359  0.000  0.000  0.012
  0.000  0.000  0.359  0.012  0.000
  0.000  0.000  0.012  0.399  0.000
  0.000  0.012  0.000  0.000  0.399
atom    4   Tr[ns(na)] =   3.79660
    eigenvalues: 
  0.356  0.356  0.382  0.402  0.402
    eigenvectors:
  0.000  0.000  1.000  0.000  0.000
  0.306  0.615  0.000  0.019  0.060
  0.616  0.306  0.000  0.059  0.019
  0.052  0.027  0.000  0.687  0.234
  0.027  0.052  0.000  0.234  0.687
    occupations:
  0.382  0.000  0.000  0.000  0.000
  0.000  0.359  0.000  0.000  0.012
  0.000  0.000  0.359  0.012  0.000
  0.000  0.000  0.012  0.398  0.000
  0.000  0.012  0.000  0.000  0.398
atom    5   Tr[ns(na)] =   5.42823
    eigenvalues: 
  0.841  0.929  0.944
    eigenvectors:
  0.339  0.000  0.661
  0.496  0.250  0.254
  0.165  0.750  0.085
    occupations:
  0.909 -0.042  0.025
 -0.042  0.889  0.023
  0.025  0.023  0.916
atom    6   Tr[ns(na)] =   5.43138
    eigenvalues: 
  0.842  0.929  0.945
    eigenvectors:
  0.339  0.000  0.661
  0.496  0.250  0.254
  0.166  0.750  0.085
    occupations:
  0.910  0.042  0.024
  0.042  0.890 -0.023
  0.024 -0.023  0.916
atom    7   Tr[ns(na)] =   5.43138
    eigenvalues: 
  0.842  0.929  0.945
    eigenvectors:
  0.339  0.000  0.661
  0.000  1.000  0.000
  0.661  0.000  0.339
    occupations:
  0.910  0.000 -0.049
  0.000  0.929  0.000
 -0.049  0.000  0.877
atom    8   Tr[ns(na)] =   5.43118
    eigenvalues: 
  0.842  0.929  0.945
    eigenvectors:
  0.339  0.000  0.661
  0.496  0.250  0.253
  0.165  0.750  0.085
    occupations:
  0.910 -0.042  0.024
 -0.042  0.890  0.023
  0.024  0.023  0.916
atom    9   Tr[ns(na)] =   5.43140
    eigenvalues: 
  0.842  0.929  0.945
    eigenvectors:
  0.339  0.000  0.661
  0.496  0.250  0.254
  0.165  0.750  0.084
    occupations:
  0.910  0.042  0.024
  0.042  0.890 -0.023
  0.024 -0.023  0.916
atom   10   Tr[ns(na)] =   5.43140
    eigenvalues: 
  0.842  0.929  0.945
    eigenvectors:
  0.339  0.000  0.661
  0.000  1.000  0.000
  0.661  0.000  0.339
    occupations:
  0.910  0.000 -0.049
  0.000  0.929  0.000
 -0.049  0.000  0.877
N of occupied +U levels =  56.2846673
 --- exit write_ns ---
 --- in v_hubbard ---
Hubbard energy    0.1843
 -------

     total cpu time spent up to now is      389.3 secs

     End of self-consistent calculation

          k = 0.0000 0.0000 0.0000 (  2175 PWs)   bands (ev):

   -19.7983 -19.6249  -6.5510  -5.8473  -5.8376  -5.8276  -5.8231  -5.4866
    -3.7912  -3.2604  -3.2216  -3.2208  -3.0251  -3.0248   5.1974   6.8660
     6.8701   7.4309   7.4333   7.4784   7.5198   7.5254   7.7186   9.2980
     9.5098   9.6207   9.6252   9.6953   9.6962  10.1107  10.1121  10.3594
    10.4619  10.4634  10.6775  11.2952  11.2964  11.7667  12.0613  12.0625
    14.7616  14.7629  15.4256  15.4264  16.1967  16.7836

     occupation numbers 
     0.0313   0.0313   0.0313   0.0313   0.0313   0.0313   0.0313   0.0313
     0.0313   0.0313   0.0313   0.0313   0.0313   0.0313   0.0313   0.0313
     0.0313   0.0313   0.0313   0.0313   0.0313   0.0313   0.0313   0.0313
     0.0312   0.0312   0.0312   0.0312   0.0312   0.0312   0.0312   0.0312
     0.0312   0.0312   0.0312   0.0306   0.0306   0.0204   0.0083   0.0083
     0.0000   0.0000   0.0000   0.0000   0.0000   0.0000

          k =-0.2471-0.1427 0.1027 (  2181 PWs)   bands (ev):

   -19.7713 -19.6541  -6.7294  -6.2933  -5.9476  -5.8526  -5.6156  -5.4835
    -3.5969  -3.3932  -2.9339  -2.9053  -2.8515  -2.7610   5.5555   6.8662
     6.9672   6.9864   7.0284   7.4094   7.4439   7.5277   7.6275   8.4370
     8.4851   9.0753   9.6418   9.7532   9.7781  10.0040  10.3492  10.3591
    10.5354  10.5361  10.6655  11.4522  11.5193  11.5589  12.3209  12.3892
    14.3073  14.3156  15.8144  16.0679  16.9712  17.2650

     occupation numbers 
     0.0625   0.0625   0.0625   0.0625   0.0625   0.0625   0.0625   0.0625
     0.0625   0.0625   0.0625   0.0625   0.0625   0.0625   0.0625   0.0625
     0.0625   0.0625   0.0625   0.0625   0.0625   0.0625   0.0625   0.0625
     0.0625   0.0625   0.0625   0.0625   0.0625   0.0625   0.0625   0.0625
     0.0625   0.0625   0.0625   0.0582   0.0559   0.0542   0.0040   0.0024
     0.0000   0.0000   0.0000   0.0000   0.0000   0.0000

          k = 0.4942 0.2853-0.2053 (  2202 PWs)   bands (ev):

   -19.7143 -19.7137  -6.7302  -6.7150  -5.9674  -5.9588  -5.5279  -5.5220
    -3.3838  -3.3797  -2.7914  -2.7908  -2.5089  -2.5060   6.0375   6.0483
     7.1432   7.1598   7.2161   7.2367   7.4961   7.5169   7.6957   7.7228
     7.9098   7.9389   9.4781   9.4839   9.8659   9.8739  10.2743  10.2844
    10.9250  10.9376  11.0509  11.0633  11.2740  11.2885  13.2890  13.3236
    13.3739  13.4071  16.8320  16.8358  17.1297  17.1328

     occupation numbers 
     0.0313   0.0313   0.0313   0.0313   0.0313   0.0313   0.0313   0.0313
     0.0313   0.0313   0.0313   0.0313   0.0313   0.0313   0.0313   0.0313
     0.0313   0.0313   0.0313   0.0313   0.0313   0.0313   0.0313   0.0313
     0.0313   0.0313   0.0313   0.0313   0.0312   0.0312   0.0312   0.0312
     0.0312   0.0312   0.0312   0.0312   0.0307   0.0306   0.0000   0.0000
     0.0000   0.0000   0.0000   0.0000   0.0000   0.0000

          k =-0.2471 0.1427 0.2053 (  2195 PWs)   bands (ev):

   -19.7656 -19.6606  -6.8521  -6.2354  -6.0666  -5.8407  -5.6628  -5.4613
    -3.4149  -3.2625  -3.1023  -2.8926  -2.8186  -2.5604   5.5814   6.7634
     6.7934   6.8642   7.2147   7.4523   7.4857   7.5210   7.5633   8.5377
     8.5995   8.7886   9.2857   9.6388   9.9320  10.0383  10.0403  10.1482
    10.2739  10.9876  11.1243  11.1392  11.4741  11.5505  11.9649  12.7330
    13.6325  14.7781  15.9907  16.1922  17.0337  17.5363

     occupation numbers 
     0.0625   0.0625   0.0625   0.0625   0.0625   0.0625   0.0625   0.0625
     0.0625   0.0625   0.0625   0.0625   0.0625   0.0625   0.0625   0.0625
     0.0625   0.0625   0.0625   0.0625   0.0625   0.0625   0.0625   0.0625
     0.0625   0.0625   0.0625   0.0625   0.0625   0.0625   0.0625   0.0625
     0.0625   0.0624   0.0622   0.0622   0.0575   0.0546   0.0241   0.0001
     0.0000   0.0000   0.0000   0.0000   0.0000   0.0000

          k = 0.4942 0.5706-0.1027 (  2198 PWs)   bands (ev):

   -19.7298 -19.6985  -6.9539  -6.6489  -6.1281  -5.9009  -5.5189  -5.3838
    -3.3047  -3.2531  -2.8775  -2.7078  -2.5279  -2.3848   5.8833   6.2328
     6.5850   6.9575   7.1680   7.3189   7.4302   7.6236   7.6646   7.8405
     8.1605   8.7623   9.0344   9.2944   9.6024   9.8027   9.9142  10.3438
    10.5785  11.0492  11.1571  11.2317  11.3670  11.4444  12.3121  12.7371
    13.4253  14.3557  16.9024  17.1121  17.3071  18.0132

     occupation numbers 
     0.0625   0.0625   0.0625   0.0625   0.0625   0.0625   0.0625   0.0625
     0.0625   0.0625   0.0625   0.0625   0.0625   0.0625   0.0625   0.0625
     0.0625   0.0625   0.0625   0.0625   0.0625   0.0625   0.0625   0.0625
     0.0625   0.0625   0.0625   0.0625   0.0625   0.0625   0.0625   0.0625
     0.0625   0.0624   0.0621   0.0617   0.0601   0.0584   0.0042   0.0001
     0.0000   0.0000   0.0000   0.0000   0.0000   0.0000

          k = 0.2471 0.4280 0.0000 (  2203 PWs)   bands (ev):

   -19.7402 -19.6872  -6.8505  -6.6377  -6.0597  -5.9785  -5.4393  -5.3751
    -3.5187  -3.2930  -2.8004  -2.7111  -2.5701  -2.5595   5.8818   6.2664
     6.8331   7.0680   7.1570   7.2432   7.4159   7.4836   7.5564   7.9189
     8.1528   8.9248   9.1336   9.4029   9.7576   9.7757  10.0568  10.3502
    10.8885  10.9181  10.9963  11.1815  11.2102  11.5407  12.2348  13.3173
    13.3920  14.1525  16.4338  16.9900  17.4181  17.9242

     occupation numbers 
     0.0625   0.0625   0.0625   0.0625   0.0625   0.0625   0.0625   0.0625
     0.0625   0.0625   0.0625   0.0625   0.0625   0.0625   0.0625   0.0625
     0.0625   0.0625   0.0625   0.0625   0.0625   0.0625   0.0625   0.0625
     0.0625   0.0625   0.0625   0.0625   0.0625   0.0625   0.0625   0.0625
     0.0625   0.0625   0.0624   0.0620   0.0619   0.0550   0.0069   0.0000
     0.0000   0.0000   0.0000   0.0000   0.0000   0.0000

          k = 0.4942-0.2853-0.4107 (  2202 PWs)   bands (ev):

   -19.7325 -19.6960  -7.1646  -6.4538  -6.2368  -5.9783  -5.5391  -5.2911
    -3.1935  -3.1202  -3.0446  -2.6490  -2.4804  -2.2220   5.7888   6.1025
     6.2476   6.8559   7.1499   7.2583   7.5555   7.6540   8.1643   8.2420
     8.2524   8.3223   8.6001   9.4246   9.6795   9.8562  10.0351  10.0678
    10.4274  10.9418  11.1107  11.2688  11.4017  11.5745  11.8941  12.4242
    13.3271  14.7914  17.0399  17.2625  17.5171  17.6085

     occupation numbers 
     0.0313   0.0313   0.0313   0.0313   0.0313   0.0313   0.0313   0.0313
     0.0313   0.0313   0.0313   0.0313   0.0313   0.0313   0.0313   0.0313
     0.0313   0.0313   0.0313   0.0313   0.0313   0.0313   0.0313   0.0313
     0.0313   0.0313   0.0313   0.0313   0.0312   0.0312   0.0312   0.0312
     0.0312   0.0312   0.0311   0.0307   0.0297   0.0267   0.0150   0.0009
     0.0000   0.0000   0.0000   0.0000   0.0000   0.0000

          k = 0.0000 0.0000 0.3080 (  2187 PWs)   bands (ev):

   -19.7710 -19.6546  -6.6177  -5.9849  -5.9367  -5.9296  -5.8469  -5.8405
    -3.2048  -3.1182  -3.1170  -2.9679  -2.8971  -2.8961   5.6157   6.9634
     6.9678   7.1306   7.1399   7.3547   7.3585   7.5622   7.5666   8.6483
     8.6499   9.1505   9.4411   9.5919   9.5973   9.7679  10.1218  10.1268
    10.6607  10.6620  10.8154  11.4867  11.4877  11.5623  12.2949  12.2957
    14.2676  14.2688  15.9086  15.9095  16.8780  17.4788

     occupation numbers 
     0.0625   0.0625   0.0625   0.0625   0.0625   0.0625   0.0625   0.0625
     0.0625   0.0625   0.0625   0.0625   0.0625   0.0625   0.0625   0.0625
     0.0625   0.0625   0.0625   0.0625   0.0625   0.0625   0.0625   0.0625
     0.0625   0.0625   0.0625   0.0625   0.0625   0.0625   0.0625   0.0625
     0.0625   0.0625   0.0625   0.0571   0.0571   0.0541   0.0047   0.0047
     0.0000   0.0000   0.0000   0.0000   0.0000   0.0000

          k = 0.7412 0.4280 0.0000 (  2204 PWs)   bands (ev):

   -19.7398 -19.6878  -6.7337  -6.6063  -6.1457  -5.8330  -5.6846  -5.5529
    -3.1763  -3.0909  -3.0445  -2.6759  -2.6566  -2.5856   5.9160   6.4840
     6.8038   7.0984   7.1752   7.2784   7.3831   7.4792   7.6841   7.8733
     8.2089   8.7953   9.1526   9.4680   9.5732   9.6818   9.8411  10.2212
    10.8845  11.0007  11.0299  11.2511  11.2706  11.4086  12.2369  13.2407
    13.3087  14.1766  16.6862  16.7218  17.5899  17.7922

     occupation numbers 
     0.0625   0.0625   0.0625   0.0625   0.0625   0.0625   0.0625   0.0625
     0.0625   0.0625   0.0625   0.0625   0.0625   0.0625   0.0625   0.0625
     0.0625   0.0625   0.0625   0.0625   0.0625   0.0625   0.0625   0.0625
     0.0625   0.0625   0.0625   0.0625   0.0625   0.0625   0.0625   0.0625
     0.0625   0.0624   0.0624   0.0616   0.0614   0.0593   0.0068   0.0000
     0.0000   0.0000   0.0000   0.0000   0.0000   0.0000

          k = 0.4942 0.2853 0.1027 (  2211 PWs)   bands (ev):

   -19.7298 -19.6978  -6.9751  -6.5445  -6.3244  -5.7008  -5.6244  -5.3633
    -3.3188  -3.1644  -3.0319  -2.6035  -2.5622  -2.3791   5.9219   6.1987
     6.5463   6.9535   7.2058   7.2139   7.4586   7.6189   7.7421   7.8260
     8.1906   8.8441   9.0301   9.3919   9.4644   9.6577   9.9973  10.3403
    10.6072  11.1097  11.2458  11.2536  11.3031  11.3276  12.2667  12.7523
    13.4696  14.3382  16.8834  16.9329  17.5786  17.9255

     occupation numbers 
     0.0625   0.0625   0.0625   0.0625   0.0625   0.0625   0.0625   0.0625
     0.0625   0.0625   0.0625   0.0625   0.0625   0.0625   0.0625   0.0625
     0.0625   0.0625   0.0625   0.0625   0.0625   0.0625   0.0625   0.0625
     0.0625   0.0625   0.0625   0.0625   0.0625   0.0625   0.0625   0.0625
     0.0625   0.0623   0.0616   0.0616   0.0611   0.0608   0.0057   0.0001
     0.0000   0.0000   0.0000   0.0000   0.0000   0.0000

          k = 0.7412-0.4280-0.3080 (  2210 PWs)   bands (ev):

   -19.7299 -19.6986  -6.9063  -6.4545  -6.3010  -5.8046  -5.7654  -5.4849
    -3.0698  -3.0526  -2.9640  -2.7291  -2.6223  -2.4276   5.9825   6.3505
     6.6016   6.9291   7.1896   7.2565   7.4920   7.6431   7.7787   7.8545
     8.1720   8.8443   8.9015   9.4522   9.5045   9.5108   9.6523  10.1894
    10.6888  11.1224  11.2199  11.2427  11.3634  11.3943  12.2252  12.7033
    13.4200  14.3070  17.0576  17.0664  17.5475  17.9009

     occupation numbers 
     0.0625   0.0625   0.0625   0.0625   0.0625   0.0625   0.0625   0.0625
     0.0625   0.0625   0.0625   0.0625   0.0625   0.0625   0.0625   0.0625
     0.0625   0.0625   0.0625   0.0625   0.0625   0.0625   0.0625   0.0625
     0.0625   0.0625   0.0625   0.0625   0.0625   0.0625   0.0625   0.0625
     0.0625   0.0622   0.0618   0.0617   0.0602   0.0596   0.0073   0.0001
     0.0000   0.0000   0.0000   0.0000   0.0000   0.0000

          k = 0.4942-0.5706-0.2053 (  2206 PWs)   bands (ev):

   -19.7143 -19.7142  -6.8879  -6.8753  -6.0438  -6.0326  -5.4337  -5.4268
    -3.1519  -3.1515  -2.8147  -2.8129  -2.3844  -2.3814   6.0611   6.0753
     6.7343   6.7395   7.0747   7.0799   7.3758   7.3821   7.8834   7.9173
     8.7734   8.7829   8.8743   8.8820   9.5225   9.5288  10.0739  10.0768
    10.8954  10.8974  11.1149  11.1183  11.4203  11.4244  12.2821  12.2854
    14.0000  14.0094  17.4251  17.4257  17.8655  17.8686

     occupation numbers 
     0.0625   0.0625   0.0625   0.0625   0.0625   0.0625   0.0625   0.0625
     0.0625   0.0625   0.0625   0.0625   0.0625   0.0625   0.0625   0.0625
     0.0625   0.0625   0.0625   0.0625   0.0625   0.0625   0.0625   0.0625
     0.0625   0.0625   0.0625   0.0625   0.0625   0.0625   0.0625   0.0625
     0.0625   0.0625   0.0623   0.0622   0.0590   0.0589   0.0051   0.0050
     0.0000   0.0000   0.0000   0.0000   0.0000   0.0000

          k = 0.0000 0.0000-0.6160 (  2186 PWs)   bands (ev):

   -19.7145 -19.7138  -6.5178  -6.5003  -5.9525  -5.9399  -5.9384  -5.9370
    -2.8941  -2.8919  -2.8909  -2.8901  -2.7078  -2.7062   6.2686   6.2806
     7.1605   7.1639   7.1778   7.1841   7.5880   7.6156   7.8384   7.8399
     7.8658   7.8674   9.6159   9.6168   9.6245   9.6274   9.6874   9.7001
    11.1094  11.1216  11.1796  11.1811  11.1928  11.1947  13.2291  13.2302
    13.2621  13.2633  17.1148  17.1154  17.1169  17.1178

     occupation numbers 
     0.0313   0.0313   0.0313   0.0313   0.0313   0.0313   0.0313   0.0313
     0.0313   0.0313   0.0313   0.0313   0.0313   0.0313   0.0313   0.0313
     0.0313   0.0313   0.0313   0.0313   0.0313   0.0313   0.0313   0.0313
     0.0313   0.0313   0.0312   0.0312   0.0312   0.0312   0.0312   0.0312
     0.0311   0.0311   0.0310   0.0310   0.0310   0.0310   0.0000   0.0000
     0.0000   0.0000   0.0000   0.0000   0.0000   0.0000

          k =-0.2471 0.1427-0.1027 (  2181 PWs)   bands (ev):

   -19.7713 -19.6541  -6.7294  -6.2932  -5.9470  -5.8541  -5.6157  -5.4825
    -3.5976  -3.3928  -2.9342  -2.9050  -2.8512  -2.7613   5.5559   6.8673
     6.9695   6.9830   7.0291   7.4103   7.4424   7.5237   7.6311   8.4362
     8.4868   9.0740   9.6387   9.7563   9.7782  10.0045  10.3483  10.3607
    10.5339  10.5380  10.6647  11.4520  11.5196  11.5583  12.3203  12.3899
    14.3064  14.3165  15.8139  16.0687  16.9715  17.2656

     occupation numbers 
     0.0625   0.0625   0.0625   0.0625   0.0625   0.0625   0.0625   0.0625
     0.0625   0.0625   0.0625   0.0625   0.0625   0.0625   0.0625   0.0625
     0.0625   0.0625   0.0625   0.0625   0.0625   0.0625   0.0625   0.0625
     0.0625   0.0625   0.0625   0.0625   0.0625   0.0625   0.0625   0.0625
     0.0625   0.0625   0.0625   0.0582   0.0559   0.0542   0.0040   0.0024
     0.0000   0.0000   0.0000   0.0000   0.0000   0.0000

          k = 0.0000 0.2853 0.1027 (  2181 PWs)   bands (ev):

   -19.7713 -19.6541  -6.7294  -6.2934  -5.9475  -5.8527  -5.6157  -5.4834
    -3.5969  -3.3932  -2.9339  -2.9053  -2.8515  -2.7610   5.5555   6.8663
     6.9672   6.9865   7.0283   7.4095   7.4439   7.5276   7.6275   8.4371
     8.4851   9.0753   9.6419   9.7532   9.7780  10.0041  10.3496  10.3587
    10.5343  10.5371  10.6655  11.4522  11.5194  11.5588  12.3209  12.3892
    14.3072  14.3157  15.8144  16.0679  16.9712  17.2650

     occupation numbers 
     0.0625   0.0625   0.0625   0.0625   0.0625   0.0625   0.0625   0.0625
     0.0625   0.0625   0.0625   0.0625   0.0625   0.0625   0.0625   0.0625
     0.0625   0.0625   0.0625   0.0625   0.0625   0.0625   0.0625   0.0625
     0.0625   0.0625   0.0625   0.0625   0.0625   0.0625   0.0625   0.0625
     0.0625   0.0625   0.0625   0.0582   0.0559   0.0542   0.0040   0.0024
     0.0000   0.0000   0.0000   0.0000   0.0000   0.0000

          k = 0.4942-0.2853 0.2053 (  2202 PWs)   bands (ev):

   -19.7143 -19.7136  -6.7298  -6.7152  -5.9669  -5.9597  -5.5286  -5.5208
    -3.3834  -3.3806  -2.7921  -2.7899  -2.5088  -2.5063   6.0374   6.0495
     7.1464   7.1664   7.2150   7.2310   7.4897   7.5150   7.6984   7.7237
     7.9111   7.9384   9.4766   9.4818   9.8667   9.8781  10.2734  10.2841
    10.9256  10.9377  11.0509  11.0639  11.2736  11.2871  13.2887  13.3226
    13.3741  13.4082  16.8313  16.8362  17.1303  17.1338

     occupation numbers 
     0.0313   0.0313   0.0313   0.0313   0.0313   0.0313   0.0313   0.0313
     0.0313   0.0313   0.0313   0.0313   0.0313   0.0313   0.0313   0.0313
     0.0313   0.0313   0.0313   0.0313   0.0313   0.0313   0.0313   0.0313
     0.0313   0.0313   0.0313   0.0313   0.0312   0.0312   0.0312   0.0312
     0.0312   0.0312   0.0312   0.0312   0.0307   0.0306   0.0000   0.0000
     0.0000   0.0000   0.0000   0.0000   0.0000   0.0000

          k = 0.0000-0.5706-0.2053 (  2202 PWs)   bands (ev):

   -19.7143 -19.7137  -6.7296  -6.7156  -5.9657  -5.9605  -5.5303  -5.5197
[...]
     0.0625   0.0625   0.0625   0.0625   0.0625   0.0625   0.0625   0.0625
     0.0625   0.0625   0.0625   0.0625   0.0625   0.0625   0.0625   0.0625
     0.0625   0.0624   0.0622   0.0622   0.0575   0.0546   0.0240   0.0001
     0.0000   0.0000   0.0000   0.0000   0.0000   0.0000

          k = 0.4942-0.5706 0.1027 (  2198 PWs)   bands (ev):

   -19.7294 -19.6982  -6.9594  -6.6467  -6.1337  -5.8904  -5.5158  -5.3884
    -3.3060  -3.2532  -2.8769  -2.7082  -2.5289  -2.3858   5.8877   6.2301
     6.5873   6.9613   7.1741   7.3235   7.4369   7.6101   7.6509   7.8559
     8.1535   8.7699   9.0262   9.2903   9.6035   9.8009   9.9130  10.3481
    10.5798  11.0434  11.1628  11.2327  11.3704  11.4373  12.3123  12.7371
    13.4233  14.3564  16.9042  17.1102  17.3079  18.0136

     occupation numbers 
     0.0625   0.0625   0.0625   0.0625   0.0625   0.0625   0.0625   0.0625
     0.0625   0.0625   0.0625   0.0625   0.0625   0.0625   0.0625   0.0625
     0.0625   0.0625   0.0625   0.0625   0.0625   0.0625   0.0625   0.0625
     0.0625   0.0625   0.0625   0.0625   0.0625   0.0625   0.0625   0.0625
     0.0625   0.0624   0.0621   0.0617   0.0601   0.0586   0.0042   0.0001
     0.0000   0.0000   0.0000   0.0000   0.0000   0.0000

          k =-0.7412 0.1427-0.1027 (  2198 PWs)   bands (ev):

   -19.7294 -19.6982  -6.9589  -6.6476  -6.1326  -5.8915  -5.5148  -5.3891
    -3.3052  -3.2533  -2.8767  -2.7092  -2.5283  -2.3861   5.8897   6.2264
     6.5914   6.9604   7.1699   7.3249   7.4265   7.6231   7.6662   7.8385
     8.1540   8.7649   9.0302   9.2912   9.6059   9.8001   9.9134  10.3464
    10.5802  11.0472  11.1576  11.2337  11.3666  11.4411  12.3126  12.7374
    13.4234  14.3567  16.9024  17.1130  17.3074  18.0134

     occupation numbers 
     0.0625   0.0625   0.0625   0.0625   0.0625   0.0625   0.0625   0.0625
     0.0625   0.0625   0.0625   0.0625   0.0625   0.0625   0.0625   0.0625
     0.0625   0.0625   0.0625   0.0625   0.0625   0.0625   0.0625   0.0625
     0.0625   0.0625   0.0625   0.0625   0.0625   0.0625   0.0625   0.0625
     0.0625   0.0624   0.0621   0.0617   0.0602   0.0585   0.0042   0.0001
     0.0000   0.0000   0.0000   0.0000   0.0000   0.0000

          k = 0.2471-0.7133-0.1027 (  2198 PWs)   bands (ev):

   -19.7294 -19.6982  -6.9591  -6.6473  -6.1332  -5.8910  -5.5144  -5.3897
    -3.3051  -3.2532  -2.8769  -2.7087  -2.5283  -2.3863   5.8893   6.2263
     6.5908   6.9610   7.1707   7.3239   7.4261   7.6225   7.6672   7.8391
     8.1539   8.7648   9.0312   9.2919   9.6034   9.8019   9.9122  10.3468
    10.5802  11.0479  11.1572  11.2312  11.3683  11.4417  12.3125  12.7374
    13.4234  14.3567  16.9031  17.1119  17.3073  18.0129

     occupation numbers 
     0.0625   0.0625   0.0625   0.0625   0.0625   0.0625   0.0625   0.0625
     0.0625   0.0625   0.0625   0.0625   0.0625   0.0625   0.0625   0.0625
     0.0625   0.0625   0.0625   0.0625   0.0625   0.0625   0.0625   0.0625
     0.0625   0.0625   0.0625   0.0625   0.0625   0.0625   0.0625   0.0625
     0.0625   0.0624   0.0621   0.0617   0.0601   0.0585   0.0042   0.0001
     0.0000   0.0000   0.0000   0.0000   0.0000   0.0000

          k =-0.7412-0.1427 0.1027 (  2198 PWs)   bands (ev):

   -19.7294 -19.6982  -6.9595  -6.6465  -6.1342  -5.8900  -5.5154  -5.3890
    -3.3059  -3.2531  -2.8771  -2.7077  -2.5289  -2.3859   5.8873   6.2300
     6.5866   6.9620   7.1748   7.3225   7.4364   7.6097   7.6519   7.8565
     8.1534   8.7698   9.0272   9.2909   9.6011   9.8026   9.9118  10.3486
    10.5798  11.0441  11.1625  11.2301  11.3722  11.4379  12.3123  12.7372
    13.4233  14.3564  16.9050  17.1091  17.3079  18.0132

     occupation numbers 
     0.0625   0.0625   0.0625   0.0625   0.0625   0.0625   0.0625   0.0625
     0.0625   0.0625   0.0625   0.0625   0.0625   0.0625   0.0625   0.0625
     0.0625   0.0625   0.0625   0.0625   0.0625   0.0625   0.0625   0.0625
     0.0625   0.0625   0.0625   0.0625   0.0625   0.0625   0.0625   0.0625
     0.0625   0.0624   0.0621   0.0617   0.0601   0.0586   0.0042   0.0001
     0.0000   0.0000   0.0000   0.0000   0.0000   0.0000

          k = 0.2471 0.7133 0.1027 (  2198 PWs)   bands (ev):

   -19.7298 -19.6985  -6.9544  -6.6480  -6.1292  -5.8999  -5.5199  -5.3831
    -3.3055  -3.2530  -2.8777  -2.7068  -2.5285  -2.3844   5.8813   6.2365
     6.5807   6.9585   7.1722   7.3174   7.4406   7.6106   7.6498   7.8574
     8.1601   8.7672   9.0305   9.2936   9.6001   9.8033   9.9138  10.3455
    10.5782  11.0454  11.1623  11.2307  11.3709  11.4406  12.3118  12.7369
    13.4252  14.3555  16.9042  17.1092  17.3077  18.0134

     occupation numbers 
     0.0625   0.0625   0.0625   0.0625   0.0625   0.0625   0.0625   0.0625
     0.0625   0.0625   0.0625   0.0625   0.0625   0.0625   0.0625   0.0625
     0.0625   0.0625   0.0625   0.0625   0.0625   0.0625   0.0625   0.0625
     0.0625   0.0625   0.0625   0.0625   0.0625   0.0625   0.0625   0.0625
     0.0625   0.0624   0.0621   0.0617   0.0601   0.0585   0.0042   0.0001
     0.0000   0.0000   0.0000   0.0000   0.0000   0.0000

          k = 0.2471-0.4280 0.0000 (  2203 PWs)   bands (ev):

   -19.7403 -19.6872  -6.8481  -6.6427  -6.0495  -5.9840  -5.4445  -5.3720
    -3.5194  -3.2930  -2.8014  -2.7088  -2.5694  -2.5606   5.8765   6.2695
     6.8306   7.0692   7.1617   7.2447   7.4118   7.4880   7.5544   7.9232
     8.1571   8.9186   9.1309   9.3936   9.7598   9.7778  10.0565  10.3520
    10.8901  10.9192  10.9973  11.1830  11.2103  11.5376  12.2349  13.3181
    13.3929  14.1509  16.4335  16.9910  17.4191  17.9239

     occupation numbers 
     0.0625   0.0625   0.0625   0.0625   0.0625   0.0625   0.0625   0.0625
     0.0625   0.0625   0.0625   0.0625   0.0625   0.0625   0.0625   0.0625
     0.0625   0.0625   0.0625   0.0625   0.0625   0.0625   0.0625   0.0625
     0.0625   0.0625   0.0625   0.0625   0.0625   0.0625   0.0625   0.0625
     0.0625   0.0625   0.0624   0.0620   0.0619   0.0552   0.0069   0.0000
     0.0000   0.0000   0.0000   0.0000   0.0000   0.0000

          k =-0.4942 0.0000 0.0000 (  2203 PWs)   bands (ev):

   -19.7403 -19.6872  -6.8481  -6.6427  -6.0495  -5.9840  -5.4445  -5.3720
    -3.5194  -3.2930  -2.8014  -2.7088  -2.5693  -2.5607   5.8765   6.2695
     6.8306   7.0695   7.1607   7.2454   7.4118   7.4881   7.5544   7.9231
     8.1572   8.9186   9.1309   9.3936   9.7601   9.7774  10.0565  10.3520
    10.8901  10.9192  10.9973  11.1830  11.2103  11.5376  12.2349  13.3181
    13.3930  14.1509  16.4335  16.9910  17.4191  17.9235

     occupation numbers 
     0.0625   0.0625   0.0625   0.0625   0.0625   0.0625   0.0625   0.0625
     0.0625   0.0625   0.0625   0.0625   0.0625   0.0625   0.0625   0.0625
     0.0625   0.0625   0.0625   0.0625   0.0625   0.0625   0.0625   0.0625
     0.0625   0.0625   0.0625   0.0625   0.0625   0.0625   0.0625   0.0625
     0.0625   0.0625   0.0624   0.0620   0.0619   0.0552   0.0069   0.0000
     0.0000   0.0000   0.0000   0.0000   0.0000   0.0000

          k = 0.4942 0.2853 0.4107 (  2202 PWs)   bands (ev):

   -19.7317 -19.6955  -7.1704  -6.4561  -6.2427  -5.9661  -5.5313  -5.2973
    -3.1939  -3.1207  -3.0447  -2.6510  -2.4816  -2.2237   5.7970   6.1096
     6.2379   6.8589   7.1566   7.2657   7.5601   7.6575   8.1654   8.2346
     8.2445   8.3114   8.6087   9.4143   9.6771   9.8564  10.0343  10.0710
    10.4313  10.9421  11.1090  11.2701  11.4024  11.5707  11.8945  12.4246
    13.3248  14.7924  17.0405  17.2628  17.5183  17.6094

     occupation numbers 
     0.0313   0.0313   0.0313   0.0313   0.0313   0.0313   0.0313   0.0313
     0.0313   0.0313   0.0313   0.0313   0.0313   0.0313   0.0313   0.0313
     0.0313   0.0313   0.0313   0.0313   0.0313   0.0313   0.0313   0.0313
     0.0313   0.0313   0.0313   0.0313   0.0312   0.0312   0.0312   0.0312
     0.0312   0.0312   0.0311   0.0307   0.0297   0.0268   0.0150   0.0009
     0.0000   0.0000   0.0000   0.0000   0.0000   0.0000

          k = 0.0000 0.5706-0.4107 (  2202 PWs)   bands (ev):

   -19.7317 -19.6955  -7.1704  -6.4561  -6.2426  -5.9661  -5.5313  -5.2973
    -3.1939  -3.1207  -3.0447  -2.6510  -2.4816  -2.2237   5.7970   6.1096
     6.2379   6.8589   7.1566   7.2657   7.5599   7.6577   8.1655   8.2346
     8.2445   8.3113   8.6087   9.4143   9.6771   9.8564  10.0344  10.0710
    10.4313  10.9421  11.1090  11.2700  11.4025  11.5707  11.8945  12.4246
    13.3248  14.7924  17.0405  17.2628  17.5183  17.6094

     occupation numbers 
     0.0313   0.0313   0.0313   0.0313   0.0313   0.0313   0.0313   0.0313
     0.0313   0.0313   0.0313   0.0313   0.0313   0.0313   0.0313   0.0313
     0.0313   0.0313   0.0313   0.0313   0.0313   0.0313   0.0313   0.0313
     0.0313   0.0313   0.0313   0.0313   0.0312   0.0312   0.0312   0.0312
     0.0312   0.0312   0.0311   0.0307   0.0297   0.0268   0.0150   0.0009
     0.0000   0.0000   0.0000   0.0000   0.0000   0.0000

          k = 0.7412-0.4280 0.0000 (  2204 PWs)   bands (ev):

   -19.7398 -19.6879  -6.7361  -6.6017  -6.1483  -5.8352  -5.6869  -5.5476
    -3.1756  -3.0910  -3.0445  -2.6773  -2.6576  -2.5844   5.9225   6.4795
     6.8085   7.0957   7.1717   7.2745   7.3854   7.4795   7.6831   7.8689
     8.2048   8.8013   9.1565   9.4756   9.5724   9.6805   9.8411  10.2191
    10.8831  10.9995  11.0286  11.2494  11.2713  11.4106  12.2370  13.2399
    13.3078  14.1781  16.6870  16.7213  17.5892  17.7920

     occupation numbers 
     0.0625   0.0625   0.0625   0.0625   0.0625   0.0625   0.0625   0.0625
     0.0625   0.0625   0.0625   0.0625   0.0625   0.0625   0.0625   0.0625
     0.0625   0.0625   0.0625   0.0625   0.0625   0.0625   0.0625   0.0625
     0.0625   0.0625   0.0625   0.0625   0.0625   0.0625   0.0625   0.0625
     0.0625   0.0624   0.0624   0.0616   0.0614   0.0593   0.0068   0.0000
     0.0000   0.0000   0.0000   0.0000   0.0000   0.0000

          k = 0.0000-0.8559 0.0000 (  2204 PWs)   bands (ev):

   -19.7398 -19.6878  -6.7337  -6.6062  -6.1457  -5.8330  -5.6847  -5.5528
    -3.1763  -3.0909  -3.0445  -2.6759  -2.6566  -2.5856   5.9160   6.4840
     6.8038   7.0981   7.1762   7.2776   7.3830   7.4792   7.6840   7.8735
     8.2089   8.7953   9.1526   9.4680   9.5733   9.6816   9.8412  10.2212
    10.8845  11.0007  11.0300  11.2511  11.2706  11.4086  12.2369  13.2407
    13.3087  14.1766  16.6862  16.7218  17.5899  17.7922

     occupation numbers 
     0.0625   0.0625   0.0625   0.0625   0.0625   0.0625   0.0625   0.0625
     0.0625   0.0625   0.0625   0.0625   0.0625   0.0625   0.0625   0.0625
     0.0625   0.0625   0.0625   0.0625   0.0625   0.0625   0.0625   0.0625
     0.0625   0.0625   0.0625   0.0625   0.0625   0.0625   0.0625   0.0625
     0.0625   0.0624   0.0624   0.0616   0.0614   0.0593   0.0068   0.0000
     0.0000   0.0000   0.0000   0.0000   0.0000   0.0000

          k = 0.4942-0.2853-0.1027 (  2211 PWs)   bands (ev):

   -19.7302 -19.6981  -6.9703  -6.5458  -6.3236  -5.7049  -5.6293  -5.3585
    -3.3187  -3.1643  -3.0317  -2.6026  -2.5622  -2.3776   5.9160   6.2057
     6.5399   6.9513   7.2038   7.2100   7.4583   7.6200   7.7409   7.8285
     8.1967   8.8406   9.0337   9.3902   9.4612   9.6666   9.9990  10.3367
    10.6050  11.1104  11.2463  11.2547  11.3025  11.3285  12.2663  12.7521
    13.4715  14.3372  16.8831  16.9331  17.5789  17.9253

     occupation numbers 
     0.0625   0.0625   0.0625   0.0625   0.0625   0.0625   0.0625   0.0625
     0.0625   0.0625   0.0625   0.0625   0.0625   0.0625   0.0625   0.0625
     0.0625   0.0625   0.0625   0.0625   0.0625   0.0625   0.0625   0.0625
     0.0625   0.0625   0.0625   0.0625   0.0625   0.0625   0.0625   0.0625
     0.0625   0.0623   0.0616   0.0616   0.0611   0.0608   0.0057   0.0001
     0.0000   0.0000   0.0000   0.0000   0.0000   0.0000

          k = 0.0000-0.5706 0.1027 (  2211 PWs)   bands (ev):

   -19.7298 -19.6978  -6.9751  -6.5446  -6.3243  -5.7008  -5.6245  -5.3633
    -3.3188  -3.1644  -3.0319  -2.6035  -2.5622  -2.3790   5.9218   6.1987
     6.5462   6.9536   7.2081   7.2116   7.4585   7.6189   7.7420   7.8263
     8.1905   8.8441   9.0301   9.3919   9.4644   9.6577   9.9974  10.3402
    10.6071  11.1098  11.2453  11.2538  11.3034  11.3275  12.2667  12.7523
    13.4696  14.3382  16.8834  16.9329  17.5786  17.9255

     occupation numbers 
     0.0625   0.0625   0.0625   0.0625   0.0625   0.0625   0.0625   0.0625
     0.0625   0.0625   0.0625   0.0625   0.0625   0.0625   0.0625   0.0625
     0.0625   0.0625   0.0625   0.0625   0.0625   0.0625   0.0625   0.0625
     0.0625   0.0625   0.0625   0.0625   0.0625   0.0625   0.0625   0.0625
     0.0625   0.0623   0.0616   0.0616   0.0611   0.0608   0.0057   0.0001
     0.0000   0.0000   0.0000   0.0000   0.0000   0.0000

          k = 0.7412 0.4280 0.3080 (  2210 PWs)   bands (ev):

   -19.7295 -19.6983  -6.9117  -6.4531  -6.3026  -5.7966  -5.7623  -5.4906
    -3.0701  -3.0524  -2.9635  -2.7304  -2.6230  -2.4289   5.9892   6.3421
     6.6080   6.9320   7.1934   7.2605   7.4914   7.6411   7.7805   7.8527
     8.1656   8.8480   8.8978   9.4516   9.5040   9.5073   9.6512  10.1928
    10.6904  11.1209  11.2197  11.2437  11.3617  11.3938  12.2256  12.7036
    13.4182  14.3080  17.0580  17.0666  17.5471  17.9012

     occupation numbers 
     0.0625   0.0625   0.0625   0.0625   0.0625   0.0625   0.0625   0.0625
     0.0625   0.0625   0.0625   0.0625   0.0625   0.0625   0.0625   0.0625
     0.0625   0.0625   0.0625   0.0625   0.0625   0.0625   0.0625   0.0625
     0.0625   0.0625   0.0625   0.0625   0.0625   0.0625   0.0625   0.0625
     0.0625   0.0622   0.0618   0.0616   0.0602   0.0596   0.0072   0.0001
     0.0000   0.0000   0.0000   0.0000   0.0000   0.0000

          k = 0.0000 0.8559-0.3080 (  2210 PWs)   bands (ev):

   -19.7295 -19.6983  -6.9117  -6.4531  -6.3026  -5.7966  -5.7623  -5.4906
    -3.0701  -3.0524  -2.9635  -2.7303  -2.6230  -2.4289   5.9893   6.3420
     6.6081   6.9320   7.1934   7.2605   7.4913   7.6411   7.7813   7.8518
     8.1657   8.8482   8.8976   9.4515   9.5037   9.5077   9.6513  10.1928
    10.6904  11.1210  11.2193  11.2441  11.3617  11.3939  12.2256  12.7036
    13.4182  14.3080  17.0581  17.0666  17.5471  17.9012

     occupation numbers 
     0.0625   0.0625   0.0625   0.0625   0.0625   0.0625   0.0625   0.0625
     0.0625   0.0625   0.0625   0.0625   0.0625   0.0625   0.0625   0.0625
     0.0625   0.0625   0.0625   0.0625   0.0625   0.0625   0.0625   0.0625
     0.0625   0.0625   0.0625   0.0625   0.0625   0.0625   0.0625   0.0625
     0.0625   0.0622   0.0618   0.0616   0.0602   0.0596   0.0072   0.0001
     0.0000   0.0000   0.0000   0.0000   0.0000   0.0000

          k = 0.2471 0.7133-0.2053 (  2206 PWs)   bands (ev):

   -19.7143 -19.7142  -6.8878  -6.8754  -6.0436  -6.0328  -5.4337  -5.4268
    -3.1519  -3.1515  -2.8148  -2.8128  -2.3842  -2.3816   6.0610   6.0753
     6.7334   6.7403   7.0747   7.0799   7.3758   7.3821   7.8830   7.9177
     8.7757   8.7806   8.8738   8.8827   9.5235   9.5278  10.0736  10.0771
    10.8958  10.8970  11.1135  11.1196  11.4199  11.4249  12.2821  12.2853
    14.0000  14.0094  17.4248  17.4260  17.8662  17.8679

     occupation numbers 
     0.0625   0.0625   0.0625   0.0625   0.0625   0.0625   0.0625   0.0625
     0.0625   0.0625   0.0625   0.0625   0.0625   0.0625   0.0625   0.0625
     0.0625   0.0625   0.0625   0.0625   0.0625   0.0625   0.0625   0.0625
     0.0625   0.0625   0.0625   0.0625   0.0625   0.0625   0.0625   0.0625
     0.0625   0.0625   0.0623   0.0622   0.0590   0.0589   0.0051   0.0050
     0.0000   0.0000   0.0000   0.0000   0.0000   0.0000

          k =-0.7412-0.1427-0.2053 (  2206 PWs)   bands (ev):

   -19.7139 -19.7139  -6.8927  -6.8769  -6.0342  -6.0328  -5.4375  -5.4266
    -3.1524  -3.1516  -2.8136  -2.8127  -2.3871  -2.3819   6.0603   6.0733
     6.7389   6.7415   7.0756   7.0907   7.3812   7.3843   7.8798   7.9131
     8.7719   8.7762   8.8737   8.8786   9.5197   9.5222  10.0789  10.0795
    10.8982  10.8998  11.1138  11.1185  11.4191  11.4225  12.2823  12.2859
    13.9996  14.0091  17.4248  17.4253  17.8665  17.8689

     occupation numbers 
     0.0625   0.0625   0.0625   0.0625   0.0625   0.0625   0.0625   0.0625
     0.0625   0.0625   0.0625   0.0625   0.0625   0.0625   0.0625   0.0625
     0.0625   0.0625   0.0625   0.0625   0.0625   0.0625   0.0625   0.0625
     0.0625   0.0625   0.0625   0.0625   0.0625   0.0625   0.0625   0.0625
     0.0625   0.0625   0.0623   0.0622   0.0591   0.0590   0.0051   0.0050
     0.0000   0.0000   0.0000   0.0000   0.0000   0.0000

     the Fermi energy is    11.8805 ev

!    total energy              =    -538.13613346 Ry
     Harris-Foulkes estimate   =    -538.13612006 Ry
     estimated scf accuracy    <          3.6E-09 Ry

     The total energy is the sum of the following terms:

     one-electron contribution =     -32.91505823 Ry
     hartree contribution      =      83.65556810 Ry
     xc contribution           =    -199.59606294 Ry
     ewald contribution        =    -389.44315552 Ry
     Hubbard energy            =       0.18431480 Ry
     smearing contrib. (-TS)   =      -0.02173967 Ry

     convergence has been achieved in  11 iterations

     init_run     :      6.99s CPU      7.11s WALL (       1 calls)
     electrons    :    379.44s CPU    381.71s WALL (       1 calls)

     Called by init_run:
     wfcinit      :      0.00s CPU      0.00s WALL (       1 calls)
     potinit      :      0.29s CPU      0.32s WALL (       1 calls)

     Called by electrons:
     c_bands      :    291.35s CPU    292.34s WALL (      11 calls)
     sum_band     :     63.13s CPU     63.72s WALL (      11 calls)
     v_of_rho     :      3.15s CPU      3.17s WALL (      12 calls)
     v_h          :      0.18s CPU      0.18s WALL (      12 calls)
     v_xc         :      2.97s CPU      2.98s WALL (      12 calls)
     newd         :     22.91s CPU     22.93s WALL (      12 calls)
     mix_rho      :      0.32s CPU      0.33s WALL (      11 calls)

     Called by c_bands:
     init_us_2    :      3.06s CPU      3.07s WALL (     792 calls)
     cegterg      :    282.75s CPU    283.21s WALL (     396 calls)

     Called by sum_band:
     sum_band:bec :      0.32s CPU      0.31s WALL (     396 calls)
     addusdens    :     13.75s CPU     13.76s WALL (      11 calls)

     Called by *egterg:
     h_psi        :    206.27s CPU    206.67s WALL (    1580 calls)
     s_psi        :     12.06s CPU     12.06s WALL (    1580 calls)
     g_psi        :      0.94s CPU      0.93s WALL (    1184 calls)
     cdiaghg      :     26.45s CPU     26.44s WALL (    1544 calls)
     cegterg:over :     13.50s CPU     13.50s WALL (    1184 calls)
     cegterg:upda :      9.18s CPU      9.20s WALL (    1184 calls)
     cegterg:last :      6.02s CPU      6.04s WALL (     442 calls)

     Called by h_psi:
     h_psi:vloc   :    168.00s CPU    168.35s WALL (    1580 calls)
     h_psi:vnl    :     24.35s CPU     24.40s WALL (    1580 calls)
     add_vuspsi   :     12.03s CPU     12.07s WALL (    1580 calls)
     vhpsi        :     13.38s CPU     13.38s WALL (    1580 calls)

     General routines
     calbec       :     25.49s CPU     25.53s WALL (    3952 calls)
     fft          :      2.19s CPU      2.21s WALL (     187 calls)
     ffts         :      0.07s CPU      0.07s WALL (      23 calls)
     fftw         :    158.48s CPU    158.84s WALL (  110020 calls)
     interpolate  :      0.39s CPU      0.39s WALL (      23 calls)
     davcio       :      0.02s CPU      0.99s WALL (     828 calls)

     Parallel routines
     fft_scatter  :     41.51s CPU     41.68s WALL (  110230 calls)
     Hubbard U routines
     new_ns       :      2.60s CPU      3.05s WALL (      11 calls)
     vhpsi        :     13.38s CPU     13.38s WALL (    1580 calls)

     PWSCF        :  6m26.84s CPU     6m29.37s WALL


   This run was terminated on:  15:23:42  11Nov2012            

=------------------------------------------------------------------------------=
