   JOB DONE.
=------------------------------------------------------------------------------=

     Program PWSCF v.5.0.1 starts on 11Nov2012 at 15:23:52 

     This program is part of the open-source Quantum ESPRESSO suite
     for quantum simulation of materials; please cite
         "P. Giannozzi et al., J. Phys.:Condens. Matter 21 395502 (2009);
          URL http://www.quantum-espresso.org", 
     in publications or presentations arising from this work. More details at
     http://www.quantum-espresso.org/quote.php

     Parallel version (MPI), running on     2 processors
     R & G space division:  proc/pool =    2

     Current dimensions of program PWSCF are:
     Max number of different atomic species (ntypx) = 10
     Max number of k-points (npk) =  40000
     Max angular momentum in pseudopotentials (lmaxx) =  3
     Reading input from CoLaO_U200_a10.in
               file Co.pbe-nd-rrkjus.UPF: wavefunction(s)  4S 3D renormalized
               file O.pbe-rrkjus.UPF: wavefunction(s)  2S renormalized
               file O.pbe-rrkjus.UPF: wavefunction(s)  2S renormalized

     Subspace diagonalization in iterative solution of the eigenvalue problem:
     a serial algorithm will be used


     Parallelization info
     --------------------
     sticks:   dense  smooth     PW     G-vecs:    dense   smooth      PW
     Min        1112     444    131                34808     8786    1448
     Max        1113     445    132                34809     8787    1449
     Sum        2225     889    263                69617    17573    2897


     Title: 
     GGA + U, U = 2.000, alpha = 0.100                                          


     bravais-lattice index     =            5
     lattice parameter (alat)  =      10.3292  a.u.
     unit-cell volume          =     793.0599 (a.u.)^3
     number of atoms/cell      =           10
     number of atomic types    =            4
     number of electrons       =        76.00
     number of Kohn-Sham states=           46
     kinetic-energy cutoff     =      30.0000  Ry
     charge density cutoff     =     300.0000  Ry
     convergence threshold     =      1.0E-08
     mixing beta               =       0.2000
     number of iterations used =            8  plain     mixing
     Exchange-correlation      =  SLA  PW   PBE  PBE ( 1 4 3 4 0)
     EXX-fraction              =        0.00

     celldm(1)=  10.329242  celldm(2)=   0.000000  celldm(3)=   0.000000
     celldm(4)=   0.488100  celldm(5)=   0.000000  celldm(6)=   0.000000

     crystal axes: (cart. coord. in units of alat)
               a(1) = (   0.505915  -0.292090   0.811624 )  
               a(2) = (   0.000000   0.584180   0.811624 )  
               a(3) = (  -0.505915  -0.292090   0.811624 )  

     reciprocal axes: (cart. coord. in units 2 pi/alat)
               b(1) = (  0.988308 -0.570600  0.410699 )  
               b(2) = (  0.000000  1.141200  0.410699 )  
               b(3) = ( -0.988308 -0.570600  0.410699 )  


     PseudoPot. # 1 for Co read from file:
     /home/mcurnan/dft-course/Project1/example_LaCoO3/Co.pbe-nd-rrkjus.UPF
     MD5 check sum: 3e47a84addf5e975e0edeaeee2a73f59
     Pseudo is Ultrasoft + core correction, Zval =  9.0
     Generated by new atomic code, or converted to UPF format
     Using radial grid of  961 points,  6 beta functions with: 
                l(1) =   0
                l(2) =   0
                l(3) =   1
                l(4) =   1
                l(5) =   2
                l(6) =   2
     Q(r) pseudized with 0 coefficients 


     PseudoPot. # 2 for La read from file:
     /home/mcurnan/dft-course/Project1/example_LaCoO3/La.pbe-nsp-van.UPF
     MD5 check sum: b2f11743f52dde65f77d1302becd7929
     Pseudo is Ultrasoft + core correction, Zval = 11.0
     Generated by new atomic code, or converted to UPF format
     Using radial grid of  907 points,  6 beta functions with: 
                l(1) =   0
                l(2) =   0
                l(3) =   1
                l(4) =   1
                l(5) =   2
                l(6) =   2
     Q(r) pseudized with  6 coefficients,  rinner =    1.200   1.200   1.200
                                                       1.200   1.200

     PseudoPot. # 3 for O  read from file:
     /home/mcurnan/dft-course/Project1/example_LaCoO3/O.pbe-rrkjus.UPF
     MD5 check sum: 390ba29e75625707450f3bd3f0eb6be9
     Pseudo is Ultrasoft, Zval =  6.0
     Generated by new atomic code, or converted to UPF format
     Using radial grid of 1269 points,  4 beta functions with: 
                l(1) =   0
                l(2) =   0
                l(3) =   1
                l(4) =   1
     Q(r) pseudized with 0 coefficients 


     PseudoPot. # 4 for O  read from file:
     /home/mcurnan/dft-course/Project1/example_LaCoO3/O.pbe-rrkjus.UPF
     MD5 check sum: 390ba29e75625707450f3bd3f0eb6be9
     Pseudo is Ultrasoft, Zval =  6.0
     Generated by new atomic code, or converted to UPF format
     Using radial grid of 1269 points,  4 beta functions with: 
                l(1) =   0
                l(2) =   0
                l(3) =   1
                l(4) =   1
     Q(r) pseudized with 0 coefficients 


     atomic species   valence    mass     pseudopotential
        Co1            9.00     1.00000     Co( 1.00)
        La1           11.00     1.00000     La( 1.00)
        O1             6.00     1.00000     O ( 1.00)
        O2             6.00     1.00000     O ( 1.00)
 -----
     simplified LDA+U calculation, Hubbard_lmax = 2
     atomic species  L   Hubbard U  Hubbard alpha
        Co1          2    2.000000    0.000000
        La1          2    0.000000    0.000000
        O1           1    0.000000    0.100000
        O2           1    0.000000    0.000000
 -----

     No symmetry found


                                    s                        frac. trans.

      isym =  1     identity                                     

 cryst.   s( 1) = (     1          0          0      )
                  (     0          1          0      )
                  (     0          0          1      )

 cart.    s( 1) = (  1.0000000  0.0000000  0.0000000 )
                  (  0.0000000  1.0000000  0.0000000 )
                  (  0.0000000  0.0000000  1.0000000 )


     point group C_1 (1)    
     there are  1 classes
     the character table:

       E    
A      1.00

     the symmetry operations in each class:
     E        1

   Cartesian axes

     site n.     atom                  positions (alat units)
         1           Co1 tau(   1) = (   0.2228050  -0.1992639   1.0141240  )
         2           Co1 tau(   2) = (  -0.2831100   0.0928263   1.4199360  )
         3           La1 tau(   3) = (  -0.2831100   0.0928263   0.8112181  )
         4           La1 tau(   4) = (   0.2228050   0.3849164   1.2170300  )
         5           O1  tau(   5) = (   0.0000000   0.0000000   0.0000000  )
         6           O2  tau(   6) = (   0.0008601   0.1861491   1.6232478  )
         7           O2  tau(   7) = (   0.1616398   0.0923297   0.8116239  )
         8           O2  tau(   8) = (  -0.0603051  -0.1064377   1.2166242  )
         9           O2  tau(   9) = (   0.4447499  -0.0004966   1.2166242  )
        10           O2  tau(  10) = (  -0.2219449   0.3854130   1.2166242  )

   Crystallographic axes

     site n.     atom                  positions (cryst. coord.)
         1           Co1 tau(   1) = (  0.7504000  0.1891000  0.3100000  )
         2           Co1 tau(   2) = (  0.2504000  0.6891000  0.8100000  )
         3           La1 tau(   3) = (  0.0004000  0.4391000  0.5600000  )
         4           La1 tau(   4) = (  0.5004000  0.9391000  0.0600000  )
         5           O1  tau(   5) = (  0.0000000  0.0000000  0.0000000  )
         6           O2  tau(   6) = (  0.5613000  0.8791000  0.5596000  )
         7           O2  tau(   7) = (  0.4404000  0.4387000  0.1209000  )
         8           O2  tau(   8) = (  0.5008000  0.3782000  0.6200000  )
         9           O2  tau(   9) = (  0.9395000  0.4991000  0.0604000  )
        10           O2  tau(  10) = (  0.0604000  0.9395000  0.4991000  )

     number of k points=    36  gaussian smearing, width (Ry)=  0.0300
                       cart. coord. in units 2pi/alat
        k(    1) = (   0.0000000   0.0000000   0.0000000), wk =   0.0312500
        k(    2) = (  -0.2470771  -0.1426500   0.1026748), wk =   0.0625000
        k(    3) = (   0.4941541   0.2853000  -0.2053496), wk =   0.0312500
        k(    4) = (  -0.2470771   0.1426500   0.2053496), wk =   0.0625000
        k(    5) = (   0.4941541   0.5706001  -0.1026748), wk =   0.0625000
        k(    6) = (   0.2470771   0.4279500   0.0000000), wk =   0.0625000
        k(    7) = (   0.4941541  -0.2853000  -0.4106993), wk =   0.0312500
        k(    8) = (   0.0000000   0.0000000   0.3080244), wk =   0.0625000
        k(    9) = (   0.7412312   0.4279500   0.0000000), wk =   0.0625000
        k(   10) = (   0.4941541   0.2853000   0.1026748), wk =   0.0625000
        k(   11) = (   0.7412312  -0.4279500  -0.3080244), wk =   0.0625000
        k(   12) = (   0.4941541  -0.5706001  -0.2053496), wk =   0.0625000
        k(   13) = (   0.0000000   0.0000000  -0.6160489), wk =   0.0312500
        k(   14) = (  -0.2470771   0.1426500  -0.1026748), wk =   0.0625000
        k(   15) = (   0.0000000   0.2853000   0.1026748), wk =   0.0625000
        k(   16) = (   0.4941541  -0.2853000   0.2053496), wk =   0.0312500
        k(   17) = (   0.0000000  -0.5706001  -0.2053496), wk =   0.0312500
        k(   18) = (  -0.2470771  -0.1426500  -0.2053496), wk =   0.0625000
        k(   19) = (   0.0000000  -0.2853000   0.2053496), wk =   0.0625000
        k(   20) = (   0.4941541  -0.5706001   0.1026748), wk =   0.0625000
        k(   21) = (  -0.7412312   0.1426500  -0.1026748), wk =   0.0625000
        k(   22) = (   0.2470771  -0.7132501  -0.1026748), wk =   0.0625000
        k(   23) = (  -0.7412312  -0.1426500   0.1026748), wk =   0.0625000
        k(   24) = (   0.2470771   0.7132501   0.1026748), wk =   0.0625000
        k(   25) = (   0.2470771  -0.4279500   0.0000000), wk =   0.0625000
        k(   26) = (  -0.4941541   0.0000000   0.0000000), wk =   0.0625000
        k(   27) = (   0.4941541   0.2853000   0.4106993), wk =   0.0312500
        k(   28) = (   0.0000000   0.5706001  -0.4106993), wk =   0.0312500
        k(   29) = (   0.7412312  -0.4279500   0.0000000), wk =   0.0625000
        k(   30) = (   0.0000000  -0.8559001   0.0000000), wk =   0.0625000
        k(   31) = (   0.4941541  -0.2853000  -0.1026748), wk =   0.0625000
        k(   32) = (   0.0000000  -0.5706001   0.1026748), wk =   0.0625000
        k(   33) = (   0.7412312   0.4279500   0.3080244), wk =   0.0625000
        k(   34) = (   0.0000000   0.8559001  -0.3080244), wk =   0.0625000
        k(   35) = (   0.2470771   0.7132501  -0.2053496), wk =   0.0625000
        k(   36) = (  -0.7412312  -0.1426500  -0.2053496), wk =   0.0625000

                       cryst. coord.
        k(    1) = (   0.0000000   0.0000000   0.0000000), wk =   0.0312500
        k(    2) = (   0.0000000   0.0000000   0.2500000), wk =   0.0625000
        k(    3) = (   0.0000000   0.0000000  -0.5000000), wk =   0.0312500
        k(    4) = (   0.0000000   0.2500000   0.2500000), wk =   0.0625000
        k(    5) = (   0.0000000   0.2500000  -0.5000000), wk =   0.0625000
        k(    6) = (   0.0000000   0.2500000  -0.2500000), wk =   0.0625000
        k(    7) = (   0.0000000  -0.5000000  -0.5000000), wk =   0.0312500
        k(    8) = (   0.2500000   0.2500000   0.2500000), wk =   0.0625000
        k(    9) = (   0.2500000   0.2500000  -0.5000000), wk =   0.0625000
        k(   10) = (   0.2500000   0.2500000  -0.2500000), wk =   0.0625000
        k(   11) = (   0.2500000  -0.5000000  -0.5000000), wk =   0.0625000
        k(   12) = (   0.2500000  -0.5000000  -0.2500000), wk =   0.0625000
        k(   13) = (  -0.5000000  -0.5000000  -0.5000000), wk =   0.0312500
        k(   14) = (  -0.2500000   0.0000000   0.0000000), wk =   0.0625000
        k(   15) = (   0.0000000   0.2500000   0.0000000), wk =   0.0625000
        k(   16) = (   0.5000000   0.0000000   0.0000000), wk =   0.0312500
        k(   17) = (   0.0000000  -0.5000000   0.0000000), wk =   0.0312500
        k(   18) = (  -0.2500000  -0.2500000   0.0000000), wk =   0.0625000
        k(   19) = (   0.2500000   0.0000000   0.2500000), wk =   0.0625000
        k(   20) = (   0.5000000  -0.2500000   0.0000000), wk =   0.0625000
        k(   21) = (  -0.5000000   0.0000000   0.2500000), wk =   0.0625000
        k(   22) = (   0.2500000  -0.5000000   0.0000000), wk =   0.0625000
        k(   23) = (  -0.2500000   0.0000000   0.5000000), wk =   0.0625000
        k(   24) = (   0.0000000   0.5000000  -0.2500000), wk =   0.0625000
        k(   25) = (   0.2500000  -0.2500000   0.0000000), wk =   0.0625000
        k(   26) = (  -0.2500000   0.0000000   0.2500000), wk =   0.0625000
        k(   27) = (   0.5000000   0.5000000   0.0000000), wk =   0.0312500
        k(   28) = (  -0.5000000   0.0000000  -0.5000000), wk =   0.0312500
        k(   29) = (   0.5000000  -0.2500000  -0.2500000), wk =   0.0625000
        k(   30) = (   0.2500000  -0.5000000   0.2500000), wk =   0.0625000
        k(   31) = (   0.2500000  -0.2500000  -0.2500000), wk =   0.0625000
        k(   32) = (   0.2500000  -0.2500000   0.2500000), wk =   0.0625000
        k(   33) = (   0.5000000   0.5000000  -0.2500000), wk =   0.0625000
        k(   34) = (  -0.5000000   0.2500000  -0.5000000), wk =   0.0625000
        k(   35) = (  -0.2500000   0.2500000  -0.5000000), wk =   0.0625000
        k(   36) = (  -0.5000000  -0.2500000   0.2500000), wk =   0.0625000

     Dense  grid:    69617 G-vectors     FFT dimensions: (  60,  60,  60)

     Smooth grid:    17573 G-vectors     FFT dimensions: (  40,  40,  40)

     Largest allocated arrays     est. size (Mb)     dimensions
        Kohn-Sham Wavefunctions         0.79 Mb     (   1119,   46)
        Atomic wavefunctions            1.06 Mb     (   1119,   62)
        NL pseudopotentials             2.05 Mb     (   1119,  120)
        Each V/rho on FFT grid          1.65 Mb     ( 108000)
        Each G-vector array             0.27 Mb     (  34808)
        G-vector shells                 0.04 Mb     (   4682)
     Largest temporary arrays     est. size (Mb)     dimensions
        Auxiliary wavefunctions         3.14 Mb     (   1119,  184)
        Each subspace H/S matrix        0.52 Mb     ( 184, 184)
        Each <psi_i|beta_j> matrix      0.08 Mb     (    120,   46)
        Arrays for rho mixing          13.18 Mb     ( 108000,   8)

     Check: negative/imaginary core charge=   -0.000028    0.000000

     The initial density is read from file :
     /home/mcurnan/dft-course/Project1/example_LaCoO3/200/O/alpha/CoLaO_U200.save/charge-density.dat

 --- in v_hubbard ---
Hubbard energy    0.2313
 -------
     Number of +U iterations with fixed ns =  0
     Starting occupations:
 --- enter write_ns ---
 LDA+U parameters:
U( 1)     =  2.00000000
alpha( 1) =  0.00000000
U( 2)     =  0.00000000
alpha( 2) =  0.00000000
U( 3)     =  0.00000000
alpha( 3) =  0.10000000
U( 4)     =  0.00000000
alpha( 4) =  0.00000000
atom    1   Tr[ns(na)] =   8.02205
    eigenvalues: 
  0.596  0.596  0.938  0.941  0.941
    eigenvectors:
  0.000  0.000  1.000  0.000  0.000
  0.057  0.598  0.000  0.178  0.167
  0.598  0.057  0.000  0.167  0.178
  0.210  0.135  0.000  0.095  0.560
  0.135  0.210  0.000  0.560  0.095
    occupations:
  0.938  0.000  0.000  0.000  0.000
  0.000  0.715  0.000 -0.060  0.152
  0.000  0.000  0.715  0.152  0.060
  0.000 -0.060  0.152  0.822  0.000
  0.000  0.152  0.060  0.000  0.822
atom    2   Tr[ns(na)] =   8.02142
    eigenvalues: 
  0.595  0.595  0.938  0.941  0.941
    eigenvectors:
  0.000  0.000  1.000  0.000  0.000
  0.332  0.323  0.000  0.023  0.322
  0.323  0.332  0.000  0.322  0.023
  0.288  0.057  0.000  0.647  0.008
  0.057  0.288  0.000  0.008  0.647
    occupations:
  0.938  0.000  0.000  0.000  0.000
  0.000  0.715  0.000  0.060  0.153
  0.000  0.000  0.715  0.153 -0.060
  0.000  0.060  0.153  0.822  0.000
  0.000  0.153 -0.060  0.000  0.822
atom    3   Tr[ns(na)] =   3.80282
    eigenvalues: 
  0.355  0.355  0.384  0.403  0.403
    eigenvectors:
  0.000  0.000  1.000  0.000  0.000
  0.065  0.856  0.000  0.058  0.021
  0.856  0.065  0.000  0.021  0.058
  0.073  0.006  0.000  0.250  0.670
  0.006  0.073  0.000  0.670  0.250
    occupations:
  0.384  0.000  0.000  0.000  0.000
  0.000  0.359  0.000  0.000  0.013
  0.000  0.000  0.359  0.013  0.000
  0.000  0.000  0.013  0.399  0.000
  0.000  0.013  0.000  0.000  0.399
atom    4   Tr[ns(na)] =   3.80282
    eigenvalues: 
  0.355  0.355  0.384  0.403  0.403
    eigenvectors:
  0.000  0.000  1.000  0.000  0.000
  0.729  0.192  0.000  0.048  0.032
  0.192  0.729  0.000  0.032  0.048
  0.017  0.062  0.000  0.359  0.562
  0.062  0.017  0.000  0.562  0.359
    occupations:
  0.384  0.000  0.000  0.000  0.000
  0.000  0.359  0.000  0.000  0.013
  0.000  0.000  0.359  0.013  0.000
  0.000  0.000  0.013  0.399  0.000
  0.000  0.013  0.000  0.000  0.399
atom    5   Tr[ns(na)] =   5.43357
    eigenvalues: 
  0.846  0.929  0.941
    eigenvectors:
  0.340  0.000  0.660
  0.496  0.250  0.255
  0.164  0.750  0.086
    occupations:
  0.909 -0.039  0.022
 -0.039  0.891  0.022
  0.022  0.022  0.917
atom    6   Tr[ns(na)] =   5.43358
    eigenvalues: 
  0.846  0.929  0.941
    eigenvectors:
  0.340  0.000  0.660
  0.494  0.250  0.256
  0.166  0.750  0.085
    occupations:
  0.909  0.039  0.022
  0.039  0.891 -0.022
  0.022 -0.022  0.917
atom    7   Tr[ns(na)] =   5.43358
    eigenvalues: 
  0.846  0.929  0.941
    eigenvectors:
  0.340  0.000  0.660
  0.000  1.000  0.000
  0.660  0.000  0.340
    occupations:
  0.909  0.000 -0.045
  0.000  0.929  0.000
 -0.045  0.000  0.879
atom    8   Tr[ns(na)] =   5.43357
    eigenvalues: 
  0.846  0.929  0.941
    eigenvectors:
  0.340  0.000  0.660
  0.496  0.250  0.255
  0.164  0.750  0.086
    occupations:
  0.909 -0.039  0.022
 -0.039  0.891  0.022
  0.022  0.022  0.917
atom    9   Tr[ns(na)] =   5.43358
    eigenvalues: 
  0.846  0.929  0.941
    eigenvectors:
  0.340  0.000  0.660
  0.494  0.250  0.256
  0.166  0.750  0.085
    occupations:
  0.909  0.039  0.022
  0.039  0.891 -0.022
  0.022 -0.022  0.917
atom   10   Tr[ns(na)] =   5.43358
    eigenvalues: 
  0.846  0.929  0.941
    eigenvectors:
  0.340  0.000  0.660
  0.000  1.000  0.000
  0.660  0.000  0.340
    occupations:
  0.909  0.000 -0.045
  0.000  0.929  0.000
 -0.045  0.000  0.879
N of occupied +U levels =  56.2505796
 --- exit write_ns ---
 LDA+U Projector read from file 
     Starting wfc from file

     total cpu time spent up to now is        7.7 secs

     per-process dynamical memory:    62.8 Mb

     Self-consistent Calculation

     iteration #  1     ecut=    30.00 Ry     beta=0.20
     Davidson diagonalization with overlap
     c_bands:  1 eigenvalues not converged
     c_bands:  1 eigenvalues not converged
     c_bands:  1 eigenvalues not converged
     c_bands:  1 eigenvalues not converged
     c_bands:  1 eigenvalues not converged
     c_bands:  1 eigenvalues not converged
     c_bands:  1 eigenvalues not converged
     c_bands:  1 eigenvalues not converged
     c_bands:  1 eigenvalues not converged
     c_bands:  1 eigenvalues not converged
     c_bands:  1 eigenvalues not converged
     c_bands:  1 eigenvalues not converged
     c_bands:  1 eigenvalues not converged
     ethr =  1.00E-10,  avg # of iterations = 16.4
 --- enter write_ns ---
 LDA+U parameters:
U( 1)     =  2.00000000
alpha( 1) =  0.00000000
U( 2)     =  0.00000000
alpha( 2) =  0.00000000
U( 3)     =  0.00000000
alpha( 3) =  0.10000000
U( 4)     =  0.00000000
alpha( 4) =  0.00000000
atom    1   Tr[ns(na)] =   8.12378
    eigenvalues: 
  0.568  0.569  0.975  0.975  0.976
    eigenvectors:
  0.000  0.000  0.027  0.076  0.897
  0.100  0.554  0.244  0.075  0.027
  0.554  0.100  0.093  0.244  0.008
  0.179  0.166  0.022  0.593  0.039
  0.167  0.179  0.614  0.012  0.028
    occupations:
  0.976  0.000  0.000  0.000  0.000
  0.000  0.709  0.000 -0.069  0.180
  0.000  0.000  0.708  0.181  0.069
  0.000 -0.069  0.181  0.834  0.000
  0.000  0.180  0.069  0.000  0.834
atom    2   Tr[ns(na)] =   8.11831
    eigenvalues: 
  0.565  0.567  0.975  0.975  0.976
    eigenvectors:
  0.000  0.000  0.039  0.086  0.875
  0.236  0.418  0.000  0.313  0.032
  0.418  0.236  0.332  0.003  0.011
  0.319  0.027  0.538  0.114  0.002
  0.027  0.319  0.090  0.485  0.079
    occupations:
  0.976  0.000  0.000  0.000  0.000
  0.000  0.708 -0.001  0.069  0.182
  0.000 -0.001  0.708  0.182 -0.068
  0.000  0.069  0.182  0.833  0.000
  0.000  0.182 -0.068  0.000  0.834
atom    3   Tr[ns(na)] =   3.79979
    eigenvalues: 
  0.356  0.356  0.383  0.402  0.403
    eigenvectors:
  0.000  0.000  1.000  0.000  0.000
  0.691  0.230  0.000  0.019  0.060
  0.230  0.690  0.000  0.061  0.019
  0.020  0.059  0.000  0.694  0.227
  0.058  0.021  0.000  0.227  0.694
    occupations:
  0.383  0.000  0.000  0.000  0.000
  0.000  0.360  0.000  0.000  0.013
  0.000  0.000  0.360  0.013  0.000
  0.000  0.000  0.013  0.399  0.000
  0.000  0.013  0.000  0.000  0.399
atom    4   Tr[ns(na)] =   3.79965
    eigenvalues: 
  0.356  0.356  0.383  0.402  0.402
    eigenvectors:
  0.000  0.000  1.000  0.000  0.000
  0.232  0.684  0.000  0.020  0.063
  0.687  0.232  0.000  0.061  0.021
  0.059  0.022  0.000  0.686  0.232
  0.021  0.062  0.000  0.233  0.684
    occupations:
  0.383  0.000  0.000  0.000  0.000
  0.000  0.360  0.000  0.000  0.013
  0.000  0.000  0.360  0.013  0.000
  0.000  0.000  0.013  0.399  0.000
  0.000  0.013  0.000  0.000  0.399
atom    5   Tr[ns(na)] =   5.39492
    eigenvalues: 
  0.832  0.924  0.941
    eigenvectors:
  0.341  0.000  0.659
  0.494  0.250  0.256
  0.164  0.750  0.086
    occupations:
  0.904 -0.045  0.026
 -0.045  0.883  0.024
  0.026  0.024  0.910
atom    6   Tr[ns(na)] =   5.41245
    eigenvalues: 
  0.836  0.927  0.943
    eigenvectors:
  0.341  0.000  0.659
  0.494  0.251  0.255
  0.165  0.749  0.086
    occupations:
  0.907  0.044  0.025
  0.044  0.886 -0.023
  0.025 -0.023  0.913
atom    7   Tr[ns(na)] =   5.41245
    eigenvalues: 
  0.836  0.927  0.943
    eigenvectors:
  0.341  0.000  0.659
  0.000  1.000  0.000
  0.659  0.000  0.341
    occupations:
  0.907  0.000 -0.051
  0.000  0.927  0.000
 -0.051  0.000  0.873
atom    8   Tr[ns(na)] =   5.41241
    eigenvalues: 
  0.837  0.927  0.943
    eigenvectors:
  0.341  0.000  0.659
  0.495  0.250  0.255
  0.164  0.750  0.086
    occupations:
  0.907 -0.044  0.025
 -0.044  0.886  0.023
  0.025  0.023  0.913
atom    9   Tr[ns(na)] =   5.41241
    eigenvalues: 
  0.836  0.927  0.943
    eigenvectors:
  0.341  0.000  0.659
  0.494  0.251  0.255
  0.165  0.749  0.085
    occupations:
  0.907  0.044  0.025
  0.044  0.886 -0.023
  0.025 -0.023  0.913
atom   10   Tr[ns(na)] =   5.41242
    eigenvalues: 
  0.836  0.927  0.943
    eigenvectors:
  0.341  0.000  0.659
  0.000  1.000  0.000
  0.659  0.000  0.341
    occupations:
  0.907  0.000 -0.051
  0.000  0.927  0.000
 -0.051  0.000  0.873
N of occupied +U levels =  56.2985866
 --- exit write_ns ---
 --- in v_hubbard ---
Hubbard energy    0.2264
 -------

     total cpu time spent up to now is      104.3 secs

     total energy              =    -538.11308637 Ry
     Harris-Foulkes estimate   =    -538.11576566 Ry
     estimated scf accuracy    <       0.01379142 Ry

     iteration #  2     ecut=    30.00 Ry     beta=0.20
     Davidson diagonalization with overlap
     ethr =  1.81E-05,  avg # of iterations =  1.9
 --- enter write_ns ---
 LDA+U parameters:
U( 1)     =  2.00000000
alpha( 1) =  0.00000000
U( 2)     =  0.00000000
alpha( 2) =  0.00000000
U( 3)     =  0.00000000
alpha( 3) =  0.10000000
U( 4)     =  0.00000000
alpha( 4) =  0.00000000
atom    1   Tr[ns(na)] =   8.02911
    eigenvalues: 
  0.545  0.545  0.974  0.975  0.975
    eigenvectors:
  0.000  0.000  0.002  0.024  0.973
  0.101  0.554  0.174  0.163  0.007
  0.555  0.101  0.170  0.173  0.002
  0.177  0.168  0.104  0.542  0.010
  0.168  0.177  0.550  0.098  0.007
    occupations:
  0.975  0.000  0.000  0.000  0.000
  0.000  0.693  0.000 -0.073  0.190
  0.000  0.000  0.693  0.190  0.074
  0.000 -0.073  0.190  0.827  0.000
  0.000  0.190  0.074  0.000  0.826
atom    2   Tr[ns(na)] =   8.03768
    eigenvalues: 
  0.544  0.545  0.976  0.976  0.977
    eigenvectors:
  0.000  0.000  0.003  0.022  0.975
  0.237  0.419  0.017  0.321  0.006
  0.419  0.236  0.327  0.016  0.002
  0.319  0.026  0.641  0.014  0.001
  0.026  0.319  0.013  0.627  0.016
    occupations:
  0.977  0.000  0.000  0.000  0.000
  0.000  0.693  0.000  0.074  0.191
  0.000  0.000  0.693  0.192 -0.073
  0.000  0.074  0.192  0.827  0.000
  0.000  0.191 -0.073  0.000  0.828
atom    3   Tr[ns(na)] =   3.79681
    eigenvalues: 
  0.356  0.356  0.382  0.402  0.402
    eigenvectors:
  0.000  0.000  1.000  0.000  0.000
  0.687  0.235  0.000  0.018  0.061
  0.235  0.686  0.000  0.061  0.018
  0.021  0.058  0.000  0.701  0.220
  0.058  0.021  0.000  0.220  0.701
    occupations:
  0.382  0.000  0.000  0.000  0.000
  0.000  0.359  0.000  0.000  0.013
  0.000  0.000  0.359  0.013  0.000
  0.000  0.000  0.013  0.399  0.000
  0.000  0.013  0.000  0.000  0.399
atom    4   Tr[ns(na)] =   3.79687
    eigenvalues: 
  0.356  0.356  0.383  0.402  0.402
    eigenvectors:
  0.000  0.000  1.000  0.000  0.000
  0.200  0.720  0.000  0.019  0.061
  0.721  0.200  0.000  0.061  0.019
  0.061  0.018  0.000  0.698  0.223
  0.018  0.062  0.000  0.223  0.697
    occupations:
  0.383  0.000  0.000  0.000  0.000
  0.000  0.359  0.000  0.000  0.013
  0.000  0.000  0.359  0.013  0.000
  0.000  0.000  0.013  0.399  0.000
  0.000  0.013  0.000  0.000  0.399
atom    5   Tr[ns(na)] =   5.43233
    eigenvalues: 
  0.842  0.929  0.944
    eigenvectors:
  0.338  0.000  0.662
  0.496  0.251  0.253
  0.166  0.749  0.085
    occupations:
  0.910 -0.042  0.024
 -0.042  0.890  0.023
  0.024  0.023  0.916
atom    6   Tr[ns(na)] =   5.43844
    eigenvalues: 
  0.844  0.930  0.945
    eigenvectors:
  0.338  0.000  0.662
  0.496  0.250  0.254
  0.165  0.750  0.084
    occupations:
  0.911  0.041  0.024
  0.041  0.891 -0.023
  0.024 -0.023  0.917
atom    7   Tr[ns(na)] =   5.43844
    eigenvalues: 
  0.844  0.930  0.945
    eigenvectors:
  0.338  0.000  0.662
  0.000  1.000  0.000
  0.662  0.000  0.338
    occupations:
  0.911  0.000 -0.048
  0.000  0.930  0.000
 -0.048  0.000  0.878
atom    8   Tr[ns(na)] =   5.43779
    eigenvalues: 
  0.844  0.930  0.945
    eigenvectors:
  0.338  0.000  0.662
  0.496  0.251  0.253
  0.166  0.749  0.085
    occupations:
  0.911 -0.041  0.024
 -0.041  0.891  0.023
  0.024  0.023  0.917
atom    9   Tr[ns(na)] =   5.43858
    eigenvalues: 
  0.844  0.930  0.945
    eigenvectors:
  0.338  0.000  0.662
  0.497  0.249  0.254
  0.165  0.751  0.084
    occupations:
  0.911  0.041  0.024
  0.041  0.891 -0.023
  0.024 -0.023  0.917
atom   10   Tr[ns(na)] =   5.43858
    eigenvalues: 
  0.844  0.930  0.945
    eigenvectors:
  0.338  0.000  0.662
  0.000  1.000  0.000
  0.662  0.000  0.338
    occupations:
  0.911  0.000 -0.048
  0.000  0.930  0.000
 -0.048  0.000  0.878
N of occupied +U levels =  56.2846334
 --- exit write_ns ---
 --- in v_hubbard ---
Hubbard energy    0.2240
 -------

     total cpu time spent up to now is      131.8 secs

     total energy              =    -538.11511410 Ry
     Harris-Foulkes estimate   =    -538.11525080 Ry
     estimated scf accuracy    <       0.00763190 Ry

     iteration #  3     ecut=    30.00 Ry     beta=0.20
     Davidson diagonalization with overlap
     ethr =  1.00E-05,  avg # of iterations =  1.0
 --- enter write_ns ---
 LDA+U parameters:
U( 1)     =  2.00000000
alpha( 1) =  0.00000000
U( 2)     =  0.00000000
alpha( 2) =  0.00000000
U( 3)     =  0.00000000
alpha( 3) =  0.10000000
U( 4)     =  0.00000000
alpha( 4) =  0.00000000
atom    1   Tr[ns(na)] =   8.06209
    eigenvalues: 
  0.551  0.552  0.976  0.976  0.977
    eigenvectors:
  0.000  0.000  0.003  0.026  0.971
  0.101  0.554  0.180  0.156  0.008
  0.555  0.101  0.163  0.179  0.002
  0.176  0.168  0.095  0.550  0.011
  0.168  0.177  0.559  0.089  0.008
    occupations:
  0.977  0.000  0.000  0.000  0.000
  0.000  0.698  0.000 -0.073  0.188
  0.000  0.000  0.697  0.188  0.073
  0.000 -0.073  0.188  0.830  0.000
  0.000  0.188  0.073  0.000  0.830
atom    2   Tr[ns(na)] =   8.04878
    eigenvalues: 
  0.548  0.549  0.976  0.976  0.977
    eigenvectors:
  0.000  0.000  0.006  0.041  0.953
  0.235  0.421  0.013  0.319  0.012
  0.421  0.235  0.330  0.011  0.004
  0.318  0.026  0.634  0.021  0.001
  0.026  0.318  0.018  0.608  0.030
    occupations:
  0.977  0.000  0.000  0.000  0.000
  0.000  0.695  0.000  0.073  0.190
  0.000  0.000  0.695  0.190 -0.072
  0.000  0.073  0.190  0.828  0.000
  0.000  0.190 -0.072  0.000  0.829
atom    3   Tr[ns(na)] =   3.79669
    eigenvalues: 
  0.356  0.356  0.382  0.402  0.402
    eigenvectors:
  0.000  0.000  1.000  0.000  0.000
  0.693  0.228  0.000  0.019  0.060
  0.228  0.693  0.000  0.060  0.019
  0.020  0.059  0.000  0.691  0.230
  0.059  0.020  0.000  0.230  0.691
    occupations:
  0.382  0.000  0.000  0.000  0.000
  0.000  0.359  0.000  0.000  0.013
  0.000  0.000  0.359  0.013  0.000
  0.000  0.000  0.013  0.399  0.000
  0.000  0.013  0.000  0.000  0.399
atom    4   Tr[ns(na)] =   3.79670
    eigenvalues: 
  0.356  0.356  0.383  0.402  0.402
    eigenvectors:
  0.000  0.000  1.000  0.000  0.000
  0.225  0.695  0.000  0.018  0.062
  0.696  0.224  0.000  0.061  0.018
  0.059  0.020  0.000  0.704  0.217
  0.020  0.060  0.000  0.217  0.703
    occupations:
  0.383  0.000  0.000  0.000  0.000
  0.000  0.359  0.000  0.000  0.013
  0.000  0.000  0.359  0.013  0.000
  0.000  0.000  0.013  0.398  0.000
  0.000  0.013  0.000  0.000  0.398
atom    5   Tr[ns(na)] =   5.42544
    eigenvalues: 
  0.840  0.928  0.944
    eigenvectors:
  0.339  0.000  0.661
  0.497  0.249  0.254
  0.164  0.751  0.085
    occupations:
  0.909 -0.043  0.024
 -0.043  0.889  0.023
  0.024  0.023  0.915
atom    6   Tr[ns(na)] =   5.43177
    eigenvalues: 
  0.842  0.929  0.945
    eigenvectors:
  0.339  0.000  0.661
  0.495  0.251  0.254
  0.166  0.749  0.085
    occupations:
  0.910  0.042  0.024
  0.042  0.890 -0.023
  0.024 -0.023  0.916
atom    7   Tr[ns(na)] =   5.43177
    eigenvalues: 
  0.842  0.929  0.945
    eigenvectors:
  0.339  0.000  0.661
  0.000  1.000  0.000
  0.661  0.000  0.339
    occupations:
  0.910  0.000 -0.049
  0.000  0.929  0.000
 -0.049  0.000  0.877
atom    8   Tr[ns(na)] =   5.43121
    eigenvalues: 
  0.842  0.929  0.944
    eigenvectors:
  0.339  0.000  0.661
  0.497  0.249  0.254
  0.164  0.751  0.085
    occupations:
  0.910 -0.042  0.024
 -0.042  0.890  0.023
  0.024  0.023  0.916
atom    9   Tr[ns(na)] =   5.43185
    eigenvalues: 
  0.842  0.929  0.945
    eigenvectors:
  0.338  0.000  0.662
  0.495  0.251  0.254
  0.166  0.749  0.085
    occupations:
  0.910  0.042  0.024
  0.042  0.890 -0.023
  0.024 -0.023  0.916
atom   10   Tr[ns(na)] =   5.43185
    eigenvalues: 
  0.842  0.929  0.945
    eigenvectors:
  0.338  0.000  0.662
  0.000  1.000  0.000
  0.662  0.000  0.338
    occupations:
  0.910  0.000 -0.049
  0.000  0.929  0.000
 -0.049  0.000  0.877
N of occupied +U levels =  56.2881350
 --- exit write_ns ---
 --- in v_hubbard ---
Hubbard energy    0.2151
 -------

     total cpu time spent up to now is      160.0 secs

     total energy              =    -538.11579953 Ry
     Harris-Foulkes estimate   =    -538.11530313 Ry
     estimated scf accuracy    <       0.00392848 Ry

     iteration #  4     ecut=    30.00 Ry     beta=0.20
     Davidson diagonalization with overlap
     ethr =  5.17E-06,  avg # of iterations =  1.0
 --- enter write_ns ---
 LDA+U parameters:
U( 1)     =  2.00000000
alpha( 1) =  0.00000000
U( 2)     =  0.00000000
alpha( 2) =  0.00000000
U( 3)     =  0.00000000
alpha( 3) =  0.10000000
U( 4)     =  0.00000000
alpha( 4) =  0.00000000
atom    1   Tr[ns(na)] =   8.00873
    eigenvalues: 
  0.543  0.544  0.972  0.972  0.973
    eigenvectors:
  0.000  0.000  0.126  0.153  0.721
  0.103  0.554  0.263  0.011  0.069
  0.554  0.103  0.037  0.279  0.027
  0.177  0.166  0.000  0.542  0.115
  0.166  0.177  0.574  0.015  0.068
    occupations:
  0.973  0.000  0.000  0.000  0.000
  0.000  0.691  0.000 -0.072  0.191
  0.000  0.000  0.690  0.191  0.072
  0.000 -0.072  0.191  0.825  0.000
  0.000  0.191  0.072  0.000  0.825
atom    2   Tr[ns(na)] =   8.10781
    eigenvalues: 
  0.555  0.556  0.981  0.981  0.982
    eigenvectors:
  0.000  0.000  0.002  0.015  0.983
  0.236  0.421  0.019  0.320  0.004
  0.421  0.235  0.323  0.018  0.002
  0.319  0.024  0.644  0.012  0.000
  0.024  0.319  0.011  0.635  0.010
    occupations:
  0.982  0.000  0.000  0.000  0.000
  0.000  0.701  0.000  0.074  0.188
  0.000  0.000  0.701  0.188 -0.073
  0.000  0.074  0.188  0.835  0.000
  0.000  0.188 -0.073  0.000  0.835
atom    3   Tr[ns(na)] =   3.79725
    eigenvalues: 
  0.356  0.356  0.382  0.402  0.402
    eigenvectors:
  0.000  0.000  1.000  0.000  0.000
  0.692  0.230  0.000  0.015  0.064
  0.230  0.692  0.000  0.064  0.015
  0.020  0.059  0.000  0.744  0.177
  0.059  0.020  0.000  0.177  0.744
    occupations:
  0.382  0.000  0.000  0.000  0.000
  0.000  0.359  0.000  0.000  0.012
  0.000  0.000  0.360  0.012  0.000
  0.000  0.000  0.012  0.399  0.000
  0.000  0.012  0.000  0.000  0.399
atom    4   Tr[ns(na)] =   3.79725
    eigenvalues: 
  0.356  0.356  0.383  0.402  0.402
    eigenvectors:
  0.000  0.000  1.000  0.000  0.000
  0.248  0.672  0.000  0.018  0.061
  0.673  0.248  0.000  0.061  0.018
  0.057  0.022  0.000  0.705  0.216
  0.022  0.058  0.000  0.216  0.704
    occupations:
  0.383  0.000  0.000  0.000  0.000
  0.000  0.360  0.000  0.000  0.013
  0.000  0.000  0.359  0.012  0.000
  0.000  0.000  0.012  0.399  0.000
  0.000  0.013  0.000  0.000  0.399
atom    5   Tr[ns(na)] =   5.42411
    eigenvalues: 
  0.840  0.928  0.944
    eigenvectors:
  0.339  0.000  0.661
  0.489  0.258  0.252
  0.172  0.742  0.087
    occupations:
  0.909 -0.042  0.025
 -0.042  0.889  0.023
  0.025  0.023  0.915
atom    6   Tr[ns(na)] =   5.43042
    eigenvalues: 
  0.842  0.929  0.944
    eigenvectors:
  0.339  0.000  0.661
  0.502  0.243  0.255
  0.159  0.757  0.083
    occupations:
  0.910  0.042  0.024
  0.042  0.889 -0.023
  0.024 -0.023  0.917
atom    7   Tr[ns(na)] =   5.43043
    eigenvalues: 
  0.842  0.929  0.944
    eigenvectors:
  0.339  0.000  0.661
  0.000  1.000  0.000
  0.661  0.000  0.339
    occupations:
  0.910 -0.001 -0.049
 -0.001  0.929 -0.001
 -0.049 -0.001  0.876
atom    8   Tr[ns(na)] =   5.43019
    eigenvalues: 
  0.841  0.929  0.944
    eigenvectors:
  0.339  0.000  0.661
  0.490  0.258  0.252
  0.171  0.742  0.087
    occupations:
  0.910 -0.042  0.025
 -0.042  0.890  0.023
  0.025  0.023  0.915
atom    9   Tr[ns(na)] =   5.43041
    eigenvalues: 
  0.842  0.929  0.944
    eigenvectors:
  0.338  0.000  0.662
  0.502  0.242  0.255
  0.159  0.758  0.083
    occupations:
  0.910  0.042  0.024
  0.042  0.889 -0.023
  0.024 -0.023  0.917
atom   10   Tr[ns(na)] =   5.43041
    eigenvalues: 
  0.842  0.929  0.944
    eigenvectors:
  0.338  0.000  0.662
  0.000  1.000  0.000
  0.661  0.000  0.338
    occupations:
  0.910  0.000 -0.049
  0.000  0.929 -0.001
 -0.049 -0.001  0.876
N of occupied +U levels =  56.2870171
 --- exit write_ns ---
 --- in v_hubbard ---
Hubbard energy    0.2055
 -------

     total cpu time spent up to now is      186.9 secs

     total energy              =    -538.11567185 Ry
     Harris-Foulkes estimate   =    -538.11623478 Ry
     estimated scf accuracy    <       0.00685577 Ry

     iteration #  5     ecut=    30.00 Ry     beta=0.20
     Davidson diagonalization with overlap
     ethr =  5.17E-06,  avg # of iterations =  1.0
 --- enter write_ns ---
 LDA+U parameters:
U( 1)     =  2.00000000
alpha( 1) =  0.00000000
U( 2)     =  0.00000000
alpha( 2) =  0.00000000
U( 3)     =  0.00000000
alpha( 3) =  0.10000000
U( 4)     =  0.00000000
alpha( 4) =  0.00000000
atom    1   Tr[ns(na)] =   8.05906
    eigenvalues: 
  0.548  0.548  0.978  0.978  0.978
    eigenvectors:
  0.000  0.000  0.010  0.064  0.926
  0.102  0.556  0.198  0.126  0.019
  0.556  0.102  0.141  0.195  0.006
  0.175  0.167  0.070  0.559  0.029
  0.167  0.175  0.582  0.056  0.020
    occupations:
  0.978  0.000  0.000  0.000  0.000
  0.000  0.695  0.000 -0.073  0.190
  0.000  0.000  0.695  0.190  0.074
  0.000 -0.073  0.190  0.831  0.000
  0.000  0.190  0.074  0.000  0.831
atom    2   Tr[ns(na)] =   8.05582
    eigenvalues: 
  0.546  0.546  0.978  0.978  0.979
    eigenvectors:
  0.000  0.000  0.012  0.076  0.911
  0.234  0.424  0.008  0.311  0.023
  0.424  0.234  0.330  0.005  0.008
  0.317  0.025  0.622  0.034  0.001
  0.025  0.317  0.028  0.574  0.057
    occupations:
  0.979  0.000  0.000  0.000  0.000
  0.000  0.694  0.000  0.073  0.191
  0.000  0.000  0.694  0.192 -0.073
  0.000  0.073  0.192  0.830  0.000
  0.000  0.191 -0.073  0.000  0.831
atom    3   Tr[ns(na)] =   3.79791
    eigenvalues: 
  0.356  0.356  0.382  0.402  0.402
    eigenvectors:
  0.000  0.000  1.000  0.000  0.000
  0.694  0.228  0.000  0.008  0.070
  0.228  0.694  0.000  0.070  0.008
  0.020  0.058  0.000  0.824  0.098
  0.058  0.020  0.000  0.098  0.825
    occupations:
  0.382  0.000  0.000  0.000  0.000
  0.000  0.360  0.000  0.000  0.012
  0.000  0.000  0.360  0.012  0.000
  0.000  0.000  0.012  0.399  0.000
  0.000  0.012  0.000  0.000  0.399
atom    4   Tr[ns(na)] =   3.79790
    eigenvalues: 
  0.356  0.356  0.383  0.402  0.402
    eigenvectors:
  0.000  0.000  1.000  0.000  0.000
  0.251  0.670  0.000  0.019  0.060
  0.671  0.251  0.000  0.059  0.019
  0.056  0.022  0.000  0.690  0.231
  0.022  0.057  0.000  0.231  0.690
    occupations:
  0.383  0.000  0.000  0.000  0.000
  0.000  0.360  0.000  0.000  0.012
  0.000  0.000  0.360  0.012  0.000
  0.000  0.000  0.012  0.399  0.000
  0.000  0.012  0.000  0.000  0.399
atom    5   Tr[ns(na)] =   5.42399
    eigenvalues: 
  0.840  0.928  0.944
    eigenvectors:
  0.339  0.000  0.661
  0.496  0.250  0.254
  0.165  0.750  0.085
    occupations:
  0.909 -0.043  0.025
 -0.043  0.888  0.023
  0.025  0.023  0.915
atom    6   Tr[ns(na)] =   5.43035
    eigenvalues: 
  0.841  0.929  0.945
    eigenvectors:
  0.339  0.000  0.661
  0.495  0.251  0.254
  0.166  0.749  0.085
    occupations:
  0.910  0.042  0.024
  0.042  0.890 -0.023
  0.024 -0.023  0.916
atom    7   Tr[ns(na)] =   5.43036
    eigenvalues: 
  0.841  0.929  0.945
    eigenvectors:
  0.339  0.000  0.661
  0.000  1.000  0.000
  0.661  0.000  0.339
    occupations:
  0.910  0.000 -0.049
  0.000  0.929  0.000
 -0.049  0.000  0.876
atom    8   Tr[ns(na)] =   5.43035
    eigenvalues: 
  0.841  0.929  0.944
    eigenvectors:
  0.338  0.000  0.662
  0.496  0.250  0.253
  0.165  0.750  0.085
    occupations:
  0.910 -0.042  0.024
 -0.042  0.890  0.023
  0.024  0.023  0.916
atom    9   Tr[ns(na)] =   5.43030
    eigenvalues: 
  0.841  0.929  0.944
    eigenvectors:
  0.338  0.000  0.662
  0.496  0.250  0.254
  0.165  0.750  0.085
    occupations:
  0.910  0.042  0.024
  0.042  0.890 -0.023
  0.024 -0.023  0.916
atom   10   Tr[ns(na)] =   5.43028
    eigenvalues: 
  0.841  0.929  0.944
    eigenvectors:
  0.338  0.000  0.662
  0.000  1.000  0.000
  0.662  0.000  0.338
    occupations:
  0.910  0.000 -0.049
  0.000  0.929  0.000
 -0.049  0.000  0.876
N of occupied +U levels =  56.2863165
 --- exit write_ns ---
 --- in v_hubbard ---
Hubbard energy    0.2042
 -------

     total cpu time spent up to now is      213.0 secs

     total energy              =    -538.11607005 Ry
     Harris-Foulkes estimate   =    -538.11604434 Ry
     estimated scf accuracy    <       0.00005187 Ry

     iteration #  6     ecut=    30.00 Ry     beta=0.20
     Davidson diagonalization with overlap
     ethr =  6.83E-08,  avg # of iterations =  2.4
 --- enter write_ns ---
 LDA+U parameters:
U( 1)     =  2.00000000
alpha( 1) =  0.00000000
U( 2)     =  0.00000000
alpha( 2) =  0.00000000
U( 3)     =  0.00000000
alpha( 3) =  0.10000000
U( 4)     =  0.00000000
alpha( 4) =  0.00000000
atom    1   Tr[ns(na)] =   8.05498
    eigenvalues: 
  0.546  0.547  0.978  0.978  0.978
    eigenvectors:
  0.000  0.000  0.007  0.050  0.943
  0.102  0.556  0.190  0.138  0.015
  0.556  0.102  0.150  0.187  0.005
  0.175  0.167  0.080  0.556  0.022
  0.167  0.175  0.573  0.069  0.015
    occupations:
  0.978  0.000  0.000  0.000  0.000
  0.000  0.695  0.000 -0.074  0.191
  0.000  0.000  0.694  0.191  0.074
  0.000 -0.074  0.191  0.830  0.000
  0.000  0.191  0.074  0.000  0.830
atom    2   Tr[ns(na)] =   8.05259
    eigenvalues: 
  0.545  0.545  0.979  0.979  0.979
    eigenvectors:
  0.000  0.000  0.008  0.057  0.935
  0.234  0.423  0.012  0.313  0.016
  0.423  0.234  0.327  0.009  0.006
  0.317  0.025  0.633  0.024  0.001
  0.025  0.317  0.020  0.597  0.042
    occupations:
  0.979  0.000  0.000  0.000  0.000
  0.000  0.693  0.000  0.074  0.192
  0.000  0.000  0.693  0.192 -0.073
  0.000  0.074  0.192  0.830  0.000
  0.000  0.192 -0.073  0.000  0.830
atom    3   Tr[ns(na)] =   3.79766
    eigenvalues: 
  0.356  0.356  0.382  0.402  0.402
    eigenvectors:
  0.000  0.000  1.000  0.000  0.000
  0.692  0.230  0.000  0.016  0.062
  0.230  0.692  0.000  0.062  0.016
  0.020  0.058  0.000  0.725  0.197
  0.058  0.020  0.000  0.197  0.725
    occupations:
  0.382  0.000  0.000  0.000  0.000
  0.000  0.360  0.000  0.000  0.012
  0.000  0.000  0.360  0.012  0.000
  0.000  0.000  0.012  0.399  0.000
  0.000  0.012  0.000  0.000  0.399
atom    4   Tr[ns(na)] =   3.79763
    eigenvalues: 
  0.356  0.356  0.382  0.402  0.402
    eigenvectors:
  0.000  0.000  1.000  0.000  0.000
  0.267  0.654  0.000  0.020  0.059
  0.655  0.267  0.000  0.058  0.020
  0.055  0.024  0.000  0.682  0.239
  0.023  0.056  0.000  0.240  0.682
    occupations:
  0.382  0.000  0.000  0.000  0.000
  0.000  0.360  0.000  0.000  0.012
  0.000  0.000  0.360  0.012  0.000
  0.000  0.000  0.012  0.399  0.000
  0.000  0.012  0.000  0.000  0.399
atom    5   Tr[ns(na)] =   5.42525
    eigenvalues: 
  0.840  0.929  0.944
    eigenvectors:
  0.339  0.000  0.661
  0.496  0.250  0.254
  0.165  0.750  0.085
    occupations:
  0.909 -0.043  0.025
 -0.043  0.889  0.023
  0.025  0.023  0.915
atom    6   Tr[ns(na)] =   5.43151
    eigenvalues: 
  0.842  0.929  0.945
    eigenvectors:
  0.339  0.000  0.661
  0.496  0.251  0.254
  0.166  0.749  0.085
    occupations:
  0.910  0.042  0.024
  0.042  0.890 -0.023
  0.024 -0.023  0.916
atom    7   Tr[ns(na)] =   5.43151
    eigenvalues: 
  0.842  0.929  0.945
    eigenvectors:
  0.339  0.000  0.661
  0.000  1.000  0.000
  0.661  0.000  0.339
    occupations:
  0.910  0.000 -0.049
  0.000  0.929  0.000
 -0.049  0.000  0.877
atom    8   Tr[ns(na)] =   5.43118
    eigenvalues: 
  0.842  0.929  0.944
    eigenvectors:
  0.338  0.000  0.662
  0.496  0.250  0.253
  0.165  0.750  0.085
    occupations:
  0.910 -0.042  0.024
 -0.042  0.890  0.023
  0.024  0.023  0.916
atom    9   Tr[ns(na)] =   5.43155
    eigenvalues: 
  0.842  0.929  0.945
    eigenvectors:
  0.338  0.000  0.662
  0.496  0.250  0.254
  0.165  0.750  0.085
    occupations:
  0.910  0.042  0.024
  0.042  0.890 -0.023
  0.024 -0.023  0.916
atom   10   Tr[ns(na)] =   5.43155
    eigenvalues: 
  0.842  0.929  0.945
    eigenvectors:
  0.338  0.000  0.662
  0.000  1.000  0.000
  0.662  0.000  0.338
    occupations:
  0.910  0.000 -0.049
  0.000  0.929  0.000
 -0.049  0.000  0.877
N of occupied +U levels =  56.2853847
 --- exit write_ns ---
 --- in v_hubbard ---
Hubbard energy    0.2041
 -------

     total cpu time spent up to now is      241.9 secs

     total energy              =    -538.11611035 Ry
     Harris-Foulkes estimate   =    -538.11607751 Ry
     estimated scf accuracy    <       0.00001161 Ry

     iteration #  7     ecut=    30.00 Ry     beta=0.20
     Davidson diagonalization with overlap
     ethr =  1.53E-08,  avg # of iterations =  1.9
 --- enter write_ns ---
 LDA+U parameters:
U( 1)     =  2.00000000
alpha( 1) =  0.00000000
U( 2)     =  0.00000000
alpha( 2) =  0.00000000
U( 3)     =  0.00000000
alpha( 3) =  0.10000000
U( 4)     =  0.00000000
alpha( 4) =  0.00000000
atom    1   Tr[ns(na)] =   8.05341
    eigenvalues: 
  0.546  0.547  0.978  0.978  0.979
    eigenvectors:
  0.000  0.000  0.003  0.031  0.966
  0.102  0.555  0.175  0.159  0.009
  0.555  0.102  0.167  0.173  0.003
  0.176  0.167  0.102  0.543  0.013
  0.167  0.176  0.553  0.094  0.009
    occupations:
  0.979  0.000  0.000  0.000  0.000
  0.000  0.695  0.000 -0.074  0.191
  0.000  0.000  0.694  0.191  0.074
  0.000 -0.074  0.191  0.830  0.000
  0.000  0.191  0.074  0.000  0.830
atom    2   Tr[ns(na)] =   8.05363
    eigenvalues: 
  0.545  0.545  0.979  0.979  0.980
    eigenvectors:
  0.000  0.000  0.003  0.032  0.965
  0.236  0.421  0.020  0.314  0.009
  0.421  0.236  0.322  0.018  0.003
  0.317  0.026  0.645  0.011  0.001
  0.025  0.317  0.010  0.625  0.022
    occupations:
  0.980  0.000  0.000  0.000  0.000
  0.000  0.694  0.000  0.074  0.192
  0.000  0.000  0.694  0.192 -0.074
  0.000  0.074  0.192  0.830  0.000
  0.000  0.192 -0.074  0.000  0.830
atom    3   Tr[ns(na)] =   3.79714
    eigenvalues: 
  0.356  0.356  0.382  0.402  0.402
    eigenvectors:
  0.000  0.000  1.000  0.000  0.000
  0.691  0.231  0.000  0.016  0.063
  0.231  0.691  0.000  0.063  0.016
  0.020  0.058  0.000  0.733  0.189
  0.058  0.020  0.000  0.189  0.733
    occupations:
  0.382  0.000  0.000  0.000  0.000
  0.000  0.359  0.000  0.000  0.012
  0.000  0.000  0.360  0.012  0.000
  0.000  0.000  0.012  0.399  0.000
  0.000  0.012  0.000  0.000  0.399
atom    4   Tr[ns(na)] =   3.79711
    eigenvalues: 
  0.356  0.356  0.382  0.402  0.402
    eigenvectors:
  0.000  0.000  1.000  0.000  0.000
  0.299  0.622  0.000  0.019  0.060
  0.623  0.298  0.000  0.059  0.020
  0.052  0.026  0.000  0.687  0.235
  0.026  0.053  0.000  0.235  0.686
    occupations:
  0.382  0.000  0.000  0.000  0.000
  0.000  0.360  0.000  0.000  0.013
  0.000  0.000  0.360  0.012  0.000
  0.000  0.000  0.012  0.399  0.000
  0.000  0.013  0.000  0.000  0.399
atom    5   Tr[ns(na)] =   5.42539
    eigenvalues: 
  0.840  0.929  0.944
    eigenvectors:
  0.339  0.000  0.661
  0.496  0.250  0.254
  0.165  0.750  0.085
    occupations:
  0.909 -0.043  0.025
 -0.043  0.889  0.023
  0.025  0.023  0.915
atom    6   Tr[ns(na)] =   5.43174
    eigenvalues: 
  0.842  0.929  0.945
    eigenvectors:
  0.339  0.000  0.661
  0.496  0.251  0.254
  0.166  0.749  0.085
    occupations:
  0.910  0.042  0.024
  0.042  0.890 -0.023
  0.024 -0.023  0.916
atom    7   Tr[ns(na)] =   5.43173
    eigenvalues: 
  0.842  0.929  0.945
    eigenvectors:
  0.339  0.000  0.661
  0.000  1.000  0.000
  0.661  0.000  0.339
    occupations:
  0.910  0.000 -0.049
  0.000  0.929  0.000
 -0.049  0.000  0.877
atom    8   Tr[ns(na)] =   5.43125
    eigenvalues: 
  0.842  0.929  0.945
    eigenvectors:
  0.339  0.000  0.661
  0.496  0.250  0.253
  0.165  0.750  0.085
    occupations:
  0.910 -0.042  0.024
 -0.042  0.890  0.023
  0.024  0.023  0.916
atom    9   Tr[ns(na)] =   5.43181
    eigenvalues: 
  0.842  0.929  0.945
    eigenvectors:
  0.338  0.000  0.662
  0.496  0.250  0.254
  0.165  0.750  0.085
    occupations:
  0.910  0.042  0.024
  0.042  0.890 -0.023
  0.024 -0.023  0.916
atom   10   Tr[ns(na)] =   5.43181
    eigenvalues: 
  0.842  0.929  0.945
    eigenvectors:
  0.338  0.000  0.662
  0.000  1.000  0.000
  0.662  0.000  0.338
    occupations:
  0.910  0.000 -0.049
  0.000  0.929  0.000
 -0.049  0.000  0.877
N of occupied +U levels =  56.2850151
 --- exit write_ns ---
 --- in v_hubbard ---
Hubbard energy    0.2041
 -------

     total cpu time spent up to now is      268.9 secs

     total energy              =    -538.11613981 Ry
     Harris-Foulkes estimate   =    -538.11611192 Ry
     estimated scf accuracy    <       0.00000263 Ry

     iteration #  8     ecut=    30.00 Ry     beta=0.20
     Davidson diagonalization with overlap
     ethr =  3.46E-09,  avg # of iterations =  1.8
 --- enter write_ns ---
 LDA+U parameters:
U( 1)     =  2.00000000
alpha( 1) =  0.00000000
U( 2)     =  0.00000000
alpha( 2) =  0.00000000
U( 3)     =  0.00000000
alpha( 3) =  0.10000000
U( 4)     =  0.00000000
alpha( 4) =  0.00000000
atom    1   Tr[ns(na)] =   8.05488
    eigenvalues: 
  0.546  0.547  0.978  0.978  0.979
    eigenvectors:
  0.000  0.000  0.003  0.029  0.968
  0.101  0.555  0.175  0.160  0.008
  0.555  0.102  0.167  0.173  0.002
  0.176  0.167  0.102  0.543  0.012
  0.167  0.176  0.553  0.095  0.009
    occupations:
  0.979  0.000  0.000  0.000  0.000
  0.000  0.695  0.000 -0.074  0.191
  0.000  0.000  0.694  0.191  0.074
  0.000 -0.074  0.191  0.830  0.000
  0.000  0.191  0.074  0.000  0.830
atom    2   Tr[ns(na)] =   8.05310
    eigenvalues: 
  0.545  0.545  0.979  0.979  0.980
    eigenvectors:
  0.000  0.000  0.003  0.031  0.966
  0.236  0.421  0.019  0.315  0.008
  0.421  0.236  0.322  0.017  0.003
  0.317  0.026  0.645  0.012  0.001
  0.026  0.317  0.010  0.625  0.022
    occupations:
  0.980  0.000  0.000  0.000  0.000
  0.000  0.694  0.000  0.074  0.192
  0.000  0.000  0.694  0.192 -0.074
  0.000  0.074  0.192  0.830  0.000
  0.000  0.192 -0.074  0.000  0.830
atom    3   Tr[ns(na)] =   3.79716
    eigenvalues: 
  0.356  0.356  0.382  0.402  0.402
    eigenvectors:
  0.000  0.000  1.000  0.000  0.000
  0.691  0.230  0.000  0.010  0.068
  0.230  0.691  0.000  0.068  0.010
  0.020  0.058  0.000  0.800  0.122
  0.058  0.020  0.000  0.122  0.800
    occupations:
  0.382  0.000  0.000  0.000  0.000
  0.000  0.359  0.000  0.000  0.012
  0.000  0.000  0.360  0.012  0.000
  0.000  0.000  0.012  0.399  0.000
  0.000  0.012  0.000  0.000  0.399
atom    4   Tr[ns(na)] =   3.79713
    eigenvalues: 
  0.356  0.356  0.382  0.402  0.402
    eigenvectors:
  0.000  0.000  1.000  0.000  0.000
  0.278  0.643  0.000  0.019  0.060
  0.643  0.278  0.000  0.059  0.019
  0.054  0.025  0.000  0.690  0.231
  0.024  0.055  0.000  0.232  0.689
    occupations:
  0.382  0.000  0.000  0.000  0.000
  0.000  0.360  0.000  0.000  0.013
  0.000  0.000  0.360  0.012  0.000
  0.000  0.000  0.012  0.399  0.000
  0.000  0.013  0.000  0.000  0.399
atom    5   Tr[ns(na)] =   5.42526
    eigenvalues: 
  0.840  0.929  0.944
    eigenvectors:
  0.339  0.000  0.661
  0.496  0.250  0.254
  0.165  0.750  0.085
    occupations:
  0.909 -0.043  0.025
 -0.043  0.889  0.023
  0.025  0.023  0.915
atom    6   Tr[ns(na)] =   5.43157
    eigenvalues: 
  0.842  0.929  0.945
    eigenvectors:
  0.339  0.000  0.661
  0.495  0.251  0.254
  0.166  0.749  0.085
    occupations:
  0.910  0.042  0.024
  0.042  0.890 -0.023
  0.024 -0.023  0.916
atom    7   Tr[ns(na)] =   5.43157
    eigenvalues: 
  0.842  0.929  0.945
    eigenvectors:
  0.339  0.000  0.661
  0.000  1.000  0.000
  0.661  0.000  0.339
    occupations:
  0.910  0.000 -0.049
  0.000  0.929  0.000
 -0.049  0.000  0.877
atom    8   Tr[ns(na)] =   5.43119
    eigenvalues: 
  0.842  0.929  0.945
    eigenvectors:
  0.339  0.000  0.661
  0.496  0.250  0.253
  0.165  0.750  0.085
    occupations:
  0.910 -0.042  0.024
 -0.042  0.890  0.023
  0.024  0.023  0.916
atom    9   Tr[ns(na)] =   5.43162
    eigenvalues: 
  0.842  0.929  0.945
    eigenvectors:
  0.338  0.000  0.662
  0.496  0.250  0.254
  0.165  0.750  0.085
    occupations:
  0.910  0.042  0.024
  0.042  0.890 -0.023
  0.024 -0.023  0.916
atom   10   Tr[ns(na)] =   5.43161
    eigenvalues: 
  0.842  0.929  0.945
    eigenvectors:
  0.338  0.000  0.662
  0.000  1.000  0.000
  0.662  0.000  0.338
    occupations:
  0.910  0.000 -0.049
  0.000  0.929  0.000
 -0.049  0.000  0.877
N of occupied +U levels =  56.2850896
 --- exit write_ns ---
 --- in v_hubbard ---
Hubbard energy    0.2042
 -------

     total cpu time spent up to now is      303.3 secs

     total energy              =    -538.11615779 Ry
     Harris-Foulkes estimate   =    -538.11614008 Ry
     estimated scf accuracy    <       0.00000036 Ry

     iteration #  9     ecut=    30.00 Ry     beta=0.20
     Davidson diagonalization with overlap
     ethr =  4.77E-10,  avg # of iterations =  2.3
 --- enter write_ns ---
 LDA+U parameters:
U( 1)     =  2.00000000
alpha( 1) =  0.00000000
U( 2)     =  0.00000000
alpha( 2) =  0.00000000
U( 3)     =  0.00000000
alpha( 3) =  0.10000000
U( 4)     =  0.00000000
alpha( 4) =  0.00000000
atom    1   Tr[ns(na)] =   8.05430
    eigenvalues: 
  0.546  0.547  0.978  0.978  0.979
    eigenvectors:
  0.000  0.000  0.003  0.029  0.968
  0.101  0.555  0.177  0.158  0.009
  0.556  0.102  0.165  0.175  0.002
  0.176  0.167  0.100  0.546  0.012
  0.167  0.176  0.555  0.093  0.009
    occupations:
  0.979  0.000  0.000  0.000  0.000
  0.000  0.695  0.000 -0.074  0.191
  0.000  0.000  0.694  0.191  0.074
  0.000 -0.074  0.191  0.830  0.000
  0.000  0.191  0.074  0.000  0.830
atom    2   Tr[ns(na)] =   8.05320
    eigenvalues: 
  0.544  0.545  0.979  0.979  0.980
    eigenvectors:
  0.000  0.000  0.003  0.031  0.966
  0.236  0.421  0.019  0.316  0.008
  0.421  0.236  0.323  0.017  0.003
  0.317  0.026  0.644  0.013  0.001
  0.026  0.317  0.011  0.624  0.022
    occupations:
  0.980  0.000  0.000  0.000  0.000
  0.000  0.694  0.000  0.074  0.192
  0.000  0.000  0.694  0.192 -0.074
  0.000  0.074  0.192  0.830  0.000
  0.000  0.192 -0.074  0.000  0.830
atom    3   Tr[ns(na)] =   3.79720
    eigenvalues: 
  0.356  0.356  0.382  0.402  0.402
    eigenvectors:
  0.000  0.000  1.000  0.000  0.000
  0.692  0.230  0.000  0.006  0.072
  0.230  0.691  0.000  0.072  0.006
  0.020  0.058  0.000  0.842  0.080
  0.058  0.020  0.000  0.080  0.842
    occupations:
  0.382  0.000  0.000  0.000  0.000
  0.000  0.359  0.000  0.000  0.012
  0.000  0.000  0.360  0.012  0.000
  0.000  0.000  0.012  0.399  0.000
  0.000  0.012  0.000  0.000  0.399
atom    4   Tr[ns(na)] =   3.79717
    eigenvalues: 
  0.356  0.356  0.382  0.402  0.402
    eigenvectors:
  0.000  0.000  1.000  0.000  0.000
  0.294  0.627  0.000  0.019  0.060
  0.627  0.294  0.000  0.059  0.019
  0.053  0.026  0.000  0.690  0.232
  0.026  0.053  0.000  0.232  0.689
    occupations:
  0.382  0.000  0.000  0.000  0.000
  0.000  0.360  0.000  0.000  0.013
  0.000  0.000  0.360  0.012  0.000
  0.000  0.000  0.012  0.399  0.000
  0.000  0.013  0.000  0.000  0.399
atom    5   Tr[ns(na)] =   5.42533
    eigenvalues: 
  0.840  0.929  0.944
    eigenvectors:
  0.339  0.000  0.661
  0.496  0.250  0.254
  0.165  0.750  0.085
    occupations:
  0.909 -0.043  0.025
 -0.043  0.889  0.023
  0.025  0.023  0.915
atom    6   Tr[ns(na)] =   5.43163
    eigenvalues: 
  0.842  0.929  0.945
    eigenvectors:
  0.339  0.000  0.661
  0.496  0.251  0.254
  0.166  0.749  0.085
    occupations:
  0.910  0.042  0.024
  0.042  0.890 -0.023
  0.024 -0.023  0.916
atom    7   Tr[ns(na)] =   5.43163
    eigenvalues: 
  0.842  0.929  0.945
    eigenvectors:
  0.339  0.000  0.661
  0.000  1.000  0.000
  0.661  0.000  0.339
    occupations:
  0.910  0.000 -0.049
  0.000  0.929  0.000
 -0.049  0.000  0.877
atom    8   Tr[ns(na)] =   5.43126
    eigenvalues: 
  0.842  0.929  0.945
    eigenvectors:
  0.339  0.000  0.661
  0.496  0.250  0.253
  0.165  0.750  0.085
    occupations:
  0.910 -0.042  0.024
 -0.042  0.890  0.023
  0.024  0.023  0.916
atom    9   Tr[ns(na)] =   5.43167
    eigenvalues: 
  0.842  0.929  0.945
    eigenvectors:
  0.338  0.000  0.662
  0.496  0.250  0.254
  0.165  0.750  0.085
    occupations:
  0.910  0.042  0.024
  0.042  0.890 -0.023
  0.024 -0.023  0.916
atom   10   Tr[ns(na)] =   5.43167
    eigenvalues: 
  0.842  0.929  0.945
    eigenvectors:
  0.338  0.000  0.662
  0.000  1.000  0.000
  0.662  0.000  0.338
    occupations:
  0.910  0.000 -0.049
  0.000  0.929  0.000
 -0.049  0.000  0.877
N of occupied +U levels =  56.2850559
 --- exit write_ns ---
 --- in v_hubbard ---
Hubbard energy    0.2042
 -------

     total cpu time spent up to now is      339.0 secs

     total energy              =    -538.11616960 Ry
     Harris-Foulkes estimate   =    -538.11615786 Ry
     estimated scf accuracy    <       0.00000012 Ry

     iteration # 10     ecut=    30.00 Ry     beta=0.20
     Davidson diagonalization with overlap
     ethr =  1.60E-10,  avg # of iterations =  1.3
 --- enter write_ns ---
 LDA+U parameters:
U( 1)     =  2.00000000
alpha( 1) =  0.00000000
U( 2)     =  0.00000000
alpha( 2) =  0.00000000
U( 3)     =  0.00000000
alpha( 3) =  0.10000000
U( 4)     =  0.00000000
alpha( 4) =  0.00000000
atom    1   Tr[ns(na)] =   8.05457
    eigenvalues: 
  0.546  0.547  0.978  0.978  0.979
    eigenvectors:
  0.000  0.000  0.003  0.030  0.967
  0.101  0.555  0.177  0.157  0.009
  0.556  0.102  0.165  0.176  0.003
  0.176  0.167  0.098  0.546  0.012
  0.167  0.176  0.556  0.091  0.009
    occupations:
  0.979  0.000  0.000  0.000  0.000
  0.000  0.695  0.000 -0.074  0.191
  0.000  0.000  0.694  0.191  0.074
  0.000 -0.074  0.191  0.830  0.000
  0.000  0.191  0.074  0.000  0.830
atom    2   Tr[ns(na)] =   8.05327
    eigenvalues: 
  0.545  0.545  0.979  0.979  0.980
    eigenvectors:
  0.000  0.000  0.004  0.032  0.965
  0.236  0.421  0.018  0.316  0.009
  0.421  0.236  0.324  0.016  0.003
  0.317  0.026  0.643  0.013  0.001
  0.026  0.317  0.011  0.623  0.022
    occupations:
  0.980  0.000  0.000  0.000  0.000
  0.000  0.694  0.000  0.074  0.192
  0.000  0.000  0.694  0.192 -0.074
  0.000  0.074  0.192  0.830  0.000
  0.000  0.192 -0.074  0.000  0.830
atom    3   Tr[ns(na)] =   3.79720
    eigenvalues: 
  0.356  0.356  0.382  0.402  0.402
    eigenvectors:
  0.000  0.000  1.000  0.000  0.000
  0.692  0.230  0.000  0.008  0.070
  0.230  0.692  0.000  0.070  0.008
  0.020  0.058  0.000  0.821  0.101
  0.058  0.020  0.000  0.101  0.821
    occupations:
  0.382  0.000  0.000  0.000  0.000
  0.000  0.359  0.000  0.000  0.012
  0.000  0.000  0.360  0.012  0.000
  0.000  0.000  0.012  0.399  0.000
  0.000  0.012  0.000  0.000  0.399
atom    4   Tr[ns(na)] =   3.79718
    eigenvalues: 
  0.356  0.356  0.382  0.402  0.402
    eigenvectors:
  0.000  0.000  1.000  0.000  0.000
  0.295  0.626  0.000  0.019  0.060
  0.627  0.295  0.000  0.059  0.019
  0.053  0.026  0.000  0.689  0.232
  0.026  0.053  0.000  0.232  0.689
    occupations:
  0.382  0.000  0.000  0.000  0.000
  0.000  0.360  0.000  0.000  0.013
  0.000  0.000  0.360  0.012  0.000
  0.000  0.000  0.012  0.399  0.000
  0.000  0.013  0.000  0.000  0.399
atom    5   Tr[ns(na)] =   5.42526
    eigenvalues: 
  0.840  0.929  0.944
    eigenvectors:
  0.339  0.000  0.661
  0.496  0.250  0.254
  0.165  0.750  0.085
    occupations:
  0.909 -0.043  0.025
 -0.043  0.889  0.023
  0.025  0.023  0.915
atom    6   Tr[ns(na)] =   5.43158
    eigenvalues: 
  0.842  0.929  0.945
    eigenvectors:
  0.339  0.000  0.661
  0.495  0.251  0.254
  0.166  0.749  0.085
    occupations:
  0.910  0.042  0.024
  0.042  0.890 -0.023
  0.024 -0.023  0.916
atom    7   Tr[ns(na)] =   5.43158
    eigenvalues: 
  0.842  0.929  0.945
    eigenvectors:
  0.339  0.000  0.661
  0.000  1.000  0.000
  0.661  0.000  0.339
    occupations:
  0.910  0.000 -0.049
  0.000  0.929  0.000
 -0.049  0.000  0.877
atom    8   Tr[ns(na)] =   5.43119
    eigenvalues: 
  0.842  0.929  0.945
    eigenvectors:
  0.339  0.000  0.661
  0.496  0.250  0.253
  0.165  0.750  0.085
    occupations:
  0.910 -0.042  0.024
 -0.042  0.890  0.023
  0.024  0.023  0.916
atom    9   Tr[ns(na)] =   5.43163
    eigenvalues: 
  0.842  0.929  0.945
    eigenvectors:
  0.338  0.000  0.662
  0.496  0.250  0.254
  0.165  0.750  0.085
    occupations:
  0.910  0.042  0.024
  0.042  0.890 -0.023
  0.024 -0.023  0.916
atom   10   Tr[ns(na)] =   5.43163
    eigenvalues: 
  0.842  0.929  0.945
    eigenvectors:
  0.338  0.000  0.662
  0.000  1.000  0.000
  0.662  0.000  0.338
    occupations:
  0.910  0.000 -0.049
  0.000  0.929  0.000
 -0.049  0.000  0.877
N of occupied +U levels =  56.2850792
 --- exit write_ns ---
 --- in v_hubbard ---
Hubbard energy    0.2042
 -------

     total cpu time spent up to now is      368.6 secs

     total energy              =    -538.11617717 Ry
     Harris-Foulkes estimate   =    -538.11616962 Ry
     estimated scf accuracy    <       0.00000001 Ry

     iteration # 11     ecut=    30.00 Ry     beta=0.20
     Davidson diagonalization with overlap
     ethr =  1.56E-11,  avg # of iterations =  2.4
 --- enter write_ns ---
 LDA+U parameters:
U( 1)     =  2.00000000
alpha( 1) =  0.00000000
U( 2)     =  0.00000000
alpha( 2) =  0.00000000
U( 3)     =  0.00000000
alpha( 3) =  0.10000000
U( 4)     =  0.00000000
alpha( 4) =  0.00000000
atom    1   Tr[ns(na)] =   8.05454
    eigenvalues: 
  0.546  0.547  0.978  0.978  0.979
    eigenvectors:
  0.000  0.000  0.003  0.030  0.967
  0.101  0.555  0.177  0.157  0.009
  0.556  0.102  0.165  0.175  0.002
  0.176  0.167  0.099  0.546  0.012
  0.167  0.176  0.556  0.092  0.009
    occupations:
  0.979  0.000  0.000  0.000  0.000
  0.000  0.695  0.000 -0.074  0.191
  0.000  0.000  0.694  0.191  0.074
  0.000 -0.074  0.191  0.830  0.000
  0.000  0.191  0.074  0.000  0.830
atom    2   Tr[ns(na)] =   8.05317
    eigenvalues: 
  0.544  0.545  0.979  0.979  0.980
    eigenvectors:
  0.000  0.000  0.004  0.032  0.965
  0.236  0.421  0.018  0.316  0.009
  0.421  0.236  0.323  0.016  0.003
  0.317  0.026  0.643  0.013  0.001
  0.026  0.317  0.011  0.624  0.022
    occupations:
  0.980  0.000  0.000  0.000  0.000
  0.000  0.694  0.000  0.074  0.192
  0.000  0.000  0.694  0.192 -0.074
  0.000  0.074  0.192  0.830  0.000
  0.000  0.192 -0.074  0.000  0.830
atom    3   Tr[ns(na)] =   3.79718
    eigenvalues: 
  0.356  0.356  0.382  0.402  0.402
    eigenvectors:
  0.000  0.000  1.000  0.000  0.000
  0.692  0.230  0.000  0.009  0.069
  0.230  0.692  0.000  0.069  0.009
  0.020  0.058  0.000  0.812  0.110
  0.058  0.020  0.000  0.110  0.812
    occupations:
  0.382  0.000  0.000  0.000  0.000
  0.000  0.359  0.000  0.000  0.012
  0.000  0.000  0.360  0.012  0.000
  0.000  0.000  0.012  0.399  0.000
  0.000  0.012  0.000  0.000  0.399
atom    4   Tr[ns(na)] =   3.79715
    eigenvalues: 
  0.356  0.356  0.382  0.402  0.402
    eigenvectors:
  0.000  0.000  1.000  0.000  0.000
  0.291  0.629  0.000  0.019  0.060
  0.630  0.291  0.000  0.059  0.019
  0.053  0.026  0.000  0.688  0.233
  0.025  0.054  0.000  0.233  0.688
    occupations:
  0.382  0.000  0.000  0.000  0.000
  0.000  0.360  0.000  0.000  0.013
  0.000  0.000  0.360  0.012  0.000
  0.000  0.000  0.012  0.399  0.000
  0.000  0.013  0.000  0.000  0.399
atom    5   Tr[ns(na)] =   5.42529
    eigenvalues: 
  0.840  0.929  0.944
    eigenvectors:
  0.339  0.000  0.661
  0.496  0.250  0.254
  0.165  0.750  0.085
    occupations:
  0.909 -0.043  0.025
 -0.043  0.889  0.023
  0.025  0.023  0.915
atom    6   Tr[ns(na)] =   5.43160
    eigenvalues: 
  0.842  0.929  0.945
    eigenvectors:
  0.339  0.000  0.661
  0.495  0.251  0.254
  0.166  0.749  0.085
    occupations:
  0.910  0.042  0.024
  0.042  0.890 -0.023
  0.024 -0.023  0.916
atom    7   Tr[ns(na)] =   5.43160
    eigenvalues: 
  0.842  0.929  0.945
    eigenvectors:
  0.339  0.000  0.661
  0.000  1.000  0.000
  0.661  0.000  0.339
    occupations:
  0.910  0.000 -0.049
  0.000  0.929  0.000
 -0.049  0.000  0.877
atom    8   Tr[ns(na)] =   5.43121
    eigenvalues: 
  0.842  0.929  0.945
    eigenvectors:
  0.339  0.000  0.661
  0.496  0.250  0.253
  0.165  0.750  0.085
    occupations:
  0.910 -0.042  0.024
 -0.042  0.890  0.023
  0.024  0.023  0.916
atom    9   Tr[ns(na)] =   5.43165
    eigenvalues: 
  0.842  0.929  0.945
    eigenvectors:
  0.338  0.000  0.662
  0.496  0.250  0.254
  0.165  0.750  0.085
    occupations:
  0.910  0.042  0.024
  0.042  0.890 -0.023
  0.024 -0.023  0.916
atom   10   Tr[ns(na)] =   5.43165
    eigenvalues: 
  0.842  0.929  0.945
    eigenvectors:
  0.338  0.000  0.662
  0.000  1.000  0.000
  0.662  0.000  0.338
    occupations:
  0.910  0.000 -0.049
  0.000  0.929  0.000
 -0.049  0.000  0.877
N of occupied +U levels =  56.2850485
 --- exit write_ns ---
 --- in v_hubbard ---
Hubbard energy    0.2042
 -------

     total cpu time spent up to now is      401.0 secs

     End of self-consistent calculation

          k = 0.0000 0.0000 0.0000 (  2175 PWs)   bands (ev):

   -19.7974 -19.6239  -6.5532  -5.8584  -5.8357  -5.8268  -5.8212  -5.4882
    -3.7891  -3.2591  -3.2206  -3.2189  -3.0240  -3.0233   5.2064   6.8687
     6.8767   7.4347   7.4396   7.4842   7.5243   7.5353   7.7259   9.3035
     9.5135   9.6239   9.6326   9.6986   9.7005  10.1141  10.1171  10.3637
    10.4661  10.4692  10.6824  11.2982  11.3006  11.7710  12.0646  12.0670
    14.7646  14.7671  15.4254  15.4270  16.1967  16.7831

     occupation numbers 
     0.0313   0.0313   0.0313   0.0313   0.0313   0.0313   0.0313   0.0313
     0.0313   0.0313   0.0313   0.0313   0.0313   0.0313   0.0313   0.0313
     0.0313   0.0313   0.0313   0.0313   0.0313   0.0313   0.0313   0.0313
     0.0312   0.0312   0.0312   0.0312   0.0312   0.0312   0.0312   0.0312
     0.0312   0.0312   0.0312   0.0306   0.0306   0.0204   0.0083   0.0082
     0.0000   0.0000   0.0000   0.0000   0.0000   0.0000

          k =-0.2471-0.1427 0.1027 (  2181 PWs)   bands (ev):

   -19.7702 -19.6530  -6.7313  -6.2948  -5.9497  -5.8534  -5.6174  -5.4852
    -3.5950  -3.3917  -2.9329  -2.9044  -2.8506  -2.7600   5.5638   6.8728
     6.9708   6.9929   7.0344   7.4147   7.4507   7.5350   7.6326   8.4422
     8.4896   9.0804   9.6477   9.7567   9.7832  10.0087  10.3538  10.3638
    10.5386  10.5409  10.6699  11.4563  11.5233  11.5634  12.3247  12.3926
    14.3111  14.3189  15.8149  16.0679  16.9713  17.2650

     occupation numbers 
     0.0625   0.0625   0.0625   0.0625   0.0625   0.0625   0.0625   0.0625
     0.0625   0.0625   0.0625   0.0625   0.0625   0.0625   0.0625   0.0625
     0.0625   0.0625   0.0625   0.0625   0.0625   0.0625   0.0625   0.0625
     0.0625   0.0625   0.0625   0.0625   0.0625   0.0625   0.0625   0.0625
     0.0625   0.0625   0.0625   0.0582   0.0559   0.0542   0.0040   0.0024
     0.0000   0.0000   0.0000   0.0000   0.0000   0.0000

          k = 0.4942 0.2853-0.2053 (  2202 PWs)   bands (ev):

   -19.7133 -19.7121  -6.7344  -6.7135  -5.9723  -5.9567  -5.5333  -5.5199
    -3.3830  -3.3777  -2.7911  -2.7897  -2.5091  -2.5047   6.0403   6.0608
     7.1471   7.1639   7.2196   7.2465   7.5038   7.5236   7.6987   7.7295
     7.9140   7.9450   9.4829   9.4900   9.8686   9.8797  10.2790  10.2900
    10.9285  10.9418  11.0550  11.0671  11.2778  11.2935  13.2924  13.3277
    13.3778  13.4102  16.8326  16.8358  17.1297  17.1329

     occupation numbers 
     0.0313   0.0313   0.0313   0.0313   0.0313   0.0313   0.0313   0.0313
     0.0313   0.0313   0.0313   0.0313   0.0313   0.0313   0.0313   0.0313
     0.0313   0.0313   0.0313   0.0313   0.0313   0.0313   0.0313   0.0313
     0.0313   0.0313   0.0313   0.0313   0.0312   0.0312   0.0312   0.0312
     0.0312   0.0312   0.0312   0.0312   0.0307   0.0306   0.0000   0.0000
     0.0000   0.0000   0.0000   0.0000   0.0000   0.0000

          k =-0.2471 0.1427 0.2053 (  2195 PWs)   bands (ev):

   -19.7647 -19.6596  -6.8507  -6.2358  -6.0655  -5.8495  -5.6668  -5.4598
    -3.4134  -3.2612  -3.1009  -2.8909  -2.8172  -2.5592   5.5862   6.7657
     6.8046   6.8668   7.2224   7.4581   7.4891   7.5273   7.5691   8.5448
     8.6082   8.7923   9.2883   9.6443   9.9351  10.0432  10.0467  10.1513
    10.2762  10.9941  11.1298  11.1447  11.4782  11.5541  11.9682  12.7377
    13.6362  14.7811  15.9910  16.1922  17.0330  17.5363

     occupation numbers 
     0.0625   0.0625   0.0625   0.0625   0.0625   0.0625   0.0625   0.0625
     0.0625   0.0625   0.0625   0.0625   0.0625   0.0625   0.0625   0.0625
     0.0625   0.0625   0.0625   0.0625   0.0625   0.0625   0.0625   0.0625
     0.0625   0.0625   0.0625   0.0625   0.0625   0.0625   0.0625   0.0625
     0.0625   0.0624   0.0622   0.0622   0.0575   0.0546   0.0241   0.0001
     0.0000   0.0000   0.0000   0.0000   0.0000   0.0000

          k = 0.4942 0.5706-0.1027 (  2198 PWs)   bands (ev):

   -19.7287 -19.6973  -6.9517  -6.6511  -6.1261  -5.9090  -5.5233  -5.3821
    -3.3031  -3.2518  -2.8771  -2.7065  -2.5270  -2.3835   5.8867   6.2439
     6.5874   6.9605   7.1725   7.3215   7.4385   7.6298   7.6685   7.8470
     8.1704   8.7656   9.0420   9.3014   9.6060   9.8090   9.9202  10.3467
    10.5815  11.0542  11.1609  11.2352  11.3708  11.4505  12.3152  12.7404
    13.4302  14.3587  16.9023  17.1121  17.3072  18.0136

     occupation numbers 
     0.0625   0.0625   0.0625   0.0625   0.0625   0.0625   0.0625   0.0625
     0.0625   0.0625   0.0625   0.0625   0.0625   0.0625   0.0625   0.0625
     0.0625   0.0625   0.0625   0.0625   0.0625   0.0625   0.0625   0.0625
     0.0625   0.0625   0.0625   0.0625   0.0625   0.0625   0.0625   0.0625
     0.0625   0.0624   0.0621   0.0617   0.0602   0.0583   0.0042   0.0001
     0.0000   0.0000   0.0000   0.0000   0.0000   0.0000

          k = 0.2471 0.4280 0.0000 (  2203 PWs)   bands (ev):

   -19.7389 -19.6860  -6.8536  -6.6355  -6.0677  -5.9762  -5.4383  -5.3787
    -3.5165  -3.2916  -2.7989  -2.7120  -2.5699  -2.5581   5.8929   6.2715
     6.8411   7.0724   7.1597   7.2477   7.4252   7.4862   7.5632   7.9214
     8.1548   8.9342   9.1399   9.4143   9.7607   9.7799  10.0621  10.3539
    10.8915  10.9213  10.9996  11.1845  11.2142  11.5470  12.2383  13.3203
    13.3951  14.1572  16.4343  16.9895  17.4176  17.9249

     occupation numbers 
     0.0625   0.0625   0.0625   0.0625   0.0625   0.0625   0.0625   0.0625
     0.0625   0.0625   0.0625   0.0625   0.0625   0.0625   0.0625   0.0625
     0.0625   0.0625   0.0625   0.0625   0.0625   0.0625   0.0625   0.0625
     0.0625   0.0625   0.0625   0.0625   0.0625   0.0625   0.0625   0.0625
     0.0625   0.0625   0.0624   0.0620   0.0619   0.0549   0.0069   0.0000
     0.0000   0.0000   0.0000   0.0000   0.0000   0.0000

          k = 0.4942-0.2853-0.4107 (  2202 PWs)   bands (ev):

   -19.7316 -19.6950  -7.1618  -6.4536  -6.2340  -5.9884  -5.5454  -5.2892
    -3.1922  -3.1190  -3.0433  -2.6472  -2.4791  -2.2207   5.7908   6.1046
     6.2601   6.8586   7.1525   7.2602   7.5573   7.6567   8.1687   8.2516
     8.2628   8.3359   8.6011   9.4371   9.6865   9.8593  10.0409  10.0707
    10.4296  10.9451  11.1156  11.2720  11.4053  11.5812  11.8973  12.4275
    13.3323  14.7944  17.0396  17.2626  17.5164  17.6083

     occupation numbers 
     0.0313   0.0313   0.0313   0.0313   0.0313   0.0313   0.0313   0.0313
     0.0313   0.0313   0.0313   0.0313   0.0313   0.0313   0.0313   0.0313
     0.0313   0.0313   0.0313   0.0313   0.0313   0.0313   0.0313   0.0313
     0.0313   0.0313   0.0313   0.0313   0.0312   0.0312   0.0312   0.0312
     0.0312   0.0312   0.0311   0.0307   0.0297   0.0267   0.0151   0.0009
     0.0000   0.0000   0.0000   0.0000   0.0000   0.0000

          k = 0.0000 0.0000 0.3080 (  2187 PWs)   bands (ev):

   -19.7699 -19.6534  -6.6195  -5.9888  -5.9409  -5.9274  -5.8501  -5.8384
    -3.2038  -3.1175  -3.1151  -2.9670  -2.8966  -2.8946   5.6241   6.9660
     6.9746   7.1362   7.1474   7.3590   7.3667   7.5658   7.5747   8.6523
     8.6555   9.1550   9.4464   9.5940   9.6049   9.7729  10.1242  10.1343
    10.6640  10.6667  10.8198  11.4903  11.4922  11.5665  12.2980  12.2996
    14.2705  14.2730  15.9083  15.9102  16.8781  17.4796

     occupation numbers 
     0.0625   0.0625   0.0625   0.0625   0.0625   0.0625   0.0625   0.0625
     0.0625   0.0625   0.0625   0.0625   0.0625   0.0625   0.0625   0.0625
     0.0625   0.0625   0.0625   0.0625   0.0625   0.0625   0.0625   0.0625
     0.0625   0.0625   0.0625   0.0625   0.0625   0.0625   0.0625   0.0625
     0.0625   0.0625   0.0625   0.0571   0.0571   0.0540   0.0047   0.0047
     0.0000   0.0000   0.0000   0.0000   0.0000   0.0000

          k = 0.7412 0.4280 0.0000 (  2204 PWs)   bands (ev):

   -19.7386 -19.6865  -6.7347  -6.6086  -6.1462  -5.8338  -5.6855  -5.5559
    -3.1753  -3.0898  -3.0437  -2.6749  -2.6556  -2.5854   5.9213   6.4927
     6.8083   7.1045   7.1813   7.2859   7.3885   7.4851   7.6897   7.8801
     8.2151   8.7987   9.1559   9.4707   9.5784   9.6876   9.8461  10.2270
    10.8890  11.0052  11.0344  11.2558  11.2743  11.4120  12.2405  13.2445
    13.3127  14.1797  16.6863  16.7222  17.5904  17.7925

     occupation numbers 
     0.0625   0.0625   0.0625   0.0625   0.0625   0.0625   0.0625   0.0625
     0.0625   0.0625   0.0625   0.0625   0.0625   0.0625   0.0625   0.0625
     0.0625   0.0625   0.0625   0.0625   0.0625   0.0625   0.0625   0.0625
     0.0625   0.0625   0.0625   0.0625   0.0625   0.0625   0.0625   0.0625
     0.0625   0.0624   0.0624   0.0616   0.0614   0.0593   0.0068   0.0000
     0.0000   0.0000   0.0000   0.0000   0.0000   0.0000

          k = 0.4942 0.2853 0.1027 (  2211 PWs)   bands (ev):

   -19.7283 -19.6964  -6.9781  -6.5454  -6.3256  -5.7016  -5.6241  -5.3667
    -3.3175  -3.1634  -3.0308  -2.6034  -2.5616  -2.3791   5.9312   6.2033
     6.5547   6.9592   7.2115   7.2228   7.4645   7.6242   7.7475   7.8308
     8.1939   8.8502   9.0339   9.3973   9.4711   9.6601  10.0017  10.3461
    10.6121  11.1135  11.2497  11.2571  11.3072  11.3317  12.2704  12.7559
    13.4726  14.3422  16.8838  16.9331  17.5788  17.9258

     occupation numbers 
     0.0625   0.0625   0.0625   0.0625   0.0625   0.0625   0.0625   0.0625
     0.0625   0.0625   0.0625   0.0625   0.0625   0.0625   0.0625   0.0625
     0.0625   0.0625   0.0625   0.0625   0.0625   0.0625   0.0625   0.0625
     0.0625   0.0625   0.0625   0.0625   0.0625   0.0625   0.0625   0.0625
     0.0625   0.0623   0.0616   0.0616   0.0611   0.0608   0.0057   0.0001
     0.0000   0.0000   0.0000   0.0000   0.0000   0.0000

          k = 0.7412-0.4280-0.3080 (  2210 PWs)   bands (ev):

   -19.7288 -19.6974  -6.9039  -6.4570  -6.3009  -5.8140  -5.7661  -5.4830
    -3.0686  -3.0515  -2.9637  -2.7278  -2.6212  -2.4263   5.9855   6.3627
     6.6037   6.9321   7.1933   7.2604   7.4982   7.6498   7.7823   7.8616
     8.1816   8.8468   8.9093   9.4574   9.5078   9.5208   9.6586  10.1921
    10.6919  11.1274  11.2242  11.2460  11.3687  11.3987  12.2284  12.7066
    13.4249  14.3100  17.0576  17.0665  17.5481  17.9011

     occupation numbers 
     0.0625   0.0625   0.0625   0.0625   0.0625   0.0625   0.0625   0.0625
     0.0625   0.0625   0.0625   0.0625   0.0625   0.0625   0.0625   0.0625
     0.0625   0.0625   0.0625   0.0625   0.0625   0.0625   0.0625   0.0625
     0.0625   0.0625   0.0625   0.0625   0.0625   0.0625   0.0625   0.0625
     0.0625   0.0622   0.0618   0.0617   0.0602   0.0596   0.0073   0.0001
     0.0000   0.0000   0.0000   0.0000   0.0000   0.0000

          k = 0.4942-0.5706-0.2053 (  2206 PWs)   bands (ev):

   -19.7131 -19.7128  -6.8893  -6.8739  -6.0521  -6.0301  -5.4382  -5.4248
    -3.1507  -3.1503  -2.8150  -2.8116  -2.3838  -2.3802   6.0649   6.0861
     6.7369   6.7472   7.0785   7.0838   7.3781   7.3895   7.8884   7.9246
     8.7772   8.7929   8.8773   8.8907   9.5270   9.5381  10.0761  10.0822
    10.8983  10.9008  11.1194  11.1218  11.4238  11.4302  12.2854  12.2888
    14.0035  14.0133  17.4251  17.4266  17.8651  17.8690

     occupation numbers 
     0.0625   0.0625   0.0625   0.0625   0.0625   0.0625   0.0625   0.0625
     0.0625   0.0625   0.0625   0.0625   0.0625   0.0625   0.0625   0.0625
     0.0625   0.0625   0.0625   0.0625   0.0625   0.0625   0.0625   0.0625
     0.0625   0.0625   0.0625   0.0625   0.0625   0.0625   0.0625   0.0625
     0.0625   0.0625   0.0622   0.0622   0.0590   0.0589   0.0051   0.0050
     0.0000   0.0000   0.0000   0.0000   0.0000   0.0000

          k = 0.0000 0.0000-0.6160 (  2186 PWs)   bands (ev):

   -19.7136 -19.7122  -6.5218  -6.4992  -5.9638  -5.9379  -5.9363  -5.9348
    -2.8951  -2.8904  -2.8894  -2.8884  -2.7081  -2.7050   6.2711   6.2932
     7.1635   7.1684   7.1808   7.1954   7.5923   7.6232   7.8422   7.8451
     7.8709   7.8742   9.6184   9.6196   9.6292   9.6365   9.6907   9.7083
    11.1132  11.1259  11.1827  11.1854  11.1961  11.2002  13.2321  13.2341
    13.2651  13.2677  17.1145  17.1156  17.1169  17.1190

     occupation numbers 
     0.0313   0.0313   0.0313   0.0313   0.0313   0.0313   0.0313   0.0313
     0.0313   0.0313   0.0313   0.0313   0.0313   0.0313   0.0313   0.0313
     0.0313   0.0313   0.0313   0.0313   0.0313   0.0313   0.0313   0.0313
     0.0313   0.0313   0.0312   0.0312   0.0312   0.0312   0.0312   0.0312
     0.0311   0.0311   0.0310   0.0310   0.0310   0.0310   0.0000   0.0000
     0.0000   0.0000   0.0000   0.0000   0.0000   0.0000

          k =-0.2471 0.1427-0.1027 (  2181 PWs)   bands (ev):

   -19.7702 -19.6530  -6.7312  -6.2945  -5.9485  -5.8563  -5.6176  -5.4833
    -3.5963  -3.3910  -2.9335  -2.9038  -2.8500  -2.7606   5.5647   6.8748
     6.9760   6.9859   7.0356   7.4163   7.4480   7.5269   7.6397   8.4406
     8.4929   9.0779   9.6417   9.7618   9.7842  10.0097  10.3512  10.3677
    10.5370  10.5434  10.6683  11.4559  11.5239  11.5622  12.3234  12.3939
    14.3094  14.3206  15.8138  16.0695  16.9718  17.2662

     occupation numbers 
     0.0625   0.0625   0.0625   0.0625   0.0625   0.0625   0.0625   0.0625
     0.0625   0.0625   0.0625   0.0625   0.0625   0.0625   0.0625   0.0625
     0.0625   0.0625   0.0625   0.0625   0.0625   0.0625   0.0625   0.0625
     0.0625   0.0625   0.0625   0.0625   0.0625   0.0625   0.0625   0.0625
     0.0625   0.0625   0.0625   0.0582   0.0559   0.0542   0.0040   0.0024
     0.0000   0.0000   0.0000   0.0000   0.0000   0.0000

          k = 0.0000 0.2853 0.1027 (  2181 PWs)   bands (ev):

   -19.7702 -19.6530  -6.7313  -6.2948  -5.9494  -5.8536  -5.6176  -5.4850
    -3.5950  -3.3917  -2.9329  -2.9044  -2.8506  -2.7600   5.5638   6.8728
     6.9708   6.9932   7.0341   7.4148   7.4506   7.5348   7.6327   8.4424
     8.4895   9.0804   9.6479   9.7566   9.7830  10.0088  10.3546  10.3629
    10.5375  10.5419  10.6700  11.4563  11.5235  11.5632  12.3247  12.3926
    14.3110  14.3190  15.8149  16.0679  16.9713  17.2650

     occupation numbers 
     0.0625   0.0625   0.0625   0.0625   0.0625   0.0625   0.0625   0.0625
     0.0625   0.0625   0.0625   0.0625   0.0625   0.0625   0.0625   0.0625
     0.0625   0.0625   0.0625   0.0625   0.0625   0.0625   0.0625   0.0625
     0.0625   0.0625   0.0625   0.0625   0.0625   0.0625   0.0625   0.0625
     0.0625   0.0625   0.0625   0.0582   0.0559   0.0542   0.0040   0.0024
     0.0000   0.0000   0.0000   0.0000   0.0000   0.0000

          k = 0.4942-0.2853 0.2053 (  2202 PWs)   bands (ev):

   -19.7134 -19.7120  -6.7338  -6.7138  -5.9721  -5.9578  -5.5333  -5.5189
    -3.3822  -3.3794  -2.7918  -2.7885  -2.5090  -2.5052   6.0400   6.0632
     7.1511   7.1794   7.2184   7.2344   7.4925   7.5179   7.7033   7.7322
     7.9165   7.9441   9.4795   9.4865   9.8696   9.8887  10.2765  10.2899
    10.9298  10.9420  11.0551  11.0682  11.2771  11.2907  13.2919  13.3258
    13.3780  13.4123  16.8314  16.8363  17.1310  17.1347

     occupation numbers 
     0.0313   0.0313   0.0313   0.0313   0.0313   0.0313   0.0313   0.0313
     0.0313   0.0313   0.0313   0.0313   0.0313   0.0313   0.0313   0.0313
     0.0313   0.0313   0.0313   0.0313   0.0313   0.0313   0.0313   0.0313
     0.0313   0.0313   0.0313   0.0313   0.0312   0.0312   0.0312   0.0312
     0.0312   0.0312   0.0312   0.0312   0.0307   0.0306   0.0000   0.0000
     0.0000   0.0000   0.0000   0.0000   0.0000   0.0000

          k = 0.0000-0.5706-0.2053 (  2202 PWs)   bands (ev):

   -19.7133 -19.7121  -6.7336  -6.7144  -5.9705  -5.9584  -5.5356  -5.5175
[...]
     0.0625   0.0625   0.0625   0.0625   0.0625   0.0625   0.0625   0.0625
     0.0625   0.0625   0.0625   0.0625   0.0625   0.0625   0.0625   0.0625
     0.0625   0.0624   0.0622   0.0622   0.0575   0.0545   0.0240   0.0001
     0.0000   0.0000   0.0000   0.0000   0.0000   0.0000

          k = 0.4942-0.5706 0.1027 (  2198 PWs)   bands (ev):

   -19.7279 -19.6968  -6.9624  -6.6474  -6.1363  -5.8890  -5.5167  -5.3915
    -3.3048  -3.2521  -2.8757  -2.7082  -2.5285  -2.3857   5.8972   6.2350
     6.5960   6.9670   7.1807   7.3324   7.4414   7.6154   7.6566   7.8606
     8.1568   8.7759   9.0296   9.2941   9.6105   9.8047   9.9181  10.3537
    10.5845  11.0465  11.1671  11.2382  11.3737  11.4402  12.3161  12.7407
    13.4263  14.3604  16.9042  17.1112  17.3083  18.0141

     occupation numbers 
     0.0625   0.0625   0.0625   0.0625   0.0625   0.0625   0.0625   0.0625
     0.0625   0.0625   0.0625   0.0625   0.0625   0.0625   0.0625   0.0625
     0.0625   0.0625   0.0625   0.0625   0.0625   0.0625   0.0625   0.0625
     0.0625   0.0625   0.0625   0.0625   0.0625   0.0625   0.0625   0.0625
     0.0625   0.0624   0.0621   0.0617   0.0601   0.0586   0.0042   0.0001
     0.0000   0.0000   0.0000   0.0000   0.0000   0.0000

          k =-0.7412 0.1427-0.1027 (  2198 PWs)   bands (ev):

   -19.7279 -19.6968  -6.9619  -6.6483  -6.1352  -5.8900  -5.5157  -5.3922
    -3.3040  -3.2522  -2.8756  -2.7093  -2.5279  -2.3861   5.8992   6.2313
     6.6002   6.9661   7.1764   7.3337   7.4309   7.6283   7.6720   7.8430
     8.1574   8.7708   9.0336   9.2951   9.6129   9.8039   9.9186  10.3519
    10.5849  11.0502  11.1618  11.2393  11.3699  11.4440  12.3163  12.7410
    13.4264  14.3606  16.9023  17.1140  17.3078  18.0139

     occupation numbers 
     0.0625   0.0625   0.0625   0.0625   0.0625   0.0625   0.0625   0.0625
     0.0625   0.0625   0.0625   0.0625   0.0625   0.0625   0.0625   0.0625
     0.0625   0.0625   0.0625   0.0625   0.0625   0.0625   0.0625   0.0625
     0.0625   0.0625   0.0625   0.0625   0.0625   0.0625   0.0625   0.0625
     0.0625   0.0624   0.0621   0.0617   0.0602   0.0585   0.0042   0.0001
     0.0000   0.0000   0.0000   0.0000   0.0000   0.0000

          k = 0.2471-0.7133-0.1027 (  2198 PWs)   bands (ev):

   -19.7279 -19.6968  -6.9622  -6.6478  -6.1362  -5.8891  -5.5150  -5.3933
    -3.3039  -3.2521  -2.8759  -2.7083  -2.5280  -2.3863   5.8986   6.2311
     6.5989   6.9673   7.1779   7.3317   7.4303   7.6272   7.6739   7.8443
     8.1571   8.7707   9.0355   9.2964   9.6080   9.8074   9.9161  10.3529
    10.5849  11.0516  11.1612  11.2342  11.3734  11.4451  12.3162  12.7410
    13.4264  14.3606  16.9038  17.1118  17.3077  18.0129

     occupation numbers 
     0.0625   0.0625   0.0625   0.0625   0.0625   0.0625   0.0625   0.0625
     0.0625   0.0625   0.0625   0.0625   0.0625   0.0625   0.0625   0.0625
     0.0625   0.0625   0.0625   0.0625   0.0625   0.0625   0.0625   0.0625
     0.0625   0.0625   0.0625   0.0625   0.0625   0.0625   0.0625   0.0625
     0.0625   0.0624   0.0621   0.0617   0.0601   0.0585   0.0042   0.0001
     0.0000   0.0000   0.0000   0.0000   0.0000   0.0000

          k =-0.7412-0.1427 0.1027 (  2198 PWs)   bands (ev):

   -19.7279 -19.6968  -6.9627  -6.6470  -6.1372  -5.8881  -5.5160  -5.3926
    -3.3047  -3.2520  -2.8761  -2.7073  -2.5286  -2.3860   5.8966   6.2348
     6.5947   6.9683   7.1820   7.3305   7.4404   7.6145   7.6586   7.8617
     8.1566   8.7757   9.0315   9.2955   9.6057   9.8081   9.9157  10.3547
    10.5845  11.0478  11.1665  11.2331  11.3773  11.4413  12.3160  12.7408
    13.4263  14.3604  16.9057  17.1090  17.3082  18.0132

     occupation numbers 
     0.0625   0.0625   0.0625   0.0625   0.0625   0.0625   0.0625   0.0625
     0.0625   0.0625   0.0625   0.0625   0.0625   0.0625   0.0625   0.0625
     0.0625   0.0625   0.0625   0.0625   0.0625   0.0625   0.0625   0.0625
     0.0625   0.0625   0.0625   0.0625   0.0625   0.0625   0.0625   0.0625
     0.0625   0.0624   0.0621   0.0617   0.0600   0.0586   0.0042   0.0001
     0.0000   0.0000   0.0000   0.0000   0.0000   0.0000

          k = 0.2471 0.7133 0.1027 (  2198 PWs)   bands (ev):

   -19.7287 -19.6973  -6.9522  -6.6502  -6.1273  -5.9079  -5.5242  -5.3814
    -3.3039  -3.2517  -2.8772  -2.7054  -2.5276  -2.3831   5.8847   6.2477
     6.5831   6.9615   7.1768   7.3200   7.4489   7.6167   7.6540   7.8636
     8.1700   8.7705   9.0382   9.3006   9.6037   9.8095   9.9199  10.3485
    10.5811  11.0505  11.1660  11.2343  11.3747  11.4468  12.3150  12.7402
    13.4301  14.3585  16.9042  17.1092  17.3078  18.0137

     occupation numbers 
     0.0625   0.0625   0.0625   0.0625   0.0625   0.0625   0.0625   0.0625
     0.0625   0.0625   0.0625   0.0625   0.0625   0.0625   0.0625   0.0625
     0.0625   0.0625   0.0625   0.0625   0.0625   0.0625   0.0625   0.0625
     0.0625   0.0625   0.0625   0.0625   0.0625   0.0625   0.0625   0.0625
     0.0625   0.0624   0.0621   0.0617   0.0601   0.0585   0.0042   0.0001
     0.0000   0.0000   0.0000   0.0000   0.0000   0.0000

          k = 0.2471-0.4280 0.0000 (  2203 PWs)   bands (ev):

   -19.7390 -19.6858  -6.8489  -6.6453  -6.0475  -5.9872  -5.4487  -5.3722
    -3.5180  -3.2917  -2.8010  -2.7075  -2.5687  -2.5602   5.8823   6.2779
     6.8360   7.0747   7.1688   7.2512   7.4168   7.4949   7.5593   7.9301
     8.1634   8.9219   9.1345   9.3958   9.7642   9.7847  10.0614  10.3576
    10.8945  10.9235  11.0018  11.1876  11.2143  11.5407  12.2385  13.3219
    13.3969  14.1540  16.4337  16.9915  17.4197  17.9245

     occupation numbers 
     0.0625   0.0625   0.0625   0.0625   0.0625   0.0625   0.0625   0.0625
     0.0625   0.0625   0.0625   0.0625   0.0625   0.0625   0.0625   0.0625
     0.0625   0.0625   0.0625   0.0625   0.0625   0.0625   0.0625   0.0625
     0.0625   0.0625   0.0625   0.0625   0.0625   0.0625   0.0625   0.0625
     0.0625   0.0625   0.0624   0.0620   0.0619   0.0552   0.0069   0.0000
     0.0000   0.0000   0.0000   0.0000   0.0000   0.0000

          k =-0.4942 0.0000 0.0000 (  2203 PWs)   bands (ev):

   -19.7390 -19.6858  -6.8489  -6.6454  -6.0475  -5.9872  -5.4487  -5.3723
    -3.5180  -3.2916  -2.8010  -2.7075  -2.5685  -2.5604   5.8823   6.2779
     6.8360   7.0753   7.1668   7.2526   7.4168   7.4952   7.5593   7.9298
     8.1635   8.9219   9.1345   9.3959   9.7648   9.7841  10.0615  10.3576
    10.8945  10.9234  11.0019  11.1876  11.2144  11.5407  12.2385  13.3219
    13.3969  14.1540  16.4337  16.9915  17.4197  17.9235

     occupation numbers 
     0.0625   0.0625   0.0625   0.0625   0.0625   0.0625   0.0625   0.0625
     0.0625   0.0625   0.0625   0.0625   0.0625   0.0625   0.0625   0.0625
     0.0625   0.0625   0.0625   0.0625   0.0625   0.0625   0.0625   0.0625
     0.0625   0.0625   0.0625   0.0625   0.0625   0.0625   0.0625   0.0625
     0.0625   0.0625   0.0624   0.0620   0.0619   0.0552   0.0069   0.0000
     0.0000   0.0000   0.0000   0.0000   0.0000   0.0000

          k = 0.4942 0.2853 0.4107 (  2202 PWs)   bands (ev):

   -19.7301 -19.6939  -7.1736  -6.4580  -6.2455  -5.9638  -5.5305  -5.3012
    -3.1929  -3.1199  -3.0436  -2.6513  -2.4815  -2.2240   5.8069   6.1188
     6.2409   6.8645   7.1658   7.2751   7.5661   7.6638   8.1714   8.2369
     8.2468   8.3140   8.6184   9.4164   9.6818   9.8597  10.0392  10.0772
    10.4374  10.9458  11.1123  11.2746  11.4067  11.5736  11.8982  12.4283
    13.3276  14.7963  17.0407  17.2633  17.5188  17.6101

     occupation numbers 
     0.0313   0.0313   0.0313   0.0313   0.0313   0.0313   0.0313   0.0313
     0.0313   0.0313   0.0313   0.0313   0.0313   0.0313   0.0313   0.0313
     0.0313   0.0313   0.0313   0.0313   0.0313   0.0313   0.0313   0.0313
     0.0313   0.0313   0.0313   0.0313   0.0312   0.0312   0.0312   0.0312
     0.0312   0.0312   0.0311   0.0307   0.0297   0.0268   0.0150   0.0009
     0.0000   0.0000   0.0000   0.0000   0.0000   0.0000

          k = 0.0000 0.5706-0.4107 (  2202 PWs)   bands (ev):

   -19.7301 -19.6939  -7.1736  -6.4581  -6.2454  -5.9638  -5.5306  -5.3012
    -3.1929  -3.1199  -3.0436  -2.6513  -2.4815  -2.2240   5.8069   6.1188
     6.2409   6.8645   7.1658   7.2751   7.5657   7.6642   8.1715   8.2369
     8.2469   8.3138   8.6185   9.4165   9.6817   9.8597  10.0393  10.0770
    10.4374  10.9458  11.1124  11.2743  11.4068  11.5736  11.8982  12.4283
    13.3276  14.7963  17.0407  17.2633  17.5188  17.6101

     occupation numbers 
     0.0313   0.0313   0.0313   0.0313   0.0313   0.0313   0.0313   0.0313
     0.0313   0.0313   0.0313   0.0313   0.0313   0.0313   0.0313   0.0313
     0.0313   0.0313   0.0313   0.0313   0.0313   0.0313   0.0313   0.0313
     0.0313   0.0313   0.0313   0.0313   0.0312   0.0312   0.0312   0.0312
     0.0312   0.0312   0.0311   0.0307   0.0297   0.0268   0.0150   0.0009
     0.0000   0.0000   0.0000   0.0000   0.0000   0.0000

          k = 0.7412-0.4280 0.0000 (  2204 PWs)   bands (ev):

   -19.7385 -19.6866  -6.7393  -6.5997  -6.1516  -5.8382  -5.6894  -5.5459
    -3.1739  -3.0900  -3.0437  -2.6777  -2.6573  -2.5830   5.9343   6.4837
     6.8178   7.0995   7.1745   7.2778   7.3932   7.4858   7.6878   7.8711
     8.2070   8.8107   9.1637   9.4853   9.5773   9.6850   9.8463  10.2228
    10.8861  11.0027  11.0317  11.2523  11.2757  11.4162  12.2406  13.2430
    13.3108  14.1828  16.6878  16.7212  17.5890  17.7922

     occupation numbers 
     0.0625   0.0625   0.0625   0.0625   0.0625   0.0625   0.0625   0.0625
     0.0625   0.0625   0.0625   0.0625   0.0625   0.0625   0.0625   0.0625
     0.0625   0.0625   0.0625   0.0625   0.0625   0.0625   0.0625   0.0625
     0.0625   0.0625   0.0625   0.0625   0.0625   0.0625   0.0625   0.0625
     0.0625   0.0624   0.0624   0.0616   0.0614   0.0592   0.0068   0.0000
     0.0000   0.0000   0.0000   0.0000   0.0000   0.0000

          k = 0.0000-0.8559 0.0000 (  2204 PWs)   bands (ev):

   -19.7386 -19.6865  -6.7347  -6.6085  -6.1463  -5.8339  -5.6855  -5.5558
    -3.1753  -3.0898  -3.0437  -2.6748  -2.6556  -2.5854   5.9213   6.4926
     6.8083   7.1040   7.1833   7.2845   7.3884   7.4851   7.6894   7.8805
     8.2151   8.7987   9.1559   9.4707   9.5786   9.6874   9.8462  10.2270
    10.8890  11.0051  11.0345  11.2557  11.2744  11.4120  12.2405  13.2445
    13.3127  14.1797  16.6862  16.7222  17.5904  17.7926

     occupation numbers 
     0.0625   0.0625   0.0625   0.0625   0.0625   0.0625   0.0625   0.0625
     0.0625   0.0625   0.0625   0.0625   0.0625   0.0625   0.0625   0.0625
     0.0625   0.0625   0.0625   0.0625   0.0625   0.0625   0.0625   0.0625
     0.0625   0.0625   0.0625   0.0625   0.0625   0.0625   0.0625   0.0625
     0.0625   0.0624   0.0624   0.0616   0.0614   0.0593   0.0068   0.0000
     0.0000   0.0000   0.0000   0.0000   0.0000   0.0000

          k = 0.4942-0.2853-0.1027 (  2211 PWs)   bands (ev):

   -19.7291 -19.6969  -6.9682  -6.5480  -6.3242  -5.7107  -5.6324  -5.3573
    -3.3173  -3.1633  -3.0305  -2.6015  -2.5615  -2.3763   5.9196   6.2172
     6.5422   6.9548   7.2068   7.2153   7.4640   7.6263   7.7450   7.8358
     8.2063   8.8432   9.0410   9.3941   9.4645   9.6779  10.0052  10.3390
    10.6077  11.1149  11.2509  11.2594  11.3059  11.3334  12.2695  12.7554
    13.4764  14.3402  16.8833  16.9334  17.5793  17.9255

     occupation numbers 
     0.0625   0.0625   0.0625   0.0625   0.0625   0.0625   0.0625   0.0625
     0.0625   0.0625   0.0625   0.0625   0.0625   0.0625   0.0625   0.0625
     0.0625   0.0625   0.0625   0.0625   0.0625   0.0625   0.0625   0.0625
     0.0625   0.0625   0.0625   0.0625   0.0625   0.0625   0.0625   0.0625
     0.0625   0.0623   0.0616   0.0616   0.0611   0.0607   0.0057   0.0001
     0.0000   0.0000   0.0000   0.0000   0.0000   0.0000

          k = 0.0000-0.5706 0.1027 (  2211 PWs)   bands (ev):

   -19.7283 -19.6964  -6.9781  -6.5454  -6.3256  -5.7015  -5.6243  -5.3666
    -3.3175  -3.1634  -3.0308  -2.6033  -2.5617  -2.3791   5.9311   6.2034
     6.5547   6.9593   7.2148   7.2195   7.4642   7.6243   7.7473   7.8314
     8.1937   8.8502   9.0339   9.3974   9.4710   9.6600  10.0017  10.3461
    10.6121  11.1136  11.2489  11.2576  11.3078  11.3313  12.2704  12.7559
    13.4726  14.3422  16.8838  16.9331  17.5788  17.9258

     occupation numbers 
     0.0625   0.0625   0.0625   0.0625   0.0625   0.0625   0.0625   0.0625
     0.0625   0.0625   0.0625   0.0625   0.0625   0.0625   0.0625   0.0625
     0.0625   0.0625   0.0625   0.0625   0.0625   0.0625   0.0625   0.0625
     0.0625   0.0625   0.0625   0.0625   0.0625   0.0625   0.0625   0.0625
     0.0625   0.0623   0.0616   0.0616   0.0611   0.0608   0.0057   0.0001
     0.0000   0.0000   0.0000   0.0000   0.0000   0.0000

          k = 0.7412 0.4280 0.3080 (  2210 PWs)   bands (ev):

   -19.7280 -19.6969  -6.9148  -6.4539  -6.3040  -5.7962  -5.7623  -5.4941
    -3.0691  -3.0511  -2.9625  -2.7303  -2.6226  -2.4289   5.9987   6.3459
     6.6164   6.9379   7.2009   7.2684   7.4968   7.6458   7.7859   7.8581
     8.1687   8.8541   8.9018   9.4562   9.5078   9.5129   9.6562  10.1989
    10.6951  11.1243  11.2238  11.2480  11.3653  11.3978  12.2292  12.7072
    13.4212  14.3119  17.0583  17.0670  17.5472  17.9015

     occupation numbers 
     0.0625   0.0625   0.0625   0.0625   0.0625   0.0625   0.0625   0.0625
     0.0625   0.0625   0.0625   0.0625   0.0625   0.0625   0.0625   0.0625
     0.0625   0.0625   0.0625   0.0625   0.0625   0.0625   0.0625   0.0625
     0.0625   0.0625   0.0625   0.0625   0.0625   0.0625   0.0625   0.0625
     0.0625   0.0622   0.0618   0.0616   0.0602   0.0596   0.0073   0.0001
     0.0000   0.0000   0.0000   0.0000   0.0000   0.0000

          k = 0.0000 0.8559-0.3080 (  2210 PWs)   bands (ev):

   -19.7280 -19.6969  -6.9148  -6.4539  -6.3041  -5.7962  -5.7623  -5.4941
    -3.0691  -3.0511  -2.9625  -2.7303  -2.6226  -2.4289   5.9987   6.3459
     6.6165   6.9378   7.2009   7.2685   7.4967   7.6459   7.7875   7.8562
     8.1689   8.8544   8.9016   9.4560   9.5073   9.5134   9.6563  10.1989
    10.6950  11.1245  11.2229  11.2487  11.3651  11.3979  12.2291  12.7072
    13.4212  14.3119  17.0584  17.0669  17.5472  17.9015

     occupation numbers 
     0.0625   0.0625   0.0625   0.0625   0.0625   0.0625   0.0625   0.0625
     0.0625   0.0625   0.0625   0.0625   0.0625   0.0625   0.0625   0.0625
     0.0625   0.0625   0.0625   0.0625   0.0625   0.0625   0.0625   0.0625
     0.0625   0.0625   0.0625   0.0625   0.0625   0.0625   0.0625   0.0625
     0.0625   0.0622   0.0618   0.0616   0.0602   0.0596   0.0073   0.0001
     0.0000   0.0000   0.0000   0.0000   0.0000   0.0000

          k = 0.2471 0.7133-0.2053 (  2206 PWs)   bands (ev):

   -19.7131 -19.7128  -6.8891  -6.8741  -6.0519  -6.0304  -5.4382  -5.4248
    -3.1507  -3.1503  -2.8151  -2.8115  -2.3834  -2.3806   6.0649   6.0861
     6.7360   6.7482   7.0785   7.0837   7.3780   7.3895   7.8877   7.9252
     8.7797   8.7902   8.8767   8.8916   9.5281   9.5370  10.0758  10.0826
    10.8991  10.8999  11.1168  11.1244  11.4231  11.4308  12.2855  12.2887
    14.0035  14.0134  17.4247  17.4269  17.8665  17.8677

     occupation numbers 
     0.0625   0.0625   0.0625   0.0625   0.0625   0.0625   0.0625   0.0625
     0.0625   0.0625   0.0625   0.0625   0.0625   0.0625   0.0625   0.0625
     0.0625   0.0625   0.0625   0.0625   0.0625   0.0625   0.0625   0.0625
     0.0625   0.0625   0.0625   0.0625   0.0625   0.0625   0.0625   0.0625
     0.0625   0.0625   0.0623   0.0622   0.0591   0.0589   0.0051   0.0050
     0.0000   0.0000   0.0000   0.0000   0.0000   0.0000

          k =-0.7412-0.1427-0.2053 (  2206 PWs)   bands (ev):

   -19.7124 -19.7123  -6.9004  -6.8757  -6.0325  -6.0309  -5.4458  -5.4242
    -3.1519  -3.1505  -2.8125  -2.8114  -2.3899  -2.3804   6.0638   6.0815
     6.7471   6.7501   7.0784   7.1074   7.3897   7.3929   7.8820   7.9153
     8.7743   8.7795   8.8775   8.8823   9.5217   9.5245  10.0863  10.0871
    10.9039  10.9057  11.1174  11.1221  11.4221  11.4255  12.2857  12.2900
    14.0028  14.0127  17.4249  17.4255  17.8671  17.8695

     occupation numbers 
     0.0625   0.0625   0.0625   0.0625   0.0625   0.0625   0.0625   0.0625
     0.0625   0.0625   0.0625   0.0625   0.0625   0.0625   0.0625   0.0625
     0.0625   0.0625   0.0625   0.0625   0.0625   0.0625   0.0625   0.0625
     0.0625   0.0625   0.0625   0.0625   0.0625   0.0625   0.0625   0.0625
     0.0625   0.0625   0.0623   0.0622   0.0591   0.0590   0.0051   0.0050
     0.0000   0.0000   0.0000   0.0000   0.0000   0.0000

     the Fermi energy is    11.8844 ev

!    total energy              =    -538.11619054 Ry
     Harris-Foulkes estimate   =    -538.11617718 Ry
     estimated scf accuracy    <          6.7E-09 Ry

     The total energy is the sum of the following terms:

     one-electron contribution =     -32.91349167 Ry
     hartree contribution      =      83.65347869 Ry
     xc contribution           =    -199.59550221 Ry
     ewald contribution        =    -389.44315552 Ry
     Hubbard energy            =       0.20424591 Ry
     smearing contrib. (-TS)   =      -0.02176574 Ry

     convergence has been achieved in  11 iterations

     init_run     :      7.12s CPU      7.24s WALL (       1 calls)
     electrons    :    381.29s CPU    393.29s WALL (       1 calls)

     Called by init_run:
     wfcinit      :      0.00s CPU      0.00s WALL (       1 calls)
     potinit      :      0.30s CPU      0.33s WALL (       1 calls)

     Called by electrons:
     c_bands      :    296.05s CPU    305.09s WALL (      11 calls)
     sum_band     :     62.35s CPU     63.48s WALL (      11 calls)
     v_of_rho     :      3.11s CPU      3.13s WALL (      12 calls)
     v_h          :      0.18s CPU      0.18s WALL (      12 calls)
     v_xc         :      2.93s CPU      2.95s WALL (      12 calls)
     newd         :     21.02s CPU     21.76s WALL (      12 calls)
     mix_rho      :      0.32s CPU      0.32s WALL (      11 calls)

     Called by c_bands:
     init_us_2    :      3.00s CPU      3.09s WALL (     792 calls)
     cegterg      :    287.51s CPU    295.61s WALL (     396 calls)

     Called by sum_band:
     sum_band:bec :      0.29s CPU      0.30s WALL (     396 calls)
     addusdens    :     13.33s CPU     13.34s WALL (      11 calls)

     Called by *egterg:
     h_psi        :    209.48s CPU    215.80s WALL (    1599 calls)
     s_psi        :     11.88s CPU     12.21s WALL (    1599 calls)
     g_psi        :      0.94s CPU      0.97s WALL (    1203 calls)
     cdiaghg      :     27.22s CPU     27.69s WALL (    1563 calls)
     cegterg:over :     14.01s CPU     14.34s WALL (    1203 calls)
     cegterg:upda :      9.57s CPU      9.75s WALL (    1203 calls)
     cegterg:last :      6.32s CPU      6.47s WALL (     445 calls)

     Called by h_psi:
     h_psi:vloc   :    171.18s CPU    176.31s WALL (    1599 calls)
     h_psi:vnl    :     24.25s CPU     24.94s WALL (    1599 calls)
     add_vuspsi   :     11.95s CPU     12.30s WALL (    1599 calls)
     vhpsi        :     13.53s CPU     14.00s WALL (    1599 calls)

     General routines
     calbec       :     25.27s CPU     25.89s WALL (    3990 calls)
     fft          :      2.12s CPU      2.14s WALL (     187 calls)
     ffts         :      0.06s CPU      0.06s WALL (      23 calls)
     fftw         :    161.74s CPU    165.82s WALL (  111050 calls)
     interpolate  :      0.36s CPU      0.37s WALL (      23 calls)
     davcio       :      0.01s CPU      0.97s WALL (     828 calls)

     Parallel routines
     fft_scatter  :     41.83s CPU     42.87s WALL (  111260 calls)
     Hubbard U routines
     new_ns       :      2.54s CPU      3.13s WALL (      11 calls)
     vhpsi        :     13.53s CPU     14.00s WALL (    1599 calls)

     PWSCF        :  6m28.84s CPU     6m41.77s WALL


   This run was terminated on:  15:30:33  11Nov2012            

=------------------------------------------------------------------------------=
