   JOB DONE.
=------------------------------------------------------------------------------=

     Program PWSCF v.5.0.1 starts on 11Nov2012 at 15:14:55 

     This program is part of the open-source Quantum ESPRESSO suite
     for quantum simulation of materials; please cite
         "P. Giannozzi et al., J. Phys.:Condens. Matter 21 395502 (2009);
          URL http://www.quantum-espresso.org", 
     in publications or presentations arising from this work. More details at
     http://www.quantum-espresso.org/quote.php

     Parallel version (MPI), running on     2 processors
     R & G space division:  proc/pool =    2

     Current dimensions of program PWSCF are:
     Max number of different atomic species (ntypx) = 10
     Max number of k-points (npk) =  40000
     Max angular momentum in pseudopotentials (lmaxx) =  3
     Reading input from CoLaO_U500_a15.in
               file Co.pbe-nd-rrkjus.UPF: wavefunction(s)  4S 3D renormalized
               file O.pbe-rrkjus.UPF: wavefunction(s)  2S renormalized

     Subspace diagonalization in iterative solution of the eigenvalue problem:
     a serial algorithm will be used


     Parallelization info
     --------------------
     sticks:   dense  smooth     PW     G-vecs:    dense   smooth      PW
     Min        1112     444    131                34808     8786    1448
     Max        1113     445    132                34809     8787    1449
     Sum        2225     889    263                69617    17573    2897


     Title: 
     GGA + U, U = 5.000, alpha = 0.150                                          


     bravais-lattice index     =            5
     lattice parameter (alat)  =      10.3292  a.u.
     unit-cell volume          =     793.0599 (a.u.)^3
     number of atoms/cell      =           10
     number of atomic types    =            4
     number of electrons       =        76.00
     number of Kohn-Sham states=           46
     kinetic-energy cutoff     =      30.0000  Ry
     charge density cutoff     =     300.0000  Ry
     convergence threshold     =      1.0E-08
     mixing beta               =       0.2000
     number of iterations used =            8  plain     mixing
     Exchange-correlation      =  SLA  PW   PBE  PBE ( 1 4 3 4 0)
     EXX-fraction              =        0.00

     celldm(1)=  10.329242  celldm(2)=   0.000000  celldm(3)=   0.000000
     celldm(4)=   0.488100  celldm(5)=   0.000000  celldm(6)=   0.000000

     crystal axes: (cart. coord. in units of alat)
               a(1) = (   0.505915  -0.292090   0.811624 )  
               a(2) = (   0.000000   0.584180   0.811624 )  
               a(3) = (  -0.505915  -0.292090   0.811624 )  

     reciprocal axes: (cart. coord. in units 2 pi/alat)
               b(1) = (  0.988308 -0.570600  0.410699 )  
               b(2) = (  0.000000  1.141200  0.410699 )  
               b(3) = ( -0.988308 -0.570600  0.410699 )  


     PseudoPot. # 1 for Co read from file:
     /home/mcurnan/dft-course/Project1/example_LaCoO3/Co.pbe-nd-rrkjus.UPF
     MD5 check sum: 3e47a84addf5e975e0edeaeee2a73f59
     Pseudo is Ultrasoft + core correction, Zval =  9.0
     Generated by new atomic code, or converted to UPF format
     Using radial grid of  961 points,  6 beta functions with: 
                l(1) =   0
                l(2) =   0
                l(3) =   1
                l(4) =   1
                l(5) =   2
                l(6) =   2
     Q(r) pseudized with 0 coefficients 


     PseudoPot. # 2 for La read from file:
     /home/mcurnan/dft-course/Project1/example_LaCoO3/La.pbe-nsp-van.UPF
     MD5 check sum: b2f11743f52dde65f77d1302becd7929
     Pseudo is Ultrasoft + core correction, Zval = 11.0
     Generated by new atomic code, or converted to UPF format
     Using radial grid of  907 points,  6 beta functions with: 
                l(1) =   0
                l(2) =   0
                l(3) =   1
                l(4) =   1
                l(5) =   2
                l(6) =   2
     Q(r) pseudized with  6 coefficients,  rinner =    1.200   1.200   1.200
                                                       1.200   1.200

     PseudoPot. # 3 for La read from file:
     /home/mcurnan/dft-course/Project1/example_LaCoO3/La.pbe-nsp-van.UPF
     MD5 check sum: b2f11743f52dde65f77d1302becd7929
     Pseudo is Ultrasoft + core correction, Zval = 11.0
     Generated by new atomic code, or converted to UPF format
     Using radial grid of  907 points,  6 beta functions with: 
                l(1) =   0
                l(2) =   0
                l(3) =   1
                l(4) =   1
                l(5) =   2
                l(6) =   2
     Q(r) pseudized with  6 coefficients,  rinner =    1.200   1.200   1.200
                                                       1.200   1.200

     PseudoPot. # 4 for O  read from file:
     /home/mcurnan/dft-course/Project1/example_LaCoO3/O.pbe-rrkjus.UPF
     MD5 check sum: 390ba29e75625707450f3bd3f0eb6be9
     Pseudo is Ultrasoft, Zval =  6.0
     Generated by new atomic code, or converted to UPF format
     Using radial grid of 1269 points,  4 beta functions with: 
                l(1) =   0
                l(2) =   0
                l(3) =   1
                l(4) =   1
     Q(r) pseudized with 0 coefficients 


     atomic species   valence    mass     pseudopotential
        Co1            9.00     1.00000     Co( 1.00)
        La1           11.00     1.00000     La( 1.00)
        La2           11.00     1.00000     La( 1.00)
        O1             6.00     1.00000     O ( 1.00)
 -----
     simplified LDA+U calculation, Hubbard_lmax = 2
     atomic species  L   Hubbard U  Hubbard alpha
        Co1          2    5.000000    0.000000
        La1          2    0.000000    0.150000
        La2          2    0.000000    0.000000
        O1           1    0.000000    0.000000
 -----

      3 Sym. Ops. (no inversion) found


                                    s                        frac. trans.

      isym =  1     identity                                     

 cryst.   s( 1) = (     1          0          0      )
                  (     0          1          0      )
                  (     0          0          1      )

 cart.    s( 1) = (  1.0000000  0.0000000  0.0000000 )
                  (  0.0000000  1.0000000  0.0000000 )
                  (  0.0000000  0.0000000  1.0000000 )


      isym =  2     120 deg rotation - cryst. axis [0,0,1]       

 cryst.   s( 2) = (     0          1          0      )
                  (     0          0          1      )
                  (     1          0          0      )

 cart.    s( 2) = ( -0.5000000 -0.8660254  0.0000000 )
                  (  0.8660254 -0.5000000  0.0000000 )
                  (  0.0000000  0.0000000  1.0000000 )


      isym =  3     120 deg rotation - cryst. axis [0,0,-1]      

 cryst.   s( 3) = (     0          0          1      )
                  (     1          0          0      )
                  (     0          1          0      )

 cart.    s( 3) = ( -0.5000000  0.8660254  0.0000000 )
                  ( -0.8660254 -0.5000000  0.0000000 )
                  (  0.0000000  0.0000000  1.0000000 )


     point group C_3 (3)    
     there are  3 classes
     the character table:

       E     C3    C3^2 
A      1.00  1.00  1.00
E      1.00 -0.50 -0.50
E*     1.00 -0.50 -0.50
     imaginary part
A      0.00  0.00  0.00
E      0.00  0.87 -0.87
E*     0.00 -0.87  0.87

     the symmetry operations in each class:
     E        1
     C3       2
     C3^2     3

   Cartesian axes

     site n.     atom                  positions (alat units)
         1           Co1 tau(   1) = (   0.0000000   0.0000000   1.8261537  )
         2           Co1 tau(   2) = (   0.0000000   0.0000000   0.6087179  )
         3           La1 tau(   3) = (   0.0000000   0.0000000   0.0000000  )
         4           La2 tau(   4) = (   0.0000000   0.0000000   1.2174358  )
         5           O1  tau(   5) = (   0.2831100  -0.0928263   1.6236536  )
         6           O1  tau(   6) = (  -0.2219449  -0.1987674   1.6236536  )
         7           O1  tau(   7) = (  -0.0611651   0.2915936   1.6236536  )
         8           O1  tau(   8) = (   0.2228050   0.3849164   1.2170300  )
         9           O1  tau(   9) = (   0.2219449  -0.3854130   1.2170300  )
        10           O1  tau(  10) = (  -0.4447499   0.0004966   1.2170300  )

   Crystallographic axes

     site n.     atom                  positions (cryst. coord.)
         1           Co1 tau(   1) = (  0.7500000  0.7500000  0.7500000  )
         2           Co1 tau(   2) = (  0.2500000  0.2500000  0.2500000  )
         3           La1 tau(   3) = (  0.0000000  0.0000000  0.0000000  )
         4           La2 tau(   4) = (  0.5000000  0.5000000  0.5000000  )
         5           O1  tau(   5) = (  0.9996000  0.5609000  0.4400000  )
         6           O1  tau(   6) = (  0.5609000  0.4400000  0.9996000  )
         7           O1  tau(   7) = (  0.4400000  0.9996000  0.5609000  )
         8           O1  tau(   8) = (  0.5004000  0.9391000  0.0600000  )
         9           O1  tau(   9) = (  0.9391000  0.0600000  0.5004000  )
        10           O1  tau(  10) = (  0.0600000  0.5004000  0.9391000  )

     number of k points=    14  gaussian smearing, width (Ry)=  0.0300
                       cart. coord. in units 2pi/alat
        k(    1) = (   0.0000000   0.0000000   0.0000000), wk =   0.0312500
        k(    2) = (  -0.2470771  -0.1426500   0.1026748), wk =   0.1875000
        k(    3) = (   0.4941541   0.2853000  -0.2053496), wk =   0.0937500
        k(    4) = (  -0.2470771   0.1426500   0.2053496), wk =   0.1875000
        k(    5) = (   0.4941541   0.5706001  -0.1026748), wk =   0.1875000
        k(    6) = (   0.2470771   0.4279500   0.0000000), wk =   0.1875000
        k(    7) = (   0.4941541  -0.2853000  -0.4106993), wk =   0.0937500
        k(    8) = (   0.0000000   0.0000000   0.3080244), wk =   0.0625000
        k(    9) = (   0.7412312   0.4279500   0.0000000), wk =   0.1875000
        k(   10) = (   0.4941541   0.2853000   0.1026748), wk =   0.1875000
        k(   11) = (   0.7412312  -0.4279500  -0.3080244), wk =   0.1875000
        k(   12) = (   0.4941541  -0.5706001  -0.2053496), wk =   0.1875000
        k(   13) = (   0.0000000   0.0000000  -0.6160489), wk =   0.0312500
        k(   14) = (   0.4941541  -0.5706001   0.1026748), wk =   0.1875000

                       cryst. coord.
        k(    1) = (   0.0000000   0.0000000   0.0000000), wk =   0.0312500
        k(    2) = (   0.0000000   0.0000000   0.2500000), wk =   0.1875000
        k(    3) = (   0.0000000   0.0000000  -0.5000000), wk =   0.0937500
        k(    4) = (   0.0000000   0.2500000   0.2500000), wk =   0.1875000
        k(    5) = (   0.0000000   0.2500000  -0.5000000), wk =   0.1875000
        k(    6) = (   0.0000000   0.2500000  -0.2500000), wk =   0.1875000
        k(    7) = (   0.0000000  -0.5000000  -0.5000000), wk =   0.0937500
        k(    8) = (   0.2500000   0.2500000   0.2500000), wk =   0.0625000
        k(    9) = (   0.2500000   0.2500000  -0.5000000), wk =   0.1875000
        k(   10) = (   0.2500000   0.2500000  -0.2500000), wk =   0.1875000
        k(   11) = (   0.2500000  -0.5000000  -0.5000000), wk =   0.1875000
        k(   12) = (   0.2500000  -0.5000000  -0.2500000), wk =   0.1875000
        k(   13) = (  -0.5000000  -0.5000000  -0.5000000), wk =   0.0312500
        k(   14) = (   0.5000000  -0.2500000   0.0000000), wk =   0.1875000

     Dense  grid:    69617 G-vectors     FFT dimensions: (  60,  60,  60)

     Smooth grid:    17573 G-vectors     FFT dimensions: (  40,  40,  40)

     Largest allocated arrays     est. size (Mb)     dimensions
        Kohn-Sham Wavefunctions         0.78 Mb     (   1117,   46)
        Atomic wavefunctions            1.06 Mb     (   1117,   62)
        NL pseudopotentials             2.05 Mb     (   1117,  120)
        Each V/rho on FFT grid          1.65 Mb     ( 108000)
        Each G-vector array             0.27 Mb     (  34808)
        G-vector shells                 0.04 Mb     (   4682)
     Largest temporary arrays     est. size (Mb)     dimensions
        Auxiliary wavefunctions         3.14 Mb     (   1117,  184)
        Each subspace H/S matrix        0.52 Mb     ( 184, 184)
        Each <psi_i|beta_j> matrix      0.08 Mb     (    120,   46)
        Arrays for rho mixing          13.18 Mb     ( 108000,   8)

     Check: negative/imaginary core charge=   -0.000028    0.000000

     The initial density is read from file :
     /home/mcurnan/dft-course/Project1/example_LaCoO3/500/La/alpha/CoLaO_U500.save/charge-density.dat

 --- in v_hubbard ---
Hubbard energy    0.5204
 -------
     Number of +U iterations with fixed ns =  0
     Starting occupations:
 --- enter write_ns ---
 LDA+U parameters:
U( 1)     =  5.00000000
alpha( 1) =  0.00000000
U( 2)     =  0.00000000
alpha( 2) =  0.15000000
U( 3)     =  0.00000000
alpha( 3) =  0.00000000
U( 4)     =  0.00000000
alpha( 4) =  0.00000000
atom    1   Tr[ns(na)] =   8.02205
    eigenvalues: 
  0.596  0.596  0.938  0.941  0.941
    eigenvectors:
  0.000  0.000  1.000  0.000  0.000
  0.334  0.321  0.000  0.004  0.341
  0.321  0.334  0.000  0.341  0.004
  0.288  0.057  0.000  0.515  0.140
  0.057  0.288  0.000  0.140  0.515
    occupations:
  0.938  0.000  0.000  0.000  0.000
  0.000  0.715  0.000 -0.060  0.152
  0.000  0.000  0.715  0.152  0.060
  0.000 -0.060  0.152  0.822  0.000
  0.000  0.152  0.060  0.000  0.822
atom    2   Tr[ns(na)] =   8.02143
    eigenvalues: 
  0.595  0.595  0.938  0.941  0.941
    eigenvectors:
  0.000  0.000  1.000  0.000  0.000
  0.638  0.017  0.000  0.223  0.122
  0.017  0.638  0.000  0.122  0.223
  0.015  0.330  0.000  0.470  0.185
  0.330  0.015  0.000  0.185  0.470
    occupations:
  0.938  0.000  0.000  0.000  0.000
  0.000  0.715  0.000  0.060  0.153
  0.000  0.000  0.715  0.153 -0.060
  0.000  0.060  0.153  0.822  0.000
  0.000  0.153 -0.060  0.000  0.822
atom    3   Tr[ns(na)] =   3.80283
    eigenvalues: 
  0.355  0.355  0.384  0.403  0.403
    eigenvectors:
  0.000  0.000  1.000  0.000  0.000
  0.781  0.140  0.000  0.012  0.068
  0.140  0.781  0.000  0.068  0.012
  0.013  0.067  0.000  0.780  0.140
  0.067  0.013  0.000  0.140  0.780
    occupations:
  0.384  0.000  0.000  0.000  0.000
  0.000  0.359  0.000  0.000  0.013
  0.000  0.000  0.359  0.013  0.000
  0.000  0.000  0.013  0.399  0.000
  0.000  0.013  0.000  0.000  0.399
atom    4   Tr[ns(na)] =   3.80283
    eigenvalues: 
  0.355  0.355  0.384  0.403  0.403
    eigenvectors:
  0.000  0.000  1.000  0.000  0.000
  0.781  0.140  0.000  0.012  0.068
  0.140  0.781  0.000  0.068  0.012
  0.013  0.067  0.000  0.780  0.140
  0.067  0.013  0.000  0.140  0.780
    occupations:
  0.384  0.000  0.000  0.000  0.000
  0.000  0.359  0.000  0.000  0.013
  0.000  0.000  0.359  0.013  0.000
  0.000  0.000  0.013  0.399  0.000
  0.000  0.013  0.000  0.000  0.399
atom    5   Tr[ns(na)] =   5.43358
    eigenvalues: 
  0.846  0.929  0.941
    eigenvectors:
  0.340  0.000  0.660
  0.496  0.250  0.255
  0.164  0.750  0.086
    occupations:
  0.909 -0.039  0.022
 -0.039  0.891  0.022
  0.022  0.022  0.917
atom    6   Tr[ns(na)] =   5.43358
    eigenvalues: 
  0.846  0.929  0.941
    eigenvectors:
  0.340  0.000  0.660
  0.494  0.250  0.256
  0.166  0.750  0.085
    occupations:
  0.909  0.039  0.022
  0.039  0.891 -0.022
  0.022 -0.022  0.917
atom    7   Tr[ns(na)] =   5.43358
    eigenvalues: 
  0.846  0.929  0.941
    eigenvectors:
  0.340  0.000  0.660
  0.000  1.000  0.000
  0.660  0.000  0.340
    occupations:
  0.909  0.000 -0.045
  0.000  0.929  0.000
 -0.045  0.000  0.879
atom    8   Tr[ns(na)] =   5.43358
    eigenvalues: 
  0.846  0.929  0.941
    eigenvectors:
  0.340  0.000  0.660
  0.496  0.250  0.255
  0.164  0.750  0.086
    occupations:
  0.909 -0.039  0.022
 -0.039  0.891  0.022
  0.022  0.022  0.917
atom    9   Tr[ns(na)] =   5.43358
    eigenvalues: 
  0.846  0.929  0.941
    eigenvectors:
  0.340  0.000  0.660
  0.494  0.250  0.256
  0.166  0.750  0.085
    occupations:
  0.909  0.039  0.022
  0.039  0.891 -0.022
  0.022 -0.022  0.917
atom   10   Tr[ns(na)] =   5.43358
    eigenvalues: 
  0.846  0.929  0.941
    eigenvectors:
  0.340  0.000  0.660
  0.000  1.000  0.000
  0.660  0.000  0.340
    occupations:
  0.909  0.000 -0.045
  0.000  0.929  0.000
 -0.045  0.000  0.879
N of occupied +U levels =  56.2506014
 --- exit write_ns ---
 LDA+U Projector read from file 
     Starting wfc from file

     total cpu time spent up to now is        8.4 secs

     per-process dynamical memory:    47.1 Mb

     Self-consistent Calculation

     iteration #  1     ecut=    30.00 Ry     beta=0.20
     Davidson diagonalization with overlap
     c_bands:  1 eigenvalues not converged
     c_bands:  1 eigenvalues not converged
     c_bands:  1 eigenvalues not converged
     c_bands:  1 eigenvalues not converged
     c_bands:  1 eigenvalues not converged
     c_bands:  1 eigenvalues not converged
     c_bands:  1 eigenvalues not converged
     c_bands:  1 eigenvalues not converged
     c_bands:  1 eigenvalues not converged
     ethr =  1.00E-10,  avg # of iterations = 18.6
 --- enter write_ns ---
 LDA+U parameters:
U( 1)     =  5.00000000
alpha( 1) =  0.00000000
U( 2)     =  0.00000000
alpha( 2) =  0.15000000
U( 3)     =  0.00000000
alpha( 3) =  0.00000000
U( 4)     =  0.00000000
alpha( 4) =  0.00000000
atom    1   Tr[ns(na)] =   8.22165
    eigenvalues: 
  0.568  0.568  0.991  0.991  0.994
    eigenvectors:
  0.000  0.000  0.000  0.000  1.000
  0.330  0.324  0.004  0.342  0.000
  0.324  0.330  0.342  0.004  0.000
  0.288  0.058  0.514  0.141  0.000
  0.058  0.288  0.141  0.514  0.000
    occupations:
  0.994  0.000  0.000  0.000  0.000
  0.000  0.714  0.000 -0.073  0.188
  0.000  0.000  0.714  0.188  0.073
  0.000 -0.073  0.188  0.844  0.000
  0.000  0.188  0.073  0.000  0.844
atom    2   Tr[ns(na)] =   8.21235
    eigenvalues: 
  0.565  0.565  0.991  0.991  0.994
    eigenvectors:
  0.000  0.000  0.000  0.000  1.000
  0.634  0.021  0.221  0.124  0.000
  0.021  0.634  0.124  0.221  0.000
  0.012  0.334  0.469  0.185  0.000
  0.334  0.012  0.185  0.469  0.000
    occupations:
  0.994  0.000  0.000  0.000  0.000
  0.000  0.712  0.000  0.073  0.189
  0.000  0.000  0.712  0.189 -0.073
  0.000  0.073  0.189  0.844  0.000
  0.000  0.189 -0.073  0.000  0.844
atom    3   Tr[ns(na)] =   3.73785
    eigenvalues: 
  0.350  0.350  0.376  0.396  0.396
    eigenvectors:
  0.000  0.000  1.000  0.000  0.000
  0.771  0.143  0.000  0.013  0.074
  0.143  0.771  0.000  0.074  0.013
  0.014  0.072  0.000  0.772  0.142
  0.072  0.014  0.000  0.142  0.772
    occupations:
  0.376  0.000  0.000  0.000  0.000
  0.000  0.354  0.000  0.000  0.013
  0.000  0.000  0.354  0.013  0.000
  0.000  0.000  0.013  0.392  0.000
  0.000  0.013  0.000  0.000  0.392
atom    4   Tr[ns(na)] =   3.78968
    eigenvalues: 
  0.356  0.356  0.381  0.401  0.401
    eigenvectors:
  0.000  0.000  1.000  0.000  0.000
  0.775  0.142  0.000  0.012  0.071
  0.142  0.775  0.000  0.071  0.012
  0.014  0.070  0.000  0.775  0.141
  0.070  0.014  0.000  0.141  0.775
    occupations:
  0.381  0.000  0.000  0.000  0.000
  0.000  0.360  0.000  0.000  0.013
  0.000  0.000  0.360  0.013  0.000
  0.000  0.000  0.013  0.397  0.000
  0.000  0.013  0.000  0.000  0.397
atom    5   Tr[ns(na)] =   5.38857
    eigenvalues: 
  0.825  0.924  0.945
    eigenvectors:
  0.341  0.000  0.659
  0.495  0.250  0.255
  0.165  0.750  0.086
    occupations:
  0.904 -0.049  0.028
 -0.049  0.880  0.025
  0.028  0.025  0.910
atom    6   Tr[ns(na)] =   5.38857
    eigenvalues: 
  0.825  0.924  0.945
    eigenvectors:
  0.341  0.000  0.659
  0.494  0.250  0.256
  0.165  0.750  0.085
    occupations:
  0.904  0.049  0.028
  0.049  0.881 -0.025
  0.028 -0.025  0.910
atom    7   Tr[ns(na)] =   5.38857
    eigenvalues: 
  0.825  0.924  0.945
    eigenvectors:
  0.341  0.000  0.659
  0.000  1.000  0.000
  0.659  0.000  0.341
    occupations:
  0.904  0.000 -0.057
  0.000  0.924  0.000
 -0.057  0.000  0.866
atom    8   Tr[ns(na)] =   5.38847
    eigenvalues: 
  0.825  0.924  0.946
    eigenvectors:
  0.341  0.000  0.659
  0.495  0.250  0.255
  0.165  0.750  0.086
    occupations:
  0.904 -0.049  0.029
 -0.049  0.880  0.025
  0.029  0.025  0.909
atom    9   Tr[ns(na)] =   5.38847
    eigenvalues: 
  0.825  0.924  0.946
    eigenvectors:
  0.341  0.000  0.659
  0.494  0.250  0.256
  0.165  0.750  0.085
    occupations:
  0.904  0.049  0.029
  0.049  0.881 -0.025
  0.029 -0.025  0.909
atom   10   Tr[ns(na)] =   5.38847
    eigenvalues: 
  0.825  0.924  0.946
    eigenvectors:
  0.341  0.000  0.659
  0.000  1.000  0.000
  0.659  0.000  0.341
    occupations:
  0.904  0.000 -0.057
  0.000  0.924  0.000
 -0.057  0.000  0.866
N of occupied +U levels =  56.2926481
 --- exit write_ns ---
 --- in v_hubbard ---
Hubbard energy    0.5014
 -------

     total cpu time spent up to now is       45.5 secs

     total energy              =    -537.86425999 Ry
     Harris-Foulkes estimate   =    -537.87453463 Ry
     estimated scf accuracy    <       0.05008146 Ry

     iteration #  2     ecut=    30.00 Ry     beta=0.20
     Davidson diagonalization with overlap
     ethr =  6.59E-05,  avg # of iterations =  1.9
 --- enter write_ns ---
 LDA+U parameters:
U( 1)     =  5.00000000
alpha( 1) =  0.00000000
U( 2)     =  0.00000000
alpha( 2) =  0.15000000
U( 3)     =  0.00000000
alpha( 3) =  0.00000000
U( 4)     =  0.00000000
alpha( 4) =  0.00000000
atom    1   Tr[ns(na)] =   8.02621
    eigenvalues: 
  0.517  0.517  0.992  0.992  0.995
    eigenvectors:
  0.000  0.000  0.000  0.000  1.000
  0.333  0.322  0.004  0.341  0.000
  0.322  0.333  0.341  0.004  0.000
  0.288  0.056  0.515  0.140  0.000
  0.056  0.288  0.140  0.515  0.000
    occupations:
  0.995  0.000  0.000  0.000  0.000
  0.000  0.681  0.000 -0.083  0.210
  0.000  0.000  0.681  0.210  0.083
  0.000 -0.083  0.210  0.828  0.000
  0.000  0.210  0.083  0.000  0.828
atom    2   Tr[ns(na)] =   8.02865
    eigenvalues: 
  0.517  0.517  0.993  0.993  0.996
    eigenvectors:
  0.000  0.000  0.000  0.000  1.000
  0.637  0.018  0.223  0.122  0.000
  0.018  0.637  0.122  0.223  0.000
  0.015  0.330  0.471  0.185  0.000
  0.330  0.015  0.185  0.471  0.000
    occupations:
  0.996  0.000  0.000  0.000  0.000
  0.000  0.681  0.000  0.083  0.211
  0.000  0.000  0.681  0.211 -0.083
  0.000  0.083  0.211  0.829  0.000
  0.000  0.211 -0.083  0.000  0.829
atom    3   Tr[ns(na)] =   3.73899
    eigenvalues: 
  0.350  0.350  0.376  0.397  0.397
    eigenvectors:
  0.000  0.000  1.000  0.000  0.000
  0.777  0.141  0.000  0.012  0.070
  0.141  0.777  0.000  0.070  0.012
  0.013  0.069  0.000  0.776  0.141
  0.069  0.013  0.000  0.141  0.776
    occupations:
  0.376  0.000  0.000  0.000  0.000
  0.000  0.354  0.000  0.000  0.013
  0.000  0.000  0.354  0.013  0.000
  0.000  0.000  0.013  0.393  0.000
  0.000  0.013  0.000  0.000  0.393
atom    4   Tr[ns(na)] =   3.78749
    eigenvalues: 
  0.355  0.355  0.381  0.401  0.401
    eigenvectors:
  0.000  0.000  1.000  0.000  0.000
  0.780  0.140  0.000  0.012  0.068
  0.140  0.780  0.000  0.068  0.012
  0.013  0.067  0.000  0.780  0.140
  0.067  0.013  0.000  0.140  0.780
    occupations:
  0.381  0.000  0.000  0.000  0.000
  0.000  0.359  0.000  0.000  0.012
  0.000  0.000  0.359  0.012  0.000
  0.000  0.000  0.012  0.398  0.000
  0.000  0.012  0.000  0.000  0.398
atom    5   Tr[ns(na)] =   5.44823
    eigenvalues: 
  0.843  0.932  0.949
    eigenvectors:
  0.336  0.000  0.664
  0.497  0.252  0.251
  0.167  0.748  0.085
    occupations:
  0.913 -0.044  0.025
 -0.044  0.892  0.023
  0.025  0.023  0.919
atom    6   Tr[ns(na)] =   5.44823
    eigenvalues: 
  0.843  0.932  0.949
    eigenvectors:
  0.336  0.000  0.664
  0.499  0.248  0.252
  0.165  0.752  0.083
    occupations:
  0.913  0.044  0.025
  0.044  0.892 -0.023
  0.025 -0.023  0.919
atom    7   Tr[ns(na)] =   5.44823
    eigenvalues: 
  0.843  0.932  0.949
    eigenvectors:
  0.336  0.000  0.664
  0.000  1.000  0.000
  0.664  0.000  0.336
    occupations:
  0.913  0.000 -0.050
  0.000  0.932  0.000
 -0.050  0.000  0.878
atom    8   Tr[ns(na)] =   5.44807
    eigenvalues: 
  0.843  0.932  0.950
    eigenvectors:
  0.336  0.000  0.664
  0.497  0.252  0.251
  0.167  0.748  0.085
    occupations:
  0.914 -0.044  0.025
 -0.044  0.892  0.023
  0.025  0.023  0.918
atom    9   Tr[ns(na)] =   5.44807
    eigenvalues: 
  0.843  0.932  0.950
    eigenvectors:
  0.336  0.000  0.664
  0.499  0.248  0.252
  0.165  0.752  0.083
    occupations:
  0.914  0.044  0.025
  0.044  0.892 -0.023
  0.025 -0.023  0.919
atom   10   Tr[ns(na)] =   5.44807
    eigenvalues: 
  0.843  0.932  0.950
    eigenvectors:
  0.336  0.000  0.664
  0.000  1.000  0.000
  0.664  0.000  0.336
    occupations:
  0.914  0.000 -0.051
  0.000  0.932  0.000
 -0.051  0.000  0.879
N of occupied +U levels =  56.2702439
 --- exit write_ns ---
 --- in v_hubbard ---
Hubbard energy    0.4931
 -------

     total cpu time spent up to now is       57.6 secs

     total energy              =    -537.87412301 Ry
     Harris-Foulkes estimate   =    -537.87393191 Ry
     estimated scf accuracy    <       0.03140987 Ry

     iteration #  3     ecut=    30.00 Ry     beta=0.20
     Davidson diagonalization with overlap
     ethr =  4.13E-05,  avg # of iterations =  1.0
 --- enter write_ns ---
 LDA+U parameters:
U( 1)     =  5.00000000
alpha( 1) =  0.00000000
U( 2)     =  0.00000000
alpha( 2) =  0.15000000
U( 3)     =  0.00000000
alpha( 3) =  0.00000000
U( 4)     =  0.00000000
alpha( 4) =  0.00000000
atom    1   Tr[ns(na)] =   8.06763
    eigenvalues: 
  0.527  0.527  0.992  0.992  0.995
    eigenvectors:
  0.000  0.000  0.000  0.000  1.000
  0.334  0.322  0.004  0.341  0.000
  0.322  0.334  0.341  0.004  0.000
  0.288  0.057  0.516  0.140  0.000
  0.057  0.288  0.140  0.516  0.000
    occupations:
  0.995  0.000  0.000  0.000  0.000
  0.000  0.687  0.000 -0.081  0.206
  0.000  0.000  0.687  0.206  0.081
  0.000 -0.081  0.206  0.832  0.000
  0.000  0.206  0.081  0.000  0.832
atom    2   Tr[ns(na)] =   8.06430
    eigenvalues: 
  0.525  0.525  0.993  0.993  0.996
    eigenvectors:
  0.000  0.000  0.000  0.000  1.000
  0.637  0.019  0.222  0.122  0.000
  0.019  0.637  0.122  0.222  0.000
  0.014  0.330  0.471  0.185  0.000
  0.330  0.014  0.185  0.471  0.000
    occupations:
  0.996  0.000  0.000  0.000  0.000
  0.000  0.686  0.000  0.081  0.207
  0.000  0.000  0.686  0.207 -0.081
  0.000  0.081  0.207  0.832  0.000
  0.000  0.207 -0.081  0.000  0.832
atom    3   Tr[ns(na)] =   3.74125
    eigenvalues: 
  0.350  0.350  0.376  0.397  0.397
    eigenvectors:
  0.000  0.000  1.000  0.000  0.000
  0.777  0.141  0.000  0.012  0.070
  0.141  0.777  0.000  0.070  0.012
  0.013  0.069  0.000  0.777  0.141
  0.069  0.013  0.000  0.141  0.777
    occupations:
  0.376  0.000  0.000  0.000  0.000
  0.000  0.354  0.000  0.000  0.013
  0.000  0.000  0.354  0.013  0.000
  0.000  0.000  0.013  0.393  0.000
  0.000  0.013  0.000  0.000  0.393
atom    4   Tr[ns(na)] =   3.78891
    eigenvalues: 
  0.356  0.356  0.381  0.401  0.401
    eigenvectors:
  0.000  0.000  1.000  0.000  0.000
  0.781  0.140  0.000  0.012  0.068
  0.140  0.781  0.000  0.068  0.012
  0.013  0.067  0.000  0.780  0.140
  0.067  0.013  0.000  0.140  0.780
    occupations:
  0.381  0.000  0.000  0.000  0.000
  0.000  0.359  0.000  0.000  0.012
  0.000  0.000  0.359  0.012  0.000
  0.000  0.000  0.012  0.398  0.000
  0.000  0.012  0.000  0.000  0.398
atom    5   Tr[ns(na)] =   5.43570
    eigenvalues: 
  0.839  0.931  0.948
    eigenvectors:
  0.337  0.000  0.663
  0.497  0.251  0.252
  0.166  0.749  0.085
    occupations:
  0.911 -0.045  0.026
 -0.045  0.889  0.024
  0.026  0.024  0.917
atom    6   Tr[ns(na)] =   5.43570
    eigenvalues: 
  0.839  0.931  0.948
    eigenvectors:
  0.337  0.000  0.663
  0.498  0.249  0.253
  0.165  0.751  0.084
    occupations:
  0.911  0.045  0.026
  0.045  0.889 -0.024
  0.026 -0.024  0.917
atom    7   Tr[ns(na)] =   5.43570
    eigenvalues: 
  0.839  0.931  0.948
    eigenvectors:
  0.337  0.000  0.663
  0.000  1.000  0.000
  0.663  0.000  0.337
    occupations:
  0.911  0.000 -0.052
  0.000  0.931  0.000
 -0.052  0.000  0.876
atom    8   Tr[ns(na)] =   5.43562
    eigenvalues: 
  0.839  0.930  0.949
    eigenvectors:
  0.337  0.000  0.663
  0.497  0.251  0.252
  0.166  0.749  0.085
    occupations:
  0.912 -0.045  0.026
 -0.045  0.889  0.024
  0.026  0.024  0.917
atom    9   Tr[ns(na)] =   5.43562
    eigenvalues: 
  0.839  0.930  0.949
    eigenvectors:
  0.337  0.000  0.663
  0.498  0.249  0.253
  0.165  0.751  0.084
    occupations:
  0.912  0.045  0.026
  0.045  0.889 -0.024
  0.026 -0.024  0.917
atom   10   Tr[ns(na)] =   5.43562
    eigenvalues: 
  0.839  0.930  0.949
    eigenvectors:
  0.337  0.000  0.663
  0.000  1.000  0.000
  0.663  0.000  0.337
    occupations:
  0.912  0.000 -0.052
  0.000  0.930  0.000
 -0.052  0.000  0.876
N of occupied +U levels =  56.2760618
 --- exit write_ns ---
 --- in v_hubbard ---
Hubbard energy    0.4181
 -------

     total cpu time spent up to now is       69.8 secs

     total energy              =    -537.87975948 Ry
     Harris-Foulkes estimate   =    -537.87473231 Ry
     estimated scf accuracy    <       0.01506187 Ry

     iteration #  4     ecut=    30.00 Ry     beta=0.20
     Davidson diagonalization with overlap
     ethr =  1.98E-05,  avg # of iterations =  1.7
 --- enter write_ns ---
 LDA+U parameters:
U( 1)     =  5.00000000
alpha( 1) =  0.00000000
U( 2)     =  0.00000000
alpha( 2) =  0.15000000
U( 3)     =  0.00000000
alpha( 3) =  0.00000000
U( 4)     =  0.00000000
alpha( 4) =  0.00000000
atom    1   Tr[ns(na)] =   8.06666
    eigenvalues: 
  0.524  0.524  0.995  0.995  0.997
    eigenvectors:
  0.000  0.000  0.000  0.000  1.000
  0.338  0.320  0.003  0.338  0.000
  0.320  0.338  0.338  0.003  0.000
  0.285  0.056  0.519  0.139  0.000
  0.056  0.285  0.139  0.519  0.000
    occupations:
  0.997  0.000  0.000  0.000  0.000
  0.000  0.684  0.000 -0.083  0.207
  0.000  0.000  0.684  0.207  0.083
  0.000 -0.083  0.207  0.834  0.000
  0.000  0.207  0.083  0.000  0.834
atom    2   Tr[ns(na)] =   8.07838
    eigenvalues: 
  0.525  0.525  0.995  0.995  0.998
    eigenvectors:
  0.000  0.000  0.000  0.000  1.000
  0.639  0.020  0.222  0.120  0.000
  0.020  0.639  0.120  0.222  0.000
  0.014  0.327  0.474  0.184  0.000
  0.327  0.014  0.184  0.474  0.000
    occupations:
  0.998  0.000  0.000  0.000  0.000
  0.000  0.686  0.000  0.083  0.207
  0.000  0.000  0.686  0.207 -0.083
  0.000  0.083  0.207  0.835  0.000
  0.000  0.207 -0.083  0.000  0.835
atom    3   Tr[ns(na)] =   3.76088
    eigenvalues: 
  0.353  0.353  0.378  0.398  0.398
    eigenvectors:
  0.000  0.000  1.000  0.000  0.000
  0.783  0.139  0.000  0.011  0.067
  0.139  0.783  0.000  0.067  0.011
  0.012  0.066  0.000  0.781  0.140
  0.066  0.012  0.000  0.140  0.781
    occupations:
  0.378  0.000  0.000  0.000  0.000
  0.000  0.356  0.000  0.000  0.012
  0.000  0.000  0.356  0.012  0.000
  0.000  0.000  0.012  0.395  0.000
  0.000  0.012  0.000  0.000  0.395
atom    4   Tr[ns(na)] =   3.80060
    eigenvalues: 
  0.357  0.357  0.382  0.402  0.402
    eigenvectors:
  0.000  0.000  1.000  0.000  0.000
  0.786  0.138  0.000  0.011  0.065
  0.138  0.786  0.000  0.065  0.011
  0.012  0.065  0.000  0.784  0.140
  0.065  0.012  0.000  0.140  0.784
    occupations:
  0.382  0.000  0.000  0.000  0.000
  0.000  0.361  0.000  0.000  0.012
  0.000  0.000  0.361  0.012  0.000
  0.000  0.000  0.012  0.399  0.000
  0.000  0.012  0.000  0.000  0.399
atom    5   Tr[ns(na)] =   5.42730
    eigenvalues: 
  0.837  0.930  0.947
    eigenvectors:
  0.337  0.000  0.663
  0.495  0.253  0.252
  0.168  0.747  0.085
    occupations:
  0.910 -0.045  0.026
 -0.045  0.888  0.024
  0.026  0.024  0.916
atom    6   Tr[ns(na)] =   5.42730
    eigenvalues: 
  0.837  0.930  0.947
    eigenvectors:
  0.337  0.000  0.663
  0.500  0.247  0.254
  0.163  0.753  0.083
    occupations:
  0.910  0.045  0.026
  0.045  0.888 -0.024
  0.026 -0.024  0.916
atom    7   Tr[ns(na)] =   5.42730
    eigenvalues: 
  0.837  0.930  0.947
    eigenvectors:
  0.337  0.000  0.663
  0.000  1.000  0.000
  0.663  0.000  0.337
    occupations:
  0.910  0.000 -0.052
  0.000  0.930  0.000
 -0.052  0.000  0.874
atom    8   Tr[ns(na)] =   5.42735
    eigenvalues: 
  0.837  0.929  0.948
    eigenvectors:
  0.337  0.000  0.663
  0.495  0.253  0.252
  0.168  0.747  0.085
    occupations:
  0.910 -0.045  0.026
 -0.045  0.888  0.024
  0.026  0.024  0.915
atom    9   Tr[ns(na)] =   5.42735
    eigenvalues: 
  0.837  0.929  0.948
    eigenvectors:
  0.337  0.000  0.663
  0.500  0.247  0.254
  0.163  0.753  0.083
    occupations:
  0.910  0.046  0.026
  0.046  0.888 -0.024
  0.026 -0.024  0.916
atom   10   Tr[ns(na)] =   5.42735
    eigenvalues: 
  0.837  0.929  0.948
    eigenvectors:
  0.337  0.000  0.663
  0.000  1.000  0.000
  0.663  0.000  0.337
    occupations:
  0.910  0.000 -0.053
  0.000  0.929  0.000
 -0.053  0.000  0.874
N of occupied +U levels =  56.2704590
 --- exit write_ns ---
 --- in v_hubbard ---
Hubbard energy    0.4166
 -------

     total cpu time spent up to now is       82.0 secs

     total energy              =    -537.88102997 Ry
     Harris-Foulkes estimate   =    -537.88102576 Ry
     estimated scf accuracy    <       0.00126138 Ry

     iteration #  5     ecut=    30.00 Ry     beta=0.20
     Davidson diagonalization with overlap
     ethr =  1.66E-06,  avg # of iterations =  2.9
 --- enter write_ns ---
 LDA+U parameters:
U( 1)     =  5.00000000
alpha( 1) =  0.00000000
U( 2)     =  0.00000000
alpha( 2) =  0.15000000
U( 3)     =  0.00000000
alpha( 3) =  0.00000000
U( 4)     =  0.00000000
alpha( 4) =  0.00000000
atom    1   Tr[ns(na)] =   8.06326
    eigenvalues: 
  0.522  0.522  0.995  0.995  0.998
    eigenvectors:
  0.000  0.000  0.000  0.000  1.000
  0.339  0.320  0.003  0.338  0.000
  0.320  0.339  0.338  0.003  0.000
  0.286  0.056  0.519  0.139  0.000
  0.056  0.286  0.139  0.519  0.000
    occupations:
  0.998  0.000  0.000  0.000  0.000
  0.000  0.684  0.000 -0.084  0.208
  0.000  0.000  0.684  0.208  0.084
  0.000 -0.084  0.208  0.833  0.000
  0.000  0.208  0.084  0.000  0.833
atom    2   Tr[ns(na)] =   8.05877
    eigenvalues: 
  0.521  0.521  0.995  0.995  0.998
    eigenvectors:
  0.000  0.000  0.000  0.000  1.000
  0.639  0.020  0.222  0.120  0.000
  0.020  0.639  0.120  0.222  0.000
  0.014  0.327  0.475  0.184  0.000
  0.327  0.014  0.184  0.475  0.000
    occupations:
  0.998  0.000  0.000  0.000  0.000
  0.000  0.683  0.000  0.084  0.209
  0.000  0.000  0.683  0.209 -0.084
  0.000  0.084  0.209  0.833  0.000
  0.000  0.209 -0.084  0.000  0.833
atom    3   Tr[ns(na)] =   3.76029
    eigenvalues: 
  0.353  0.353  0.378  0.398  0.398
    eigenvectors:
  0.000  0.000  1.000  0.000  0.000
  0.781  0.139  0.000  0.012  0.068
  0.139  0.781  0.000  0.068  0.012
  0.013  0.067  0.000  0.780  0.140
  0.067  0.013  0.000  0.140  0.780
    occupations:
  0.378  0.000  0.000  0.000  0.000
  0.000  0.356  0.000  0.000  0.012
  0.000  0.000  0.356  0.012  0.000
  0.000  0.000  0.012  0.395  0.000
  0.000  0.012  0.000  0.000  0.395
atom    4   Tr[ns(na)] =   3.79961
    eigenvalues: 
  0.357  0.357  0.382  0.402  0.402
    eigenvectors:
  0.000  0.000  1.000  0.000  0.000
  0.785  0.138  0.000  0.011  0.066
  0.138  0.785  0.000  0.066  0.011
  0.012  0.065  0.000  0.783  0.140
  0.065  0.012  0.000  0.140  0.783
    occupations:
  0.382  0.000  0.000  0.000  0.000
  0.000  0.360  0.000  0.000  0.012
  0.000  0.000  0.360  0.012  0.000
  0.000  0.000  0.012  0.399  0.000
  0.000  0.012  0.000  0.000  0.399
atom    5   Tr[ns(na)] =   5.43088
    eigenvalues: 
  0.838  0.930  0.948
    eigenvectors:
  0.337  0.000  0.663
  0.497  0.251  0.252
  0.166  0.749  0.085
    occupations:
  0.911 -0.045  0.026
 -0.045  0.889  0.024
  0.026  0.024  0.916
atom    6   Tr[ns(na)] =   5.43088
    eigenvalues: 
  0.838  0.930  0.948
    eigenvectors:
  0.337  0.000  0.663
  0.498  0.249  0.253
  0.165  0.751  0.084
    occupations:
  0.911  0.045  0.026
  0.045  0.889 -0.024
  0.026 -0.024  0.916
atom    7   Tr[ns(na)] =   5.43088
    eigenvalues: 
  0.838  0.930  0.948
    eigenvectors:
  0.337  0.000  0.663
  0.000  1.000  0.000
  0.663  0.000  0.337
    occupations:
  0.911  0.000 -0.052
  0.000  0.930  0.000
 -0.052  0.000  0.875
atom    8   Tr[ns(na)] =   5.43090
    eigenvalues: 
  0.838  0.930  0.948
    eigenvectors:
  0.337  0.000  0.663
  0.497  0.251  0.252
  0.166  0.749  0.085
    occupations:
  0.911 -0.045  0.026
 -0.045  0.889  0.024
  0.026  0.024  0.916
atom    9   Tr[ns(na)] =   5.43090
    eigenvalues: 
  0.838  0.930  0.948
    eigenvectors:
  0.337  0.000  0.663
  0.498  0.249  0.253
  0.165  0.751  0.084
    occupations:
  0.911  0.045  0.026
  0.045  0.889 -0.024
  0.026 -0.024  0.916
atom   10   Tr[ns(na)] =   5.43090
    eigenvalues: 
  0.838  0.930  0.948
    eigenvectors:
  0.337  0.000  0.663
  0.000  1.000  0.000
  0.663  0.000  0.337
    occupations:
  0.911  0.000 -0.052
  0.000  0.930  0.000
 -0.052  0.000  0.875
N of occupied +U levels =  56.2672658
 --- exit write_ns ---
 --- in v_hubbard ---
Hubbard energy    0.4152
 -------

     total cpu time spent up to now is       95.3 secs

     total energy              =    -537.88107564 Ry
     Harris-Foulkes estimate   =    -537.88113336 Ry
     estimated scf accuracy    <       0.00038641 Ry

     iteration #  6     ecut=    30.00 Ry     beta=0.20
     Davidson diagonalization with overlap
     ethr =  5.08E-07,  avg # of iterations =  2.0
 --- enter write_ns ---
 LDA+U parameters:
U( 1)     =  5.00000000
alpha( 1) =  0.00000000
U( 2)     =  0.00000000
alpha( 2) =  0.15000000
U( 3)     =  0.00000000
alpha( 3) =  0.00000000
U( 4)     =  0.00000000
alpha( 4) =  0.00000000
atom    1   Tr[ns(na)] =   8.04062
    eigenvalues: 
  0.516  0.516  0.995  0.995  0.998
    eigenvectors:
  0.000  0.000  0.000  0.000  1.000
  0.339  0.320  0.003  0.339  0.000
  0.320  0.339  0.339  0.003  0.000
  0.286  0.056  0.520  0.139  0.000
  0.056  0.286  0.139  0.520  0.000
    occupations:
  0.998  0.000  0.000  0.000  0.000
  0.000  0.680  0.000 -0.085  0.210
  0.000  0.000  0.680  0.210  0.085
  0.000 -0.085  0.210  0.831  0.000
  0.000  0.210  0.085  0.000  0.831
atom    2   Tr[ns(na)] =   8.04068
    eigenvalues: 
  0.516  0.516  0.995  0.995  0.998
    eigenvectors:
  0.000  0.000  0.000  0.000  1.000
  0.639  0.019  0.223  0.119  0.000
  0.019  0.639  0.119  0.223  0.000
  0.015  0.327  0.474  0.184  0.000
  0.327  0.015  0.184  0.474  0.000
    occupations:
  0.998  0.000  0.000  0.000  0.000
  0.000  0.680  0.000  0.085  0.211
  0.000  0.000  0.680  0.211 -0.085
  0.000  0.085  0.211  0.832  0.000
  0.000  0.211 -0.085  0.000  0.832
atom    3   Tr[ns(na)] =   3.75117
    eigenvalues: 
  0.352  0.352  0.377  0.398  0.398
    eigenvectors:
  0.000  0.000  1.000  0.000  0.000
  0.779  0.140  0.000  0.012  0.069
  0.140  0.779  0.000  0.069  0.012
  0.013  0.068  0.000  0.779  0.141
  0.068  0.013  0.000  0.141  0.779
    occupations:
  0.377  0.000  0.000  0.000  0.000
  0.000  0.355  0.000  0.000  0.013
  0.000  0.000  0.355  0.013  0.000
  0.000  0.000  0.013  0.394  0.000
  0.000  0.013  0.000  0.000  0.394
atom    4   Tr[ns(na)] =   3.79207
    eigenvalues: 
  0.356  0.356  0.381  0.401  0.401
    eigenvectors:
  0.000  0.000  1.000  0.000  0.000
  0.783  0.139  0.000  0.011  0.067
  0.139  0.783  0.000  0.067  0.011
  0.012  0.066  0.000  0.781  0.140
  0.066  0.012  0.000  0.140  0.781
    occupations:
  0.381  0.000  0.000  0.000  0.000
  0.000  0.360  0.000  0.000  0.012
  0.000  0.000  0.360  0.012  0.000
  0.000  0.000  0.012  0.398  0.000
  0.000  0.012  0.000  0.000  0.398
atom    5   Tr[ns(na)] =   5.43904
    eigenvalues: 
  0.840  0.931  0.948
    eigenvectors:
  0.336  0.000  0.664
  0.497  0.252  0.252
  0.167  0.748  0.085
    occupations:
  0.912 -0.044  0.026
 -0.044  0.890  0.024
  0.026  0.024  0.917
atom    6   Tr[ns(na)] =   5.43904
    eigenvalues: 
  0.840  0.931  0.948
    eigenvectors:
  0.336  0.000  0.664
  0.499  0.248  0.253
  0.165  0.752  0.083
    occupations:
  0.912  0.045  0.026
  0.045  0.890 -0.024
  0.026 -0.024  0.918
atom    7   Tr[ns(na)] =   5.43904
    eigenvalues: 
  0.840  0.931  0.948
    eigenvectors:
  0.336  0.000  0.664
  0.000  1.000  0.000
  0.664  0.000  0.336
    occupations:
  0.912  0.000 -0.051
  0.000  0.931  0.000
 -0.051  0.000  0.876
atom    8   Tr[ns(na)] =   5.43891
    eigenvalues: 
  0.840  0.931  0.949
    eigenvectors:
  0.336  0.000  0.664
  0.497  0.252  0.252
  0.167  0.748  0.085
    occupations:
  0.912 -0.045  0.026
 -0.045  0.890  0.024
  0.026  0.024  0.917
atom    9   Tr[ns(na)] =   5.43891
    eigenvalues: 
  0.840  0.931  0.949
    eigenvectors:
  0.336  0.000  0.664
  0.499  0.248  0.253
  0.165  0.752  0.084
    occupations:
  0.912  0.045  0.026
  0.045  0.890 -0.023
  0.026 -0.023  0.917
atom   10   Tr[ns(na)] =   5.43891
    eigenvalues: 
  0.840  0.931  0.949
    eigenvectors:
  0.336  0.000  0.664
  0.000  1.000  0.000
  0.664  0.000  0.336
    occupations:
  0.912  0.000 -0.052
  0.000  0.931  0.000
 -0.052  0.000  0.876
N of occupied +U levels =  56.2583912
 --- exit write_ns ---
 --- in v_hubbard ---
Hubbard energy    0.4152
 -------

     total cpu time spent up to now is      109.3 secs

     total energy              =    -537.88126037 Ry
     Harris-Foulkes estimate   =    -537.88122723 Ry
     estimated scf accuracy    <       0.00046611 Ry

     iteration #  7     ecut=    30.00 Ry     beta=0.20
     Davidson diagonalization with overlap
     ethr =  5.08E-07,  avg # of iterations =  1.0
 --- enter write_ns ---
 LDA+U parameters:
U( 1)     =  5.00000000
alpha( 1) =  0.00000000
U( 2)     =  0.00000000
alpha( 2) =  0.15000000
U( 3)     =  0.00000000
alpha( 3) =  0.00000000
U( 4)     =  0.00000000
alpha( 4) =  0.00000000
atom    1   Tr[ns(na)] =   8.04985
    eigenvalues: 
  0.519  0.519  0.995  0.995  0.998
    eigenvectors:
  0.000  0.000  0.000  0.000  1.000
  0.338  0.320  0.003  0.339  0.000
  0.320  0.338  0.339  0.003  0.000
  0.286  0.055  0.519  0.139  0.000
  0.055  0.286  0.139  0.519  0.000
    occupations:
  0.998  0.000  0.000  0.000  0.000
  0.000  0.681  0.000 -0.085  0.209
  0.000  0.000  0.681  0.209  0.085
  0.000 -0.085  0.209  0.832  0.000
  0.000  0.209  0.085  0.000  0.832
atom    2   Tr[ns(na)] =   8.04701
    eigenvalues: 
  0.517  0.517  0.995  0.995  0.998
    eigenvectors:
  0.000  0.000  0.000  0.000  1.000
  0.640  0.019  0.222  0.119  0.000
  0.019  0.640  0.119  0.222  0.000
  0.015  0.326  0.475  0.184  0.000
  0.326  0.015  0.184  0.475  0.000
    occupations:
  0.998  0.000  0.000  0.000  0.000
  0.000  0.681  0.000  0.085  0.210
  0.000  0.000  0.681  0.210 -0.085
  0.000  0.085  0.210  0.832  0.000
  0.000  0.210 -0.085  0.000  0.832
atom    3   Tr[ns(na)] =   3.75059
    eigenvalues: 
  0.351  0.351  0.377  0.398  0.398
    eigenvectors:
  0.000  0.000  1.000  0.000  0.000
  0.779  0.140  0.000  0.012  0.069
  0.140  0.779  0.000  0.069  0.012
  0.013  0.068  0.000  0.778  0.141
  0.068  0.013  0.000  0.141  0.778
    occupations:
  0.377  0.000  0.000  0.000  0.000
  0.000  0.355  0.000  0.000  0.013
  0.000  0.000  0.355  0.013  0.000
  0.000  0.000  0.013  0.394  0.000
  0.000  0.013  0.000  0.000  0.394
atom    4   Tr[ns(na)] =   3.79204
    eigenvalues: 
  0.356  0.356  0.381  0.401  0.401
    eigenvectors:
  0.000  0.000  1.000  0.000  0.000
  0.782  0.139  0.000  0.011  0.067
  0.139  0.782  0.000  0.067  0.011
  0.012  0.066  0.000  0.781  0.140
  0.066  0.012  0.000  0.140  0.781
    occupations:
  0.381  0.000  0.000  0.000  0.000
  0.000  0.360  0.000  0.000  0.012
  0.000  0.000  0.360  0.012  0.000
  0.000  0.000  0.012  0.398  0.000
  0.000  0.012  0.000  0.000  0.398
atom    5   Tr[ns(na)] =   5.43661
    eigenvalues: 
  0.839  0.931  0.948
    eigenvectors:
  0.337  0.000  0.663
  0.497  0.251  0.252
  0.166  0.749  0.085
    occupations:
  0.912 -0.045  0.026
 -0.045  0.890  0.024
  0.026  0.024  0.917
atom    6   Tr[ns(na)] =   5.43661
    eigenvalues: 
  0.839  0.931  0.948
    eigenvectors:
  0.337  0.000  0.663
  0.498  0.249  0.253
  0.165  0.751  0.084
    occupations:
  0.912  0.045  0.026
  0.045  0.890 -0.024
  0.026 -0.024  0.917
atom    7   Tr[ns(na)] =   5.43661
    eigenvalues: 
  0.839  0.931  0.948
    eigenvectors:
  0.337  0.000  0.663
  0.000  1.000  0.000
  0.663  0.000  0.337
    occupations:
  0.912  0.000 -0.052
  0.000  0.931  0.000
 -0.052  0.000  0.876
atom    8   Tr[ns(na)] =   5.43653
    eigenvalues: 
  0.839  0.930  0.949
    eigenvectors:
  0.337  0.000  0.663
  0.497  0.251  0.252
  0.166  0.749  0.085
    occupations:
  0.912 -0.045  0.026
 -0.045  0.890  0.024
  0.026  0.024  0.917
atom    9   Tr[ns(na)] =   5.43653
    eigenvalues: 
  0.839  0.930  0.949
    eigenvectors:
  0.337  0.000  0.663
  0.498  0.249  0.253
  0.165  0.751  0.084
    occupations:
  0.912  0.045  0.026
  0.045  0.890 -0.024
  0.026 -0.024  0.917
atom   10   Tr[ns(na)] =   5.43653
    eigenvalues: 
  0.839  0.930  0.949
    eigenvectors:
  0.337  0.000  0.663
  0.000  1.000  0.000
  0.663  0.000  0.337
    occupations:
  0.912  0.000 -0.052
  0.000  0.930  0.000
 -0.052  0.000  0.876
N of occupied +U levels =  56.2588977
 --- exit write_ns ---
 --- in v_hubbard ---
Hubbard energy    0.4165
 -------

     total cpu time spent up to now is      121.3 secs

     total energy              =    -537.88132944 Ry
     Harris-Foulkes estimate   =    -537.88128036 Ry
     estimated scf accuracy    <       0.00006796 Ry

     iteration #  8     ecut=    30.00 Ry     beta=0.20
     Davidson diagonalization with overlap
     ethr =  8.94E-08,  avg # of iterations =  2.0
 --- enter write_ns ---
 LDA+U parameters:
U( 1)     =  5.00000000
alpha( 1) =  0.00000000
U( 2)     =  0.00000000
alpha( 2) =  0.15000000
U( 3)     =  0.00000000
alpha( 3) =  0.00000000
U( 4)     =  0.00000000
alpha( 4) =  0.00000000
atom    1   Tr[ns(na)] =   8.05359
    eigenvalues: 
  0.520  0.520  0.995  0.995  0.998
    eigenvectors:
  0.000  0.000  0.000  0.000  1.000
  0.339  0.319  0.003  0.339  0.000
  0.319  0.339  0.339  0.003  0.000
  0.287  0.055  0.520  0.139  0.000
  0.055  0.287  0.139  0.520  0.000
    occupations:
  0.998  0.000  0.000  0.000  0.000
  0.000  0.682  0.000 -0.085  0.209
  0.000  0.000  0.682  0.209  0.085
  0.000 -0.085  0.209  0.832  0.000
  0.000  0.209  0.085  0.000  0.832
atom    2   Tr[ns(na)] =   8.05018
    eigenvalues: 
  0.518  0.518  0.995  0.995  0.998
    eigenvectors:
  0.000  0.000  0.000  0.000  1.000
  0.640  0.018  0.223  0.119  0.000
  0.018  0.640  0.119  0.223  0.000
  0.016  0.326  0.474  0.184  0.000
  0.326  0.016  0.184  0.474  0.000
    occupations:
  0.998  0.000  0.000  0.000  0.000
  0.000  0.681  0.000  0.085  0.210
  0.000  0.000  0.681  0.210 -0.085
  0.000  0.085  0.210  0.832  0.000
  0.000  0.210 -0.085  0.000  0.832
atom    3   Tr[ns(na)] =   3.75141
    eigenvalues: 
  0.352  0.352  0.377  0.398  0.398
    eigenvectors:
  0.000  0.000  1.000  0.000  0.000
  0.779  0.140  0.000  0.012  0.069
  0.140  0.779  0.000  0.069  0.012
  0.013  0.068  0.000  0.778  0.141
  0.068  0.013  0.000  0.141  0.778
    occupations:
  0.377  0.000  0.000  0.000  0.000
  0.000  0.355  0.000  0.000  0.013
  0.000  0.000  0.355  0.013  0.000
  0.000  0.000  0.013  0.394  0.000
  0.000  0.013  0.000  0.000  0.394
atom    4   Tr[ns(na)] =   3.79391
    eigenvalues: 
  0.356  0.356  0.381  0.402  0.402
    eigenvectors:
  0.000  0.000  1.000  0.000  0.000
  0.782  0.139  0.000  0.011  0.067
  0.139  0.782  0.000  0.067  0.011
  0.012  0.066  0.000  0.781  0.140
  0.066  0.012  0.000  0.140  0.781
    occupations:
  0.381  0.000  0.000  0.000  0.000
  0.000  0.360  0.000  0.000  0.012
  0.000  0.000  0.360  0.012  0.000
  0.000  0.000  0.012  0.398  0.000
  0.000  0.012  0.000  0.000  0.398
atom    5   Tr[ns(na)] =   5.43510
    eigenvalues: 
  0.839  0.931  0.948
    eigenvectors:
  0.337  0.000  0.663
  0.497  0.251  0.252
  0.166  0.749  0.085
    occupations:
  0.911 -0.045  0.026
 -0.045  0.889  0.024
  0.026  0.024  0.917
atom    6   Tr[ns(na)] =   5.43510
    eigenvalues: 
  0.839  0.931  0.948
    eigenvectors:
  0.337  0.000  0.663
  0.498  0.249  0.253
  0.165  0.751  0.084
    occupations:
  0.911  0.045  0.026
  0.045  0.889 -0.024
  0.026 -0.024  0.917
atom    7   Tr[ns(na)] =   5.43510
    eigenvalues: 
  0.839  0.931  0.948
    eigenvectors:
  0.337  0.000  0.663
  0.000  1.000  0.000
  0.663  0.000  0.337
    occupations:
  0.911  0.000 -0.052
  0.000  0.931  0.000
 -0.052  0.000  0.876
atom    8   Tr[ns(na)] =   5.43508
    eigenvalues: 
  0.839  0.930  0.949
    eigenvectors:
  0.337  0.000  0.663
  0.497  0.251  0.252
  0.166  0.749  0.085
    occupations:
  0.912 -0.045  0.026
 -0.045  0.889  0.024
  0.026  0.024  0.917
atom    9   Tr[ns(na)] =   5.43508
    eigenvalues: 
  0.839  0.930  0.949
    eigenvectors:
  0.337  0.000  0.663
  0.498  0.249  0.253
  0.165  0.751  0.084
    occupations:
  0.912  0.045  0.026
  0.045  0.889 -0.024
  0.026 -0.024  0.917
atom   10   Tr[ns(na)] =   5.43508
    eigenvalues: 
  0.839  0.930  0.949
    eigenvectors:
  0.337  0.000  0.663
  0.000  1.000  0.000
  0.663  0.000  0.337
    occupations:
  0.912  0.000 -0.052
  0.000  0.930  0.000
 -0.052  0.000  0.876
N of occupied +U levels =  56.2596276
 --- exit write_ns ---
 --- in v_hubbard ---
Hubbard energy    0.4166
 -------

     total cpu time spent up to now is      134.2 secs

     total energy              =    -537.88137921 Ry
     Harris-Foulkes estimate   =    -537.88133820 Ry
     estimated scf accuracy    <       0.00000304 Ry

     iteration #  9     ecut=    30.00 Ry     beta=0.20
     Davidson diagonalization with overlap
     ethr =  4.00E-09,  avg # of iterations =  2.0
 --- enter write_ns ---
 LDA+U parameters:
U( 1)     =  5.00000000
alpha( 1) =  0.00000000
U( 2)     =  0.00000000
alpha( 2) =  0.15000000
U( 3)     =  0.00000000
alpha( 3) =  0.00000000
U( 4)     =  0.00000000
alpha( 4) =  0.00000000
atom    1   Tr[ns(na)] =   8.05271
    eigenvalues: 
  0.519  0.519  0.995  0.995  0.998
    eigenvectors:
  0.000  0.000  0.000  0.000  1.000
  0.339  0.319  0.003  0.339  0.000
  0.319  0.339  0.339  0.003  0.000
  0.287  0.055  0.520  0.139  0.000
  0.055  0.287  0.139  0.520  0.000
    occupations:
  0.998  0.000  0.000  0.000  0.000
  0.000  0.682  0.000 -0.085  0.209
  0.000  0.000  0.682  0.209  0.085
  0.000 -0.085  0.209  0.832  0.000
  0.000  0.209  0.085  0.000  0.832
atom    2   Tr[ns(na)] =   8.05007
    eigenvalues: 
  0.518  0.518  0.995  0.995  0.998
    eigenvectors:
  0.000  0.000  0.000  0.000  1.000
  0.640  0.019  0.223  0.119  0.000
  0.019  0.640  0.119  0.223  0.000
  0.016  0.326  0.474  0.184  0.000
  0.326  0.016  0.184  0.474  0.000
    occupations:
  0.998  0.000  0.000  0.000  0.000
  0.000  0.681  0.000  0.085  0.210
  0.000  0.000  0.681  0.210 -0.085
  0.000  0.085  0.210  0.832  0.000
  0.000  0.210 -0.085  0.000  0.832
atom    3   Tr[ns(na)] =   3.75174
    eigenvalues: 
  0.352  0.352  0.377  0.398  0.398
    eigenvectors:
  0.000  0.000  1.000  0.000  0.000
  0.779  0.140  0.000  0.012  0.069
  0.140  0.779  0.000  0.069  0.012
  0.013  0.068  0.000  0.778  0.141
  0.068  0.013  0.000  0.141  0.778
    occupations:
  0.377  0.000  0.000  0.000  0.000
  0.000  0.355  0.000  0.000  0.013
  0.000  0.000  0.355  0.013  0.000
  0.000  0.000  0.013  0.394  0.000
  0.000  0.013  0.000  0.000  0.394
atom    4   Tr[ns(na)] =   3.79416
    eigenvalues: 
  0.356  0.356  0.381  0.402  0.402
    eigenvectors:
  0.000  0.000  1.000  0.000  0.000
  0.782  0.139  0.000  0.011  0.067
  0.139  0.782  0.000  0.067  0.011
  0.012  0.066  0.000  0.781  0.140
  0.066  0.012  0.000  0.140  0.781
    occupations:
  0.381  0.000  0.000  0.000  0.000
  0.000  0.360  0.000  0.000  0.012
  0.000  0.000  0.360  0.012  0.000
  0.000  0.000  0.012  0.398  0.000
  0.000  0.012  0.000  0.000  0.398
atom    5   Tr[ns(na)] =   5.43517
    eigenvalues: 
  0.839  0.931  0.948
    eigenvectors:
  0.337  0.000  0.663
  0.497  0.251  0.252
  0.166  0.749  0.085
    occupations:
  0.911 -0.045  0.026
 -0.045  0.889  0.024
  0.026  0.024  0.917
atom    6   Tr[ns(na)] =   5.43517
    eigenvalues: 
  0.839  0.931  0.948
    eigenvectors:
  0.337  0.000  0.663
  0.498  0.249  0.253
  0.165  0.751  0.084
    occupations:
  0.911  0.045  0.026
  0.045  0.889 -0.024
  0.026 -0.024  0.917
atom    7   Tr[ns(na)] =   5.43517
    eigenvalues: 
  0.839  0.931  0.948
    eigenvectors:
  0.337  0.000  0.663
  0.000  1.000  0.000
  0.663  0.000  0.337
    occupations:
  0.911  0.000 -0.052
  0.000  0.931  0.000
 -0.052  0.000  0.876
atom    8   Tr[ns(na)] =   5.43513
    eigenvalues: 
  0.839  0.930  0.949
    eigenvectors:
  0.337  0.000  0.663
  0.497  0.251  0.252
  0.166  0.749  0.085
    occupations:
  0.912 -0.045  0.026
 -0.045  0.889  0.024
  0.026  0.024  0.917
atom    9   Tr[ns(na)] =   5.43513
    eigenvalues: 
  0.839  0.930  0.949
    eigenvectors:
  0.337  0.000  0.663
  0.498  0.249  0.253
  0.165  0.751  0.084
    occupations:
  0.912  0.045  0.026
  0.045  0.889 -0.024
  0.026 -0.024  0.917
atom   10   Tr[ns(na)] =   5.43513
    eigenvalues: 
  0.839  0.930  0.949
    eigenvectors:
  0.337  0.000  0.663
  0.000  1.000  0.000
  0.663  0.000  0.337
    occupations:
  0.912  0.000 -0.052
  0.000  0.930  0.000
 -0.052  0.000  0.876
N of occupied +U levels =  56.2595872
 --- exit write_ns ---
 --- in v_hubbard ---
Hubbard energy    0.4170
 -------

     total cpu time spent up to now is      147.1 secs

     total energy              =    -537.88140771 Ry
     Harris-Foulkes estimate   =    -537.88137963 Ry
     estimated scf accuracy    <       0.00000168 Ry

     iteration # 10     ecut=    30.00 Ry     beta=0.20
     Davidson diagonalization with overlap
     ethr =  2.20E-09,  avg # of iterations =  1.1
 --- enter write_ns ---
 LDA+U parameters:
U( 1)     =  5.00000000
alpha( 1) =  0.00000000
U( 2)     =  0.00000000
alpha( 2) =  0.15000000
U( 3)     =  0.00000000
alpha( 3) =  0.00000000
U( 4)     =  0.00000000
alpha( 4) =  0.00000000
atom    1   Tr[ns(na)] =   8.05279
    eigenvalues: 
  0.519  0.519  0.995  0.995  0.998
    eigenvectors:
  0.000  0.000  0.000  0.000  1.000
  0.339  0.319  0.003  0.339  0.000
  0.319  0.339  0.339  0.003  0.000
  0.287  0.055  0.520  0.138  0.000
  0.055  0.287  0.138  0.520  0.000
    occupations:
  0.998  0.000  0.000  0.000  0.000
  0.000  0.682  0.000 -0.085  0.209
  0.000  0.000  0.682  0.209  0.085
  0.000 -0.085  0.209  0.832  0.000
  0.000  0.209  0.085  0.000  0.832
atom    2   Tr[ns(na)] =   8.04975
    eigenvalues: 
  0.518  0.518  0.995  0.995  0.998
    eigenvectors:
  0.000  0.000  0.000  0.000  1.000
  0.640  0.018  0.223  0.118  0.000
  0.018  0.640  0.118  0.223  0.000
  0.016  0.326  0.475  0.184  0.000
  0.326  0.016  0.184  0.475  0.000
    occupations:
  0.998  0.000  0.000  0.000  0.000
  0.000  0.681  0.000  0.085  0.210
  0.000  0.000  0.681  0.210 -0.085
  0.000  0.085  0.210  0.832  0.000
  0.000  0.210 -0.085  0.000  0.832
atom    3   Tr[ns(na)] =   3.75167
    eigenvalues: 
  0.352  0.352  0.377  0.398  0.398
    eigenvectors:
  0.000  0.000  1.000  0.000  0.000
  0.778  0.140  0.000  0.012  0.069
  0.140  0.778  0.000  0.069  0.012
  0.013  0.068  0.000  0.778  0.141
  0.068  0.013  0.000  0.141  0.778
    occupations:
  0.377  0.000  0.000  0.000  0.000
  0.000  0.355  0.000  0.000  0.013
  0.000  0.000  0.355  0.013  0.000
  0.000  0.000  0.013  0.394  0.000
  0.000  0.013  0.000  0.000  0.394
atom    4   Tr[ns(na)] =   3.79381
    eigenvalues: 
  0.356  0.356  0.381  0.402  0.402
    eigenvectors:
  0.000  0.000  1.000  0.000  0.000
  0.782  0.139  0.000  0.011  0.067
  0.139  0.782  0.000  0.067  0.011
  0.012  0.066  0.000  0.781  0.140
  0.066  0.012  0.000  0.140  0.781
    occupations:
  0.381  0.000  0.000  0.000  0.000
  0.000  0.360  0.000  0.000  0.012
  0.000  0.000  0.360  0.012  0.000
  0.000  0.000  0.012  0.398  0.000
  0.000  0.012  0.000  0.000  0.398
atom    5   Tr[ns(na)] =   5.43524
    eigenvalues: 
  0.839  0.931  0.948
    eigenvectors:
  0.337  0.000  0.663
  0.497  0.251  0.252
  0.166  0.749  0.085
    occupations:
  0.911 -0.045  0.026
 -0.045  0.889  0.024
  0.026  0.024  0.917
atom    6   Tr[ns(na)] =   5.43524
    eigenvalues: 
  0.839  0.931  0.948
    eigenvectors:
  0.337  0.000  0.663
  0.498  0.249  0.253
  0.165  0.751  0.084
    occupations:
  0.911  0.045  0.026
  0.045  0.889 -0.024
  0.026 -0.024  0.917
atom    7   Tr[ns(na)] =   5.43524
    eigenvalues: 
  0.839  0.931  0.948
    eigenvectors:
  0.337  0.000  0.663
  0.000  1.000  0.000
  0.663  0.000  0.337
    occupations:
  0.911  0.000 -0.052
  0.000  0.931  0.000
 -0.052  0.000  0.876
atom    8   Tr[ns(na)] =   5.43520
    eigenvalues: 
  0.839  0.930  0.949
    eigenvectors:
  0.337  0.000  0.663
  0.497  0.251  0.252
  0.166  0.749  0.085
    occupations:
  0.912 -0.045  0.026
 -0.045  0.889  0.024
  0.026  0.024  0.917
atom    9   Tr[ns(na)] =   5.43520
    eigenvalues: 
  0.839  0.930  0.949
    eigenvectors:
  0.337  0.000  0.663
  0.498  0.249  0.253
  0.165  0.751  0.084
    occupations:
  0.912  0.045  0.026
  0.045  0.889 -0.024
  0.026 -0.024  0.917
atom   10   Tr[ns(na)] =   5.43520
    eigenvalues: 
  0.839  0.930  0.949
    eigenvectors:
  0.337  0.000  0.663
  0.000  1.000  0.000
  0.663  0.000  0.337
    occupations:
  0.912  0.000 -0.052
  0.000  0.930  0.000
 -0.052  0.000  0.876
N of occupied +U levels =  56.2593408
 --- exit write_ns ---
 --- in v_hubbard ---
Hubbard energy    0.4171
 -------

     total cpu time spent up to now is      159.1 secs

     total energy              =    -537.88142580 Ry
     Harris-Foulkes estimate   =    -537.88140802 Ry
     estimated scf accuracy    <       0.00000057 Ry

     iteration # 11     ecut=    30.00 Ry     beta=0.20
     Davidson diagonalization with overlap
     ethr =  7.56E-10,  avg # of iterations =  1.0
 --- enter write_ns ---
 LDA+U parameters:
U( 1)     =  5.00000000
alpha( 1) =  0.00000000
U( 2)     =  0.00000000
alpha( 2) =  0.15000000
U( 3)     =  0.00000000
alpha( 3) =  0.00000000
U( 4)     =  0.00000000
alpha( 4) =  0.00000000
atom    1   Tr[ns(na)] =   8.05237
    eigenvalues: 
  0.519  0.519  0.995  0.995  0.998
    eigenvectors:
  0.000  0.000  0.000  0.000  1.000
  0.339  0.319  0.003  0.339  0.000
  0.319  0.339  0.339  0.003  0.000
  0.287  0.055  0.520  0.138  0.000
  0.055  0.287  0.138  0.520  0.000
    occupations:
  0.998  0.000  0.000  0.000  0.000
  0.000  0.682  0.000 -0.085  0.209
  0.000  0.000  0.682  0.209  0.085
  0.000 -0.085  0.209  0.832  0.000
  0.000  0.209  0.085  0.000  0.832
atom    2   Tr[ns(na)] =   8.04953
    eigenvalues: 
  0.518  0.518  0.995  0.995  0.998
    eigenvectors:
  0.000  0.000  0.000  0.000  1.000
  0.640  0.018  0.224  0.118  0.000
  0.018  0.640  0.118  0.224  0.000
  0.016  0.326  0.475  0.184  0.000
  0.326  0.016  0.184  0.475  0.000
    occupations:
  0.998  0.000  0.000  0.000  0.000
  0.000  0.681  0.000  0.085  0.210
  0.000  0.000  0.681  0.210 -0.085
  0.000  0.085  0.210  0.832  0.000
  0.000  0.210 -0.085  0.000  0.832
atom    3   Tr[ns(na)] =   3.75175
    eigenvalues: 
  0.352  0.352  0.377  0.398  0.398
    eigenvectors:
  0.000  0.000  1.000  0.000  0.000
  0.779  0.140  0.000  0.012  0.069
  0.140  0.779  0.000  0.069  0.012
  0.013  0.068  0.000  0.778  0.141
  0.068  0.013  0.000  0.141  0.778
    occupations:
  0.377  0.000  0.000  0.000  0.000
  0.000  0.355  0.000  0.000  0.013
  0.000  0.000  0.355  0.013  0.000
  0.000  0.000  0.013  0.394  0.000
  0.000  0.013  0.000  0.000  0.394
atom    4   Tr[ns(na)] =   3.79379
    eigenvalues: 
  0.356  0.356  0.381  0.402  0.402
    eigenvectors:
  0.000  0.000  1.000  0.000  0.000
  0.782  0.139  0.000  0.011  0.067
  0.139  0.782  0.000  0.067  0.011
  0.012  0.066  0.000  0.781  0.140
  0.066  0.012  0.000  0.140  0.781
    occupations:
  0.381  0.000  0.000  0.000  0.000
  0.000  0.360  0.000  0.000  0.012
  0.000  0.000  0.360  0.012  0.000
  0.000  0.000  0.012  0.398  0.000
  0.000  0.012  0.000  0.000  0.398
atom    5   Tr[ns(na)] =   5.43533
    eigenvalues: 
  0.839  0.931  0.948
    eigenvectors:
  0.337  0.000  0.663
  0.497  0.251  0.252
  0.166  0.749  0.085
    occupations:
  0.911 -0.045  0.026
 -0.045  0.889  0.024
  0.026  0.024  0.917
atom    6   Tr[ns(na)] =   5.43533
    eigenvalues: 
  0.839  0.931  0.948
    eigenvectors:
  0.337  0.000  0.663
  0.498  0.249  0.253
  0.165  0.751  0.084
    occupations:
  0.911  0.045  0.026
  0.045  0.889 -0.024
  0.026 -0.024  0.917
atom    7   Tr[ns(na)] =   5.43533
    eigenvalues: 
  0.839  0.931  0.948
    eigenvectors:
  0.337  0.000  0.663
  0.000  1.000  0.000
  0.663  0.000  0.337
    occupations:
  0.911  0.000 -0.052
  0.000  0.931  0.000
 -0.052  0.000  0.876
atom    8   Tr[ns(na)] =   5.43529
    eigenvalues: 
  0.839  0.930  0.949
    eigenvectors:
  0.337  0.000  0.663
  0.497  0.251  0.252
  0.166  0.749  0.085
    occupations:
  0.912 -0.045  0.026
 -0.045  0.889  0.024
  0.026  0.024  0.917
atom    9   Tr[ns(na)] =   5.43529
    eigenvalues: 
  0.839  0.930  0.949
    eigenvectors:
  0.337  0.000  0.663
  0.498  0.249  0.253
  0.165  0.751  0.084
    occupations:
  0.912  0.045  0.026
  0.045  0.889 -0.024
  0.026 -0.024  0.917
atom   10   Tr[ns(na)] =   5.43529
    eigenvalues: 
  0.839  0.930  0.949
    eigenvectors:
  0.337  0.000  0.663
  0.000  1.000  0.000
  0.663  0.000  0.337
    occupations:
  0.912  0.000 -0.052
  0.000  0.930  0.000
 -0.052  0.000  0.876
N of occupied +U levels =  56.2592936
 --- exit write_ns ---
 --- in v_hubbard ---
Hubbard energy    0.4170
 -------

     total cpu time spent up to now is      171.2 secs

     total energy              =    -537.88143773 Ry
     Harris-Foulkes estimate   =    -537.88142589 Ry
     estimated scf accuracy    <       0.00000020 Ry

     iteration # 12     ecut=    30.00 Ry     beta=0.20
     Davidson diagonalization with overlap
     ethr =  2.65E-10,  avg # of iterations =  1.7
 --- enter write_ns ---
 LDA+U parameters:
U( 1)     =  5.00000000
alpha( 1) =  0.00000000
U( 2)     =  0.00000000
alpha( 2) =  0.15000000
U( 3)     =  0.00000000
alpha( 3) =  0.00000000
U( 4)     =  0.00000000
alpha( 4) =  0.00000000
atom    1   Tr[ns(na)] =   8.05244
    eigenvalues: 
  0.519  0.519  0.995  0.995  0.998
    eigenvectors:
  0.000  0.000  0.000  0.000  1.000
  0.339  0.319  0.003  0.339  0.000
  0.319  0.339  0.339  0.003  0.000
  0.287  0.055  0.520  0.138  0.000
  0.055  0.287  0.138  0.520  0.000
    occupations:
  0.998  0.000  0.000  0.000  0.000
  0.000  0.682  0.000 -0.085  0.209
  0.000  0.000  0.682  0.209  0.085
  0.000 -0.085  0.209  0.832  0.000
  0.000  0.209  0.085  0.000  0.832
atom    2   Tr[ns(na)] =   8.04959
    eigenvalues: 
  0.518  0.518  0.995  0.995  0.998
    eigenvectors:
  0.000  0.000  0.000  0.000  1.000
  0.640  0.018  0.224  0.118  0.000
  0.018  0.640  0.118  0.224  0.000
  0.016  0.325  0.474  0.184  0.000
  0.325  0.016  0.184  0.474  0.000
    occupations:
  0.998  0.000  0.000  0.000  0.000
  0.000  0.681  0.000  0.085  0.210
  0.000  0.000  0.681  0.210 -0.085
  0.000  0.085  0.210  0.832  0.000
  0.000  0.210 -0.085  0.000  0.832
atom    3   Tr[ns(na)] =   3.75172
    eigenvalues: 
  0.352  0.352  0.377  0.398  0.398
    eigenvectors:
  0.000  0.000  1.000  0.000  0.000
  0.779  0.140  0.000  0.012  0.069
  0.140  0.779  0.000  0.069  0.012
  0.013  0.068  0.000  0.778  0.141
  0.068  0.013  0.000  0.141  0.778
    occupations:
  0.377  0.000  0.000  0.000  0.000
  0.000  0.355  0.000  0.000  0.013
  0.000  0.000  0.355  0.013  0.000
  0.000  0.000  0.013  0.394  0.000
  0.000  0.013  0.000  0.000  0.394
atom    4   Tr[ns(na)] =   3.79392
    eigenvalues: 
  0.356  0.356  0.381  0.402  0.402
    eigenvectors:
  0.000  0.000  1.000  0.000  0.000
  0.782  0.139  0.000  0.011  0.067
  0.139  0.782  0.000  0.067  0.011
  0.012  0.066  0.000  0.781  0.140
  0.066  0.012  0.000  0.140  0.781
    occupations:
  0.381  0.000  0.000  0.000  0.000
  0.000  0.360  0.000  0.000  0.012
  0.000  0.000  0.360  0.012  0.000
  0.000  0.000  0.012  0.398  0.000
  0.000  0.012  0.000  0.000  0.398
atom    5   Tr[ns(na)] =   5.43531
    eigenvalues: 
  0.839  0.931  0.948
    eigenvectors:
  0.337  0.000  0.663
  0.497  0.251  0.252
  0.166  0.749  0.085
    occupations:
  0.911 -0.045  0.026
 -0.045  0.889  0.024
  0.026  0.024  0.917
atom    6   Tr[ns(na)] =   5.43531
    eigenvalues: 
  0.839  0.931  0.948
    eigenvectors:
  0.337  0.000  0.663
  0.498  0.249  0.253
  0.165  0.751  0.084
    occupations:
  0.911  0.045  0.026
  0.045  0.889 -0.024
  0.026 -0.024  0.917
atom    7   Tr[ns(na)] =   5.43531
    eigenvalues: 
  0.839  0.931  0.948
    eigenvectors:
  0.337  0.000  0.663
  0.000  1.000  0.000
  0.663  0.000  0.337
    occupations:
  0.911  0.000 -0.052
  0.000  0.931  0.000
 -0.052  0.000  0.876
atom    8   Tr[ns(na)] =   5.43526
    eigenvalues: 
  0.839  0.930  0.949
    eigenvectors:
  0.337  0.000  0.663
  0.497  0.251  0.252
  0.166  0.749  0.085
    occupations:
  0.912 -0.045  0.026
 -0.045  0.889  0.024
  0.026  0.024  0.917
atom    9   Tr[ns(na)] =   5.43526
    eigenvalues: 
  0.839  0.930  0.949
    eigenvectors:
  0.337  0.000  0.663
  0.498  0.249  0.253
  0.165  0.751  0.084
    occupations:
  0.912  0.045  0.026
  0.045  0.889 -0.024
  0.026 -0.024  0.917
atom   10   Tr[ns(na)] =   5.43526
    eigenvalues: 
  0.839  0.930  0.949
    eigenvectors:
  0.337  0.000  0.663
  0.000  1.000  0.000
  0.663  0.000  0.337
    occupations:
  0.912  0.000 -0.052
  0.000  0.930  0.000
 -0.052  0.000  0.876
N of occupied +U levels =  56.2593605
 --- exit write_ns ---
 --- in v_hubbard ---
Hubbard energy    0.4170
 -------

     total cpu time spent up to now is      183.4 secs

     total energy              =    -537.88144526 Ry
     Harris-Foulkes estimate   =    -537.88143783 Ry
     estimated scf accuracy    <       0.00000003 Ry

     iteration # 13     ecut=    30.00 Ry     beta=0.20
     Davidson diagonalization with overlap
     ethr =  3.35E-11,  avg # of iterations =  2.1
 --- enter write_ns ---
 LDA+U parameters:
U( 1)     =  5.00000000
alpha( 1) =  0.00000000
U( 2)     =  0.00000000
alpha( 2) =  0.15000000
U( 3)     =  0.00000000
alpha( 3) =  0.00000000
U( 4)     =  0.00000000
alpha( 4) =  0.00000000
atom    1   Tr[ns(na)] =   8.05241
    eigenvalues: 
  0.519  0.519  0.995  0.995  0.998
    eigenvectors:
  0.000  0.000  0.000  0.000  1.000
  0.339  0.319  0.003  0.339  0.000
  0.319  0.339  0.339  0.003  0.000
  0.287  0.055  0.520  0.138  0.000
  0.055  0.287  0.138  0.520  0.000
    occupations:
  0.998  0.000  0.000  0.000  0.000
  0.000  0.682  0.000 -0.085  0.209
  0.000  0.000  0.682  0.209  0.085
  0.000 -0.085  0.209  0.832  0.000
  0.000  0.209  0.085  0.000  0.832
atom    2   Tr[ns(na)] =   8.04955
    eigenvalues: 
  0.518  0.518  0.995  0.995  0.998
    eigenvectors:
  0.000  0.000  0.000  0.000  1.000
  0.641  0.018  0.224  0.118  0.000
  0.018  0.641  0.118  0.224  0.000
  0.016  0.325  0.475  0.184  0.000
  0.325  0.016  0.184  0.475  0.000
    occupations:
  0.998  0.000  0.000  0.000  0.000
  0.000  0.681  0.000  0.085  0.210
  0.000  0.000  0.681  0.210 -0.085
  0.000  0.085  0.210  0.832  0.000
  0.000  0.210 -0.085  0.000  0.832
atom    3   Tr[ns(na)] =   3.75169
    eigenvalues: 
  0.352  0.352  0.377  0.398  0.398
    eigenvectors:
  0.000  0.000  1.000  0.000  0.000
  0.779  0.140  0.000  0.012  0.069
  0.140  0.779  0.000  0.069  0.012
  0.013  0.068  0.000  0.778  0.141
  0.068  0.013  0.000  0.141  0.778
    occupations:
  0.377  0.000  0.000  0.000  0.000
  0.000  0.355  0.000  0.000  0.013
  0.000  0.000  0.355  0.013  0.000
  0.000  0.000  0.013  0.394  0.000
  0.000  0.013  0.000  0.000  0.394
atom    4   Tr[ns(na)] =   3.79388
    eigenvalues: 
  0.356  0.356  0.381  0.402  0.402
    eigenvectors:
  0.000  0.000  1.000  0.000  0.000
  0.782  0.139  0.000  0.011  0.067
  0.139  0.782  0.000  0.067  0.011
  0.012  0.066  0.000  0.781  0.140
  0.066  0.012  0.000  0.140  0.781
    occupations:
  0.381  0.000  0.000  0.000  0.000
  0.000  0.360  0.000  0.000  0.012
  0.000  0.000  0.360  0.012  0.000
  0.000  0.000  0.012  0.398  0.000
  0.000  0.012  0.000  0.000  0.398
atom    5   Tr[ns(na)] =   5.43532
    eigenvalues: 
  0.839  0.931  0.948
    eigenvectors:
  0.337  0.000  0.663
  0.497  0.251  0.252
  0.166  0.749  0.085
    occupations:
  0.911 -0.045  0.026
 -0.045  0.889  0.024
  0.026  0.024  0.917
atom    6   Tr[ns(na)] =   5.43532
    eigenvalues: 
  0.839  0.931  0.948
    eigenvectors:
  0.337  0.000  0.663
  0.498  0.249  0.253
  0.165  0.751  0.084
    occupations:
  0.911  0.045  0.026
  0.045  0.889 -0.024
  0.026 -0.024  0.917
atom    7   Tr[ns(na)] =   5.43532
    eigenvalues: 
  0.839  0.931  0.948
    eigenvectors:
  0.337  0.000  0.663
  0.000  1.000  0.000
  0.663  0.000  0.337
    occupations:
  0.911  0.000 -0.052
  0.000  0.931  0.000
 -0.052  0.000  0.876
atom    8   Tr[ns(na)] =   5.43528
    eigenvalues: 
  0.839  0.930  0.949
    eigenvectors:
  0.337  0.000  0.663
  0.497  0.251  0.252
  0.166  0.749  0.085
    occupations:
  0.912 -0.045  0.026
 -0.045  0.889  0.024
  0.026  0.024  0.917
atom    9   Tr[ns(na)] =   5.43528
    eigenvalues: 
  0.839  0.930  0.949
    eigenvectors:
  0.337  0.000  0.663
  0.498  0.249  0.253
  0.165  0.751  0.084
    occupations:
  0.912  0.045  0.026
  0.045  0.889 -0.024
  0.026 -0.024  0.917
atom   10   Tr[ns(na)] =   5.43528
    eigenvalues: 
  0.839  0.930  0.949
    eigenvectors:
  0.337  0.000  0.663
  0.000  1.000  0.000
  0.663  0.000  0.337
    occupations:
  0.912  0.000 -0.052
  0.000  0.930  0.000
 -0.052  0.000  0.876
N of occupied +U levels =  56.2593233
 --- exit write_ns ---
 --- in v_hubbard ---
Hubbard energy    0.4169
 -------

     total cpu time spent up to now is      196.4 secs

     End of self-consistent calculation

          k = 0.0000 0.0000 0.0000 (  2175 PWs)   bands (ev):

   -19.8225 -19.6350  -6.5330  -5.8469  -5.8469  -5.7729  -5.7729  -5.4278
    -3.8901  -3.2759  -3.2759  -3.2732  -3.0294  -3.0294   5.1884   6.5326
     6.5326   6.5855   6.7654   6.7654   7.5280   7.5280   7.7230   8.2207
     8.4690   8.4690   9.3110   9.6405   9.6405  10.0159  10.0159  10.1885
    10.4767  10.4767  10.6927  10.8546  10.8546  11.1774  11.8891  11.8891
    14.7385  14.7385  15.4921  15.4921  16.2658  16.8485

     occupation numbers 
     0.0313   0.0313   0.0313   0.0313   0.0313   0.0313   0.0313   0.0313
     0.0313   0.0313   0.0313   0.0313   0.0313   0.0313   0.0313   0.0313
     0.0313   0.0313   0.0313   0.0313   0.0313   0.0313   0.0313   0.0313
     0.0313   0.0313   0.0312   0.0312   0.0312   0.0312   0.0312   0.0312
     0.0312   0.0312   0.0312   0.0309   0.0309   0.0276   0.0032   0.0032
     0.0000   0.0000   0.0000   0.0000   0.0000   0.0000

          k =-0.2471-0.1427 0.1027 (  2181 PWs)   bands (ev):

   -19.8016 -19.6716  -6.7098  -6.2606  -5.9365  -5.8250  -5.5760  -5.4428
    -3.6656  -3.4285  -2.9604  -2.9188  -2.8780  -2.7729   5.5269   6.2566
     6.5753   6.6344   6.7496   6.8012   6.9553   7.4703   7.5906   7.6990
     7.8785   8.2343   9.4496   9.5907   9.7221   9.9153   9.9692  10.0419
    10.2598  10.3975  10.4221  10.8400  10.9544  10.9733  12.2935  12.3665
    14.2864  14.2987  15.8739  16.1252  17.0259  17.3180

     occupation numbers 
     0.1875   0.1875   0.1875   0.1875   0.1875   0.1875   0.1875   0.1875
     0.1875   0.1875   0.1875   0.1875   0.1875   0.1875   0.1875   0.1875
     0.1875   0.1875   0.1875   0.1875   0.1875   0.1875   0.1875   0.1875
     0.1875   0.1875   0.1875   0.1875   0.1875   0.1875   0.1875   0.1875
     0.1875   0.1875   0.1875   0.1858   0.1828   0.1821   0.0007   0.0003
     0.0000   0.0000   0.0000   0.0000   0.0000   0.0000

          k = 0.4942 0.2853-0.2053 (  2202 PWs)   bands (ev):

   -19.7807 -19.7083  -6.7123  -6.6685  -5.9465  -5.9359  -5.4945  -5.4881
    -3.4359  -3.4022  -2.8207  -2.8028  -2.5428  -2.4903   5.8220   5.8437
     6.6491   6.6677   6.8804   6.9008   7.0782   7.0913   7.3228   7.3382
     7.4780   7.4945   9.3851   9.3945   9.8310   9.8412  10.1778  10.2007
    10.2242  10.2397  10.4442  10.4650  10.7289  10.7494  13.2704  13.3157
    13.3543  13.3994  16.8499  16.9114  17.1449  17.2050

     occupation numbers 
     0.0938   0.0938   0.0938   0.0938   0.0938   0.0938   0.0938   0.0938
     0.0938   0.0938   0.0938   0.0938   0.0938   0.0938   0.0938   0.0938
     0.0938   0.0938   0.0938   0.0938   0.0938   0.0938   0.0938   0.0938
     0.0938   0.0938   0.0937   0.0937   0.0937   0.0937   0.0937   0.0937
     0.0937   0.0937   0.0937   0.0937   0.0935   0.0934   0.0000   0.0000
     0.0000   0.0000   0.0000   0.0000   0.0000   0.0000

          k =-0.2471 0.1427 0.2053 (  2195 PWs)   bands (ev):

   -19.7948 -19.6795  -6.8385  -6.2238  -6.0469  -5.7817  -5.6210  -5.4426
    -3.4661  -3.2897  -3.1312  -2.9176  -2.8424  -2.5683   5.5701   5.9723
     6.3991   6.6580   6.7215   7.1157   7.1362   7.3647   7.4684   7.7458
     7.8982   8.4271   8.7660   9.3055   9.7633   9.8632   9.9995  10.0141
    10.2754  10.5689  10.6714  10.7709  10.8614  10.9145  11.8243  12.7184
    13.6200  14.7565  16.0521  16.2503  17.0937  17.5756

     occupation numbers 
     0.1875   0.1875   0.1875   0.1875   0.1875   0.1875   0.1875   0.1875
     0.1875   0.1875   0.1875   0.1875   0.1875   0.1875   0.1875   0.1875
     0.1875   0.1875   0.1875   0.1875   0.1875   0.1875   0.1875   0.1875
     0.1875   0.1875   0.1875   0.1875   0.1875   0.1875   0.1875   0.1875
     0.1875   0.1874   0.1872   0.1866   0.1854   0.1842   0.0274   0.0000
     0.0000   0.0000   0.0000   0.0000   0.0000   0.0000

          k = 0.4942 0.5706-0.1027 (  2198 PWs)   bands (ev):

   -19.7839 -19.7018  -6.9349  -6.6163  -6.1096  -5.8610  -5.4783  -5.3639
    -3.3484  -3.2793  -2.8959  -2.7229  -2.5370  -2.3940   5.6654   5.9549
     6.1166   6.6842   6.7853   6.8527   6.9302   7.2459   7.3514   7.4105
     7.8874   8.1590   8.8629   9.1713   9.4954   9.7458   9.7686  10.1020
    10.2951  10.4569  10.5215  10.6102  10.7771  10.9468  12.2873  12.7253
    13.4116  14.3374  16.9503  17.1581  17.3544  18.0481

     occupation numbers 
     0.1875   0.1875   0.1875   0.1875   0.1875   0.1875   0.1875   0.1875
     0.1875   0.1875   0.1875   0.1875   0.1875   0.1875   0.1875   0.1875
     0.1875   0.1875   0.1875   0.1875   0.1875   0.1875   0.1875   0.1875
     0.1875   0.1875   0.1875   0.1875   0.1875   0.1875   0.1875   0.1875
     0.1875   0.1875   0.1874   0.1873   0.1866   0.1831   0.0007   0.0000
     0.0000   0.0000   0.0000   0.0000   0.0000   0.0000

          k = 0.2471 0.4280 0.0000 (  2203 PWs)   bands (ev):

   -19.7869 -19.6977  -6.8246  -6.6081  -6.0274  -5.9540  -5.4085  -5.3414
    -3.5779  -3.3196  -2.8138  -2.7253  -2.5830  -2.5741   5.8250   5.8611
     6.4121   6.6162   6.7443   6.7709   7.1054   7.1678   7.3006   7.4855
     7.5321   8.3983   8.9045   9.3306   9.7183   9.7501   9.9858  10.2171
    10.3124  10.3176  10.5287  10.5713  10.5917  11.0261  12.1956  13.3026
    13.3831  14.1329  16.4824  17.0383  17.4643  17.9644

     occupation numbers 
     0.1875   0.1875   0.1875   0.1875   0.1875   0.1875   0.1875   0.1875
     0.1875   0.1875   0.1875   0.1875   0.1875   0.1875   0.1875   0.1875
     0.1875   0.1875   0.1875   0.1875   0.1875   0.1875   0.1875   0.1875
     0.1875   0.1875   0.1875   0.1875   0.1875   0.1875   0.1875   0.1875
     0.1875   0.1875   0.1874   0.1874   0.1874   0.1794   0.0018   0.0000
     0.0000   0.0000   0.0000   0.0000   0.0000   0.0000

          k = 0.4942-0.2853-0.4107 (  2202 PWs)   bands (ev):

   -19.7855 -19.6964  -7.1557  -6.4402  -6.2261  -5.9051  -5.4941  -5.2772
    -3.2362  -3.1340  -3.0750  -2.6553  -2.4847  -2.2307   5.3487   5.7535
     5.9711   6.6794   6.7621   7.1363   7.1812   7.2898   7.3882   7.3984
     8.2115   8.3203   8.4623   8.6240   9.4316   9.6936  10.0501  10.0851
    10.3011  10.3443  10.5019  10.6789  10.7599  11.0668  11.7800  12.3959
    13.3141  14.7712  17.0958  17.3108  17.5671  17.6539

     occupation numbers 
     0.0938   0.0938   0.0938   0.0938   0.0938   0.0938   0.0938   0.0938
     0.0938   0.0938   0.0938   0.0938   0.0938   0.0938   0.0938   0.0938
     0.0938   0.0938   0.0938   0.0938   0.0938   0.0938   0.0938   0.0938
     0.0938   0.0938   0.0938   0.0938   0.0937   0.0937   0.0937   0.0937
     0.0937   0.0937   0.0937   0.0936   0.0934   0.0883   0.0173   0.0001
     0.0000   0.0000   0.0000   0.0000   0.0000   0.0000

          k = 0.0000 0.0000 0.3080 (  2187 PWs)   bands (ev):

   -19.8014 -19.6732  -6.5985  -5.9433  -5.9292  -5.9119  -5.8126  -5.8049
    -3.2439  -3.1767  -3.1396  -2.9870  -2.9239  -2.8917   5.6185   6.2824
     6.5763   6.5888   6.8218   6.8241   7.0506   7.4631   7.4708   7.9633
     7.9661   8.1500   9.4535   9.4812   9.4812   9.7084  10.1112  10.1183
    10.1899  10.1911  10.5147  10.9150  10.9177  10.9191  12.2655  12.2667
    14.2468  14.2509  15.9632  15.9755  16.9352  17.5264

     occupation numbers 
     0.0625   0.0625   0.0625   0.0625   0.0625   0.0625   0.0625   0.0625
     0.0625   0.0625   0.0625   0.0625   0.0625   0.0625   0.0625   0.0625
     0.0625   0.0625   0.0625   0.0625   0.0625   0.0625   0.0625   0.0625
     0.0625   0.0625   0.0625   0.0625   0.0625   0.0625   0.0625   0.0625
     0.0625   0.0625   0.0625   0.0614   0.0614   0.0613   0.0003   0.0003
     0.0000   0.0000   0.0000   0.0000   0.0000   0.0000

          k = 0.7412 0.4280 0.0000 (  2204 PWs)   bands (ev):

   -19.7868 -19.6992  -6.7090  -6.5738  -6.1154  -5.8061  -5.6711  -5.5171
    -3.2152  -3.1257  -3.0535  -2.6991  -2.6645  -2.5940   5.8555   6.0386
     6.2812   6.7179   6.8046   6.8602   7.0267   7.1577   7.3530   7.4332
     7.6892   8.2352   8.8809   9.4335   9.4746   9.6816   9.8428  10.2017
    10.2760  10.3953  10.5936  10.6384  10.7203  10.7270  12.1942  13.2228
    13.2997  14.1615  16.7303  16.7761  17.6336  17.8307

     occupation numbers 
     0.1875   0.1875   0.1875   0.1875   0.1875   0.1875   0.1875   0.1875
     0.1875   0.1875   0.1875   0.1875   0.1875   0.1875   0.1875   0.1875
     0.1875   0.1875   0.1875   0.1875   0.1875   0.1875   0.1875   0.1875
     0.1875   0.1875   0.1875   0.1875   0.1875   0.1875   0.1875   0.1875
     0.1875   0.1875   0.1874   0.1873   0.1870   0.1869   0.0018   0.0000
     0.0000   0.0000   0.0000   0.0000   0.0000   0.0000

          k = 0.4942 0.2853 0.1027 (  2211 PWs)   bands (ev):

   -19.7841 -19.7016  -6.9517  -6.5082  -6.3034  -5.6731  -5.5909  -5.3345
    -3.3609  -3.1858  -3.0589  -2.6159  -2.5713  -2.3858   5.6906   6.0029
     6.0225   6.5548   6.8311   6.9639   7.0263   7.1497   7.3006   7.3864
     7.9336   8.2000   8.8405   9.3199   9.3705   9.6332   9.9459   9.9578
    10.3658  10.4844  10.6351  10.6879  10.7302  10.7631  12.2427  12.7395
    13.4587  14.3188  16.9231  16.9882  17.6218  17.9680

     occupation numbers 
     0.1875   0.1875   0.1875   0.1875   0.1875   0.1875   0.1875   0.1875
     0.1875   0.1875   0.1875   0.1875   0.1875   0.1875   0.1875   0.1875
     0.1875   0.1875   0.1875   0.1875   0.1875   0.1875   0.1875   0.1875
     0.1875   0.1875   0.1875   0.1875   0.1875   0.1875   0.1875   0.1875
     0.1875   0.1875   0.1873   0.1871   0.1869   0.1867   0.0012   0.0000
     0.0000   0.0000   0.0000   0.0000   0.0000   0.0000

          k = 0.7412-0.4280-0.3080 (  2210 PWs)   bands (ev):

   -19.7846 -19.7026  -6.8875  -6.4191  -6.2825  -5.7663  -5.7299  -5.4691
    -3.0953  -3.0792  -2.9882  -2.7415  -2.6323  -2.4362   5.7733   6.0224
     6.1478   6.5664   6.8316   6.8574   7.1374   7.1688   7.3309   7.4317
     7.9125   8.1902   8.7647   9.2533   9.4365   9.4904   9.6577  10.0877
    10.3024  10.4651  10.5683  10.6696  10.7960  10.8106  12.2042  12.6932
    13.4081  14.2894  17.1041  17.1152  17.5915  17.9358

     occupation numbers 
     0.1875   0.1875   0.1875   0.1875   0.1875   0.1875   0.1875   0.1875
     0.1875   0.1875   0.1875   0.1875   0.1875   0.1875   0.1875   0.1875
     0.1875   0.1875   0.1875   0.1875   0.1875   0.1875   0.1875   0.1875
     0.1875   0.1875   0.1875   0.1875   0.1875   0.1875   0.1875   0.1875
     0.1875   0.1875   0.1874   0.1872   0.1864   0.1862   0.0017   0.0000
     0.0000   0.0000   0.0000   0.0000   0.0000   0.0000

          k = 0.4942-0.5706-0.2053 (  2206 PWs)   bands (ev):

   -19.7861 -19.7010  -6.8602  -6.8494  -6.0123  -6.0050  -5.4045  -5.4009
    -3.1908  -3.1676  -2.8517  -2.8112  -2.3923  -2.3863   5.9184   5.9293
     6.0723   6.0845   6.8330   6.8417   7.0705   7.0846   7.3356   7.3422
     8.3281   8.3311   8.7942   8.8158   9.4654   9.4679   9.9752   9.9807
    10.3449  10.3537  10.5008  10.5101  10.8519  10.8595  12.2489  12.2548
    13.9829  13.9942  17.4637  17.4675  17.9081  17.9128

     occupation numbers 
     0.1875   0.1875   0.1875   0.1875   0.1875   0.1875   0.1875   0.1875
     0.1875   0.1875   0.1875   0.1875   0.1875   0.1875   0.1875   0.1875
     0.1875   0.1875   0.1875   0.1875   0.1875   0.1875   0.1875   0.1875
     0.1875   0.1875   0.1875   0.1875   0.1875   0.1875   0.1875   0.1875
     0.1875   0.1875   0.1875   0.1875   0.1856   0.1854   0.0011   0.0010
     0.0000   0.0000   0.0000   0.0000   0.0000   0.0000

          k = 0.0000 0.0000-0.6160 (  2186 PWs)   bands (ev):

   -19.7821 -19.7098  -6.5017  -6.4511  -5.9372  -5.9372  -5.8990  -5.8990
    -2.9392  -2.9392  -2.8880  -2.8880  -2.7476  -2.6871   6.0512   6.0739
     6.7570   6.7570   6.7787   6.7787   7.0362   7.0522   7.4522   7.4522
     7.4670   7.4670   9.5647   9.5647   9.5771   9.5771   9.6321   9.6448
    10.4543  10.4765  10.5877  10.5877  10.6100  10.6100  13.2111  13.2111
    13.2559  13.2559  17.1297  17.1297  17.1939  17.1939

     occupation numbers 
     0.0313   0.0313   0.0313   0.0313   0.0313   0.0313   0.0313   0.0313
     0.0313   0.0313   0.0313   0.0313   0.0313   0.0313   0.0313   0.0313
     0.0313   0.0313   0.0313   0.0313   0.0313   0.0313   0.0313   0.0313
     0.0313   0.0313   0.0312   0.0312   0.0312   0.0312   0.0312   0.0312
     0.0312   0.0312   0.0312   0.0312   0.0312   0.0312   0.0000   0.0000
     0.0000   0.0000   0.0000   0.0000   0.0000   0.0000

          k = 0.4942-0.5706 0.1027 (  2198 PWs)   bands (ev):

   -19.7839 -19.7018  -6.9353  -6.6155  -6.1105  -5.8598  -5.4794  -5.3633
    -3.3491  -3.2793  -2.8960  -2.7219  -2.5376  -2.3936   5.6627   5.9598
     6.1133   6.6864   6.7837   6.8435   6.9439   7.2446   7.3511   7.4050
     7.8917   8.1598   8.8623   9.1711   9.4933   9.7442   9.7693  10.1003
    10.2994  10.4513  10.5233  10.6095  10.7860  10.9421  12.2872  12.7250
    13.4115  14.3371  16.9521  17.1553  17.3550  18.0498

     occupation numbers 
     0.1875   0.1875   0.1875   0.1875   0.1875   0.1875   0.1875   0.1875
     0.1875   0.1875   0.1875   0.1875   0.1875   0.1875   0.1875   0.1875
     0.1875   0.1875   0.1875   0.1875   0.1875   0.1875   0.1875   0.1875
     0.1875   0.1875   0.1875   0.1875   0.1875   0.1875   0.1875   0.1875
     0.1875   0.1875   0.1874   0.1874   0.1865   0.1833   0.0007   0.0000
     0.0000   0.0000   0.0000   0.0000   0.0000   0.0000

     the Fermi energy is    11.5207 ev

!    total energy              =    -537.88145874 Ry
     Harris-Foulkes estimate   =    -537.88144527 Ry
     estimated scf accuracy    <          9.1E-09 Ry

     The total energy is the sum of the following terms:

     one-electron contribution =     -32.93766354 Ry
     hartree contribution      =      83.71720987 Ry
     xc contribution           =    -199.62915030 Ry
     ewald contribution        =    -389.44315552 Ry
     Hubbard energy            =       0.41692504 Ry
     smearing contrib. (-TS)   =      -0.00562429 Ry

     convergence has been achieved in  13 iterations

     init_run     :      7.69s CPU      7.81s WALL (       1 calls)
     electrons    :    186.13s CPU    188.06s WALL (       1 calls)

     Called by init_run:
     wfcinit      :      0.00s CPU      0.00s WALL (       1 calls)
     potinit      :      0.29s CPU      0.32s WALL (       1 calls)

     Called by electrons:
     c_bands      :    120.89s CPU    121.48s WALL (      13 calls)
     sum_band     :     37.47s CPU     37.74s WALL (      13 calls)
     v_of_rho     :      3.48s CPU      3.50s WALL (      14 calls)
     v_h          :      0.18s CPU      0.19s WALL (      14 calls)
     v_xc         :      3.29s CPU      3.31s WALL (      14 calls)
     newd         :     25.68s CPU     25.73s WALL (      14 calls)
     mix_rho      :      0.35s CPU      0.36s WALL (      13 calls)

     Called by c_bands:
     init_us_2    :      1.39s CPU      1.39s WALL (     364 calls)
     cegterg      :    117.12s CPU    117.45s WALL (     182 calls)

     Called by sum_band:
     sum_band:bec :      0.14s CPU      0.14s WALL (     182 calls)
     addusdens    :     16.86s CPU     16.87s WALL (      13 calls)

     Called by *egterg:
     h_psi        :     87.98s CPU     88.21s WALL (     728 calls)
     s_psi        :      4.99s CPU      5.00s WALL (     728 calls)
     g_psi        :      0.44s CPU      0.43s WALL (     546 calls)
     cdiaghg      :      8.29s CPU      8.31s WALL (     714 calls)
     cegterg:over :      5.64s CPU      5.67s WALL (     546 calls)
     cegterg:upda :      3.58s CPU      3.59s WALL (     546 calls)
     cegterg:last :      2.65s CPU      2.66s WALL (     209 calls)

     Called by h_psi:
     h_psi:vloc   :     71.73s CPU     71.93s WALL (     728 calls)
     h_psi:vnl    :     10.35s CPU     10.37s WALL (     728 calls)
     add_vuspsi   :      5.02s CPU      5.01s WALL (     728 calls)
     vhpsi        :      5.67s CPU      5.70s WALL (     728 calls)

     General routines
     calbec       :     11.10s CPU     11.15s WALL (    1820 calls)
     fft          :      2.26s CPU      2.32s WALL (     219 calls)
     ffts         :      0.07s CPU      0.10s WALL (      27 calls)
     fftw         :     69.53s CPU     69.80s WALL (   51122 calls)
     interpolate  :      0.39s CPU      0.47s WALL (      27 calls)
     davcio       :      0.01s CPU      0.50s WALL (     378 calls)

     Parallel routines
     fft_scatter  :     17.41s CPU     17.63s WALL (   51368 calls)
     Hubbard U routines
     new_ns       :      1.14s CPU      1.36s WALL (      13 calls)
     vhpsi        :      5.67s CPU      5.70s WALL (     728 calls)

     PWSCF        :  3m14.29s CPU     3m16.44s WALL


   This run was terminated on:  15:18:12  11Nov2012            

=------------------------------------------------------------------------------=
