   JOB DONE.
=------------------------------------------------------------------------------=

     Program PWSCF v.5.0.1 starts on 11Nov2012 at 14:50:48 

     This program is part of the open-source Quantum ESPRESSO suite
     for quantum simulation of materials; please cite
         "P. Giannozzi et al., J. Phys.:Condens. Matter 21 395502 (2009);
          URL http://www.quantum-espresso.org", 
     in publications or presentations arising from this work. More details at
     http://www.quantum-espresso.org/quote.php

     Parallel version (MPI), running on     2 processors
     R & G space division:  proc/pool =    2

     Current dimensions of program PWSCF are:
     Max number of different atomic species (ntypx) = 10
     Max number of k-points (npk) =  40000
     Max angular momentum in pseudopotentials (lmaxx) =  3
     Reading input from CoLaO_U500_a-15.in
               file Co.pbe-nd-rrkjus.UPF: wavefunction(s)  4S 3D renormalized
               file O.pbe-rrkjus.UPF: wavefunction(s)  2S renormalized
               file O.pbe-rrkjus.UPF: wavefunction(s)  2S renormalized

     Subspace diagonalization in iterative solution of the eigenvalue problem:
     a serial algorithm will be used


     Parallelization info
     --------------------
     sticks:   dense  smooth     PW     G-vecs:    dense   smooth      PW
     Min        1112     444    131                34808     8786    1448
     Max        1113     445    132                34809     8787    1449
     Sum        2225     889    263                69617    17573    2897


     Title: 
     GGA + U, U = 5.000, alpha = -0.150                                         


     bravais-lattice index     =            5
     lattice parameter (alat)  =      10.3292  a.u.
     unit-cell volume          =     793.0599 (a.u.)^3
     number of atoms/cell      =           10
     number of atomic types    =            4
     number of electrons       =        76.00
     number of Kohn-Sham states=           46
     kinetic-energy cutoff     =      30.0000  Ry
     charge density cutoff     =     300.0000  Ry
     convergence threshold     =      1.0E-08
     mixing beta               =       0.2000
     number of iterations used =            8  plain     mixing
     Exchange-correlation      =  SLA  PW   PBE  PBE ( 1 4 3 4 0)
     EXX-fraction              =        0.00

     celldm(1)=  10.329242  celldm(2)=   0.000000  celldm(3)=   0.000000
     celldm(4)=   0.488100  celldm(5)=   0.000000  celldm(6)=   0.000000

     crystal axes: (cart. coord. in units of alat)
               a(1) = (   0.505915  -0.292090   0.811624 )  
               a(2) = (   0.000000   0.584180   0.811624 )  
               a(3) = (  -0.505915  -0.292090   0.811624 )  

     reciprocal axes: (cart. coord. in units 2 pi/alat)
               b(1) = (  0.988308 -0.570600  0.410699 )  
               b(2) = (  0.000000  1.141200  0.410699 )  
               b(3) = ( -0.988308 -0.570600  0.410699 )  


     PseudoPot. # 1 for Co read from file:
     /home/mcurnan/dft-course/Project1/example_LaCoO3/Co.pbe-nd-rrkjus.UPF
     MD5 check sum: 3e47a84addf5e975e0edeaeee2a73f59
     Pseudo is Ultrasoft + core correction, Zval =  9.0
     Generated by new atomic code, or converted to UPF format
     Using radial grid of  961 points,  6 beta functions with: 
                l(1) =   0
                l(2) =   0
                l(3) =   1
                l(4) =   1
                l(5) =   2
                l(6) =   2
     Q(r) pseudized with 0 coefficients 


     PseudoPot. # 2 for La read from file:
     /home/mcurnan/dft-course/Project1/example_LaCoO3/La.pbe-nsp-van.UPF
     MD5 check sum: b2f11743f52dde65f77d1302becd7929
     Pseudo is Ultrasoft + core correction, Zval = 11.0
     Generated by new atomic code, or converted to UPF format
     Using radial grid of  907 points,  6 beta functions with: 
                l(1) =   0
                l(2) =   0
                l(3) =   1
                l(4) =   1
                l(5) =   2
                l(6) =   2
     Q(r) pseudized with  6 coefficients,  rinner =    1.200   1.200   1.200
                                                       1.200   1.200

     PseudoPot. # 3 for O  read from file:
     /home/mcurnan/dft-course/Project1/example_LaCoO3/O.pbe-rrkjus.UPF
     MD5 check sum: 390ba29e75625707450f3bd3f0eb6be9
     Pseudo is Ultrasoft, Zval =  6.0
     Generated by new atomic code, or converted to UPF format
     Using radial grid of 1269 points,  4 beta functions with: 
                l(1) =   0
                l(2) =   0
                l(3) =   1
                l(4) =   1
     Q(r) pseudized with 0 coefficients 


     PseudoPot. # 4 for O  read from file:
     /home/mcurnan/dft-course/Project1/example_LaCoO3/O.pbe-rrkjus.UPF
     MD5 check sum: 390ba29e75625707450f3bd3f0eb6be9
     Pseudo is Ultrasoft, Zval =  6.0
     Generated by new atomic code, or converted to UPF format
     Using radial grid of 1269 points,  4 beta functions with: 
                l(1) =   0
                l(2) =   0
                l(3) =   1
                l(4) =   1
     Q(r) pseudized with 0 coefficients 


     atomic species   valence    mass     pseudopotential
        Co1            9.00     1.00000     Co( 1.00)
        La1           11.00     1.00000     La( 1.00)
        O1             6.00     1.00000     O ( 1.00)
        O2             6.00     1.00000     O ( 1.00)
 -----
     simplified LDA+U calculation, Hubbard_lmax = 2
     atomic species  L   Hubbard U  Hubbard alpha
        Co1          2    5.000000    0.000000
        La1          2    0.000000    0.000000
        O1           1    0.000000   -0.150000
        O2           1    0.000000    0.000000
 -----

     No symmetry found


                                    s                        frac. trans.

      isym =  1     identity                                     

 cryst.   s( 1) = (     1          0          0      )
                  (     0          1          0      )
                  (     0          0          1      )

 cart.    s( 1) = (  1.0000000  0.0000000  0.0000000 )
                  (  0.0000000  1.0000000  0.0000000 )
                  (  0.0000000  0.0000000  1.0000000 )


     point group C_1 (1)    
     there are  1 classes
     the character table:

       E    
A      1.00

     the symmetry operations in each class:
     E        1

   Cartesian axes

     site n.     atom                  positions (alat units)
         1           Co1 tau(   1) = (   0.2228050  -0.1992639   1.0141240  )
         2           Co1 tau(   2) = (  -0.2831100   0.0928263   1.4199360  )
         3           La1 tau(   3) = (  -0.2831100   0.0928263   0.8112181  )
         4           La1 tau(   4) = (   0.2228050   0.3849164   1.2170300  )
         5           O1  tau(   5) = (   0.0000000   0.0000000   0.0000000  )
         6           O2  tau(   6) = (   0.0008601   0.1861491   1.6232478  )
         7           O2  tau(   7) = (   0.1616398   0.0923297   0.8116239  )
         8           O2  tau(   8) = (  -0.0603051  -0.1064377   1.2166242  )
         9           O2  tau(   9) = (   0.4447499  -0.0004966   1.2166242  )
        10           O2  tau(  10) = (  -0.2219449   0.3854130   1.2166242  )

   Crystallographic axes

     site n.     atom                  positions (cryst. coord.)
         1           Co1 tau(   1) = (  0.7504000  0.1891000  0.3100000  )
         2           Co1 tau(   2) = (  0.2504000  0.6891000  0.8100000  )
         3           La1 tau(   3) = (  0.0004000  0.4391000  0.5600000  )
         4           La1 tau(   4) = (  0.5004000  0.9391000  0.0600000  )
         5           O1  tau(   5) = (  0.0000000  0.0000000  0.0000000  )
         6           O2  tau(   6) = (  0.5613000  0.8791000  0.5596000  )
         7           O2  tau(   7) = (  0.4404000  0.4387000  0.1209000  )
         8           O2  tau(   8) = (  0.5008000  0.3782000  0.6200000  )
         9           O2  tau(   9) = (  0.9395000  0.4991000  0.0604000  )
        10           O2  tau(  10) = (  0.0604000  0.9395000  0.4991000  )

     number of k points=    36  gaussian smearing, width (Ry)=  0.0300
                       cart. coord. in units 2pi/alat
        k(    1) = (   0.0000000   0.0000000   0.0000000), wk =   0.0312500
        k(    2) = (  -0.2470771  -0.1426500   0.1026748), wk =   0.0625000
        k(    3) = (   0.4941541   0.2853000  -0.2053496), wk =   0.0312500
        k(    4) = (  -0.2470771   0.1426500   0.2053496), wk =   0.0625000
        k(    5) = (   0.4941541   0.5706001  -0.1026748), wk =   0.0625000
        k(    6) = (   0.2470771   0.4279500   0.0000000), wk =   0.0625000
        k(    7) = (   0.4941541  -0.2853000  -0.4106993), wk =   0.0312500
        k(    8) = (   0.0000000   0.0000000   0.3080244), wk =   0.0625000
        k(    9) = (   0.7412312   0.4279500   0.0000000), wk =   0.0625000
        k(   10) = (   0.4941541   0.2853000   0.1026748), wk =   0.0625000
        k(   11) = (   0.7412312  -0.4279500  -0.3080244), wk =   0.0625000
        k(   12) = (   0.4941541  -0.5706001  -0.2053496), wk =   0.0625000
        k(   13) = (   0.0000000   0.0000000  -0.6160489), wk =   0.0312500
        k(   14) = (  -0.2470771   0.1426500  -0.1026748), wk =   0.0625000
        k(   15) = (   0.0000000   0.2853000   0.1026748), wk =   0.0625000
        k(   16) = (   0.4941541  -0.2853000   0.2053496), wk =   0.0312500
        k(   17) = (   0.0000000  -0.5706001  -0.2053496), wk =   0.0312500
        k(   18) = (  -0.2470771  -0.1426500  -0.2053496), wk =   0.0625000
        k(   19) = (   0.0000000  -0.2853000   0.2053496), wk =   0.0625000
        k(   20) = (   0.4941541  -0.5706001   0.1026748), wk =   0.0625000
        k(   21) = (  -0.7412312   0.1426500  -0.1026748), wk =   0.0625000
        k(   22) = (   0.2470771  -0.7132501  -0.1026748), wk =   0.0625000
        k(   23) = (  -0.7412312  -0.1426500   0.1026748), wk =   0.0625000
        k(   24) = (   0.2470771   0.7132501   0.1026748), wk =   0.0625000
        k(   25) = (   0.2470771  -0.4279500   0.0000000), wk =   0.0625000
        k(   26) = (  -0.4941541   0.0000000   0.0000000), wk =   0.0625000
        k(   27) = (   0.4941541   0.2853000   0.4106993), wk =   0.0312500
        k(   28) = (   0.0000000   0.5706001  -0.4106993), wk =   0.0312500
        k(   29) = (   0.7412312  -0.4279500   0.0000000), wk =   0.0625000
        k(   30) = (   0.0000000  -0.8559001   0.0000000), wk =   0.0625000
        k(   31) = (   0.4941541  -0.2853000  -0.1026748), wk =   0.0625000
        k(   32) = (   0.0000000  -0.5706001   0.1026748), wk =   0.0625000
        k(   33) = (   0.7412312   0.4279500   0.3080244), wk =   0.0625000
        k(   34) = (   0.0000000   0.8559001  -0.3080244), wk =   0.0625000
        k(   35) = (   0.2470771   0.7132501  -0.2053496), wk =   0.0625000
        k(   36) = (  -0.7412312  -0.1426500  -0.2053496), wk =   0.0625000

                       cryst. coord.
        k(    1) = (   0.0000000   0.0000000   0.0000000), wk =   0.0312500
        k(    2) = (   0.0000000   0.0000000   0.2500000), wk =   0.0625000
        k(    3) = (   0.0000000   0.0000000  -0.5000000), wk =   0.0312500
        k(    4) = (   0.0000000   0.2500000   0.2500000), wk =   0.0625000
        k(    5) = (   0.0000000   0.2500000  -0.5000000), wk =   0.0625000
        k(    6) = (   0.0000000   0.2500000  -0.2500000), wk =   0.0625000
        k(    7) = (   0.0000000  -0.5000000  -0.5000000), wk =   0.0312500
        k(    8) = (   0.2500000   0.2500000   0.2500000), wk =   0.0625000
        k(    9) = (   0.2500000   0.2500000  -0.5000000), wk =   0.0625000
        k(   10) = (   0.2500000   0.2500000  -0.2500000), wk =   0.0625000
        k(   11) = (   0.2500000  -0.5000000  -0.5000000), wk =   0.0625000
        k(   12) = (   0.2500000  -0.5000000  -0.2500000), wk =   0.0625000
        k(   13) = (  -0.5000000  -0.5000000  -0.5000000), wk =   0.0312500
        k(   14) = (  -0.2500000   0.0000000   0.0000000), wk =   0.0625000
        k(   15) = (   0.0000000   0.2500000   0.0000000), wk =   0.0625000
        k(   16) = (   0.5000000   0.0000000   0.0000000), wk =   0.0312500
        k(   17) = (   0.0000000  -0.5000000   0.0000000), wk =   0.0312500
        k(   18) = (  -0.2500000  -0.2500000   0.0000000), wk =   0.0625000
        k(   19) = (   0.2500000   0.0000000   0.2500000), wk =   0.0625000
        k(   20) = (   0.5000000  -0.2500000   0.0000000), wk =   0.0625000
        k(   21) = (  -0.5000000   0.0000000   0.2500000), wk =   0.0625000
        k(   22) = (   0.2500000  -0.5000000   0.0000000), wk =   0.0625000
        k(   23) = (  -0.2500000   0.0000000   0.5000000), wk =   0.0625000
        k(   24) = (   0.0000000   0.5000000  -0.2500000), wk =   0.0625000
        k(   25) = (   0.2500000  -0.2500000   0.0000000), wk =   0.0625000
        k(   26) = (  -0.2500000   0.0000000   0.2500000), wk =   0.0625000
        k(   27) = (   0.5000000   0.5000000   0.0000000), wk =   0.0312500
        k(   28) = (  -0.5000000   0.0000000  -0.5000000), wk =   0.0312500
        k(   29) = (   0.5000000  -0.2500000  -0.2500000), wk =   0.0625000
        k(   30) = (   0.2500000  -0.5000000   0.2500000), wk =   0.0625000
        k(   31) = (   0.2500000  -0.2500000  -0.2500000), wk =   0.0625000
        k(   32) = (   0.2500000  -0.2500000   0.2500000), wk =   0.0625000
        k(   33) = (   0.5000000   0.5000000  -0.2500000), wk =   0.0625000
        k(   34) = (  -0.5000000   0.2500000  -0.5000000), wk =   0.0625000
        k(   35) = (  -0.2500000   0.2500000  -0.5000000), wk =   0.0625000
        k(   36) = (  -0.5000000  -0.2500000   0.2500000), wk =   0.0625000

     Dense  grid:    69617 G-vectors     FFT dimensions: (  60,  60,  60)

     Smooth grid:    17573 G-vectors     FFT dimensions: (  40,  40,  40)

     Largest allocated arrays     est. size (Mb)     dimensions
        Kohn-Sham Wavefunctions         0.79 Mb     (   1119,   46)
        Atomic wavefunctions            1.06 Mb     (   1119,   62)
        NL pseudopotentials             2.05 Mb     (   1119,  120)
        Each V/rho on FFT grid          1.65 Mb     ( 108000)
        Each G-vector array             0.27 Mb     (  34808)
        G-vector shells                 0.04 Mb     (   4682)
     Largest temporary arrays     est. size (Mb)     dimensions
        Auxiliary wavefunctions         3.14 Mb     (   1119,  184)
        Each subspace H/S matrix        0.52 Mb     ( 184, 184)
        Each <psi_i|beta_j> matrix      0.08 Mb     (    120,   46)
        Arrays for rho mixing          13.18 Mb     ( 108000,   8)

     Check: negative/imaginary core charge=   -0.000028    0.000000

     The initial density is read from file :
     /home/mcurnan/dft-course/Project1/example_LaCoO3/500/O/alpha/CoLaO_U500.save/charge-density.dat

 --- in v_hubbard ---
Hubbard energy    0.4186
 -------
     Number of +U iterations with fixed ns =  0
     Starting occupations:
 --- enter write_ns ---
 LDA+U parameters:
U( 1)     =  5.00000000
alpha( 1) =  0.00000000
U( 2)     =  0.00000000
alpha( 2) =  0.00000000
U( 3)     =  0.00000000
alpha( 3) = -0.15000000
U( 4)     =  0.00000000
alpha( 4) =  0.00000000
atom    1   Tr[ns(na)] =   8.02205
    eigenvalues: 
  0.596  0.596  0.938  0.941  0.941
    eigenvectors:
  0.000  0.000  1.000  0.000  0.000
  0.057  0.598  0.000  0.178  0.167
  0.598  0.057  0.000  0.167  0.178
  0.210  0.135  0.000  0.095  0.560
  0.135  0.210  0.000  0.560  0.095
    occupations:
  0.938  0.000  0.000  0.000  0.000
  0.000  0.715  0.000 -0.060  0.152
  0.000  0.000  0.715  0.152  0.060
  0.000 -0.060  0.152  0.822  0.000
  0.000  0.152  0.060  0.000  0.822
atom    2   Tr[ns(na)] =   8.02142
    eigenvalues: 
  0.595  0.595  0.938  0.941  0.941
    eigenvectors:
  0.000  0.000  1.000  0.000  0.000
  0.332  0.323  0.000  0.023  0.322
  0.323  0.332  0.000  0.322  0.023
  0.288  0.057  0.000  0.647  0.008
  0.057  0.288  0.000  0.008  0.647
    occupations:
  0.938  0.000  0.000  0.000  0.000
  0.000  0.715  0.000  0.060  0.153
  0.000  0.000  0.715  0.153 -0.060
  0.000  0.060  0.153  0.822  0.000
  0.000  0.153 -0.060  0.000  0.822
atom    3   Tr[ns(na)] =   3.80282
    eigenvalues: 
  0.355  0.355  0.384  0.403  0.403
    eigenvectors:
  0.000  0.000  1.000  0.000  0.000
  0.065  0.856  0.000  0.058  0.021
  0.856  0.065  0.000  0.021  0.058
  0.073  0.006  0.000  0.250  0.670
  0.006  0.073  0.000  0.670  0.250
    occupations:
  0.384  0.000  0.000  0.000  0.000
  0.000  0.359  0.000  0.000  0.013
  0.000  0.000  0.359  0.013  0.000
  0.000  0.000  0.013  0.399  0.000
  0.000  0.013  0.000  0.000  0.399
atom    4   Tr[ns(na)] =   3.80282
    eigenvalues: 
  0.355  0.355  0.384  0.403  0.403
    eigenvectors:
  0.000  0.000  1.000  0.000  0.000
  0.729  0.192  0.000  0.048  0.032
  0.192  0.729  0.000  0.032  0.048
  0.017  0.062  0.000  0.359  0.562
  0.062  0.017  0.000  0.562  0.359
    occupations:
  0.384  0.000  0.000  0.000  0.000
  0.000  0.359  0.000  0.000  0.013
  0.000  0.000  0.359  0.013  0.000
  0.000  0.000  0.013  0.399  0.000
  0.000  0.013  0.000  0.000  0.399
atom    5   Tr[ns(na)] =   5.43357
    eigenvalues: 
  0.846  0.929  0.941
    eigenvectors:
  0.340  0.000  0.660
  0.496  0.250  0.255
  0.164  0.750  0.086
    occupations:
  0.909 -0.039  0.022
 -0.039  0.891  0.022
  0.022  0.022  0.917
atom    6   Tr[ns(na)] =   5.43358
    eigenvalues: 
  0.846  0.929  0.941
    eigenvectors:
  0.340  0.000  0.660
  0.494  0.250  0.256
  0.166  0.750  0.085
    occupations:
  0.909  0.039  0.022
  0.039  0.891 -0.022
  0.022 -0.022  0.917
atom    7   Tr[ns(na)] =   5.43358
    eigenvalues: 
  0.846  0.929  0.941
    eigenvectors:
  0.340  0.000  0.660
  0.000  1.000  0.000
  0.660  0.000  0.340
    occupations:
  0.909  0.000 -0.045
  0.000  0.929  0.000
 -0.045  0.000  0.879
atom    8   Tr[ns(na)] =   5.43357
    eigenvalues: 
  0.846  0.929  0.941
    eigenvectors:
  0.340  0.000  0.660
  0.496  0.250  0.255
  0.164  0.750  0.086
    occupations:
  0.909 -0.039  0.022
 -0.039  0.891  0.022
  0.022  0.022  0.917
atom    9   Tr[ns(na)] =   5.43358
    eigenvalues: 
  0.846  0.929  0.941
    eigenvectors:
  0.340  0.000  0.660
  0.494  0.250  0.256
  0.166  0.750  0.085
    occupations:
  0.909  0.039  0.022
  0.039  0.891 -0.022
  0.022 -0.022  0.917
atom   10   Tr[ns(na)] =   5.43358
    eigenvalues: 
  0.846  0.929  0.941
    eigenvectors:
  0.340  0.000  0.660
  0.000  1.000  0.000
  0.660  0.000  0.340
    occupations:
  0.909  0.000 -0.045
  0.000  0.929  0.000
 -0.045  0.000  0.879
N of occupied +U levels =  56.2505796
 --- exit write_ns ---
 LDA+U Projector read from file 
     Starting wfc from file

     total cpu time spent up to now is        7.4 secs

     per-process dynamical memory:    62.8 Mb

     Self-consistent Calculation

     iteration #  1     ecut=    30.00 Ry     beta=0.20
     Davidson diagonalization with overlap
     c_bands:  1 eigenvalues not converged
     c_bands:  1 eigenvalues not converged
     c_bands:  1 eigenvalues not converged
     c_bands:  1 eigenvalues not converged
     c_bands:  1 eigenvalues not converged
     c_bands:  1 eigenvalues not converged
     c_bands:  1 eigenvalues not converged
     c_bands:  1 eigenvalues not converged
     c_bands:  1 eigenvalues not converged
     c_bands:  1 eigenvalues not converged
     c_bands:  1 eigenvalues not converged
     c_bands:  1 eigenvalues not converged
     c_bands:  1 eigenvalues not converged
     c_bands:  1 eigenvalues not converged
     c_bands:  1 eigenvalues not converged
     c_bands:  1 eigenvalues not converged
     c_bands:  1 eigenvalues not converged
     c_bands:  1 eigenvalues not converged
     c_bands:  1 eigenvalues not converged
     c_bands:  1 eigenvalues not converged
     c_bands:  1 eigenvalues not converged
     ethr =  1.00E-10,  avg # of iterations = 18.0
 --- enter write_ns ---
 LDA+U parameters:
U( 1)     =  5.00000000
alpha( 1) =  0.00000000
U( 2)     =  0.00000000
alpha( 2) =  0.00000000
U( 3)     =  0.00000000
alpha( 3) = -0.15000000
U( 4)     =  0.00000000
alpha( 4) =  0.00000000
atom    1   Tr[ns(na)] =   8.21304
    eigenvalues: 
  0.564  0.567  0.991  0.991  0.994
    eigenvectors:
  0.000  0.000  0.006  0.001  0.993
  0.556  0.099  0.173  0.171  0.002
  0.098  0.556  0.171  0.175  0.000
  0.168  0.178  0.543  0.108  0.002
  0.178  0.167  0.107  0.545  0.002
    occupations:
  0.994  0.000  0.000  0.000  0.000
  0.000  0.712  0.001 -0.074  0.189
  0.000  0.001  0.713  0.188  0.073
  0.000 -0.074  0.188  0.844  0.001
  0.000  0.189  0.073  0.001  0.844
atom    2   Tr[ns(na)] =   8.20364
    eigenvalues: 
  0.561  0.564  0.991  0.991  0.994
    eigenvectors:
  0.000  0.000  0.006  0.001  0.993
  0.416  0.238  0.321  0.023  0.002
  0.238  0.416  0.023  0.322  0.001
  0.026  0.319  0.007  0.647  0.000
  0.319  0.027  0.643  0.007  0.004
    occupations:
  0.994  0.000  0.000  0.000  0.000
  0.000  0.711  0.001  0.073  0.191
  0.000  0.001  0.711  0.190 -0.074
  0.000  0.073  0.190  0.844  0.000
  0.000  0.191 -0.074  0.000  0.842
atom    3   Tr[ns(na)] =   3.78870
    eigenvalues: 
  0.355  0.356  0.381  0.401  0.401
    eigenvectors:
  0.000  0.000  1.000  0.000  0.000
  0.228  0.686  0.000  0.066  0.020
  0.687  0.228  0.000  0.021  0.065
  0.063  0.022  0.000  0.225  0.689
  0.022  0.064  0.000  0.688  0.225
    occupations:
  0.381  0.000  0.000  0.000  0.000
  0.000  0.360  0.000  0.000  0.013
  0.000  0.000  0.359  0.013  0.000
  0.000  0.000  0.013  0.397  0.000
  0.000  0.013  0.000  0.000  0.397
atom    4   Tr[ns(na)] =   3.78884
    eigenvalues: 
  0.355  0.356  0.381  0.401  0.401
    eigenvectors:
  0.000  0.000  1.000  0.000  0.000
  0.689  0.231  0.000  0.059  0.021
  0.233  0.685  0.000  0.019  0.064
  0.020  0.062  0.000  0.234  0.684
  0.058  0.022  0.000  0.688  0.232
    occupations:
  0.381  0.000  0.000  0.000  0.000
  0.000  0.359  0.000  0.000  0.012
  0.000  0.000  0.359  0.013  0.000
  0.000  0.000  0.013  0.397  0.000
  0.000  0.012  0.000  0.000  0.397
atom    5   Tr[ns(na)] =   5.41050
    eigenvalues: 
  0.831  0.927  0.947
    eigenvectors:
  0.340  0.000  0.660
  0.495  0.250  0.255
  0.165  0.750  0.085
    occupations:
  0.908 -0.048  0.027
 -0.048  0.885  0.025
  0.027  0.025  0.913
atom    6   Tr[ns(na)] =   5.38402
    eigenvalues: 
  0.825  0.923  0.944
    eigenvectors:
  0.341  0.000  0.659
  0.494  0.248  0.257
  0.165  0.752  0.084
    occupations:
  0.903  0.049  0.028
  0.049  0.880 -0.025
  0.028 -0.025  0.909
atom    7   Tr[ns(na)] =   5.38402
    eigenvalues: 
  0.825  0.923  0.944
    eigenvectors:
  0.341  0.000  0.659
  0.000  1.000  0.000
  0.659  0.000  0.341
    occupations:
  0.903  0.000 -0.057
  0.000  0.923  0.000
 -0.057  0.000  0.865
atom    8   Tr[ns(na)] =   5.38396
    eigenvalues: 
  0.824  0.923  0.945
    eigenvectors:
  0.341  0.000  0.659
  0.495  0.250  0.255
  0.164  0.750  0.086
    occupations:
  0.904 -0.049  0.028
 -0.049  0.880  0.025
  0.028  0.025  0.909
atom    9   Tr[ns(na)] =   5.38409
    eigenvalues: 
  0.825  0.923  0.944
    eigenvectors:
  0.341  0.000  0.659
  0.494  0.249  0.257
  0.165  0.751  0.084
    occupations:
  0.903  0.049  0.028
  0.049  0.880 -0.025
  0.028 -0.025  0.909
atom   10   Tr[ns(na)] =   5.38409
    eigenvalues: 
  0.825  0.923  0.944
    eigenvectors:
  0.341  0.000  0.659
  0.000  1.000  0.000
  0.659  0.000  0.341
    occupations:
  0.903  0.000 -0.057
  0.000  0.923  0.000
 -0.057  0.000  0.865
N of occupied +U levels =  56.3249009
 --- exit write_ns ---
 --- in v_hubbard ---
Hubbard energy    0.3999
 -------

     total cpu time spent up to now is       91.0 secs

     total energy              =    -537.96631293 Ry
     Harris-Foulkes estimate   =    -537.97556310 Ry
     estimated scf accuracy    <       0.04771655 Ry

     iteration #  2     ecut=    30.00 Ry     beta=0.20
     Davidson diagonalization with overlap
     ethr =  6.28E-05,  avg # of iterations =  1.6
 --- enter write_ns ---
 LDA+U parameters:
U( 1)     =  5.00000000
alpha( 1) =  0.00000000
U( 2)     =  0.00000000
alpha( 2) =  0.00000000
U( 3)     =  0.00000000
alpha( 3) = -0.15000000
U( 4)     =  0.00000000
alpha( 4) =  0.00000000
atom    1   Tr[ns(na)] =   8.02508
    eigenvalues: 
  0.516  0.517  0.992  0.992  0.995
    eigenvectors:
  0.000  0.000  0.001  0.000  0.999
  0.557  0.099  0.207  0.138  0.000
  0.099  0.556  0.138  0.207  0.000
  0.170  0.175  0.500  0.155  0.000
  0.175  0.169  0.155  0.500  0.000
    occupations:
  0.995  0.000  0.000  0.000  0.000
  0.000  0.680  0.000 -0.084  0.210
  0.000  0.000  0.681  0.210  0.083
  0.000 -0.084  0.210  0.828  0.000
  0.000  0.210  0.083  0.000  0.828
atom    2   Tr[ns(na)] =   8.02760
    eigenvalues: 
  0.515  0.517  0.993  0.993  0.996
    eigenvectors:
  0.000  0.000  0.001  0.000  0.999
  0.417  0.238  0.304  0.041  0.000
  0.239  0.417  0.040  0.304  0.000
  0.025  0.320  0.000  0.655  0.000
  0.320  0.025  0.654  0.000  0.000
    occupations:
  0.996  0.000  0.000  0.000  0.000
  0.000  0.680  0.001  0.083  0.211
  0.000  0.001  0.681  0.210 -0.083
  0.000  0.083  0.210  0.829  0.000
  0.000  0.211 -0.083  0.000  0.828
atom    3   Tr[ns(na)] =   3.78539
    eigenvalues: 
  0.355  0.355  0.381  0.401  0.401
    eigenvectors:
  0.000  0.000  1.000  0.000  0.000
  0.226  0.693  0.000  0.065  0.016
  0.694  0.225  0.000  0.016  0.065
  0.061  0.020  0.000  0.189  0.730
  0.020  0.061  0.000  0.730  0.189
    occupations:
  0.381  0.000  0.000  0.000  0.000
  0.000  0.359  0.000  0.000  0.013
  0.000  0.000  0.359  0.013  0.000
  0.000  0.000  0.013  0.397  0.000
  0.000  0.013  0.000  0.000  0.397
atom    4   Tr[ns(na)] =   3.78559
    eigenvalues: 
  0.355  0.355  0.381  0.401  0.401
    eigenvectors:
  0.000  0.000  1.000  0.000  0.000
  0.681  0.240  0.000  0.061  0.018
  0.240  0.679  0.000  0.018  0.063
  0.021  0.059  0.000  0.213  0.707
  0.057  0.022  0.000  0.708  0.212
    occupations:
  0.381  0.000  0.000  0.000  0.000
  0.000  0.359  0.000  0.000  0.012
  0.000  0.000  0.359  0.013  0.000
  0.000  0.000  0.013  0.398  0.000
  0.000  0.012  0.000  0.000  0.397
atom    5   Tr[ns(na)] =   5.45342
    eigenvalues: 
  0.844  0.933  0.949
    eigenvectors:
  0.336  0.000  0.664
  0.497  0.252  0.251
  0.167  0.748  0.085
    occupations:
  0.914 -0.043  0.025
 -0.043  0.893  0.023
  0.025  0.023  0.919
atom    6   Tr[ns(na)] =   5.44460
    eigenvalues: 
  0.842  0.931  0.949
    eigenvectors:
  0.336  0.000  0.664
  0.500  0.247  0.253
  0.165  0.753  0.083
    occupations:
  0.913  0.044  0.025
  0.044  0.891 -0.023
  0.025 -0.023  0.918
atom    7   Tr[ns(na)] =   5.44460
    eigenvalues: 
  0.842  0.931  0.949
    eigenvectors:
  0.336  0.000  0.664
  0.000  1.000  0.000
  0.664  0.000  0.336
    occupations:
  0.913  0.000 -0.050
  0.000  0.931  0.000
 -0.050  0.000  0.878
atom    8   Tr[ns(na)] =   5.44578
    eigenvalues: 
  0.842  0.932  0.949
    eigenvectors:
  0.336  0.000  0.664
  0.497  0.252  0.251
  0.167  0.748  0.085
    occupations:
  0.913 -0.044  0.025
 -0.044  0.892  0.023
  0.025  0.023  0.918
atom    9   Tr[ns(na)] =   5.44437
    eigenvalues: 
  0.842  0.931  0.949
    eigenvectors:
  0.336  0.000  0.664
  0.499  0.248  0.254
  0.165  0.752  0.083
    occupations:
  0.913  0.044  0.025
  0.044  0.891 -0.023
  0.025 -0.023  0.918
atom   10   Tr[ns(na)] =   5.44438
    eigenvalues: 
  0.842  0.931  0.949
    eigenvectors:
  0.336  0.000  0.664
  0.000  1.000  0.000
  0.664  0.000  0.336
    occupations:
  0.913  0.000 -0.050
  0.000  0.931  0.000
 -0.050  0.000  0.878
N of occupied +U levels =  56.3008030
 --- exit write_ns ---
 --- in v_hubbard ---
Hubbard energy    0.3916
 -------

     total cpu time spent up to now is      115.2 secs

     total energy              =    -537.97564500 Ry
     Harris-Foulkes estimate   =    -537.97529351 Ry
     estimated scf accuracy    <       0.03055054 Ry

     iteration #  3     ecut=    30.00 Ry     beta=0.20
     Davidson diagonalization with overlap
     ethr =  4.02E-05,  avg # of iterations =  1.0
 --- enter write_ns ---
 LDA+U parameters:
U( 1)     =  5.00000000
alpha( 1) =  0.00000000
U( 2)     =  0.00000000
alpha( 2) =  0.00000000
U( 3)     =  0.00000000
alpha( 3) = -0.15000000
U( 4)     =  0.00000000
alpha( 4) =  0.00000000
atom    1   Tr[ns(na)] =   8.06466
    eigenvalues: 
  0.525  0.527  0.992  0.992  0.995
    eigenvectors:
  0.000  0.000  0.001  0.000  0.999
  0.557  0.099  0.202  0.142  0.000
  0.099  0.556  0.142  0.203  0.000
  0.169  0.175  0.506  0.149  0.000
  0.175  0.169  0.149  0.507  0.000
    occupations:
  0.995  0.000  0.000  0.000  0.000
  0.000  0.686  0.000 -0.082  0.206
  0.000  0.000  0.687  0.206  0.081
  0.000 -0.082  0.206  0.832  0.000
  0.000  0.206  0.081  0.000  0.832
atom    2   Tr[ns(na)] =   8.06135
    eigenvalues: 
  0.524  0.525  0.993  0.993  0.996
    eigenvectors:
  0.000  0.000  0.001  0.000  0.999
  0.418  0.238  0.305  0.039  0.000
  0.238  0.418  0.039  0.305  0.000
  0.025  0.319  0.001  0.655  0.000
  0.319  0.025  0.655  0.001  0.001
    occupations:
  0.996  0.000  0.000  0.000  0.000
  0.000  0.686  0.001  0.081  0.207
  0.000  0.001  0.686  0.207 -0.082
  0.000  0.081  0.207  0.832  0.000
  0.000  0.207 -0.082  0.000  0.831
atom    3   Tr[ns(na)] =   3.78648
    eigenvalues: 
  0.355  0.355  0.381  0.401  0.401
    eigenvectors:
  0.000  0.000  1.000  0.000  0.000
  0.229  0.690  0.000  0.065  0.016
  0.690  0.229  0.000  0.016  0.065
  0.060  0.021  0.000  0.189  0.730
  0.021  0.060  0.000  0.730  0.189
    occupations:
  0.381  0.000  0.000  0.000  0.000
  0.000  0.359  0.000  0.000  0.012
  0.000  0.000  0.359  0.012  0.000
  0.000  0.000  0.012  0.397  0.000
  0.000  0.012  0.000  0.000  0.397
atom    4   Tr[ns(na)] =   3.78658
    eigenvalues: 
  0.355  0.355  0.381  0.401  0.401
    eigenvectors:
  0.000  0.000  1.000  0.000  0.000
  0.689  0.232  0.000  0.061  0.019
  0.232  0.688  0.000  0.018  0.062
  0.020  0.060  0.000  0.219  0.701
  0.058  0.021  0.000  0.702  0.219
    occupations:
  0.381  0.000  0.000  0.000  0.000
  0.000  0.359  0.000  0.000  0.012
  0.000  0.000  0.359  0.012  0.000
  0.000  0.000  0.012  0.397  0.000
  0.000  0.012  0.000  0.000  0.397
atom    5   Tr[ns(na)] =   5.44188
    eigenvalues: 
  0.841  0.931  0.949
    eigenvectors:
  0.337  0.000  0.663
  0.497  0.251  0.252
  0.166  0.749  0.085
    occupations:
  0.912 -0.044  0.026
 -0.044  0.891  0.023
  0.026  0.023  0.918
atom    6   Tr[ns(na)] =   5.43284
    eigenvalues: 
  0.838  0.930  0.948
    eigenvectors:
  0.337  0.000  0.663
  0.498  0.248  0.254
  0.165  0.752  0.083
    occupations:
  0.911  0.045  0.026
  0.045  0.889 -0.024
  0.026 -0.024  0.916
atom    7   Tr[ns(na)] =   5.43283
    eigenvalues: 
  0.838  0.930  0.948
    eigenvectors:
  0.337  0.000  0.663
  0.000  1.000  0.000
  0.663  0.000  0.337
    occupations:
  0.911  0.000 -0.052
  0.000  0.930  0.000
 -0.052  0.000  0.875
atom    8   Tr[ns(na)] =   5.43386
    eigenvalues: 
  0.839  0.930  0.948
    eigenvectors:
  0.337  0.000  0.663
  0.497  0.251  0.252
  0.166  0.749  0.085
    occupations:
  0.911 -0.045  0.026
 -0.045  0.889  0.024
  0.026  0.024  0.916
atom    9   Tr[ns(na)] =   5.43269
    eigenvalues: 
  0.838  0.930  0.948
    eigenvectors:
  0.337  0.000  0.663
  0.497  0.249  0.254
  0.166  0.751  0.083
    occupations:
  0.911  0.045  0.026
  0.045  0.889 -0.024
  0.026 -0.024  0.916
atom   10   Tr[ns(na)] =   5.43269
    eigenvalues: 
  0.838  0.930  0.948
    eigenvectors:
  0.337  0.000  0.663
  0.000  1.000  0.000
  0.663  0.000  0.337
    occupations:
  0.911  0.000 -0.052
  0.000  0.930  0.000
 -0.052  0.000  0.875
N of occupied +U levels =  56.3058569
 --- exit write_ns ---
 --- in v_hubbard ---
Hubbard energy    0.3190
 -------

     total cpu time spent up to now is      138.3 secs

     total energy              =    -537.98139624 Ry
     Harris-Foulkes estimate   =    -537.97620933 Ry
     estimated scf accuracy    <       0.01508959 Ry

     iteration #  4     ecut=    30.00 Ry     beta=0.20
     Davidson diagonalization with overlap
     ethr =  1.99E-05,  avg # of iterations =  1.6
 --- enter write_ns ---
 LDA+U parameters:
U( 1)     =  5.00000000
alpha( 1) =  0.00000000
U( 2)     =  0.00000000
alpha( 2) =  0.00000000
U( 3)     =  0.00000000
alpha( 3) = -0.15000000
U( 4)     =  0.00000000
alpha( 4) =  0.00000000
atom    1   Tr[ns(na)] =   8.06293
    eigenvalues: 
  0.522  0.524  0.994  0.995  0.997
    eigenvectors:
  0.000  0.000  0.001  0.000  0.999
  0.560  0.099  0.208  0.133  0.000
  0.099  0.559  0.134  0.208  0.000
  0.169  0.173  0.499  0.159  0.000
  0.172  0.169  0.159  0.500  0.000
    occupations:
  0.997  0.000  0.000  0.000  0.000
  0.000  0.683  0.000 -0.084  0.208
  0.000  0.000  0.684  0.207  0.083
  0.000 -0.084  0.207  0.833  0.000
  0.000  0.208  0.083  0.000  0.833
atom    2   Tr[ns(na)] =   8.07461
    eigenvalues: 
  0.524  0.525  0.995  0.995  0.998
    eigenvectors:
  0.000  0.000  0.001  0.000  0.999
  0.418  0.240  0.296  0.046  0.000
  0.240  0.418  0.045  0.296  0.000
  0.024  0.317  0.000  0.659  0.000
  0.318  0.024  0.658  0.000  0.000
    occupations:
  0.998  0.000  0.000  0.000  0.000
  0.000  0.685  0.001  0.083  0.208
  0.000  0.001  0.685  0.207 -0.083
  0.000  0.083  0.207  0.835  0.000
  0.000  0.208 -0.083  0.000  0.834
atom    3   Tr[ns(na)] =   3.79589
    eigenvalues: 
  0.356  0.357  0.381  0.402  0.402
    eigenvectors:
  0.000  0.000  1.000  0.000  0.000
  0.233  0.688  0.000  0.060  0.019
  0.688  0.233  0.000  0.019  0.059
  0.058  0.021  0.000  0.231  0.691
  0.020  0.058  0.000  0.690  0.231
    occupations:
  0.381  0.000  0.000  0.000  0.000
  0.000  0.360  0.000  0.000  0.012
  0.000  0.000  0.360  0.012  0.000
  0.000  0.000  0.012  0.398  0.000
  0.000  0.012  0.000  0.000  0.398
atom    4   Tr[ns(na)] =   3.79596
    eigenvalues: 
  0.356  0.357  0.381  0.402  0.402
    eigenvectors:
  0.000  0.000  1.000  0.000  0.000
  0.700  0.224  0.000  0.056  0.020
  0.224  0.698  0.000  0.020  0.058
  0.019  0.059  0.000  0.249  0.674
  0.057  0.020  0.000  0.675  0.248
    occupations:
  0.381  0.000  0.000  0.000  0.000
  0.000  0.360  0.000  0.000  0.012
  0.000  0.000  0.360  0.012  0.000
  0.000  0.000  0.012  0.398  0.000
  0.000  0.012  0.000  0.000  0.398
atom    5   Tr[ns(na)] =   5.43658
    eigenvalues: 
  0.839  0.931  0.948
    eigenvectors:
  0.337  0.000  0.663
  0.495  0.253  0.252
  0.168  0.747  0.085
    occupations:
  0.911 -0.044  0.026
 -0.044  0.890  0.024
  0.026  0.024  0.917
atom    6   Tr[ns(na)] =   5.42612
    eigenvalues: 
  0.837  0.929  0.947
    eigenvectors:
  0.337  0.000  0.663
  0.500  0.246  0.254
  0.163  0.754  0.082
    occupations:
  0.910  0.045  0.026
  0.045  0.887 -0.024
  0.026 -0.024  0.916
atom    7   Tr[ns(na)] =   5.42612
    eigenvalues: 
  0.837  0.929  0.947
    eigenvectors:
  0.337  0.000  0.663
  0.000  1.000  0.000
  0.663  0.000  0.337
    occupations:
  0.910  0.000 -0.052
  0.000  0.929  0.000
 -0.052  0.000  0.874
atom    8   Tr[ns(na)] =   5.42570
    eigenvalues: 
  0.836  0.929  0.947
    eigenvectors:
  0.337  0.000  0.663
  0.495  0.253  0.252
  0.168  0.747  0.085
    occupations:
  0.910 -0.045  0.026
 -0.045  0.888  0.024
  0.026  0.024  0.915
atom    9   Tr[ns(na)] =   5.42628
    eigenvalues: 
  0.837  0.929  0.947
    eigenvectors:
  0.337  0.000  0.663
  0.499  0.246  0.255
  0.164  0.754  0.083
    occupations:
  0.910  0.045  0.026
  0.045  0.888 -0.024
  0.026 -0.024  0.916
atom   10   Tr[ns(na)] =   5.42629
    eigenvalues: 
  0.837  0.929  0.947
    eigenvectors:
  0.337  0.000  0.663
  0.000  1.000  0.000
  0.663  0.000  0.337
    occupations:
  0.910  0.000 -0.052
  0.000  0.929  0.000
 -0.052  0.000  0.874
N of occupied +U levels =  56.2964717
 --- exit write_ns ---
 --- in v_hubbard ---
Hubbard energy    0.3145
 -------

     total cpu time spent up to now is      161.7 secs

     total energy              =    -537.98250120 Ry
     Harris-Foulkes estimate   =    -537.98249393 Ry
     estimated scf accuracy    <       0.00092259 Ry

     iteration #  5     ecut=    30.00 Ry     beta=0.20
     Davidson diagonalization with overlap
     ethr =  1.21E-06,  avg # of iterations =  2.1
 --- enter write_ns ---
 LDA+U parameters:
U( 1)     =  5.00000000
alpha( 1) =  0.00000000
U( 2)     =  0.00000000
alpha( 2) =  0.00000000
U( 3)     =  0.00000000
alpha( 3) = -0.15000000
U( 4)     =  0.00000000
alpha( 4) =  0.00000000
atom    1   Tr[ns(na)] =   8.05960
    eigenvalues: 
  0.520  0.522  0.995  0.995  0.998
    eigenvectors:
  0.000  0.000  0.001  0.000  0.999
  0.560  0.099  0.207  0.134  0.000
  0.099  0.560  0.134  0.207  0.000
  0.169  0.172  0.501  0.157  0.000
  0.172  0.169  0.157  0.502  0.000
    occupations:
  0.998  0.000  0.000  0.000  0.000
  0.000  0.682  0.000 -0.085  0.208
  0.000  0.000  0.683  0.208  0.084
  0.000 -0.085  0.208  0.833  0.000
  0.000  0.208  0.084  0.000  0.833
atom    2   Tr[ns(na)] =   8.05068
    eigenvalues: 
  0.518  0.519  0.995  0.995  0.998
    eigenvectors:
  0.000  0.000  0.001  0.000  0.999
  0.418  0.240  0.296  0.045  0.000
  0.240  0.418  0.045  0.296  0.000
  0.024  0.317  0.000  0.659  0.000
  0.317  0.024  0.658  0.000  0.000
    occupations:
  0.998  0.000  0.000  0.000  0.000
  0.000  0.681  0.001  0.084  0.210
  0.000  0.001  0.681  0.210 -0.084
  0.000  0.084  0.210  0.833  0.000
  0.000  0.210 -0.084  0.000  0.832
atom    3   Tr[ns(na)] =   3.79561
    eigenvalues: 
  0.356  0.357  0.381  0.402  0.402
    eigenvectors:
  0.000  0.000  1.000  0.000  0.000
  0.231  0.690  0.000  0.060  0.019
  0.690  0.231  0.000  0.019  0.060
  0.058  0.020  0.000  0.228  0.693
  0.020  0.059  0.000  0.693  0.228
    occupations:
  0.381  0.000  0.000  0.000  0.000
  0.000  0.360  0.000  0.000  0.012
  0.000  0.000  0.360  0.012  0.000
  0.000  0.000  0.012  0.398  0.000
  0.000  0.012  0.000  0.000  0.398
atom    4   Tr[ns(na)] =   3.79567
    eigenvalues: 
  0.356  0.356  0.381  0.402  0.402
    eigenvectors:
  0.000  0.000  1.000  0.000  0.000
  0.690  0.232  0.000  0.057  0.020
  0.233  0.689  0.000  0.020  0.059
  0.020  0.058  0.000  0.243  0.679
  0.057  0.020  0.000  0.680  0.242
    occupations:
  0.381  0.000  0.000  0.000  0.000
  0.000  0.360  0.000  0.000  0.012
  0.000  0.000  0.360  0.012  0.000
  0.000  0.000  0.012  0.398  0.000
  0.000  0.012  0.000  0.000  0.398
atom    5   Tr[ns(na)] =   5.43978
    eigenvalues: 
  0.840  0.931  0.948
    eigenvectors:
  0.336  0.000  0.664
  0.498  0.250  0.252
  0.166  0.750  0.085
    occupations:
  0.912 -0.044  0.025
 -0.044  0.890  0.024
  0.025  0.024  0.918
atom    6   Tr[ns(na)] =   5.43020
    eigenvalues: 
  0.838  0.930  0.948
    eigenvectors:
  0.337  0.000  0.663
  0.498  0.248  0.254
  0.166  0.752  0.083
    occupations:
  0.911  0.045  0.026
  0.045  0.888 -0.024
  0.026 -0.024  0.916
atom    7   Tr[ns(na)] =   5.43020
    eigenvalues: 
  0.838  0.930  0.948
    eigenvectors:
  0.337  0.000  0.663
  0.000  1.000  0.000
  0.663  0.000  0.337
    occupations:
  0.911  0.000 -0.052
  0.000  0.930  0.000
 -0.052  0.000  0.875
atom    8   Tr[ns(na)] =   5.43041
    eigenvalues: 
  0.838  0.930  0.948
    eigenvectors:
  0.337  0.000  0.663
  0.498  0.250  0.252
  0.166  0.750  0.085
    occupations:
  0.911 -0.045  0.026
 -0.045  0.889  0.024
  0.026  0.024  0.916
atom    9   Tr[ns(na)] =   5.43021
    eigenvalues: 
  0.838  0.930  0.948
    eigenvectors:
  0.337  0.000  0.663
  0.497  0.249  0.254
  0.166  0.751  0.083
    occupations:
  0.911  0.045  0.026
  0.045  0.889 -0.024
  0.026 -0.024  0.916
atom   10   Tr[ns(na)] =   5.43021
    eigenvalues: 
  0.838  0.930  0.948
    eigenvectors:
  0.337  0.000  0.663
  0.000  1.000  0.000
  0.663  0.000  0.337
    occupations:
  0.911  0.000 -0.052
  0.000  0.930  0.000
 -0.052  0.000  0.875
N of occupied +U levels =  56.2925647
 --- exit write_ns ---
 --- in v_hubbard ---
Hubbard energy    0.3133
 -------

     total cpu time spent up to now is      186.8 secs

     total energy              =    -537.98271501 Ry
     Harris-Foulkes estimate   =    -537.98262785 Ry
     estimated scf accuracy    <       0.00022080 Ry

     iteration #  6     ecut=    30.00 Ry     beta=0.20
     Davidson diagonalization with overlap
     ethr =  2.91E-07,  avg # of iterations =  1.2
 --- enter write_ns ---
 LDA+U parameters:
U( 1)     =  5.00000000
alpha( 1) =  0.00000000
U( 2)     =  0.00000000
alpha( 2) =  0.00000000
U( 3)     =  0.00000000
alpha( 3) = -0.15000000
U( 4)     =  0.00000000
alpha( 4) =  0.00000000
atom    1   Tr[ns(na)] =   8.04795
    eigenvalues: 
  0.517  0.519  0.995  0.995  0.998
    eigenvectors:
  0.000  0.000  0.001  0.000  0.999
  0.560  0.099  0.209  0.132  0.000
  0.099  0.560  0.132  0.210  0.000
  0.170  0.172  0.498  0.160  0.000
  0.172  0.169  0.160  0.498  0.000
    occupations:
  0.998  0.000  0.000  0.000  0.000
  0.000  0.681  0.000 -0.085  0.210
  0.000  0.000  0.682  0.209  0.084
  0.000 -0.085  0.209  0.832  0.000
  0.000  0.210  0.084  0.000  0.832
atom    2   Tr[ns(na)] =   8.04705
    eigenvalues: 
  0.516  0.518  0.995  0.995  0.998
    eigenvectors:
  0.000  0.000  0.001  0.000  0.999
  0.418  0.241  0.295  0.046  0.000
  0.241  0.418  0.046  0.295  0.000
  0.024  0.318  0.000  0.659  0.000
  0.318  0.024  0.658  0.000  0.000
    occupations:
  0.998  0.000  0.000  0.000  0.000
  0.000  0.681  0.001  0.084  0.211
  0.000  0.001  0.681  0.210 -0.085
  0.000  0.084  0.210  0.833  0.000
  0.000  0.211 -0.085  0.000  0.832
atom    3   Tr[ns(na)] =   3.79406
    eigenvalues: 
  0.356  0.356  0.381  0.402  0.402
    eigenvectors:
  0.000  0.000  1.000  0.000  0.000
  0.230  0.691  0.000  0.061  0.018
  0.691  0.230  0.000  0.018  0.061
  0.059  0.020  0.000  0.217  0.704
  0.020  0.059  0.000  0.704  0.217
    occupations:
  0.381  0.000  0.000  0.000  0.000
  0.000  0.360  0.000  0.000  0.012
  0.000  0.000  0.360  0.012  0.000
  0.000  0.000  0.012  0.398  0.000
  0.000  0.012  0.000  0.000  0.398
atom    4   Tr[ns(na)] =   3.79410
    eigenvalues: 
  0.356  0.356  0.381  0.402  0.402
    eigenvectors:
  0.000  0.000  1.000  0.000  0.000
  0.679  0.244  0.000  0.058  0.019
  0.244  0.678  0.000  0.019  0.060
  0.021  0.057  0.000  0.231  0.691
  0.056  0.021  0.000  0.692  0.230
    occupations:
  0.381  0.000  0.000  0.000  0.000
  0.000  0.360  0.000  0.000  0.012
  0.000  0.000  0.360  0.012  0.000
  0.000  0.000  0.012  0.398  0.000
  0.000  0.012  0.000  0.000  0.398
atom    5   Tr[ns(na)] =   5.44192
    eigenvalues: 
  0.841  0.931  0.948
    eigenvectors:
  0.336  0.000  0.664
  0.497  0.251  0.252
  0.167  0.749  0.085
    occupations:
  0.912 -0.044  0.025
 -0.044  0.891  0.024
  0.025  0.024  0.918
atom    6   Tr[ns(na)] =   5.43287
    eigenvalues: 
  0.839  0.930  0.948
    eigenvectors:
  0.337  0.000  0.663
  0.499  0.247  0.254
  0.165  0.753  0.083
    occupations:
  0.911  0.045  0.026
  0.045  0.889 -0.024
  0.026 -0.024  0.917
atom    7   Tr[ns(na)] =   5.43287
    eigenvalues: 
  0.839  0.930  0.948
    eigenvectors:
  0.337  0.000  0.663
  0.000  1.000  0.000
  0.663  0.000  0.337
    occupations:
  0.911  0.000 -0.052
  0.000  0.930  0.000
 -0.052  0.000  0.875
atom    8   Tr[ns(na)] =   5.43356
    eigenvalues: 
  0.839  0.930  0.948
    eigenvectors:
  0.337  0.000  0.663
  0.497  0.251  0.252
  0.167  0.749  0.085
    occupations:
  0.911 -0.045  0.026
 -0.045  0.889  0.024
  0.026  0.024  0.916
atom    9   Tr[ns(na)] =   5.43278
    eigenvalues: 
  0.838  0.930  0.948
    eigenvectors:
  0.337  0.000  0.663
  0.498  0.248  0.254
  0.165  0.752  0.083
    occupations:
  0.911  0.045  0.026
  0.045  0.889 -0.024
  0.026 -0.024  0.916
atom   10   Tr[ns(na)] =   5.43278
    eigenvalues: 
  0.838  0.930  0.948
    eigenvectors:
  0.337  0.000  0.663
  0.000  1.000  0.000
  0.663  0.000  0.337
    occupations:
  0.911  0.000 -0.052
  0.000  0.930  0.000
 -0.052  0.000  0.875
N of occupied +U levels =  56.2899312
 --- exit write_ns ---
 --- in v_hubbard ---
Hubbard energy    0.3141
 -------

     total cpu time spent up to now is      212.2 secs

     total energy              =    -537.98280975 Ry
     Harris-Foulkes estimate   =    -537.98273837 Ry
     estimated scf accuracy    <       0.00009696 Ry

     iteration #  7     ecut=    30.00 Ry     beta=0.20
     Davidson diagonalization with overlap
     ethr =  1.28E-07,  avg # of iterations =  2.0
 --- enter write_ns ---
 LDA+U parameters:
U( 1)     =  5.00000000
alpha( 1) =  0.00000000
U( 2)     =  0.00000000
alpha( 2) =  0.00000000
U( 3)     =  0.00000000
alpha( 3) = -0.15000000
U( 4)     =  0.00000000
alpha( 4) =  0.00000000
atom    1   Tr[ns(na)] =   8.04808
    eigenvalues: 
  0.517  0.519  0.995  0.995  0.998
    eigenvectors:
  0.000  0.000  0.001  0.000  0.999
  0.560  0.098  0.212  0.129  0.000
  0.098  0.560  0.130  0.212  0.000
  0.170  0.172  0.494  0.163  0.000
  0.172  0.170  0.163  0.495  0.000
    occupations:
  0.998  0.000  0.000  0.000  0.000
  0.000  0.681  0.000 -0.086  0.210
  0.000  0.000  0.682  0.209  0.085
  0.000 -0.086  0.209  0.832  0.000
  0.000  0.210  0.085  0.000  0.832
atom    2   Tr[ns(na)] =   8.04554
    eigenvalues: 
  0.516  0.518  0.995  0.995  0.998
    eigenvectors:
  0.000  0.000  0.001  0.000  0.999
  0.417  0.241  0.294  0.048  0.000
  0.241  0.417  0.048  0.294  0.000
  0.024  0.318  0.000  0.658  0.000
  0.318  0.024  0.658  0.000  0.000
    occupations:
  0.998  0.000  0.000  0.000  0.000
  0.000  0.680  0.001  0.085  0.211
  0.000  0.001  0.680  0.210 -0.085
  0.000  0.085  0.210  0.832  0.000
  0.000  0.211 -0.085  0.000  0.832
atom    3   Tr[ns(na)] =   3.79009
    eigenvalues: 
  0.356  0.356  0.381  0.401  0.401
    eigenvectors:
  0.000  0.000  1.000  0.000  0.000
  0.229  0.691  0.000  0.061  0.018
  0.691  0.229  0.000  0.018  0.062
  0.059  0.020  0.000  0.218  0.702
  0.020  0.059  0.000  0.702  0.218
    occupations:
  0.381  0.000  0.000  0.000  0.000
  0.000  0.359  0.000  0.000  0.012
  0.000  0.000  0.359  0.012  0.000
  0.000  0.000  0.012  0.398  0.000
  0.000  0.012  0.000  0.000  0.398
atom    4   Tr[ns(na)] =   3.79013
    eigenvalues: 
  0.356  0.356  0.381  0.401  0.401
    eigenvectors:
  0.000  0.000  1.000  0.000  0.000
  0.683  0.239  0.000  0.059  0.019
  0.239  0.682  0.000  0.019  0.060
  0.021  0.058  0.000  0.233  0.688
  0.057  0.021  0.000  0.689  0.232
    occupations:
  0.381  0.000  0.000  0.000  0.000
  0.000  0.359  0.000  0.000  0.012
  0.000  0.000  0.359  0.012  0.000
  0.000  0.000  0.012  0.398  0.000
  0.000  0.012  0.000  0.000  0.398
atom    5   Tr[ns(na)] =   5.44299
    eigenvalues: 
  0.841  0.932  0.949
    eigenvectors:
  0.337  0.000  0.663
  0.497  0.251  0.252
  0.166  0.749  0.085
    occupations:
  0.913 -0.044  0.025
 -0.044  0.891  0.023
  0.025  0.023  0.918
atom    6   Tr[ns(na)] =   5.43381
    eigenvalues: 
  0.839  0.930  0.948
    eigenvectors:
  0.337  0.000  0.663
  0.498  0.248  0.254
  0.165  0.752  0.083
    occupations:
  0.911  0.045  0.026
  0.045  0.889 -0.024
  0.026 -0.024  0.917
atom    7   Tr[ns(na)] =   5.43381
    eigenvalues: 
  0.839  0.930  0.948
    eigenvectors:
  0.337  0.000  0.663
  0.000  1.000  0.000
  0.663  0.000  0.337
    occupations:
  0.911  0.000 -0.052
  0.000  0.930  0.000
 -0.052  0.000  0.875
atom    8   Tr[ns(na)] =   5.43464
    eigenvalues: 
  0.839  0.930  0.948
    eigenvectors:
  0.337  0.000  0.663
  0.497  0.251  0.252
  0.166  0.749  0.085
    occupations:
  0.911 -0.045  0.026
 -0.045  0.889  0.024
  0.026  0.024  0.917
atom    9   Tr[ns(na)] =   5.43372
    eigenvalues: 
  0.839  0.930  0.948
    eigenvectors:
  0.337  0.000  0.663
  0.497  0.248  0.254
  0.165  0.752  0.083
    occupations:
  0.911  0.045  0.026
  0.045  0.889 -0.024
  0.026 -0.024  0.917
atom   10   Tr[ns(na)] =   5.43372
    eigenvalues: 
  0.839  0.930  0.948
    eigenvectors:
  0.337  0.000  0.663
  0.000  1.000  0.000
  0.663  0.000  0.337
    occupations:
  0.911  0.000 -0.052
  0.000  0.930  0.000
 -0.052  0.000  0.875
N of occupied +U levels =  56.2865276
 --- exit write_ns ---
 --- in v_hubbard ---
Hubbard energy    0.3146
 -------

     total cpu time spent up to now is      237.8 secs

     total energy              =    -537.98288419 Ry
     Harris-Foulkes estimate   =    -537.98282139 Ry
     estimated scf accuracy    <       0.00002824 Ry

     iteration #  8     ecut=    30.00 Ry     beta=0.20
     Davidson diagonalization with overlap
     ethr =  3.72E-08,  avg # of iterations =  2.0
 --- enter write_ns ---
 LDA+U parameters:
U( 1)     =  5.00000000
alpha( 1) =  0.00000000
U( 2)     =  0.00000000
alpha( 2) =  0.00000000
U( 3)     =  0.00000000
alpha( 3) = -0.15000000
U( 4)     =  0.00000000
alpha( 4) =  0.00000000
atom    1   Tr[ns(na)] =   8.05059
    eigenvalues: 
  0.518  0.520  0.995  0.995  0.998
    eigenvectors:
  0.000  0.000  0.001  0.000  0.999
  0.560  0.098  0.212  0.129  0.000
  0.098  0.560  0.129  0.213  0.000
  0.170  0.172  0.494  0.164  0.000
  0.172  0.170  0.164  0.494  0.000
    occupations:
  0.998  0.000  0.000  0.000  0.000
  0.000  0.681  0.000 -0.086  0.209
  0.000  0.000  0.682  0.209  0.085
  0.000 -0.086  0.209  0.832  0.000
  0.000  0.209  0.085  0.000  0.832
atom    2   Tr[ns(na)] =   8.04721
    eigenvalues: 
  0.516  0.518  0.995  0.995  0.998
    eigenvectors:
  0.000  0.000  0.001  0.000  0.999
  0.417  0.241  0.294  0.048  0.000
  0.241  0.417  0.048  0.293  0.000
  0.024  0.318  0.000  0.658  0.000
  0.318  0.024  0.658  0.000  0.000
    occupations:
  0.998  0.000  0.000  0.000  0.000
  0.000  0.681  0.001  0.085  0.210
  0.000  0.001  0.681  0.210 -0.085
  0.000  0.085  0.210  0.832  0.000
  0.000  0.210 -0.085  0.000  0.832
atom    3   Tr[ns(na)] =   3.79188
    eigenvalues: 
  0.356  0.356  0.381  0.401  0.401
    eigenvectors:
  0.000  0.000  1.000  0.000  0.000
  0.230  0.691  0.000  0.063  0.017
  0.691  0.230  0.000  0.017  0.063
  0.059  0.021  0.000  0.199  0.721
  0.021  0.059  0.000  0.721  0.199
    occupations:
  0.381  0.000  0.000  0.000  0.000
  0.000  0.360  0.000  0.000  0.012
  0.000  0.000  0.360  0.012  0.000
  0.000  0.000  0.012  0.398  0.000
  0.000  0.012  0.000  0.000  0.398
atom    4   Tr[ns(na)] =   3.79193
    eigenvalues: 
  0.356  0.356  0.381  0.401  0.402
    eigenvectors:
  0.000  0.000  1.000  0.000  0.000
  0.679  0.243  0.000  0.059  0.019
  0.243  0.678  0.000  0.019  0.060
  0.021  0.058  0.000  0.232  0.689
  0.057  0.022  0.000  0.690  0.232
    occupations:
  0.381  0.000  0.000  0.000  0.000
  0.000  0.360  0.000  0.000  0.012
  0.000  0.000  0.360  0.012  0.000
  0.000  0.000  0.012  0.398  0.000
  0.000  0.012  0.000  0.000  0.398
atom    5   Tr[ns(na)] =   5.44197
    eigenvalues: 
  0.841  0.931  0.949
    eigenvectors:
  0.337  0.000  0.663
  0.497  0.251  0.252
  0.166  0.749  0.085
    occupations:
  0.912 -0.044  0.025
 -0.044  0.891  0.024
  0.025  0.024  0.918
atom    6   Tr[ns(na)] =   5.43277
    eigenvalues: 
  0.838  0.930  0.948
    eigenvectors:
  0.337  0.000  0.663
  0.498  0.248  0.254
  0.165  0.752  0.083
    occupations:
  0.911  0.045  0.026
  0.045  0.889 -0.024
  0.026 -0.024  0.916
atom    7   Tr[ns(na)] =   5.43278
    eigenvalues: 
  0.838  0.930  0.948
    eigenvectors:
  0.337  0.000  0.663
  0.000  1.000  0.000
  0.663  0.000  0.337
    occupations:
  0.911  0.000 -0.052
  0.000  0.930  0.000
 -0.052  0.000  0.875
atom    8   Tr[ns(na)] =   5.43339
    eigenvalues: 
  0.839  0.930  0.948
    eigenvectors:
  0.337  0.000  0.663
  0.497  0.251  0.252
  0.166  0.749  0.085
    occupations:
  0.911 -0.045  0.026
 -0.045  0.889  0.024
  0.026  0.024  0.916
atom    9   Tr[ns(na)] =   5.43270
    eigenvalues: 
  0.838  0.930  0.948
    eigenvectors:
  0.337  0.000  0.663
  0.497  0.248  0.254
  0.165  0.752  0.083
    occupations:
  0.911  0.045  0.026
  0.045  0.889 -0.024
  0.026 -0.024  0.916
atom   10   Tr[ns(na)] =   5.43270
    eigenvalues: 
  0.838  0.930  0.948
    eigenvectors:
  0.337  0.000  0.663
  0.000  1.000  0.000
  0.663  0.000  0.337
    occupations:
  0.911  0.000 -0.052
  0.000  0.930  0.000
 -0.052  0.000  0.875
N of occupied +U levels =  56.2879028
 --- exit write_ns ---
 --- in v_hubbard ---
Hubbard energy    0.3153
 -------

     total cpu time spent up to now is      261.9 secs

     total energy              =    -537.98292753 Ry
     Harris-Foulkes estimate   =    -537.98288792 Ry
     estimated scf accuracy    <       0.00000684 Ry

     iteration #  9     ecut=    30.00 Ry     beta=0.20
     Davidson diagonalization with overlap
     ethr =  9.00E-09,  avg # of iterations =  1.1
 --- enter write_ns ---
 LDA+U parameters:
U( 1)     =  5.00000000
alpha( 1) =  0.00000000
U( 2)     =  0.00000000
alpha( 2) =  0.00000000
U( 3)     =  0.00000000
alpha( 3) = -0.15000000
U( 4)     =  0.00000000
alpha( 4) =  0.00000000
atom    1   Tr[ns(na)] =   8.04926
    eigenvalues: 
  0.517  0.519  0.995  0.995  0.998
    eigenvectors:
  0.000  0.000  0.001  0.000  0.999
  0.560  0.098  0.214  0.127  0.000
  0.098  0.560  0.127  0.214  0.000
  0.170  0.172  0.491  0.166  0.000
  0.171  0.170  0.166  0.492  0.000
    occupations:
  0.998  0.000  0.000  0.000  0.000
  0.000  0.681  0.000 -0.086  0.209
  0.000  0.000  0.682  0.209  0.085
  0.000 -0.086  0.209  0.832  0.000
  0.000  0.209  0.085  0.000  0.832
atom    2   Tr[ns(na)] =   8.04640
    eigenvalues: 
  0.516  0.518  0.995  0.995  0.998
    eigenvectors:
  0.000  0.000  0.001  0.000  0.999
  0.417  0.241  0.293  0.049  0.000
  0.241  0.417  0.049  0.292  0.000
  0.023  0.318  0.000  0.658  0.000
  0.318  0.024  0.658  0.000  0.000
    occupations:
  0.998  0.000  0.000  0.000  0.000
  0.000  0.681  0.001  0.085  0.211
  0.000  0.001  0.681  0.210 -0.085
  0.000  0.085  0.210  0.832  0.000
  0.000  0.211 -0.085  0.000  0.832
atom    3   Tr[ns(na)] =   3.79163
    eigenvalues: 
  0.356  0.356  0.381  0.401  0.401
    eigenvectors:
  0.000  0.000  1.000  0.000  0.000
  0.229  0.691  0.000  0.063  0.017
  0.691  0.229  0.000  0.017  0.063
  0.059  0.020  0.000  0.202  0.719
  0.020  0.059  0.000  0.719  0.202
    occupations:
  0.381  0.000  0.000  0.000  0.000
  0.000  0.360  0.000  0.000  0.012
  0.000  0.000  0.359  0.012  0.000
  0.000  0.000  0.012  0.398  0.000
  0.000  0.012  0.000  0.000  0.398
atom    4   Tr[ns(na)] =   3.79168
    eigenvalues: 
  0.356  0.356  0.381  0.401  0.402
    eigenvectors:
  0.000  0.000  1.000  0.000  0.000
  0.679  0.243  0.000  0.059  0.019
  0.243  0.677  0.000  0.019  0.060
  0.021  0.058  0.000  0.232  0.689
  0.057  0.022  0.000  0.690  0.231
    occupations:
  0.381  0.000  0.000  0.000  0.000
  0.000  0.359  0.000  0.000  0.012
  0.000  0.000  0.360  0.012  0.000
  0.000  0.000  0.012  0.398  0.000
  0.000  0.012  0.000  0.000  0.398
atom    5   Tr[ns(na)] =   5.44232
    eigenvalues: 
  0.841  0.931  0.949
    eigenvectors:
  0.337  0.000  0.663
  0.497  0.251  0.252
  0.166  0.749  0.085
    occupations:
  0.912 -0.044  0.025
 -0.044  0.891  0.023
  0.025  0.023  0.918
atom    6   Tr[ns(na)] =   5.43310
    eigenvalues: 
  0.838  0.930  0.948
    eigenvectors:
  0.337  0.000  0.663
  0.498  0.248  0.254
  0.165  0.752  0.083
    occupations:
  0.911  0.045  0.026
  0.045  0.889 -0.024
  0.026 -0.024  0.917
atom    7   Tr[ns(na)] =   5.43310
    eigenvalues: 
  0.838  0.930  0.948
    eigenvectors:
  0.337  0.000  0.663
  0.000  1.000  0.000
  0.663  0.000  0.337
    occupations:
  0.911  0.000 -0.052
  0.000  0.930  0.000
 -0.052  0.000  0.875
atom    8   Tr[ns(na)] =   5.43377
    eigenvalues: 
  0.839  0.930  0.948
    eigenvectors:
  0.337  0.000  0.663
  0.497  0.251  0.252
  0.166  0.749  0.085
    occupations:
  0.911 -0.045  0.026
 -0.045  0.889  0.024
  0.026  0.024  0.917
atom    9   Tr[ns(na)] =   5.43303
    eigenvalues: 
  0.838  0.930  0.948
    eigenvectors:
  0.337  0.000  0.663
  0.497  0.248  0.254
  0.165  0.752  0.083
    occupations:
  0.911  0.045  0.026
  0.045  0.889 -0.024
  0.026 -0.024  0.916
atom   10   Tr[ns(na)] =   5.43303
    eigenvalues: 
  0.838  0.930  0.948
    eigenvectors:
  0.337  0.000  0.663
  0.000  1.000  0.000
  0.663  0.000  0.337
    occupations:
  0.911  0.000 -0.052
  0.000  0.930  0.000
 -0.052  0.000  0.875
N of occupied +U levels =  56.2873244
 --- exit write_ns ---
 --- in v_hubbard ---
Hubbard energy    0.3157
 -------

     total cpu time spent up to now is      283.6 secs

     total energy              =    -537.98295708 Ry
     Harris-Foulkes estimate   =    -537.98292844 Ry
     estimated scf accuracy    <       0.00000159 Ry

     iteration # 10     ecut=    30.00 Ry     beta=0.20
     Davidson diagonalization with overlap
     ethr =  2.09E-09,  avg # of iterations =  2.0
 --- enter write_ns ---
 LDA+U parameters:
U( 1)     =  5.00000000
alpha( 1) =  0.00000000
U( 2)     =  0.00000000
alpha( 2) =  0.00000000
U( 3)     =  0.00000000
alpha( 3) = -0.15000000
U( 4)     =  0.00000000
alpha( 4) =  0.00000000
atom    1   Tr[ns(na)] =   8.05005
    eigenvalues: 
  0.518  0.520  0.995  0.995  0.998
    eigenvectors:
  0.000  0.000  0.001  0.000  0.999
  0.560  0.098  0.214  0.127  0.000
  0.098  0.560  0.127  0.215  0.000
  0.171  0.171  0.492  0.166  0.000
  0.171  0.170  0.166  0.492  0.000
    occupations:
  0.998  0.000  0.000  0.000  0.000
  0.000  0.681  0.000 -0.086  0.209
  0.000  0.000  0.682  0.209  0.085
  0.000 -0.086  0.209  0.832  0.000
  0.000  0.209  0.085  0.000  0.832
atom    2   Tr[ns(na)] =   8.04709
    eigenvalues: 
  0.516  0.518  0.995  0.995  0.998
    eigenvectors:
  0.000  0.000  0.001  0.000  0.999
  0.416  0.242  0.292  0.049  0.000
  0.242  0.417  0.049  0.292  0.000
  0.023  0.318  0.000  0.658  0.000
  0.318  0.024  0.658  0.000  0.000
    occupations:
  0.998  0.000  0.000  0.000  0.000
  0.000  0.681  0.001  0.085  0.210
  0.000  0.001  0.681  0.210 -0.086
  0.000  0.085  0.210  0.832  0.000
  0.000  0.210 -0.086  0.000  0.832
atom    3   Tr[ns(na)] =   3.79175
    eigenvalues: 
  0.356  0.356  0.381  0.401  0.401
    eigenvectors:
  0.000  0.000  1.000  0.000  0.000
  0.229  0.691  0.000  0.062  0.017
  0.691  0.229  0.000  0.017  0.062
  0.059  0.020  0.000  0.208  0.713
  0.020  0.059  0.000  0.713  0.207
    occupations:
  0.381  0.000  0.000  0.000  0.000
  0.000  0.360  0.000  0.000  0.012
  0.000  0.000  0.360  0.012  0.000
  0.000  0.000  0.012  0.398  0.000
  0.000  0.012  0.000  0.000  0.398
atom    4   Tr[ns(na)] =   3.79180
    eigenvalues: 
  0.356  0.356  0.381  0.401  0.402
    eigenvectors:
  0.000  0.000  1.000  0.000  0.000
  0.678  0.244  0.000  0.059  0.019
  0.245  0.676  0.000  0.019  0.060
  0.021  0.058  0.000  0.232  0.688
  0.057  0.022  0.000  0.690  0.232
    occupations:
  0.381  0.000  0.000  0.000  0.000
  0.000  0.359  0.000  0.000  0.012
  0.000  0.000  0.360  0.012  0.000
  0.000  0.000  0.012  0.398  0.000
  0.000  0.012  0.000  0.000  0.398
atom    5   Tr[ns(na)] =   5.44206
    eigenvalues: 
  0.841  0.931  0.949
    eigenvectors:
  0.337  0.000  0.663
  0.497  0.251  0.252
  0.166  0.749  0.085
    occupations:
  0.912 -0.044  0.025
 -0.044  0.891  0.024
  0.025  0.024  0.918
atom    6   Tr[ns(na)] =   5.43282
    eigenvalues: 
  0.838  0.930  0.948
    eigenvectors:
  0.337  0.000  0.663
  0.498  0.248  0.254
  0.165  0.752  0.083
    occupations:
  0.911  0.045  0.026
  0.045  0.889 -0.024
  0.026 -0.024  0.916
atom    7   Tr[ns(na)] =   5.43282
    eigenvalues: 
  0.838  0.930  0.948
    eigenvectors:
  0.337  0.000  0.663
  0.000  1.000  0.000
  0.663  0.000  0.337
    occupations:
  0.911  0.000 -0.052
  0.000  0.930  0.000
 -0.052  0.000  0.875
atom    8   Tr[ns(na)] =   5.43354
    eigenvalues: 
  0.839  0.930  0.948
    eigenvectors:
  0.337  0.000  0.663
  0.497  0.251  0.252
  0.166  0.749  0.085
    occupations:
  0.911 -0.045  0.026
 -0.045  0.889  0.024
  0.026  0.024  0.916
atom    9   Tr[ns(na)] =   5.43274
    eigenvalues: 
  0.838  0.930  0.948
    eigenvectors:
  0.337  0.000  0.663
  0.497  0.248  0.254
  0.165  0.752  0.083
    occupations:
  0.911  0.045  0.026
  0.045  0.889 -0.024
  0.026 -0.024  0.916
atom   10   Tr[ns(na)] =   5.43274
    eigenvalues: 
  0.838  0.930  0.948
    eigenvectors:
  0.337  0.000  0.663
  0.000  1.000  0.000
  0.663  0.000  0.337
    occupations:
  0.911  0.000 -0.052
  0.000  0.930  0.000
 -0.052  0.000  0.875
N of occupied +U levels =  56.2874164
 --- exit write_ns ---
 --- in v_hubbard ---
Hubbard energy    0.3157
 -------

     total cpu time spent up to now is      307.9 secs

     total energy              =    -537.98297516 Ry
     Harris-Foulkes estimate   =    -537.98295758 Ry
     estimated scf accuracy    <       0.00000156 Ry

     iteration # 11     ecut=    30.00 Ry     beta=0.20
     Davidson diagonalization with overlap
     ethr =  2.05E-09,  avg # of iterations =  1.0
 --- enter write_ns ---
 LDA+U parameters:
U( 1)     =  5.00000000
alpha( 1) =  0.00000000
U( 2)     =  0.00000000
alpha( 2) =  0.00000000
U( 3)     =  0.00000000
alpha( 3) = -0.15000000
U( 4)     =  0.00000000
alpha( 4) =  0.00000000
atom    1   Tr[ns(na)] =   8.04912
    eigenvalues: 
  0.517  0.519  0.995  0.995  0.998
    eigenvectors:
  0.000  0.000  0.001  0.000  0.999
  0.561  0.098  0.215  0.126  0.000
  0.098  0.560  0.126  0.215  0.000
  0.171  0.171  0.491  0.167  0.000
  0.171  0.170  0.167  0.491  0.000
    occupations:
  0.998  0.000  0.000  0.000  0.000
  0.000  0.681  0.000 -0.086  0.209
  0.000  0.000  0.682  0.209  0.085
  0.000 -0.086  0.209  0.832  0.000
  0.000  0.209  0.085  0.000  0.832
atom    2   Tr[ns(na)] =   8.04619
    eigenvalues: 
  0.516  0.518  0.995  0.995  0.998
    eigenvectors:
  0.000  0.000  0.001  0.000  0.999
  0.416  0.242  0.292  0.050  0.000
  0.242  0.417  0.050  0.291  0.000
  0.023  0.318  0.000  0.658  0.000
  0.318  0.023  0.658  0.000  0.000
    occupations:
  0.998  0.000  0.000  0.000  0.000
  0.000  0.680  0.001  0.085  0.210
  0.000  0.001  0.681  0.210 -0.086
  0.000  0.085  0.210  0.832  0.000
  0.000  0.210 -0.086  0.000  0.832
atom    3   Tr[ns(na)] =   3.79170
    eigenvalues: 
  0.356  0.356  0.381  0.401  0.401
    eigenvectors:
  0.000  0.000  1.000  0.000  0.000
  0.229  0.691  0.000  0.062  0.017
  0.691  0.229  0.000  0.017  0.062
  0.059  0.020  0.000  0.208  0.712
  0.020  0.059  0.000  0.712  0.208
    occupations:
  0.381  0.000  0.000  0.000  0.000
  0.000  0.360  0.000  0.000  0.012
  0.000  0.000  0.360  0.012  0.000
  0.000  0.000  0.012  0.398  0.000
  0.000  0.012  0.000  0.000  0.398
atom    4   Tr[ns(na)] =   3.79175
    eigenvalues: 
  0.356  0.356  0.381  0.401  0.402
    eigenvectors:
  0.000  0.000  1.000  0.000  0.000
  0.678  0.244  0.000  0.059  0.019
  0.244  0.677  0.000  0.019  0.060
  0.021  0.058  0.000  0.232  0.689
  0.057  0.022  0.000  0.690  0.232
    occupations:
  0.381  0.000  0.000  0.000  0.000
  0.000  0.359  0.000  0.000  0.012
  0.000  0.000  0.360  0.012  0.000
  0.000  0.000  0.012  0.398  0.000
  0.000  0.012  0.000  0.000  0.398
atom    5   Tr[ns(na)] =   5.44233
    eigenvalues: 
  0.841  0.932  0.949
    eigenvectors:
  0.337  0.000  0.663
  0.497  0.251  0.252
  0.166  0.749  0.085
    occupations:
  0.912 -0.044  0.025
 -0.044  0.891  0.024
  0.025  0.024  0.918
atom    6   Tr[ns(na)] =   5.43311
    eigenvalues: 
  0.838  0.930  0.948
    eigenvectors:
  0.337  0.000  0.663
  0.498  0.248  0.254
  0.165  0.752  0.083
    occupations:
  0.911  0.045  0.026
  0.045  0.889 -0.024
  0.026 -0.024  0.917
atom    7   Tr[ns(na)] =   5.43312
    eigenvalues: 
  0.838  0.930  0.948
    eigenvectors:
  0.337  0.000  0.663
  0.000  1.000  0.000
  0.663  0.000  0.337
    occupations:
  0.911  0.000 -0.052
  0.000  0.930  0.000
 -0.052  0.000  0.875
atom    8   Tr[ns(na)] =   5.43380
    eigenvalues: 
  0.839  0.930  0.948
    eigenvectors:
  0.337  0.000  0.663
  0.497  0.251  0.252
  0.166  0.749  0.085
    occupations:
  0.911 -0.045  0.026
 -0.045  0.889  0.024
  0.026  0.024  0.917
atom    9   Tr[ns(na)] =   5.43304
    eigenvalues: 
  0.838  0.930  0.948
    eigenvectors:
  0.337  0.000  0.663
  0.497  0.248  0.254
  0.165  0.752  0.083
    occupations:
  0.911  0.045  0.026
  0.045  0.889 -0.024
  0.026 -0.024  0.916
atom   10   Tr[ns(na)] =   5.43304
    eigenvalues: 
  0.838  0.930  0.948
    eigenvectors:
  0.337  0.000  0.663
  0.000  1.000  0.000
  0.663  0.000  0.337
    occupations:
  0.911  0.000 -0.052
  0.000  0.930  0.000
 -0.052  0.000  0.875
N of occupied +U levels =  56.2871992
 --- exit write_ns ---
 --- in v_hubbard ---
Hubbard energy    0.3157
 -------

     total cpu time spent up to now is      329.8 secs

     total energy              =    -537.98298764 Ry
     Harris-Foulkes estimate   =    -537.98297546 Ry
     estimated scf accuracy    <       0.00000024 Ry

     iteration # 12     ecut=    30.00 Ry     beta=0.20
     Davidson diagonalization with overlap
     ethr =  3.19E-10,  avg # of iterations =  1.0
 --- enter write_ns ---
 LDA+U parameters:
U( 1)     =  5.00000000
alpha( 1) =  0.00000000
U( 2)     =  0.00000000
alpha( 2) =  0.00000000
U( 3)     =  0.00000000
alpha( 3) = -0.15000000
U( 4)     =  0.00000000
alpha( 4) =  0.00000000
atom    1   Tr[ns(na)] =   8.04933
    eigenvalues: 
  0.517  0.519  0.995  0.995  0.998
    eigenvectors:
  0.000  0.000  0.001  0.000  0.999
  0.561  0.098  0.215  0.126  0.000
  0.098  0.560  0.126  0.216  0.000
  0.171  0.171  0.490  0.168  0.000
  0.171  0.170  0.167  0.491  0.000
    occupations:
  0.998  0.000  0.000  0.000  0.000
  0.000  0.681  0.000 -0.086  0.209
  0.000  0.000  0.682  0.209  0.085
  0.000 -0.086  0.209  0.832  0.000
  0.000  0.209  0.085  0.000  0.832
atom    2   Tr[ns(na)] =   8.04644
    eigenvalues: 
  0.516  0.518  0.995  0.995  0.998
    eigenvectors:
  0.000  0.000  0.001  0.000  0.999
  0.416  0.242  0.292  0.050  0.000
  0.242  0.417  0.050  0.291  0.000
  0.023  0.318  0.000  0.658  0.000
  0.318  0.023  0.658  0.000  0.000
    occupations:
  0.998  0.000  0.000  0.000  0.000
  0.000  0.680  0.001  0.085  0.210
  0.000  0.001  0.681  0.210 -0.086
  0.000  0.085  0.210  0.832  0.000
  0.000  0.210 -0.086  0.000  0.832
atom    3   Tr[ns(na)] =   3.79171
    eigenvalues: 
  0.356  0.356  0.381  0.401  0.401
    eigenvectors:
  0.000  0.000  1.000  0.000  0.000
  0.229  0.691  0.000  0.062  0.017
  0.691  0.229  0.000  0.017  0.062
  0.059  0.020  0.000  0.209  0.712
  0.020  0.059  0.000  0.712  0.209
    occupations:
  0.381  0.000  0.000  0.000  0.000
  0.000  0.360  0.000  0.000  0.012
  0.000  0.000  0.360  0.012  0.000
  0.000  0.000  0.012  0.398  0.000
  0.000  0.012  0.000  0.000  0.398
atom    4   Tr[ns(na)] =   3.79176
    eigenvalues: 
  0.356  0.356  0.381  0.401  0.402
    eigenvectors:
  0.000  0.000  1.000  0.000  0.000
  0.679  0.243  0.000  0.059  0.019
  0.243  0.678  0.000  0.019  0.060
  0.021  0.058  0.000  0.232  0.689
  0.057  0.022  0.000  0.690  0.232
    occupations:
  0.381  0.000  0.000  0.000  0.000
  0.000  0.359  0.000  0.000  0.012
  0.000  0.000  0.360  0.012  0.000
  0.000  0.000  0.012  0.398  0.000
  0.000  0.012  0.000  0.000  0.398
atom    5   Tr[ns(na)] =   5.44227
    eigenvalues: 
  0.841  0.932  0.949
    eigenvectors:
  0.337  0.000  0.663
  0.497  0.251  0.252
  0.166  0.749  0.085
    occupations:
  0.912 -0.044  0.025
 -0.044  0.891  0.024
  0.025  0.024  0.918
atom    6   Tr[ns(na)] =   5.43305
    eigenvalues: 
  0.838  0.930  0.948
    eigenvectors:
  0.337  0.000  0.663
  0.498  0.248  0.254
  0.165  0.752  0.083
    occupations:
  0.911  0.045  0.026
  0.045  0.889 -0.024
  0.026 -0.024  0.917
atom    7   Tr[ns(na)] =   5.43305
    eigenvalues: 
  0.838  0.930  0.948
    eigenvectors:
  0.337  0.000  0.663
  0.000  1.000  0.000
  0.663  0.000  0.337
    occupations:
  0.911  0.000 -0.052
  0.000  0.930  0.000
 -0.052  0.000  0.875
atom    8   Tr[ns(na)] =   5.43372
    eigenvalues: 
  0.839  0.930  0.948
    eigenvectors:
  0.337  0.000  0.663
  0.497  0.251  0.252
  0.166  0.749  0.085
    occupations:
  0.911 -0.045  0.026
 -0.045  0.889  0.024
  0.026  0.024  0.917
atom    9   Tr[ns(na)] =   5.43297
    eigenvalues: 
  0.838  0.930  0.948
    eigenvectors:
  0.337  0.000  0.663
  0.497  0.248  0.254
  0.165  0.752  0.083
    occupations:
  0.911  0.045  0.026
  0.045  0.889 -0.024
  0.026 -0.024  0.916
atom   10   Tr[ns(na)] =   5.43297
    eigenvalues: 
  0.838  0.930  0.948
    eigenvectors:
  0.337  0.000  0.663
  0.000  1.000  0.000
  0.663  0.000  0.337
    occupations:
  0.911  0.000 -0.052
  0.000  0.930  0.000
 -0.052  0.000  0.875
N of occupied +U levels =  56.2872607
 --- exit write_ns ---
 --- in v_hubbard ---
Hubbard energy    0.3156
 -------

     total cpu time spent up to now is      351.7 secs

     total energy              =    -537.98299535 Ry
     Harris-Foulkes estimate   =    -537.98298767 Ry
     estimated scf accuracy    <       0.00000009 Ry

     iteration # 13     ecut=    30.00 Ry     beta=0.20
     Davidson diagonalization with overlap
     ethr =  1.19E-10,  avg # of iterations =  2.0
 --- enter write_ns ---
 LDA+U parameters:
U( 1)     =  5.00000000
alpha( 1) =  0.00000000
U( 2)     =  0.00000000
alpha( 2) =  0.00000000
U( 3)     =  0.00000000
alpha( 3) = -0.15000000
U( 4)     =  0.00000000
alpha( 4) =  0.00000000
atom    1   Tr[ns(na)] =   8.04929
    eigenvalues: 
  0.517  0.519  0.995  0.995  0.998
    eigenvectors:
  0.000  0.000  0.001  0.000  0.999
  0.561  0.098  0.216  0.126  0.000
  0.098  0.560  0.126  0.216  0.000
  0.171  0.171  0.490  0.168  0.000
  0.171  0.171  0.168  0.491  0.000
    occupations:
  0.998  0.000  0.000  0.000  0.000
  0.000  0.681  0.000 -0.086  0.209
  0.000  0.000  0.682  0.209  0.085
  0.000 -0.086  0.209  0.832  0.000
  0.000  0.209  0.085  0.000  0.832
atom    2   Tr[ns(na)] =   8.04641
    eigenvalues: 
  0.516  0.518  0.995  0.995  0.998
    eigenvectors:
  0.000  0.000  0.001  0.000  0.999
  0.416  0.242  0.291  0.051  0.000
  0.242  0.416  0.050  0.291  0.000
  0.023  0.318  0.000  0.658  0.000
  0.318  0.023  0.658  0.000  0.000
    occupations:
  0.998  0.000  0.000  0.000  0.000
  0.000  0.681  0.001  0.085  0.210
  0.000  0.001  0.681  0.210 -0.086
  0.000  0.085  0.210  0.832  0.000
  0.000  0.210 -0.086  0.000  0.832
atom    3   Tr[ns(na)] =   3.79167
    eigenvalues: 
  0.356  0.356  0.381  0.401  0.401
    eigenvectors:
  0.000  0.000  1.000  0.000  0.000
  0.229  0.691  0.000  0.062  0.018
  0.691  0.229  0.000  0.018  0.062
  0.059  0.020  0.000  0.209  0.711
  0.020  0.059  0.000  0.711  0.209
    occupations:
  0.381  0.000  0.000  0.000  0.000
  0.000  0.360  0.000  0.000  0.012
  0.000  0.000  0.360  0.012  0.000
  0.000  0.000  0.012  0.398  0.000
  0.000  0.012  0.000  0.000  0.398
atom    4   Tr[ns(na)] =   3.79172
    eigenvalues: 
  0.356  0.356  0.381  0.401  0.402
    eigenvectors:
  0.000  0.000  1.000  0.000  0.000
  0.679  0.243  0.000  0.059  0.019
  0.244  0.677  0.000  0.019  0.060
  0.021  0.058  0.000  0.232  0.689
  0.057  0.022  0.000  0.690  0.232
    occupations:
  0.381  0.000  0.000  0.000  0.000
  0.000  0.359  0.000  0.000  0.012
  0.000  0.000  0.360  0.012  0.000
  0.000  0.000  0.012  0.398  0.000
  0.000  0.012  0.000  0.000  0.398
atom    5   Tr[ns(na)] =   5.44229
    eigenvalues: 
  0.841  0.932  0.949
    eigenvectors:
  0.337  0.000  0.663
  0.497  0.251  0.252
  0.166  0.749  0.085
    occupations:
  0.912 -0.044  0.025
 -0.044  0.891  0.024
  0.025  0.024  0.918
atom    6   Tr[ns(na)] =   5.43307
    eigenvalues: 
  0.838  0.930  0.948
    eigenvectors:
  0.337  0.000  0.663
  0.498  0.248  0.254
  0.165  0.752  0.083
    occupations:
  0.911  0.045  0.026
  0.045  0.889 -0.024
  0.026 -0.024  0.917
atom    7   Tr[ns(na)] =   5.43307
    eigenvalues: 
  0.838  0.930  0.948
    eigenvectors:
  0.337  0.000  0.663
  0.000  1.000  0.000
  0.663  0.000  0.337
    occupations:
  0.911  0.000 -0.052
  0.000  0.930  0.000
 -0.052  0.000  0.875
atom    8   Tr[ns(na)] =   5.43376
    eigenvalues: 
  0.839  0.930  0.948
    eigenvectors:
  0.337  0.000  0.663
  0.497  0.251  0.252
  0.166  0.749  0.085
    occupations:
  0.911 -0.045  0.026
 -0.045  0.889  0.024
  0.026  0.024  0.917
atom    9   Tr[ns(na)] =   5.43299
    eigenvalues: 
  0.838  0.930  0.948
    eigenvectors:
  0.337  0.000  0.663
  0.497  0.248  0.254
  0.165  0.752  0.083
    occupations:
  0.911  0.045  0.026
  0.045  0.889 -0.024
  0.026 -0.024  0.916
atom   10   Tr[ns(na)] =   5.43299
    eigenvalues: 
  0.838  0.930  0.948
    eigenvectors:
  0.337  0.000  0.663
  0.000  1.000  0.000
  0.663  0.000  0.337
    occupations:
  0.911  0.000 -0.052
  0.000  0.930  0.000
 -0.052  0.000  0.875
N of occupied +U levels =  56.2872422
 --- exit write_ns ---
 --- in v_hubbard ---
Hubbard energy    0.3156
 -------

     total cpu time spent up to now is      375.4 secs

     End of self-consistent calculation

          k = 0.0000 0.0000 0.0000 (  2175 PWs)   bands (ev):

   -19.7960 -19.6231  -6.5464  -5.8754  -5.8644  -5.8301  -5.8017  -5.4776
    -3.8776  -3.2749  -3.2719  -3.2597  -3.0264  -3.0255   5.1430   6.4977
     6.5029   6.5561   6.7273   6.7368   7.4792   7.4965   7.6865   8.1883
     8.4365   8.4382   9.2773   9.5991   9.6141   9.9718   9.9752  10.1538
    10.4402  10.4440  10.6584  10.8187  10.8232  11.1447  11.8576  11.8587
    14.7037  14.7068  15.4293  15.4315  16.2013  16.7859

     occupation numbers 
     0.0313   0.0313   0.0313   0.0313   0.0313   0.0313   0.0313   0.0313
     0.0313   0.0313   0.0313   0.0313   0.0313   0.0313   0.0313   0.0313
     0.0313   0.0313   0.0313   0.0313   0.0313   0.0313   0.0313   0.0313
     0.0313   0.0313   0.0312   0.0312   0.0312   0.0312   0.0312   0.0312
     0.0312   0.0312   0.0312   0.0309   0.0309   0.0276   0.0031   0.0031
     0.0000   0.0000   0.0000   0.0000   0.0000   0.0000

          k =-0.2471-0.1427 0.1027 (  2181 PWs)   bands (ev):

   -19.7719 -19.6640  -6.7251  -6.2989  -5.9617  -5.8562  -5.6111  -5.4764
    -3.6549  -3.4213  -2.9492  -2.9110  -2.8732  -2.7697   5.4756   6.2205
     6.5405   6.5998   6.7065   6.7668   6.9154   7.4278   7.5554   7.6632
     7.8423   8.1998   9.4060   9.5494   9.6858   9.8768   9.9374  10.0075
    10.2269  10.3629  10.3845  10.8061  10.9171  10.9393  12.2621  12.3356
    14.2524  14.2653  15.8170  16.0720  16.9736  17.2680

     occupation numbers 
     0.0625   0.0625   0.0625   0.0625   0.0625   0.0625   0.0625   0.0625
     0.0625   0.0625   0.0625   0.0625   0.0625   0.0625   0.0625   0.0625
     0.0625   0.0625   0.0625   0.0625   0.0625   0.0625   0.0625   0.0625
     0.0625   0.0625   0.0625   0.0625   0.0625   0.0625   0.0625   0.0625
     0.0625   0.0625   0.0625   0.0619   0.0610   0.0607   0.0002   0.0001
     0.0000   0.0000   0.0000   0.0000   0.0000   0.0000

          k = 0.4942 0.2853-0.2053 (  2202 PWs)   bands (ev):

   -19.7275 -19.7256  -6.7307  -6.7070  -5.9759  -5.9581  -5.5336  -5.5059
    -3.4100  -3.4085  -2.8074  -2.8012  -2.5092  -2.5037   5.7632   5.7932
     6.6130   6.6271   6.8433   6.8532   7.0357   7.0550   7.2744   7.3075
     7.4428   7.4632   9.3391   9.3547   9.7875   9.8064  10.1431  10.1707
    10.1929  10.1999  10.4024  10.4321  10.6964  10.7084  13.2385  13.2827
    13.3223  13.3683  16.8307  16.8393  17.1280  17.1336

     occupation numbers 
     0.0313   0.0313   0.0313   0.0313   0.0313   0.0313   0.0313   0.0313
     0.0313   0.0313   0.0313   0.0313   0.0313   0.0313   0.0313   0.0313
     0.0313   0.0313   0.0313   0.0313   0.0313   0.0313   0.0313   0.0313
     0.0313   0.0313   0.0312   0.0312   0.0312   0.0312   0.0312   0.0312
     0.0312   0.0312   0.0312   0.0312   0.0312   0.0311   0.0000   0.0000
     0.0000   0.0000   0.0000   0.0000   0.0000   0.0000

          k =-0.2471 0.1427 0.2053 (  2195 PWs)   bands (ev):

   -19.7634 -19.6766  -6.8584  -6.2494  -6.0820  -5.8172  -5.6387  -5.4781
    -3.4537  -3.2778  -3.1228  -2.9143  -2.8436  -2.5617   5.5280   5.9424
     6.3525   6.6213   6.6923   7.0548   7.0991   7.3290   7.4314   7.7078
     7.8584   8.3970   8.7163   9.2814   9.7316   9.8194   9.9566   9.9819
    10.2446  10.5288  10.6312  10.7293  10.8262  10.8812  11.7926  12.6853
    13.5856  14.7253  15.9951  16.1980  17.0394  17.5386

     occupation numbers 
     0.0625   0.0625   0.0625   0.0625   0.0625   0.0625   0.0625   0.0625
     0.0625   0.0625   0.0625   0.0625   0.0625   0.0625   0.0625   0.0625
     0.0625   0.0625   0.0625   0.0625   0.0625   0.0625   0.0625   0.0625
     0.0625   0.0625   0.0625   0.0625   0.0625   0.0625   0.0625   0.0625
     0.0625   0.0625   0.0624   0.0622   0.0618   0.0614   0.0091   0.0000
     0.0000   0.0000   0.0000   0.0000   0.0000   0.0000

          k = 0.4942 0.5706-0.1027 (  2198 PWs)   bands (ev):

   -19.7357 -19.7208  -6.9625  -6.6438  -6.1387  -5.8731  -5.5015  -5.3971
    -3.3328  -3.2696  -2.8838  -2.7169  -2.5323  -2.3896   5.6228   5.9077
     6.0618   6.6495   6.7456   6.8155   6.8843   7.2049   7.3165   7.3720
     7.8325   8.1286   8.8102   9.1301   9.4617   9.7059   9.7321  10.0656
    10.2628  10.4164  10.4868  10.5775  10.7407  10.9020  12.2560  12.6940
    13.3772  14.3064  16.9063  17.1151  17.3075  18.0152

     occupation numbers 
     0.0625   0.0625   0.0625   0.0625   0.0625   0.0625   0.0625   0.0625
     0.0625   0.0625   0.0625   0.0625   0.0625   0.0625   0.0625   0.0625
     0.0625   0.0625   0.0625   0.0625   0.0625   0.0625   0.0625   0.0625
     0.0625   0.0625   0.0625   0.0625   0.0625   0.0625   0.0625   0.0625
     0.0625   0.0625   0.0625   0.0624   0.0622   0.0612   0.0002   0.0000
     0.0000   0.0000   0.0000   0.0000   0.0000   0.0000

          k = 0.2471 0.4280 0.0000 (  2203 PWs)   bands (ev):

   -19.7489 -19.7035  -6.8405  -6.6513  -6.0334  -5.9899  -5.4486  -5.3613
    -3.5685  -3.3065  -2.8088  -2.7061  -2.5781  -2.5709   5.7586   5.8089
     6.3758   6.5745   6.7015   6.7372   7.0705   7.1381   7.2545   7.4574
     7.5003   8.3518   8.8498   9.2717   9.6816   9.7170   9.9523  10.1796
    10.2818  10.2868  10.4939  10.5411  10.5570  10.9804  12.1660  13.2710
    13.3524  14.0976  16.4330  16.9969  17.4224  17.9255

     occupation numbers 
     0.0625   0.0625   0.0625   0.0625   0.0625   0.0625   0.0625   0.0625
     0.0625   0.0625   0.0625   0.0625   0.0625   0.0625   0.0625   0.0625
     0.0625   0.0625   0.0625   0.0625   0.0625   0.0625   0.0625   0.0625
     0.0625   0.0625   0.0625   0.0625   0.0625   0.0625   0.0625   0.0625
     0.0625   0.0625   0.0625   0.0625   0.0625   0.0600   0.0006   0.0000
     0.0000   0.0000   0.0000   0.0000   0.0000   0.0000

          k = 0.4942-0.2853-0.4107 (  2202 PWs)   bands (ev):

   -19.7302 -19.7297  -7.1749  -6.4551  -6.2469  -5.9466  -5.5100  -5.3064
    -3.2183  -3.1189  -3.0652  -2.6524  -2.4826  -2.2252   5.3061   5.7086
     5.9147   6.6492   6.7253   7.0975   7.1362   7.2474   7.3471   7.3579
     8.1479   8.2596   8.4334   8.6005   9.3755   9.6531  10.0129  10.0542
    10.2669  10.3142  10.4608  10.6480  10.7225  11.0213  11.7475  12.3646
    13.2797  14.7402  17.0470  17.2685  17.5220  17.6150

     occupation numbers 
     0.0313   0.0313   0.0313   0.0313   0.0313   0.0313   0.0313   0.0313
     0.0313   0.0313   0.0313   0.0313   0.0313   0.0313   0.0313   0.0313
     0.0313   0.0313   0.0313   0.0313   0.0313   0.0313   0.0313   0.0313
     0.0313   0.0313   0.0313   0.0313   0.0312   0.0312   0.0312   0.0312
     0.0312   0.0312   0.0312   0.0312   0.0311   0.0296   0.0057   0.0000
     0.0000   0.0000   0.0000   0.0000   0.0000   0.0000

          k = 0.0000 0.0000 0.3080 (  2187 PWs)   bands (ev):

   -19.7715 -19.6659  -6.6135  -5.9920  -5.9567  -5.9371  -5.8523  -5.8250
    -3.2325  -3.1576  -3.1538  -2.9761  -2.9033  -2.8999   5.5676   6.2483
[...]
     0.0625   0.0625   0.0625   0.0625   0.0625   0.0625   0.0625   0.0625
     0.0625   0.0625   0.0625   0.0625   0.0625   0.0625   0.0625   0.0625
     0.0625   0.0625   0.0624   0.0622   0.0618   0.0614   0.0091   0.0000
     0.0000   0.0000   0.0000   0.0000   0.0000   0.0000

          k = 0.4942-0.5706 0.1027 (  2198 PWs)   bands (ev):

   -19.7369 -19.7216  -6.9499  -6.6459  -6.1264  -5.8974  -5.5178  -5.3791
    -3.3321  -3.2691  -2.8860  -2.7118  -2.5316  -2.3854   5.6034   5.9023
     6.0663   6.6463   6.7408   6.8023   6.9074   7.2080   7.3110   7.3495
     7.8639   8.1258   8.8139   9.1331   9.4531   9.7116   9.7282  10.0646
    10.2634  10.4201  10.4762  10.5659  10.7558  10.9143  12.2557  12.6919
    13.3814  14.3039  16.9081  17.1095  17.3072  18.0150

     occupation numbers 
     0.0625   0.0625   0.0625   0.0625   0.0625   0.0625   0.0625   0.0625
     0.0625   0.0625   0.0625   0.0625   0.0625   0.0625   0.0625   0.0625
     0.0625   0.0625   0.0625   0.0625   0.0625   0.0625   0.0625   0.0625
     0.0625   0.0625   0.0625   0.0625   0.0625   0.0625   0.0625   0.0625
     0.0625   0.0625   0.0625   0.0625   0.0621   0.0610   0.0002   0.0000
     0.0000   0.0000   0.0000   0.0000   0.0000   0.0000

          k =-0.7412 0.1427-0.1027 (  2198 PWs)   bands (ev):

   -19.7369 -19.7216  -6.9494  -6.6466  -6.1254  -5.8986  -5.5168  -5.3797
    -3.3313  -3.2692  -2.8859  -2.7129  -2.5310  -2.3857   5.6061   5.8979
     6.0692   6.6428   6.7437   6.8109   6.8941   7.2101   7.3110   7.3544
     7.8595   8.1251   8.8146   9.1332   9.4552   9.7127   9.7282  10.0662
    10.2591  10.4258  10.4745  10.5664  10.7470  10.9190  12.2558  12.6922
    13.3815  14.3042  16.9063  17.1123  17.3067  18.0146

     occupation numbers 
     0.0625   0.0625   0.0625   0.0625   0.0625   0.0625   0.0625   0.0625
     0.0625   0.0625   0.0625   0.0625   0.0625   0.0625   0.0625   0.0625
     0.0625   0.0625   0.0625   0.0625   0.0625   0.0625   0.0625   0.0625
     0.0625   0.0625   0.0625   0.0625   0.0625   0.0625   0.0625   0.0625
     0.0625   0.0625   0.0625   0.0625   0.0622   0.0610   0.0002   0.0000
     0.0000   0.0000   0.0000   0.0000   0.0000   0.0000

          k = 0.2471-0.7133-0.1027 (  2198 PWs)   bands (ev):

   -19.7369 -19.7216  -6.9490  -6.6473  -6.1238  -5.9000  -5.5180  -5.3779
    -3.3315  -3.2694  -2.8854  -2.7142  -2.5308  -2.3853   5.6064   5.8994
     6.0702   6.6430   6.7426   6.8148   6.8887   7.2090   7.3065   7.3627
     7.8575   8.1234   8.8107   9.1364   9.4598   9.7040   9.7353  10.0642
    10.2542  10.4207  10.4852  10.5799  10.7350  10.9169  12.2560  12.6922
    13.3815  14.3042  16.9042  17.1155  17.3068  18.0159

     occupation numbers 
     0.0625   0.0625   0.0625   0.0625   0.0625   0.0625   0.0625   0.0625
     0.0625   0.0625   0.0625   0.0625   0.0625   0.0625   0.0625   0.0625
     0.0625   0.0625   0.0625   0.0625   0.0625   0.0625   0.0625   0.0625
     0.0625   0.0625   0.0625   0.0625   0.0625   0.0625   0.0625   0.0625
     0.0625   0.0625   0.0625   0.0624   0.0622   0.0610   0.0002   0.0000
     0.0000   0.0000   0.0000   0.0000   0.0000   0.0000

          k =-0.7412-0.1427 0.1027 (  2198 PWs)   bands (ev):

   -19.7369 -19.7216  -6.9495  -6.6465  -6.1249  -5.8989  -5.5190  -5.3773
    -3.3322  -3.2693  -2.8856  -2.7132  -2.5315  -2.3850   5.6036   5.9041
     6.0672   6.6455   6.7409   6.8059   6.9017   7.2076   7.3075   7.3562
     7.8619   8.1244   8.8102   9.1360   9.4576   9.7022   9.7361  10.0627
    10.2585  10.4151  10.4866  10.5791  10.7442  10.9123  12.2559  12.6919
    13.3814  14.3039  16.9061  17.1126  17.3074  18.0163

     occupation numbers 
     0.0625   0.0625   0.0625   0.0625   0.0625   0.0625   0.0625   0.0625
     0.0625   0.0625   0.0625   0.0625   0.0625   0.0625   0.0625   0.0625
     0.0625   0.0625   0.0625   0.0625   0.0625   0.0625   0.0625   0.0625
     0.0625   0.0625   0.0625   0.0625   0.0625   0.0625   0.0625   0.0625
     0.0625   0.0625   0.0625   0.0624   0.0622   0.0611   0.0002   0.0000
     0.0000   0.0000   0.0000   0.0000   0.0000   0.0000

          k = 0.2471 0.7133 0.1027 (  2198 PWs)   bands (ev):

   -19.7357 -19.7208  -6.9629  -6.6430  -6.1396  -5.8721  -5.5026  -5.3964
    -3.3336  -3.2695  -2.8839  -2.7159  -2.5329  -2.3893   5.6200   5.9134
     6.0576   6.6519   6.7438   6.8063   6.8984   7.2035   7.3163   7.3663
     7.8369   8.1294   8.8097   9.1298   9.4596   9.7044   9.7327  10.0637
    10.2670  10.4112  10.4884  10.5768  10.7495  10.8973  12.2558  12.6937
    13.3771  14.3061  16.9082  17.1122  17.3081  18.0157

     occupation numbers 
     0.0625   0.0625   0.0625   0.0625   0.0625   0.0625   0.0625   0.0625
     0.0625   0.0625   0.0625   0.0625   0.0625   0.0625   0.0625   0.0625
     0.0625   0.0625   0.0625   0.0625   0.0625   0.0625   0.0625   0.0625
     0.0625   0.0625   0.0625   0.0625   0.0625   0.0625   0.0625   0.0625
     0.0625   0.0625   0.0625   0.0624   0.0622   0.0612   0.0002   0.0000
     0.0000   0.0000   0.0000   0.0000   0.0000   0.0000

          k = 0.2471-0.4280 0.0000 (  2203 PWs)   bands (ev):

   -19.7487 -19.7037  -6.8476  -6.6376  -6.0617  -5.9741  -5.4357  -5.3685
    -3.5660  -3.3066  -2.8057  -2.7123  -2.5810  -2.5670   5.7713   5.8157
     6.3677   6.5801   6.6899   6.7353   7.0577   7.1305   7.2605   7.4493
     7.4910   8.3694   8.8675   9.2984   9.6740   9.7085   9.9468  10.1780
    10.2742  10.2809  10.4909  10.5355  10.5552  10.9967  12.1639  13.2693
    13.3509  14.1014  16.4338  16.9942  17.4194  17.9263

     occupation numbers 
     0.0625   0.0625   0.0625   0.0625   0.0625   0.0625   0.0625   0.0625
     0.0625   0.0625   0.0625   0.0625   0.0625   0.0625   0.0625   0.0625
     0.0625   0.0625   0.0625   0.0625   0.0625   0.0625   0.0625   0.0625
     0.0625   0.0625   0.0625   0.0625   0.0625   0.0625   0.0625   0.0625
     0.0625   0.0625   0.0625   0.0625   0.0625   0.0597   0.0006   0.0000
     0.0000   0.0000   0.0000   0.0000   0.0000   0.0000

          k =-0.4942 0.0000 0.0000 (  2203 PWs)   bands (ev):

   -19.7487 -19.7037  -6.8476  -6.6375  -6.0618  -5.9741  -5.4357  -5.3685
    -3.5660  -3.3066  -2.8057  -2.7123  -2.5812  -2.5668   5.7712   5.8157
     6.3676   6.5806   6.6903   6.7350   7.0567   7.1309   7.2605   7.4472
     7.4934   8.3694   8.8674   9.2984   9.6729   9.7096   9.9467  10.1774
    10.2767  10.2799  10.4921  10.5346  10.5543  10.9968  12.1639  13.2693
    13.3508  14.1014  16.4338  16.9942  17.4194  17.9268

     occupation numbers 
     0.0625   0.0625   0.0625   0.0625   0.0625   0.0625   0.0625   0.0625
     0.0625   0.0625   0.0625   0.0625   0.0625   0.0625   0.0625   0.0625
     0.0625   0.0625   0.0625   0.0625   0.0625   0.0625   0.0625   0.0625
     0.0625   0.0625   0.0625   0.0625   0.0625   0.0625   0.0625   0.0625
     0.0625   0.0625   0.0625   0.0625   0.0625   0.0597   0.0006   0.0000
     0.0000   0.0000   0.0000   0.0000   0.0000   0.0000

          k = 0.4942 0.2853 0.4107 (  2202 PWs)   bands (ev):

   -19.7325 -19.7313  -7.1593  -6.4484  -6.2294  -5.9795  -5.5356  -5.2870
    -3.2171  -3.1177  -3.0646  -2.6465  -2.4789  -2.2202   5.2862   5.6836
     5.9336   6.6457   6.7145   7.1018   7.1161   7.2251   7.3618   7.3706
     8.1458   8.2911   8.4311   8.5758   9.4072   9.6606  10.0147  10.0442
    10.2611  10.3072  10.4651  10.6374  10.7262  11.0395  11.7486  12.3618
    13.2850  14.7378  17.0454  17.2676  17.5185  17.6125

     occupation numbers 
     0.0313   0.0313   0.0313   0.0313   0.0313   0.0313   0.0313   0.0313
     0.0313   0.0313   0.0313   0.0313   0.0313   0.0313   0.0313   0.0313
     0.0313   0.0313   0.0313   0.0313   0.0313   0.0313   0.0313   0.0313
     0.0313   0.0313   0.0313   0.0313   0.0312   0.0312   0.0312   0.0312
     0.0312   0.0312   0.0312   0.0312   0.0311   0.0294   0.0057   0.0000
     0.0000   0.0000   0.0000   0.0000   0.0000   0.0000

          k = 0.0000 0.5706-0.4107 (  2202 PWs)   bands (ev):

   -19.7325 -19.7313  -7.1593  -6.4483  -6.2296  -5.9795  -5.5356  -5.2870
    -3.2171  -3.1177  -3.0646  -2.6465  -2.4789  -2.2202   5.2862   5.6836
     5.9335   6.6455   6.7149   7.1016   7.1161   7.2251   7.3607   7.3717
     8.1455   8.2914   8.4311   8.5757   9.4072   9.6606  10.0144  10.0445
    10.2617  10.3067  10.4643  10.6393  10.7251  11.0395  11.7486  12.3618
    13.2850  14.7378  17.0454  17.2675  17.5185  17.6125

     occupation numbers 
     0.0313   0.0313   0.0313   0.0313   0.0313   0.0313   0.0313   0.0313
     0.0313   0.0313   0.0313   0.0313   0.0313   0.0313   0.0313   0.0313
     0.0313   0.0313   0.0313   0.0313   0.0313   0.0313   0.0313   0.0313
     0.0313   0.0313   0.0313   0.0313   0.0312   0.0312   0.0312   0.0312
     0.0312   0.0312   0.0312   0.0312   0.0311   0.0294   0.0057   0.0000
     0.0000   0.0000   0.0000   0.0000   0.0000   0.0000

          k = 0.7412-0.4280 0.0000 (  2204 PWs)   bands (ev):

   -19.7481 -19.7058  -6.7263  -6.6155  -6.1375  -5.8295  -5.6864  -5.5576
    -3.2093  -3.1060  -3.0494  -2.6801  -2.6644  -2.5910   5.7887   5.9865
     6.2416   6.6865   6.7690   6.8166   6.9986   7.1134   7.3179   7.4051
     7.6584   8.1874   8.8223   9.3786   9.4343   9.6493   9.8055  10.1712
    10.2480  10.3636  10.5574  10.6081  10.6763  10.6881  12.1637  13.1911
    13.2685  14.1264  16.6840  16.7276  17.5917  17.7948

     occupation numbers 
     0.0625   0.0625   0.0625   0.0625   0.0625   0.0625   0.0625   0.0625
     0.0625   0.0625   0.0625   0.0625   0.0625   0.0625   0.0625   0.0625
     0.0625   0.0625   0.0625   0.0625   0.0625   0.0625   0.0625   0.0625
     0.0625   0.0625   0.0625   0.0625   0.0625   0.0625   0.0625   0.0625
     0.0625   0.0625   0.0625   0.0624   0.0623   0.0623   0.0006   0.0000
     0.0000   0.0000   0.0000   0.0000   0.0000   0.0000

          k = 0.0000-0.8559 0.0000 (  2204 PWs)   bands (ev):

   -19.7479 -19.7060  -6.7336  -6.6027  -6.1439  -5.8350  -5.6967  -5.5400
    -3.2073  -3.1063  -3.0493  -2.6825  -2.6689  -2.5874   5.8072   6.0024
     6.2303   6.6767   6.7607   6.8153   6.9854   7.1150   7.3106   7.3956
     7.6523   8.2032   8.8475   9.4034   9.4251   9.6418   9.8035  10.1662
    10.2373  10.3572  10.5557  10.6006  10.6877  10.6935  12.1620  13.1895
    13.2670  14.1301  16.6862  16.7262  17.5896  17.7943

     occupation numbers 
     0.0625   0.0625   0.0625   0.0625   0.0625   0.0625   0.0625   0.0625
     0.0625   0.0625   0.0625   0.0625   0.0625   0.0625   0.0625   0.0625
     0.0625   0.0625   0.0625   0.0625   0.0625   0.0625   0.0625   0.0625
     0.0625   0.0625   0.0625   0.0625   0.0625   0.0625   0.0625   0.0625
     0.0625   0.0625   0.0625   0.0624   0.0623   0.0623   0.0006   0.0000
     0.0000   0.0000   0.0000   0.0000   0.0000   0.0000

          k = 0.4942-0.2853-0.1027 (  2211 PWs)   bands (ev):

   -19.7369 -19.7197  -6.9786  -6.5402  -6.3240  -5.6993  -5.6052  -5.3672
    -3.3464  -3.1730  -3.0516  -2.6057  -2.5679  -2.3813   5.6473   5.9534
     5.9696   6.5148   6.7910   6.9317   6.9831   7.1059   7.2625   7.3497
     7.8798   8.1727   8.7871   9.2948   9.3329   9.5791   9.9030   9.9272
    10.3365  10.4504  10.5966  10.6484  10.6915  10.7245  12.2116  12.7076
    13.4244  14.2880  16.8862  16.9350  17.5776  17.9277

     occupation numbers 
     0.0625   0.0625   0.0625   0.0625   0.0625   0.0625   0.0625   0.0625
     0.0625   0.0625   0.0625   0.0625   0.0625   0.0625   0.0625   0.0625
     0.0625   0.0625   0.0625   0.0625   0.0625   0.0625   0.0625   0.0625
     0.0625   0.0625   0.0625   0.0625   0.0625   0.0625   0.0625   0.0625
     0.0625   0.0625   0.0624   0.0624   0.0623   0.0622   0.0004   0.0000
     0.0000   0.0000   0.0000   0.0000   0.0000   0.0000

          k = 0.0000-0.5706 0.1027 (  2211 PWs)   bands (ev):

   -19.7381 -19.7205  -6.9659  -6.5427  -6.3215  -5.7059  -5.6255  -5.3522
    -3.3463  -3.1726  -3.0512  -2.6032  -2.5675  -2.3771   5.6319   5.9438
     5.9764   6.5204   6.7870   6.9254   6.9812   7.1082   7.2521   7.3486
     7.9055   8.1632   8.7918   9.2782   9.3285   9.6064   9.9066   9.9231
    10.3246  10.4483  10.5924  10.6532  10.6972  10.7321  12.2116  12.7059
    13.4286  14.2857  16.8854  16.9355  17.5783  17.9272

     occupation numbers 
     0.0625   0.0625   0.0625   0.0625   0.0625   0.0625   0.0625   0.0625
     0.0625   0.0625   0.0625   0.0625   0.0625   0.0625   0.0625   0.0625
     0.0625   0.0625   0.0625   0.0625   0.0625   0.0625   0.0625   0.0625
     0.0625   0.0625   0.0625   0.0625   0.0625   0.0625   0.0625   0.0625
     0.0625   0.0625   0.0624   0.0624   0.0623   0.0622   0.0004   0.0000
     0.0000   0.0000   0.0000   0.0000   0.0000   0.0000

          k = 0.7412 0.4280 0.3080 (  2210 PWs)   bands (ev):

   -19.7377 -19.7223  -6.9020  -6.4540  -6.2989  -5.8005  -5.7669  -5.4836
    -3.0839  -3.0682  -2.9725  -2.7348  -2.6279  -2.4279   5.7169   5.9618
     6.1085   6.5314   6.7836   6.8133   7.1019   7.1347   7.2752   7.3906
     7.8849   8.1544   8.7144   9.2148   9.3944   9.4577   9.6215  10.0514
    10.2636  10.4272  10.5302  10.6321  10.7647  10.7778  12.1724  12.6597
    13.3778  14.2559  17.0592  17.0706  17.5466  17.9021

     occupation numbers 
     0.0625   0.0625   0.0625   0.0625   0.0625   0.0625   0.0625   0.0625
     0.0625   0.0625   0.0625   0.0625   0.0625   0.0625   0.0625   0.0625
     0.0625   0.0625   0.0625   0.0625   0.0625   0.0625   0.0625   0.0625
     0.0625   0.0625   0.0625   0.0625   0.0625   0.0625   0.0625   0.0625
     0.0625   0.0625   0.0625   0.0624   0.0621   0.0621   0.0006   0.0000
     0.0000   0.0000   0.0000   0.0000   0.0000   0.0000

          k = 0.0000 0.8559-0.3080 (  2210 PWs)   bands (ev):

   -19.7377 -19.7223  -6.9020  -6.4541  -6.2988  -5.8005  -5.7669  -5.4836
    -3.0839  -3.0682  -2.9724  -2.7349  -2.6278  -2.4279   5.7169   5.9618
     6.1085   6.5315   6.7833   6.8137   7.1027   7.1336   7.2749   7.3911
     7.8849   8.1542   8.7144   9.2150   9.3946   9.4575   9.6215  10.0510
    10.2638  10.4268  10.5316  10.6312  10.7642  10.7783  12.1724  12.6597
    13.3778  14.2559  17.0592  17.0707  17.5466  17.9021

     occupation numbers 
     0.0625   0.0625   0.0625   0.0625   0.0625   0.0625   0.0625   0.0625
     0.0625   0.0625   0.0625   0.0625   0.0625   0.0625   0.0625   0.0625
     0.0625   0.0625   0.0625   0.0625   0.0625   0.0625   0.0625   0.0625
     0.0625   0.0625   0.0625   0.0625   0.0625   0.0625   0.0625   0.0625
     0.0625   0.0625   0.0625   0.0624   0.0621   0.0621   0.0006   0.0000
     0.0000   0.0000   0.0000   0.0000   0.0000   0.0000

          k = 0.2471 0.7133-0.2053 (  2206 PWs)   bands (ev):

   -19.7317 -19.7312  -6.8903  -6.8731  -6.0426  -6.0122  -5.4400  -5.4182
    -3.1634  -3.1628  -2.8259  -2.8210  -2.3863  -2.3822   5.8610   5.8791
     6.0306   6.0345   6.7953   6.7976   7.0288   7.0451   7.2983   7.3046
     8.2787   8.3000   8.7435   8.7646   9.4188   9.4336   9.9431   9.9496
    10.3088  10.3210  10.4677  10.4692  10.8080  10.8241  12.2173  12.2237
    13.9504  13.9623  17.4241  17.4264  17.8695  17.8741

     occupation numbers 
     0.0625   0.0625   0.0625   0.0625   0.0625   0.0625   0.0625   0.0625
     0.0625   0.0625   0.0625   0.0625   0.0625   0.0625   0.0625   0.0625
     0.0625   0.0625   0.0625   0.0625   0.0625   0.0625   0.0625   0.0625
     0.0625   0.0625   0.0625   0.0625   0.0625   0.0625   0.0625   0.0625
     0.0625   0.0625   0.0625   0.0625   0.0619   0.0618   0.0004   0.0003
     0.0000   0.0000   0.0000   0.0000   0.0000   0.0000

          k =-0.7412-0.1427-0.2053 (  2206 PWs)   bands (ev):

   -19.7325 -19.7323  -6.8891  -6.8564  -6.0411  -6.0394  -5.4406  -5.4082
    -3.1630  -3.1611  -2.8259  -2.8248  -2.3866  -2.3728   5.8582   5.8836
     6.0254   6.0339   6.7612   6.7929   7.0290   7.0418   7.2937   7.3019
     8.3010   8.3019   8.7670   8.7705   9.4372   9.4379   9.9234   9.9346
    10.3012  10.3093  10.4676  10.4766  10.8218  10.8284  12.2154  12.2226
    13.9510  13.9635  17.4257  17.4265  17.8688  17.8714

     occupation numbers 
     0.0625   0.0625   0.0625   0.0625   0.0625   0.0625   0.0625   0.0625
     0.0625   0.0625   0.0625   0.0625   0.0625   0.0625   0.0625   0.0625
     0.0625   0.0625   0.0625   0.0625   0.0625   0.0625   0.0625   0.0625
     0.0625   0.0625   0.0625   0.0625   0.0625   0.0625   0.0625   0.0625
     0.0625   0.0625   0.0625   0.0625   0.0618   0.0618   0.0004   0.0003
     0.0000   0.0000   0.0000   0.0000   0.0000   0.0000

     the Fermi energy is    11.4874 ev

!    total energy              =    -537.98300921 Ry
     Harris-Foulkes estimate   =    -537.98299539 Ry
     estimated scf accuracy    <          5.6E-09 Ry

     The total energy is the sum of the following terms:

     one-electron contribution =     -32.89536913 Ry
     hartree contribution      =      83.66583678 Ry
     xc contribution           =    -199.62030847 Ry
     ewald contribution        =    -389.44315552 Ry
     Hubbard energy            =       0.31555359 Ry
     smearing contrib. (-TS)   =      -0.00556645 Ry

     convergence has been achieved in  13 iterations

     init_run     :      6.84s CPU      6.94s WALL (       1 calls)
     electrons    :    365.13s CPU    367.95s WALL (       1 calls)

     Called by init_run:
     wfcinit      :      0.00s CPU      0.00s WALL (       1 calls)
     potinit      :      0.28s CPU      0.30s WALL (       1 calls)

     Called by electrons:
     c_bands      :    281.97s CPU    283.03s WALL (      13 calls)
     sum_band     :     60.05s CPU     60.58s WALL (      13 calls)
     v_of_rho     :      3.30s CPU      3.32s WALL (      14 calls)
     v_h          :      0.16s CPU      0.17s WALL (      14 calls)
     v_xc         :      3.14s CPU      3.15s WALL (      14 calls)
     newd         :     20.73s CPU     20.79s WALL (      14 calls)
     mix_rho      :      0.31s CPU      0.31s WALL (      13 calls)

     Called by c_bands:
     init_us_2    :      3.11s CPU      3.11s WALL (     936 calls)
     cegterg      :    272.94s CPU    273.49s WALL (     468 calls)

     Called by sum_band:
     sum_band:bec :      0.36s CPU      0.35s WALL (     468 calls)
     addusdens    :     14.04s CPU     14.05s WALL (      13 calls)

     Called by *egterg:
     h_psi        :    203.01s CPU    203.51s WALL (    1791 calls)
     s_psi        :     11.71s CPU     11.73s WALL (    1791 calls)
     g_psi        :      1.11s CPU      1.08s WALL (    1323 calls)
     cdiaghg      :     19.65s CPU     19.64s WALL (    1755 calls)
     cegterg:over :     13.72s CPU     13.71s WALL (    1323 calls)
     cegterg:upda :      8.47s CPU      8.50s WALL (    1323 calls)
     cegterg:last :      6.64s CPU      6.66s WALL (     539 calls)

     Called by h_psi:
     h_psi:vloc   :    163.68s CPU    164.11s WALL (    1791 calls)
     h_psi:vnl    :     24.91s CPU     24.96s WALL (    1791 calls)
     add_vuspsi   :     11.84s CPU     11.88s WALL (    1791 calls)
     vhpsi        :     13.95s CPU     13.98s WALL (    1791 calls)

     General routines
     calbec       :     27.23s CPU     27.28s WALL (    4518 calls)
     fft          :      2.18s CPU      2.23s WALL (     219 calls)
     ffts         :      0.06s CPU      0.09s WALL (      27 calls)
     fftw         :    164.91s CPU    165.31s WALL (  129954 calls)
     interpolate  :      0.36s CPU      0.41s WALL (      27 calls)
     davcio       :      0.01s CPU      0.93s WALL (     972 calls)

     Parallel routines
     fft_scatter  :     37.98s CPU     38.11s WALL (  130200 calls)
     Hubbard U routines
     new_ns       :      2.54s CPU      2.97s WALL (      13 calls)
     vhpsi        :     13.95s CPU     13.98s WALL (    1791 calls)

     PWSCF        :  6m12.40s CPU     6m15.39s WALL


   This run was terminated on:  14:57: 4  11Nov2012            

=------------------------------------------------------------------------------=
