   JOB DONE.
=------------------------------------------------------------------------------=

     Program PWSCF v.5.0.1 starts on 11Nov2012 at 15:11:14 

     This program is part of the open-source Quantum ESPRESSO suite
     for quantum simulation of materials; please cite
         "P. Giannozzi et al., J. Phys.:Condens. Matter 21 395502 (2009);
          URL http://www.quantum-espresso.org", 
     in publications or presentations arising from this work. More details at
     http://www.quantum-espresso.org/quote.php

     Parallel version (MPI), running on     2 processors
     R & G space division:  proc/pool =    2

     Current dimensions of program PWSCF are:
     Max number of different atomic species (ntypx) = 10
     Max number of k-points (npk) =  40000
     Max angular momentum in pseudopotentials (lmaxx) =  3
     Reading input from CoLaO_U500_a0.in
               file Co.pbe-nd-rrkjus.UPF: wavefunction(s)  4S 3D renormalized
               file O.pbe-rrkjus.UPF: wavefunction(s)  2S renormalized
               file O.pbe-rrkjus.UPF: wavefunction(s)  2S renormalized

     Subspace diagonalization in iterative solution of the eigenvalue problem:
     a serial algorithm will be used


     Parallelization info
     --------------------
     sticks:   dense  smooth     PW     G-vecs:    dense   smooth      PW
     Min        1112     444    131                34808     8786    1448
     Max        1113     445    132                34809     8787    1449
     Sum        2225     889    263                69617    17573    2897


     Title: 
     GGA + U, U = 5.000, alpha = 1D-40                                          


     bravais-lattice index     =            5
     lattice parameter (alat)  =      10.3292  a.u.
     unit-cell volume          =     793.0599 (a.u.)^3
     number of atoms/cell      =           10
     number of atomic types    =            4
     number of electrons       =        76.00
     number of Kohn-Sham states=           46
     kinetic-energy cutoff     =      30.0000  Ry
     charge density cutoff     =     300.0000  Ry
     convergence threshold     =      1.0E-08
     mixing beta               =       0.2000
     number of iterations used =            8  plain     mixing
     Exchange-correlation      =  SLA  PW   PBE  PBE ( 1 4 3 4 0)
     EXX-fraction              =        0.00

     celldm(1)=  10.329242  celldm(2)=   0.000000  celldm(3)=   0.000000
     celldm(4)=   0.488100  celldm(5)=   0.000000  celldm(6)=   0.000000

     crystal axes: (cart. coord. in units of alat)
               a(1) = (   0.505915  -0.292090   0.811624 )  
               a(2) = (   0.000000   0.584180   0.811624 )  
               a(3) = (  -0.505915  -0.292090   0.811624 )  

     reciprocal axes: (cart. coord. in units 2 pi/alat)
               b(1) = (  0.988308 -0.570600  0.410699 )  
               b(2) = (  0.000000  1.141200  0.410699 )  
               b(3) = ( -0.988308 -0.570600  0.410699 )  


     PseudoPot. # 1 for Co read from file:
     /home/mcurnan/dft-course/Project1/example_LaCoO3/Co.pbe-nd-rrkjus.UPF
     MD5 check sum: 3e47a84addf5e975e0edeaeee2a73f59
     Pseudo is Ultrasoft + core correction, Zval =  9.0
     Generated by new atomic code, or converted to UPF format
     Using radial grid of  961 points,  6 beta functions with: 
                l(1) =   0
                l(2) =   0
                l(3) =   1
                l(4) =   1
                l(5) =   2
                l(6) =   2
     Q(r) pseudized with 0 coefficients 


     PseudoPot. # 2 for La read from file:
     /home/mcurnan/dft-course/Project1/example_LaCoO3/La.pbe-nsp-van.UPF
     MD5 check sum: b2f11743f52dde65f77d1302becd7929
     Pseudo is Ultrasoft + core correction, Zval = 11.0
     Generated by new atomic code, or converted to UPF format
     Using radial grid of  907 points,  6 beta functions with: 
                l(1) =   0
                l(2) =   0
                l(3) =   1
                l(4) =   1
                l(5) =   2
                l(6) =   2
     Q(r) pseudized with  6 coefficients,  rinner =    1.200   1.200   1.200
                                                       1.200   1.200

     PseudoPot. # 3 for O  read from file:
     /home/mcurnan/dft-course/Project1/example_LaCoO3/O.pbe-rrkjus.UPF
     MD5 check sum: 390ba29e75625707450f3bd3f0eb6be9
     Pseudo is Ultrasoft, Zval =  6.0
     Generated by new atomic code, or converted to UPF format
     Using radial grid of 1269 points,  4 beta functions with: 
                l(1) =   0
                l(2) =   0
                l(3) =   1
                l(4) =   1
     Q(r) pseudized with 0 coefficients 


     PseudoPot. # 4 for O  read from file:
     /home/mcurnan/dft-course/Project1/example_LaCoO3/O.pbe-rrkjus.UPF
     MD5 check sum: 390ba29e75625707450f3bd3f0eb6be9
     Pseudo is Ultrasoft, Zval =  6.0
     Generated by new atomic code, or converted to UPF format
     Using radial grid of 1269 points,  4 beta functions with: 
                l(1) =   0
                l(2) =   0
                l(3) =   1
                l(4) =   1
     Q(r) pseudized with 0 coefficients 


     atomic species   valence    mass     pseudopotential
        Co1            9.00     1.00000     Co( 1.00)
        La1           11.00     1.00000     La( 1.00)
        O1             6.00     1.00000     O ( 1.00)
        O2             6.00     1.00000     O ( 1.00)
 -----
     simplified LDA+U calculation, Hubbard_lmax = 2
     atomic species  L   Hubbard U  Hubbard alpha
        Co1          2    5.000000    0.000000
        La1          2    0.000000    0.000000
        O1           1    0.000000    0.000000
        O2           1    0.000000    0.000000
 -----

     No symmetry found


                                    s                        frac. trans.

      isym =  1     identity                                     

 cryst.   s( 1) = (     1          0          0      )
                  (     0          1          0      )
                  (     0          0          1      )

 cart.    s( 1) = (  1.0000000  0.0000000  0.0000000 )
                  (  0.0000000  1.0000000  0.0000000 )
                  (  0.0000000  0.0000000  1.0000000 )


     point group C_1 (1)    
     there are  1 classes
     the character table:

       E    
A      1.00

     the symmetry operations in each class:
     E        1

   Cartesian axes

     site n.     atom                  positions (alat units)
         1           Co1 tau(   1) = (   0.2228050  -0.1992639   1.0141240  )
         2           Co1 tau(   2) = (  -0.2831100   0.0928263   1.4199360  )
         3           La1 tau(   3) = (  -0.2831100   0.0928263   0.8112181  )
         4           La1 tau(   4) = (   0.2228050   0.3849164   1.2170300  )
         5           O1  tau(   5) = (   0.0000000   0.0000000   0.0000000  )
         6           O2  tau(   6) = (   0.0008601   0.1861491   1.6232478  )
         7           O2  tau(   7) = (   0.1616398   0.0923297   0.8116239  )
         8           O2  tau(   8) = (  -0.0603051  -0.1064377   1.2166242  )
         9           O2  tau(   9) = (   0.4447499  -0.0004966   1.2166242  )
        10           O2  tau(  10) = (  -0.2219449   0.3854130   1.2166242  )

   Crystallographic axes

     site n.     atom                  positions (cryst. coord.)
         1           Co1 tau(   1) = (  0.7504000  0.1891000  0.3100000  )
         2           Co1 tau(   2) = (  0.2504000  0.6891000  0.8100000  )
         3           La1 tau(   3) = (  0.0004000  0.4391000  0.5600000  )
         4           La1 tau(   4) = (  0.5004000  0.9391000  0.0600000  )
         5           O1  tau(   5) = (  0.0000000  0.0000000  0.0000000  )
         6           O2  tau(   6) = (  0.5613000  0.8791000  0.5596000  )
         7           O2  tau(   7) = (  0.4404000  0.4387000  0.1209000  )
         8           O2  tau(   8) = (  0.5008000  0.3782000  0.6200000  )
         9           O2  tau(   9) = (  0.9395000  0.4991000  0.0604000  )
        10           O2  tau(  10) = (  0.0604000  0.9395000  0.4991000  )

     number of k points=    36  gaussian smearing, width (Ry)=  0.0300
                       cart. coord. in units 2pi/alat
        k(    1) = (   0.0000000   0.0000000   0.0000000), wk =   0.0312500
        k(    2) = (  -0.2470771  -0.1426500   0.1026748), wk =   0.0625000
        k(    3) = (   0.4941541   0.2853000  -0.2053496), wk =   0.0312500
        k(    4) = (  -0.2470771   0.1426500   0.2053496), wk =   0.0625000
        k(    5) = (   0.4941541   0.5706001  -0.1026748), wk =   0.0625000
        k(    6) = (   0.2470771   0.4279500   0.0000000), wk =   0.0625000
        k(    7) = (   0.4941541  -0.2853000  -0.4106993), wk =   0.0312500
        k(    8) = (   0.0000000   0.0000000   0.3080244), wk =   0.0625000
        k(    9) = (   0.7412312   0.4279500   0.0000000), wk =   0.0625000
        k(   10) = (   0.4941541   0.2853000   0.1026748), wk =   0.0625000
        k(   11) = (   0.7412312  -0.4279500  -0.3080244), wk =   0.0625000
        k(   12) = (   0.4941541  -0.5706001  -0.2053496), wk =   0.0625000
        k(   13) = (   0.0000000   0.0000000  -0.6160489), wk =   0.0312500
        k(   14) = (  -0.2470771   0.1426500  -0.1026748), wk =   0.0625000
        k(   15) = (   0.0000000   0.2853000   0.1026748), wk =   0.0625000
        k(   16) = (   0.4941541  -0.2853000   0.2053496), wk =   0.0312500
        k(   17) = (   0.0000000  -0.5706001  -0.2053496), wk =   0.0312500
        k(   18) = (  -0.2470771  -0.1426500  -0.2053496), wk =   0.0625000
        k(   19) = (   0.0000000  -0.2853000   0.2053496), wk =   0.0625000
        k(   20) = (   0.4941541  -0.5706001   0.1026748), wk =   0.0625000
        k(   21) = (  -0.7412312   0.1426500  -0.1026748), wk =   0.0625000
        k(   22) = (   0.2470771  -0.7132501  -0.1026748), wk =   0.0625000
        k(   23) = (  -0.7412312  -0.1426500   0.1026748), wk =   0.0625000
        k(   24) = (   0.2470771   0.7132501   0.1026748), wk =   0.0625000
        k(   25) = (   0.2470771  -0.4279500   0.0000000), wk =   0.0625000
        k(   26) = (  -0.4941541   0.0000000   0.0000000), wk =   0.0625000
        k(   27) = (   0.4941541   0.2853000   0.4106993), wk =   0.0312500
        k(   28) = (   0.0000000   0.5706001  -0.4106993), wk =   0.0312500
        k(   29) = (   0.7412312  -0.4279500   0.0000000), wk =   0.0625000
        k(   30) = (   0.0000000  -0.8559001   0.0000000), wk =   0.0625000
        k(   31) = (   0.4941541  -0.2853000  -0.1026748), wk =   0.0625000
        k(   32) = (   0.0000000  -0.5706001   0.1026748), wk =   0.0625000
        k(   33) = (   0.7412312   0.4279500   0.3080244), wk =   0.0625000
        k(   34) = (   0.0000000   0.8559001  -0.3080244), wk =   0.0625000
        k(   35) = (   0.2470771   0.7132501  -0.2053496), wk =   0.0625000
        k(   36) = (  -0.7412312  -0.1426500  -0.2053496), wk =   0.0625000

                       cryst. coord.
        k(    1) = (   0.0000000   0.0000000   0.0000000), wk =   0.0312500
        k(    2) = (   0.0000000   0.0000000   0.2500000), wk =   0.0625000
        k(    3) = (   0.0000000   0.0000000  -0.5000000), wk =   0.0312500
        k(    4) = (   0.0000000   0.2500000   0.2500000), wk =   0.0625000
        k(    5) = (   0.0000000   0.2500000  -0.5000000), wk =   0.0625000
        k(    6) = (   0.0000000   0.2500000  -0.2500000), wk =   0.0625000
        k(    7) = (   0.0000000  -0.5000000  -0.5000000), wk =   0.0312500
        k(    8) = (   0.2500000   0.2500000   0.2500000), wk =   0.0625000
        k(    9) = (   0.2500000   0.2500000  -0.5000000), wk =   0.0625000
        k(   10) = (   0.2500000   0.2500000  -0.2500000), wk =   0.0625000
        k(   11) = (   0.2500000  -0.5000000  -0.5000000), wk =   0.0625000
        k(   12) = (   0.2500000  -0.5000000  -0.2500000), wk =   0.0625000
        k(   13) = (  -0.5000000  -0.5000000  -0.5000000), wk =   0.0312500
        k(   14) = (  -0.2500000   0.0000000   0.0000000), wk =   0.0625000
        k(   15) = (   0.0000000   0.2500000   0.0000000), wk =   0.0625000
        k(   16) = (   0.5000000   0.0000000   0.0000000), wk =   0.0312500
        k(   17) = (   0.0000000  -0.5000000   0.0000000), wk =   0.0312500
        k(   18) = (  -0.2500000  -0.2500000   0.0000000), wk =   0.0625000
        k(   19) = (   0.2500000   0.0000000   0.2500000), wk =   0.0625000
        k(   20) = (   0.5000000  -0.2500000   0.0000000), wk =   0.0625000
        k(   21) = (  -0.5000000   0.0000000   0.2500000), wk =   0.0625000
        k(   22) = (   0.2500000  -0.5000000   0.0000000), wk =   0.0625000
        k(   23) = (  -0.2500000   0.0000000   0.5000000), wk =   0.0625000
        k(   24) = (   0.0000000   0.5000000  -0.2500000), wk =   0.0625000
        k(   25) = (   0.2500000  -0.2500000   0.0000000), wk =   0.0625000
        k(   26) = (  -0.2500000   0.0000000   0.2500000), wk =   0.0625000
        k(   27) = (   0.5000000   0.5000000   0.0000000), wk =   0.0312500
        k(   28) = (  -0.5000000   0.0000000  -0.5000000), wk =   0.0312500
        k(   29) = (   0.5000000  -0.2500000  -0.2500000), wk =   0.0625000
        k(   30) = (   0.2500000  -0.5000000   0.2500000), wk =   0.0625000
        k(   31) = (   0.2500000  -0.2500000  -0.2500000), wk =   0.0625000
        k(   32) = (   0.2500000  -0.2500000   0.2500000), wk =   0.0625000
        k(   33) = (   0.5000000   0.5000000  -0.2500000), wk =   0.0625000
        k(   34) = (  -0.5000000   0.2500000  -0.5000000), wk =   0.0625000
        k(   35) = (  -0.2500000   0.2500000  -0.5000000), wk =   0.0625000
        k(   36) = (  -0.5000000  -0.2500000   0.2500000), wk =   0.0625000

     Dense  grid:    69617 G-vectors     FFT dimensions: (  60,  60,  60)

     Smooth grid:    17573 G-vectors     FFT dimensions: (  40,  40,  40)

     Largest allocated arrays     est. size (Mb)     dimensions
        Kohn-Sham Wavefunctions         0.79 Mb     (   1119,   46)
        Atomic wavefunctions            1.06 Mb     (   1119,   62)
        NL pseudopotentials             2.05 Mb     (   1119,  120)
        Each V/rho on FFT grid          1.65 Mb     ( 108000)
        Each G-vector array             0.27 Mb     (  34808)
        G-vector shells                 0.04 Mb     (   4682)
     Largest temporary arrays     est. size (Mb)     dimensions
        Auxiliary wavefunctions         3.14 Mb     (   1119,  184)
        Each subspace H/S matrix        0.52 Mb     ( 184, 184)
        Each <psi_i|beta_j> matrix      0.08 Mb     (    120,   46)
        Arrays for rho mixing          13.18 Mb     ( 108000,   8)

     Check: negative/imaginary core charge=   -0.000028    0.000000

     The initial density is read from file :
     /home/mcurnan/dft-course/Project1/example_LaCoO3/500/O/alpha/CoLaO_U500.save/charge-density.dat

 --- in v_hubbard ---
Hubbard energy    0.4785
 -------
     Number of +U iterations with fixed ns =  0
     Starting occupations:
 --- enter write_ns ---
 LDA+U parameters:
U( 1)     =  5.00000000
alpha( 1) =  0.00000000
U( 2)     =  0.00000000
alpha( 2) =  0.00000000
U( 3)     =  0.00000000
alpha( 3) =  0.00000000
U( 4)     =  0.00000000
alpha( 4) =  0.00000000
atom    1   Tr[ns(na)] =   8.02205
    eigenvalues: 
  0.596  0.596  0.938  0.941  0.941
    eigenvectors:
  0.000  0.000  1.000  0.000  0.000
  0.057  0.598  0.000  0.178  0.167
  0.598  0.057  0.000  0.167  0.178
  0.210  0.135  0.000  0.095  0.560
  0.135  0.210  0.000  0.560  0.095
    occupations:
  0.938  0.000  0.000  0.000  0.000
  0.000  0.715  0.000 -0.060  0.152
  0.000  0.000  0.715  0.152  0.060
  0.000 -0.060  0.152  0.822  0.000
  0.000  0.152  0.060  0.000  0.822
atom    2   Tr[ns(na)] =   8.02142
    eigenvalues: 
  0.595  0.595  0.938  0.941  0.941
    eigenvectors:
  0.000  0.000  1.000  0.000  0.000
  0.332  0.323  0.000  0.023  0.322
  0.323  0.332  0.000  0.322  0.023
  0.288  0.057  0.000  0.647  0.008
  0.057  0.288  0.000  0.008  0.647
    occupations:
  0.938  0.000  0.000  0.000  0.000
  0.000  0.715  0.000  0.060  0.153
  0.000  0.000  0.715  0.153 -0.060
  0.000  0.060  0.153  0.822  0.000
  0.000  0.153 -0.060  0.000  0.822
atom    3   Tr[ns(na)] =   3.80282
    eigenvalues: 
  0.355  0.355  0.384  0.403  0.403
    eigenvectors:
  0.000  0.000  1.000  0.000  0.000
  0.065  0.856  0.000  0.058  0.021
  0.856  0.065  0.000  0.021  0.058
  0.073  0.006  0.000  0.250  0.670
  0.006  0.073  0.000  0.670  0.250
    occupations:
  0.384  0.000  0.000  0.000  0.000
  0.000  0.359  0.000  0.000  0.013
  0.000  0.000  0.359  0.013  0.000
  0.000  0.000  0.013  0.399  0.000
  0.000  0.013  0.000  0.000  0.399
atom    4   Tr[ns(na)] =   3.80282
    eigenvalues: 
  0.355  0.355  0.384  0.403  0.403
    eigenvectors:
  0.000  0.000  1.000  0.000  0.000
  0.729  0.192  0.000  0.048  0.032
  0.192  0.729  0.000  0.032  0.048
  0.017  0.062  0.000  0.359  0.562
  0.062  0.017  0.000  0.562  0.359
    occupations:
  0.384  0.000  0.000  0.000  0.000
  0.000  0.359  0.000  0.000  0.013
  0.000  0.000  0.359  0.013  0.000
  0.000  0.000  0.013  0.399  0.000
  0.000  0.013  0.000  0.000  0.399
atom    5   Tr[ns(na)] =   5.43357
    eigenvalues: 
  0.846  0.929  0.941
    eigenvectors:
  0.340  0.000  0.660
  0.496  0.250  0.255
  0.164  0.750  0.086
    occupations:
  0.909 -0.039  0.022
 -0.039  0.891  0.022
  0.022  0.022  0.917
atom    6   Tr[ns(na)] =   5.43358
    eigenvalues: 
  0.846  0.929  0.941
    eigenvectors:
  0.340  0.000  0.660
  0.494  0.250  0.256
  0.166  0.750  0.085
    occupations:
  0.909  0.039  0.022
  0.039  0.891 -0.022
  0.022 -0.022  0.917
atom    7   Tr[ns(na)] =   5.43358
    eigenvalues: 
  0.846  0.929  0.941
    eigenvectors:
  0.340  0.000  0.660
  0.000  1.000  0.000
  0.660  0.000  0.340
    occupations:
  0.909  0.000 -0.045
  0.000  0.929  0.000
 -0.045  0.000  0.879
atom    8   Tr[ns(na)] =   5.43357
    eigenvalues: 
  0.846  0.929  0.941
    eigenvectors:
  0.340  0.000  0.660
  0.496  0.250  0.255
  0.164  0.750  0.086
    occupations:
  0.909 -0.039  0.022
 -0.039  0.891  0.022
  0.022  0.022  0.917
atom    9   Tr[ns(na)] =   5.43358
    eigenvalues: 
  0.846  0.929  0.941
    eigenvectors:
  0.340  0.000  0.660
  0.494  0.250  0.256
  0.166  0.750  0.085
    occupations:
  0.909  0.039  0.022
  0.039  0.891 -0.022
  0.022 -0.022  0.917
atom   10   Tr[ns(na)] =   5.43358
    eigenvalues: 
  0.846  0.929  0.941
    eigenvectors:
  0.340  0.000  0.660
  0.000  1.000  0.000
  0.660  0.000  0.340
    occupations:
  0.909  0.000 -0.045
  0.000  0.929  0.000
 -0.045  0.000  0.879
N of occupied +U levels =  56.2505796
 --- exit write_ns ---
 LDA+U Projector read from file 
     Starting wfc from file

     total cpu time spent up to now is        7.4 secs

     per-process dynamical memory:    62.8 Mb

     Self-consistent Calculation

     iteration #  1     ecut=    30.00 Ry     beta=0.20
     Davidson diagonalization with overlap
     c_bands:  1 eigenvalues not converged
     c_bands:  1 eigenvalues not converged
     c_bands:  1 eigenvalues not converged
     c_bands:  1 eigenvalues not converged
     c_bands:  1 eigenvalues not converged
     c_bands:  1 eigenvalues not converged
     c_bands:  1 eigenvalues not converged
     c_bands:  1 eigenvalues not converged
     c_bands:  1 eigenvalues not converged
     c_bands:  1 eigenvalues not converged
     c_bands:  1 eigenvalues not converged
     c_bands:  1 eigenvalues not converged
     c_bands:  1 eigenvalues not converged
     c_bands:  1 eigenvalues not converged
     c_bands:  1 eigenvalues not converged
     c_bands:  1 eigenvalues not converged
     ethr =  1.00E-10,  avg # of iterations = 17.0
 --- enter write_ns ---
 LDA+U parameters:
U( 1)     =  5.00000000
alpha( 1) =  0.00000000
U( 2)     =  0.00000000
alpha( 2) =  0.00000000
U( 3)     =  0.00000000
alpha( 3) =  0.00000000
U( 4)     =  0.00000000
alpha( 4) =  0.00000000
atom    1   Tr[ns(na)] =   8.22056
    eigenvalues: 
  0.567  0.567  0.991  0.991  0.994
    eigenvectors:
  0.000  0.000  0.000  0.000  1.000
  0.009  0.645  0.162  0.183  0.000
  0.645  0.009  0.183  0.162  0.000
  0.269  0.077  0.121  0.533  0.000
  0.077  0.269  0.533  0.121  0.000
    occupations:
  0.994  0.000  0.000  0.000  0.000
  0.000  0.714  0.000 -0.073  0.188
  0.000  0.000  0.714  0.188  0.073
  0.000 -0.073  0.188  0.844  0.000
  0.000  0.188  0.073  0.000  0.844
atom    2   Tr[ns(na)] =   8.21128
    eigenvalues: 
  0.565  0.565  0.991  0.991  0.994
    eigenvectors:
  0.000  0.000  0.000  0.000  1.000
  0.361  0.293  0.004  0.342  0.000
  0.293  0.361  0.342  0.004  0.000
  0.275  0.071  0.612  0.042  0.000
  0.071  0.275  0.042  0.612  0.000
    occupations:
  0.994  0.000  0.000  0.000  0.000
  0.000  0.712  0.000  0.073  0.189
  0.000  0.000  0.712  0.189 -0.073
  0.000  0.073  0.189  0.844  0.000
  0.000  0.189 -0.073  0.000  0.844
atom    3   Tr[ns(na)] =   3.79211
    eigenvalues: 
  0.356  0.356  0.381  0.401  0.401
    eigenvectors:
  0.000  0.000  1.000  0.000  0.000
  0.038  0.879  0.000  0.051  0.033
  0.879  0.038  0.000  0.033  0.051
  0.080  0.004  0.000  0.368  0.549
  0.004  0.080  0.000  0.549  0.368
    occupations:
  0.381  0.000  0.000  0.000  0.000
  0.000  0.360  0.000  0.000  0.013
  0.000  0.000  0.360  0.013  0.000
  0.000  0.000  0.013  0.398  0.000
  0.000  0.013  0.000  0.000  0.398
atom    4   Tr[ns(na)] =   3.79211
    eigenvalues: 
  0.356  0.356  0.381  0.401  0.401
    eigenvectors:
  0.000  0.000  1.000  0.000  0.000
  0.707  0.209  0.000  0.052  0.031
  0.209  0.707  0.000  0.031  0.052
  0.020  0.064  0.000  0.348  0.568
  0.064  0.020  0.000  0.568  0.348
    occupations:
  0.381  0.000  0.000  0.000  0.000
  0.000  0.360  0.000  0.000  0.013
  0.000  0.000  0.360  0.013  0.000
  0.000  0.000  0.013  0.398  0.000
  0.000  0.013  0.000  0.000  0.398
atom    5   Tr[ns(na)] =   5.38521
    eigenvalues: 
  0.825  0.923  0.944
    eigenvectors:
  0.341  0.000  0.659
  0.495  0.250  0.255
  0.164  0.750  0.086
    occupations:
  0.904 -0.049  0.028
 -0.049  0.880  0.025
  0.028  0.025  0.909
atom    6   Tr[ns(na)] =   5.38522
    eigenvalues: 
  0.825  0.923  0.944
    eigenvectors:
  0.341  0.000  0.659
  0.494  0.250  0.256
  0.165  0.750  0.085
    occupations:
  0.904  0.049  0.028
  0.049  0.880 -0.025
  0.028 -0.025  0.909
atom    7   Tr[ns(na)] =   5.38522
    eigenvalues: 
  0.825  0.923  0.944
    eigenvectors:
  0.341  0.000  0.659
  0.000  1.000  0.000
  0.659  0.000  0.341
    occupations:
  0.904  0.000 -0.057
  0.000  0.923  0.000
 -0.057  0.000  0.866
atom    8   Tr[ns(na)] =   5.38521
    eigenvalues: 
  0.825  0.923  0.944
    eigenvectors:
  0.341  0.000  0.659
  0.495  0.250  0.255
  0.164  0.750  0.086
    occupations:
  0.904 -0.049  0.028
 -0.049  0.880  0.025
  0.028  0.025  0.909
atom    9   Tr[ns(na)] =   5.38522
    eigenvalues: 
  0.825  0.923  0.944
    eigenvectors:
  0.341  0.000  0.659
  0.494  0.250  0.256
  0.165  0.750  0.085
    occupations:
  0.904  0.049  0.028
  0.049  0.880 -0.025
  0.028 -0.025  0.909
atom   10   Tr[ns(na)] =   5.38522
    eigenvalues: 
  0.825  0.923  0.944
    eigenvectors:
  0.341  0.000  0.659
  0.000  1.000  0.000
  0.659  0.000  0.341
    occupations:
  0.904  0.000 -0.057
  0.000  0.923  0.000
 -0.057  0.000  0.866
N of occupied +U levels =  56.3273579
 --- exit write_ns ---
 --- in v_hubbard ---
Hubbard energy    0.4596
 -------

     total cpu time spent up to now is       88.8 secs

     total energy              =    -537.90568082 Ry
     Harris-Foulkes estimate   =    -537.91605059 Ry
     estimated scf accuracy    <       0.05045497 Ry

     iteration #  2     ecut=    30.00 Ry     beta=0.20
     Davidson diagonalization with overlap
     ethr =  6.64E-05,  avg # of iterations =  1.9
 --- enter write_ns ---
 LDA+U parameters:
U( 1)     =  5.00000000
alpha( 1) =  0.00000000
U( 2)     =  0.00000000
alpha( 2) =  0.00000000
U( 3)     =  0.00000000
alpha( 3) =  0.00000000
U( 4)     =  0.00000000
alpha( 4) =  0.00000000
atom    1   Tr[ns(na)] =   8.02426
    eigenvalues: 
  0.516  0.516  0.992  0.992  0.995
    eigenvectors:
  0.000  0.000  0.000  0.000  1.000
  0.036  0.619  0.105  0.240  0.000
  0.619  0.036  0.240  0.105  0.000
  0.230  0.115  0.628  0.027  0.000
  0.115  0.230  0.027  0.628  0.000
    occupations:
  0.995  0.000  0.000  0.000  0.000
  0.000  0.680  0.000 -0.083  0.210
  0.000  0.000  0.680  0.210  0.083
  0.000 -0.083  0.210  0.828  0.000
  0.000  0.210  0.083  0.000  0.828
atom    2   Tr[ns(na)] =   8.02659
    eigenvalues: 
  0.516  0.516  0.993  0.993  0.996
    eigenvectors:
  0.000  0.000  0.000  0.000  1.000
  0.461  0.194  0.089  0.255  0.000
  0.194  0.461  0.255  0.089  0.000
  0.229  0.116  0.639  0.016  0.000
  0.116  0.229  0.016  0.639  0.000
    occupations:
  0.996  0.000  0.000  0.000  0.000
  0.000  0.680  0.000  0.083  0.211
  0.000  0.000  0.680  0.211 -0.083
  0.000  0.083  0.211  0.828  0.000
  0.000  0.211 -0.083  0.000  0.828
atom    3   Tr[ns(na)] =   3.78800
    eigenvalues: 
  0.355  0.355  0.381  0.401  0.401
    eigenvectors:
  0.000  0.000  1.000  0.000  0.000
  0.046  0.874  0.000  0.079  0.001
  0.874  0.046  0.000  0.001  0.079
  0.076  0.004  0.000  0.017  0.903
  0.004  0.076  0.000  0.903  0.017
    occupations:
  0.381  0.000  0.000  0.000  0.000
  0.000  0.359  0.000  0.000  0.013
  0.000  0.000  0.359  0.013  0.000
  0.000  0.000  0.013  0.398  0.000
  0.000  0.013  0.000  0.000  0.398
atom    4   Tr[ns(na)] =   3.78801
    eigenvalues: 
  0.355  0.355  0.381  0.401  0.401
    eigenvectors:
  0.000  0.000  1.000  0.000  0.000
  0.301  0.619  0.000  0.079  0.001
  0.619  0.301  0.000  0.001  0.079
  0.054  0.026  0.000  0.013  0.907
  0.026  0.054  0.000  0.907  0.013
    occupations:
  0.381  0.000  0.000  0.000  0.000
  0.000  0.359  0.000  0.000  0.013
  0.000  0.000  0.359  0.013  0.000
  0.000  0.000  0.013  0.398  0.000
  0.000  0.013  0.000  0.000  0.398
atom    5   Tr[ns(na)] =   5.44589
    eigenvalues: 
  0.843  0.932  0.949
    eigenvectors:
  0.336  0.000  0.664
  0.497  0.252  0.251
  0.167  0.748  0.085
    occupations:
  0.913 -0.043  0.025
 -0.043  0.892  0.023
  0.025  0.023  0.918
atom    6   Tr[ns(na)] =   5.44590
    eigenvalues: 
  0.843  0.932  0.949
    eigenvectors:
  0.336  0.000  0.664
  0.499  0.248  0.253
  0.165  0.752  0.083
    occupations:
  0.913  0.043  0.025
  0.043  0.891 -0.023
  0.025 -0.023  0.918
atom    7   Tr[ns(na)] =   5.44590
    eigenvalues: 
  0.843  0.932  0.949
    eigenvectors:
  0.336  0.000  0.664
  0.000  1.000  0.000
  0.664  0.000  0.336
    occupations:
  0.913  0.000 -0.050
  0.000  0.932  0.000
 -0.050  0.000  0.878
atom    8   Tr[ns(na)] =   5.44589
    eigenvalues: 
  0.843  0.932  0.949
    eigenvectors:
  0.336  0.000  0.664
  0.497  0.252  0.251
  0.167  0.748  0.085
    occupations:
  0.913 -0.043  0.025
 -0.043  0.892  0.023
  0.025  0.023  0.918
atom    9   Tr[ns(na)] =   5.44590
    eigenvalues: 
  0.843  0.932  0.949
    eigenvectors:
  0.336  0.000  0.664
  0.499  0.248  0.253
  0.165  0.752  0.083
    occupations:
  0.913  0.043  0.025
  0.043  0.891 -0.023
  0.025 -0.023  0.918
atom   10   Tr[ns(na)] =   5.44590
    eigenvalues: 
  0.843  0.932  0.949
    eigenvectors:
  0.336  0.000  0.664
  0.000  1.000  0.000
  0.664  0.000  0.336
    occupations:
  0.913  0.000 -0.050
  0.000  0.932  0.000
 -0.050  0.000  0.878
N of occupied +U levels =  56.3022263
 --- exit write_ns ---
 --- in v_hubbard ---
Hubbard energy    0.4515
 -------

     total cpu time spent up to now is      112.3 secs

     total energy              =    -537.91567508 Ry
     Harris-Foulkes estimate   =    -537.91549660 Ry
     estimated scf accuracy    <       0.03164943 Ry

     iteration #  3     ecut=    30.00 Ry     beta=0.20
     Davidson diagonalization with overlap
     ethr =  4.16E-05,  avg # of iterations =  1.0
 --- enter write_ns ---
 LDA+U parameters:
U( 1)     =  5.00000000
alpha( 1) =  0.00000000
U( 2)     =  0.00000000
alpha( 2) =  0.00000000
U( 3)     =  0.00000000
alpha( 3) =  0.00000000
U( 4)     =  0.00000000
alpha( 4) =  0.00000000
atom    1   Tr[ns(na)] =   8.06632
    eigenvalues: 
  0.527  0.527  0.992  0.992  0.995
    eigenvectors:
  0.000  0.000  0.000  0.000  1.000
  0.022  0.634  0.056  0.288  0.000
  0.634  0.022  0.288  0.056  0.000
  0.247  0.097  0.323  0.333  0.000
  0.097  0.247  0.333  0.323  0.000
    occupations:
  0.995  0.000  0.000  0.000  0.000
  0.000  0.687  0.000 -0.082  0.206
  0.000  0.000  0.687  0.206  0.082
  0.000 -0.082  0.206  0.832  0.000
  0.000  0.206  0.082  0.000  0.832
atom    2   Tr[ns(na)] =   8.06276
    eigenvalues: 
  0.525  0.525  0.993  0.993  0.996
    eigenvectors:
  0.000  0.000  0.000  0.000  1.000
  0.431  0.224  0.074  0.271  0.000
  0.224  0.431  0.271  0.074  0.000
  0.244  0.101  0.648  0.007  0.000
  0.101  0.244  0.007  0.648  0.000
    occupations:
  0.996  0.000  0.000  0.000  0.000
  0.000  0.686  0.000  0.081  0.207
  0.000  0.000  0.686  0.207 -0.081
  0.000  0.081  0.207  0.832  0.000
  0.000  0.207 -0.081  0.000  0.832
atom    3   Tr[ns(na)] =   3.78869
    eigenvalues: 
  0.355  0.355  0.381  0.401  0.401
    eigenvectors:
  0.000  0.000  1.000  0.000  0.000
  0.000  0.920  0.000  0.079  0.001
  0.920  0.000  0.000  0.001  0.079
  0.080  0.000  0.000  0.012  0.908
  0.000  0.080  0.000  0.908  0.012
    occupations:
  0.381  0.000  0.000  0.000  0.000
  0.000  0.359  0.000  0.000  0.012
  0.000  0.000  0.359  0.012  0.000
  0.000  0.000  0.012  0.398  0.000
  0.000  0.012  0.000  0.000  0.398
atom    4   Tr[ns(na)] =   3.78869
    eigenvalues: 
  0.355  0.355  0.381  0.401  0.401
    eigenvectors:
  0.000  0.000  1.000  0.000  0.000
  0.495  0.425  0.000  0.080  0.000
  0.425  0.495  0.000  0.000  0.080
  0.038  0.042  0.000  0.000  0.920
  0.042  0.038  0.000  0.920  0.000
    occupations:
  0.381  0.000  0.000  0.000  0.000
  0.000  0.359  0.000  0.000  0.012
  0.000  0.000  0.359  0.012  0.000
  0.000  0.000  0.012  0.398  0.000
  0.000  0.012  0.000  0.000  0.398
atom    5   Tr[ns(na)] =   5.43349
    eigenvalues: 
  0.839  0.930  0.948
    eigenvectors:
  0.337  0.000  0.663
  0.497  0.251  0.252
  0.166  0.749  0.085
    occupations:
  0.911 -0.045  0.026
 -0.045  0.889  0.024
  0.026  0.024  0.916
atom    6   Tr[ns(na)] =   5.43350
    eigenvalues: 
  0.839  0.930  0.948
    eigenvectors:
  0.337  0.000  0.663
  0.498  0.249  0.253
  0.165  0.751  0.084
    occupations:
  0.911  0.045  0.026
  0.045  0.889 -0.024
  0.026 -0.024  0.916
atom    7   Tr[ns(na)] =   5.43350
    eigenvalues: 
  0.839  0.930  0.948
    eigenvectors:
  0.337  0.000  0.663
  0.000  1.000  0.000
  0.663  0.000  0.337
    occupations:
  0.911  0.000 -0.052
  0.000  0.930  0.000
 -0.052  0.000  0.876
atom    8   Tr[ns(na)] =   5.43349
    eigenvalues: 
  0.839  0.930  0.948
    eigenvectors:
  0.337  0.000  0.663
  0.497  0.251  0.252
  0.166  0.749  0.085
    occupations:
  0.911 -0.045  0.026
 -0.045  0.889  0.024
  0.026  0.024  0.916
atom    9   Tr[ns(na)] =   5.43350
    eigenvalues: 
  0.839  0.930  0.948
    eigenvectors:
  0.337  0.000  0.663
  0.498  0.249  0.253
  0.165  0.751  0.084
    occupations:
  0.911  0.045  0.026
  0.045  0.889 -0.024
  0.026 -0.024  0.916
atom   10   Tr[ns(na)] =   5.43350
    eigenvalues: 
  0.839  0.930  0.948
    eigenvectors:
  0.337  0.000  0.663
  0.000  1.000  0.000
  0.663  0.000  0.337
    occupations:
  0.911  0.000 -0.052
  0.000  0.930  0.000
 -0.052  0.000  0.876
N of occupied +U levels =  56.3074309
 --- exit write_ns ---
 --- in v_hubbard ---
Hubbard energy    0.3756
 -------

     total cpu time spent up to now is      134.6 secs

     total energy              =    -537.92133989 Ry
     Harris-Foulkes estimate   =    -537.91629537 Ry
     estimated scf accuracy    <       0.01509458 Ry

     iteration #  4     ecut=    30.00 Ry     beta=0.20
     Davidson diagonalization with overlap
     ethr =  1.99E-05,  avg # of iterations =  1.9
 --- enter write_ns ---
 LDA+U parameters:
U( 1)     =  5.00000000
alpha( 1) =  0.00000000
U( 2)     =  0.00000000
alpha( 2) =  0.00000000
U( 3)     =  0.00000000
alpha( 3) =  0.00000000
U( 4)     =  0.00000000
alpha( 4) =  0.00000000
atom    1   Tr[ns(na)] =   8.06626
    eigenvalues: 
  0.523  0.523  0.995  0.995  0.997
    eigenvectors:
  0.000  0.000  0.000  0.000  1.000
  0.028  0.631  0.165  0.176  0.000
  0.631  0.028  0.176  0.165  0.000
  0.236  0.105  0.109  0.550  0.000
  0.105  0.236  0.550  0.109  0.000
    occupations:
  0.997  0.000  0.000  0.000  0.000
  0.000  0.684  0.000 -0.083  0.207
  0.000  0.000  0.684  0.207  0.083
  0.000 -0.083  0.207  0.834  0.000
  0.000  0.207  0.083  0.000  0.834
atom    2   Tr[ns(na)] =   8.07954
    eigenvalues: 
  0.526  0.526  0.995  0.995  0.998
    eigenvectors:
  0.000  0.000  0.000  0.000  1.000
  0.392  0.267  0.031  0.310  0.000
  0.267  0.392  0.310  0.031  0.000
  0.263  0.078  0.394  0.265  0.000
  0.078  0.263  0.265  0.394  0.000
    occupations:
  0.998  0.000  0.000  0.000  0.000
  0.000  0.686  0.000  0.083  0.207
  0.000  0.000  0.686  0.207 -0.083
  0.000  0.083  0.207  0.835  0.000
  0.000  0.207 -0.083  0.000  0.835
atom    3   Tr[ns(na)] =   3.79765
    eigenvalues: 
  0.357  0.357  0.381  0.402  0.402
    eigenvectors:
  0.000  0.000  1.000  0.000  0.000
  0.808  0.115  0.000  0.001  0.076
  0.115  0.808  0.000  0.076  0.001
  0.009  0.068  0.000  0.905  0.017
  0.068  0.009  0.000  0.017  0.905
    occupations:
  0.381  0.000  0.000  0.000  0.000
  0.000  0.360  0.000  0.000  0.012
  0.000  0.000  0.360  0.012  0.000
  0.000  0.000  0.012  0.398  0.000
  0.000  0.012  0.000  0.000  0.398
atom    4   Tr[ns(na)] =   3.79765
    eigenvalues: 
  0.357  0.357  0.381  0.402  0.402
    eigenvectors:
  0.000  0.000  1.000  0.000  0.000
  0.919  0.003  0.000  0.003  0.075
  0.003  0.919  0.000  0.075  0.003
  0.000  0.077  0.000  0.890  0.033
  0.077  0.000  0.000  0.033  0.890
    occupations:
  0.381  0.000  0.000  0.000  0.000
  0.000  0.360  0.000  0.000  0.012
  0.000  0.000  0.360  0.012  0.000
  0.000  0.000  0.012  0.398  0.000
  0.000  0.012  0.000  0.000  0.398
atom    5   Tr[ns(na)] =   5.42603
    eigenvalues: 
  0.837  0.929  0.947
    eigenvectors:
  0.337  0.000  0.663
  0.495  0.253  0.252
  0.168  0.747  0.085
    occupations:
  0.910 -0.045  0.026
 -0.045  0.888  0.024
  0.026  0.024  0.915
atom    6   Tr[ns(na)] =   5.42605
    eigenvalues: 
  0.837  0.929  0.947
    eigenvectors:
  0.337  0.000  0.663
  0.500  0.247  0.254
  0.163  0.753  0.083
    occupations:
  0.910  0.045  0.026
  0.045  0.887 -0.024
  0.026 -0.024  0.916
atom    7   Tr[ns(na)] =   5.42605
    eigenvalues: 
  0.837  0.929  0.947
    eigenvectors:
  0.337  0.000  0.663
  0.000  1.000  0.000
  0.663  0.000  0.337
    occupations:
  0.910  0.000 -0.052
  0.000  0.929  0.000
 -0.052  0.000  0.874
atom    8   Tr[ns(na)] =   5.42604
    eigenvalues: 
  0.837  0.929  0.947
    eigenvectors:
  0.337  0.000  0.663
  0.495  0.253  0.252
  0.168  0.747  0.085
    occupations:
  0.910 -0.045  0.026
 -0.045  0.888  0.024
  0.026  0.024  0.915
atom    9   Tr[ns(na)] =   5.42605
    eigenvalues: 
  0.837  0.929  0.947
    eigenvectors:
  0.337  0.000  0.663
  0.500  0.247  0.254
  0.163  0.753  0.083
    occupations:
  0.910  0.045  0.026
  0.045  0.887 -0.024
  0.026 -0.024  0.916
atom   10   Tr[ns(na)] =   5.42605
    eigenvalues: 
  0.837  0.929  0.947
    eigenvectors:
  0.337  0.000  0.663
  0.000  1.000  0.000
  0.663  0.000  0.337
    occupations:
  0.910  0.000 -0.052
  0.000  0.929  0.000
 -0.052  0.000  0.874
N of occupied +U levels =  56.2973686
 --- exit write_ns ---
 --- in v_hubbard ---
Hubbard energy    0.3737
 -------

     total cpu time spent up to now is      158.6 secs

     total energy              =    -537.92258649 Ry
     Harris-Foulkes estimate   =    -537.92257236 Ry
     estimated scf accuracy    <       0.00122062 Ry

     iteration #  5     ecut=    30.00 Ry     beta=0.20
     Davidson diagonalization with overlap
     ethr =  1.61E-06,  avg # of iterations =  2.0
 --- enter write_ns ---
 LDA+U parameters:
U( 1)     =  5.00000000
alpha( 1) =  0.00000000
U( 2)     =  0.00000000
alpha( 2) =  0.00000000
U( 3)     =  0.00000000
alpha( 3) =  0.00000000
U( 4)     =  0.00000000
alpha( 4) =  0.00000000
atom    1   Tr[ns(na)] =   8.06325
    eigenvalues: 
  0.522  0.522  0.995  0.995  0.998
    eigenvectors:
  0.000  0.000  0.000  0.000  1.000
  0.024  0.635  0.214  0.127  0.000
  0.635  0.024  0.127  0.214  0.000
  0.241  0.101  0.048  0.611  0.000
  0.101  0.241  0.611  0.048  0.000
    occupations:
  0.998  0.000  0.000  0.000  0.000
  0.000  0.684  0.000 -0.084  0.208
  0.000  0.000  0.684  0.208  0.084
  0.000 -0.084  0.208  0.833  0.000
  0.000  0.208  0.084  0.000  0.833
atom    2   Tr[ns(na)] =   8.05894
    eigenvalues: 
  0.521  0.521  0.995  0.995  0.998
    eigenvectors:
  0.000  0.000  0.000  0.000  1.000
  0.394  0.265  0.005  0.336  0.000
  0.265  0.394  0.336  0.005  0.000
  0.262  0.079  0.504  0.155  0.000
  0.079  0.262  0.155  0.504  0.000
    occupations:
  0.998  0.000  0.000  0.000  0.000
  0.000  0.683  0.000  0.084  0.209
  0.000  0.000  0.683  0.209 -0.084
  0.000  0.084  0.209  0.833  0.000
  0.000  0.209 -0.084  0.000  0.833
atom    3   Tr[ns(na)] =   3.79754
    eigenvalues: 
  0.357  0.357  0.382  0.402  0.402
    eigenvectors:
  0.000  0.000  1.000  0.000  0.000
  0.713  0.209  0.000  0.001  0.077
  0.209  0.713  0.000  0.077  0.001
  0.017  0.061  0.000  0.912  0.010
  0.061  0.017  0.000  0.010  0.912
    occupations:
  0.382  0.000  0.000  0.000  0.000
  0.000  0.360  0.000  0.000  0.012
  0.000  0.000  0.360  0.012  0.000
  0.000  0.000  0.012  0.398  0.000
  0.000  0.012  0.000  0.000  0.398
atom    4   Tr[ns(na)] =   3.79753
    eigenvalues: 
  0.357  0.357  0.382  0.402  0.402
    eigenvectors:
  0.000  0.000  1.000  0.000  0.000
  0.841  0.081  0.000  0.005  0.073
  0.081  0.841  0.000  0.073  0.005
  0.007  0.071  0.000  0.854  0.068
  0.071  0.007  0.000  0.068  0.854
    occupations:
  0.382  0.000  0.000  0.000  0.000
  0.000  0.360  0.000  0.000  0.012
  0.000  0.000  0.360  0.012  0.000
  0.000  0.000  0.012  0.398  0.000
  0.000  0.012  0.000  0.000  0.398
atom    5   Tr[ns(na)] =   5.42952
    eigenvalues: 
  0.838  0.930  0.947
    eigenvectors:
  0.337  0.000  0.663
  0.497  0.251  0.252
  0.166  0.749  0.085
    occupations:
  0.910 -0.045  0.026
 -0.045  0.888  0.024
  0.026  0.024  0.916
atom    6   Tr[ns(na)] =   5.42953
    eigenvalues: 
  0.838  0.930  0.947
    eigenvectors:
  0.337  0.000  0.663
  0.498  0.249  0.253
  0.165  0.751  0.084
    occupations:
  0.910  0.045  0.026
  0.045  0.888 -0.024
  0.026 -0.024  0.916
atom    7   Tr[ns(na)] =   5.42953
    eigenvalues: 
  0.838  0.930  0.947
    eigenvectors:
  0.337  0.000  0.663
  0.000  1.000  0.000
  0.663  0.000  0.337
    occupations:
  0.910  0.000 -0.052
  0.000  0.930  0.000
 -0.052  0.000  0.875
atom    8   Tr[ns(na)] =   5.42952
    eigenvalues: 
  0.838  0.930  0.947
    eigenvectors:
  0.337  0.000  0.663
  0.497  0.251  0.252
  0.166  0.749  0.085
    occupations:
  0.910 -0.045  0.026
 -0.045  0.888  0.024
  0.026  0.024  0.916
atom    9   Tr[ns(na)] =   5.42953
    eigenvalues: 
  0.838  0.930  0.947
    eigenvectors:
  0.337  0.000  0.663
  0.498  0.249  0.253
  0.165  0.751  0.084
    occupations:
  0.910  0.045  0.026
  0.045  0.888 -0.024
  0.026 -0.024  0.916
atom   10   Tr[ns(na)] =   5.42953
    eigenvalues: 
  0.838  0.930  0.947
    eigenvectors:
  0.337  0.000  0.663
  0.000  1.000  0.000
  0.663  0.000  0.337
    occupations:
  0.910  0.000 -0.052
  0.000  0.930  0.000
 -0.052  0.000  0.875
N of occupied +U levels =  56.2944304
 --- exit write_ns ---
 --- in v_hubbard ---
Hubbard energy    0.3732
 -------

     total cpu time spent up to now is      183.5 secs

     total energy              =    -537.92274968 Ry
     Harris-Foulkes estimate   =    -537.92269419 Ry
     estimated scf accuracy    <       0.00033244 Ry

     iteration #  6     ecut=    30.00 Ry     beta=0.20
     Davidson diagonalization with overlap
     ethr =  4.37E-07,  avg # of iterations =  1.0
 --- enter write_ns ---
 LDA+U parameters:
U( 1)     =  5.00000000
alpha( 1) =  0.00000000
U( 2)     =  0.00000000
alpha( 2) =  0.00000000
U( 3)     =  0.00000000
alpha( 3) =  0.00000000
U( 4)     =  0.00000000
alpha( 4) =  0.00000000
atom    1   Tr[ns(na)] =   8.05068
    eigenvalues: 
  0.519  0.519  0.995  0.995  0.998
    eigenvectors:
  0.000  0.000  0.000  0.000  1.000
  0.017  0.641  0.228  0.114  0.000
  0.641  0.017  0.114  0.228  0.000
  0.249  0.092  0.034  0.624  0.000
  0.092  0.249  0.624  0.034  0.000
    occupations:
  0.998  0.000  0.000  0.000  0.000
  0.000  0.681  0.000 -0.085  0.209
  0.000  0.000  0.681  0.209  0.085
  0.000 -0.085  0.209  0.832  0.000
  0.000  0.209  0.085  0.000  0.832
atom    2   Tr[ns(na)] =   8.04934
    eigenvalues: 
  0.518  0.518  0.995  0.995  0.998
    eigenvectors:
  0.000  0.000  0.000  0.000  1.000
  0.398  0.260  0.001  0.341  0.000
  0.260  0.398  0.341  0.001  0.000
  0.260  0.081  0.586  0.072  0.000
  0.081  0.260  0.072  0.586  0.000
    occupations:
  0.998  0.000  0.000  0.000  0.000
  0.000  0.681  0.000  0.084  0.210
  0.000  0.000  0.681  0.210 -0.084
  0.000  0.084  0.210  0.832  0.000
  0.000  0.210 -0.084  0.000  0.832
atom    3   Tr[ns(na)] =   3.79577
    eigenvalues: 
  0.356  0.356  0.381  0.402  0.402
    eigenvectors:
  0.000  0.000  1.000  0.000  0.000
  0.000  0.922  0.000  0.064  0.014
  0.922  0.000  0.000  0.014  0.064
  0.078  0.000  0.000  0.175  0.747
  0.000  0.078  0.000  0.747  0.175
    occupations:
  0.381  0.000  0.000  0.000  0.000
  0.000  0.360  0.000  0.000  0.012
  0.000  0.000  0.360  0.012  0.000
  0.000  0.000  0.012  0.398  0.000
  0.000  0.012  0.000  0.000  0.398
atom    4   Tr[ns(na)] =   3.79577
    eigenvalues: 
  0.356  0.356  0.381  0.402  0.402
    eigenvectors:
  0.000  0.000  1.000  0.000  0.000
  0.662  0.259  0.000  0.069  0.009
  0.259  0.662  0.000  0.009  0.069
  0.023  0.056  0.000  0.114  0.808
  0.056  0.023  0.000  0.808  0.114
    occupations:
  0.381  0.000  0.000  0.000  0.000
  0.000  0.360  0.000  0.000  0.012
  0.000  0.000  0.360  0.012  0.000
  0.000  0.000  0.012  0.398  0.000
  0.000  0.012  0.000  0.000  0.398
atom    5   Tr[ns(na)] =   5.43328
    eigenvalues: 
  0.839  0.930  0.948
    eigenvectors:
  0.337  0.000  0.663
  0.497  0.251  0.252
  0.167  0.749  0.085
    occupations:
  0.911 -0.045  0.026
 -0.045  0.889  0.024
  0.026  0.024  0.916
atom    6   Tr[ns(na)] =   5.43329
    eigenvalues: 
  0.839  0.930  0.948
    eigenvectors:
  0.337  0.000  0.663
  0.498  0.249  0.253
  0.165  0.751  0.084
    occupations:
  0.911  0.045  0.026
  0.045  0.889 -0.024
  0.026 -0.024  0.917
atom    7   Tr[ns(na)] =   5.43329
    eigenvalues: 
  0.839  0.930  0.948
    eigenvectors:
  0.337  0.000  0.663
  0.000  1.000  0.000
  0.663  0.000  0.337
    occupations:
  0.911  0.000 -0.052
  0.000  0.930  0.000
 -0.052  0.000  0.875
atom    8   Tr[ns(na)] =   5.43328
    eigenvalues: 
  0.839  0.930  0.948
    eigenvectors:
  0.337  0.000  0.663
  0.497  0.251  0.252
  0.167  0.749  0.085
    occupations:
  0.911 -0.045  0.026
 -0.045  0.889  0.024
  0.026  0.024  0.916
atom    9   Tr[ns(na)] =   5.43329
    eigenvalues: 
  0.839  0.930  0.948
    eigenvectors:
  0.337  0.000  0.663
  0.498  0.249  0.253
  0.165  0.751  0.084
    occupations:
  0.911  0.045  0.026
  0.045  0.889 -0.024
  0.026 -0.024  0.917
atom   10   Tr[ns(na)] =   5.43329
    eigenvalues: 
  0.839  0.930  0.948
    eigenvectors:
  0.337  0.000  0.663
  0.000  1.000  0.000
  0.663  0.000  0.337
    occupations:
  0.911  0.000 -0.052
  0.000  0.930  0.000
 -0.052  0.000  0.875
N of occupied +U levels =  56.2912634
 --- exit write_ns ---
 --- in v_hubbard ---
Hubbard energy    0.3742
 -------

     total cpu time spent up to now is      205.6 secs

     total energy              =    -537.92285448 Ry
     Harris-Foulkes estimate   =    -537.92278725 Ry
     estimated scf accuracy    <       0.00009381 Ry

     iteration #  7     ecut=    30.00 Ry     beta=0.20
     Davidson diagonalization with overlap
     ethr =  1.23E-07,  avg # of iterations =  2.1
 --- enter write_ns ---
 LDA+U parameters:
U( 1)     =  5.00000000
alpha( 1) =  0.00000000
U( 2)     =  0.00000000
alpha( 2) =  0.00000000
U( 3)     =  0.00000000
alpha( 3) =  0.00000000
U( 4)     =  0.00000000
alpha( 4) =  0.00000000
atom    1   Tr[ns(na)] =   8.04721
    eigenvalues: 
  0.518  0.518  0.995  0.995  0.998
    eigenvectors:
  0.000  0.000  0.000  0.000  1.000
  0.013  0.646  0.177  0.165  0.000
  0.646  0.013  0.165  0.177  0.000
  0.256  0.086  0.091  0.567  0.000
  0.086  0.256  0.567  0.091  0.000
    occupations:
  0.998  0.000  0.000  0.000  0.000
  0.000  0.681  0.000 -0.085  0.210
  0.000  0.000  0.681  0.210  0.085
  0.000 -0.085  0.210  0.832  0.000
  0.000  0.210  0.085  0.000  0.832
atom    2   Tr[ns(na)] =   8.04463
    eigenvalues: 
  0.517  0.517  0.995  0.995  0.998
    eigenvectors:
  0.000  0.000  0.000  0.000  1.000
  0.392  0.266  0.004  0.338  0.000
  0.266  0.392  0.338  0.004  0.000
  0.264  0.078  0.610  0.048  0.000
  0.078  0.264  0.048  0.610  0.000
    occupations:
  0.998  0.000  0.000  0.000  0.000
  0.000  0.680  0.000  0.085  0.211
  0.000  0.000  0.680  0.211 -0.085
  0.000  0.085  0.211  0.832  0.000
  0.000  0.211 -0.085  0.000  0.832
atom    3   Tr[ns(na)] =   3.79073
    eigenvalues: 
  0.356  0.356  0.381  0.401  0.401
    eigenvectors:
  0.000  0.000  1.000  0.000  0.000
  0.007  0.914  0.000  0.070  0.009
  0.914  0.007  0.000  0.009  0.070
  0.078  0.001  0.000  0.112  0.809
  0.001  0.078  0.000  0.809  0.112
    occupations:
  0.381  0.000  0.000  0.000  0.000
  0.000  0.359  0.000  0.000  0.012
  0.000  0.000  0.359  0.012  0.000
  0.000  0.000  0.012  0.398  0.000
  0.000  0.012  0.000  0.000  0.398
atom    4   Tr[ns(na)] =   3.79072
    eigenvalues: 
  0.356  0.356  0.381  0.401  0.401
    eigenvectors:
  0.000  0.000  1.000  0.000  0.000
  0.667  0.254  0.000  0.079  0.000
  0.254  0.667  0.000  0.000  0.079
  0.022  0.057  0.000  0.001  0.920
  0.057  0.022  0.000  0.920  0.001
    occupations:
  0.381  0.000  0.000  0.000  0.000
  0.000  0.359  0.000  0.000  0.012
  0.000  0.000  0.359  0.012  0.000
  0.000  0.000  0.012  0.398  0.000
  0.000  0.012  0.000  0.000  0.398
atom    5   Tr[ns(na)] =   5.43556
    eigenvalues: 
  0.839  0.930  0.948
    eigenvectors:
  0.337  0.000  0.663
  0.497  0.251  0.252
  0.166  0.749  0.085
    occupations:
  0.911 -0.045  0.026
 -0.045  0.890  0.024
  0.026  0.024  0.917
atom    6   Tr[ns(na)] =   5.43557
    eigenvalues: 
  0.839  0.930  0.948
    eigenvectors:
  0.337  0.000  0.663
  0.498  0.249  0.253
  0.165  0.751  0.084
    occupations:
  0.911  0.045  0.026
  0.045  0.889 -0.024
  0.026 -0.024  0.917
atom    7   Tr[ns(na)] =   5.43557
    eigenvalues: 
  0.839  0.931  0.948
    eigenvectors:
  0.337  0.000  0.663
  0.000  1.000  0.000
  0.663  0.000  0.337
    occupations:
  0.911  0.000 -0.051
  0.000  0.931  0.000
 -0.051  0.000  0.876
atom    8   Tr[ns(na)] =   5.43556
    eigenvalues: 
  0.839  0.930  0.948
    eigenvectors:
  0.337  0.000  0.663
  0.497  0.251  0.252
  0.166  0.749  0.085
    occupations:
  0.911 -0.045  0.026
 -0.045  0.890  0.024
  0.026  0.024  0.917
atom    9   Tr[ns(na)] =   5.43557
    eigenvalues: 
  0.839  0.930  0.948
    eigenvectors:
  0.337  0.000  0.663
  0.498  0.249  0.253
  0.165  0.751  0.084
    occupations:
  0.911  0.045  0.026
  0.045  0.889 -0.024
  0.026 -0.024  0.917
atom   10   Tr[ns(na)] =   5.43557
    eigenvalues: 
  0.839  0.930  0.948
    eigenvectors:
  0.337  0.000  0.663
  0.000  1.000  0.000
  0.663  0.000  0.337
    occupations:
  0.911  0.000 -0.051
  0.000  0.930  0.000
 -0.051  0.000  0.876
N of occupied +U levels =  56.2866751
 --- exit write_ns ---
 --- in v_hubbard ---
Hubbard energy    0.3749
 -------

     total cpu time spent up to now is      232.9 secs

     total energy              =    -537.92292084 Ry
     Harris-Foulkes estimate   =    -537.92287572 Ry
     estimated scf accuracy    <       0.00008681 Ry

     iteration #  8     ecut=    30.00 Ry     beta=0.20
     Davidson diagonalization with overlap
     ethr =  1.14E-07,  avg # of iterations =  2.0
 --- enter write_ns ---
 LDA+U parameters:
U( 1)     =  5.00000000
alpha( 1) =  0.00000000
U( 2)     =  0.00000000
alpha( 2) =  0.00000000
U( 3)     =  0.00000000
alpha( 3) =  0.00000000
U( 4)     =  0.00000000
alpha( 4) =  0.00000000
atom    1   Tr[ns(na)] =   8.05330
    eigenvalues: 
  0.520  0.520  0.995  0.995  0.998
    eigenvectors:
  0.000  0.000  0.000  0.000  1.000
  0.015  0.643  0.168  0.173  0.000
  0.643  0.015  0.173  0.168  0.000
  0.252  0.090  0.103  0.556  0.000
  0.090  0.252  0.556  0.103  0.000
    occupations:
  0.998  0.000  0.000  0.000  0.000
  0.000  0.682  0.000 -0.085  0.209
  0.000  0.000  0.682  0.209  0.085
  0.000 -0.085  0.209  0.832  0.000
  0.000  0.209  0.085  0.000  0.832
atom    2   Tr[ns(na)] =   8.04935
    eigenvalues: 
  0.518  0.518  0.995  0.995  0.998
    eigenvectors:
  0.000  0.000  0.000  0.000  1.000
  0.412  0.246  0.009  0.332  0.000
  0.246  0.412  0.332  0.009  0.000
  0.255  0.087  0.628  0.031  0.000
  0.087  0.255  0.031  0.628  0.000
    occupations:
  0.998  0.000  0.000  0.000  0.000
  0.000  0.681  0.000  0.085  0.210
  0.000  0.000  0.681  0.210 -0.085
  0.000  0.085  0.210  0.832  0.000
  0.000  0.210 -0.085  0.000  0.832
atom    3   Tr[ns(na)] =   3.79542
    eigenvalues: 
  0.356  0.356  0.381  0.402  0.402
    eigenvectors:
  0.000  0.000  1.000  0.000  0.000
  0.057  0.864  0.000  0.030  0.048
  0.864  0.057  0.000  0.048  0.030
  0.073  0.005  0.000  0.573  0.348
  0.005  0.073  0.000  0.348  0.573
    occupations:
  0.381  0.000  0.000  0.000  0.000
  0.000  0.360  0.000  0.000  0.012
  0.000  0.000  0.360  0.012  0.000
  0.000  0.000  0.012  0.398  0.000
  0.000  0.012  0.000  0.000  0.398
atom    4   Tr[ns(na)] =   3.79542
    eigenvalues: 
  0.356  0.356  0.381  0.402  0.402
    eigenvectors:
  0.000  0.000  1.000  0.000  0.000
  0.699  0.223  0.000  0.017  0.062
  0.223  0.699  0.000  0.062  0.017
  0.020  0.059  0.000  0.721  0.200
  0.059  0.020  0.000  0.200  0.721
    occupations:
  0.381  0.000  0.000  0.000  0.000
  0.000  0.360  0.000  0.000  0.012
  0.000  0.000  0.360  0.012  0.000
  0.000  0.000  0.012  0.398  0.000
  0.000  0.012  0.000  0.000  0.398
atom    5   Tr[ns(na)] =   5.43281
    eigenvalues: 
  0.839  0.930  0.948
    eigenvectors:
  0.337  0.000  0.663
  0.497  0.251  0.252
  0.166  0.749  0.085
    occupations:
  0.911 -0.045  0.026
 -0.045  0.889  0.024
  0.026  0.024  0.916
atom    6   Tr[ns(na)] =   5.43282
    eigenvalues: 
  0.839  0.930  0.948
    eigenvectors:
  0.337  0.000  0.663
  0.498  0.249  0.253
  0.165  0.751  0.084
    occupations:
  0.911  0.045  0.026
  0.045  0.889 -0.024
  0.026 -0.024  0.916
atom    7   Tr[ns(na)] =   5.43282
    eigenvalues: 
  0.839  0.930  0.948
    eigenvectors:
  0.337  0.000  0.663
  0.000  1.000  0.000
  0.663  0.000  0.337
    occupations:
  0.911  0.000 -0.052
  0.000  0.930  0.000
 -0.052  0.000  0.875
atom    8   Tr[ns(na)] =   5.43281
    eigenvalues: 
  0.839  0.930  0.948
    eigenvectors:
  0.337  0.000  0.663
  0.497  0.251  0.252
  0.166  0.749  0.085
    occupations:
  0.911 -0.045  0.026
 -0.045  0.889  0.024
  0.026  0.024  0.916
atom    9   Tr[ns(na)] =   5.43282
    eigenvalues: 
  0.839  0.930  0.948
    eigenvectors:
  0.337  0.000  0.663
  0.498  0.249  0.253
  0.165  0.751  0.084
    occupations:
  0.911  0.045  0.026
  0.045  0.889 -0.024
  0.026 -0.024  0.916
atom   10   Tr[ns(na)] =   5.43282
    eigenvalues: 
  0.839  0.930  0.948
    eigenvectors:
  0.337  0.000  0.663
  0.000  1.000  0.000
  0.663  0.000  0.337
    occupations:
  0.911  0.000 -0.052
  0.000  0.930  0.000
 -0.052  0.000  0.875
N of occupied +U levels =  56.2903861
 --- exit write_ns ---
 --- in v_hubbard ---
Hubbard energy    0.3753
 -------

     total cpu time spent up to now is      259.8 secs

     total energy              =    -537.92297467 Ry
     Harris-Foulkes estimate   =    -537.92294113 Ry
     estimated scf accuracy    <       0.00002054 Ry

     iteration #  9     ecut=    30.00 Ry     beta=0.20
     Davidson diagonalization with overlap
     ethr =  2.70E-08,  avg # of iterations =  2.0
 --- enter write_ns ---
 LDA+U parameters:
U( 1)     =  5.00000000
alpha( 1) =  0.00000000
U( 2)     =  0.00000000
alpha( 2) =  0.00000000
U( 3)     =  0.00000000
alpha( 3) =  0.00000000
U( 4)     =  0.00000000
alpha( 4) =  0.00000000
atom    1   Tr[ns(na)] =   8.05183
    eigenvalues: 
  0.519  0.519  0.995  0.995  0.998
    eigenvectors:
  0.000  0.000  0.000  0.000  1.000
  0.015  0.643  0.169  0.173  0.000
  0.643  0.015  0.173  0.169  0.000
  0.252  0.090  0.102  0.557  0.000
  0.090  0.252  0.557  0.102  0.000
    occupations:
  0.998  0.000  0.000  0.000  0.000
  0.000  0.682  0.000 -0.085  0.209
  0.000  0.000  0.682  0.209  0.085
  0.000 -0.085  0.209  0.832  0.000
  0.000  0.209  0.085  0.000  0.832
atom    2   Tr[ns(na)] =   8.04891
    eigenvalues: 
  0.518  0.518  0.995  0.995  0.998
    eigenvectors:
  0.000  0.000  0.000  0.000  1.000
  0.401  0.257  0.009  0.332  0.000
  0.257  0.401  0.332  0.009  0.000
  0.260  0.082  0.627  0.031  0.000
  0.082  0.260  0.031  0.627  0.000
    occupations:
  0.998  0.000  0.000  0.000  0.000
  0.000  0.681  0.000  0.085  0.210
  0.000  0.000  0.681  0.210 -0.085
  0.000  0.085  0.210  0.832  0.000
  0.000  0.210 -0.085  0.000  0.832
atom    3   Tr[ns(na)] =   3.79377
    eigenvalues: 
  0.356  0.356  0.381  0.402  0.402
    eigenvectors:
  0.000  0.000  1.000  0.000  0.000
  0.036  0.885  0.000  0.070  0.009
  0.885  0.036  0.000  0.009  0.070
  0.076  0.003  0.000  0.113  0.808
  0.003  0.076  0.000  0.808  0.113
    occupations:
  0.381  0.000  0.000  0.000  0.000
  0.000  0.360  0.000  0.000  0.012
  0.000  0.000  0.360  0.012  0.000
  0.000  0.000  0.012  0.398  0.000
  0.000  0.012  0.000  0.000  0.398
atom    4   Tr[ns(na)] =   3.79377
    eigenvalues: 
  0.356  0.356  0.381  0.402  0.402
    eigenvectors:
  0.000  0.000  1.000  0.000  0.000
  0.696  0.225  0.000  0.078  0.001
  0.225  0.696  0.000  0.001  0.078
  0.020  0.059  0.000  0.012  0.909
  0.059  0.020  0.000  0.909  0.012
    occupations:
  0.381  0.000  0.000  0.000  0.000
  0.000  0.360  0.000  0.000  0.012
  0.000  0.000  0.360  0.012  0.000
  0.000  0.000  0.012  0.398  0.000
  0.000  0.012  0.000  0.000  0.398
atom    5   Tr[ns(na)] =   5.43344
    eigenvalues: 
  0.839  0.930  0.948
    eigenvectors:
  0.337  0.000  0.663
  0.497  0.251  0.252
  0.166  0.749  0.085
    occupations:
  0.911 -0.045  0.026
 -0.045  0.889  0.024
  0.026  0.024  0.916
atom    6   Tr[ns(na)] =   5.43345
    eigenvalues: 
  0.839  0.930  0.948
    eigenvectors:
  0.337  0.000  0.663
  0.498  0.249  0.253
  0.165  0.751  0.084
    occupations:
  0.911  0.045  0.026
  0.045  0.889 -0.024
  0.026 -0.024  0.917
atom    7   Tr[ns(na)] =   5.43345
    eigenvalues: 
  0.839  0.930  0.948
    eigenvectors:
  0.337  0.000  0.663
  0.000  1.000  0.000
  0.663  0.000  0.337
    occupations:
  0.911  0.000 -0.052
  0.000  0.930  0.000
 -0.052  0.000  0.875
atom    8   Tr[ns(na)] =   5.43344
    eigenvalues: 
  0.839  0.930  0.948
    eigenvectors:
  0.337  0.000  0.663
  0.497  0.251  0.252
  0.166  0.749  0.085
    occupations:
  0.911 -0.045  0.026
 -0.045  0.889  0.024
  0.026  0.024  0.916
atom    9   Tr[ns(na)] =   5.43345
    eigenvalues: 
  0.839  0.930  0.948
    eigenvectors:
  0.337  0.000  0.663
  0.498  0.249  0.253
  0.165  0.751  0.084
    occupations:
  0.911  0.045  0.026
  0.045  0.889 -0.024
  0.026 -0.024  0.917
atom   10   Tr[ns(na)] =   5.43345
    eigenvalues: 
  0.839  0.930  0.948
    eigenvectors:
  0.337  0.000  0.663
  0.000  1.000  0.000
  0.663  0.000  0.337
    occupations:
  0.911  0.000 -0.052
  0.000  0.930  0.000
 -0.052  0.000  0.875
N of occupied +U levels =  56.2889565
 --- exit write_ns ---
 --- in v_hubbard ---
Hubbard energy    0.3756
 -------

     total cpu time spent up to now is      293.1 secs

     total energy              =    -537.92300459 Ry
     Harris-Foulkes estimate   =    -537.92297703 Ry
     estimated scf accuracy    <       0.00000199 Ry

     iteration # 10     ecut=    30.00 Ry     beta=0.20
     Davidson diagonalization with overlap
     ethr =  2.61E-09,  avg # of iterations =  2.0
 --- enter write_ns ---
 LDA+U parameters:
U( 1)     =  5.00000000
alpha( 1) =  0.00000000
U( 2)     =  0.00000000
alpha( 2) =  0.00000000
U( 3)     =  0.00000000
alpha( 3) =  0.00000000
U( 4)     =  0.00000000
alpha( 4) =  0.00000000
atom    1   Tr[ns(na)] =   8.05218
    eigenvalues: 
  0.519  0.519  0.995  0.995  0.998
    eigenvectors:
  0.000  0.000  0.000  0.000  1.000
  0.013  0.645  0.168  0.174  0.000
  0.645  0.013  0.174  0.168  0.000
  0.254  0.088  0.103  0.556  0.000
  0.088  0.254  0.556  0.103  0.000
    occupations:
  0.998  0.000  0.000  0.000  0.000
  0.000  0.682  0.000 -0.085  0.209
  0.000  0.000  0.682  0.209  0.085
  0.000 -0.085  0.209  0.832  0.000
  0.000  0.209  0.085  0.000  0.832
atom    2   Tr[ns(na)] =   8.04919
    eigenvalues: 
  0.518  0.518  0.995  0.995  0.998
    eigenvectors:
  0.000  0.000  0.000  0.000  1.000
  0.402  0.257  0.010  0.332  0.000
  0.257  0.402  0.332  0.010  0.000
  0.260  0.082  0.629  0.029  0.000
  0.082  0.260  0.029  0.629  0.000
    occupations:
  0.998  0.000  0.000  0.000  0.000
  0.000  0.681  0.000  0.085  0.210
  0.000  0.000  0.681  0.210 -0.085
  0.000  0.085  0.210  0.832  0.000
  0.000  0.210 -0.085  0.000  0.832
atom    3   Tr[ns(na)] =   3.79341
    eigenvalues: 
  0.356  0.356  0.381  0.402  0.402
    eigenvectors:
  0.000  0.000  1.000  0.000  0.000
  0.041  0.880  0.000  0.062  0.017
  0.880  0.041  0.000  0.017  0.062
  0.075  0.004  0.000  0.199  0.722
  0.004  0.075  0.000  0.722  0.199
    occupations:
  0.381  0.000  0.000  0.000  0.000
  0.000  0.360  0.000  0.000  0.012
  0.000  0.000  0.360  0.012  0.000
  0.000  0.000  0.012  0.398  0.000
  0.000  0.012  0.000  0.000  0.398
atom    4   Tr[ns(na)] =   3.79341
    eigenvalues: 
  0.356  0.356  0.381  0.402  0.402
    eigenvectors:
  0.000  0.000  1.000  0.000  0.000
  0.710  0.211  0.000  0.078  0.001
  0.211  0.710  0.000  0.001  0.078
  0.019  0.060  0.000  0.009  0.912
  0.060  0.019  0.000  0.912  0.009
    occupations:
  0.381  0.000  0.000  0.000  0.000
  0.000  0.360  0.000  0.000  0.012
  0.000  0.000  0.360  0.012  0.000
  0.000  0.000  0.012  0.398  0.000
  0.000  0.012  0.000  0.000  0.398
atom    5   Tr[ns(na)] =   5.43340
    eigenvalues: 
  0.839  0.930  0.948
    eigenvectors:
  0.337  0.000  0.663
  0.497  0.251  0.252
  0.166  0.749  0.085
    occupations:
  0.911 -0.045  0.026
 -0.045  0.889  0.024
  0.026  0.024  0.916
atom    6   Tr[ns(na)] =   5.43342
    eigenvalues: 
  0.839  0.930  0.948
    eigenvectors:
  0.337  0.000  0.663
  0.498  0.249  0.253
  0.165  0.751  0.084
    occupations:
  0.911  0.045  0.026
  0.045  0.889 -0.024
  0.026 -0.024  0.917
atom    7   Tr[ns(na)] =   5.43342
    eigenvalues: 
  0.839  0.930  0.948
    eigenvectors:
  0.337  0.000  0.663
  0.000  1.000  0.000
  0.663  0.000  0.337
    occupations:
  0.911  0.000 -0.052
  0.000  0.930  0.000
 -0.052  0.000  0.875
atom    8   Tr[ns(na)] =   5.43341
    eigenvalues: 
  0.839  0.930  0.948
    eigenvectors:
  0.337  0.000  0.663
  0.497  0.251  0.252
  0.166  0.749  0.085
    occupations:
  0.911 -0.045  0.026
 -0.045  0.889  0.024
  0.026  0.024  0.916
atom    9   Tr[ns(na)] =   5.43341
    eigenvalues: 
  0.839  0.930  0.948
    eigenvectors:
  0.337  0.000  0.663
  0.498  0.249  0.253
  0.165  0.751  0.084
    occupations:
  0.911  0.045  0.026
  0.045  0.889 -0.024
  0.026 -0.024  0.917
atom   10   Tr[ns(na)] =   5.43341
    eigenvalues: 
  0.839  0.930  0.948
    eigenvectors:
  0.337  0.000  0.663
  0.000  1.000  0.000
  0.663  0.000  0.337
    occupations:
  0.911  0.000 -0.052
  0.000  0.930  0.000
 -0.052  0.000  0.875
N of occupied +U levels =  56.2886621
 --- exit write_ns ---
 --- in v_hubbard ---
Hubbard energy    0.3758
 -------

     total cpu time spent up to now is      322.5 secs

     total energy              =    -537.92302264 Ry
     Harris-Foulkes estimate   =    -537.92300503 Ry
     estimated scf accuracy    <       0.00000198 Ry

     iteration # 11     ecut=    30.00 Ry     beta=0.20
     Davidson diagonalization with overlap
     ethr =  2.60E-09,  avg # of iterations =  1.0
 --- enter write_ns ---
 LDA+U parameters:
U( 1)     =  5.00000000
alpha( 1) =  0.00000000
U( 2)     =  0.00000000
alpha( 2) =  0.00000000
U( 3)     =  0.00000000
alpha( 3) =  0.00000000
U( 4)     =  0.00000000
alpha( 4) =  0.00000000
atom    1   Tr[ns(na)] =   8.05128
    eigenvalues: 
  0.519  0.519  0.995  0.995  0.998
    eigenvectors:
  0.000  0.000  0.000  0.000  1.000
  0.013  0.645  0.169  0.173  0.000
  0.645  0.013  0.173  0.169  0.000
  0.254  0.088  0.102  0.557  0.000
  0.088  0.254  0.557  0.102  0.000
    occupations:
  0.998  0.000  0.000  0.000  0.000
  0.000  0.682  0.000 -0.086  0.209
  0.000  0.000  0.682  0.209  0.086
  0.000 -0.086  0.209  0.832  0.000
  0.000  0.209  0.086  0.000  0.832
atom    2   Tr[ns(na)] =   8.04849
    eigenvalues: 
  0.518  0.518  0.995  0.995  0.998
    eigenvectors:
  0.000  0.000  0.000  0.000  1.000
  0.397  0.261  0.010  0.331  0.000
  0.261  0.397  0.331  0.010  0.000
  0.262  0.080  0.630  0.029  0.000
  0.080  0.262  0.029  0.630  0.000
    occupations:
  0.998  0.000  0.000  0.000  0.000
  0.000  0.681  0.000  0.085  0.210
  0.000  0.000  0.681  0.210 -0.085
  0.000  0.085  0.210  0.832  0.000
  0.000  0.210 -0.085  0.000  0.832
atom    3   Tr[ns(na)] =   3.79320
    eigenvalues: 
  0.356  0.356  0.381  0.402  0.402
    eigenvectors:
  0.000  0.000  1.000  0.000  0.000
  0.042  0.879  0.000  0.064  0.015
  0.879  0.042  0.000  0.015  0.064
  0.075  0.004  0.000  0.185  0.736
  0.004  0.075  0.000  0.736  0.185
    occupations:
  0.381  0.000  0.000  0.000  0.000
  0.000  0.360  0.000  0.000  0.012
  0.000  0.000  0.360  0.012  0.000
  0.000  0.000  0.012  0.398  0.000
  0.000  0.012  0.000  0.000  0.398
atom    4   Tr[ns(na)] =   3.79319
    eigenvalues: 
  0.356  0.356  0.381  0.402  0.402
    eigenvectors:
  0.000  0.000  1.000  0.000  0.000
  0.706  0.215  0.000  0.076  0.003
  0.215  0.706  0.000  0.003  0.076
  0.019  0.060  0.000  0.031  0.890
  0.060  0.019  0.000  0.890  0.031
    occupations:
  0.381  0.000  0.000  0.000  0.000
  0.000  0.360  0.000  0.000  0.012
  0.000  0.000  0.360  0.012  0.000
  0.000  0.000  0.012  0.398  0.000
  0.000  0.012  0.000  0.000  0.398
atom    5   Tr[ns(na)] =   5.43369
    eigenvalues: 
  0.839  0.930  0.948
    eigenvectors:
  0.337  0.000  0.663
  0.497  0.251  0.252
  0.166  0.749  0.085
    occupations:
  0.911 -0.045  0.026
 -0.045  0.889  0.024
  0.026  0.024  0.917
atom    6   Tr[ns(na)] =   5.43371
    eigenvalues: 
  0.839  0.930  0.948
    eigenvectors:
  0.337  0.000  0.663
  0.498  0.249  0.253
  0.165  0.751  0.084
    occupations:
  0.911  0.045  0.026
  0.045  0.889 -0.024
  0.026 -0.024  0.917
atom    7   Tr[ns(na)] =   5.43371
    eigenvalues: 
  0.839  0.930  0.948
    eigenvectors:
  0.337  0.000  0.663
  0.000  1.000  0.000
  0.663  0.000  0.337
    occupations:
  0.911  0.000 -0.052
  0.000  0.930  0.000
 -0.052  0.000  0.875
atom    8   Tr[ns(na)] =   5.43370
    eigenvalues: 
  0.839  0.930  0.948
    eigenvectors:
  0.337  0.000  0.663
  0.497  0.251  0.252
  0.166  0.749  0.085
    occupations:
  0.911 -0.045  0.026
 -0.045  0.889  0.024
  0.026  0.024  0.917
atom    9   Tr[ns(na)] =   5.43370
    eigenvalues: 
  0.839  0.930  0.948
    eigenvectors:
  0.337  0.000  0.663
  0.498  0.249  0.253
  0.165  0.751  0.084
    occupations:
  0.911  0.045  0.026
  0.045  0.889 -0.024
  0.026 -0.024  0.917
atom   10   Tr[ns(na)] =   5.43370
    eigenvalues: 
  0.839  0.930  0.948
    eigenvectors:
  0.337  0.000  0.663
  0.000  1.000  0.000
  0.663  0.000  0.337
    occupations:
  0.911  0.000 -0.052
  0.000  0.930  0.000
 -0.052  0.000  0.875
N of occupied +U levels =  56.2883615
 --- exit write_ns ---
 --- in v_hubbard ---
Hubbard energy    0.3756
 -------

     total cpu time spent up to now is      347.8 secs

     total energy              =    -537.92303543 Ry
     Harris-Foulkes estimate   =    -537.92302293 Ry
     estimated scf accuracy    <       0.00000034 Ry

     iteration # 12     ecut=    30.00 Ry     beta=0.20
     Davidson diagonalization with overlap
     ethr =  4.48E-10,  avg # of iterations =  2.4
 --- enter write_ns ---
 LDA+U parameters:
U( 1)     =  5.00000000
alpha( 1) =  0.00000000
U( 2)     =  0.00000000
alpha( 2) =  0.00000000
U( 3)     =  0.00000000
alpha( 3) =  0.00000000
U( 4)     =  0.00000000
alpha( 4) =  0.00000000
atom    1   Tr[ns(na)] =   8.05170
    eigenvalues: 
  0.519  0.519  0.995  0.995  0.998
    eigenvectors:
  0.000  0.000  0.000  0.000  1.000
  0.016  0.642  0.164  0.177  0.000
  0.642  0.016  0.178  0.164  0.000
  0.250  0.092  0.107  0.551  0.000
  0.092  0.250  0.551  0.107  0.000
    occupations:
  0.998  0.000  0.000  0.000  0.000
  0.000  0.682  0.000 -0.086  0.209
  0.000  0.000  0.682  0.209  0.086
  0.000 -0.086  0.209  0.832  0.000
  0.000  0.209  0.086  0.000  0.832
atom    2   Tr[ns(na)] =   8.04881
    eigenvalues: 
  0.518  0.518  0.995  0.995  0.998
    eigenvectors:
  0.000  0.000  0.000  0.000  1.000
  0.399  0.259  0.011  0.331  0.000
  0.259  0.399  0.331  0.011  0.000
  0.261  0.080  0.630  0.028  0.000
  0.080  0.261  0.028  0.630  0.000
    occupations:
  0.998  0.000  0.000  0.000  0.000
  0.000  0.681  0.000  0.085  0.210
  0.000  0.000  0.681  0.210 -0.085
  0.000  0.085  0.210  0.832  0.000
  0.000  0.210 -0.085  0.000  0.832
atom    3   Tr[ns(na)] =   3.79370
    eigenvalues: 
  0.356  0.356  0.381  0.402  0.402
    eigenvectors:
  0.000  0.000  1.000  0.000  0.000
  0.055  0.866  0.000  0.056  0.023
  0.866  0.055  0.000  0.023  0.056
  0.074  0.005  0.000  0.280  0.641
  0.005  0.074  0.000  0.641  0.280
    occupations:
  0.381  0.000  0.000  0.000  0.000
  0.000  0.360  0.000  0.000  0.012
  0.000  0.000  0.360  0.012  0.000
  0.000  0.000  0.012  0.398  0.000
  0.000  0.012  0.000  0.000  0.398
atom    4   Tr[ns(na)] =   3.79369
    eigenvalues: 
  0.356  0.356  0.381  0.402  0.402
    eigenvectors:
  0.000  0.000  1.000  0.000  0.000
  0.719  0.202  0.000  0.046  0.033
  0.202  0.719  0.000  0.033  0.046
  0.018  0.061  0.000  0.379  0.542
  0.061  0.018  0.000  0.542  0.379
    occupations:
  0.381  0.000  0.000  0.000  0.000
  0.000  0.360  0.000  0.000  0.012
  0.000  0.000  0.360  0.012  0.000
  0.000  0.000  0.012  0.398  0.000
  0.000  0.012  0.000  0.000  0.398
atom    5   Tr[ns(na)] =   5.43348
    eigenvalues: 
  0.839  0.930  0.948
    eigenvectors:
  0.337  0.000  0.663
  0.497  0.251  0.252
  0.166  0.749  0.085
    occupations:
  0.911 -0.045  0.026
 -0.045  0.889  0.024
  0.026  0.024  0.916
atom    6   Tr[ns(na)] =   5.43349
    eigenvalues: 
  0.839  0.930  0.948
    eigenvectors:
  0.337  0.000  0.663
  0.498  0.249  0.253
  0.165  0.751  0.084
    occupations:
  0.911  0.045  0.026
  0.045  0.889 -0.024
  0.026 -0.024  0.917
atom    7   Tr[ns(na)] =   5.43349
    eigenvalues: 
  0.839  0.930  0.948
    eigenvectors:
  0.337  0.000  0.663
  0.000  1.000  0.000
  0.663  0.000  0.337
    occupations:
  0.911  0.000 -0.052
  0.000  0.930  0.000
 -0.052  0.000  0.875
atom    8   Tr[ns(na)] =   5.43348
    eigenvalues: 
  0.839  0.930  0.948
    eigenvectors:
  0.337  0.000  0.663
  0.497  0.251  0.252
  0.166  0.749  0.085
    occupations:
  0.911 -0.045  0.026
 -0.045  0.889  0.024
  0.026  0.024  0.916
atom    9   Tr[ns(na)] =   5.43349
    eigenvalues: 
  0.839  0.930  0.948
    eigenvectors:
  0.337  0.000  0.663
  0.498  0.249  0.253
  0.165  0.751  0.084
    occupations:
  0.911  0.045  0.026
  0.045  0.889 -0.024
  0.026 -0.024  0.917
atom   10   Tr[ns(na)] =   5.43349
    eigenvalues: 
  0.839  0.930  0.948
    eigenvectors:
  0.337  0.000  0.663
  0.000  1.000  0.000
  0.663  0.000  0.337
    occupations:
  0.911  0.000 -0.052
  0.000  0.930  0.000
 -0.052  0.000  0.875
N of occupied +U levels =  56.2888180
 --- exit write_ns ---
 --- in v_hubbard ---
Hubbard energy    0.3756
 -------

     total cpu time spent up to now is      381.7 secs

     total energy              =    -537.92304283 Ry
     Harris-Foulkes estimate   =    -537.92303570 Ry
     estimated scf accuracy    <       0.00000063 Ry

     iteration # 13     ecut=    30.00 Ry     beta=0.20
     Davidson diagonalization with overlap
     ethr =  4.48E-10,  avg # of iterations =  2.0
 --- enter write_ns ---
 LDA+U parameters:
U( 1)     =  5.00000000
alpha( 1) =  0.00000000
U( 2)     =  0.00000000
alpha( 2) =  0.00000000
U( 3)     =  0.00000000
alpha( 3) =  0.00000000
U( 4)     =  0.00000000
alpha( 4) =  0.00000000
atom    1   Tr[ns(na)] =   8.05137
    eigenvalues: 
  0.519  0.519  0.995  0.995  0.998
    eigenvectors:
  0.000  0.000  0.000  0.000  1.000
  0.014  0.644  0.163  0.178  0.000
  0.644  0.014  0.178  0.163  0.000
  0.252  0.089  0.109  0.550  0.000
  0.089  0.252  0.550  0.109  0.000
    occupations:
  0.998  0.000  0.000  0.000  0.000
  0.000  0.682  0.000 -0.086  0.209
  0.000  0.000  0.682  0.209  0.086
  0.000 -0.086  0.209  0.832  0.000
  0.000  0.209  0.086  0.000  0.832
atom    2   Tr[ns(na)] =   8.04848
    eigenvalues: 
  0.518  0.518  0.995  0.995  0.998
    eigenvectors:
  0.000  0.000  0.000  0.000  1.000
  0.398  0.261  0.010  0.331  0.000
  0.261  0.398  0.331  0.010  0.000
  0.262  0.079  0.629  0.029  0.000
  0.079  0.262  0.029  0.629  0.000
    occupations:
  0.998  0.000  0.000  0.000  0.000
  0.000  0.681  0.000  0.085  0.210
  0.000  0.000  0.681  0.210 -0.085
  0.000  0.085  0.210  0.832  0.000
  0.000  0.210 -0.085  0.000  0.832
atom    3   Tr[ns(na)] =   3.79339
    eigenvalues: 
  0.356  0.356  0.381  0.402  0.402
    eigenvectors:
  0.000  0.000  1.000  0.000  0.000
  0.053  0.868  0.000  0.055  0.024
  0.868  0.053  0.000  0.024  0.055
  0.074  0.005  0.000  0.289  0.632
  0.005  0.074  0.000  0.632  0.289
    occupations:
  0.381  0.000  0.000  0.000  0.000
  0.000  0.360  0.000  0.000  0.012
  0.000  0.000  0.360  0.012  0.000
  0.000  0.000  0.012  0.398  0.000
  0.000  0.012  0.000  0.000  0.398
atom    4   Tr[ns(na)] =   3.79339
    eigenvalues: 
  0.356  0.356  0.381  0.402  0.402
    eigenvectors:
  0.000  0.000  1.000  0.000  0.000
  0.724  0.197  0.000  0.056  0.023
  0.197  0.724  0.000  0.023  0.056
  0.018  0.061  0.000  0.260  0.661
  0.061  0.018  0.000  0.661  0.260
    occupations:
  0.381  0.000  0.000  0.000  0.000
  0.000  0.360  0.000  0.000  0.012
  0.000  0.000  0.360  0.012  0.000
  0.000  0.000  0.012  0.398  0.000
  0.000  0.012  0.000  0.000  0.398
atom    5   Tr[ns(na)] =   5.43365
    eigenvalues: 
  0.839  0.930  0.948
    eigenvectors:
  0.337  0.000  0.663
  0.497  0.251  0.252
  0.166  0.749  0.085
    occupations:
  0.911 -0.045  0.026
 -0.045  0.889  0.024
  0.026  0.024  0.917
atom    6   Tr[ns(na)] =   5.43366
    eigenvalues: 
  0.839  0.930  0.948
    eigenvectors:
  0.337  0.000  0.663
  0.498  0.249  0.253
  0.165  0.751  0.084
    occupations:
  0.911  0.045  0.026
  0.045  0.889 -0.024
  0.026 -0.024  0.917
atom    7   Tr[ns(na)] =   5.43366
    eigenvalues: 
  0.839  0.930  0.948
    eigenvectors:
  0.337  0.000  0.663
  0.000  1.000  0.000
  0.663  0.000  0.337
    occupations:
  0.911  0.000 -0.052
  0.000  0.930  0.000
 -0.052  0.000  0.875
atom    8   Tr[ns(na)] =   5.43365
    eigenvalues: 
  0.839  0.930  0.948
    eigenvectors:
  0.337  0.000  0.663
  0.497  0.251  0.252
  0.166  0.749  0.085
    occupations:
  0.911 -0.045  0.026
 -0.045  0.889  0.024
  0.026  0.024  0.917
atom    9   Tr[ns(na)] =   5.43366
    eigenvalues: 
  0.839  0.930  0.948
    eigenvectors:
  0.337  0.000  0.663
  0.498  0.249  0.253
  0.165  0.751  0.084
    occupations:
  0.911  0.045  0.026
  0.045  0.889 -0.024
  0.026 -0.024  0.917
atom   10   Tr[ns(na)] =   5.43366
    eigenvalues: 
  0.839  0.930  0.948
    eigenvectors:
  0.337  0.000  0.663
  0.000  1.000  0.000
  0.663  0.000  0.337
    occupations:
  0.911  0.000 -0.052
  0.000  0.930  0.000
 -0.052  0.000  0.875
N of occupied +U levels =  56.2885537
 --- exit write_ns ---
 --- in v_hubbard ---
Hubbard energy    0.3756
 -------

     total cpu time spent up to now is      413.8 secs

     End of self-consistent calculation

          k = 0.0000 0.0000 0.0000 (  2175 PWs)   bands (ev):

   -19.7937 -19.6205  -6.5511  -5.8700  -5.8698  -5.8249  -5.8247  -5.4856
    -3.8711  -3.2695  -3.2694  -3.2560  -3.0223  -3.0223   5.1711   6.5160
     6.5160   6.5713   6.7456   6.7456   7.5091   7.5091   7.7067   8.1991
     8.4480   8.4480   9.2948   9.6233   9.6234   9.9871   9.9871  10.1683
    10.4561  10.4562  10.6729  10.8336  10.8336  11.1592  11.8689  11.8689
    14.7159  14.7159  15.4310  15.4310  16.2013  16.7874

     occupation numbers 
     0.0313   0.0313   0.0313   0.0313   0.0313   0.0313   0.0313   0.0313
     0.0313   0.0313   0.0313   0.0313   0.0313   0.0313   0.0313   0.0313
     0.0313   0.0313   0.0313   0.0313   0.0313   0.0313   0.0313   0.0313
     0.0313   0.0313   0.0312   0.0312   0.0312   0.0312   0.0312   0.0312
     0.0312   0.0312   0.0312   0.0309   0.0309   0.0275   0.0031   0.0031
     0.0000   0.0000   0.0000   0.0000   0.0000   0.0000

          k =-0.2471-0.1427 0.1027 (  2181 PWs)   bands (ev):

   -19.7690 -19.6609  -6.7290  -6.3021  -5.9651  -5.8596  -5.6164  -5.4855
    -3.6492  -3.4171  -2.9463  -2.9088  -2.8711  -2.7671   5.5014   6.2383
     6.5551   6.6159   6.7270   6.7790   6.9333   7.4512   7.5722   7.6738
     7.8553   8.2135   9.4225   9.5625   9.7033   9.8919   9.9496  10.0220
    10.2400  10.3748  10.4003  10.8198  10.9339  10.9527  12.2725  12.3458
    14.2639  14.2748  15.8181  16.0718  16.9737  17.2678

     occupation numbers 
     0.0625   0.0625   0.0625   0.0625   0.0625   0.0625   0.0625   0.0625
     0.0625   0.0625   0.0625   0.0625   0.0625   0.0625   0.0625   0.0625
     0.0625   0.0625   0.0625   0.0625   0.0625   0.0625   0.0625   0.0625
     0.0625   0.0625   0.0625   0.0625   0.0625   0.0625   0.0625   0.0625
     0.0625   0.0625   0.0625   0.0619   0.0609   0.0607   0.0002   0.0001
     0.0000   0.0000   0.0000   0.0000   0.0000   0.0000

          k = 0.4942 0.2853-0.2053 (  2202 PWs)   bands (ev):

   -19.7231 -19.7231  -6.7281  -6.7161  -5.9714  -5.9698  -5.5274  -5.5248
    -3.4066  -3.4036  -2.8034  -2.8016  -2.5062  -2.5044   5.7967   5.8045
     6.6263   6.6414   6.8565   6.8728   7.0587   7.0714   7.3021   7.3172
     7.4563   7.4727   9.3586   9.3678   9.8076   9.8173  10.1572  10.1788
    10.2013  10.2169  10.4232  10.4437  10.7073  10.7278  13.2492  13.2944
    13.3327  13.3778  16.8332  16.8381  17.1291  17.1323

     occupation numbers 
     0.0313   0.0313   0.0313   0.0313   0.0313   0.0313   0.0313   0.0313
     0.0313   0.0313   0.0313   0.0313   0.0313   0.0313   0.0313   0.0313
     0.0313   0.0313   0.0313   0.0313   0.0313   0.0313   0.0313   0.0313
     0.0313   0.0313   0.0312   0.0312   0.0312   0.0312   0.0312   0.0312
     0.0312   0.0312   0.0312   0.0312   0.0312   0.0311   0.0000   0.0000
     0.0000   0.0000   0.0000   0.0000   0.0000   0.0000

          k =-0.2471 0.1427 0.2053 (  2195 PWs)   bands (ev):

   -19.7611 -19.6739  -6.8542  -6.2489  -6.0775  -5.8375  -5.6592  -5.4741
    -3.4493  -3.2740  -3.1187  -2.9097  -2.8397  -2.5588   5.5421   5.9493
     6.3750   6.6369   6.7018   7.0984   7.1144   7.3417   7.4460   7.7222
     7.8767   8.4066   8.7257   9.2883   9.7424   9.8408   9.9783   9.9922
    10.2525  10.5470  10.6522  10.7507  10.8400  10.8929  11.8031  12.6979
    13.5959  14.7345  15.9957  16.1979  17.0372  17.5386

     occupation numbers 
     0.0625   0.0625   0.0625   0.0625   0.0625   0.0625   0.0625   0.0625
     0.0625   0.0625   0.0625   0.0625   0.0625   0.0625   0.0625   0.0625
     0.0625   0.0625   0.0625   0.0625   0.0625   0.0625   0.0625   0.0625
     0.0625   0.0625   0.0625   0.0625   0.0625   0.0625   0.0625   0.0625
     0.0625   0.0625   0.0624   0.0622   0.0618   0.0614   0.0092   0.0000
     0.0000   0.0000   0.0000   0.0000   0.0000   0.0000

          k = 0.4942 0.5706-0.1027 (  2198 PWs)   bands (ev):

   -19.7329 -19.7177  -6.9563  -6.6488  -6.1325  -5.8947  -5.5181  -5.3923
    -3.3282  -3.2661  -2.8828  -2.7132  -2.5301  -2.3861   5.6328   5.9228
     6.0866   6.6609   6.7601   6.8298   6.9046   7.2224   7.3279   7.3807
     7.8667   8.1391   8.8280   9.1494   9.4745   9.7236   9.7461  10.0799
    10.2730  10.4348  10.4959  10.5884  10.7547  10.9265  12.2661  12.7030
    13.3906  14.3157  16.9060  17.1150  17.3076  18.0157

     occupation numbers 
     0.0625   0.0625   0.0625   0.0625   0.0625   0.0625   0.0625   0.0625
     0.0625   0.0625   0.0625   0.0625   0.0625   0.0625   0.0625   0.0625
     0.0625   0.0625   0.0625   0.0625   0.0625   0.0625   0.0625   0.0625
     0.0625   0.0625   0.0625   0.0625   0.0625   0.0625   0.0625   0.0625
     0.0625   0.0625   0.0625   0.0625   0.0622   0.0610   0.0002   0.0000
     0.0000   0.0000   0.0000   0.0000   0.0000   0.0000

          k = 0.2471 0.4280 0.0000 (  2203 PWs)   bands (ev):

   -19.7453 -19.7001  -6.8483  -6.6451  -6.0560  -5.9832  -5.4447  -5.3752
    -3.5619  -3.3028  -2.8046  -2.7088  -2.5783  -2.5672   5.7921   5.8314
     6.3900   6.5944   6.7117   6.7514   7.0778   7.1481   7.2758   7.4665
     7.5083   8.3776   8.8775   9.3060   9.6921   9.7261   9.9639  10.1924
    10.2918  10.2966  10.5065  10.5508  10.5687  11.0054  12.1747  13.2804
    13.3619  14.1108  16.4342  16.9956  17.4208  17.9266

     occupation numbers 
     0.0625   0.0625   0.0625   0.0625   0.0625   0.0625   0.0625   0.0625
     0.0625   0.0625   0.0625   0.0625   0.0625   0.0625   0.0625   0.0625
     0.0625   0.0625   0.0625   0.0625   0.0625   0.0625   0.0625   0.0625
     0.0625   0.0625   0.0625   0.0625   0.0625   0.0625   0.0625   0.0625
     0.0625   0.0625   0.0625   0.0625   0.0625   0.0598   0.0006   0.0000
     0.0000   0.0000   0.0000   0.0000   0.0000   0.0000

          k = 0.4942-0.2853-0.4107 (  2202 PWs)   bands (ev):

   -19.7279 -19.7270  -7.1671  -6.4528  -6.2385  -5.9731  -5.5332  -5.3006
    -3.2144  -3.1156  -3.0615  -2.6474  -2.4791  -2.2217   5.3127   5.7144
     5.9453   6.6607   6.7327   7.1149   7.1435   7.2529   7.3701   7.3802
     8.1643   8.2988   8.4426   8.6033   9.4136   9.6747  10.0297  10.0625
    10.2762  10.3221  10.4769  10.6556  10.7378  11.0475  11.7581  12.3728
    13.2938  14.7495  17.0460  17.2687  17.5199  17.6142

     occupation numbers 
     0.0313   0.0313   0.0313   0.0313   0.0313   0.0313   0.0313   0.0313
     0.0313   0.0313   0.0313   0.0313   0.0313   0.0313   0.0313   0.0313
     0.0313   0.0313   0.0313   0.0313   0.0313   0.0313   0.0313   0.0313
     0.0313   0.0313   0.0313   0.0313   0.0312   0.0312   0.0312   0.0312
     0.0312   0.0312   0.0312   0.0312   0.0311   0.0294   0.0058   0.0000
     0.0000   0.0000   0.0000   0.0000   0.0000   0.0000

          k = 0.0000 0.0000 0.3080 (  2187 PWs)   bands (ev):

   -19.7686 -19.6628  -6.6173  -5.9917  -5.9502  -5.9502  -5.8465  -5.8465
    -3.2295  -3.1521  -3.1521  -2.9737  -2.8991  -2.8991   5.5944   6.2652
     6.5617   6.5617   6.8021   6.8021   7.0298   7.4469   7.4469   7.9424
     7.9424   8.1291   9.4371   9.4522   9.4522   9.6877  10.0906  10.0906
    10.1704  10.1704  10.4962  10.8966  10.8976  10.8976  12.2443  12.2443
[...]
     0.0625   0.0625   0.0625   0.0625   0.0625   0.0625   0.0625   0.0625
     0.0625   0.0625   0.0625   0.0625   0.0625   0.0625   0.0625   0.0625
     0.0625   0.0625   0.0624   0.0622   0.0618   0.0614   0.0092   0.0000
     0.0000   0.0000   0.0000   0.0000   0.0000   0.0000

          k = 0.4942-0.5706 0.1027 (  2198 PWs)   bands (ev):

   -19.7329 -19.7177  -6.9568  -6.6480  -6.1336  -5.8934  -5.5190  -5.3917
    -3.3289  -3.2660  -2.8829  -2.7122  -2.5306  -2.3858   5.6300   5.9277
     6.0832   6.6637   6.7580   6.8208   6.9182   7.2208   7.3280   7.3751
     7.8710   8.1399   8.8275   9.1492   9.4724   9.7219   9.7466  10.0783
    10.2773  10.4293  10.4974  10.5877  10.7636  10.9219  12.2660  12.7027
    13.3905  14.3154  16.9079  17.1122  17.3082  18.0162

     occupation numbers 
     0.0625   0.0625   0.0625   0.0625   0.0625   0.0625   0.0625   0.0625
     0.0625   0.0625   0.0625   0.0625   0.0625   0.0625   0.0625   0.0625
     0.0625   0.0625   0.0625   0.0625   0.0625   0.0625   0.0625   0.0625
     0.0625   0.0625   0.0625   0.0625   0.0625   0.0625   0.0625   0.0625
     0.0625   0.0625   0.0625   0.0625   0.0622   0.0611   0.0002   0.0000
     0.0000   0.0000   0.0000   0.0000   0.0000   0.0000

          k =-0.7412 0.1427-0.1027 (  2198 PWs)   bands (ev):

   -19.7329 -19.7177  -6.9564  -6.6488  -6.1326  -5.8945  -5.5180  -5.3924
    -3.3281  -3.2661  -2.8827  -2.7132  -2.5301  -2.3862   5.6328   5.9228
     6.0866   6.6609   6.7601   6.8298   6.9046   7.2224   7.3279   7.3807
     7.8667   8.1391   8.8281   9.1494   9.4745   9.7235   9.7461  10.0799
    10.2730  10.4348  10.4959  10.5884  10.7547  10.9265  12.2661  12.7030
    13.3906  14.3157  16.9060  17.1150  17.3076  18.0157

     occupation numbers 
     0.0625   0.0625   0.0625   0.0625   0.0625   0.0625   0.0625   0.0625
     0.0625   0.0625   0.0625   0.0625   0.0625   0.0625   0.0625   0.0625
     0.0625   0.0625   0.0625   0.0625   0.0625   0.0625   0.0625   0.0625
     0.0625   0.0625   0.0625   0.0625   0.0625   0.0625   0.0625   0.0625
     0.0625   0.0625   0.0625   0.0625   0.0622   0.0610   0.0002   0.0000
     0.0000   0.0000   0.0000   0.0000   0.0000   0.0000

          k = 0.2471-0.7133-0.1027 (  2198 PWs)   bands (ev):

   -19.7329 -19.7177  -6.9564  -6.6488  -6.1326  -5.8945  -5.5180  -5.3924
    -3.3281  -3.2661  -2.8827  -2.7132  -2.5301  -2.3862   5.6328   5.9227
     6.0866   6.6609   6.7601   6.8298   6.9046   7.2224   7.3279   7.3807
     7.8667   8.1391   8.8281   9.1494   9.4746   9.7236   9.7461  10.0799
    10.2730  10.4348  10.4958  10.5884  10.7547  10.9265  12.2661  12.7030
    13.3906  14.3157  16.9060  17.1150  17.3076  18.0157

     occupation numbers 
     0.0625   0.0625   0.0625   0.0625   0.0625   0.0625   0.0625   0.0625
     0.0625   0.0625   0.0625   0.0625   0.0625   0.0625   0.0625   0.0625
     0.0625   0.0625   0.0625   0.0625   0.0625   0.0625   0.0625   0.0625
     0.0625   0.0625   0.0625   0.0625   0.0625   0.0625   0.0625   0.0625
     0.0625   0.0625   0.0625   0.0625   0.0622   0.0610   0.0002   0.0000
     0.0000   0.0000   0.0000   0.0000   0.0000   0.0000

          k =-0.7412-0.1427 0.1027 (  2198 PWs)   bands (ev):

   -19.7329 -19.7177  -6.9568  -6.6480  -6.1336  -5.8933  -5.5190  -5.3918
    -3.3289  -3.2660  -2.8829  -2.7122  -2.5306  -2.3858   5.6300   5.9277
     6.0832   6.6637   6.7580   6.8208   6.9182   7.2208   7.3280   7.3751
     7.8711   8.1399   8.8275   9.1492   9.4724   9.7219   9.7466  10.0783
    10.2773  10.4293  10.4974  10.5877  10.7636  10.9219  12.2660  12.7027
    13.3905  14.3154  16.9079  17.1122  17.3082  18.0162

     occupation numbers 
     0.0625   0.0625   0.0625   0.0625   0.0625   0.0625   0.0625   0.0625
     0.0625   0.0625   0.0625   0.0625   0.0625   0.0625   0.0625   0.0625
     0.0625   0.0625   0.0625   0.0625   0.0625   0.0625   0.0625   0.0625
     0.0625   0.0625   0.0625   0.0625   0.0625   0.0625   0.0625   0.0625
     0.0625   0.0625   0.0625   0.0625   0.0622   0.0611   0.0002   0.0000
     0.0000   0.0000   0.0000   0.0000   0.0000   0.0000

          k = 0.2471 0.7133 0.1027 (  2198 PWs)   bands (ev):

   -19.7329 -19.7177  -6.9567  -6.6481  -6.1335  -5.8936  -5.5191  -5.3916
    -3.3289  -3.2660  -2.8829  -2.7122  -2.5306  -2.3858   5.6300   5.9277
     6.0832   6.6637   6.7580   6.8208   6.9182   7.2208   7.3279   7.3751
     7.8711   8.1400   8.8275   9.1492   9.4724   9.7219   9.7466  10.0783
    10.2773  10.4293  10.4974  10.5877  10.7636  10.9219  12.2660  12.7027
    13.3905  14.3154  16.9079  17.1122  17.3082  18.0162

     occupation numbers 
     0.0625   0.0625   0.0625   0.0625   0.0625   0.0625   0.0625   0.0625
     0.0625   0.0625   0.0625   0.0625   0.0625   0.0625   0.0625   0.0625
     0.0625   0.0625   0.0625   0.0625   0.0625   0.0625   0.0625   0.0625
     0.0625   0.0625   0.0625   0.0625   0.0625   0.0625   0.0625   0.0625
     0.0625   0.0625   0.0625   0.0625   0.0622   0.0611   0.0002   0.0000
     0.0000   0.0000   0.0000   0.0000   0.0000   0.0000

          k = 0.2471-0.4280 0.0000 (  2203 PWs)   bands (ev):

   -19.7453 -19.7001  -6.8482  -6.6452  -6.0558  -5.9833  -5.4449  -5.3751
    -3.5619  -3.3028  -2.8047  -2.7088  -2.5782  -2.5672   5.7921   5.8314
     6.3900   6.5944   6.7117   6.7514   7.0778   7.1482   7.2758   7.4665
     7.5083   8.3776   8.8775   9.3060   9.6920   9.7261   9.9639  10.1924
    10.2918  10.2966  10.5065  10.5508  10.5687  11.0054  12.1748  13.2804
    13.3619  14.1108  16.4342  16.9956  17.4209  17.9266

     occupation numbers 
     0.0625   0.0625   0.0625   0.0625   0.0625   0.0625   0.0625   0.0625
     0.0625   0.0625   0.0625   0.0625   0.0625   0.0625   0.0625   0.0625
     0.0625   0.0625   0.0625   0.0625   0.0625   0.0625   0.0625   0.0625
     0.0625   0.0625   0.0625   0.0625   0.0625   0.0625   0.0625   0.0625
     0.0625   0.0625   0.0625   0.0625   0.0625   0.0598   0.0006   0.0000
     0.0000   0.0000   0.0000   0.0000   0.0000   0.0000

          k =-0.4942 0.0000 0.0000 (  2203 PWs)   bands (ev):

   -19.7453 -19.7001  -6.8482  -6.6452  -6.0558  -5.9833  -5.4449  -5.3751
    -3.5619  -3.3028  -2.8046  -2.7088  -2.5782  -2.5672   5.7921   5.8314
     6.3900   6.5944   6.7117   6.7514   7.0778   7.1482   7.2758   7.4665
     7.5083   8.3776   8.8775   9.3060   9.6921   9.7261   9.9639  10.1924
    10.2918  10.2966  10.5065  10.5508  10.5687  11.0054  12.1748  13.2804
    13.3619  14.1108  16.4342  16.9956  17.4209  17.9266

     occupation numbers 
     0.0625   0.0625   0.0625   0.0625   0.0625   0.0625   0.0625   0.0625
     0.0625   0.0625   0.0625   0.0625   0.0625   0.0625   0.0625   0.0625
     0.0625   0.0625   0.0625   0.0625   0.0625   0.0625   0.0625   0.0625
     0.0625   0.0625   0.0625   0.0625   0.0625   0.0625   0.0625   0.0625
     0.0625   0.0625   0.0625   0.0625   0.0625   0.0598   0.0006   0.0000
     0.0000   0.0000   0.0000   0.0000   0.0000   0.0000

          k = 0.4942 0.2853 0.4107 (  2202 PWs)   bands (ev):

   -19.7279 -19.7270  -7.1672  -6.4528  -6.2386  -5.9728  -5.5330  -5.3008
    -3.2144  -3.1156  -3.0615  -2.6474  -2.4791  -2.2217   5.3127   5.7144
     5.9453   6.6607   6.7327   7.1149   7.1435   7.2529   7.3701   7.3801
     8.1643   8.2988   8.4426   8.6033   9.4136   9.6747  10.0296  10.0625
    10.2763  10.3221  10.4769  10.6556  10.7378  11.0475  11.7581  12.3728
    13.2938  14.7495  17.0460  17.2687  17.5199  17.6142

     occupation numbers 
     0.0313   0.0313   0.0313   0.0313   0.0313   0.0313   0.0313   0.0313
     0.0313   0.0313   0.0313   0.0313   0.0313   0.0313   0.0313   0.0313
     0.0313   0.0313   0.0313   0.0313   0.0313   0.0313   0.0313   0.0313
     0.0313   0.0313   0.0313   0.0313   0.0312   0.0312   0.0312   0.0312
     0.0312   0.0312   0.0312   0.0312   0.0311   0.0294   0.0058   0.0000
     0.0000   0.0000   0.0000   0.0000   0.0000   0.0000

          k = 0.0000 0.5706-0.4107 (  2202 PWs)   bands (ev):

   -19.7279 -19.7270  -7.1672  -6.4528  -6.2386  -5.9728  -5.5330  -5.3008
    -3.2144  -3.1156  -3.0615  -2.6474  -2.4791  -2.2217   5.3127   5.7144
     5.9453   6.6607   6.7327   7.1149   7.1435   7.2529   7.3701   7.3801
     8.1643   8.2988   8.4426   8.6033   9.4135   9.6747  10.0296  10.0625
    10.2762  10.3221  10.4769  10.6556  10.7378  11.0475  11.7581  12.3728
    13.2938  14.7495  17.0460  17.2687  17.5199  17.6142

     occupation numbers 
     0.0313   0.0313   0.0313   0.0313   0.0313   0.0313   0.0313   0.0313
     0.0313   0.0313   0.0313   0.0313   0.0313   0.0313   0.0313   0.0313
     0.0313   0.0313   0.0313   0.0313   0.0313   0.0313   0.0313   0.0313
     0.0313   0.0313   0.0313   0.0313   0.0312   0.0312   0.0312   0.0312
     0.0312   0.0312   0.0312   0.0312   0.0311   0.0294   0.0058   0.0000
     0.0000   0.0000   0.0000   0.0000   0.0000   0.0000

          k = 0.7412-0.4280 0.0000 (  2204 PWs)   bands (ev):

   -19.7445 -19.7024  -6.7338  -6.6099  -6.1451  -5.8366  -5.6988  -5.5531
    -3.2044  -3.1032  -3.0472  -2.6795  -2.6663  -2.5874   5.8237   6.0151
     6.2543   6.6963   6.7798   6.8326   7.0056   7.1313   7.3287   7.4142
     7.6676   8.2124   8.8556   9.4124   9.4426   9.6600   9.8191  10.1825
    10.2559  10.3731  10.5700  10.6168  10.6978  10.7050  12.1727  13.2006
    13.2779  14.1395  16.6863  16.7271  17.5908  17.7952

     occupation numbers 
     0.0625   0.0625   0.0625   0.0625   0.0625   0.0625   0.0625   0.0625
     0.0625   0.0625   0.0625   0.0625   0.0625   0.0625   0.0625   0.0625
     0.0625   0.0625   0.0625   0.0625   0.0625   0.0625   0.0625   0.0625
     0.0625   0.0625   0.0625   0.0625   0.0625   0.0625   0.0625   0.0625
     0.0625   0.0625   0.0625   0.0624   0.0623   0.0623   0.0006   0.0000
     0.0000   0.0000   0.0000   0.0000   0.0000   0.0000

          k = 0.0000-0.8559 0.0000 (  2204 PWs)   bands (ev):

   -19.7445 -19.7024  -6.7338  -6.6100  -6.1450  -5.8366  -5.6988  -5.5532
    -3.2044  -3.1032  -3.0472  -2.6794  -2.6663  -2.5874   5.8237   6.0151
     6.2543   6.6963   6.7798   6.8326   7.0056   7.1313   7.3287   7.4142
     7.6676   8.2123   8.8556   9.4124   9.4426   9.6600   9.8191  10.1825
    10.2559  10.3731  10.5700  10.6168  10.6978  10.7050  12.1727  13.2006
    13.2779  14.1395  16.6863  16.7271  17.5908  17.7953

     occupation numbers 
     0.0625   0.0625   0.0625   0.0625   0.0625   0.0625   0.0625   0.0625
     0.0625   0.0625   0.0625   0.0625   0.0625   0.0625   0.0625   0.0625
     0.0625   0.0625   0.0625   0.0625   0.0625   0.0625   0.0625   0.0625
     0.0625   0.0625   0.0625   0.0625   0.0625   0.0625   0.0625   0.0625
     0.0625   0.0625   0.0625   0.0624   0.0623   0.0623   0.0006   0.0000
     0.0000   0.0000   0.0000   0.0000   0.0000   0.0000

          k = 0.4942-0.2853-0.1027 (  2211 PWs)   bands (ev):

   -19.7340 -19.7166  -6.9728  -6.5446  -6.3256  -5.7069  -5.6257  -5.3645
    -3.3427  -3.1699  -3.0481  -2.6026  -2.5665  -2.3778   5.6580   5.9718
     5.9899   6.5347   6.8045   6.9429   6.9979   7.1226   7.2741   7.3638
     7.9134   8.1799   8.8061   9.3012   9.3444   9.6133   9.9236   9.9356
    10.3430  10.4627  10.6086  10.6647  10.7094  10.7427  12.2218  12.7167
    13.4378  14.2972  16.8864  16.9357  17.5788  17.9278

     occupation numbers 
     0.0625   0.0625   0.0625   0.0625   0.0625   0.0625   0.0625   0.0625
     0.0625   0.0625   0.0625   0.0625   0.0625   0.0625   0.0625   0.0625
     0.0625   0.0625   0.0625   0.0625   0.0625   0.0625   0.0625   0.0625
     0.0625   0.0625   0.0625   0.0625   0.0625   0.0625   0.0625   0.0625
     0.0625   0.0625   0.0624   0.0624   0.0623   0.0622   0.0004   0.0000
     0.0000   0.0000   0.0000   0.0000   0.0000   0.0000

          k = 0.0000-0.5706 0.1027 (  2211 PWs)   bands (ev):

   -19.7340 -19.7166  -6.9729  -6.5446  -6.3256  -5.7069  -5.6256  -5.3646
    -3.3427  -3.1699  -3.0481  -2.6026  -2.5665  -2.3779   5.6580   5.9718
     5.9899   6.5347   6.8045   6.9429   6.9979   7.1227   7.2741   7.3638
     7.9133   8.1799   8.8061   9.3012   9.3444   9.6133   9.9236   9.9356
    10.3430  10.4627  10.6086  10.6647  10.7094  10.7427  12.2218  12.7167
    13.4378  14.2972  16.8865  16.9357  17.5788  17.9278

     occupation numbers 
     0.0625   0.0625   0.0625   0.0625   0.0625   0.0625   0.0625   0.0625
     0.0625   0.0625   0.0625   0.0625   0.0625   0.0625   0.0625   0.0625
     0.0625   0.0625   0.0625   0.0625   0.0625   0.0625   0.0625   0.0625
     0.0625   0.0625   0.0625   0.0625   0.0625   0.0625   0.0625   0.0625
     0.0625   0.0625   0.0624   0.0624   0.0623   0.0622   0.0004   0.0000
     0.0000   0.0000   0.0000   0.0000   0.0000   0.0000

          k = 0.7412 0.4280 0.3080 (  2210 PWs)   bands (ev):

   -19.7337 -19.7185  -6.9093  -6.4554  -6.3038  -5.7978  -5.7682  -5.4964
    -3.0808  -3.0652  -2.9700  -2.7348  -2.6271  -2.4284   5.7429   5.9898
     6.1208   6.5449   6.8061   6.8293   7.1160   7.1454   7.2995   7.4088
     7.8917   8.1704   8.7291   9.2349   9.4114   9.4697   9.6347  10.0671
    10.2806  10.4406  10.5453  10.6469  10.7756  10.7884  12.1822  12.6705
    13.3870  14.2673  17.0609  17.0707  17.5469  17.9029

     occupation numbers 
     0.0625   0.0625   0.0625   0.0625   0.0625   0.0625   0.0625   0.0625
     0.0625   0.0625   0.0625   0.0625   0.0625   0.0625   0.0625   0.0625
     0.0625   0.0625   0.0625   0.0625   0.0625   0.0625   0.0625   0.0625
     0.0625   0.0625   0.0625   0.0625   0.0625   0.0625   0.0625   0.0625
     0.0625   0.0625   0.0625   0.0624   0.0621   0.0621   0.0006   0.0000
     0.0000   0.0000   0.0000   0.0000   0.0000   0.0000

          k = 0.0000 0.8559-0.3080 (  2210 PWs)   bands (ev):

   -19.7337 -19.7185  -6.9093  -6.4554  -6.3038  -5.7978  -5.7682  -5.4964
    -3.0808  -3.0652  -2.9700  -2.7348  -2.6271  -2.4284   5.7429   5.9898
     6.1208   6.5449   6.8060   6.8293   7.1160   7.1454   7.2995   7.4088
     7.8917   8.1704   8.7291   9.2349   9.4114   9.4697   9.6347  10.0671
    10.2806  10.4406  10.5453  10.6469  10.7756  10.7884  12.1822  12.6705
    13.3870  14.2673  17.0609  17.0707  17.5469  17.9029

     occupation numbers 
     0.0625   0.0625   0.0625   0.0625   0.0625   0.0625   0.0625   0.0625
     0.0625   0.0625   0.0625   0.0625   0.0625   0.0625   0.0625   0.0625
     0.0625   0.0625   0.0625   0.0625   0.0625   0.0625   0.0625   0.0625
     0.0625   0.0625   0.0625   0.0625   0.0625   0.0625   0.0625   0.0625
     0.0625   0.0625   0.0625   0.0624   0.0621   0.0621   0.0006   0.0000
     0.0000   0.0000   0.0000   0.0000   0.0000   0.0000

          k = 0.2471 0.7133-0.2053 (  2206 PWs)   bands (ev):

   -19.7280 -19.7279  -6.8868  -6.8757  -6.0360  -6.0346  -5.4345  -5.4338
    -3.1602  -3.1598  -2.8225  -2.8217  -2.3832  -2.3806   5.8860   5.8960
     6.0486   6.0505   6.8071   6.8076   7.0461   7.0570   7.3149   7.3154
     8.3086   8.3095   8.7744   8.7776   9.4457   9.4464   9.9530   9.9585
    10.3213  10.3295  10.4784  10.4875  10.8296  10.8362  12.2272  12.2329
    13.9617  13.9730  17.4262  17.4266  17.8705  17.8729

     occupation numbers 
     0.0625   0.0625   0.0625   0.0625   0.0625   0.0625   0.0625   0.0625
     0.0625   0.0625   0.0625   0.0625   0.0625   0.0625   0.0625   0.0625
     0.0625   0.0625   0.0625   0.0625   0.0625   0.0625   0.0625   0.0625
     0.0625   0.0625   0.0625   0.0625   0.0625   0.0625   0.0625   0.0625
     0.0625   0.0625   0.0625   0.0625   0.0619   0.0618   0.0004   0.0003
     0.0000   0.0000   0.0000   0.0000   0.0000   0.0000

          k =-0.7412-0.1427-0.2053 (  2206 PWs)   bands (ev):

   -19.7280 -19.7279  -6.8869  -6.8758  -6.0359  -6.0345  -5.4345  -5.4339
    -3.1602  -3.1598  -2.8225  -2.8217  -2.3833  -2.3807   5.8860   5.8960
     6.0486   6.0505   6.8070   6.8077   7.0461   7.0570   7.3149   7.3154
     8.3086   8.3095   8.7744   8.7776   9.4457   9.4464   9.9530   9.9585
    10.3213  10.3295  10.4784  10.4875  10.8296  10.8362  12.2272  12.2330
    13.9617  13.9730  17.4262  17.4266  17.8705  17.8729

     occupation numbers 
     0.0625   0.0625   0.0625   0.0625   0.0625   0.0625   0.0625   0.0625
     0.0625   0.0625   0.0625   0.0625   0.0625   0.0625   0.0625   0.0625
     0.0625   0.0625   0.0625   0.0625   0.0625   0.0625   0.0625   0.0625
     0.0625   0.0625   0.0625   0.0625   0.0625   0.0625   0.0625   0.0625
     0.0625   0.0625   0.0625   0.0625   0.0619   0.0618   0.0004   0.0003
     0.0000   0.0000   0.0000   0.0000   0.0000   0.0000

     the Fermi energy is    11.4996 ev

!    total energy              =    -537.92305663 Ry
     Harris-Foulkes estimate   =    -537.92304291 Ry
     estimated scf accuracy    <          6.5E-09 Ry

     The total energy is the sum of the following terms:

     one-electron contribution =     -32.89128870 Ry
     hartree contribution      =      83.66039613 Ry
     xc contribution           =    -199.61896791 Ry
     ewald contribution        =    -389.44315552 Ry
     Hubbard energy            =       0.37558788 Ry
     smearing contrib. (-TS)   =      -0.00562852 Ry

     convergence has been achieved in  13 iterations

     init_run     :      6.82s CPU      6.96s WALL (       1 calls)
     electrons    :    403.56s CPU    406.34s WALL (       1 calls)

     Called by init_run:
     wfcinit      :      0.00s CPU      0.00s WALL (       1 calls)
     potinit      :      0.28s CPU      0.33s WALL (       1 calls)

     Called by electrons:
     c_bands      :    314.42s CPU    315.73s WALL (      13 calls)
     sum_band     :     65.40s CPU     65.97s WALL (      13 calls)
     v_of_rho     :      3.42s CPU      3.43s WALL (      14 calls)
     v_h          :      0.18s CPU      0.18s WALL (      14 calls)
     v_xc         :      3.24s CPU      3.26s WALL (      14 calls)
     newd         :     21.18s CPU     21.22s WALL (      14 calls)
     mix_rho      :      0.35s CPU      0.35s WALL (      13 calls)

     Called by c_bands:
     init_us_2    :      3.20s CPU      3.21s WALL (     936 calls)
     cegterg      :    305.20s CPU    305.98s WALL (     468 calls)

     Called by sum_band:
     sum_band:bec :      0.36s CPU      0.35s WALL (     468 calls)
     addusdens    :     14.40s CPU     14.45s WALL (      13 calls)

     Called by *egterg:
     h_psi        :    229.86s CPU    230.55s WALL (    1845 calls)
     s_psi        :     13.01s CPU     12.98s WALL (    1845 calls)
     g_psi        :      1.18s CPU      1.17s WALL (    1377 calls)
     cdiaghg      :     21.25s CPU     21.25s WALL (    1809 calls)
     cegterg:over :     14.98s CPU     15.02s WALL (    1377 calls)
     cegterg:upda :      9.56s CPU      9.59s WALL (    1377 calls)
     cegterg:last :      6.85s CPU      6.86s WALL (     536 calls)

     Called by h_psi:
     h_psi:vloc   :    187.97s CPU    188.62s WALL (    1845 calls)
     h_psi:vnl    :     26.51s CPU     26.50s WALL (    1845 calls)
     add_vuspsi   :     13.03s CPU     13.02s WALL (    1845 calls)
     vhpsi        :     14.90s CPU     14.93s WALL (    1845 calls)

     General routines
     calbec       :     27.96s CPU     28.02s WALL (    4626 calls)
     fft          :      2.25s CPU      2.26s WALL (     219 calls)
     ffts         :      0.07s CPU      0.07s WALL (      27 calls)
     fftw         :    182.89s CPU    183.37s WALL (  135400 calls)
     interpolate  :      0.39s CPU      0.38s WALL (      27 calls)
     davcio       :      0.02s CPU      0.90s WALL (     972 calls)

     Parallel routines
     fft_scatter  :     43.02s CPU     43.40s WALL (  135646 calls)
     Hubbard U routines
     new_ns       :      2.80s CPU      3.20s WALL (      13 calls)
     vhpsi        :     14.90s CPU     14.93s WALL (    1845 calls)

     PWSCF        :  6m50.82s CPU     6m53.80s WALL


   This run was terminated on:  15:18: 7  11Nov2012            

=------------------------------------------------------------------------------=
