   JOB DONE.
=------------------------------------------------------------------------------=

     Program PWSCF v.5.0.1 starts on 11Nov2012 at 15:32:53 

     This program is part of the open-source Quantum ESPRESSO suite
     for quantum simulation of materials; please cite
         "P. Giannozzi et al., J. Phys.:Condens. Matter 21 395502 (2009);
          URL http://www.quantum-espresso.org", 
     in publications or presentations arising from this work. More details at
     http://www.quantum-espresso.org/quote.php

     Parallel version (MPI), running on     2 processors
     R & G space division:  proc/pool =    2

     Current dimensions of program PWSCF are:
     Max number of different atomic species (ntypx) = 10
     Max number of k-points (npk) =  40000
     Max angular momentum in pseudopotentials (lmaxx) =  3
     Reading input from CoLaO_U500_a15.in
               file Co.pbe-nd-rrkjus.UPF: wavefunction(s)  4S 3D renormalized
               file O.pbe-rrkjus.UPF: wavefunction(s)  2S renormalized
               file O.pbe-rrkjus.UPF: wavefunction(s)  2S renormalized

     Subspace diagonalization in iterative solution of the eigenvalue problem:
     a serial algorithm will be used


     Parallelization info
     --------------------
     sticks:   dense  smooth     PW     G-vecs:    dense   smooth      PW
     Min        1112     444    131                34808     8786    1448
     Max        1113     445    132                34809     8787    1449
     Sum        2225     889    263                69617    17573    2897


     Title: 
     GGA + U, U = 5.000, alpha = 0.150                                          


     bravais-lattice index     =            5
     lattice parameter (alat)  =      10.3292  a.u.
     unit-cell volume          =     793.0599 (a.u.)^3
     number of atoms/cell      =           10
     number of atomic types    =            4
     number of electrons       =        76.00
     number of Kohn-Sham states=           46
     kinetic-energy cutoff     =      30.0000  Ry
     charge density cutoff     =     300.0000  Ry
     convergence threshold     =      1.0E-08
     mixing beta               =       0.2000
     number of iterations used =            8  plain     mixing
     Exchange-correlation      =  SLA  PW   PBE  PBE ( 1 4 3 4 0)
     EXX-fraction              =        0.00

     celldm(1)=  10.329242  celldm(2)=   0.000000  celldm(3)=   0.000000
     celldm(4)=   0.488100  celldm(5)=   0.000000  celldm(6)=   0.000000

     crystal axes: (cart. coord. in units of alat)
               a(1) = (   0.505915  -0.292090   0.811624 )  
               a(2) = (   0.000000   0.584180   0.811624 )  
               a(3) = (  -0.505915  -0.292090   0.811624 )  

     reciprocal axes: (cart. coord. in units 2 pi/alat)
               b(1) = (  0.988308 -0.570600  0.410699 )  
               b(2) = (  0.000000  1.141200  0.410699 )  
               b(3) = ( -0.988308 -0.570600  0.410699 )  


     PseudoPot. # 1 for Co read from file:
     /home/mcurnan/dft-course/Project1/example_LaCoO3/Co.pbe-nd-rrkjus.UPF
     MD5 check sum: 3e47a84addf5e975e0edeaeee2a73f59
     Pseudo is Ultrasoft + core correction, Zval =  9.0
     Generated by new atomic code, or converted to UPF format
     Using radial grid of  961 points,  6 beta functions with: 
                l(1) =   0
                l(2) =   0
                l(3) =   1
                l(4) =   1
                l(5) =   2
                l(6) =   2
     Q(r) pseudized with 0 coefficients 


     PseudoPot. # 2 for La read from file:
     /home/mcurnan/dft-course/Project1/example_LaCoO3/La.pbe-nsp-van.UPF
     MD5 check sum: b2f11743f52dde65f77d1302becd7929
     Pseudo is Ultrasoft + core correction, Zval = 11.0
     Generated by new atomic code, or converted to UPF format
     Using radial grid of  907 points,  6 beta functions with: 
                l(1) =   0
                l(2) =   0
                l(3) =   1
                l(4) =   1
                l(5) =   2
                l(6) =   2
     Q(r) pseudized with  6 coefficients,  rinner =    1.200   1.200   1.200
                                                       1.200   1.200

     PseudoPot. # 3 for O  read from file:
     /home/mcurnan/dft-course/Project1/example_LaCoO3/O.pbe-rrkjus.UPF
     MD5 check sum: 390ba29e75625707450f3bd3f0eb6be9
     Pseudo is Ultrasoft, Zval =  6.0
     Generated by new atomic code, or converted to UPF format
     Using radial grid of 1269 points,  4 beta functions with: 
                l(1) =   0
                l(2) =   0
                l(3) =   1
                l(4) =   1
     Q(r) pseudized with 0 coefficients 


     PseudoPot. # 4 for O  read from file:
     /home/mcurnan/dft-course/Project1/example_LaCoO3/O.pbe-rrkjus.UPF
     MD5 check sum: 390ba29e75625707450f3bd3f0eb6be9
     Pseudo is Ultrasoft, Zval =  6.0
     Generated by new atomic code, or converted to UPF format
     Using radial grid of 1269 points,  4 beta functions with: 
                l(1) =   0
                l(2) =   0
                l(3) =   1
                l(4) =   1
     Q(r) pseudized with 0 coefficients 


     atomic species   valence    mass     pseudopotential
        Co1            9.00     1.00000     Co( 1.00)
        La1           11.00     1.00000     La( 1.00)
        O1             6.00     1.00000     O ( 1.00)
        O2             6.00     1.00000     O ( 1.00)
 -----
     simplified LDA+U calculation, Hubbard_lmax = 2
     atomic species  L   Hubbard U  Hubbard alpha
        Co1          2    5.000000    0.000000
        La1          2    0.000000    0.000000
        O1           1    0.000000    0.150000
        O2           1    0.000000    0.000000
 -----

     No symmetry found


                                    s                        frac. trans.

      isym =  1     identity                                     

 cryst.   s( 1) = (     1          0          0      )
                  (     0          1          0      )
                  (     0          0          1      )

 cart.    s( 1) = (  1.0000000  0.0000000  0.0000000 )
                  (  0.0000000  1.0000000  0.0000000 )
                  (  0.0000000  0.0000000  1.0000000 )


     point group C_1 (1)    
     there are  1 classes
     the character table:

       E    
A      1.00

     the symmetry operations in each class:
     E        1

   Cartesian axes

     site n.     atom                  positions (alat units)
         1           Co1 tau(   1) = (   0.2228050  -0.1992639   1.0141240  )
         2           Co1 tau(   2) = (  -0.2831100   0.0928263   1.4199360  )
         3           La1 tau(   3) = (  -0.2831100   0.0928263   0.8112181  )
         4           La1 tau(   4) = (   0.2228050   0.3849164   1.2170300  )
         5           O1  tau(   5) = (   0.0000000   0.0000000   0.0000000  )
         6           O2  tau(   6) = (   0.0008601   0.1861491   1.6232478  )
         7           O2  tau(   7) = (   0.1616398   0.0923297   0.8116239  )
         8           O2  tau(   8) = (  -0.0603051  -0.1064377   1.2166242  )
         9           O2  tau(   9) = (   0.4447499  -0.0004966   1.2166242  )
        10           O2  tau(  10) = (  -0.2219449   0.3854130   1.2166242  )

   Crystallographic axes

     site n.     atom                  positions (cryst. coord.)
         1           Co1 tau(   1) = (  0.7504000  0.1891000  0.3100000  )
         2           Co1 tau(   2) = (  0.2504000  0.6891000  0.8100000  )
         3           La1 tau(   3) = (  0.0004000  0.4391000  0.5600000  )
         4           La1 tau(   4) = (  0.5004000  0.9391000  0.0600000  )
         5           O1  tau(   5) = (  0.0000000  0.0000000  0.0000000  )
         6           O2  tau(   6) = (  0.5613000  0.8791000  0.5596000  )
         7           O2  tau(   7) = (  0.4404000  0.4387000  0.1209000  )
         8           O2  tau(   8) = (  0.5008000  0.3782000  0.6200000  )
         9           O2  tau(   9) = (  0.9395000  0.4991000  0.0604000  )
        10           O2  tau(  10) = (  0.0604000  0.9395000  0.4991000  )

     number of k points=    36  gaussian smearing, width (Ry)=  0.0300
                       cart. coord. in units 2pi/alat
        k(    1) = (   0.0000000   0.0000000   0.0000000), wk =   0.0312500
        k(    2) = (  -0.2470771  -0.1426500   0.1026748), wk =   0.0625000
        k(    3) = (   0.4941541   0.2853000  -0.2053496), wk =   0.0312500
        k(    4) = (  -0.2470771   0.1426500   0.2053496), wk =   0.0625000
        k(    5) = (   0.4941541   0.5706001  -0.1026748), wk =   0.0625000
        k(    6) = (   0.2470771   0.4279500   0.0000000), wk =   0.0625000
        k(    7) = (   0.4941541  -0.2853000  -0.4106993), wk =   0.0312500
        k(    8) = (   0.0000000   0.0000000   0.3080244), wk =   0.0625000
        k(    9) = (   0.7412312   0.4279500   0.0000000), wk =   0.0625000
        k(   10) = (   0.4941541   0.2853000   0.1026748), wk =   0.0625000
        k(   11) = (   0.7412312  -0.4279500  -0.3080244), wk =   0.0625000
        k(   12) = (   0.4941541  -0.5706001  -0.2053496), wk =   0.0625000
        k(   13) = (   0.0000000   0.0000000  -0.6160489), wk =   0.0312500
        k(   14) = (  -0.2470771   0.1426500  -0.1026748), wk =   0.0625000
        k(   15) = (   0.0000000   0.2853000   0.1026748), wk =   0.0625000
        k(   16) = (   0.4941541  -0.2853000   0.2053496), wk =   0.0312500
        k(   17) = (   0.0000000  -0.5706001  -0.2053496), wk =   0.0312500
        k(   18) = (  -0.2470771  -0.1426500  -0.2053496), wk =   0.0625000
        k(   19) = (   0.0000000  -0.2853000   0.2053496), wk =   0.0625000
        k(   20) = (   0.4941541  -0.5706001   0.1026748), wk =   0.0625000
        k(   21) = (  -0.7412312   0.1426500  -0.1026748), wk =   0.0625000
        k(   22) = (   0.2470771  -0.7132501  -0.1026748), wk =   0.0625000
        k(   23) = (  -0.7412312  -0.1426500   0.1026748), wk =   0.0625000
        k(   24) = (   0.2470771   0.7132501   0.1026748), wk =   0.0625000
        k(   25) = (   0.2470771  -0.4279500   0.0000000), wk =   0.0625000
        k(   26) = (  -0.4941541   0.0000000   0.0000000), wk =   0.0625000
        k(   27) = (   0.4941541   0.2853000   0.4106993), wk =   0.0312500
        k(   28) = (   0.0000000   0.5706001  -0.4106993), wk =   0.0312500
        k(   29) = (   0.7412312  -0.4279500   0.0000000), wk =   0.0625000
        k(   30) = (   0.0000000  -0.8559001   0.0000000), wk =   0.0625000
        k(   31) = (   0.4941541  -0.2853000  -0.1026748), wk =   0.0625000
        k(   32) = (   0.0000000  -0.5706001   0.1026748), wk =   0.0625000
        k(   33) = (   0.7412312   0.4279500   0.3080244), wk =   0.0625000
        k(   34) = (   0.0000000   0.8559001  -0.3080244), wk =   0.0625000
        k(   35) = (   0.2470771   0.7132501  -0.2053496), wk =   0.0625000
        k(   36) = (  -0.7412312  -0.1426500  -0.2053496), wk =   0.0625000

                       cryst. coord.
        k(    1) = (   0.0000000   0.0000000   0.0000000), wk =   0.0312500
        k(    2) = (   0.0000000   0.0000000   0.2500000), wk =   0.0625000
        k(    3) = (   0.0000000   0.0000000  -0.5000000), wk =   0.0312500
        k(    4) = (   0.0000000   0.2500000   0.2500000), wk =   0.0625000
        k(    5) = (   0.0000000   0.2500000  -0.5000000), wk =   0.0625000
        k(    6) = (   0.0000000   0.2500000  -0.2500000), wk =   0.0625000
        k(    7) = (   0.0000000  -0.5000000  -0.5000000), wk =   0.0312500
        k(    8) = (   0.2500000   0.2500000   0.2500000), wk =   0.0625000
        k(    9) = (   0.2500000   0.2500000  -0.5000000), wk =   0.0625000
        k(   10) = (   0.2500000   0.2500000  -0.2500000), wk =   0.0625000
        k(   11) = (   0.2500000  -0.5000000  -0.5000000), wk =   0.0625000
        k(   12) = (   0.2500000  -0.5000000  -0.2500000), wk =   0.0625000
        k(   13) = (  -0.5000000  -0.5000000  -0.5000000), wk =   0.0312500
        k(   14) = (  -0.2500000   0.0000000   0.0000000), wk =   0.0625000
        k(   15) = (   0.0000000   0.2500000   0.0000000), wk =   0.0625000
        k(   16) = (   0.5000000   0.0000000   0.0000000), wk =   0.0312500
        k(   17) = (   0.0000000  -0.5000000   0.0000000), wk =   0.0312500
        k(   18) = (  -0.2500000  -0.2500000   0.0000000), wk =   0.0625000
        k(   19) = (   0.2500000   0.0000000   0.2500000), wk =   0.0625000
        k(   20) = (   0.5000000  -0.2500000   0.0000000), wk =   0.0625000
        k(   21) = (  -0.5000000   0.0000000   0.2500000), wk =   0.0625000
        k(   22) = (   0.2500000  -0.5000000   0.0000000), wk =   0.0625000
        k(   23) = (  -0.2500000   0.0000000   0.5000000), wk =   0.0625000
        k(   24) = (   0.0000000   0.5000000  -0.2500000), wk =   0.0625000
        k(   25) = (   0.2500000  -0.2500000   0.0000000), wk =   0.0625000
        k(   26) = (  -0.2500000   0.0000000   0.2500000), wk =   0.0625000
        k(   27) = (   0.5000000   0.5000000   0.0000000), wk =   0.0312500
        k(   28) = (  -0.5000000   0.0000000  -0.5000000), wk =   0.0312500
        k(   29) = (   0.5000000  -0.2500000  -0.2500000), wk =   0.0625000
        k(   30) = (   0.2500000  -0.5000000   0.2500000), wk =   0.0625000
        k(   31) = (   0.2500000  -0.2500000  -0.2500000), wk =   0.0625000
        k(   32) = (   0.2500000  -0.2500000   0.2500000), wk =   0.0625000
        k(   33) = (   0.5000000   0.5000000  -0.2500000), wk =   0.0625000
        k(   34) = (  -0.5000000   0.2500000  -0.5000000), wk =   0.0625000
        k(   35) = (  -0.2500000   0.2500000  -0.5000000), wk =   0.0625000
        k(   36) = (  -0.5000000  -0.2500000   0.2500000), wk =   0.0625000

     Dense  grid:    69617 G-vectors     FFT dimensions: (  60,  60,  60)

     Smooth grid:    17573 G-vectors     FFT dimensions: (  40,  40,  40)

     Largest allocated arrays     est. size (Mb)     dimensions
        Kohn-Sham Wavefunctions         0.79 Mb     (   1119,   46)
        Atomic wavefunctions            1.06 Mb     (   1119,   62)
        NL pseudopotentials             2.05 Mb     (   1119,  120)
        Each V/rho on FFT grid          1.65 Mb     ( 108000)
        Each G-vector array             0.27 Mb     (  34808)
        G-vector shells                 0.04 Mb     (   4682)
     Largest temporary arrays     est. size (Mb)     dimensions
        Auxiliary wavefunctions         3.14 Mb     (   1119,  184)
        Each subspace H/S matrix        0.52 Mb     ( 184, 184)
        Each <psi_i|beta_j> matrix      0.08 Mb     (    120,   46)
        Arrays for rho mixing          13.18 Mb     ( 108000,   8)

     Check: negative/imaginary core charge=   -0.000028    0.000000

     The initial density is read from file :
     /home/mcurnan/dft-course/Project1/example_LaCoO3/500/O/alpha/CoLaO_U500.save/charge-density.dat

 --- in v_hubbard ---
Hubbard energy    0.5384
 -------
     Number of +U iterations with fixed ns =  0
     Starting occupations:
 --- enter write_ns ---
 LDA+U parameters:
U( 1)     =  5.00000000
alpha( 1) =  0.00000000
U( 2)     =  0.00000000
alpha( 2) =  0.00000000
U( 3)     =  0.00000000
alpha( 3) =  0.15000000
U( 4)     =  0.00000000
alpha( 4) =  0.00000000
atom    1   Tr[ns(na)] =   8.02205
    eigenvalues: 
  0.596  0.596  0.938  0.941  0.941
    eigenvectors:
  0.000  0.000  1.000  0.000  0.000
  0.057  0.598  0.000  0.178  0.167
  0.598  0.057  0.000  0.167  0.178
  0.210  0.135  0.000  0.095  0.560
  0.135  0.210  0.000  0.560  0.095
    occupations:
  0.938  0.000  0.000  0.000  0.000
  0.000  0.715  0.000 -0.060  0.152
  0.000  0.000  0.715  0.152  0.060
  0.000 -0.060  0.152  0.822  0.000
  0.000  0.152  0.060  0.000  0.822
atom    2   Tr[ns(na)] =   8.02142
    eigenvalues: 
  0.595  0.595  0.938  0.941  0.941
    eigenvectors:
  0.000  0.000  1.000  0.000  0.000
  0.332  0.323  0.000  0.023  0.322
  0.323  0.332  0.000  0.322  0.023
  0.288  0.057  0.000  0.647  0.008
  0.057  0.288  0.000  0.008  0.647
    occupations:
  0.938  0.000  0.000  0.000  0.000
  0.000  0.715  0.000  0.060  0.153
  0.000  0.000  0.715  0.153 -0.060
  0.000  0.060  0.153  0.822  0.000
  0.000  0.153 -0.060  0.000  0.822
atom    3   Tr[ns(na)] =   3.80282
    eigenvalues: 
  0.355  0.355  0.384  0.403  0.403
    eigenvectors:
  0.000  0.000  1.000  0.000  0.000
  0.065  0.856  0.000  0.058  0.021
  0.856  0.065  0.000  0.021  0.058
  0.073  0.006  0.000  0.250  0.670
  0.006  0.073  0.000  0.670  0.250
    occupations:
  0.384  0.000  0.000  0.000  0.000
  0.000  0.359  0.000  0.000  0.013
  0.000  0.000  0.359  0.013  0.000
  0.000  0.000  0.013  0.399  0.000
  0.000  0.013  0.000  0.000  0.399
atom    4   Tr[ns(na)] =   3.80282
    eigenvalues: 
  0.355  0.355  0.384  0.403  0.403
    eigenvectors:
  0.000  0.000  1.000  0.000  0.000
  0.729  0.192  0.000  0.048  0.032
  0.192  0.729  0.000  0.032  0.048
  0.017  0.062  0.000  0.359  0.562
  0.062  0.017  0.000  0.562  0.359
    occupations:
  0.384  0.000  0.000  0.000  0.000
  0.000  0.359  0.000  0.000  0.013
  0.000  0.000  0.359  0.013  0.000
  0.000  0.000  0.013  0.399  0.000
  0.000  0.013  0.000  0.000  0.399
atom    5   Tr[ns(na)] =   5.43357
    eigenvalues: 
  0.846  0.929  0.941
    eigenvectors:
  0.340  0.000  0.660
  0.496  0.250  0.255
  0.164  0.750  0.086
    occupations:
  0.909 -0.039  0.022
 -0.039  0.891  0.022
  0.022  0.022  0.917
atom    6   Tr[ns(na)] =   5.43358
    eigenvalues: 
  0.846  0.929  0.941
    eigenvectors:
  0.340  0.000  0.660
  0.494  0.250  0.256
  0.166  0.750  0.085
    occupations:
  0.909  0.039  0.022
  0.039  0.891 -0.022
  0.022 -0.022  0.917
atom    7   Tr[ns(na)] =   5.43358
    eigenvalues: 
  0.846  0.929  0.941
    eigenvectors:
  0.340  0.000  0.660
  0.000  1.000  0.000
  0.660  0.000  0.340
    occupations:
  0.909  0.000 -0.045
  0.000  0.929  0.000
 -0.045  0.000  0.879
atom    8   Tr[ns(na)] =   5.43357
    eigenvalues: 
  0.846  0.929  0.941
    eigenvectors:
  0.340  0.000  0.660
  0.496  0.250  0.255
  0.164  0.750  0.086
    occupations:
  0.909 -0.039  0.022
 -0.039  0.891  0.022
  0.022  0.022  0.917
atom    9   Tr[ns(na)] =   5.43358
    eigenvalues: 
  0.846  0.929  0.941
    eigenvectors:
  0.340  0.000  0.660
  0.494  0.250  0.256
  0.166  0.750  0.085
    occupations:
  0.909  0.039  0.022
  0.039  0.891 -0.022
  0.022 -0.022  0.917
atom   10   Tr[ns(na)] =   5.43358
    eigenvalues: 
  0.846  0.929  0.941
    eigenvectors:
  0.340  0.000  0.660
  0.000  1.000  0.000
  0.660  0.000  0.340
    occupations:
  0.909  0.000 -0.045
  0.000  0.929  0.000
 -0.045  0.000  0.879
N of occupied +U levels =  56.2505796
 --- exit write_ns ---
 LDA+U Projector read from file 
     Starting wfc from file

     total cpu time spent up to now is        7.4 secs

     per-process dynamical memory:    62.8 Mb

     Self-consistent Calculation

     iteration #  1     ecut=    30.00 Ry     beta=0.20
     Davidson diagonalization with overlap
     c_bands:  1 eigenvalues not converged
     c_bands:  1 eigenvalues not converged
     c_bands:  1 eigenvalues not converged
     c_bands:  1 eigenvalues not converged
     c_bands:  1 eigenvalues not converged
     c_bands:  1 eigenvalues not converged
     c_bands:  1 eigenvalues not converged
     c_bands:  1 eigenvalues not converged
     c_bands:  1 eigenvalues not converged
     c_bands:  1 eigenvalues not converged
     c_bands:  1 eigenvalues not converged
     c_bands:  1 eigenvalues not converged
     c_bands:  1 eigenvalues not converged
     c_bands:  1 eigenvalues not converged
     c_bands:  1 eigenvalues not converged
     c_bands:  1 eigenvalues not converged
     c_bands:  1 eigenvalues not converged
     c_bands:  1 eigenvalues not converged
     c_bands:  1 eigenvalues not converged
     ethr =  1.00E-10,  avg # of iterations = 18.0
 --- enter write_ns ---
 LDA+U parameters:
U( 1)     =  5.00000000
alpha( 1) =  0.00000000
U( 2)     =  0.00000000
alpha( 2) =  0.00000000
U( 3)     =  0.00000000
alpha( 3) =  0.15000000
U( 4)     =  0.00000000
alpha( 4) =  0.00000000
atom    1   Tr[ns(na)] =   8.22888
    eigenvalues: 
  0.568  0.571  0.991  0.991  0.994
    eigenvectors:
  0.000  0.000  0.002  0.009  0.989
  0.098  0.556  0.223  0.120  0.003
  0.556  0.098  0.122  0.223  0.001
  0.178  0.167  0.045  0.606  0.004
  0.167  0.179  0.607  0.043  0.003
    occupations:
  0.994  0.000  0.000  0.000  0.000
  0.000  0.716 -0.001 -0.072  0.187
  0.000 -0.001  0.714  0.187  0.073
  0.000 -0.072  0.187  0.845 -0.001
  0.000  0.187  0.073 -0.001  0.845
atom    2   Tr[ns(na)] =   8.21976
    eigenvalues: 
  0.565  0.568  0.991  0.991  0.994
    eigenvectors:
  0.000  0.000  0.003  0.009  0.989
  0.239  0.416  0.004  0.339  0.003
  0.416  0.238  0.342  0.003  0.001
  0.319  0.027  0.608  0.045  0.000
  0.027  0.319  0.044  0.604  0.007
    occupations:
  0.994  0.000  0.000  0.000  0.000
  0.000  0.714 -0.001  0.073  0.188
  0.000 -0.001  0.713  0.189 -0.072
  0.000  0.073  0.189  0.844  0.000
  0.000  0.188 -0.072  0.000  0.845
atom    3   Tr[ns(na)] =   3.79553
    eigenvalues: 
  0.356  0.357  0.381  0.402  0.402
    eigenvectors:
  0.000  0.000  1.000  0.000  0.000
  0.690  0.229  0.000  0.019  0.061
  0.230  0.689  0.000  0.062  0.019
  0.021  0.060  0.000  0.692  0.226
  0.059  0.021  0.000  0.226  0.693
    occupations:
  0.382  0.000  0.000  0.000  0.000
  0.000  0.360  0.000  0.000  0.012
  0.000  0.000  0.360  0.012  0.000
  0.000  0.000  0.012  0.398  0.000
  0.000  0.012  0.000  0.000  0.398
atom    4   Tr[ns(na)] =   3.79545
    eigenvalues: 
  0.356  0.357  0.382  0.401  0.402
    eigenvectors:
  0.000  0.000  1.000  0.000  0.000
  0.232  0.681  0.000  0.020  0.067
  0.686  0.230  0.000  0.062  0.022
  0.061  0.023  0.000  0.685  0.231
  0.022  0.065  0.000  0.233  0.680
    occupations:
  0.382  0.000  0.000  0.000  0.000
  0.000  0.361  0.000  0.000  0.013
  0.000  0.000  0.360  0.012  0.000
  0.000  0.000  0.012  0.398  0.000
  0.000  0.013  0.000  0.000  0.398
atom    5   Tr[ns(na)] =   5.35717
    eigenvalues: 
  0.819  0.919  0.941
    eigenvectors:
  0.342  0.000  0.658
  0.494  0.250  0.256
  0.164  0.750  0.086
    occupations:
  0.899 -0.050  0.029
 -0.050  0.875  0.025
  0.029  0.025  0.904
atom    6   Tr[ns(na)] =   5.38661
    eigenvalues: 
  0.825  0.924  0.945
    eigenvectors:
  0.341  0.000  0.659
  0.494  0.251  0.255
  0.165  0.749  0.086
    occupations:
  0.904  0.049  0.028
  0.049  0.880 -0.025
  0.028 -0.025  0.909
atom    7   Tr[ns(na)] =   5.38661
    eigenvalues: 
  0.825  0.924  0.945
    eigenvectors:
  0.341  0.000  0.659
  0.000  1.000  0.000
  0.659  0.000  0.341
    occupations:
  0.904  0.000 -0.057
  0.000  0.924  0.000
 -0.057  0.000  0.866
atom    8   Tr[ns(na)] =   5.38655
    eigenvalues: 
  0.826  0.924  0.944
    eigenvectors:
  0.341  0.000  0.659
  0.495  0.250  0.255
  0.164  0.750  0.086
    occupations:
  0.904 -0.049  0.028
 -0.049  0.880  0.025
  0.028  0.025  0.909
atom    9   Tr[ns(na)] =   5.38651
    eigenvalues: 
  0.825  0.924  0.945
    eigenvectors:
  0.341  0.000  0.659
  0.494  0.250  0.256
  0.165  0.750  0.086
    occupations:
  0.904  0.049  0.028
  0.049  0.880 -0.025
  0.028 -0.025  0.909
atom   10   Tr[ns(na)] =   5.38651
    eigenvalues: 
  0.825  0.924  0.945
    eigenvectors:
  0.341  0.000  0.659
  0.000  1.000  0.000
  0.659  0.000  0.341
    occupations:
  0.904  0.000 -0.057
  0.000  0.924  0.000
 -0.057  0.000  0.866
N of occupied +U levels =  56.3295728
 --- exit write_ns ---
 --- in v_hubbard ---
Hubbard energy    0.5193
 -------

     total cpu time spent up to now is       93.0 secs

     total energy              =    -537.84483362 Ry
     Harris-Foulkes estimate   =    -537.85683151 Ry
     estimated scf accuracy    <       0.05469602 Ry

     iteration #  2     ecut=    30.00 Ry     beta=0.20
     Davidson diagonalization with overlap
     ethr =  7.20E-05,  avg # of iterations =  2.0
 --- enter write_ns ---
 LDA+U parameters:
U( 1)     =  5.00000000
alpha( 1) =  0.00000000
U( 2)     =  0.00000000
alpha( 2) =  0.00000000
U( 3)     =  0.00000000
alpha( 3) =  0.15000000
U( 4)     =  0.00000000
alpha( 4) =  0.00000000
atom    1   Tr[ns(na)] =   8.02258
    eigenvalues: 
  0.515  0.517  0.992  0.992  0.995
    eigenvectors:
  0.000  0.000  0.000  0.001  0.999
  0.099  0.557  0.119  0.226  0.000
  0.557  0.099  0.226  0.118  0.000
  0.175  0.169  0.188  0.467  0.000
  0.170  0.175  0.467  0.188  0.000
    occupations:
  0.995  0.000  0.000  0.000  0.000
  0.000  0.681  0.000 -0.083  0.210
  0.000  0.000  0.680  0.210  0.084
  0.000 -0.083  0.210  0.828  0.000
  0.000  0.210  0.084  0.000  0.828
atom    2   Tr[ns(na)] =   8.02468
    eigenvalues: 
  0.515  0.516  0.993  0.993  0.996
    eigenvectors:
  0.000  0.000  0.000  0.001  0.999
  0.239  0.417  0.051  0.294  0.000
  0.416  0.239  0.294  0.051  0.000
  0.320  0.025  0.655  0.000  0.000
  0.025  0.320  0.000  0.655  0.000
    occupations:
  0.996  0.000  0.000  0.000  0.000
  0.000  0.680 -0.001  0.084  0.211
  0.000 -0.001  0.680  0.211 -0.083
  0.000  0.084  0.211  0.828  0.000
  0.000  0.211 -0.083  0.000  0.829
atom    3   Tr[ns(na)] =   3.79010
    eigenvalues: 
  0.355  0.355  0.381  0.402  0.402
    eigenvectors:
  0.000  0.000  1.000  0.000  0.000
  0.703  0.218  0.000  0.026  0.053
  0.218  0.703  0.000  0.053  0.026
  0.019  0.060  0.000  0.612  0.309
  0.060  0.019  0.000  0.309  0.612
    occupations:
  0.381  0.000  0.000  0.000  0.000
  0.000  0.359  0.000  0.000  0.012
  0.000  0.000  0.359  0.012  0.000
  0.000  0.000  0.012  0.398  0.000
  0.000  0.012  0.000  0.000  0.398
atom    4   Tr[ns(na)] =   3.79020
    eigenvalues: 
  0.355  0.355  0.381  0.401  0.402
    eigenvectors:
  0.000  0.000  1.000  0.000  0.000
  0.289  0.631  0.000  0.020  0.060
  0.632  0.289  0.000  0.059  0.021
  0.054  0.026  0.000  0.677  0.243
  0.026  0.055  0.000  0.244  0.676
    occupations:
  0.381  0.000  0.000  0.000  0.000
  0.000  0.359  0.000  0.000  0.013
  0.000  0.000  0.359  0.012  0.000
  0.000  0.000  0.012  0.398  0.000
  0.000  0.013  0.000  0.000  0.398
atom    5   Tr[ns(na)] =   5.43979
    eigenvalues: 
  0.841  0.931  0.948
    eigenvectors:
  0.336  0.000  0.664
  0.497  0.252  0.251
  0.167  0.748  0.085
    occupations:
  0.912 -0.044  0.025
 -0.044  0.891  0.023
  0.025  0.023  0.917
atom    6   Tr[ns(na)] =   5.44730
    eigenvalues: 
  0.843  0.932  0.949
    eigenvectors:
  0.336  0.000  0.664
  0.499  0.249  0.252
  0.165  0.751  0.084
    occupations:
  0.913  0.043  0.025
  0.043  0.892 -0.023
  0.025 -0.023  0.919
atom    7   Tr[ns(na)] =   5.44731
    eigenvalues: 
  0.843  0.932  0.949
    eigenvectors:
  0.336  0.000  0.664
  0.000  1.000  0.000
  0.664  0.000  0.336
    occupations:
  0.913  0.000 -0.050
  0.000  0.932  0.000
 -0.050  0.000  0.879
atom    8   Tr[ns(na)] =   5.44608
    eigenvalues: 
  0.843  0.932  0.949
    eigenvectors:
  0.336  0.000  0.664
  0.497  0.252  0.251
  0.167  0.748  0.085
    occupations:
  0.913 -0.043  0.025
 -0.043  0.892  0.023
  0.025  0.023  0.918
atom    9   Tr[ns(na)] =   5.44754
    eigenvalues: 
  0.843  0.932  0.949
    eigenvectors:
  0.335  0.000  0.665
  0.500  0.248  0.252
  0.165  0.752  0.084
    occupations:
  0.913  0.043  0.025
  0.043  0.892 -0.023
  0.025 -0.023  0.919
atom   10   Tr[ns(na)] =   5.44754
    eigenvalues: 
  0.843  0.932  0.949
    eigenvectors:
  0.335  0.000  0.665
  0.000  1.000  0.000
  0.665  0.000  0.335
    occupations:
  0.913  0.000 -0.050
  0.000  0.932  0.000
 -0.050  0.000  0.879
N of occupied +U levels =  56.3031229
 --- exit write_ns ---
 --- in v_hubbard ---
Hubbard energy    0.5111
 -------

     total cpu time spent up to now is      120.1 secs

     total energy              =    -537.85577125 Ry
     Harris-Foulkes estimate   =    -537.85584612 Ry
     estimated scf accuracy    <       0.03325261 Ry

     iteration #  3     ecut=    30.00 Ry     beta=0.20
     Davidson diagonalization with overlap
     ethr =  4.38E-05,  avg # of iterations =  1.0
 --- enter write_ns ---
 LDA+U parameters:
U( 1)     =  5.00000000
alpha( 1) =  0.00000000
U( 2)     =  0.00000000
alpha( 2) =  0.00000000
U( 3)     =  0.00000000
alpha( 3) =  0.15000000
U( 4)     =  0.00000000
alpha( 4) =  0.00000000
atom    1   Tr[ns(na)] =   8.06802
    eigenvalues: 
  0.526  0.528  0.992  0.992  0.995
    eigenvectors:
  0.000  0.000  0.000  0.001  0.999
  0.099  0.557  0.134  0.211  0.000
  0.557  0.099  0.211  0.133  0.000
  0.175  0.169  0.163  0.493  0.000
  0.169  0.175  0.493  0.162  0.000
    occupations:
  0.995  0.000  0.000  0.000  0.000
  0.000  0.688  0.000 -0.081  0.205
  0.000  0.000  0.687  0.206  0.082
  0.000 -0.081  0.206  0.832  0.000
  0.000  0.205  0.082  0.000  0.832
atom    2   Tr[ns(na)] =   8.06447
    eigenvalues: 
  0.525  0.526  0.993  0.993  0.996
    eigenvectors:
  0.000  0.000  0.000  0.001  0.999
  0.239  0.417  0.042  0.301  0.000
  0.417  0.238  0.302  0.042  0.000
  0.319  0.025  0.655  0.000  0.000
  0.025  0.319  0.000  0.655  0.001
    occupations:
  0.996  0.000  0.000  0.000  0.000
  0.000  0.686 -0.001  0.082  0.206
  0.000 -0.001  0.686  0.207 -0.081
  0.000  0.082  0.207  0.832  0.000
  0.000  0.206 -0.081  0.000  0.832
atom    3   Tr[ns(na)] =   3.79069
    eigenvalues: 
  0.356  0.356  0.381  0.401  0.401
    eigenvectors:
  0.000  0.000  1.000  0.000  0.000
  0.698  0.223  0.000  0.018  0.061
  0.223  0.698  0.000  0.061  0.018
  0.020  0.059  0.000  0.705  0.216
  0.059  0.020  0.000  0.216  0.705
    occupations:
  0.381  0.000  0.000  0.000  0.000
  0.000  0.359  0.000  0.000  0.012
  0.000  0.000  0.359  0.012  0.000
  0.000  0.000  0.012  0.398  0.000
  0.000  0.012  0.000  0.000  0.398
atom    4   Tr[ns(na)] =   3.79072
    eigenvalues: 
  0.356  0.356  0.381  0.401  0.401
    eigenvectors:
  0.000  0.000  1.000  0.000  0.000
  0.268  0.652  0.000  0.019  0.061
  0.653  0.268  0.000  0.060  0.019
  0.055  0.024  0.000  0.694  0.226
  0.024  0.057  0.000  0.227  0.693
    occupations:
  0.381  0.000  0.000  0.000  0.000
  0.000  0.359  0.000  0.000  0.012
  0.000  0.000  0.359  0.012  0.000
  0.000  0.000  0.012  0.398  0.000
  0.000  0.012  0.000  0.000  0.398
atom    5   Tr[ns(na)] =   5.42522
    eigenvalues: 
  0.836  0.929  0.947
    eigenvectors:
  0.337  0.000  0.663
  0.497  0.251  0.252
  0.166  0.749  0.085
    occupations:
  0.910 -0.045  0.026
 -0.045  0.888  0.024
  0.026  0.024  0.915
atom    6   Tr[ns(na)] =   5.43408
    eigenvalues: 
  0.839  0.930  0.948
    eigenvectors:
  0.337  0.000  0.663
  0.497  0.250  0.253
  0.166  0.750  0.085
    occupations:
  0.911  0.045  0.026
  0.045  0.889 -0.024
  0.026 -0.024  0.917
atom    7   Tr[ns(na)] =   5.43409
    eigenvalues: 
  0.839  0.930  0.948
    eigenvectors:
  0.337  0.000  0.663
  0.000  1.000  0.000
  0.663  0.000  0.337
    occupations:
  0.911  0.000 -0.052
  0.000  0.930  0.000
 -0.052  0.000  0.876
atom    8   Tr[ns(na)] =   5.43306
    eigenvalues: 
  0.839  0.930  0.948
    eigenvectors:
  0.337  0.000  0.663
  0.497  0.251  0.252
  0.166  0.749  0.085
    occupations:
  0.911 -0.045  0.026
 -0.045  0.889  0.024
  0.026  0.024  0.916
atom    9   Tr[ns(na)] =   5.43423
    eigenvalues: 
  0.839  0.930  0.948
    eigenvectors:
  0.337  0.000  0.663
  0.498  0.249  0.252
  0.165  0.751  0.084
    occupations:
  0.911  0.045  0.026
  0.045  0.889 -0.024
  0.026 -0.024  0.917
atom   10   Tr[ns(na)] =   5.43423
    eigenvalues: 
  0.839  0.930  0.948
    eigenvectors:
  0.337  0.000  0.663
  0.000  1.000  0.000
  0.663  0.000  0.337
    occupations:
  0.911  0.000 -0.052
  0.000  0.930  0.000
 -0.052  0.000  0.876
N of occupied +U levels =  56.3088110
 --- exit write_ns ---
 --- in v_hubbard ---
Hubbard energy    0.4381
 -------

     total cpu time spent up to now is      142.2 secs

     total energy              =    -537.86153194 Ry
     Harris-Foulkes estimate   =    -537.85647755 Ry
     estimated scf accuracy    <       0.01507280 Ry

     iteration #  4     ecut=    30.00 Ry     beta=0.20
     Davidson diagonalization with overlap
     ethr =  1.98E-05,  avg # of iterations =  1.9
 --- enter write_ns ---
 LDA+U parameters:
U( 1)     =  5.00000000
alpha( 1) =  0.00000000
U( 2)     =  0.00000000
alpha( 2) =  0.00000000
U( 3)     =  0.00000000
alpha( 3) =  0.15000000
U( 4)     =  0.00000000
alpha( 4) =  0.00000000
atom    1   Tr[ns(na)] =   8.07048
    eigenvalues: 
  0.524  0.526  0.994  0.994  0.997
    eigenvectors:
  0.000  0.000  0.000  0.001  0.999
  0.099  0.560  0.146  0.195  0.000
  0.560  0.099  0.195  0.146  0.000
  0.173  0.169  0.139  0.520  0.000
  0.169  0.173  0.520  0.138  0.000
    occupations:
  0.997  0.000  0.000  0.000  0.000
  0.000  0.686  0.000 -0.083  0.207
  0.000  0.000  0.685  0.207  0.083
  0.000 -0.083  0.207  0.834  0.000
  0.000  0.207  0.083  0.000  0.834
atom    2   Tr[ns(na)] =   8.08231
    eigenvalues: 
  0.526  0.528  0.995  0.995  0.998
    eigenvectors:
  0.000  0.000  0.000  0.001  0.999
  0.241  0.418  0.035  0.306  0.000
  0.418  0.240  0.307  0.035  0.000
  0.317  0.024  0.656  0.002  0.000
  0.024  0.317  0.002  0.656  0.001
    occupations:
  0.998  0.000  0.000  0.000  0.000
  0.000  0.687 -0.001  0.083  0.206
  0.000 -0.001  0.686  0.207 -0.082
  0.000  0.083  0.207  0.835  0.000
  0.000  0.206 -0.082  0.000  0.836
atom    3   Tr[ns(na)] =   3.79857
    eigenvalues: 
  0.357  0.357  0.382  0.402  0.402
    eigenvectors:
  0.000  0.000  1.000  0.000  0.000
  0.692  0.231  0.000  0.015  0.061
  0.231  0.692  0.000  0.062  0.015
  0.020  0.057  0.000  0.734  0.190
  0.057  0.020  0.000  0.189  0.734
    occupations:
  0.382  0.000  0.000  0.000  0.000
  0.000  0.360  0.000  0.000  0.012
  0.000  0.000  0.360  0.012  0.000
  0.000  0.000  0.012  0.399  0.000
  0.000  0.012  0.000  0.000  0.399
atom    4   Tr[ns(na)] =   3.79856
    eigenvalues: 
  0.357  0.357  0.382  0.402  0.402
    eigenvectors:
  0.000  0.000  1.000  0.000  0.000
  0.234  0.687  0.000  0.017  0.062
  0.689  0.233  0.000  0.060  0.017
  0.057  0.021  0.000  0.714  0.209
  0.020  0.059  0.000  0.209  0.712
    occupations:
  0.382  0.000  0.000  0.000  0.000
  0.000  0.360  0.000  0.000  0.012
  0.000  0.000  0.360  0.012  0.000
  0.000  0.000  0.012  0.398  0.000
  0.000  0.012  0.000  0.000  0.398
atom    5   Tr[ns(na)] =   5.41527
    eigenvalues: 
  0.834  0.928  0.946
    eigenvectors:
  0.338  0.000  0.662
  0.494  0.253  0.252
  0.168  0.747  0.085
    occupations:
  0.908 -0.046  0.027
 -0.046  0.886  0.024
  0.027  0.024  0.913
atom    6   Tr[ns(na)] =   5.42675
    eigenvalues: 
  0.837  0.929  0.947
    eigenvectors:
  0.337  0.000  0.663
  0.499  0.248  0.253
  0.164  0.752  0.084
    occupations:
  0.910  0.045  0.026
  0.045  0.888 -0.024
  0.026 -0.024  0.916
atom    7   Tr[ns(na)] =   5.42675
    eigenvalues: 
  0.837  0.929  0.947
    eigenvectors:
  0.337  0.000  0.663
  0.000  1.000  0.000
  0.663  0.000  0.337
    occupations:
  0.910  0.000 -0.052
  0.000  0.929  0.000
 -0.052  0.000  0.874
atom    8   Tr[ns(na)] =   5.42706
    eigenvalues: 
  0.837  0.929  0.947
    eigenvectors:
  0.337  0.000  0.663
  0.495  0.253  0.252
  0.168  0.747  0.085
    occupations:
  0.910 -0.045  0.026
 -0.045  0.888  0.024
  0.026  0.024  0.915
atom    9   Tr[ns(na)] =   5.42654
    eigenvalues: 
  0.837  0.929  0.947
    eigenvectors:
  0.337  0.000  0.663
  0.500  0.247  0.253
  0.163  0.753  0.084
    occupations:
  0.910  0.045  0.026
  0.045  0.888 -0.024
  0.026 -0.024  0.916
atom   10   Tr[ns(na)] =   5.42653
    eigenvalues: 
  0.837  0.929  0.947
    eigenvectors:
  0.337  0.000  0.663
  0.000  1.000  0.000
  0.663  0.000  0.337
    occupations:
  0.910  0.000 -0.052
  0.000  0.929  0.000
 -0.052  0.000  0.874
N of occupied +U levels =  56.2988241
 --- exit write_ns ---
 --- in v_hubbard ---
Hubbard energy    0.4338
 -------

     total cpu time spent up to now is      165.4 secs

     total energy              =    -537.86268629 Ry
     Harris-Foulkes estimate   =    -537.86272877 Ry
     estimated scf accuracy    <       0.00121156 Ry

     iteration #  5     ecut=    30.00 Ry     beta=0.20
     Davidson diagonalization with overlap
     ethr =  1.59E-06,  avg # of iterations =  2.0
 --- enter write_ns ---
 LDA+U parameters:
U( 1)     =  5.00000000
alpha( 1) =  0.00000000
U( 2)     =  0.00000000
alpha( 2) =  0.00000000
U( 3)     =  0.00000000
alpha( 3) =  0.15000000
U( 4)     =  0.00000000
alpha( 4) =  0.00000000
atom    1   Tr[ns(na)] =   8.06507
    eigenvalues: 
  0.522  0.524  0.995  0.995  0.998
    eigenvectors:
  0.000  0.000  0.000  0.001  0.999
  0.099  0.560  0.146  0.195  0.000
  0.560  0.099  0.195  0.146  0.000
  0.172  0.169  0.137  0.522  0.000
  0.169  0.172  0.521  0.137  0.000
    occupations:
  0.998  0.000  0.000  0.000  0.000
  0.000  0.684  0.000 -0.083  0.207
  0.000  0.000  0.683  0.208  0.084
  0.000 -0.083  0.208  0.834  0.000
  0.000  0.207  0.084  0.000  0.834
atom    2   Tr[ns(na)] =   8.05668
    eigenvalues: 
  0.519  0.521  0.995  0.995  0.998
    eigenvectors:
  0.000  0.000  0.000  0.001  0.999
  0.240  0.418  0.035  0.306  0.000
  0.418  0.240  0.307  0.035  0.000
  0.317  0.024  0.656  0.002  0.000
  0.024  0.317  0.002  0.656  0.001
    occupations:
  0.998  0.000  0.000  0.000  0.000
  0.000  0.682 -0.001  0.084  0.209
  0.000 -0.001  0.682  0.209 -0.083
  0.000  0.084  0.209  0.833  0.000
  0.000  0.209 -0.083  0.000  0.833
atom    3   Tr[ns(na)] =   3.79835
    eigenvalues: 
  0.357  0.357  0.382  0.402  0.402
    eigenvectors:
  0.000  0.000  1.000  0.000  0.000
  0.694  0.229  0.000  0.017  0.060
  0.229  0.693  0.000  0.060  0.017
  0.020  0.057  0.000  0.716  0.207
  0.057  0.020  0.000  0.207  0.716
    occupations:
  0.382  0.000  0.000  0.000  0.000
  0.000  0.360  0.000  0.000  0.012
  0.000  0.000  0.360  0.012  0.000
  0.000  0.000  0.012  0.399  0.000
  0.000  0.012  0.000  0.000  0.399
atom    4   Tr[ns(na)] =   3.79831
    eigenvalues: 
  0.357  0.357  0.382  0.402  0.402
    eigenvectors:
  0.000  0.000  1.000  0.000  0.000
  0.240  0.681  0.000  0.019  0.060
  0.682  0.240  0.000  0.059  0.019
  0.057  0.021  0.000  0.692  0.230
  0.021  0.058  0.000  0.230  0.691
    occupations:
  0.382  0.000  0.000  0.000  0.000
  0.000  0.360  0.000  0.000  0.012
  0.000  0.000  0.360  0.012  0.000
  0.000  0.000  0.012  0.398  0.000
  0.000  0.012  0.000  0.000  0.398
atom    5   Tr[ns(na)] =   5.42095
    eigenvalues: 
  0.835  0.928  0.947
    eigenvectors:
  0.337  0.000  0.663
  0.497  0.250  0.252
  0.166  0.750  0.085
    occupations:
  0.909 -0.046  0.026
 -0.046  0.887  0.024
  0.026  0.024  0.915
atom    6   Tr[ns(na)] =   5.43117
    eigenvalues: 
  0.838  0.930  0.948
    eigenvectors:
  0.337  0.000  0.663
  0.497  0.251  0.252
  0.166  0.749  0.085
    occupations:
  0.911  0.045  0.026
  0.045  0.889 -0.024
  0.026 -0.024  0.916
atom    7   Tr[ns(na)] =   5.43117
    eigenvalues: 
  0.838  0.930  0.948
    eigenvectors:
  0.337  0.000  0.663
  0.000  1.000  0.000
  0.663  0.000  0.337
    occupations:
  0.911  0.000 -0.052
  0.000  0.930  0.000
 -0.052  0.000  0.875
atom    8   Tr[ns(na)] =   5.43089
    eigenvalues: 
  0.838  0.930  0.947
    eigenvectors:
  0.337  0.000  0.663
  0.497  0.250  0.252
  0.166  0.750  0.085
    occupations:
  0.911 -0.045  0.026
 -0.045  0.889  0.024
  0.026  0.024  0.916
atom    9   Tr[ns(na)] =   5.43113
    eigenvalues: 
  0.838  0.930  0.948
    eigenvectors:
  0.337  0.000  0.663
  0.498  0.250  0.252
  0.166  0.750  0.084
    occupations:
  0.911  0.045  0.026
  0.045  0.889 -0.024
  0.026 -0.024  0.916
atom   10   Tr[ns(na)] =   5.43112
    eigenvalues: 
  0.838  0.930  0.948
    eigenvectors:
  0.337  0.000  0.663
  0.000  1.000  0.000
  0.663  0.000  0.337
    occupations:
  0.911  0.000 -0.052
  0.000  0.930  0.000
 -0.052  0.000  0.875
N of occupied +U levels =  56.2948282
 --- exit write_ns ---
 --- in v_hubbard ---
Hubbard energy    0.4330
 -------

     total cpu time spent up to now is      191.3 secs

     total energy              =    -537.86291057 Ry
     Harris-Foulkes estimate   =    -537.86282409 Ry
     estimated scf accuracy    <       0.00024247 Ry

     iteration #  6     ecut=    30.00 Ry     beta=0.20
     Davidson diagonalization with overlap
     ethr =  3.19E-07,  avg # of iterations =  1.2
 --- enter write_ns ---
 LDA+U parameters:
U( 1)     =  5.00000000
alpha( 1) =  0.00000000
U( 2)     =  0.00000000
alpha( 2) =  0.00000000
U( 3)     =  0.00000000
alpha( 3) =  0.15000000
U( 4)     =  0.00000000
alpha( 4) =  0.00000000
atom    1   Tr[ns(na)] =   8.05379
    eigenvalues: 
  0.519  0.521  0.995  0.995  0.998
    eigenvectors:
  0.000  0.000  0.000  0.001  0.999
  0.098  0.560  0.144  0.197  0.000
  0.560  0.099  0.197  0.144  0.000
  0.172  0.169  0.141  0.518  0.000
  0.169  0.172  0.518  0.140  0.000
    occupations:
  0.998  0.000  0.000  0.000  0.000
  0.000  0.683  0.000 -0.084  0.209
  0.000  0.000  0.682  0.209  0.085
  0.000 -0.084  0.209  0.833  0.000
  0.000  0.209  0.085  0.000  0.833
atom    2   Tr[ns(na)] =   8.05240
    eigenvalues: 
  0.518  0.520  0.995  0.995  0.998
    eigenvectors:
  0.000  0.000  0.000  0.001  0.999
  0.241  0.418  0.037  0.304  0.000
  0.418  0.240  0.305  0.037  0.000
  0.318  0.024  0.657  0.002  0.000
  0.024  0.318  0.001  0.657  0.001
    occupations:
  0.998  0.000  0.000  0.000  0.000
  0.000  0.682 -0.001  0.084  0.209
  0.000 -0.001  0.681  0.210 -0.084
  0.000  0.084  0.210  0.832  0.000
  0.000  0.209 -0.084  0.000  0.833
atom    3   Tr[ns(na)] =   3.79721
    eigenvalues: 
  0.356  0.357  0.381  0.402  0.402
    eigenvectors:
  0.000  0.000  1.000  0.000  0.000
  0.693  0.230  0.000  0.018  0.059
  0.230  0.693  0.000  0.059  0.018
  0.020  0.058  0.000  0.700  0.223
  0.058  0.020  0.000  0.223  0.700
    occupations:
  0.381  0.000  0.000  0.000  0.000
  0.000  0.360  0.000  0.000  0.012
  0.000  0.000  0.360  0.012  0.000
  0.000  0.000  0.012  0.398  0.000
  0.000  0.012  0.000  0.000  0.398
atom    4   Tr[ns(na)] =   3.79718
    eigenvalues: 
  0.357  0.357  0.382  0.402  0.402
    eigenvectors:
  0.000  0.000  1.000  0.000  0.000
  0.251  0.670  0.000  0.019  0.060
  0.671  0.251  0.000  0.059  0.019
  0.056  0.022  0.000  0.689  0.233
  0.022  0.057  0.000  0.233  0.688
    occupations:
  0.382  0.000  0.000  0.000  0.000
  0.000  0.360  0.000  0.000  0.012
  0.000  0.000  0.360  0.012  0.000
  0.000  0.000  0.012  0.398  0.000
  0.000  0.012  0.000  0.000  0.398
atom    5   Tr[ns(na)] =   5.42422
    eigenvalues: 
  0.836  0.929  0.947
    eigenvectors:
  0.337  0.000  0.663
  0.496  0.251  0.252
  0.167  0.749  0.085
    occupations:
  0.910 -0.045  0.026
 -0.045  0.887  0.024
  0.026  0.024  0.915
atom    6   Tr[ns(na)] =   5.43365
    eigenvalues: 
  0.839  0.930  0.948
    eigenvectors:
  0.337  0.000  0.663
  0.498  0.250  0.252
  0.165  0.750  0.085
    occupations:
  0.911  0.045  0.026
  0.045  0.889 -0.024
  0.026 -0.024  0.917
atom    7   Tr[ns(na)] =   5.43365
    eigenvalues: 
  0.839  0.930  0.948
    eigenvectors:
  0.337  0.000  0.663
  0.000  1.000  0.000
  0.663  0.000  0.337
    occupations:
  0.911  0.000 -0.051
  0.000  0.930  0.000
 -0.051  0.000  0.876
atom    8   Tr[ns(na)] =   5.43300
    eigenvalues: 
  0.839  0.930  0.948
    eigenvectors:
  0.337  0.000  0.663
  0.497  0.251  0.252
  0.167  0.749  0.085
    occupations:
  0.911 -0.045  0.026
 -0.045  0.889  0.024
  0.026  0.024  0.916
atom    9   Tr[ns(na)] =   5.43372
    eigenvalues: 
  0.839  0.930  0.948
    eigenvectors:
  0.336  0.000  0.664
  0.499  0.249  0.252
  0.165  0.751  0.084
    occupations:
  0.911  0.045  0.026
  0.045  0.889 -0.024
  0.026 -0.024  0.917
atom   10   Tr[ns(na)] =   5.43372
    eigenvalues: 
  0.839  0.930  0.948
    eigenvectors:
  0.336  0.000  0.664
  0.000  1.000  0.000
  0.664  0.000  0.336
    occupations:
  0.911  0.000 -0.051
  0.000  0.930  0.000
 -0.051  0.000  0.876
N of occupied +U levels =  56.2925536
 --- exit write_ns ---
 --- in v_hubbard ---
Hubbard energy    0.4340
 -------

     total cpu time spent up to now is      217.4 secs

     total energy              =    -537.86299837 Ry
     Harris-Foulkes estimate   =    -537.86293334 Ry
     estimated scf accuracy    <       0.00008772 Ry

     iteration #  7     ecut=    30.00 Ry     beta=0.20
     Davidson diagonalization with overlap
     ethr =  1.15E-07,  avg # of iterations =  2.1
 --- enter write_ns ---
 LDA+U parameters:
U( 1)     =  5.00000000
alpha( 1) =  0.00000000
U( 2)     =  0.00000000
alpha( 2) =  0.00000000
U( 3)     =  0.00000000
alpha( 3) =  0.15000000
U( 4)     =  0.00000000
alpha( 4) =  0.00000000
atom    1   Tr[ns(na)] =   8.05064
    eigenvalues: 
  0.518  0.520  0.995  0.995  0.998
    eigenvectors:
  0.000  0.000  0.000  0.001  0.999
  0.098  0.560  0.139  0.203  0.000
  0.560  0.098  0.203  0.139  0.000
  0.172  0.170  0.148  0.510  0.000
  0.170  0.172  0.510  0.148  0.000
    occupations:
  0.998  0.000  0.000  0.000  0.000
  0.000  0.682  0.000 -0.085  0.209
  0.000  0.000  0.681  0.209  0.085
  0.000 -0.085  0.209  0.832  0.000
  0.000  0.209  0.085  0.000  0.832
atom    2   Tr[ns(na)] =   8.04820
    eigenvalues: 
  0.517  0.519  0.995  0.995  0.998
    eigenvectors:
  0.000  0.000  0.000  0.001  0.999
  0.241  0.417  0.041  0.300  0.000
  0.417  0.241  0.301  0.041  0.000
  0.318  0.024  0.658  0.001  0.000
  0.024  0.318  0.001  0.657  0.001
    occupations:
  0.998  0.000  0.000  0.000  0.000
  0.000  0.681 -0.001  0.085  0.210
  0.000 -0.001  0.681  0.210 -0.084
  0.000  0.085  0.210  0.832  0.000
  0.000  0.210 -0.084  0.000  0.832
atom    3   Tr[ns(na)] =   3.79310
    eigenvalues: 
  0.356  0.356  0.381  0.402  0.402
    eigenvectors:
  0.000  0.000  1.000  0.000  0.000
  0.691  0.230  0.000  0.015  0.063
  0.230  0.691  0.000  0.063  0.015
  0.020  0.058  0.000  0.733  0.189
  0.058  0.020  0.000  0.189  0.733
    occupations:
  0.381  0.000  0.000  0.000  0.000
  0.000  0.360  0.000  0.000  0.012
  0.000  0.000  0.360  0.012  0.000
  0.000  0.000  0.012  0.398  0.000
  0.000  0.012  0.000  0.000  0.398
atom    4   Tr[ns(na)] =   3.79306
    eigenvalues: 
  0.356  0.356  0.381  0.401  0.402
    eigenvectors:
  0.000  0.000  1.000  0.000  0.000
  0.280  0.640  0.000  0.019  0.061
  0.641  0.280  0.000  0.059  0.020
  0.054  0.025  0.000  0.689  0.232
  0.025  0.055  0.000  0.232  0.688
    occupations:
  0.381  0.000  0.000  0.000  0.000
  0.000  0.360  0.000  0.000  0.012
  0.000  0.000  0.360  0.012  0.000
  0.000  0.000  0.012  0.398  0.000
  0.000  0.012  0.000  0.000  0.398
atom    5   Tr[ns(na)] =   5.42625
    eigenvalues: 
  0.837  0.929  0.947
    eigenvectors:
  0.337  0.000  0.663
  0.496  0.251  0.252
  0.166  0.749  0.085
    occupations:
  0.910 -0.045  0.026
 -0.045  0.888  0.024
  0.026  0.024  0.915
atom    6   Tr[ns(na)] =   5.43560
    eigenvalues: 
  0.839  0.930  0.948
    eigenvectors:
  0.337  0.000  0.663
  0.497  0.250  0.253
  0.165  0.750  0.085
    occupations:
  0.911  0.045  0.026
  0.045  0.890 -0.024
  0.026 -0.024  0.917
atom    7   Tr[ns(na)] =   5.43560
    eigenvalues: 
  0.839  0.930  0.948
    eigenvectors:
  0.337  0.000  0.663
  0.000  1.000  0.000
  0.663  0.000  0.337
    occupations:
  0.911  0.000 -0.051
  0.000  0.930  0.000
 -0.051  0.000  0.876
atom    8   Tr[ns(na)] =   5.43468
    eigenvalues: 
  0.839  0.930  0.948
    eigenvectors:
  0.337  0.000  0.663
  0.497  0.251  0.252
  0.166  0.749  0.085
    occupations:
  0.911 -0.044  0.026
 -0.044  0.889  0.024
  0.026  0.024  0.917
atom    9   Tr[ns(na)] =   5.43570
    eigenvalues: 
  0.839  0.930  0.948
    eigenvectors:
  0.337  0.000  0.663
  0.498  0.249  0.252
  0.165  0.751  0.084
    occupations:
  0.911  0.045  0.026
  0.045  0.889 -0.024
  0.026 -0.024  0.917
atom   10   Tr[ns(na)] =   5.43571
    eigenvalues: 
  0.839  0.930  0.948
    eigenvectors:
  0.337  0.000  0.663
  0.000  1.000  0.000
  0.663  0.000  0.337
    occupations:
  0.911  0.000 -0.051
  0.000  0.930  0.000
 -0.051  0.000  0.876
N of occupied +U levels =  56.2885419
 --- exit write_ns ---
 --- in v_hubbard ---
Hubbard energy    0.4345
 -------

     total cpu time spent up to now is      248.3 secs

     total energy              =    -537.86307535 Ry
     Harris-Foulkes estimate   =    -537.86301490 Ry
     estimated scf accuracy    <       0.00004689 Ry

     iteration #  8     ecut=    30.00 Ry     beta=0.20
     Davidson diagonalization with overlap
     ethr =  6.17E-08,  avg # of iterations =  1.2
 --- enter write_ns ---
 LDA+U parameters:
U( 1)     =  5.00000000
alpha( 1) =  0.00000000
U( 2)     =  0.00000000
alpha( 2) =  0.00000000
U( 3)     =  0.00000000
alpha( 3) =  0.15000000
U( 4)     =  0.00000000
alpha( 4) =  0.00000000
atom    1   Tr[ns(na)] =   8.05435
    eigenvalues: 
  0.519  0.521  0.995  0.995  0.998
    eigenvectors:
  0.000  0.000  0.000  0.001  0.999
  0.098  0.560  0.140  0.202  0.000
  0.560  0.098  0.202  0.139  0.000
  0.172  0.170  0.147  0.511  0.000
  0.170  0.172  0.511  0.147  0.000
    occupations:
  0.998  0.000  0.000  0.000  0.000
  0.000  0.683  0.000 -0.084  0.209
  0.000  0.000  0.682  0.209  0.085
  0.000 -0.084  0.209  0.833  0.000
  0.000  0.209  0.085  0.000  0.832
atom    2   Tr[ns(na)] =   8.05122
    eigenvalues: 
  0.518  0.519  0.995  0.995  0.998
    eigenvectors:
  0.000  0.000  0.000  0.001  0.999
  0.241  0.417  0.041  0.301  0.000
  0.417  0.241  0.301  0.041  0.000
  0.318  0.024  0.657  0.001  0.000
  0.024  0.318  0.001  0.657  0.001
    occupations:
  0.998  0.000  0.000  0.000  0.000
  0.000  0.681 -0.001  0.085  0.209
  0.000 -0.001  0.681  0.210 -0.084
  0.000  0.085  0.210  0.832  0.000
  0.000  0.209 -0.084  0.000  0.833
atom    3   Tr[ns(na)] =   3.79465
    eigenvalues: 
  0.356  0.356  0.381  0.402  0.402
    eigenvectors:
  0.000  0.000  1.000  0.000  0.000
  0.691  0.230  0.000  0.015  0.063
  0.230  0.692  0.000  0.063  0.015
  0.020  0.058  0.000  0.743  0.179
  0.058  0.020  0.000  0.179  0.743
    occupations:
  0.381  0.000  0.000  0.000  0.000
  0.000  0.360  0.000  0.000  0.012
  0.000  0.000  0.360  0.012  0.000
  0.000  0.000  0.012  0.398  0.000
  0.000  0.012  0.000  0.000  0.398
atom    4   Tr[ns(na)] =   3.79460
    eigenvalues: 
  0.356  0.356  0.381  0.402  0.402
    eigenvectors:
  0.000  0.000  1.000  0.000  0.000
  0.251  0.670  0.000  0.019  0.061
  0.671  0.250  0.000  0.059  0.019
  0.056  0.022  0.000  0.691  0.230
  0.022  0.058  0.000  0.230  0.690
    occupations:
  0.381  0.000  0.000  0.000  0.000
  0.000  0.360  0.000  0.000  0.012
  0.000  0.000  0.360  0.012  0.000
  0.000  0.000  0.012  0.398  0.000
  0.000  0.012  0.000  0.000  0.398
atom    5   Tr[ns(na)] =   5.42477
    eigenvalues: 
  0.836  0.929  0.947
    eigenvectors:
  0.337  0.000  0.663
  0.496  0.251  0.252
  0.166  0.749  0.085
    occupations:
  0.910 -0.045  0.026
 -0.045  0.888  0.024
  0.026  0.024  0.915
atom    6   Tr[ns(na)] =   5.43420
    eigenvalues: 
  0.839  0.930  0.948
    eigenvectors:
  0.337  0.000  0.663
  0.497  0.250  0.253
  0.165  0.750  0.085
    occupations:
  0.911  0.045  0.026
  0.045  0.889 -0.024
  0.026 -0.024  0.917
atom    7   Tr[ns(na)] =   5.43420
    eigenvalues: 
  0.839  0.930  0.948
    eigenvectors:
  0.337  0.000  0.663
  0.000  1.000  0.000
  0.663  0.000  0.337
    occupations:
  0.911  0.000 -0.052
  0.000  0.930  0.000
 -0.052  0.000  0.876
atom    8   Tr[ns(na)] =   5.43349
    eigenvalues: 
  0.839  0.930  0.948
    eigenvectors:
  0.337  0.000  0.663
  0.497  0.251  0.252
  0.166  0.749  0.085
    occupations:
  0.911 -0.045  0.026
 -0.045  0.889  0.024
  0.026  0.024  0.917
atom    9   Tr[ns(na)] =   5.43428
    eigenvalues: 
  0.839  0.930  0.948
    eigenvectors:
  0.337  0.000  0.663
  0.498  0.249  0.252
  0.165  0.751  0.084
    occupations:
  0.911  0.045  0.026
  0.045  0.889 -0.024
  0.026 -0.024  0.917
atom   10   Tr[ns(na)] =   5.43428
    eigenvalues: 
  0.839  0.930  0.948
    eigenvectors:
  0.337  0.000  0.663
  0.000  1.000  0.000
  0.663  0.000  0.337
    occupations:
  0.911  0.000 -0.052
  0.000  0.930  0.000
 -0.052  0.000  0.876
N of occupied +U levels =  56.2900434
 --- exit write_ns ---
 --- in v_hubbard ---
Hubbard energy    0.4352
 -------

     total cpu time spent up to now is      274.2 secs

     total energy              =    -537.86311976 Ry
     Harris-Foulkes estimate   =    -537.86308043 Ry
     estimated scf accuracy    <       0.00000577 Ry

     iteration #  9     ecut=    30.00 Ry     beta=0.20
     Davidson diagonalization with overlap
     ethr =  7.59E-09,  avg # of iterations =  2.0
 --- enter write_ns ---
 LDA+U parameters:
U( 1)     =  5.00000000
alpha( 1) =  0.00000000
U( 2)     =  0.00000000
alpha( 2) =  0.00000000
U( 3)     =  0.00000000
alpha( 3) =  0.15000000
U( 4)     =  0.00000000
alpha( 4) =  0.00000000
atom    1   Tr[ns(na)] =   8.05335
    eigenvalues: 
  0.519  0.521  0.995  0.995  0.998
    eigenvectors:
  0.000  0.000  0.000  0.001  0.999
  0.098  0.560  0.138  0.204  0.000
  0.560  0.098  0.204  0.138  0.000
  0.172  0.170  0.149  0.509  0.000
  0.170  0.172  0.509  0.148  0.000
    occupations:
  0.998  0.000  0.000  0.000  0.000
  0.000  0.683  0.000 -0.085  0.209
  0.000  0.000  0.682  0.209  0.086
  0.000 -0.085  0.209  0.833  0.000
  0.000  0.209  0.086  0.000  0.832
atom    2   Tr[ns(na)] =   8.05044
    eigenvalues: 
  0.517  0.519  0.995  0.995  0.998
    eigenvectors:
  0.000  0.000  0.000  0.001  0.999
  0.242  0.417  0.042  0.300  0.000
  0.416  0.242  0.300  0.042  0.000
  0.318  0.024  0.658  0.001  0.000
  0.024  0.318  0.000  0.657  0.001
    occupations:
  0.998  0.000  0.000  0.000  0.000
  0.000  0.681 -0.001  0.085  0.209
  0.000 -0.001  0.681  0.210 -0.085
  0.000  0.085  0.210  0.832  0.000
  0.000  0.209 -0.085  0.000  0.833
atom    3   Tr[ns(na)] =   3.79515
    eigenvalues: 
  0.356  0.356  0.381  0.402  0.402
    eigenvectors:
  0.000  0.000  1.000  0.000  0.000
  0.692  0.230  0.000  0.016  0.062
  0.230  0.692  0.000  0.062  0.016
  0.020  0.058  0.000  0.729  0.193
  0.058  0.020  0.000  0.193  0.729
    occupations:
  0.381  0.000  0.000  0.000  0.000
  0.000  0.360  0.000  0.000  0.012
  0.000  0.000  0.360  0.012  0.000
  0.000  0.000  0.012  0.398  0.000
  0.000  0.012  0.000  0.000  0.398
atom    4   Tr[ns(na)] =   3.79511
    eigenvalues: 
  0.356  0.356  0.381  0.402  0.402
    eigenvectors:
  0.000  0.000  1.000  0.000  0.000
  0.247  0.673  0.000  0.019  0.061
  0.674  0.247  0.000  0.059  0.019
  0.057  0.022  0.000  0.690  0.231
  0.022  0.058  0.000  0.232  0.689
    occupations:
  0.381  0.000  0.000  0.000  0.000
  0.000  0.360  0.000  0.000  0.012
  0.000  0.000  0.360  0.012  0.000
  0.000  0.000  0.012  0.398  0.000
  0.000  0.012  0.000  0.000  0.398
atom    5   Tr[ns(na)] =   5.42483
    eigenvalues: 
  0.836  0.929  0.947
    eigenvectors:
  0.337  0.000  0.663
  0.496  0.251  0.252
  0.166  0.749  0.085
    occupations:
  0.910 -0.045  0.026
 -0.045  0.888  0.024
  0.026  0.024  0.915
atom    6   Tr[ns(na)] =   5.43432
    eigenvalues: 
  0.839  0.930  0.948
    eigenvectors:
  0.337  0.000  0.663
  0.497  0.250  0.253
  0.165  0.750  0.085
    occupations:
  0.911  0.045  0.026
  0.045  0.889 -0.024
  0.026 -0.024  0.917
atom    7   Tr[ns(na)] =   5.43432
    eigenvalues: 
  0.839  0.930  0.948
    eigenvectors:
  0.337  0.000  0.663
  0.000  1.000  0.000
  0.663  0.000  0.337
    occupations:
  0.911  0.000 -0.052
  0.000  0.930  0.000
 -0.052  0.000  0.876
atom    8   Tr[ns(na)] =   5.43362
    eigenvalues: 
  0.839  0.930  0.948
    eigenvectors:
  0.337  0.000  0.663
  0.497  0.251  0.252
  0.166  0.749  0.085
    occupations:
  0.911 -0.045  0.026
 -0.045  0.889  0.024
  0.026  0.024  0.917
atom    9   Tr[ns(na)] =   5.43439
    eigenvalues: 
  0.839  0.930  0.948
    eigenvectors:
  0.337  0.000  0.663
  0.498  0.249  0.252
  0.165  0.751  0.084
    occupations:
  0.911  0.045  0.026
  0.045  0.889 -0.024
  0.026 -0.024  0.917
atom   10   Tr[ns(na)] =   5.43439
    eigenvalues: 
  0.839  0.930  0.948
    eigenvectors:
  0.337  0.000  0.663
  0.000  1.000  0.000
  0.663  0.000  0.337
    occupations:
  0.911  0.000 -0.051
  0.000  0.930  0.000
 -0.051  0.000  0.876
N of occupied +U levels =  56.2899195
 --- exit write_ns ---
 --- in v_hubbard ---
Hubbard energy    0.4354
 -------

     total cpu time spent up to now is      302.7 secs

     total energy              =    -537.86314926 Ry
     Harris-Foulkes estimate   =    -537.86312080 Ry
     estimated scf accuracy    <       0.00000167 Ry

     iteration # 10     ecut=    30.00 Ry     beta=0.20
     Davidson diagonalization with overlap
     ethr =  2.20E-09,  avg # of iterations =  2.1
 --- enter write_ns ---
 LDA+U parameters:
U( 1)     =  5.00000000
alpha( 1) =  0.00000000
U( 2)     =  0.00000000
alpha( 2) =  0.00000000
U( 3)     =  0.00000000
alpha( 3) =  0.15000000
U( 4)     =  0.00000000
alpha( 4) =  0.00000000
atom    1   Tr[ns(na)] =   8.05454
    eigenvalues: 
  0.519  0.521  0.995  0.995  0.998
    eigenvectors:
  0.000  0.000  0.000  0.001  0.999
  0.098  0.560  0.138  0.203  0.000
  0.561  0.098  0.204  0.138  0.000
  0.172  0.170  0.148  0.510  0.000
  0.170  0.172  0.510  0.148  0.000
    occupations:
  0.998  0.000  0.000  0.000  0.000
  0.000  0.683  0.000 -0.085  0.208
  0.000  0.000  0.682  0.209  0.086
  0.000 -0.085  0.209  0.833  0.000
  0.000  0.208  0.086  0.000  0.832
atom    2   Tr[ns(na)] =   8.05172
    eigenvalues: 
  0.518  0.520  0.995  0.995  0.998
    eigenvectors:
  0.000  0.000  0.000  0.001  0.999
  0.242  0.417  0.041  0.300  0.000
  0.416  0.242  0.300  0.041  0.000
  0.318  0.024  0.658  0.001  0.000
  0.024  0.318  0.001  0.657  0.001
    occupations:
  0.998  0.000  0.000  0.000  0.000
  0.000  0.682 -0.001  0.085  0.209
  0.000 -0.001  0.681  0.210 -0.085
  0.000  0.085  0.210  0.832  0.000
  0.000  0.209 -0.085  0.000  0.833
atom    3   Tr[ns(na)] =   3.79505
    eigenvalues: 
  0.356  0.356  0.381  0.402  0.402
    eigenvectors:
  0.000  0.000  1.000  0.000  0.000
  0.692  0.230  0.000  0.016  0.062
  0.230  0.692  0.000  0.062  0.016
  0.020  0.058  0.000  0.722  0.200
  0.058  0.020  0.000  0.200  0.722
    occupations:
  0.381  0.000  0.000  0.000  0.000
  0.000  0.360  0.000  0.000  0.012
  0.000  0.000  0.360  0.012  0.000
  0.000  0.000  0.012  0.398  0.000
  0.000  0.012  0.000  0.000  0.398
atom    4   Tr[ns(na)] =   3.79501
    eigenvalues: 
  0.356  0.356  0.381  0.402  0.402
    eigenvectors:
  0.000  0.000  1.000  0.000  0.000
  0.249  0.671  0.000  0.019  0.060
  0.672  0.249  0.000  0.059  0.020
  0.057  0.022  0.000  0.689  0.232
  0.022  0.058  0.000  0.233  0.688
    occupations:
  0.381  0.000  0.000  0.000  0.000
  0.000  0.360  0.000  0.000  0.012
  0.000  0.000  0.360  0.012  0.000
  0.000  0.000  0.012  0.398  0.000
  0.000  0.012  0.000  0.000  0.398
atom    5   Tr[ns(na)] =   5.42443
    eigenvalues: 
  0.836  0.929  0.947
    eigenvectors:
  0.337  0.000  0.663
  0.496  0.251  0.252
  0.166  0.749  0.085
    occupations:
  0.910 -0.045  0.026
 -0.045  0.887  0.024
  0.026  0.024  0.915
atom    6   Tr[ns(na)] =   5.43396
    eigenvalues: 
  0.839  0.930  0.948
    eigenvectors:
  0.337  0.000  0.663
  0.497  0.250  0.253
  0.165  0.750  0.085
    occupations:
  0.911  0.045  0.026
  0.045  0.889 -0.024
  0.026 -0.024  0.917
atom    7   Tr[ns(na)] =   5.43397
    eigenvalues: 
  0.839  0.930  0.948
    eigenvectors:
  0.337  0.000  0.663
  0.000  1.000  0.000
  0.663  0.000  0.337
    occupations:
  0.911  0.000 -0.052
  0.000  0.930  0.000
 -0.052  0.000  0.876
atom    8   Tr[ns(na)] =   5.43321
    eigenvalues: 
  0.839  0.930  0.948
    eigenvectors:
  0.337  0.000  0.663
  0.497  0.251  0.252
  0.166  0.749  0.085
    occupations:
  0.911 -0.045  0.026
 -0.045  0.889  0.024
  0.026  0.024  0.916
atom    9   Tr[ns(na)] =   5.43403
    eigenvalues: 
  0.839  0.930  0.948
    eigenvectors:
  0.337  0.000  0.663
  0.498  0.249  0.252
  0.165  0.751  0.084
    occupations:
  0.911  0.045  0.026
  0.045  0.889 -0.024
  0.026 -0.024  0.917
atom   10   Tr[ns(na)] =   5.43404
    eigenvalues: 
  0.839  0.930  0.948
    eigenvectors:
  0.337  0.000  0.663
  0.000  1.000  0.000
  0.663  0.000  0.337
    occupations:
  0.911  0.000 -0.052
  0.000  0.930  0.000
 -0.052  0.000  0.876
N of occupied +U levels =  56.2899662
 --- exit write_ns ---
 --- in v_hubbard ---
Hubbard energy    0.4356
 -------

     total cpu time spent up to now is      332.7 secs

     total energy              =    -537.86316633 Ry
     Harris-Foulkes estimate   =    -537.86314989 Ry
     estimated scf accuracy    <       0.00000343 Ry

     iteration # 11     ecut=    30.00 Ry     beta=0.20
     Davidson diagonalization with overlap
     ethr =  2.20E-09,  avg # of iterations =  2.0
 --- enter write_ns ---
 LDA+U parameters:
U( 1)     =  5.00000000
alpha( 1) =  0.00000000
U( 2)     =  0.00000000
alpha( 2) =  0.00000000
U( 3)     =  0.00000000
alpha( 3) =  0.15000000
U( 4)     =  0.00000000
alpha( 4) =  0.00000000
atom    1   Tr[ns(na)] =   8.05316
    eigenvalues: 
  0.519  0.520  0.995  0.995  0.998
    eigenvectors:
  0.000  0.000  0.000  0.001  0.999
  0.097  0.561  0.137  0.204  0.000
  0.561  0.098  0.205  0.137  0.000
  0.171  0.170  0.150  0.509  0.000
  0.170  0.172  0.509  0.149  0.000
    occupations:
  0.998  0.000  0.000  0.000  0.000
  0.000  0.683  0.000 -0.085  0.209
  0.000  0.000  0.681  0.209  0.086
  0.000 -0.085  0.209  0.833  0.000
  0.000  0.209  0.086  0.000  0.832
atom    2   Tr[ns(na)] =   8.05025
    eigenvalues: 
  0.517  0.519  0.995  0.995  0.998
    eigenvectors:
  0.000  0.000  0.000  0.001  0.999
  0.242  0.416  0.042  0.299  0.000
  0.416  0.242  0.300  0.042  0.000
  0.318  0.024  0.658  0.000  0.000
  0.023  0.318  0.000  0.657  0.001
    occupations:
  0.998  0.000  0.000  0.000  0.000
  0.000  0.681 -0.001  0.086  0.209
  0.000 -0.001  0.681  0.210 -0.085
  0.000  0.086  0.210  0.832  0.000
  0.000  0.209 -0.085  0.000  0.833
atom    3   Tr[ns(na)] =   3.79498
    eigenvalues: 
  0.356  0.356  0.381  0.402  0.402
    eigenvectors:
  0.000  0.000  1.000  0.000  0.000
  0.692  0.230  0.000  0.016  0.062
  0.230  0.692  0.000  0.062  0.016
  0.020  0.058  0.000  0.721  0.201
  0.058  0.020  0.000  0.201  0.721
    occupations:
  0.381  0.000  0.000  0.000  0.000
  0.000  0.360  0.000  0.000  0.012
  0.000  0.000  0.360  0.012  0.000
  0.000  0.000  0.012  0.398  0.000
  0.000  0.012  0.000  0.000  0.398
atom    4   Tr[ns(na)] =   3.79494
    eigenvalues: 
  0.356  0.356  0.381  0.402  0.402
    eigenvectors:
  0.000  0.000  1.000  0.000  0.000
  0.249  0.671  0.000  0.019  0.060
  0.672  0.249  0.000  0.059  0.020
  0.057  0.022  0.000  0.688  0.233
  0.022  0.058  0.000  0.233  0.687
    occupations:
  0.381  0.000  0.000  0.000  0.000
  0.000  0.360  0.000  0.000  0.012
  0.000  0.000  0.360  0.012  0.000
  0.000  0.000  0.012  0.398  0.000
  0.000  0.012  0.000  0.000  0.398
atom    5   Tr[ns(na)] =   5.42492
    eigenvalues: 
  0.836  0.929  0.947
    eigenvectors:
  0.337  0.000  0.663
  0.496  0.251  0.252
  0.166  0.749  0.085
    occupations:
  0.910 -0.045  0.026
 -0.045  0.888  0.024
  0.026  0.024  0.915
atom    6   Tr[ns(na)] =   5.43440
    eigenvalues: 
  0.839  0.930  0.948
    eigenvectors:
  0.337  0.000  0.663
  0.497  0.250  0.252
  0.165  0.750  0.085
    occupations:
  0.911  0.045  0.026
  0.045  0.889 -0.024
  0.026 -0.024  0.917
atom    7   Tr[ns(na)] =   5.43440
    eigenvalues: 
  0.839  0.930  0.948
    eigenvectors:
  0.337  0.000  0.663
  0.000  1.000  0.000
  0.663  0.000  0.337
    occupations:
  0.911  0.000 -0.052
  0.000  0.930  0.000
 -0.052  0.000  0.876
atom    8   Tr[ns(na)] =   5.43366
    eigenvalues: 
  0.839  0.930  0.948
    eigenvectors:
  0.337  0.000  0.663
  0.497  0.251  0.252
  0.166  0.749  0.085
    occupations:
  0.911 -0.045  0.026
 -0.045  0.889  0.024
  0.026  0.024  0.917
atom    9   Tr[ns(na)] =   5.43447
    eigenvalues: 
  0.839  0.930  0.948
    eigenvectors:
  0.337  0.000  0.663
  0.498  0.249  0.252
  0.165  0.751  0.084
    occupations:
  0.911  0.045  0.026
  0.045  0.889 -0.024
  0.026 -0.024  0.917
atom   10   Tr[ns(na)] =   5.43447
    eigenvalues: 
  0.839  0.930  0.948
    eigenvectors:
  0.337  0.000  0.663
  0.000  1.000  0.000
  0.663  0.000  0.337
    occupations:
  0.911  0.000 -0.051
  0.000  0.930  0.000
 -0.051  0.000  0.876
N of occupied +U levels =  56.2896503
 --- exit write_ns ---
 --- in v_hubbard ---
Hubbard energy    0.4356
 -------

     total cpu time spent up to now is      361.3 secs

     total energy              =    -537.86317898 Ry
     Harris-Foulkes estimate   =    -537.86316696 Ry
     estimated scf accuracy    <       0.00000035 Ry

     iteration # 12     ecut=    30.00 Ry     beta=0.20
     Davidson diagonalization with overlap
     ethr =  4.61E-10,  avg # of iterations =  1.0
 --- enter write_ns ---
 LDA+U parameters:
U( 1)     =  5.00000000
alpha( 1) =  0.00000000
U( 2)     =  0.00000000
alpha( 2) =  0.00000000
U( 3)     =  0.00000000
alpha( 3) =  0.15000000
U( 4)     =  0.00000000
alpha( 4) =  0.00000000
atom    1   Tr[ns(na)] =   8.05348
    eigenvalues: 
  0.519  0.521  0.995  0.995  0.998
    eigenvectors:
  0.000  0.000  0.000  0.001  0.999
  0.097  0.561  0.137  0.205  0.000
  0.561  0.098  0.205  0.137  0.000
  0.171  0.170  0.150  0.508  0.000
  0.170  0.172  0.508  0.149  0.000
    occupations:
  0.998  0.000  0.000  0.000  0.000
  0.000  0.683  0.000 -0.085  0.209
  0.000  0.000  0.681  0.209  0.086
  0.000 -0.085  0.209  0.833  0.000
  0.000  0.209  0.086  0.000  0.832
atom    2   Tr[ns(na)] =   8.05060
    eigenvalues: 
  0.517  0.519  0.995  0.995  0.998
    eigenvectors:
  0.000  0.000  0.000  0.001  0.999
  0.242  0.416  0.042  0.299  0.000
  0.416  0.242  0.300  0.042  0.000
  0.318  0.024  0.658  0.000  0.000
  0.023  0.318  0.000  0.657  0.001
    occupations:
  0.998  0.000  0.000  0.000  0.000
  0.000  0.681 -0.001  0.086  0.209
  0.000 -0.001  0.681  0.210 -0.085
  0.000  0.086  0.210  0.832  0.000
  0.000  0.209 -0.085  0.000  0.833
atom    3   Tr[ns(na)] =   3.79509
    eigenvalues: 
  0.356  0.356  0.381  0.402  0.402
    eigenvectors:
  0.000  0.000  1.000  0.000  0.000
  0.692  0.230  0.000  0.016  0.062
  0.230  0.692  0.000  0.062  0.016
  0.020  0.058  0.000  0.724  0.198
  0.058  0.020  0.000  0.198  0.724
    occupations:
  0.381  0.000  0.000  0.000  0.000
  0.000  0.360  0.000  0.000  0.012
  0.000  0.000  0.360  0.012  0.000
  0.000  0.000  0.012  0.398  0.000
  0.000  0.012  0.000  0.000  0.398
atom    4   Tr[ns(na)] =   3.79505
    eigenvalues: 
  0.356  0.356  0.381  0.402  0.402
    eigenvectors:
  0.000  0.000  1.000  0.000  0.000
  0.249  0.672  0.000  0.019  0.060
  0.673  0.248  0.000  0.059  0.020
  0.057  0.022  0.000  0.688  0.233
  0.022  0.058  0.000  0.233  0.687
    occupations:
  0.381  0.000  0.000  0.000  0.000
  0.000  0.360  0.000  0.000  0.012
  0.000  0.000  0.360  0.012  0.000
  0.000  0.000  0.012  0.398  0.000
  0.000  0.012  0.000  0.000  0.398
atom    5   Tr[ns(na)] =   5.42478
    eigenvalues: 
  0.836  0.929  0.947
    eigenvectors:
  0.337  0.000  0.663
  0.496  0.251  0.252
  0.166  0.749  0.085
    occupations:
  0.910 -0.045  0.026
 -0.045  0.888  0.024
  0.026  0.024  0.915
atom    6   Tr[ns(na)] =   5.43428
    eigenvalues: 
  0.839  0.930  0.948
    eigenvectors:
  0.337  0.000  0.663
  0.497  0.250  0.252
  0.165  0.750  0.085
    occupations:
  0.911  0.045  0.026
  0.045  0.889 -0.024
  0.026 -0.024  0.917
atom    7   Tr[ns(na)] =   5.43428
    eigenvalues: 
  0.839  0.930  0.948
    eigenvectors:
  0.337  0.000  0.663
  0.000  1.000  0.000
  0.663  0.000  0.337
    occupations:
  0.911  0.000 -0.052
  0.000  0.930  0.000
 -0.052  0.000  0.876
atom    8   Tr[ns(na)] =   5.43356
    eigenvalues: 
  0.839  0.930  0.948
    eigenvectors:
  0.337  0.000  0.663
  0.497  0.251  0.252
  0.166  0.749  0.085
    occupations:
  0.911 -0.045  0.026
 -0.045  0.889  0.024
  0.026  0.024  0.917
atom    9   Tr[ns(na)] =   5.43435
    eigenvalues: 
  0.839  0.930  0.948
    eigenvectors:
  0.337  0.000  0.663
  0.498  0.249  0.252
  0.165  0.751  0.084
    occupations:
  0.911  0.045  0.026
  0.045  0.889 -0.024
  0.026 -0.024  0.917
atom   10   Tr[ns(na)] =   5.43434
    eigenvalues: 
  0.839  0.930  0.948
    eigenvectors:
  0.337  0.000  0.663
  0.000  1.000  0.000
  0.663  0.000  0.337
    occupations:
  0.911  0.000 -0.051
  0.000  0.930  0.000
 -0.051  0.000  0.876
N of occupied +U levels =  56.2897926
 --- exit write_ns ---
 --- in v_hubbard ---
Hubbard energy    0.4355
 -------

     total cpu time spent up to now is      387.3 secs

     total energy              =    -537.86318658 Ry
     Harris-Foulkes estimate   =    -537.86317904 Ry
     estimated scf accuracy    <       0.00000017 Ry

     iteration # 13     ecut=    30.00 Ry     beta=0.20
     Davidson diagonalization with overlap
     ethr =  2.19E-10,  avg # of iterations =  1.0
 --- enter write_ns ---
 LDA+U parameters:
U( 1)     =  5.00000000
alpha( 1) =  0.00000000
U( 2)     =  0.00000000
alpha( 2) =  0.00000000
U( 3)     =  0.00000000
alpha( 3) =  0.15000000
U( 4)     =  0.00000000
alpha( 4) =  0.00000000
atom    1   Tr[ns(na)] =   8.05340
    eigenvalues: 
  0.519  0.521  0.995  0.995  0.998
    eigenvectors:
  0.000  0.000  0.000  0.001  0.999
  0.097  0.561  0.136  0.205  0.000
  0.561  0.098  0.205  0.136  0.000
  0.171  0.170  0.150  0.508  0.000
  0.171  0.172  0.508  0.150  0.000
    occupations:
  0.998  0.000  0.000  0.000  0.000
  0.000  0.683  0.000 -0.085  0.208
  0.000  0.000  0.681  0.209  0.086
  0.000 -0.085  0.209  0.833  0.000
  0.000  0.208  0.086  0.000  0.832
atom    2   Tr[ns(na)] =   8.05053
    eigenvalues: 
  0.517  0.519  0.995  0.995  0.998
    eigenvectors:
  0.000  0.000  0.000  0.001  0.999
  0.242  0.416  0.043  0.298  0.000
  0.416  0.242  0.299  0.043  0.000
  0.318  0.024  0.658  0.000  0.000
  0.023  0.318  0.000  0.658  0.001
    occupations:
  0.998  0.000  0.000  0.000  0.000
  0.000  0.681 -0.001  0.086  0.209
  0.000 -0.001  0.681  0.210 -0.085
  0.000  0.086  0.210  0.832  0.000
  0.000  0.209 -0.085  0.000  0.833
atom    3   Tr[ns(na)] =   3.79509
    eigenvalues: 
  0.356  0.356  0.381  0.402  0.402
    eigenvectors:
  0.000  0.000  1.000  0.000  0.000
  0.692  0.230  0.000  0.016  0.062
  0.230  0.692  0.000  0.062  0.016
  0.020  0.058  0.000  0.723  0.199
  0.058  0.020  0.000  0.199  0.723
    occupations:
  0.381  0.000  0.000  0.000  0.000
  0.000  0.360  0.000  0.000  0.012
  0.000  0.000  0.360  0.012  0.000
  0.000  0.000  0.012  0.398  0.000
  0.000  0.012  0.000  0.000  0.398
atom    4   Tr[ns(na)] =   3.79504
    eigenvalues: 
  0.356  0.356  0.381  0.402  0.402
    eigenvectors:
  0.000  0.000  1.000  0.000  0.000
  0.249  0.671  0.000  0.019  0.060
  0.672  0.249  0.000  0.059  0.020
  0.057  0.022  0.000  0.688  0.233
  0.022  0.058  0.000  0.233  0.687
    occupations:
  0.381  0.000  0.000  0.000  0.000
  0.000  0.360  0.000  0.000  0.012
  0.000  0.000  0.360  0.012  0.000
  0.000  0.000  0.012  0.398  0.000
  0.000  0.012  0.000  0.000  0.398
atom    5   Tr[ns(na)] =   5.42481
    eigenvalues: 
  0.836  0.929  0.947
    eigenvectors:
  0.337  0.000  0.663
  0.496  0.251  0.252
  0.166  0.749  0.085
    occupations:
  0.910 -0.045  0.026
 -0.045  0.888  0.024
  0.026  0.024  0.915
atom    6   Tr[ns(na)] =   5.43430
    eigenvalues: 
  0.839  0.930  0.948
    eigenvectors:
  0.337  0.000  0.663
  0.497  0.250  0.252
  0.165  0.750  0.085
    occupations:
  0.911  0.045  0.026
  0.045  0.889 -0.024
  0.026 -0.024  0.917
atom    7   Tr[ns(na)] =   5.43430
    eigenvalues: 
  0.839  0.930  0.948
    eigenvectors:
  0.337  0.000  0.663
  0.000  1.000  0.000
  0.663  0.000  0.337
    occupations:
  0.911  0.000 -0.052
  0.000  0.930  0.000
 -0.052  0.000  0.876
atom    8   Tr[ns(na)] =   5.43357
    eigenvalues: 
  0.839  0.930  0.948
    eigenvectors:
  0.337  0.000  0.663
  0.497  0.251  0.252
  0.166  0.749  0.085
    occupations:
  0.911 -0.045  0.026
 -0.045  0.889  0.024
  0.026  0.024  0.917
atom    9   Tr[ns(na)] =   5.43437
    eigenvalues: 
  0.839  0.930  0.948
    eigenvectors:
  0.337  0.000  0.663
  0.498  0.249  0.252
  0.165  0.751  0.084
    occupations:
  0.911  0.045  0.026
  0.045  0.889 -0.024
  0.026 -0.024  0.917
atom   10   Tr[ns(na)] =   5.43437
    eigenvalues: 
  0.839  0.930  0.948
    eigenvectors:
  0.337  0.000  0.663
  0.000  1.000  0.000
  0.663  0.000  0.337
    occupations:
  0.911  0.000 -0.051
  0.000  0.930  0.000
 -0.051  0.000  0.876
N of occupied +U levels =  56.2897882
 --- exit write_ns ---
 --- in v_hubbard ---
Hubbard energy    0.4354
 -------

     total cpu time spent up to now is      409.1 secs

     End of self-consistent calculation

          k = 0.0000 0.0000 0.0000 (  2175 PWs)   bands (ev):

   -19.7912 -19.6175  -6.5577  -5.8932  -5.8640  -5.8328  -5.8192  -5.4905
    -3.8646  -3.2668  -3.2640  -3.2518  -3.0188  -3.0179   5.1983   6.5279
     6.5342   6.5875   6.7547   6.7636   7.5217   7.5386   7.7283   8.2103
     8.4583   8.4601   9.3114   9.6327   9.6462   9.9985  10.0030  10.1830
    10.4686  10.4732  10.6873  10.8447  10.8494  11.1747  11.8796  11.8807
    14.7255  14.7284  15.4306  15.4328  16.2012  16.7857

     occupation numbers 
     0.0313   0.0313   0.0313   0.0313   0.0313   0.0313   0.0313   0.0313
     0.0313   0.0313   0.0313   0.0313   0.0313   0.0313   0.0313   0.0313
     0.0313   0.0313   0.0313   0.0313   0.0313   0.0313   0.0313   0.0313
     0.0313   0.0313   0.0312   0.0312   0.0312   0.0312   0.0312   0.0312
     0.0312   0.0312   0.0312   0.0309   0.0309   0.0275   0.0032   0.0032
     0.0000   0.0000   0.0000   0.0000   0.0000   0.0000

          k =-0.2471-0.1427 0.1027 (  2181 PWs)   bands (ev):

   -19.7659 -19.6576  -6.7346  -6.3066  -5.9707  -5.8622  -5.6220  -5.4908
    -3.6433  -3.4126  -2.9433  -2.9063  -2.8685  -2.7643   5.5259   6.2557
     6.5689   6.6322   6.7454   6.7925   6.9518   7.4747   7.5895   7.6848
     7.8687   8.2280   9.4383   9.5749   9.7201   9.9064   9.9621  10.0380
    10.2530  10.3870  10.4174  10.8340  10.9480  10.9707  12.2835  12.3565
    14.2755  14.2850  15.8194  16.0716  16.9739  17.2676

     occupation numbers 
     0.0625   0.0625   0.0625   0.0625   0.0625   0.0625   0.0625   0.0625
     0.0625   0.0625   0.0625   0.0625   0.0625   0.0625   0.0625   0.0625
     0.0625   0.0625   0.0625   0.0625   0.0625   0.0625   0.0625   0.0625
     0.0625   0.0625   0.0625   0.0625   0.0625   0.0625   0.0625   0.0625
     0.0625   0.0625   0.0625   0.0619   0.0609   0.0606   0.0002   0.0001
     0.0000   0.0000   0.0000   0.0000   0.0000   0.0000

          k = 0.4942 0.2853-0.2053 (  2202 PWs)   bands (ev):

   -19.7203 -19.7184  -6.7402  -6.7125  -5.9861  -5.9636  -5.5417  -5.5206
    -3.4043  -3.3974  -2.8020  -2.7991  -2.5069  -2.5009   5.8089   5.8356
     6.6387   6.6564   6.8679   6.8926   7.0670   7.0998   7.3238   7.3367
     7.4708   7.4833   9.3755   9.3825   9.8202   9.8351  10.1699  10.1870
    10.2090  10.2370  10.4416  10.4586  10.7188  10.7494  13.2598  13.3062
    13.3443  13.3878  16.8347  16.8381  17.1290  17.1324

     occupation numbers 
     0.0313   0.0313   0.0313   0.0313   0.0313   0.0313   0.0313   0.0313
     0.0313   0.0313   0.0313   0.0313   0.0313   0.0313   0.0313   0.0313
     0.0313   0.0313   0.0313   0.0313   0.0313   0.0313   0.0313   0.0313
     0.0313   0.0313   0.0312   0.0312   0.0312   0.0312   0.0312   0.0312
     0.0312   0.0312   0.0312   0.0312   0.0312   0.0311   0.0000   0.0000
     0.0000   0.0000   0.0000   0.0000   0.0000   0.0000

          k =-0.2471 0.1427 0.2053 (  2195 PWs)   bands (ev):

   -19.7585 -19.6710  -6.8503  -6.2505  -6.0739  -5.8641  -5.6717  -5.4692
    -3.4448  -3.2699  -3.1144  -2.9048  -2.8357  -2.5556   5.5556   5.9565
     6.3966   6.6521   6.7116   7.1138   7.1579   7.3546   7.4603   7.7371
     7.8954   8.4166   8.7350   9.2952   9.7520   9.8623   9.9924  10.0098
    10.2606  10.5652  10.6724  10.7743  10.8551  10.9058  11.8141  12.7109
    13.6066  14.7441  15.9964  16.1979  17.0351  17.5386

     occupation numbers 
     0.0625   0.0625   0.0625   0.0625   0.0625   0.0625   0.0625   0.0625
     0.0625   0.0625   0.0625   0.0625   0.0625   0.0625   0.0625   0.0625
     0.0625   0.0625   0.0625   0.0625   0.0625   0.0625   0.0625   0.0625
     0.0625   0.0625   0.0625   0.0625   0.0625   0.0625   0.0625   0.0625
     0.0625   0.0625   0.0624   0.0622   0.0618   0.0614   0.0093   0.0000
     0.0000   0.0000   0.0000   0.0000   0.0000   0.0000

          k = 0.4942 0.5706-0.1027 (  2198 PWs)   bands (ev):

   -19.7298 -19.7143  -6.9501  -6.6556  -6.1267  -5.9188  -5.5314  -5.3869
    -3.3234  -3.2623  -2.8816  -2.7093  -2.5276  -2.3824   5.6425   5.9364
     6.1118   6.6721   6.7738   6.8442   6.9251   7.2399   7.3394   7.3898
     7.9017   8.1506   8.8453   9.1676   9.4876   9.7413   9.7602  10.0945
    10.2834  10.4536  10.5054  10.5996  10.7696  10.9524  12.2768  12.7124
    13.4045  14.3254  16.9057  17.1150  17.3078  18.0167

     occupation numbers 
     0.0625   0.0625   0.0625   0.0625   0.0625   0.0625   0.0625   0.0625
     0.0625   0.0625   0.0625   0.0625   0.0625   0.0625   0.0625   0.0625
     0.0625   0.0625   0.0625   0.0625   0.0625   0.0625   0.0625   0.0625
     0.0625   0.0625   0.0625   0.0625   0.0625   0.0625   0.0625   0.0625
     0.0625   0.0625   0.0625   0.0625   0.0622   0.0609   0.0003   0.0000
     0.0000   0.0000   0.0000   0.0000   0.0000   0.0000

          k = 0.2471 0.4280 0.0000 (  2203 PWs)   bands (ev):

   -19.7415 -19.6964  -6.8577  -6.6388  -6.0799  -5.9763  -5.4418  -5.3862
    -3.5552  -3.2989  -2.8003  -2.7117  -2.5778  -2.5633   5.8242   5.8531
     6.4043   6.6138   6.7221   6.7657   7.0854   7.1577   7.2981   7.4759
     7.5167   8.4044   8.9046   9.3390   9.7026   9.7358   9.9757  10.2054
    10.3021  10.3069  10.5200  10.5604  10.5812  11.0314  12.1839  13.2904
    13.3718  14.1243  16.4355  16.9942  17.4193  17.9277

     occupation numbers 
     0.0625   0.0625   0.0625   0.0625   0.0625   0.0625   0.0625   0.0625
     0.0625   0.0625   0.0625   0.0625   0.0625   0.0625   0.0625   0.0625
     0.0625   0.0625   0.0625   0.0625   0.0625   0.0625   0.0625   0.0625
     0.0625   0.0625   0.0625   0.0625   0.0625   0.0625   0.0625   0.0625
     0.0625   0.0625   0.0625   0.0625   0.0625   0.0595   0.0006   0.0000
     0.0000   0.0000   0.0000   0.0000   0.0000   0.0000

          k = 0.4942-0.2853-0.4107 (  2202 PWs)   bands (ev):

   -19.7254 -19.7240  -7.1593  -6.4520  -6.2300  -6.0037  -5.5520  -5.2947
    -3.2104  -3.1121  -3.0576  -2.6423  -2.4754  -2.2179   5.3195   5.7202
     5.9748   6.6723   6.7403   7.1312   7.1517   7.2585   7.3928   7.4022
     8.1798   8.3396   8.4523   8.6061   9.4506   9.6954  10.0471  10.0711
    10.2860  10.3303  10.4934  10.6636  10.7542  11.0747  11.7693  12.3813
    13.3083  14.7592  17.0450  17.2689  17.5180  17.6134

     occupation numbers 
     0.0313   0.0313   0.0313   0.0313   0.0313   0.0313   0.0313   0.0313
     0.0313   0.0313   0.0313   0.0313   0.0313   0.0313   0.0313   0.0313
     0.0313   0.0313   0.0313   0.0313   0.0313   0.0313   0.0313   0.0313
     0.0313   0.0313   0.0313   0.0313   0.0312   0.0312   0.0312   0.0312
     0.0312   0.0312   0.0312   0.0312   0.0311   0.0292   0.0058   0.0000
     0.0000   0.0000   0.0000   0.0000   0.0000   0.0000

          k = 0.0000 0.0000 0.3080 (  2187 PWs)   bands (ev):

   -19.7655 -19.6594  -6.6229  -6.0045  -5.9604  -5.9437  -5.8570  -5.8406
    -3.2266  -3.1501  -3.1463  -2.9712  -2.8978  -2.8947   5.6198   6.2815
     6.5750   6.5793   6.8119   6.8201   7.0511   7.4582   7.4742   7.9544
[...]
     0.0625   0.0625   0.0625   0.0625   0.0625   0.0625   0.0625   0.0625
     0.0625   0.0625   0.0625   0.0625   0.0625   0.0625   0.0625   0.0625
     0.0625   0.0625   0.0624   0.0622   0.0618   0.0613   0.0093   0.0000
     0.0000   0.0000   0.0000   0.0000   0.0000   0.0000

          k = 0.4942-0.5706 0.1027 (  2198 PWs)   bands (ev):

   -19.7286 -19.7135  -6.9658  -6.6502  -6.1413  -5.8892  -5.5218  -5.4012
    -3.3256  -3.2627  -2.8795  -2.7125  -2.5295  -2.3857   5.6554   5.9518
     6.1003   6.6803   6.7727   6.8416   6.9294   7.2339   7.3449   7.4018
     7.8784   8.1549   8.8405   9.1652   9.4920   9.7311   9.7659  10.0922
    10.2911  10.4385  10.5206  10.6106  10.7718  10.9297  12.2767  12.7141
    13.4001  14.3273  16.9076  17.1150  17.3092  18.0175

     occupation numbers 
     0.0625   0.0625   0.0625   0.0625   0.0625   0.0625   0.0625   0.0625
     0.0625   0.0625   0.0625   0.0625   0.0625   0.0625   0.0625   0.0625
     0.0625   0.0625   0.0625   0.0625   0.0625   0.0625   0.0625   0.0625
     0.0625   0.0625   0.0625   0.0625   0.0625   0.0625   0.0625   0.0625
     0.0625   0.0625   0.0625   0.0624   0.0622   0.0611   0.0003   0.0000
     0.0000   0.0000   0.0000   0.0000   0.0000   0.0000

          k =-0.7412 0.1427-0.1027 (  2198 PWs)   bands (ev):

   -19.7286 -19.7135  -6.9654  -6.6510  -6.1403  -5.8903  -5.5208  -5.4019
    -3.3248  -3.2628  -2.8794  -2.7136  -2.5289  -2.3861   5.6581   5.9465
     6.1041   6.6782   6.7745   6.8507   6.9156   7.2350   7.3448   7.4080
     7.8741   8.1539   8.8409   9.1656   9.4941   9.7328   9.7652  10.0939
    10.2869  10.4438  10.5192  10.6114  10.7629  10.9344  12.2768  12.7143
    13.4002  14.3276  16.9058  17.1179  17.3086  18.0171

     occupation numbers 
     0.0625   0.0625   0.0625   0.0625   0.0625   0.0625   0.0625   0.0625
     0.0625   0.0625   0.0625   0.0625   0.0625   0.0625   0.0625   0.0625
     0.0625   0.0625   0.0625   0.0625   0.0625   0.0625   0.0625   0.0625
     0.0625   0.0625   0.0625   0.0625   0.0625   0.0625   0.0625   0.0625
     0.0625   0.0625   0.0625   0.0624   0.0622   0.0611   0.0003   0.0000
     0.0000   0.0000   0.0000   0.0000   0.0000   0.0000

          k = 0.2471-0.7133-0.1027 (  2198 PWs)   bands (ev):

   -19.7286 -19.7135  -6.9658  -6.6502  -6.1419  -5.8887  -5.5196  -5.4038
    -3.3247  -3.2626  -2.8799  -2.7121  -2.5291  -2.3865   5.6580   5.9448
     6.1031   6.6784   6.7760   6.8448   6.9219   7.2360   7.3493   7.3998
     7.8762   8.1557   8.8447   9.1627   9.4891   9.7409   9.7590  10.0956
    10.2924  10.4492  10.5072  10.5972  10.7758  10.9366  12.2767  12.7144
    13.4002  14.3275  16.9079  17.1146  17.3085  18.0156

     occupation numbers 
     0.0625   0.0625   0.0625   0.0625   0.0625   0.0625   0.0625   0.0625
     0.0625   0.0625   0.0625   0.0625   0.0625   0.0625   0.0625   0.0625
     0.0625   0.0625   0.0625   0.0625   0.0625   0.0625   0.0625   0.0625
     0.0625   0.0625   0.0625   0.0625   0.0625   0.0625   0.0625   0.0625
     0.0625   0.0625   0.0625   0.0625   0.0622   0.0611   0.0003   0.0000
     0.0000   0.0000   0.0000   0.0000   0.0000   0.0000

          k =-0.7412-0.1427 0.1027 (  2198 PWs)   bands (ev):

   -19.7286 -19.7135  -6.9662  -6.6495  -6.1428  -5.8876  -5.5206  -5.4031
    -3.3254  -3.2625  -2.8800  -2.7111  -2.5297  -2.3862   5.6553   5.9500
     6.0994   6.6815   6.7736   6.8358   6.9358   7.2344   7.3482   7.3953
     7.8806   8.1564   8.8440   9.1625   9.4870   9.7398   9.7591  10.0938
    10.2967  10.4440  10.5088  10.5967  10.7843  10.9319  12.2766  12.7141
    13.4001  14.3272  16.9098  17.1117  17.3090  18.0161

     occupation numbers 
     0.0625   0.0625   0.0625   0.0625   0.0625   0.0625   0.0625   0.0625
     0.0625   0.0625   0.0625   0.0625   0.0625   0.0625   0.0625   0.0625
     0.0625   0.0625   0.0625   0.0625   0.0625   0.0625   0.0625   0.0625
     0.0625   0.0625   0.0625   0.0625   0.0625   0.0625   0.0625   0.0625
     0.0625   0.0625   0.0625   0.0625   0.0621   0.0611   0.0003   0.0000
     0.0000   0.0000   0.0000   0.0000   0.0000   0.0000

          k = 0.2471 0.7133 0.1027 (  2198 PWs)   bands (ev):

   -19.7298 -19.7143  -6.9506  -6.6548  -6.1278  -5.9176  -5.5324  -5.3862
    -3.3241  -3.2622  -2.8817  -2.7083  -2.5282  -2.3821   5.6398   5.9406
     6.1093   6.6753   6.7714   6.8355   6.9381   7.2381   7.3397   7.3843
     7.9059   8.1514   8.8447   9.1675   9.4853   9.7396   9.7608  10.0931
    10.2877  10.4478  10.5070  10.5990  10.7785  10.9478  12.2767  12.7121
    13.4044  14.3251  16.9076  17.1121  17.3084  18.0170

     occupation numbers 
     0.0625   0.0625   0.0625   0.0625   0.0625   0.0625   0.0625   0.0625
     0.0625   0.0625   0.0625   0.0625   0.0625   0.0625   0.0625   0.0625
     0.0625   0.0625   0.0625   0.0625   0.0625   0.0625   0.0625   0.0625
     0.0625   0.0625   0.0625   0.0625   0.0625   0.0625   0.0625   0.0625
     0.0625   0.0625   0.0625   0.0625   0.0622   0.0609   0.0003   0.0000
     0.0000   0.0000   0.0000   0.0000   0.0000   0.0000

          k = 0.2471-0.4280 0.0000 (  2203 PWs)   bands (ev):

   -19.7417 -19.6963  -6.8507  -6.6531  -6.0499  -5.9931  -5.4574  -5.3763
    -3.5576  -3.2989  -2.8034  -2.7050  -2.5761  -2.5662   5.8075   5.8512
     6.4115   6.6085   6.7319   6.7680   7.0949   7.1694   7.2908   7.4838
     7.5282   8.3862   8.8875   9.3135   9.7070   9.7455   9.9804  10.2060
    10.3099  10.3133  10.5219  10.5680  10.5844  11.0145  12.1861  13.2917
    13.3735  14.1206  16.4347  16.9971  17.4224  17.9278

     occupation numbers 
     0.0625   0.0625   0.0625   0.0625   0.0625   0.0625   0.0625   0.0625
     0.0625   0.0625   0.0625   0.0625   0.0625   0.0625   0.0625   0.0625
     0.0625   0.0625   0.0625   0.0625   0.0625   0.0625   0.0625   0.0625
     0.0625   0.0625   0.0625   0.0625   0.0625   0.0625   0.0625   0.0625
     0.0625   0.0625   0.0625   0.0625   0.0625   0.0599   0.0006   0.0000
     0.0000   0.0000   0.0000   0.0000   0.0000   0.0000

          k =-0.4942 0.0000 0.0000 (  2203 PWs)   bands (ev):

   -19.7417 -19.6963  -6.8507  -6.6531  -6.0498  -5.9932  -5.4574  -5.3763
    -3.5577  -3.2989  -2.8034  -2.7050  -2.5758  -2.5665   5.8076   5.8512
     6.4116   6.6082   6.7314   6.7682   7.0958   7.1692   7.2907   7.4862
     7.5256   8.3862   8.8875   9.3135   9.7080   9.7445   9.9806  10.2066
    10.3078  10.3141  10.5204  10.5691  10.5855  11.0144  12.1861  13.2916
    13.3736  14.1206  16.4347  16.9971  17.4224  17.9274

     occupation numbers 
     0.0625   0.0625   0.0625   0.0625   0.0625   0.0625   0.0625   0.0625
     0.0625   0.0625   0.0625   0.0625   0.0625   0.0625   0.0625   0.0625
     0.0625   0.0625   0.0625   0.0625   0.0625   0.0625   0.0625   0.0625
     0.0625   0.0625   0.0625   0.0625   0.0625   0.0625   0.0625   0.0625
     0.0625   0.0625   0.0625   0.0625   0.0625   0.0599   0.0006   0.0000
     0.0000   0.0000   0.0000   0.0000   0.0000   0.0000

          k = 0.4942 0.2853 0.4107 (  2202 PWs)   bands (ev):

   -19.7231 -19.7224  -7.1766  -6.4586  -6.2470  -5.9660  -5.5308  -5.3131
    -3.2116  -3.1134  -3.0581  -2.6485  -2.4790  -2.2226   5.3386   5.7438
     5.9569   6.6754   6.7504   7.1284   7.1710   7.2808   7.3786   7.3906
     8.1814   8.3067   8.4546   8.6321   9.4200   9.6888  10.0439  10.0807
    10.2901  10.3403  10.4888  10.6740  10.7511  11.0558  11.7681  12.3843
    13.3030  14.7615  17.0467  17.2699  17.5215  17.6161

     occupation numbers 
     0.0313   0.0313   0.0313   0.0313   0.0313   0.0313   0.0313   0.0313
     0.0313   0.0313   0.0313   0.0313   0.0313   0.0313   0.0313   0.0313
     0.0313   0.0313   0.0313   0.0313   0.0313   0.0313   0.0313   0.0313
     0.0313   0.0313   0.0313   0.0313   0.0312   0.0312   0.0312   0.0312
     0.0312   0.0312   0.0312   0.0312   0.0311   0.0295   0.0059   0.0000
     0.0000   0.0000   0.0000   0.0000   0.0000   0.0000

          k = 0.0000 0.5706-0.4107 (  2202 PWs)   bands (ev):

   -19.7231 -19.7224  -7.1766  -6.4587  -6.2468  -5.9660  -5.5309  -5.3131
    -3.2116  -3.1134  -3.0581  -2.6485  -2.4790  -2.2226   5.3386   5.7438
     5.9569   6.6756   6.7500   7.1285   7.1710   7.2808   7.3798   7.3894
     8.1817   8.3064   8.4546   8.6322   9.4200   9.6888  10.0441  10.0805
    10.2895  10.3408  10.4896  10.6719  10.7524  11.0558  11.7681  12.3843
    13.3030  14.7615  17.0467  17.2700  17.5215  17.6160

     occupation numbers 
     0.0313   0.0313   0.0313   0.0313   0.0313   0.0313   0.0313   0.0313
     0.0313   0.0313   0.0313   0.0313   0.0313   0.0313   0.0313   0.0313
     0.0313   0.0313   0.0313   0.0313   0.0313   0.0313   0.0313   0.0313
     0.0313   0.0313   0.0313   0.0313   0.0312   0.0312   0.0312   0.0312
     0.0312   0.0312   0.0312   0.0312   0.0311   0.0295   0.0059   0.0000
     0.0000   0.0000   0.0000   0.0000   0.0000   0.0000

          k = 0.7412-0.4280 0.0000 (  2204 PWs)   bands (ev):

   -19.7407 -19.6987  -6.7436  -6.6041  -6.1547  -5.8455  -5.7067  -5.5481
    -3.1995  -3.1003  -3.0448  -2.6811  -2.6653  -2.5835   5.8572   6.0426
     6.2673   6.7063   6.7906   6.8488   7.0128   7.1490   7.3400   7.4236
     7.6771   8.2382   8.8884   9.4376   9.4582   9.6711   9.8336  10.1940
    10.2640  10.3830  10.5828  10.6256  10.7185  10.7249  12.1821  13.2107
    13.2877  14.1530  16.6886  16.7265  17.5900  17.7958

     occupation numbers 
     0.0625   0.0625   0.0625   0.0625   0.0625   0.0625   0.0625   0.0625
     0.0625   0.0625   0.0625   0.0625   0.0625   0.0625   0.0625   0.0625
     0.0625   0.0625   0.0625   0.0625   0.0625   0.0625   0.0625   0.0625
     0.0625   0.0625   0.0625   0.0625   0.0625   0.0625   0.0625   0.0625
     0.0625   0.0625   0.0625   0.0624   0.0623   0.0623   0.0006   0.0000
     0.0000   0.0000   0.0000   0.0000   0.0000   0.0000

          k = 0.0000-0.8559 0.0000 (  2204 PWs)   bands (ev):

   -19.7408 -19.6986  -6.7368  -6.6168  -6.1468  -5.8394  -5.7012  -5.5626
    -3.2014  -3.0999  -3.0450  -2.6763  -2.6634  -2.5870   5.8390   6.0277
     6.2779   6.7150   6.7976   6.8494   7.0253   7.1493   7.3461   7.4354
     7.6837   8.2218   8.8638   9.4205   9.4599   9.6779   9.8347  10.1988
    10.2740  10.3903  10.5850  10.6342  10.7078  10.7183  12.1839  13.2118
    13.2895  14.1494  16.6863  16.7280  17.5922  17.7962

     occupation numbers 
     0.0625   0.0625   0.0625   0.0625   0.0625   0.0625   0.0625   0.0625
     0.0625   0.0625   0.0625   0.0625   0.0625   0.0625   0.0625   0.0625
     0.0625   0.0625   0.0625   0.0625   0.0625   0.0625   0.0625   0.0625
     0.0625   0.0625   0.0625   0.0625   0.0625   0.0625   0.0625   0.0625
     0.0625   0.0625   0.0625   0.0624   0.0623   0.0623   0.0006   0.0000
     0.0000   0.0000   0.0000   0.0000   0.0000   0.0000

          k = 0.4942-0.2853-0.1027 (  2211 PWs)   bands (ev):

   -19.7309 -19.7131  -6.9671  -6.5515  -6.3274  -5.7239  -5.6359  -5.3608
    -3.3388  -3.1668  -3.0445  -2.5995  -2.5647  -2.3741   5.6684   5.9788
     6.0208   6.5540   6.8179   6.9543   7.0116   7.1400   7.2857   7.3784
     7.9481   8.1875   8.8244   9.3073   9.3562   9.6469   9.9421   9.9464
    10.3497  10.4750  10.6205  10.6801  10.7282  10.7644  12.2326  12.7261
    13.4516  14.3069  16.8867  16.9364  17.5801  17.9281

     occupation numbers 
     0.0625   0.0625   0.0625   0.0625   0.0625   0.0625   0.0625   0.0625
     0.0625   0.0625   0.0625   0.0625   0.0625   0.0625   0.0625   0.0625
     0.0625   0.0625   0.0625   0.0625   0.0625   0.0625   0.0625   0.0625
     0.0625   0.0625   0.0625   0.0625   0.0625   0.0625   0.0625   0.0625
     0.0625   0.0625   0.0624   0.0624   0.0623   0.0622   0.0004   0.0000
     0.0000   0.0000   0.0000   0.0000   0.0000   0.0000

          k = 0.0000-0.5706 0.1027 (  2211 PWs)   bands (ev):

   -19.7297 -19.7124  -6.9817  -6.5472  -6.3294  -5.7092  -5.6250  -5.3749
    -3.3390  -3.1671  -3.0449  -2.6023  -2.5649  -2.3781   5.6829   5.9963
     6.0058   6.5491   6.8208   6.9584   7.0161   7.1382   7.2968   7.3795
     7.9214   8.1975   8.8199   9.3227   9.3617   9.6204   9.9346   9.9541
    10.3610  10.4782  10.6244  10.6765  10.7225  10.7551  12.2324  12.7280
    13.4474  14.3091  16.8875  16.9361  17.5793  17.9285

     occupation numbers 
     0.0625   0.0625   0.0625   0.0625   0.0625   0.0625   0.0625   0.0625
     0.0625   0.0625   0.0625   0.0625   0.0625   0.0625   0.0625   0.0625
     0.0625   0.0625   0.0625   0.0625   0.0625   0.0625   0.0625   0.0625
     0.0625   0.0625   0.0625   0.0625   0.0625   0.0625   0.0625   0.0625
     0.0625   0.0625   0.0624   0.0624   0.0623   0.0622   0.0004   0.0000
     0.0000   0.0000   0.0000   0.0000   0.0000   0.0000

          k = 0.7412 0.4280 0.3080 (  2210 PWs)   bands (ev):

   -19.7294 -19.7143  -6.9185  -6.4580  -6.3082  -5.7970  -5.7680  -5.5069
    -3.0777  -3.0620  -2.9674  -2.7347  -2.6261  -2.4285   5.7677   6.0164
     6.1332   6.5585   6.8257   6.8468   7.1289   7.1584   7.3238   7.4279
     7.8988   8.1871   8.7432   9.2545   9.4281   9.4816   9.6488  10.0825
    10.2978  10.4549  10.5606  10.6625  10.7872  10.7999  12.1925  12.6817
    13.3966  14.2791  17.0617  17.0717  17.5473  17.9036

     occupation numbers 
     0.0625   0.0625   0.0625   0.0625   0.0625   0.0625   0.0625   0.0625
     0.0625   0.0625   0.0625   0.0625   0.0625   0.0625   0.0625   0.0625
     0.0625   0.0625   0.0625   0.0625   0.0625   0.0625   0.0625   0.0625
     0.0625   0.0625   0.0625   0.0625   0.0625   0.0625   0.0625   0.0625
     0.0625   0.0625   0.0625   0.0624   0.0621   0.0621   0.0006   0.0000
     0.0000   0.0000   0.0000   0.0000   0.0000   0.0000

          k = 0.0000 0.8559-0.3080 (  2210 PWs)   bands (ev):

   -19.7294 -19.7143  -6.9185  -6.4580  -6.3083  -5.7969  -5.7680  -5.5070
    -3.0777  -3.0620  -2.9674  -2.7347  -2.6261  -2.4284   5.7678   6.0164
     6.1333   6.5584   6.8262   6.8463   7.1279   7.1596   7.3242   7.4273
     7.8988   8.1873   8.7432   9.2544   9.4280   9.4818   9.6489  10.0828
    10.2976  10.4554  10.5592  10.6634  10.7878  10.7993  12.1925  12.6817
    13.3966  14.2791  17.0618  17.0717  17.5473  17.9037

     occupation numbers 
     0.0625   0.0625   0.0625   0.0625   0.0625   0.0625   0.0625   0.0625
     0.0625   0.0625   0.0625   0.0625   0.0625   0.0625   0.0625   0.0625
     0.0625   0.0625   0.0625   0.0625   0.0625   0.0625   0.0625   0.0625
     0.0625   0.0625   0.0625   0.0625   0.0625   0.0625   0.0625   0.0625
     0.0625   0.0625   0.0625   0.0624   0.0621   0.0621   0.0006   0.0000
     0.0000   0.0000   0.0000   0.0000   0.0000   0.0000

          k = 0.2471 0.7133-0.2053 (  2206 PWs)   bands (ev):

   -19.7245 -19.7240  -6.8908  -6.8725  -6.0602  -6.0279  -5.4481  -5.4280
    -3.1569  -3.1565  -2.8231  -2.8180  -2.3809  -2.3778   5.9039   5.9160
     6.0651   6.0700   6.8173   6.8193   7.0589   7.0730   7.3261   7.3322
     8.3172   8.3411   8.7856   8.8095   9.4588   9.4732   9.9605   9.9704
    10.3334  10.3388  10.4879  10.5082  10.8403  10.8605  12.2371  12.2431
    13.9729  13.9847  17.4261  17.4291  17.8711  17.8722

     occupation numbers 
     0.0625   0.0625   0.0625   0.0625   0.0625   0.0625   0.0625   0.0625
     0.0625   0.0625   0.0625   0.0625   0.0625   0.0625   0.0625   0.0625
     0.0625   0.0625   0.0625   0.0625   0.0625   0.0625   0.0625   0.0625
     0.0625   0.0625   0.0625   0.0625   0.0625   0.0625   0.0625   0.0625
     0.0625   0.0625   0.0625   0.0625   0.0619   0.0618   0.0004   0.0004
     0.0000   0.0000   0.0000   0.0000   0.0000   0.0000

          k =-0.7412-0.1427-0.2053 (  2206 PWs)   bands (ev):

   -19.7234 -19.7232  -6.9082  -6.8735  -6.0309  -6.0292  -5.4596  -5.4276
    -3.1588  -3.1568  -2.8192  -2.8180  -2.3908  -2.3771   5.8981   5.9224
     6.0647   6.0730   6.8216   6.8518   7.0611   7.0752   7.3289   7.3383
     8.3164   8.3173   8.7817   8.7851   9.4540   9.4548   9.9763   9.9872
    10.3423  10.3512  10.4900  10.4993  10.8378  10.8443  12.2380  12.2452
    13.9715  13.9840  17.4262  17.4271  17.8722  17.8748

     occupation numbers 
     0.0625   0.0625   0.0625   0.0625   0.0625   0.0625   0.0625   0.0625
     0.0625   0.0625   0.0625   0.0625   0.0625   0.0625   0.0625   0.0625
     0.0625   0.0625   0.0625   0.0625   0.0625   0.0625   0.0625   0.0625
     0.0625   0.0625   0.0625   0.0625   0.0625   0.0625   0.0625   0.0625
     0.0625   0.0625   0.0625   0.0625   0.0619   0.0619   0.0004   0.0003
     0.0000   0.0000   0.0000   0.0000   0.0000   0.0000

     the Fermi energy is    11.5127 ev

!    total energy              =    -537.86320028 Ry
     Harris-Foulkes estimate   =    -537.86318665 Ry
     estimated scf accuracy    <          7.3E-09 Ry

     The total energy is the sum of the following terms:

     one-electron contribution =     -32.88699518 Ry
     hartree contribution      =      83.65457626 Ry
     xc contribution           =    -199.61735577 Ry
     ewald contribution        =    -389.44315552 Ry
     Hubbard energy            =       0.43542920 Ry
     smearing contrib. (-TS)   =      -0.00569927 Ry

     convergence has been achieved in  13 iterations

     init_run     :      6.86s CPU      6.96s WALL (       1 calls)
     electrons    :    398.21s CPU    401.67s WALL (       1 calls)

     Called by init_run:
     wfcinit      :      0.00s CPU      0.00s WALL (       1 calls)
     potinit      :      0.28s CPU      0.30s WALL (       1 calls)

     Called by electrons:
     c_bands      :    306.00s CPU    308.04s WALL (      13 calls)
     sum_band     :     66.45s CPU     67.01s WALL (      13 calls)
     v_of_rho     :      3.50s CPU      3.51s WALL (      14 calls)
     v_h          :      0.20s CPU      0.20s WALL (      14 calls)
     v_xc         :      3.30s CPU      3.31s WALL (      14 calls)
     newd         :     23.12s CPU     23.14s WALL (      14 calls)
     mix_rho      :      0.37s CPU      0.37s WALL (      13 calls)

     Called by c_bands:
     init_us_2    :      3.39s CPU      3.43s WALL (     936 calls)
     cegterg      :    296.40s CPU    297.12s WALL (     468 calls)

     Called by sum_band:
     sum_band:bec :      0.36s CPU      0.35s WALL (     468 calls)
     addusdens    :     15.07s CPU     15.07s WALL (      13 calls)

     Called by *egterg:
     h_psi        :    221.89s CPU    222.44s WALL (    1816 calls)
     s_psi        :     12.81s CPU     12.82s WALL (    1816 calls)
     g_psi        :      1.08s CPU      1.10s WALL (    1348 calls)
     cdiaghg      :     20.52s CPU     20.57s WALL (    1780 calls)
     cegterg:over :     14.57s CPU     14.66s WALL (    1348 calls)
     cegterg:upda :      9.26s CPU      9.26s WALL (    1348 calls)
     cegterg:last :      7.13s CPU      7.13s WALL (     539 calls)

     Called by h_psi:
     h_psi:vloc   :    179.54s CPU    180.03s WALL (    1816 calls)
     h_psi:vnl    :     27.00s CPU     27.01s WALL (    1816 calls)
     add_vuspsi   :     13.10s CPU     13.11s WALL (    1816 calls)
     vhpsi        :     14.79s CPU     14.84s WALL (    1816 calls)

     General routines
     calbec       :     28.72s CPU     28.78s WALL (    4568 calls)
     fft          :      2.29s CPU      2.30s WALL (     219 calls)
     ffts         :      0.07s CPU      0.07s WALL (      27 calls)
     fftw         :    174.65s CPU    174.84s WALL (  131102 calls)
     interpolate  :      0.40s CPU      0.40s WALL (      27 calls)
     davcio       :      0.02s CPU      1.11s WALL (     972 calls)

     Parallel routines
     fft_scatter  :     40.37s CPU     40.74s WALL (  131348 calls)
     Hubbard U routines
     new_ns       :      2.83s CPU      3.29s WALL (      13 calls)
     vhpsi        :     14.79s CPU     14.84s WALL (    1816 calls)

     PWSCF        :  6m45.49s CPU     6m49.13s WALL


   This run was terminated on:  15:39:43  11Nov2012            

=------------------------------------------------------------------------------=
