 
Job started on n16 at Tue Nov 13 11:59:51 EST 2012

     Program PWSCF v.5.0.1 starts on 13Nov2012 at 11:59:53 

     This program is part of the open-source Quantum ESPRESSO suite
     for quantum simulation of materials; please cite
         "P. Giannozzi et al., J. Phys.:Condens. Matter 21 395502 (2009);
          URL http://www.quantum-espresso.org", 
     in publications or presentations arising from this work. More details at
     http://www.quantum-espresso.org/quote.php

     Parallel version (MPI), running on     2 processors
     R & G space division:  proc/pool =    2

     Current dimensions of program PWSCF are:
     Max number of different atomic species (ntypx) = 10
     Max number of k-points (npk) =  40000
     Max angular momentum in pseudopotentials (lmaxx) =  3
     Reading input from NiO_U0_init.in
               file Ni.pbe-nd-rrkjus.UPF: wavefunction(s)  4S renormalized
               file Ni.pbe-nd-rrkjus.UPF: wavefunction(s)  4S renormalized
               file O.pbe-rrkjus.UPF: wavefunction(s)  2S renormalized
               file O.pbe-rrkjus.UPF: wavefunction(s)  2S renormalized

     Subspace diagonalization in iterative solution of the eigenvalue problem:
     a serial algorithm will be used


     Parallelization info
     --------------------
     sticks:   dense  smooth     PW     G-vecs:    dense   smooth      PW
     Min        1293     519    150                43273    11032    1738
     Max        1294     520    151                43274    11043    1741
     Sum        2587    1039    301                86547    22075    3479


     Title: 
     GGA + U, U = 1D-40, init                                                   


     bravais-lattice index     =            2
     lattice parameter (alat)  =      15.8000  a.u.
     unit-cell volume          =     986.0780 (a.u.)^3
     number of atoms/cell      =           16
     number of atomic types    =            4
     number of electrons       =       128.00
     number of Kohn-Sham states=           77
     kinetic-energy cutoff     =      30.0000  Ry
     charge density cutoff     =     300.0000  Ry
     convergence threshold     =      1.0E-08
     mixing beta               =       0.3000
     number of iterations used =            8  plain     mixing
     Exchange-correlation      =  SLA  PW   PBE  PBE ( 1 4 3 4 0)
     EXX-fraction              =        0.00

     celldm(1)=  15.800000  celldm(2)=   0.000000  celldm(3)=   0.000000
     celldm(4)=   0.000000  celldm(5)=   0.000000  celldm(6)=   0.000000

     crystal axes: (cart. coord. in units of alat)
               a(1) = (  -0.500000   0.000000   0.500000 )  
               a(2) = (   0.000000   0.500000   0.500000 )  
               a(3) = (  -0.500000   0.500000   0.000000 )  

     reciprocal axes: (cart. coord. in units 2 pi/alat)
               b(1) = ( -1.000000 -1.000000  1.000000 )  
               b(2) = (  1.000000  1.000000  1.000000 )  
               b(3) = ( -1.000000  1.000000 -1.000000 )  


     PseudoPot. # 1 for Ni read from file:
     /home/mcurnan/dft-course/Project1/example_NiO/Ni.pbe-nd-rrkjus.UPF
     MD5 check sum: 8081f0a005c9a5470caab1a58e82ecb2
     Pseudo is Ultrasoft + core correction, Zval = 10.0
     Generated by new atomic code, or converted to UPF format
     Using radial grid of 1203 points,  6 beta functions with: 
                l(1) =   0
                l(2) =   0
                l(3) =   1
                l(4) =   1
                l(5) =   2
                l(6) =   2
     Q(r) pseudized with 0 coefficients 


     PseudoPot. # 2 for Ni read from file:
     /home/mcurnan/dft-course/Project1/example_NiO/Ni.pbe-nd-rrkjus.UPF
     MD5 check sum: 8081f0a005c9a5470caab1a58e82ecb2
     Pseudo is Ultrasoft + core correction, Zval = 10.0
     Generated by new atomic code, or converted to UPF format
     Using radial grid of 1203 points,  6 beta functions with: 
                l(1) =   0
                l(2) =   0
                l(3) =   1
                l(4) =   1
                l(5) =   2
                l(6) =   2
     Q(r) pseudized with 0 coefficients 


     PseudoPot. # 3 for O  read from file:
     /home/mcurnan/dft-course/Project1/example_NiO/O.pbe-rrkjus.UPF
     MD5 check sum: 390ba29e75625707450f3bd3f0eb6be9
     Pseudo is Ultrasoft, Zval =  6.0
     Generated by new atomic code, or converted to UPF format
     Using radial grid of 1269 points,  4 beta functions with: 
                l(1) =   0
                l(2) =   0
                l(3) =   1
                l(4) =   1
     Q(r) pseudized with 0 coefficients 


     PseudoPot. # 4 for O  read from file:
     /home/mcurnan/dft-course/Project1/example_NiO/O.pbe-rrkjus.UPF
     MD5 check sum: 390ba29e75625707450f3bd3f0eb6be9
     Pseudo is Ultrasoft, Zval =  6.0
     Generated by new atomic code, or converted to UPF format
     Using radial grid of 1269 points,  4 beta functions with: 
                l(1) =   0
                l(2) =   0
                l(3) =   1
                l(4) =   1
     Q(r) pseudized with 0 coefficients 


     atomic species   valence    mass     pseudopotential
        Ni1           10.00     1.00000     Ni( 1.00)
        Ni2           10.00     1.00000     Ni( 1.00)
        O1             6.00     1.00000     O ( 1.00)
        O2             6.00     1.00000     O ( 1.00)

     Starting magnetic structure 
     atomic species   magnetization
        Ni1          0.500
        Ni2         -0.500
        O1           0.000
        O2           0.000
 -----
     simplified LDA+U calculation, Hubbard_lmax = 2
     atomic species  L   Hubbard U  Hubbard alpha
        Ni1          2    0.000000    0.000000
        Ni2          2    0.000000    0.000000
        O1           1    0.000000    0.000000
        O2           1    0.000000    0.000000
 -----

      6 Sym. Ops. (no inversion) found


                                    s                        frac. trans.

      isym =  1     identity                                     

 cryst.   s( 1) = (     1          0          0      )
                  (     0          1          0      )
                  (     0          0          1      )

 cart.    s( 1) = (  1.0000000  0.0000000  0.0000000 )
                  (  0.0000000  1.0000000  0.0000000 )
                  (  0.0000000  0.0000000  1.0000000 )


      isym =  2     120 deg rotation - cart. axis [-1,1,1]       

 cryst.   s( 2) = (     0          1          0      )
                  (     0          0          1      )
                  (     1          0          0      )

 cart.    s( 2) = (  0.0000000 -1.0000000  0.0000000 )
                  (  0.0000000  0.0000000  1.0000000 )
                  ( -1.0000000  0.0000000  0.0000000 )


      isym =  3     120 deg rotation - cart. axis [1,-1,-1]      

 cryst.   s( 3) = (     0          0          1      )
                  (     1          0          0      )
                  (     0          1          0      )

 cart.    s( 3) = (  0.0000000  0.0000000 -1.0000000 )
                  ( -1.0000000  0.0000000  0.0000000 )
                  (  0.0000000  1.0000000  0.0000000 )


      isym =  4     inv. 180 deg rotation - cart. axis [1,1,0]   

 cryst.   s( 4) = (     0          1          0      )
                  (     1          0          0      )
                  (     0          0          1      )

 cart.    s( 4) = (  0.0000000 -1.0000000  0.0000000 )
                  ( -1.0000000  0.0000000  0.0000000 )
                  (  0.0000000  0.0000000  1.0000000 )


      isym =  5     inv. 180 deg rotation - cart. axis [1,0,1]   

 cryst.   s( 5) = (     1          0          0      )
                  (     0          0          1      )
                  (     0          1          0      )

 cart.    s( 5) = (  0.0000000  0.0000000 -1.0000000 )
                  (  0.0000000  1.0000000  0.0000000 )
                  ( -1.0000000  0.0000000  0.0000000 )


      isym =  6     inv. 180 deg rotation - cart. axis [0,1,-1]  

 cryst.   s( 6) = (     0          0          1      )
                  (     0          1          0      )
                  (     1          0          0      )

 cart.    s( 6) = (  1.0000000  0.0000000  0.0000000 )
                  (  0.0000000  0.0000000  1.0000000 )
                  (  0.0000000  1.0000000  0.0000000 )


     point group C_3v (3m)  
     there are  3 classes
     the character table:

       E     2C3   3s_v 
A_1    1.00  1.00  1.00
A_2    1.00  1.00 -1.00
E      2.00 -1.00  0.00

     the symmetry operations in each class:
     E        1
     2C3      2    3
     3s_v     4    5    6

   Cartesian axes

     site n.     atom                  positions (alat units)
         1           Ni1 tau(   1) = (   0.0000000  -0.2500000   0.0000000  )
         2           Ni1 tau(   2) = (  -0.2500000   0.0000000   0.5000000  )
         3           Ni1 tau(   3) = (  -0.5000000   0.0000000   0.2500000  )
         4           Ni1 tau(   4) = (  -0.2500000   0.2500000   0.2500000  )
         5           Ni2 tau(   5) = (  -0.2500000  -0.2500000   0.2500000  )
         6           Ni2 tau(   6) = (   0.0000000   0.0000000   0.2500000  )
         7           Ni2 tau(   7) = (  -0.2500000   0.0000000   0.0000000  )
         8           Ni2 tau(   8) = (  -0.5000000   0.2500000   0.5000000  )
         9           O1  tau(   9) = (   0.0000000   0.0000000   0.0000000  )
        10           O2  tau(  10) = (  -0.2500000   0.0000000   0.2500000  )
        11           O2  tau(  11) = (   0.0000000   0.2500000   0.2500000  )
        12           O2  tau(  12) = (  -0.2500000   0.2500000   0.0000000  )
        13           O2  tau(  13) = (  -0.2500000   0.2500000   0.5000000  )
        14           O2  tau(  14) = (  -0.5000000   0.2500000   0.2500000  )
        15           O2  tau(  15) = (  -0.2500000   0.5000000   0.2500000  )
        16           O2  tau(  16) = (  -0.5000000   0.5000000   0.5000000  )

   Crystallographic axes

     site n.     atom                  positions (cryst. coord.)
         1           Ni1 tau(   1) = (  0.2500000 -0.2500000 -0.2500000  )
         2           Ni1 tau(   2) = (  0.7500000  0.2500000 -0.2500000  )
         3           Ni1 tau(   3) = (  0.7500000 -0.2500000  0.2500000  )
         4           Ni1 tau(   4) = (  0.2500000  0.2500000  0.2500000  )
         5           Ni2 tau(   5) = (  0.7500000 -0.2500000 -0.2500000  )
         6           Ni2 tau(   6) = (  0.2500000  0.2500000 -0.2500000  )
         7           Ni2 tau(   7) = (  0.2500000 -0.2500000  0.2500000  )
         8           Ni2 tau(   8) = (  0.7500000  0.2500000  0.2500000  )
         9           O1  tau(   9) = (  0.0000000  0.0000000  0.0000000  )
        10           O2  tau(  10) = (  0.5000000  0.0000000  0.0000000  )
        11           O2  tau(  11) = (  0.0000000  0.5000000  0.0000000  )
        12           O2  tau(  12) = (  0.0000000  0.0000000  0.5000000  )
        13           O2  tau(  13) = (  0.5000000  0.5000000  0.0000000  )
        14           O2  tau(  14) = (  0.5000000  0.0000000  0.5000000  )
        15           O2  tau(  15) = (  0.0000000  0.5000000  0.5000000  )
        16           O2  tau(  16) = (  0.5000000  0.5000000  0.5000000  )

     number of k points=    26  gaussian smearing, width (Ry)=  0.0100
                       cart. coord. in units 2pi/alat
        k(    1) = (   0.0000000   0.0000000   0.0000000), wk =   0.0156250
        k(    2) = (  -0.2500000   0.2500000  -0.2500000), wk =   0.0937500
        k(    3) = (   0.5000000  -0.5000000   0.5000000), wk =   0.0468750
        k(    4) = (   0.0000000   0.5000000   0.0000000), wk =   0.0937500
        k(    5) = (   0.7500000  -0.2500000   0.7500000), wk =   0.1875000
        k(    6) = (   0.5000000   0.0000000   0.5000000), wk =   0.0937500
        k(    7) = (   0.0000000  -1.0000000   0.0000000), wk =   0.0468750
        k(    8) = (  -0.5000000  -1.0000000   0.0000000), wk =   0.0937500
        k(    9) = (  -0.2500000   0.2500000   0.2500000), wk =   0.0312500
        k(   10) = (   0.5000000  -0.5000000  -0.5000000), wk =   0.0156250
        k(   11) = (   0.2500000   0.7500000   0.7500000), wk =   0.0937500
        k(   12) = (   0.7500000  -0.2500000  -0.7500000), wk =   0.0937500
        k(   13) = (   0.0000000   0.5000000   0.5000000), wk =   0.0937500
        k(   14) = (   0.0000000   0.0000000   0.0000000), wk =   0.0156250
        k(   15) = (  -0.2500000   0.2500000  -0.2500000), wk =   0.0937500
        k(   16) = (   0.5000000  -0.5000000   0.5000000), wk =   0.0468750
        k(   17) = (   0.0000000   0.5000000   0.0000000), wk =   0.0937500
        k(   18) = (   0.7500000  -0.2500000   0.7500000), wk =   0.1875000
        k(   19) = (   0.5000000   0.0000000   0.5000000), wk =   0.0937500
        k(   20) = (   0.0000000  -1.0000000   0.0000000), wk =   0.0468750
        k(   21) = (  -0.5000000  -1.0000000   0.0000000), wk =   0.0937500
        k(   22) = (  -0.2500000   0.2500000   0.2500000), wk =   0.0312500
        k(   23) = (   0.5000000  -0.5000000  -0.5000000), wk =   0.0156250
        k(   24) = (   0.2500000   0.7500000   0.7500000), wk =   0.0937500
        k(   25) = (   0.7500000  -0.2500000  -0.7500000), wk =   0.0937500
        k(   26) = (   0.0000000   0.5000000   0.5000000), wk =   0.0937500

                       cryst. coord.
        k(    1) = (   0.0000000   0.0000000   0.0000000), wk =   0.0156250
        k(    2) = (   0.0000000   0.0000000   0.2500000), wk =   0.0937500
        k(    3) = (   0.0000000   0.0000000  -0.5000000), wk =   0.0468750
        k(    4) = (   0.0000000   0.2500000   0.2500000), wk =   0.0937500
        k(    5) = (   0.0000000   0.2500000  -0.5000000), wk =   0.1875000
        k(    6) = (   0.0000000   0.2500000  -0.2500000), wk =   0.0937500
        k(    7) = (   0.0000000  -0.5000000  -0.5000000), wk =   0.0468750
        k(    8) = (   0.2500000  -0.5000000  -0.2500000), wk =   0.0937500
        k(    9) = (   0.2500000   0.2500000   0.2500000), wk =   0.0312500
        k(   10) = (  -0.5000000  -0.5000000  -0.5000000), wk =   0.0156250
        k(   11) = (   0.2500000   0.7500000   0.2500000), wk =   0.0937500
        k(   12) = (  -0.7500000  -0.5000000  -0.5000000), wk =   0.0937500
        k(   13) = (   0.2500000   0.5000000   0.2500000), wk =   0.0937500
        k(   14) = (   0.0000000   0.0000000   0.0000000), wk =   0.0156250
        k(   15) = (   0.0000000   0.0000000   0.2500000), wk =   0.0937500
        k(   16) = (   0.0000000   0.0000000  -0.5000000), wk =   0.0468750
        k(   17) = (   0.0000000   0.2500000   0.2500000), wk =   0.0937500
        k(   18) = (   0.0000000   0.2500000  -0.5000000), wk =   0.1875000
        k(   19) = (   0.0000000   0.2500000  -0.2500000), wk =   0.0937500
        k(   20) = (   0.0000000  -0.5000000  -0.5000000), wk =   0.0468750
        k(   21) = (   0.2500000  -0.5000000  -0.2500000), wk =   0.0937500
        k(   22) = (   0.2500000   0.2500000   0.2500000), wk =   0.0312500
        k(   23) = (  -0.5000000  -0.5000000  -0.5000000), wk =   0.0156250
        k(   24) = (   0.2500000   0.7500000   0.2500000), wk =   0.0937500
        k(   25) = (  -0.7500000  -0.5000000  -0.5000000), wk =   0.0937500
        k(   26) = (   0.2500000   0.5000000   0.2500000), wk =   0.0937500

     Dense  grid:    86547 G-vectors     FFT dimensions: (  64,  64,  64)

     Smooth grid:    22075 G-vectors     FFT dimensions: (  40,  40,  40)

     Largest allocated arrays     est. size (Mb)     dimensions
        Kohn-Sham Wavefunctions         1.64 Mb     (   1395,   77)
        Atomic wavefunctions            1.70 Mb     (   1395,   80)
        NL pseudopotentials             4.43 Mb     (   1395,  208)
        Each V/rho on FFT grid          4.00 Mb     ( 131072,   2)
        Each G-vector array             0.33 Mb     (  43274)
        G-vector shells                 0.00 Mb     (    635)
     Largest temporary arrays     est. size (Mb)     dimensions
        Auxiliary wavefunctions         6.56 Mb     (   1395,  308)
        Each subspace H/S matrix        1.45 Mb     ( 308, 308)
        Each <psi_i|beta_j> matrix      0.24 Mb     (    208,   77)
        Arrays for rho mixing          16.00 Mb     ( 131072,   8)

     Check: negative/imaginary core charge=   -0.000047    0.000000

     Initial potential from superposition of free atoms

     starting charge  127.99632, renormalised to  128.00000
 --- in v_hubbard ---
Hubbard energy    0.0000
 -------
     Number of +U iterations with fixed ns =  0
     Starting occupations:
 --- enter write_ns ---
 LDA+U parameters:
U( 1)     =  0.00000000
alpha( 1) =  0.00000000
U( 2)     =  0.00000000
alpha( 2) =  0.00000000
U( 3)     =  0.00000000
alpha( 3) =  0.00000000
U( 4)     =  0.00000000
alpha( 4) =  0.00000000
atom    1   Tr[ns(na)] (up, down, total) =   5.00000  3.00000  8.00000
   spin  1
    eigenvalues: 
  1.000  1.000  1.000  1.000  1.000
    eigenvectors:
  1.000  0.000  0.000  0.000  0.000
  0.000  1.000  0.000  0.000  0.000
  0.000  0.000  1.000  0.000  0.000
  0.000  0.000  0.000  1.000  0.000
  0.000  0.000  0.000  0.000  1.000
    occupations:
  1.000  0.000  0.000  0.000  0.000
  0.000  1.000  0.000  0.000  0.000
  0.000  0.000  1.000  0.000  0.000
  0.000  0.000  0.000  1.000  0.000
  0.000  0.000  0.000  0.000  1.000
   spin  2
    eigenvalues: 
  0.600  0.600  0.600  0.600  0.600
    eigenvectors:
  1.000  0.000  0.000  0.000  0.000
  0.000  1.000  0.000  0.000  0.000
  0.000  0.000  1.000  0.000  0.000
  0.000  0.000  0.000  1.000  0.000
  0.000  0.000  0.000  0.000  1.000
    occupations:
  0.600  0.000  0.000  0.000  0.000
  0.000  0.600  0.000  0.000  0.000
  0.000  0.000  0.600  0.000  0.000
  0.000  0.000  0.000  0.600  0.000
  0.000  0.000  0.000  0.000  0.600
atomic mag. moment =     2.000000
atom    2   Tr[ns(na)] (up, down, total) =   5.00000  3.00000  8.00000
   spin  1
    eigenvalues: 
  1.000  1.000  1.000  1.000  1.000
    eigenvectors:
  1.000  0.000  0.000  0.000  0.000
  0.000  1.000  0.000  0.000  0.000
  0.000  0.000  1.000  0.000  0.000
  0.000  0.000  0.000  1.000  0.000
  0.000  0.000  0.000  0.000  1.000
    occupations:
  1.000  0.000  0.000  0.000  0.000
  0.000  1.000  0.000  0.000  0.000
  0.000  0.000  1.000  0.000  0.000
  0.000  0.000  0.000  1.000  0.000
  0.000  0.000  0.000  0.000  1.000
   spin  2
    eigenvalues: 
  0.600  0.600  0.600  0.600  0.600
    eigenvectors:
  1.000  0.000  0.000  0.000  0.000
  0.000  1.000  0.000  0.000  0.000
  0.000  0.000  1.000  0.000  0.000
  0.000  0.000  0.000  1.000  0.000
  0.000  0.000  0.000  0.000  1.000
    occupations:
  0.600  0.000  0.000  0.000  0.000
  0.000  0.600  0.000  0.000  0.000
  0.000  0.000  0.600  0.000  0.000
  0.000  0.000  0.000  0.600  0.000
  0.000  0.000  0.000  0.000  0.600
atomic mag. moment =     2.000000
atom    3   Tr[ns(na)] (up, down, total) =   5.00000  3.00000  8.00000
   spin  1
    eigenvalues: 
  1.000  1.000  1.000  1.000  1.000
    eigenvectors:
  1.000  0.000  0.000  0.000  0.000
  0.000  1.000  0.000  0.000  0.000
  0.000  0.000  1.000  0.000  0.000
  0.000  0.000  0.000  1.000  0.000
  0.000  0.000  0.000  0.000  1.000
    occupations:
  1.000  0.000  0.000  0.000  0.000
  0.000  1.000  0.000  0.000  0.000
  0.000  0.000  1.000  0.000  0.000
  0.000  0.000  0.000  1.000  0.000
  0.000  0.000  0.000  0.000  1.000
   spin  2
    eigenvalues: 
  0.600  0.600  0.600  0.600  0.600
    eigenvectors:
  1.000  0.000  0.000  0.000  0.000
  0.000  1.000  0.000  0.000  0.000
  0.000  0.000  1.000  0.000  0.000
  0.000  0.000  0.000  1.000  0.000
  0.000  0.000  0.000  0.000  1.000
    occupations:
  0.600  0.000  0.000  0.000  0.000
  0.000  0.600  0.000  0.000  0.000
  0.000  0.000  0.600  0.000  0.000
  0.000  0.000  0.000  0.600  0.000
  0.000  0.000  0.000  0.000  0.600
atomic mag. moment =     2.000000
atom    4   Tr[ns(na)] (up, down, total) =   5.00000  3.00000  8.00000
   spin  1
    eigenvalues: 
  1.000  1.000  1.000  1.000  1.000
    eigenvectors:
  1.000  0.000  0.000  0.000  0.000
  0.000  1.000  0.000  0.000  0.000
  0.000  0.000  1.000  0.000  0.000
  0.000  0.000  0.000  1.000  0.000
  0.000  0.000  0.000  0.000  1.000
    occupations:
  1.000  0.000  0.000  0.000  0.000
  0.000  1.000  0.000  0.000  0.000
  0.000  0.000  1.000  0.000  0.000
  0.000  0.000  0.000  1.000  0.000
  0.000  0.000  0.000  0.000  1.000
   spin  2
    eigenvalues: 
  0.600  0.600  0.600  0.600  0.600
    eigenvectors:
  1.000  0.000  0.000  0.000  0.000
  0.000  1.000  0.000  0.000  0.000
  0.000  0.000  1.000  0.000  0.000
  0.000  0.000  0.000  1.000  0.000
  0.000  0.000  0.000  0.000  1.000
    occupations:
  0.600  0.000  0.000  0.000  0.000
  0.000  0.600  0.000  0.000  0.000
  0.000  0.000  0.600  0.000  0.000
  0.000  0.000  0.000  0.600  0.000
  0.000  0.000  0.000  0.000  0.600
atomic mag. moment =     2.000000
atom    5   Tr[ns(na)] (up, down, total) =   3.00000  5.00000  8.00000
   spin  1
    eigenvalues: 
  0.600  0.600  0.600  0.600  0.600
    eigenvectors:
  1.000  0.000  0.000  0.000  0.000
  0.000  1.000  0.000  0.000  0.000
  0.000  0.000  1.000  0.000  0.000
  0.000  0.000  0.000  1.000  0.000
  0.000  0.000  0.000  0.000  1.000
    occupations:
  0.600  0.000  0.000  0.000  0.000
  0.000  0.600  0.000  0.000  0.000
  0.000  0.000  0.600  0.000  0.000
  0.000  0.000  0.000  0.600  0.000
  0.000  0.000  0.000  0.000  0.600
   spin  2
    eigenvalues: 
  1.000  1.000  1.000  1.000  1.000
    eigenvectors:
  1.000  0.000  0.000  0.000  0.000
  0.000  1.000  0.000  0.000  0.000
  0.000  0.000  1.000  0.000  0.000
  0.000  0.000  0.000  1.000  0.000
  0.000  0.000  0.000  0.000  1.000
    occupations:
  1.000  0.000  0.000  0.000  0.000
  0.000  1.000  0.000  0.000  0.000
  0.000  0.000  1.000  0.000  0.000
  0.000  0.000  0.000  1.000  0.000
  0.000  0.000  0.000  0.000  1.000
atomic mag. moment =    -2.000000
atom    6   Tr[ns(na)] (up, down, total) =   3.00000  5.00000  8.00000
   spin  1
    eigenvalues: 
  0.600  0.600  0.600  0.600  0.600
    eigenvectors:
  1.000  0.000  0.000  0.000  0.000
  0.000  1.000  0.000  0.000  0.000
  0.000  0.000  1.000  0.000  0.000
  0.000  0.000  0.000  1.000  0.000
  0.000  0.000  0.000  0.000  1.000
    occupations:
  0.600  0.000  0.000  0.000  0.000
  0.000  0.600  0.000  0.000  0.000
  0.000  0.000  0.600  0.000  0.000
  0.000  0.000  0.000  0.600  0.000
  0.000  0.000  0.000  0.000  0.600
   spin  2
    eigenvalues: 
  1.000  1.000  1.000  1.000  1.000
    eigenvectors:
  1.000  0.000  0.000  0.000  0.000
  0.000  1.000  0.000  0.000  0.000
  0.000  0.000  1.000  0.000  0.000
  0.000  0.000  0.000  1.000  0.000
  0.000  0.000  0.000  0.000  1.000
    occupations:
  1.000  0.000  0.000  0.000  0.000
  0.000  1.000  0.000  0.000  0.000
  0.000  0.000  1.000  0.000  0.000
  0.000  0.000  0.000  1.000  0.000
  0.000  0.000  0.000  0.000  1.000
atomic mag. moment =    -2.000000
atom    7   Tr[ns(na)] (up, down, total) =   3.00000  5.00000  8.00000
   spin  1
    eigenvalues: 
  0.600  0.600  0.600  0.600  0.600
    eigenvectors:
  1.000  0.000  0.000  0.000  0.000
  0.000  1.000  0.000  0.000  0.000
  0.000  0.000  1.000  0.000  0.000
  0.000  0.000  0.000  1.000  0.000
  0.000  0.000  0.000  0.000  1.000
    occupations:
  0.600  0.000  0.000  0.000  0.000
  0.000  0.600  0.000  0.000  0.000
  0.000  0.000  0.600  0.000  0.000
  0.000  0.000  0.000  0.600  0.000
  0.000  0.000  0.000  0.000  0.600
   spin  2
    eigenvalues: 
  1.000  1.000  1.000  1.000  1.000
    eigenvectors:
  1.000  0.000  0.000  0.000  0.000
  0.000  1.000  0.000  0.000  0.000
  0.000  0.000  1.000  0.000  0.000
  0.000  0.000  0.000  1.000  0.000
  0.000  0.000  0.000  0.000  1.000
    occupations:
  1.000  0.000  0.000  0.000  0.000
  0.000  1.000  0.000  0.000  0.000
  0.000  0.000  1.000  0.000  0.000
  0.000  0.000  0.000  1.000  0.000
  0.000  0.000  0.000  0.000  1.000
atomic mag. moment =    -2.000000
atom    8   Tr[ns(na)] (up, down, total) =   3.00000  5.00000  8.00000
   spin  1
    eigenvalues: 
  0.600  0.600  0.600  0.600  0.600
    eigenvectors:
  1.000  0.000  0.000  0.000  0.000
  0.000  1.000  0.000  0.000  0.000
  0.000  0.000  1.000  0.000  0.000
  0.000  0.000  0.000  1.000  0.000
  0.000  0.000  0.000  0.000  1.000
    occupations:
  0.600  0.000  0.000  0.000  0.000
  0.000  0.600  0.000  0.000  0.000
  0.000  0.000  0.600  0.000  0.000
  0.000  0.000  0.000  0.600  0.000
  0.000  0.000  0.000  0.000  0.600
   spin  2
    eigenvalues: 
  1.000  1.000  1.000  1.000  1.000
    eigenvectors:
  1.000  0.000  0.000  0.000  0.000
  0.000  1.000  0.000  0.000  0.000
  0.000  0.000  1.000  0.000  0.000
  0.000  0.000  0.000  1.000  0.000
  0.000  0.000  0.000  0.000  1.000
    occupations:
  1.000  0.000  0.000  0.000  0.000
  0.000  1.000  0.000  0.000  0.000
  0.000  0.000  1.000  0.000  0.000
  0.000  0.000  0.000  1.000  0.000
  0.000  0.000  0.000  0.000  1.000
atomic mag. moment =    -2.000000
atom    9   Tr[ns(na)] (up, down, total) =   2.00000  2.00000  4.00000
   spin  1
    eigenvalues: 
  0.667  0.667  0.667
    eigenvectors:
  1.000  0.000  0.000
  0.000  1.000  0.000
  0.000  0.000  1.000
    occupations:
  0.667  0.000  0.000
  0.000  0.667  0.000
  0.000  0.000  0.667
   spin  2
    eigenvalues: 
  0.667  0.667  0.667
    eigenvectors:
  1.000  0.000  0.000
  0.000  1.000  0.000
  0.000  0.000  1.000
    occupations:
  0.667  0.000  0.000
  0.000  0.667  0.000
  0.000  0.000  0.667
atomic mag. moment =     0.000000
atom   10   Tr[ns(na)] (up, down, total) =   2.00000  2.00000  4.00000
   spin  1
    eigenvalues: 
  0.667  0.667  0.667
    eigenvectors:
  1.000  0.000  0.000
  0.000  1.000  0.000
  0.000  0.000  1.000
    occupations:
  0.667  0.000  0.000
  0.000  0.667  0.000
  0.000  0.000  0.667
   spin  2
    eigenvalues: 
  0.667  0.667  0.667
    eigenvectors:
  1.000  0.000  0.000
  0.000  1.000  0.000
  0.000  0.000  1.000
    occupations:
  0.667  0.000  0.000
  0.000  0.667  0.000
  0.000  0.000  0.667
atomic mag. moment =     0.000000
atom   11   Tr[ns(na)] (up, down, total) =   2.00000  2.00000  4.00000
   spin  1
    eigenvalues: 
  0.667  0.667  0.667
    eigenvectors:
  1.000  0.000  0.000
  0.000  1.000  0.000
  0.000  0.000  1.000
    occupations:
  0.667  0.000  0.000
  0.000  0.667  0.000
  0.000  0.000  0.667
   spin  2
    eigenvalues: 
  0.667  0.667  0.667
    eigenvectors:
  1.000  0.000  0.000
  0.000  1.000  0.000
  0.000  0.000  1.000
    occupations:
  0.667  0.000  0.000
  0.000  0.667  0.000
  0.000  0.000  0.667
atomic mag. moment =     0.000000
atom   12   Tr[ns(na)] (up, down, total) =   2.00000  2.00000  4.00000
   spin  1
    eigenvalues: 
  0.667  0.667  0.667
    eigenvectors:
  1.000  0.000  0.000
  0.000  1.000  0.000
  0.000  0.000  1.000
    occupations:
  0.667  0.000  0.000
  0.000  0.667  0.000
  0.000  0.000  0.667
   spin  2
    eigenvalues: 
  0.667  0.667  0.667
    eigenvectors:
  1.000  0.000  0.000
  0.000  1.000  0.000
  0.000  0.000  1.000
    occupations:
  0.667  0.000  0.000
  0.000  0.667  0.000
  0.000  0.000  0.667
atomic mag. moment =     0.000000
atom   13   Tr[ns(na)] (up, down, total) =   2.00000  2.00000  4.00000
   spin  1
    eigenvalues: 
  0.667  0.667  0.667
    eigenvectors:
  1.000  0.000  0.000
  0.000  1.000  0.000
  0.000  0.000  1.000
    occupations:
  0.667  0.000  0.000
  0.000  0.667  0.000
  0.000  0.000  0.667
   spin  2
    eigenvalues: 
  0.667  0.667  0.667
    eigenvectors:
  1.000  0.000  0.000
  0.000  1.000  0.000
  0.000  0.000  1.000
    occupations:
  0.667  0.000  0.000
  0.000  0.667  0.000
  0.000  0.000  0.667
atomic mag. moment =     0.000000
atom   14   Tr[ns(na)] (up, down, total) =   2.00000  2.00000  4.00000
   spin  1
    eigenvalues: 
  0.667  0.667  0.667
    eigenvectors:
  1.000  0.000  0.000
  0.000  1.000  0.000
  0.000  0.000  1.000
    occupations:
  0.667  0.000  0.000
  0.000  0.667  0.000
  0.000  0.000  0.667
   spin  2
    eigenvalues: 
  0.667  0.667  0.667
    eigenvectors:
  1.000  0.000  0.000
  0.000  1.000  0.000
  0.000  0.000  1.000
    occupations:
  0.667  0.000  0.000
  0.000  0.667  0.000
  0.000  0.000  0.667
atomic mag. moment =     0.000000
atom   15   Tr[ns(na)] (up, down, total) =   2.00000  2.00000  4.00000
   spin  1
    eigenvalues: 
  0.667  0.667  0.667
    eigenvectors:
  1.000  0.000  0.000
  0.000  1.000  0.000
  0.000  0.000  1.000
    occupations:
  0.667  0.000  0.000
  0.000  0.667  0.000
  0.000  0.000  0.667
   spin  2
    eigenvalues: 
  0.667  0.667  0.667
    eigenvectors:
  1.000  0.000  0.000
  0.000  1.000  0.000
  0.000  0.000  1.000
    occupations:
  0.667  0.000  0.000
  0.000  0.667  0.000
  0.000  0.000  0.667
atomic mag. moment =     0.000000
atom   16   Tr[ns(na)] (up, down, total) =   2.00000  2.00000  4.00000
   spin  1
    eigenvalues: 
  0.667  0.667  0.667
    eigenvectors:
  1.000  0.000  0.000
  0.000  1.000  0.000
  0.000  0.000  1.000
    occupations:
  0.667  0.000  0.000
  0.000  0.667  0.000
  0.000  0.000  0.667
   spin  2
    eigenvalues: 
  0.667  0.667  0.667
    eigenvectors:
  1.000  0.000  0.000
  0.000  1.000  0.000
  0.000  0.000  1.000
    occupations:
  0.667  0.000  0.000
  0.000  0.667  0.000
  0.000  0.000  0.667
atomic mag. moment =     0.000000
N of occupied +U levels =  96.0000000
 --- exit write_ns ---
 Atomic wfc used for LDA+U Projector are NOT orthogonalized
     Starting wfc are   80 randomized atomic wfcs

     total cpu time spent up to now is       30.6 secs

     per-process dynamical memory:    59.8 Mb

     Self-consistent Calculation

     iteration #  1     ecut=    30.00 Ry     beta=0.30
     Davidson diagonalization with overlap
     ethr =  1.00E-02,  avg # of iterations =  3.0
 --- enter write_ns ---
 LDA+U parameters:
U( 1)     =  0.00000000
alpha( 1) =  0.00000000
U( 2)     =  0.00000000
alpha( 2) =  0.00000000
U( 3)     =  0.00000000
alpha( 3) =  0.00000000
U( 4)     =  0.00000000
alpha( 4) =  0.00000000
atom    1   Tr[ns(na)] (up, down, total) =   4.98476  3.08069  8.06544
   spin  1
    eigenvalues: 
  0.995  0.995  0.998  0.998  0.998
    eigenvectors:
  0.250  0.750  0.000  0.000  0.000
  0.000  0.000  0.000  0.665  0.334
  0.000  0.000  0.500  0.167  0.333
  0.750  0.250  0.000  0.000  0.000
  0.000  0.000  0.500  0.167  0.333
    occupations:
  0.995  0.000  0.000  0.000  0.000
  0.000  0.998  0.000  0.000  0.000
  0.000  0.000  0.998  0.000  0.000
  0.000  0.000  0.000  0.995  0.000
  0.000  0.000  0.000  0.000  0.998
   spin  2
    eigenvalues: 
  0.241  0.241  0.851  0.851  0.896
    eigenvectors:
  0.750  0.250  0.000  0.000  0.000
  0.000  0.000  0.000  0.667  0.333
  0.000  0.000  0.500  0.166  0.333
  0.250  0.750  0.000  0.000  0.000
  0.000  0.000  0.500  0.166  0.333
    occupations:
  0.241 -0.005  0.005  0.000 -0.010
 -0.005  0.866 -0.015 -0.009 -0.015
  0.005 -0.015  0.866 -0.009  0.015
  0.000 -0.009 -0.009  0.241  0.000
 -0.010 -0.015  0.015  0.000  0.866
atomic mag. moment =     1.904068
atom    2   Tr[ns(na)] (up, down, total) =   4.98476  3.08069  8.06544
   spin  1
    eigenvalues: 
  0.995  0.995  0.998  0.998  0.998
    eigenvectors:
  0.250  0.750  0.000  0.000  0.000
  0.000  0.000  0.500  0.167  0.333
  0.000  0.000  0.000  0.665  0.334
  0.750  0.250  0.000  0.000  0.000
  0.000  0.000  0.500  0.167  0.333
    occupations:
  0.995  0.000  0.000  0.000  0.000
  0.000  0.998  0.000  0.000  0.000
  0.000  0.000  0.998  0.000  0.000
  0.000  0.000  0.000  0.995  0.000
  0.000  0.000  0.000  0.000  0.998
   spin  2
    eigenvalues: 
  0.241  0.241  0.851  0.851  0.896
    eigenvectors:
  0.750  0.250  0.000  0.000  0.000
  0.000  0.000  0.500  0.166  0.333
  0.000  0.000  0.000  0.667  0.333
  0.250  0.750  0.000  0.000  0.000
  0.000  0.000  0.500  0.166  0.333
    occupations:
  0.241 -0.005  0.005  0.000 -0.010
 -0.005  0.866 -0.015 -0.009 -0.015
  0.005 -0.015  0.866 -0.009  0.015
  0.000 -0.009 -0.009  0.241  0.000
 -0.010 -0.015  0.015  0.000  0.866
atomic mag. moment =     1.904068
atom    3   Tr[ns(na)] (up, down, total) =   4.98476  3.08069  8.06544
   spin  1
    eigenvalues: 
  0.995  0.995  0.998  0.998  0.998
    eigenvectors:
  0.999  0.000  0.000  0.001  0.000
  0.000  0.000  0.500  0.167  0.333
  0.000  0.000  0.500  0.167  0.333
  0.000  0.999  0.001  0.000  0.000
  0.000  0.000  0.000  0.665  0.334
    occupations:
  0.995  0.000  0.000  0.000  0.000
  0.000  0.998  0.000  0.000  0.000
  0.000  0.000  0.998  0.000  0.000
  0.000  0.000  0.000  0.995  0.000
  0.000  0.000  0.000  0.000  0.998
   spin  2
    eigenvalues: 
  0.241  0.241  0.851  0.851  0.896
    eigenvectors:
  0.000  1.000  0.000  0.000  0.000
  0.000  0.000  0.500  0.166  0.333
  0.000  0.000  0.500  0.166  0.333
  1.000  0.000  0.000  0.000  0.000
  0.000  0.000  0.000  0.667  0.333
    occupations:
  0.241 -0.005  0.005  0.000 -0.010
 -0.005  0.866 -0.015 -0.009 -0.015
  0.005 -0.015  0.866 -0.009  0.015
  0.000 -0.009 -0.009  0.241  0.000
 -0.010 -0.015  0.015  0.000  0.866
atomic mag. moment =     1.904068
atom    4   Tr[ns(na)] (up, down, total) =   4.98474  3.08064  8.06538
   spin  1
    eigenvalues: 
  0.995  0.995  0.998  0.998  0.998
    eigenvectors:
  0.013  0.986  0.000  0.000  0.000
  0.000  0.000  0.054  0.613  0.333
  0.000  0.000  0.630  0.036  0.333
  0.986  0.013  0.000  0.000  0.000
  0.000  0.000  0.316  0.351  0.333
    occupations:
  0.995  0.000  0.000  0.000  0.000
  0.000  0.998  0.000  0.000  0.000
  0.000  0.000  0.998  0.000  0.000
  0.000  0.000  0.000  0.995  0.000
  0.000  0.000  0.000  0.000  0.998
   spin  2
    eigenvalues: 
  0.241  0.241  0.851  0.851  0.896
    eigenvectors:
  0.004  0.996  0.000  0.000  0.000
  0.000  0.000  0.048  0.618  0.333
  0.000  0.000  0.625  0.041  0.333
  0.996  0.004  0.000  0.000  0.000
  0.000  0.000  0.326  0.340  0.333
    occupations:
  0.241 -0.005  0.005  0.000 -0.010
 -0.005  0.866 -0.015 -0.009 -0.015
  0.005 -0.015  0.866 -0.009  0.015
  0.000 -0.009 -0.009  0.241  0.000
 -0.010 -0.015  0.015  0.000  0.866
atomic mag. moment =     1.904106
atom    5   Tr[ns(na)] (up, down, total) =   3.08058  4.98474  8.06532
   spin  1
    eigenvalues: 
  0.241  0.241  0.851  0.851  0.896
    eigenvectors:
  0.076  0.923  0.000  0.000  0.000
  0.000  0.000  0.043  0.623  0.333
  0.000  0.000  0.620  0.046  0.333
  0.923  0.076  0.000  0.000  0.000
  0.000  0.000  0.336  0.330  0.333
    occupations:
  0.241 -0.005  0.005  0.000 -0.010
 -0.005  0.866 -0.015 -0.009 -0.015
  0.005 -0.015  0.866 -0.009  0.015
  0.000 -0.009 -0.009  0.241  0.000
 -0.010 -0.015  0.015  0.000  0.866
   spin  2
    eigenvalues: 
  0.995  0.995  0.998  0.998  0.998
    eigenvectors:
  0.001  0.998  0.000  0.000  0.000
  0.000  0.000  0.049  0.617  0.333
  0.000  0.000  0.626  0.041  0.333
  0.998  0.001  0.000  0.000  0.000
  0.000  0.000  0.325  0.342  0.333
    occupations:
  0.995  0.000  0.000  0.000  0.000
  0.000  0.998  0.000  0.000  0.000
  0.000  0.000  0.998  0.000  0.000
  0.000  0.000  0.000  0.995  0.000
  0.000  0.000  0.000  0.000  0.998
atomic mag. moment =    -1.904160
atom    6   Tr[ns(na)] (up, down, total) =   3.08059  4.98475  8.06534
   spin  1
    eigenvalues: 
  0.241  0.241  0.851  0.851  0.896
    eigenvectors:
  1.000  0.000  0.000  0.000  0.000
  0.000  0.000  0.167  0.500  0.333
  0.000  0.000  0.167  0.500  0.333
  0.000  1.000  0.000  0.000  0.000
  0.000  0.000  0.666  0.000  0.333
    occupations:
  0.241 -0.005  0.005  0.000 -0.010
 -0.005  0.866 -0.015 -0.009 -0.015
  0.005 -0.015  0.866 -0.009  0.015
  0.000 -0.009 -0.009  0.241  0.000
 -0.010 -0.015  0.015  0.000  0.866
   spin  2
    eigenvalues: 
  0.995  0.995  0.998  0.998  0.998
    eigenvectors:
  0.000  0.999  0.001  0.000  0.000
  0.000  0.000  0.164  0.500  0.336
  0.000  0.000  0.164  0.500  0.336
  0.999  0.000  0.000  0.001  0.000
  0.000  0.000  0.672  0.000  0.328
    occupations:
  0.995  0.000  0.000  0.000  0.000
  0.000  0.998  0.000  0.000  0.000
  0.000  0.000  0.998  0.000  0.000
  0.000  0.000  0.000  0.995  0.000
  0.000  0.000  0.000  0.000  0.998
atomic mag. moment =    -1.904159
atom    7   Tr[ns(na)] (up, down, total) =   3.08059  4.98475  8.06534
   spin  1
    eigenvalues: 
  0.241  0.241  0.851  0.851  0.896
    eigenvectors:
  0.250  0.750  0.000  0.000  0.000
  0.000  0.000  0.167  0.500  0.333
  0.000  0.000  0.666  0.000  0.333
  0.750  0.250  0.000  0.000  0.000
  0.000  0.000  0.167  0.500  0.333
    occupations:
  0.241 -0.005  0.005  0.000 -0.010
 -0.005  0.866 -0.015 -0.009 -0.015
  0.005 -0.015  0.866 -0.009  0.015
  0.000 -0.009 -0.009  0.241  0.000
 -0.010 -0.015  0.015  0.000  0.866
   spin  2
    eigenvalues: 
  0.995  0.995  0.998  0.998  0.998
    eigenvectors:
  0.750  0.250  0.000  0.000  0.000
  0.000  0.000  0.164  0.500  0.336
  0.000  0.000  0.672  0.000  0.328
  0.250  0.750  0.000  0.000  0.000
  0.000  0.000  0.164  0.500  0.336
    occupations:
  0.995  0.000  0.000  0.000  0.000
  0.000  0.998  0.000  0.000  0.000
  0.000  0.000  0.998  0.000  0.000
  0.000  0.000  0.000  0.995  0.000
  0.000  0.000  0.000  0.000  0.998
atomic mag. moment =    -1.904159
atom    8   Tr[ns(na)] (up, down, total) =   3.08059  4.98475  8.06534
   spin  1
    eigenvalues: 
  0.241  0.241  0.851  0.851  0.896
    eigenvectors:
  0.250  0.750  0.000  0.000  0.000
  0.000  0.000  0.666  0.000  0.333
  0.000  0.000  0.167  0.500  0.333
  0.750  0.250  0.000  0.000  0.000
  0.000  0.000  0.167  0.500  0.333
    occupations:
  0.241 -0.005  0.005  0.000 -0.010
 -0.005  0.866 -0.015 -0.009 -0.015
  0.005 -0.015  0.866 -0.009  0.015
  0.000 -0.009 -0.009  0.241  0.000
 -0.010 -0.015  0.015  0.000  0.866
   spin  2
    eigenvalues: 
  0.995  0.995  0.998  0.998  0.998
    eigenvectors:
  0.750  0.250  0.000  0.000  0.000
  0.000  0.000  0.672  0.000  0.328
  0.000  0.000  0.164  0.500  0.336
  0.250  0.750  0.000  0.000  0.000
  0.000  0.000  0.164  0.500  0.336
    occupations:
  0.995  0.000  0.000  0.000  0.000
  0.000  0.998  0.000  0.000  0.000
  0.000  0.000  0.998  0.000  0.000
  0.000  0.000  0.000  0.995  0.000
  0.000  0.000  0.000  0.000  0.998
atomic mag. moment =    -1.904159
atom    9   Tr[ns(na)] (up, down, total) =   2.96540  2.96540  5.93080
   spin  1
    eigenvalues: 
  0.988  0.988  0.989
    eigenvectors:
  0.127  0.540  0.333
  0.210  0.456  0.333
  0.663  0.004  0.333
    occupations:
  0.988  0.000  0.000
  0.000  0.988  0.000
  0.000  0.000  0.988
   spin  2
    eigenvalues: 
  0.988  0.988  0.989
    eigenvectors:
  0.105  0.562  0.333
  0.237  0.430  0.333
  0.658  0.009  0.333
    occupations:
  0.988  0.000  0.000
  0.000  0.988  0.000
  0.000  0.000  0.988
atomic mag. moment =    -0.000006
atom   10   Tr[ns(na)] (up, down, total) =   2.96542  2.96540  5.93082
   spin  1
    eigenvalues: 
  0.988  0.988  0.989
    eigenvectors:
  0.167  0.500  0.333
  0.167  0.500  0.333
  0.667  0.000  0.333
    occupations:
  0.988  0.000  0.000
  0.000  0.988  0.000
  0.000  0.000  0.988
   spin  2
    eigenvalues: 
  0.988  0.988  0.989
    eigenvectors:
  0.166  0.500  0.334
  0.166  0.500  0.334
  0.668  0.000  0.332
    occupations:
  0.988  0.000  0.000
  0.000  0.988  0.000
  0.000  0.000  0.988
atomic mag. moment =     0.000012
atom   11   Tr[ns(na)] (up, down, total) =   2.96542  2.96540  5.93082
   spin  1
    eigenvalues: 
  0.988  0.988  0.989
    eigenvectors:
  0.167  0.500  0.333
  0.667  0.000  0.333
  0.167  0.500  0.333
    occupations:
  0.988  0.000  0.000
  0.000  0.988  0.000
  0.000  0.000  0.988
   spin  2
    eigenvalues: 
  0.988  0.988  0.989
    eigenvectors:
  0.166  0.500  0.334
  0.668  0.000  0.332
  0.166  0.500  0.334
    occupations:
  0.988  0.000  0.000
  0.000  0.988  0.000
  0.000  0.000  0.988
atomic mag. moment =     0.000012
atom   12   Tr[ns(na)] (up, down, total) =   2.96542  2.96540  5.93082
   spin  1
    eigenvalues: 
  0.988  0.988  0.989
    eigenvectors:
  0.667  0.000  0.333
  0.167  0.500  0.333
  0.167  0.500  0.333
    occupations:
  0.988  0.000  0.000
  0.000  0.988  0.000
  0.000  0.000  0.988
   spin  2
    eigenvalues: 
  0.988  0.988  0.989
    eigenvectors:
  0.668  0.000  0.332
  0.166  0.500  0.334
  0.166  0.500  0.334
    occupations:
  0.988  0.000  0.000
  0.000  0.988  0.000
  0.000  0.000  0.988
atomic mag. moment =     0.000012
atom   13   Tr[ns(na)] (up, down, total) =   2.96541  2.96540  5.93081
   spin  1
    eigenvalues: 
  0.988  0.988  0.989
    eigenvectors:
  0.000  0.667  0.333
  0.500  0.166  0.334
  0.500  0.166  0.334
    occupations:
  0.988  0.000  0.000
  0.000  0.988  0.000
  0.000  0.000  0.988
   spin  2
    eigenvalues: 
  0.988  0.988  0.989
    eigenvectors:
  0.662  0.000  0.338
  0.169  0.500  0.331
  0.169  0.500  0.331
    occupations:
  0.988  0.000  0.000
  0.000  0.988  0.000
  0.000  0.000  0.988
atomic mag. moment =     0.000009
atom   14   Tr[ns(na)] (up, down, total) =   2.96541  2.96540  5.93081
   spin  1
    eigenvalues: 
  0.988  0.988  0.989
    eigenvectors:
  0.500  0.166  0.334
  0.000  0.667  0.333
  0.500  0.166  0.334
    occupations:
  0.988  0.000  0.000
  0.000  0.988  0.000
  0.000  0.000  0.988
   spin  2
    eigenvalues: 
  0.988  0.988  0.989
    eigenvectors:
  0.169  0.500  0.331
  0.662  0.000  0.338
  0.169  0.500  0.331
    occupations:
  0.988  0.000  0.000
  0.000  0.988  0.000
  0.000  0.000  0.988
atomic mag. moment =     0.000009
atom   15   Tr[ns(na)] (up, down, total) =   2.96541  2.96540  5.93081
   spin  1
    eigenvalues: 
  0.988  0.988  0.989
    eigenvectors:
  0.500  0.166  0.334
  0.500  0.166  0.334
  0.000  0.667  0.333
    occupations:
  0.988  0.000  0.000
  0.000  0.988  0.000
  0.000  0.000  0.988
   spin  2
    eigenvalues: 
  0.988  0.988  0.989
    eigenvectors:
  0.169  0.500  0.331
  0.169  0.500  0.331
  0.662  0.000  0.338
    occupations:
  0.988  0.000  0.000
  0.000  0.988  0.000
  0.000  0.000  0.988
atomic mag. moment =     0.000009
atom   16   Tr[ns(na)] (up, down, total) =   2.96541  2.96539  5.93080
   spin  1
    eigenvalues: 
  0.988  0.988  0.989
    eigenvectors:
  0.066  0.601  0.333
  0.295  0.371  0.333
  0.639  0.027  0.333
    occupations:
  0.988  0.000  0.000
  0.000  0.988  0.000
  0.000  0.000  0.988
   spin  2
    eigenvalues: 
  0.988  0.988  0.989
    eigenvectors:
  0.088  0.579  0.333
  0.261  0.406  0.333
  0.651  0.015  0.333
    occupations:
  0.988  0.000  0.000
  0.000  0.988  0.000
  0.000  0.000  0.988
atomic mag. moment =     0.000016
N of occupied +U levels = 111.9695572
 --- exit write_ns ---
 --- in v_hubbard ---
Hubbard energy    0.0000
 -------

     total cpu time spent up to now is       96.9 secs

     total energy              =    -938.82290405 Ry
     Harris-Foulkes estimate   =    -942.63298589 Ry
     estimated scf accuracy    <      10.04213490 Ry

     total magnetization       =     0.00 Bohr mag/cell
     absolute magnetization    =    18.44 Bohr mag/cell

     iteration #  2     ecut=    30.00 Ry     beta=0.30
     Davidson diagonalization with overlap
     ethr =  7.85E-03,  avg # of iterations =  2.1
 --- enter write_ns ---
 LDA+U parameters:
U( 1)     =  0.00000000
alpha( 1) =  0.00000000
U( 2)     =  0.00000000
alpha( 2) =  0.00000000
U( 3)     =  0.00000000
alpha( 3) =  0.00000000
U( 4)     =  0.00000000
alpha( 4) =  0.00000000
atom    1   Tr[ns(na)] (up, down, total) =   4.96687  3.85343  8.82030
   spin  1
    eigenvalues: 
  0.988  0.988  0.997  0.997  0.997
    eigenvectors:
  0.750  0.250  0.000  0.000  0.000
  0.000  0.000  0.333  0.666  0.000
  0.000  0.000  0.333  0.167  0.500
  0.250  0.750  0.000  0.000  0.000
  0.000  0.000  0.333  0.167  0.500
    occupations:
  0.988  0.000  0.000  0.000  0.000
  0.000  0.997  0.000  0.000  0.000
  0.000  0.000  0.997  0.000  0.000
  0.000  0.000  0.000  0.988  0.000
  0.000  0.000  0.000  0.000  0.997
   spin  2
    eigenvalues: 
  0.441  0.441  0.990  0.990  0.990
    eigenvectors:
  0.250  0.750  0.000  0.000  0.000
  0.000  0.000  0.673  0.000  0.327
  0.000  0.000  0.163  0.500  0.337
  0.750  0.250  0.000  0.000  0.000
  0.000  0.000  0.163  0.500  0.337
    occupations:
  0.442 -0.004  0.004  0.000 -0.008
 -0.004  0.990  0.000 -0.007  0.000
  0.004  0.000  0.990 -0.007  0.000
  0.000 -0.007 -0.007  0.442  0.000
 -0.008  0.000  0.000  0.000  0.990
atomic mag. moment =     1.113436
atom    2   Tr[ns(na)] (up, down, total) =   4.96687  3.85343  8.82030
   spin  1
    eigenvalues: 
  0.988  0.988  0.997  0.997  0.997
    eigenvectors:
  0.750  0.250  0.000  0.000  0.000
  0.000  0.000  0.333  0.167  0.500
  0.000  0.000  0.333  0.666  0.000
  0.250  0.750  0.000  0.000  0.000
  0.000  0.000  0.333  0.167  0.500
    occupations:
  0.988  0.000  0.000  0.000  0.000
  0.000  0.997  0.000  0.000  0.000
  0.000  0.000  0.997  0.000  0.000
  0.000  0.000  0.000  0.988  0.000
  0.000  0.000  0.000  0.000  0.997
   spin  2
    eigenvalues: 
  0.441  0.441  0.990  0.990  0.990
    eigenvectors:
  0.250  0.750  0.000  0.000  0.000
  0.000  0.000  0.163  0.500  0.337
  0.000  0.000  0.673  0.000  0.327
  0.750  0.250  0.000  0.000  0.000
  0.000  0.000  0.163  0.500  0.337
    occupations:
  0.442 -0.004  0.004  0.000 -0.008
 -0.004  0.990  0.000 -0.007  0.000
  0.004  0.000  0.990 -0.007  0.000
  0.000 -0.007 -0.007  0.442  0.000
 -0.008  0.000  0.000  0.000  0.990
atomic mag. moment =     1.113436
atom    3   Tr[ns(na)] (up, down, total) =   4.96687  3.85343  8.82030
   spin  1
    eigenvalues: 
  0.988  0.988  0.997  0.997  0.997
    eigenvectors:
  0.000  1.000  0.000  0.000  0.000
  0.000  0.000  0.333  0.167  0.500
  0.000  0.000  0.333  0.167  0.500
  1.000  0.000  0.000  0.000  0.000
  0.000  0.000  0.333  0.666  0.000
    occupations:
  0.988  0.000  0.000  0.000  0.000
  0.000  0.997  0.000  0.000  0.000
  0.000  0.000  0.997  0.000  0.000
  0.000  0.000  0.000  0.988  0.000
  0.000  0.000  0.000  0.000  0.997
   spin  2
    eigenvalues: 
  0.441  0.441  0.990  0.990  0.990
    eigenvectors:
  1.000  0.000  0.000  0.000  0.000
  0.000  0.000  0.163  0.500  0.337
  0.000  0.000  0.163  0.500  0.337
  0.000  1.000  0.000  0.000  0.000
  0.000  0.000  0.673  0.000  0.327
    occupations:
  0.442 -0.004  0.004  0.000 -0.008
 -0.004  0.990  0.000 -0.007  0.000
  0.004  0.000  0.990 -0.007  0.000
  0.000 -0.007 -0.007  0.442  0.000
 -0.008  0.000  0.000  0.000  0.990
atomic mag. moment =     1.113436
atom    4   Tr[ns(na)] (up, down, total) =   4.96687  3.85354  8.82041
   spin  1
    eigenvalues: 
  0.988  0.988  0.997  0.997  0.997
    eigenvectors:
  0.020  0.979  0.000  0.000  0.000
  0.000  0.000  0.333  0.067  0.599
  0.000  0.000  0.333  0.640  0.026
  0.979  0.020  0.000  0.000  0.000
  0.000  0.000  0.333  0.292  0.374
    occupations:
  0.988  0.000  0.000  0.000  0.000
  0.000  0.997  0.000  0.000  0.000
  0.000  0.000  0.997  0.000  0.000
  0.000  0.000  0.000  0.988  0.000
  0.000  0.000  0.000  0.000  0.997
   spin  2
    eigenvalues: 
  0.442  0.442  0.990  0.990  0.990
    eigenvectors:
  0.007  0.992  0.000  0.000  0.000
  0.000  0.000  0.048  0.618  0.333
  0.000  0.000  0.625  0.041  0.333
  0.992  0.007  0.000  0.000  0.000
  0.000  0.000  0.326  0.340  0.333
    occupations:
  0.442 -0.004  0.004  0.000 -0.008
 -0.004  0.990  0.000 -0.007  0.000
  0.004  0.000  0.990 -0.007  0.000
  0.000 -0.007 -0.007  0.442  0.000
 -0.008  0.000  0.000  0.000  0.990
atomic mag. moment =     1.113329
atom    5   Tr[ns(na)] (up, down, total) =   3.85364  4.96687  8.82051
   spin  1
    eigenvalues: 
  0.442  0.442  0.990  0.990  0.990
    eigenvectors:
  0.044  0.955  0.000  0.000  0.000
  0.000  0.000  0.057  0.610  0.333
  0.000  0.000  0.633  0.034  0.333
  0.955  0.044  0.000  0.000  0.000
  0.000  0.000  0.310  0.356  0.333
    occupations:
  0.442 -0.004  0.004  0.000 -0.008
 -0.004  0.990  0.000 -0.007  0.000
  0.004  0.000  0.990 -0.007  0.000
  0.000 -0.007 -0.007  0.442  0.000
 -0.008  0.000  0.000  0.000  0.990
   spin  2
    eigenvalues: 
  0.988  0.988  0.997  0.997  0.997
    eigenvectors:
  0.002  0.998  0.000  0.000  0.000
  0.000  0.000  0.333  0.060  0.606
  0.000  0.000  0.333  0.635  0.031
  0.998  0.002  0.000  0.000  0.000
  0.000  0.000  0.333  0.304  0.363
    occupations:
  0.988  0.000  0.000  0.000  0.000
  0.000  0.997  0.000  0.000  0.000
  0.000  0.000  0.997  0.000  0.000
  0.000  0.000  0.000  0.988  0.000
  0.000  0.000  0.000  0.000  0.997
atomic mag. moment =    -1.113232
atom    6   Tr[ns(na)] (up, down, total) =   3.85359  4.96688  8.82047
   spin  1
    eigenvalues: 
  0.442  0.442  0.990  0.990  0.990
    eigenvectors:
  1.000  0.000  0.000  0.000  0.000
  0.000  0.000  0.156  0.500  0.344
  0.000  0.000  0.156  0.500  0.344
  0.000  1.000  0.000  0.000  0.000
  0.000  0.000  0.688  0.000  0.312
    occupations:
  0.442 -0.004  0.004  0.000 -0.008
 -0.004  0.990  0.000 -0.007  0.000
  0.004  0.000  0.990 -0.007  0.000
  0.000 -0.007 -0.007  0.442  0.000
 -0.008  0.000  0.000  0.000  0.990
   spin  2
    eigenvalues: 
  0.988  0.988  0.997  0.997  0.997
    eigenvectors:
  0.000  1.000  0.000  0.000  0.000
  0.000  0.000  0.333  0.167  0.500
  0.000  0.000  0.333  0.167  0.500
  1.000  0.000  0.000  0.000  0.000
  0.000  0.000  0.334  0.666  0.000
    occupations:
  0.988  0.000  0.000  0.000  0.000
  0.000  0.997  0.000  0.000  0.000
  0.000  0.000  0.997  0.000  0.000
  0.000  0.000  0.000  0.988  0.000
  0.000  0.000  0.000  0.000  0.997
atomic mag. moment =    -1.113293
atom    7   Tr[ns(na)] (up, down, total) =   3.85359  4.96688  8.82047
   spin  1
    eigenvalues: 
  0.442  0.442  0.990  0.990  0.990
    eigenvectors:
  0.250  0.750  0.000  0.000  0.000
  0.000  0.000  0.156  0.500  0.344
  0.000  0.000  0.688  0.000  0.312
  0.750  0.250  0.000  0.000  0.000
  0.000  0.000  0.156  0.500  0.344
    occupations:
  0.442 -0.004  0.004  0.000 -0.008
 -0.004  0.990  0.000 -0.007  0.000
  0.004  0.000  0.990 -0.007  0.000
  0.000 -0.007 -0.007  0.442  0.000
 -0.008  0.000  0.000  0.000  0.990
   spin  2
    eigenvalues: 
  0.988  0.988  0.997  0.997  0.997
    eigenvectors:
  0.750  0.250  0.000  0.000  0.000
  0.000  0.000  0.333  0.167  0.500
  0.000  0.000  0.334  0.666  0.000
  0.250  0.750  0.000  0.000  0.000
  0.000  0.000  0.333  0.167  0.500
    occupations:
  0.988  0.000  0.000  0.000  0.000
  0.000  0.997  0.000  0.000  0.000
  0.000  0.000  0.997  0.000  0.000
  0.000  0.000  0.000  0.988  0.000
  0.000  0.000  0.000  0.000  0.997
atomic mag. moment =    -1.113293
atom    8   Tr[ns(na)] (up, down, total) =   3.85359  4.96688  8.82047
   spin  1
    eigenvalues: 
  0.442  0.442  0.990  0.990  0.990
    eigenvectors:
  0.250  0.750  0.000  0.000  0.000
  0.000  0.000  0.688  0.000  0.312
  0.000  0.000  0.156  0.500  0.344
  0.750  0.250  0.000  0.000  0.000
  0.000  0.000  0.156  0.500  0.344
    occupations:
  0.442 -0.004  0.004  0.000 -0.008
 -0.004  0.990  0.000 -0.007  0.000
  0.004  0.000  0.990 -0.007  0.000
  0.000 -0.007 -0.007  0.442  0.000
 -0.008  0.000  0.000  0.000  0.990
   spin  2
    eigenvalues: 
  0.988  0.988  0.997  0.997  0.997
    eigenvectors:
  0.750  0.250  0.000  0.000  0.000
  0.000  0.000  0.334  0.666  0.000
  0.000  0.000  0.333  0.167  0.500
  0.250  0.750  0.000  0.000  0.000
  0.000  0.000  0.333  0.167  0.500
    occupations:
  0.988  0.000  0.000  0.000  0.000
  0.000  0.997  0.000  0.000  0.000
  0.000  0.000  0.997  0.000  0.000
  0.000  0.000  0.000  0.988  0.000
  0.000  0.000  0.000  0.000  0.997
atomic mag. moment =    -1.113293
atom    9   Tr[ns(na)] (up, down, total) =   2.73843  2.73849  5.47692
   spin  1
    eigenvalues: 
  0.912  0.912  0.914
    eigenvectors:
  0.122  0.545  0.333
  0.216  0.451  0.333
  0.662  0.004  0.333
    occupations:
  0.913  0.001 -0.001
  0.001  0.913 -0.001
 -0.001 -0.001  0.913
   spin  2
    eigenvalues: 
  0.912  0.912  0.914
    eigenvectors:
  0.122  0.545  0.333
  0.216  0.451  0.333
  0.662  0.004  0.333
    occupations:
  0.913  0.001 -0.001
  0.001  0.913 -0.001
 -0.001 -0.001  0.913
atomic mag. moment =    -0.000065
atom   10   Tr[ns(na)] (up, down, total) =   2.73837  2.73841  5.47678
   spin  1
    eigenvalues: 
  0.912  0.912  0.914
    eigenvectors:
  0.166  0.500  0.334
  0.166  0.500  0.334
  0.667  0.000  0.333
    occupations:
  0.913  0.001 -0.001
  0.001  0.913 -0.001
 -0.001 -0.001  0.913
   spin  2
    eigenvalues: 
  0.912  0.912  0.914
    eigenvectors:
  0.500  0.166  0.334
  0.500  0.166  0.334
  0.000  0.668  0.332
    occupations:
  0.913  0.001 -0.001
  0.001  0.913 -0.001
 -0.001 -0.001  0.913
atomic mag. moment =    -0.000039
atom   11   Tr[ns(na)] (up, down, total) =   2.73837  2.73841  5.47678
   spin  1
    eigenvalues: 
  0.912  0.912  0.914
    eigenvectors:
  0.166  0.500  0.334
  0.667  0.000  0.333
  0.166  0.500  0.334
    occupations:
  0.913  0.001 -0.001
  0.001  0.913 -0.001
 -0.001 -0.001  0.913
   spin  2
    eigenvalues: 
  0.912  0.912  0.914
    eigenvectors:
  0.500  0.166  0.334
  0.000  0.668  0.332
  0.500  0.166  0.334
    occupations:
  0.913  0.001 -0.001
  0.001  0.913 -0.001
 -0.001 -0.001  0.913
atomic mag. moment =    -0.000039
atom   12   Tr[ns(na)] (up, down, total) =   2.73837  2.73841  5.47678
   spin  1
    eigenvalues: 
  0.912  0.912  0.914
    eigenvectors:
  0.667  0.000  0.333
  0.166  0.500  0.334
  0.166  0.500  0.334
    occupations:
  0.913  0.001 -0.001
  0.001  0.913 -0.001
 -0.001 -0.001  0.913
   spin  2
    eigenvalues: 
  0.912  0.912  0.914
    eigenvectors:
  0.000  0.668  0.332
  0.500  0.166  0.334
  0.500  0.166  0.334
    occupations:
  0.913  0.001 -0.001
  0.001  0.913 -0.001
 -0.001 -0.001  0.913
atomic mag. moment =    -0.000039
atom   13   Tr[ns(na)] (up, down, total) =   2.73841  2.73845  5.47686
   spin  1
    eigenvalues: 
  0.912  0.912  0.914
    eigenvectors:
  0.669  0.000  0.331
  0.166  0.500  0.334
  0.166  0.500  0.334
    occupations:
  0.913  0.001 -0.001
  0.001  0.913 -0.001
 -0.001 -0.001  0.913
   spin  2
    eigenvalues: 
  0.912  0.912  0.914
    eigenvectors:
  0.669  0.000  0.331
  0.166  0.500  0.334
  0.166  0.500  0.334
    occupations:
  0.913  0.001 -0.001
  0.001  0.913 -0.001
 -0.001 -0.001  0.913
atomic mag. moment =    -0.000038
atom   14   Tr[ns(na)] (up, down, total) =   2.73841  2.73845  5.47686
   spin  1
    eigenvalues: 
  0.912  0.912  0.914
    eigenvectors:
  0.166  0.500  0.334
  0.669  0.000  0.331
  0.166  0.500  0.334
    occupations:
  0.913  0.001 -0.001
  0.001  0.913 -0.001
 -0.001 -0.001  0.913
   spin  2
    eigenvalues: 
  0.912  0.912  0.914
    eigenvectors:
  0.166  0.500  0.334
  0.669  0.000  0.331
  0.166  0.500  0.334
    occupations:
  0.913  0.001 -0.001
  0.001  0.913 -0.001
 -0.001 -0.001  0.913
atomic mag. moment =    -0.000038
atom   15   Tr[ns(na)] (up, down, total) =   2.73841  2.73845  5.47686
   spin  1
    eigenvalues: 
  0.912  0.912  0.914
    eigenvectors:
  0.166  0.500  0.334
  0.166  0.500  0.334
  0.669  0.000  0.331
    occupations:
  0.913  0.001 -0.001
  0.001  0.913 -0.001
 -0.001 -0.001  0.913
   spin  2
    eigenvalues: 
  0.912  0.912  0.914
    eigenvectors:
  0.166  0.500  0.334
  0.166  0.500  0.334
  0.669  0.000  0.331
    occupations:
  0.913  0.001 -0.001
  0.001  0.913 -0.001
 -0.001 -0.001  0.913
atomic mag. moment =    -0.000038
atom   16   Tr[ns(na)] (up, down, total) =   2.73838  2.73843  5.47681
   spin  1
    eigenvalues: 
  0.912  0.912  0.914
    eigenvectors:
  0.106  0.561  0.333
  0.236  0.430  0.333
  0.658  0.009  0.333
    occupations:
  0.913  0.001 -0.001
  0.001  0.913 -0.001
 -0.001 -0.001  0.913
   spin  2
    eigenvalues: 
  0.912  0.912  0.914
    eigenvectors:
  0.095  0.572  0.333
  0.251  0.415  0.333
  0.654  0.013  0.333
    occupations:
  0.913  0.001 -0.001
  0.001  0.913 -0.001
 -0.001 -0.001  0.913
atomic mag. moment =    -0.000053
N of occupied +U levels = 114.3778876
 --- exit write_ns ---
 --- in v_hubbard ---
Hubbard energy    0.0000
 -------

     total cpu time spent up to now is      154.9 secs

     total energy              =    -941.39069344 Ry
     Harris-Foulkes estimate   =    -941.33843940 Ry
     estimated scf accuracy    <       2.02765769 Ry

     total magnetization       =     0.00 Bohr mag/cell
     absolute magnetization    =    12.09 Bohr mag/cell

     iteration #  3     ecut=    30.00 Ry     beta=0.30
     Davidson diagonalization with overlap
     ethr =  1.58E-03,  avg # of iterations =  1.0
 --- enter write_ns ---
 LDA+U parameters:
U( 1)     =  0.00000000
alpha( 1) =  0.00000000
U( 2)     =  0.00000000
alpha( 2) =  0.00000000
U( 3)     =  0.00000000
alpha( 3) =  0.00000000
U( 4)     =  0.00000000
alpha( 4) =  0.00000000
atom    1   Tr[ns(na)] (up, down, total) =   4.96980  3.66830  8.63811
   spin  1
    eigenvalues: 
  0.988  0.988  0.998  0.998  0.998
    eigenvectors:
  0.250  0.750  0.000  0.000  0.000
  0.000  0.000  0.333  0.667  0.000
  0.000  0.000  0.333  0.167  0.500
  0.750  0.250  0.000  0.000  0.000
  0.000  0.000  0.333  0.167  0.500
    occupations:
  0.988  0.000  0.000  0.000  0.000
  0.000  0.998  0.000  0.000  0.000
  0.000  0.000  0.998  0.000  0.000
  0.000  0.000  0.000  0.988  0.000
  0.000  0.000  0.000  0.000  0.998
   spin  2
    eigenvalues: 
  0.346  0.346  0.992  0.992  0.993
    eigenvectors:
  0.250  0.750  0.000  0.000  0.000
  0.000  0.000  0.667  0.000  0.333
  0.000  0.000  0.167  0.500  0.333
  0.750  0.250  0.000  0.000  0.000
  0.000  0.000  0.167  0.500  0.333
    occupations:
  0.346 -0.003  0.003  0.000 -0.006
 -0.003  0.992  0.000 -0.006  0.000
  0.003  0.000  0.992 -0.006  0.000
  0.000 -0.006 -0.006  0.346  0.000
 -0.006  0.000  0.000  0.000  0.992
atomic mag. moment =     1.301499
atom    2   Tr[ns(na)] (up, down, total) =   4.96980  3.66830  8.63811
   spin  1
    eigenvalues: 
  0.988  0.988  0.998  0.998  0.998
    eigenvectors:
  0.250  0.750  0.000  0.000  0.000
  0.000  0.000  0.333  0.167  0.500
  0.000  0.000  0.333  0.667  0.000
  0.750  0.250  0.000  0.000  0.000
  0.000  0.000  0.333  0.167  0.500
    occupations:
  0.988  0.000  0.000  0.000  0.000
  0.000  0.998  0.000  0.000  0.000
  0.000  0.000  0.998  0.000  0.000
  0.000  0.000  0.000  0.988  0.000
  0.000  0.000  0.000  0.000  0.998
   spin  2
    eigenvalues: 
  0.346  0.346  0.992  0.992  0.993
    eigenvectors:
  0.250  0.750  0.000  0.000  0.000
  0.000  0.000  0.167  0.500  0.333
  0.000  0.000  0.667  0.000  0.333
  0.750  0.250  0.000  0.000  0.000
  0.000  0.000  0.167  0.500  0.333
    occupations:
  0.346 -0.003  0.003  0.000 -0.006
 -0.003  0.992  0.000 -0.006  0.000
  0.003  0.000  0.992 -0.006  0.000
  0.000 -0.006 -0.006  0.346  0.000
 -0.006  0.000  0.000  0.000  0.992
atomic mag. moment =     1.301499
atom    3   Tr[ns(na)] (up, down, total) =   4.96980  3.66830  8.63811
   spin  1
    eigenvalues: 
  0.988  0.988  0.998  0.998  0.998
    eigenvectors:
  1.000  0.000  0.000  0.000  0.000
  0.000  0.000  0.333  0.167  0.500
  0.000  0.000  0.333  0.167  0.500
  0.000  1.000  0.000  0.000  0.000
  0.000  0.000  0.333  0.667  0.000
    occupations:
  0.988  0.000  0.000  0.000  0.000
  0.000  0.998  0.000  0.000  0.000
  0.000  0.000  0.998  0.000  0.000
  0.000  0.000  0.000  0.988  0.000
  0.000  0.000  0.000  0.000  0.998
   spin  2
    eigenvalues: 
  0.346  0.346  0.992  0.992  0.993
    eigenvectors:
  1.000  0.000  0.000  0.000  0.000
  0.000  0.000  0.167  0.500  0.333
  0.000  0.000  0.167  0.500  0.333
  0.000  1.000  0.000  0.000  0.000
  0.000  0.000  0.667  0.000  0.333
    occupations:
  0.346 -0.003  0.003  0.000 -0.006
 -0.003  0.992  0.000 -0.006  0.000
  0.003  0.000  0.992 -0.006  0.000
  0.000 -0.006 -0.006  0.346  0.000
 -0.006  0.000  0.000  0.000  0.992
atomic mag. moment =     1.301499
atom    4   Tr[ns(na)] (up, down, total) =   4.96980  3.66831  8.63811
   spin  1
    eigenvalues: 
  0.988  0.988  0.998  0.998  0.998
    eigenvectors:
  0.017  0.983  0.000  0.000  0.000
  0.000  0.000  0.333  0.051  0.616
  0.000  0.000  0.333  0.628  0.039
  0.983  0.017  0.000  0.000  0.000
  0.000  0.000  0.333  0.321  0.346
    occupations:
  0.988  0.000  0.000  0.000  0.000
  0.000  0.998  0.000  0.000  0.000
  0.000  0.000  0.998  0.000  0.000
  0.000  0.000  0.000  0.988  0.000
  0.000  0.000  0.000  0.000  0.998
   spin  2
    eigenvalues: 
  0.346  0.346  0.992  0.992  0.993
    eigenvectors:
  0.002  0.998  0.000  0.000  0.000
  0.000  0.000  0.043  0.623  0.333
  0.000  0.000  0.621  0.046  0.333
  0.998  0.002  0.000  0.000  0.000
  0.000  0.000  0.336  0.331  0.333
    occupations:
  0.346 -0.003  0.003  0.000 -0.006
 -0.003  0.992  0.000 -0.006  0.000
  0.003  0.000  0.992 -0.006  0.000
  0.000 -0.006 -0.006  0.346  0.000
 -0.006  0.000  0.000  0.000  0.992
atomic mag. moment =     1.301489
atom    5   Tr[ns(na)] (up, down, total) =   3.66827  4.96979  8.63806
   spin  1
    eigenvalues: 
  0.345  0.345  0.992  0.992  0.993
    eigenvectors:
  0.026  0.974  0.000  0.000  0.000
  0.000  0.000  0.056  0.611  0.333
  0.000  0.000  0.632  0.035  0.333
  0.974  0.026  0.000  0.000  0.000
  0.000  0.000  0.312  0.354  0.333
    occupations:
  0.346 -0.003  0.003  0.000 -0.006
 -0.003  0.992  0.000 -0.006  0.000
  0.003  0.000  0.992 -0.006  0.000
  0.000 -0.006 -0.006  0.346  0.000
 -0.006  0.000  0.000  0.000  0.992
   spin  2
    eigenvalues: 
  0.988  0.988  0.998  0.998  0.998
    eigenvectors:
  0.020  0.980  0.000  0.000  0.000
  0.000  0.000  0.333  0.049  0.617
  0.000  0.000  0.333  0.626  0.040
  0.980  0.020  0.000  0.000  0.000
  0.000  0.000  0.333  0.324  0.343
    occupations:
  0.988  0.000  0.000  0.000  0.000
  0.000  0.998  0.000  0.000  0.000
  0.000  0.000  0.998  0.000  0.000
  0.000  0.000  0.000  0.988  0.000
  0.000  0.000  0.000  0.000  0.998
atomic mag. moment =    -1.301526
atom    6   Tr[ns(na)] (up, down, total) =   3.66825  4.96979  8.63804
   spin  1
    eigenvalues: 
  0.345  0.345  0.992  0.992  0.993
    eigenvectors:
  0.000  1.000  0.000  0.000  0.000
  0.000  0.000  0.166  0.500  0.334
  0.000  0.000  0.166  0.500  0.334
  1.000  0.000  0.000  0.000  0.000
  0.000  0.000  0.668  0.000  0.332
    occupations:
  0.346 -0.003  0.003  0.000 -0.006
 -0.003  0.992  0.000 -0.006  0.000
  0.003  0.000  0.992 -0.006  0.000
  0.000 -0.006 -0.006  0.346  0.000
 -0.006  0.000  0.000  0.000  0.992
   spin  2
    eigenvalues: 
  0.988  0.988  0.998  0.998  0.998
    eigenvectors:
  1.000  0.000  0.000  0.000  0.000
  0.000  0.000  0.321  0.179  0.500
  0.000  0.000  0.321  0.179  0.500
  0.000  1.000  0.000  0.000  0.000
  0.000  0.000  0.358  0.642  0.000
    occupations:
  0.988  0.000  0.000  0.000  0.000
  0.000  0.998  0.000  0.000  0.000
  0.000  0.000  0.998  0.000  0.000
  0.000  0.000  0.000  0.988  0.000
  0.000  0.000  0.000  0.000  0.998
atomic mag. moment =    -1.301547
atom    7   Tr[ns(na)] (up, down, total) =   3.66825  4.96979  8.63804
   spin  1
    eigenvalues: 
  0.345  0.345  0.992  0.992  0.993
    eigenvectors:
  0.750  0.250  0.000  0.000  0.000
  0.000  0.000  0.166  0.500  0.334
  0.000  0.000  0.668  0.000  0.332
  0.250  0.750  0.000  0.000  0.000
  0.000  0.000  0.166  0.500  0.334
    occupations:
  0.346 -0.003  0.003  0.000 -0.006
 -0.003  0.992  0.000 -0.006  0.000
  0.003  0.000  0.992 -0.006  0.000
  0.000 -0.006 -0.006  0.346  0.000
 -0.006  0.000  0.000  0.000  0.992
   spin  2
    eigenvalues: 
  0.988  0.988  0.998  0.998  0.998
    eigenvectors:
  0.250  0.750  0.000  0.000  0.000
  0.000  0.000  0.321  0.179  0.500
  0.000  0.000  0.358  0.642  0.000
  0.750  0.250  0.000  0.000  0.000
  0.000  0.000  0.321  0.179  0.500
    occupations:
  0.988  0.000  0.000  0.000  0.000
  0.000  0.998  0.000  0.000  0.000
  0.000  0.000  0.998  0.000  0.000
  0.000  0.000  0.000  0.988  0.000
  0.000  0.000  0.000  0.000  0.998
atomic mag. moment =    -1.301547
atom    8   Tr[ns(na)] (up, down, total) =   3.66825  4.96979  8.63804
   spin  1
    eigenvalues: 
  0.345  0.345  0.992  0.992  0.993
    eigenvectors:
  0.750  0.250  0.000  0.000  0.000
  0.000  0.000  0.668  0.000  0.332
  0.000  0.000  0.166  0.500  0.334
  0.250  0.750  0.000  0.000  0.000
  0.000  0.000  0.166  0.500  0.334
    occupations:
  0.346 -0.003  0.003  0.000 -0.006
 -0.003  0.992  0.000 -0.006  0.000
  0.003  0.000  0.992 -0.006  0.000
  0.000 -0.006 -0.006  0.346  0.000
 -0.006  0.000  0.000  0.000  0.992
   spin  2
    eigenvalues: 
  0.988  0.988  0.998  0.998  0.998
    eigenvectors:
  0.250  0.750  0.000  0.000  0.000
  0.000  0.000  0.358  0.642  0.000
  0.000  0.000  0.321  0.179  0.500
  0.750  0.250  0.000  0.000  0.000
  0.000  0.000  0.321  0.179  0.500
    occupations:
  0.988  0.000  0.000  0.000  0.000
  0.000  0.998  0.000  0.000  0.000
  0.000  0.000  0.998  0.000  0.000
  0.000  0.000  0.000  0.988  0.000
  0.000  0.000  0.000  0.000  0.998
atomic mag. moment =    -1.301547
atom    9   Tr[ns(na)] (up, down, total) =   2.82213  2.82213  5.64425
   spin  1
    eigenvalues: 
  0.940  0.940  0.942
    eigenvectors:
  0.075  0.592  0.333
  0.280  0.386  0.333
  0.645  0.022  0.333
    occupations:
  0.941  0.001 -0.001
  0.001  0.941 -0.001
 -0.001 -0.001  0.941
   spin  2
    eigenvalues: 
  0.940  0.940  0.942
    eigenvectors:
  0.092  0.575  0.333
  0.255  0.412  0.333
  0.653  0.014  0.333
    occupations:
  0.941  0.001 -0.001
  0.001  0.941 -0.001
 -0.001 -0.001  0.941
atomic mag. moment =    -0.000002
atom   10   Tr[ns(na)] (up, down, total) =   2.82216  2.82214  5.64430
   spin  1
    eigenvalues: 
  0.940  0.940  0.942
    eigenvectors:
  0.500  0.167  0.333
  0.500  0.167  0.333
  0.000  0.667  0.333
    occupations:
  0.941  0.001 -0.001
  0.001  0.941 -0.001
 -0.001 -0.001  0.941
   spin  2
    eigenvalues: 
  0.940  0.940  0.942
    eigenvectors:
  0.167  0.500  0.333
  0.167  0.500  0.333
  0.667  0.000  0.333
    occupations:
  0.941  0.001 -0.001
  0.001  0.941 -0.001
 -0.001 -0.001  0.941
atomic mag. moment =     0.000016
atom   11   Tr[ns(na)] (up, down, total) =   2.82216  2.82214  5.64430
   spin  1
    eigenvalues: 
  0.940  0.940  0.942
    eigenvectors:
  0.500  0.167  0.333
  0.000  0.667  0.333
  0.500  0.167  0.333
    occupations:
  0.941  0.001 -0.001
  0.001  0.941 -0.001
 -0.001 -0.001  0.941
   spin  2
    eigenvalues: 
  0.940  0.940  0.942
    eigenvectors:
  0.167  0.500  0.333
  0.667  0.000  0.333
  0.167  0.500  0.333
    occupations:
  0.941  0.001 -0.001
  0.001  0.941 -0.001
 -0.001 -0.001  0.941
atomic mag. moment =     0.000016
atom   12   Tr[ns(na)] (up, down, total) =   2.82216  2.82214  5.64430
   spin  1
    eigenvalues: 
  0.940  0.940  0.942
    eigenvectors:
  0.000  0.667  0.333
  0.500  0.167  0.333
  0.500  0.167  0.333
    occupations:
  0.941  0.001 -0.001
  0.001  0.941 -0.001
 -0.001 -0.001  0.941
   spin  2
    eigenvalues: 
  0.940  0.940  0.942
    eigenvectors:
  0.667  0.000  0.333
  0.167  0.500  0.333
  0.167  0.500  0.333
    occupations:
  0.941  0.001 -0.001
  0.001  0.941 -0.001
 -0.001 -0.001  0.941
atomic mag. moment =     0.000016
atom   13   Tr[ns(na)] (up, down, total) =   2.82215  2.82214  5.64429
   spin  1
    eigenvalues: 
  0.940  0.940  0.942
    eigenvectors:
  0.668  0.000  0.332
  0.166  0.500  0.334
  0.166  0.500  0.334
    occupations:
  0.941  0.001 -0.001
  0.001  0.941 -0.001
 -0.001 -0.001  0.941
   spin  2
    eigenvalues: 
  0.940  0.940  0.942
    eigenvectors:
  0.668  0.000  0.332
  0.166  0.500  0.334
  0.166  0.500  0.334
    occupations:
  0.941  0.001 -0.001
  0.001  0.941 -0.001
 -0.001 -0.001  0.941
atomic mag. moment =     0.000014
atom   14   Tr[ns(na)] (up, down, total) =   2.82215  2.82214  5.64429
   spin  1
    eigenvalues: 
  0.940  0.940  0.942
    eigenvectors:
  0.166  0.500  0.334
  0.668  0.000  0.332
  0.166  0.500  0.334
    occupations:
  0.941  0.001 -0.001
  0.001  0.941 -0.001
 -0.001 -0.001  0.941
   spin  2
    eigenvalues: 
  0.940  0.940  0.942
    eigenvectors:
  0.166  0.500  0.334
  0.668  0.000  0.332
  0.166  0.500  0.334
    occupations:
  0.941  0.001 -0.001
  0.001  0.941 -0.001
 -0.001 -0.001  0.941
atomic mag. moment =     0.000014
atom   15   Tr[ns(na)] (up, down, total) =   2.82215  2.82214  5.64429
   spin  1
    eigenvalues: 
  0.940  0.940  0.942
    eigenvectors:
  0.166  0.500  0.334
  0.166  0.500  0.334
  0.668  0.000  0.332
    occupations:
  0.941  0.001 -0.001
  0.001  0.941 -0.001
 -0.001 -0.001  0.941
   spin  2
    eigenvalues: 
  0.940  0.940  0.942
    eigenvectors:
  0.166  0.500  0.334
  0.166  0.500  0.334
  0.668  0.000  0.332
    occupations:
  0.941  0.001 -0.001
  0.001  0.941 -0.001
 -0.001 -0.001  0.941
atomic mag. moment =     0.000014
atom   16   Tr[ns(na)] (up, down, total) =   2.82216  2.82215  5.64430
   spin  1
    eigenvalues: 
  0.940  0.940  0.942
    eigenvectors:
  0.078  0.588  0.333
  0.275  0.392  0.333
  0.647  0.020  0.333
    occupations:
  0.941  0.001 -0.001
  0.001  0.941 -0.001
 -0.001 -0.001  0.941
   spin  2
    eigenvalues: 
  0.940  0.940  0.942
    eigenvectors:
  0.141  0.526  0.333
  0.194  0.472  0.333
  0.665  0.001  0.333
    occupations:
  0.941  0.001 -0.001
  0.001  0.941 -0.001
 -0.001 -0.001  0.941
atomic mag. moment =     0.000008
N of occupied +U levels = 114.2589388
 --- exit write_ns ---

     negative rho (up, down):  0.106E-03 0.107E-03
 --- in v_hubbard ---
Hubbard energy    0.0000
 -------

     total cpu time spent up to now is      206.9 secs

     total energy              =    -941.95026213 Ry
     Harris-Foulkes estimate   =    -941.52794059 Ry
     estimated scf accuracy    <       0.67058582 Ry

     total magnetization       =     0.00 Bohr mag/cell
     absolute magnetization    =    13.28 Bohr mag/cell

     iteration #  4     ecut=    30.00 Ry     beta=0.30
     Davidson diagonalization with overlap
     ethr =  5.24E-04,  avg # of iterations =  1.6
 --- enter write_ns ---
 LDA+U parameters:
U( 1)     =  0.00000000
alpha( 1) =  0.00000000
U( 2)     =  0.00000000
alpha( 2) =  0.00000000
U( 3)     =  0.00000000
alpha( 3) =  0.00000000
U( 4)     =  0.00000000
alpha( 4) =  0.00000000
atom    1   Tr[ns(na)] (up, down, total) =   4.95594  3.77559  8.73153
   spin  1
    eigenvalues: 
  0.982  0.982  0.997  0.997  0.997
    eigenvectors:
  0.750  0.250  0.000  0.000  0.000
  0.000  0.000  0.000  0.661  0.339
  0.000  0.000  0.500  0.169  0.331
  0.250  0.750  0.000  0.000  0.000
  0.000  0.000  0.500  0.169  0.331
    occupations:
  0.982  0.000  0.000  0.000  0.000
  0.000  0.997  0.000  0.000  0.000
  0.000  0.000  0.997  0.000  0.000
  0.000  0.000  0.000  0.982  0.000
  0.000  0.000  0.000  0.000  0.997
   spin  2
    eigenvalues: 
  0.395  0.395  0.995  0.995  0.996
    eigenvectors:
  0.250  0.750  0.000  0.000  0.000
  0.000  0.000  0.000  0.664  0.336
  0.000  0.000  0.500  0.168  0.332
  0.750  0.250  0.000  0.000  0.000
  0.000  0.000  0.500  0.168  0.332
    occupations:
  0.395  0.000  0.000  0.000  0.000
  0.000  0.996  0.000  0.000  0.000
  0.000  0.000  0.996  0.000  0.000
  0.000  0.000  0.000  0.395  0.000
  0.000  0.000  0.000  0.000  0.996
atomic mag. moment =     1.180349
atom    2   Tr[ns(na)] (up, down, total) =   4.95594  3.77559  8.73153
   spin  1
    eigenvalues: 
  0.982  0.982  0.997  0.997  0.997
    eigenvectors:
  0.750  0.250  0.000  0.000  0.000
  0.000  0.000  0.500  0.169  0.331
  0.000  0.000  0.000  0.661  0.339
  0.250  0.750  0.000  0.000  0.000
  0.000  0.000  0.500  0.169  0.331
    occupations:
  0.982  0.000  0.000  0.000  0.000
  0.000  0.997  0.000  0.000  0.000
  0.000  0.000  0.997  0.000  0.000
  0.000  0.000  0.000  0.982  0.000
  0.000  0.000  0.000  0.000  0.997
   spin  2
    eigenvalues: 
  0.395  0.395  0.995  0.995  0.996
    eigenvectors:
  0.250  0.750  0.000  0.000  0.000
  0.000  0.000  0.500  0.168  0.332
  0.000  0.000  0.000  0.664  0.336
  0.750  0.250  0.000  0.000  0.000
  0.000  0.000  0.500  0.168  0.332
    occupations:
  0.395  0.000  0.000  0.000  0.000
  0.000  0.996  0.000  0.000  0.000
  0.000  0.000  0.996  0.000  0.000
  0.000  0.000  0.000  0.395  0.000
  0.000  0.000  0.000  0.000  0.996
atomic mag. moment =     1.180349
atom    3   Tr[ns(na)] (up, down, total) =   4.95594  3.77559  8.73153
   spin  1
    eigenvalues: 
  0.982  0.982  0.997  0.997  0.997
    eigenvectors:
  0.000  1.000  0.000  0.000  0.000
  0.000  0.000  0.500  0.169  0.331
  0.000  0.000  0.500  0.169  0.331
  1.000  0.000  0.000  0.000  0.000
  0.000  0.000  0.000  0.661  0.339
    occupations:
  0.982  0.000  0.000  0.000  0.000
  0.000  0.997  0.000  0.000  0.000
  0.000  0.000  0.997  0.000  0.000
  0.000  0.000  0.000  0.982  0.000
  0.000  0.000  0.000  0.000  0.997
   spin  2
    eigenvalues: 
  0.395  0.395  0.995  0.995  0.996
    eigenvectors:
  1.000  0.000  0.000  0.000  0.000
  0.000  0.000  0.500  0.168  0.332
  0.000  0.000  0.500  0.168  0.332
  0.000  1.000  0.000  0.000  0.000
  0.000  0.000  0.000  0.664  0.336
    occupations:
  0.395  0.000  0.000  0.000  0.000
  0.000  0.996  0.000  0.000  0.000
  0.000  0.000  0.996  0.000  0.000
  0.000  0.000  0.000  0.395  0.000
  0.000  0.000  0.000  0.000  0.996
atomic mag. moment =     1.180349
atom    4   Tr[ns(na)] (up, down, total) =   4.95594  3.77557  8.73151
   spin  1
    eigenvalues: 
  0.982  0.982  0.997  0.997  0.997
    eigenvectors:
  0.008  0.992  0.000  0.000  0.000
  0.000  0.000  0.053  0.614  0.333
  0.000  0.000  0.630  0.037  0.333
  0.992  0.008  0.000  0.000  0.000
  0.000  0.000  0.317  0.349  0.333
    occupations:
  0.982  0.000  0.000  0.000  0.000
  0.000  0.997  0.000  0.000  0.000
  0.000  0.000  0.997  0.000  0.000
  0.000  0.000  0.000  0.982  0.000
  0.000  0.000  0.000  0.000  0.997
   spin  2
    eigenvalues: 
  0.395  0.395  0.995  0.995  0.996
    eigenvectors:
  0.013  0.987  0.000  0.000  0.000
  0.000  0.000  0.061  0.606  0.333
  0.000  0.000  0.636  0.031  0.333
  0.987  0.013  0.000  0.000  0.000
  0.000  0.000  0.303  0.363  0.333
    occupations:
  0.395  0.000  0.000  0.000  0.000
  0.000  0.996  0.000  0.000  0.000
  0.000  0.000  0.996  0.000  0.000
  0.000  0.000  0.000  0.395  0.000
  0.000  0.000  0.000  0.000  0.996
atomic mag. moment =     1.180377
atom    5   Tr[ns(na)] (up, down, total) =   3.77577  4.95599  8.73176
   spin  1
    eigenvalues: 
  0.395  0.395  0.995  0.995  0.996
    eigenvectors:
  0.028  0.972  0.000  0.000  0.000
  0.000  0.000  0.048  0.618  0.333
  0.000  0.000  0.625  0.041  0.333
  0.972  0.028  0.000  0.000  0.000
  0.000  0.000  0.326  0.340  0.333
    occupations:
  0.395  0.000  0.000  0.000  0.000
  0.000  0.996  0.000  0.000  0.000
  0.000  0.000  0.996  0.000  0.000
  0.000  0.000  0.000  0.395  0.000
  0.000  0.000  0.000  0.000  0.996
   spin  2
    eigenvalues: 
  0.982  0.982  0.997  0.997  0.997
    eigenvectors:
  0.003  0.997  0.000  0.000  0.000
  0.000  0.000  0.040  0.626  0.333
  0.000  0.000  0.617  0.049  0.333
  0.997  0.003  0.000  0.000  0.000
  0.000  0.000  0.342  0.324  0.333
    occupations:
  0.982  0.000  0.000  0.000  0.000
  0.000  0.997  0.000  0.000  0.000
  0.000  0.000  0.997  0.000  0.000
  0.000  0.000  0.000  0.982  0.000
  0.000  0.000  0.000  0.000  0.997
atomic mag. moment =    -1.180221
atom    6   Tr[ns(na)] (up, down, total) =   3.77591  4.95600  8.73191
   spin  1
    eigenvalues: 
  0.395  0.395  0.995  0.995  0.996
    eigenvectors:
  1.000  0.000  0.000  0.000  0.000
  0.000  0.000  0.500  0.169  0.331
  0.000  0.000  0.500  0.169  0.331
  0.000  1.000  0.000  0.000  0.000
  0.000  0.000  0.000  0.663  0.337
    occupations:
  0.395  0.000  0.000  0.000  0.000
  0.000  0.996  0.000  0.000  0.000
  0.000  0.000  0.996  0.000  0.000
  0.000  0.000  0.000  0.395  0.000
  0.000  0.000  0.000  0.000  0.996
   spin  2
    eigenvalues: 
  0.982  0.982  0.997  0.997  0.997
    eigenvectors:
  0.000  1.000  0.000  0.000  0.000
  0.000  0.000  0.162  0.500  0.338
  0.000  0.000  0.162  0.500  0.338
  1.000  0.000  0.000  0.000  0.000
  0.000  0.000  0.675  0.000  0.325
    occupations:
  0.982  0.000  0.000  0.000  0.000
  0.000  0.997  0.000  0.000  0.000
  0.000  0.000  0.997  0.000  0.000
  0.000  0.000  0.000  0.982  0.000
  0.000  0.000  0.000  0.000  0.997
atomic mag. moment =    -1.180092
atom    7   Tr[ns(na)] (up, down, total) =   3.77591  4.95600  8.73191
   spin  1
    eigenvalues: 
  0.395  0.395  0.995  0.995  0.996
    eigenvectors:
  0.250  0.750  0.000  0.000  0.000
  0.000  0.000  0.500  0.169  0.331
  0.000  0.000  0.000  0.663  0.337
  0.750  0.250  0.000  0.000  0.000
  0.000  0.000  0.500  0.169  0.331
    occupations:
  0.395  0.000  0.000  0.000  0.000
  0.000  0.996  0.000  0.000  0.000
  0.000  0.000  0.996  0.000  0.000
  0.000  0.000  0.000  0.395  0.000
  0.000  0.000  0.000  0.000  0.996
   spin  2
    eigenvalues: 
  0.982  0.982  0.997  0.997  0.997
    eigenvectors:
  0.750  0.250  0.000  0.000  0.000
  0.000  0.000  0.162  0.500  0.338
  0.000  0.000  0.675  0.000  0.325
  0.250  0.750  0.000  0.000  0.000
  0.000  0.000  0.162  0.500  0.338
    occupations:
  0.982  0.000  0.000  0.000  0.000
  0.000  0.997  0.000  0.000  0.000
  0.000  0.000  0.997  0.000  0.000
  0.000  0.000  0.000  0.982  0.000
  0.000  0.000  0.000  0.000  0.997
atomic mag. moment =    -1.180092
atom    8   Tr[ns(na)] (up, down, total) =   3.77591  4.95600  8.73191
   spin  1
    eigenvalues: 
  0.395  0.395  0.995  0.995  0.996
    eigenvectors:
  0.250  0.750  0.000  0.000  0.000
  0.000  0.000  0.000  0.663  0.337
  0.000  0.000  0.500  0.169  0.331
  0.750  0.250  0.000  0.000  0.000
  0.000  0.000  0.500  0.169  0.331
    occupations:
  0.395  0.000  0.000  0.000  0.000
  0.000  0.996  0.000  0.000  0.000
  0.000  0.000  0.996  0.000  0.000
  0.000  0.000  0.000  0.395  0.000
  0.000  0.000  0.000  0.000  0.996
   spin  2
    eigenvalues: 
  0.982  0.982  0.997  0.997  0.997
    eigenvectors:
  0.750  0.250  0.000  0.000  0.000
  0.000  0.000  0.675  0.000  0.325
  0.000  0.000  0.162  0.500  0.338
  0.250  0.750  0.000  0.000  0.000
  0.000  0.000  0.162  0.500  0.338
    occupations:
  0.982  0.000  0.000  0.000  0.000
  0.000  0.997  0.000  0.000  0.000
  0.000  0.000  0.997  0.000  0.000
  0.000  0.000  0.000  0.982  0.000
  0.000  0.000  0.000  0.000  0.997
atomic mag. moment =    -1.180092
atom    9   Tr[ns(na)] (up, down, total) =   2.79727  2.79733  5.59460
   spin  1
    eigenvalues: 
  0.932  0.932  0.933
    eigenvectors:
  0.108  0.559  0.333
  0.233  0.433  0.333
  0.659  0.008  0.333
    occupations:
  0.932  0.000  0.000
  0.000  0.932  0.000
  0.000  0.000  0.932
   spin  2
    eigenvalues: 
  0.932  0.932  0.933
    eigenvectors:
  0.102  0.564  0.333
  0.241  0.426  0.333
  0.657  0.010  0.333
    occupations:
  0.932  0.000  0.000
  0.000  0.932  0.000
  0.000  0.000  0.932
atomic mag. moment =    -0.000064
atom   10   Tr[ns(na)] (up, down, total) =   2.79718  2.79723  5.59442
   spin  1
    eigenvalues: 
  0.932  0.932  0.933
    eigenvectors:
  0.500  0.168  0.332
  0.500  0.168  0.332
  0.000  0.665  0.335
    occupations:
  0.932  0.000  0.000
  0.000  0.932  0.000
  0.000  0.000  0.932
   spin  2
    eigenvalues: 
  0.932  0.932  0.933
    eigenvectors:
  0.500  0.168  0.332
  0.500  0.168  0.332
  0.000  0.664  0.336
    occupations:
  0.932  0.000  0.000
  0.000  0.932  0.000
  0.000  0.000  0.932
atomic mag. moment =    -0.000048
atom   11   Tr[ns(na)] (up, down, total) =   2.79718  2.79723  5.59442
   spin  1
    eigenvalues: 
  0.932  0.932  0.933
    eigenvectors:
  0.500  0.168  0.332
  0.000  0.665  0.335
  0.500  0.168  0.332
    occupations:
  0.932  0.000  0.000
  0.000  0.932  0.000
  0.000  0.000  0.932
   spin  2
    eigenvalues: 
  0.932  0.932  0.933
    eigenvectors:
  0.500  0.168  0.332
  0.000  0.664  0.336
  0.500  0.168  0.332
    occupations:
  0.932  0.000  0.000
  0.000  0.932  0.000
[...]
    13.0398  13.0405  13.0461  13.0466  13.0542  13.0543  13.0647  13.0651
    16.4797  16.4830  19.6520  19.6521  19.7110

     occupation numbers 
     0.0469   0.0469   0.0469   0.0469   0.0469   0.0469   0.0469   0.0469
     0.0469   0.0469   0.0469   0.0469   0.0469   0.0469   0.0469   0.0469
     0.0469   0.0469   0.0469   0.0469   0.0469   0.0469   0.0469   0.0469
     0.0469   0.0469   0.0469   0.0469   0.0469   0.0469   0.0469   0.0469
     0.0469   0.0469   0.0469   0.0469   0.0469   0.0469   0.0469   0.0469
     0.0469   0.0469   0.0469   0.0469   0.0469   0.0469   0.0469   0.0469
     0.0469   0.0469   0.0469   0.0469   0.0469   0.0469   0.0469   0.0469
     0.0469   0.0469   0.0469   0.0469   0.0469   0.0469   0.0469   0.0469
     0.0000   0.0000   0.0000   0.0000   0.0000   0.0000   0.0000   0.0000
     0.0000   0.0000   0.0000   0.0000   0.0000

          k = 0.0000 0.5000 0.0000 (  2706 PWs)   bands (ev):

    -7.8537  -6.8171  -6.7721  -6.7500  -6.7494  -6.7493  -6.5743  -6.5635
     4.4927   4.5063   4.5154   4.5188   5.2477   5.5359   5.5360   6.5304
     6.5367   6.5628   6.5879   6.6073   6.6212   6.6378   6.6911   7.0718
     7.0725   7.1694   7.1889   7.4720   7.9813   7.9865   8.6585   8.6677
     8.9567   9.5357   9.6310   9.6310   9.8164   9.9818  10.0587  10.0591
    10.0991  10.1139  10.1886  10.2807  10.2808  10.3992  10.4136  10.5464
    10.5482  10.6158  10.6164  10.6613  10.9131  11.0101  11.0111  11.0518
    11.0579  11.1713  11.2436  11.2956  11.2965  11.3481  11.3494  11.3806
    12.8784  13.0394  13.0399  13.0428  13.5247  13.5679  13.6450  13.6458
    15.2124  18.5639  18.5672  18.5677  18.5686

     occupation numbers 
     0.0938   0.0938   0.0938   0.0938   0.0938   0.0938   0.0938   0.0938
     0.0938   0.0938   0.0938   0.0938   0.0938   0.0938   0.0938   0.0938
     0.0938   0.0938   0.0938   0.0938   0.0938   0.0938   0.0938   0.0938
     0.0938   0.0938   0.0938   0.0938   0.0938   0.0938   0.0938   0.0938
     0.0938   0.0938   0.0938   0.0938   0.0938   0.0938   0.0938   0.0938
     0.0938   0.0938   0.0938   0.0938   0.0938   0.0938   0.0938   0.0938
     0.0938   0.0938   0.0938   0.0938   0.0938   0.0938   0.0938   0.0938
     0.0938   0.0937   0.0937   0.0937   0.0937   0.0937   0.0937   0.0937
     0.0000   0.0000   0.0000   0.0000   0.0000   0.0000   0.0000   0.0000
     0.0000   0.0000   0.0000   0.0000   0.0000

          k = 0.7500-0.2500 0.7500 (  2734 PWs)   bands (ev):

    -7.5042  -7.1739  -6.9693  -6.7805  -6.7662  -6.6004  -6.5614  -6.5521
     4.9685   4.9820   4.9971   5.3194   5.4362   5.5121   5.5350   6.1820
     6.2189   6.2464   6.2804   6.5891   6.6097   6.7508   6.7604   6.8676
     6.8992   6.9338   7.0026   7.3656   7.3852   7.7282   7.7688   8.0230
     9.4578   9.6525   9.8241   9.8969   9.9574   9.9703  10.0388  10.1401
    10.1429  10.1708  10.2123  10.2896  10.3179  10.3246  10.4796  10.5136
    10.7346  10.7408  10.7441  10.7571  10.8797  10.9072  11.0409  11.0790
    11.1691  11.1965  11.2269  11.2581  11.3335  11.3370  11.3551  11.4115
    12.7388  12.7825  12.8347  12.9310  13.2361  13.2591  13.3647  13.4337
    16.6930  17.6007  18.6694  19.3612  19.3629

     occupation numbers 
     0.1875   0.1875   0.1875   0.1875   0.1875   0.1875   0.1875   0.1875
     0.1875   0.1875   0.1875   0.1875   0.1875   0.1875   0.1875   0.1875
     0.1875   0.1875   0.1875   0.1875   0.1875   0.1875   0.1875   0.1875
     0.1875   0.1875   0.1875   0.1875   0.1875   0.1875   0.1875   0.1875
     0.1875   0.1875   0.1875   0.1875   0.1875   0.1875   0.1875   0.1875
     0.1875   0.1875   0.1875   0.1875   0.1875   0.1875   0.1875   0.1875
     0.1875   0.1875   0.1875   0.1875   0.1875   0.1875   0.1875   0.1875
     0.1875   0.1875   0.1875   0.1875   0.1875   0.1875   0.1875   0.1875
     0.0000   0.0000   0.0000   0.0000   0.0000   0.0000   0.0000   0.0000
     0.0000   0.0000   0.0000   0.0000   0.0000

          k = 0.5000 0.0000 0.5000 (  2742 PWs)   bands (ev):

    -7.6420  -7.0264  -7.0118  -6.7306  -6.7157  -6.6111  -6.5989  -6.5472
     4.7818   4.7928   5.0772   5.0847   5.2704   5.2851   5.7145   5.9749
     6.2906   6.3169   6.5357   6.7270   6.7497   6.7587   6.9147   6.9273
     6.9437   7.1585   7.1794   7.1987   7.4517   7.4689   7.6393   8.1313
     9.6597   9.6613   9.7913   9.8511   9.9067   9.9081  10.0466  10.1137
    10.1363  10.2283  10.2312  10.2312  10.2325  10.3640  10.3649  10.5182
    10.7213  10.7527  10.7537  10.8304  10.9043  11.0968  11.0981  11.1156
    11.2100  11.2113  11.2331  11.2444  11.2814  11.3466  11.4066  11.4078
    13.0425  13.0470  13.0577  13.0581  13.1148  13.1518  13.1523  13.2840
    16.0063  18.0596  18.0604  19.3769  19.3781

     occupation numbers 
     0.0938   0.0938   0.0938   0.0938   0.0938   0.0938   0.0938   0.0938
     0.0938   0.0938   0.0938   0.0938   0.0938   0.0938   0.0938   0.0938
     0.0938   0.0938   0.0938   0.0938   0.0938   0.0938   0.0938   0.0938
     0.0938   0.0938   0.0938   0.0938   0.0938   0.0938   0.0938   0.0938
     0.0938   0.0938   0.0938   0.0938   0.0938   0.0938   0.0938   0.0938
     0.0938   0.0938   0.0938   0.0938   0.0938   0.0938   0.0938   0.0938
     0.0938   0.0938   0.0938   0.0938   0.0938   0.0938   0.0938   0.0938
     0.0937   0.0937   0.0937   0.0937   0.0937   0.0937   0.0937   0.0937
     0.0000   0.0000   0.0000   0.0000   0.0000   0.0000   0.0000   0.0000
     0.0000   0.0000   0.0000   0.0000   0.0000

          k = 0.0000-1.0000 0.0000 (  2762 PWs)   bands (ev):

    -7.3205  -7.3049  -6.8391  -6.8126  -6.8117  -6.8115  -6.5211  -6.5092
     5.0202   5.0266   5.0464   5.0542   5.7701   5.7920   6.0997   6.1054
     6.1251   6.1312   6.4044   6.4234   6.6514   6.6699   6.6837   6.7023
     6.7227   6.7262   6.7293   6.7725   8.1494   8.1606   8.1681   8.1793
     9.2507   9.2516   9.9521   9.9532  10.0329  10.0335  10.0479  10.0480
    10.0498  10.0535  10.1720  10.1722  10.3523  10.3528  10.4978  10.4996
    10.5199  10.5232  10.5851  10.5856  10.9134  10.9135  11.0059  11.0076
    11.1498  11.1505  11.2277  11.2294  11.3370  11.3384  11.3422  11.3431
    12.4615  12.4623  12.7203  12.7206  13.5181  13.5192  13.6180  13.6188
    17.6654  17.6659  19.2492  19.2502  19.2530

     occupation numbers 
     0.0469   0.0469   0.0469   0.0469   0.0469   0.0469   0.0469   0.0469
     0.0469   0.0469   0.0469   0.0469   0.0469   0.0469   0.0469   0.0469
     0.0469   0.0469   0.0469   0.0469   0.0469   0.0469   0.0469   0.0469
     0.0469   0.0469   0.0469   0.0469   0.0469   0.0469   0.0469   0.0469
     0.0469   0.0469   0.0469   0.0469   0.0469   0.0469   0.0469   0.0469
     0.0469   0.0469   0.0469   0.0469   0.0469   0.0469   0.0469   0.0469
     0.0469   0.0469   0.0469   0.0469   0.0469   0.0469   0.0469   0.0469
     0.0469   0.0469   0.0469   0.0469   0.0469   0.0469   0.0469   0.0469
     0.0000   0.0000   0.0000   0.0000   0.0000   0.0000   0.0000   0.0000
     0.0000   0.0000   0.0000   0.0000   0.0000

          k =-0.5000-1.0000 0.0000 (  2740 PWs)   bands (ev):

    -7.1758  -7.1463  -7.1459  -7.1451  -6.6007  -6.5756  -6.5727  -6.5700
     5.2850   5.2893   5.3051   5.3440   5.3928   5.5557   5.5569   5.6673
     6.2317   6.2621   6.2697   6.3022   6.6269   6.6325   6.6438   6.7715
     6.9095   7.2702   7.2836   7.4689   7.4872   7.5129   7.5181   7.5682
     9.7133   9.7405   9.7410   9.8089   9.9891  10.0390  10.0412  10.0717
    10.1203  10.2740  10.2901  10.2917  10.3467  10.3479  10.4016  10.4669
    10.6188  10.6654  10.6660  10.6928  10.9489  10.9502  10.9699  10.9916
    11.1757  11.1863  11.1883  11.2812  11.2965  11.3010  11.3669  11.3677
    12.7747  12.8896  12.8899  13.0034  13.1551  13.1989  13.1997  13.2441
    18.0159  18.0333  18.0364  18.0553  20.8581

     occupation numbers 
     0.0938   0.0938   0.0938   0.0938   0.0938   0.0938   0.0938   0.0938
     0.0938   0.0938   0.0938   0.0938   0.0938   0.0938   0.0938   0.0938
     0.0938   0.0938   0.0938   0.0938   0.0938   0.0938   0.0938   0.0938
     0.0938   0.0938   0.0938   0.0938   0.0938   0.0938   0.0938   0.0938
     0.0938   0.0938   0.0938   0.0938   0.0938   0.0938   0.0938   0.0938
     0.0938   0.0938   0.0938   0.0938   0.0938   0.0938   0.0938   0.0938
     0.0938   0.0938   0.0938   0.0938   0.0938   0.0938   0.0938   0.0938
     0.0937   0.0937   0.0937   0.0937   0.0937   0.0937   0.0937   0.0937
     0.0000   0.0000   0.0000   0.0000   0.0000   0.0000   0.0000   0.0000
     0.0000   0.0000   0.0000   0.0000   0.0000

          k =-0.2500 0.2500 0.2500 (  2743 PWs)   bands (ev):

    -7.9071  -6.9319  -6.7070  -6.6798  -6.6798  -6.6404  -6.6292  -6.6292
     4.3507   4.3693   4.3693   4.6257   5.3544   5.3614   5.3614   6.4808
     6.4808   6.5044   6.6230   6.6344   6.6344   6.7069   6.7069   7.2163
     7.2163   7.2388   7.7059   7.7222   7.7222   7.9830   8.4608   8.4608
     9.2645   9.2645   9.2655   9.6208   9.6208  10.0051  10.0683  10.0683
    10.0684  10.2787  10.2787  10.2798  10.6054  10.6059  10.6059  10.6260
    10.6260  10.7262  10.7279  10.7279  10.9173  10.9173  10.9425  10.9425
    10.9453  11.0354  11.2586  11.2586  11.2593  11.3958  11.3967  11.3967
    13.3355  13.3355  13.3517  13.3518  13.3518  13.3589  13.3589  13.3589
    14.7658  17.5943  18.6726  18.6759  18.6759

     occupation numbers 
     0.0313   0.0313   0.0313   0.0313   0.0313   0.0313   0.0313   0.0313
     0.0313   0.0313   0.0313   0.0313   0.0313   0.0313   0.0313   0.0313
     0.0313   0.0313   0.0313   0.0313   0.0313   0.0313   0.0313   0.0313
     0.0313   0.0313   0.0313   0.0313   0.0313   0.0313   0.0313   0.0313
     0.0313   0.0313   0.0313   0.0313   0.0313   0.0313   0.0313   0.0313
     0.0313   0.0313   0.0313   0.0313   0.0313   0.0313   0.0313   0.0313
     0.0313   0.0313   0.0313   0.0313   0.0313   0.0313   0.0313   0.0313
     0.0313   0.0313   0.0312   0.0312   0.0312   0.0312   0.0312   0.0312
     0.0000   0.0000   0.0000   0.0000   0.0000   0.0000   0.0000   0.0000
     0.0000   0.0000   0.0000   0.0000   0.0000

          k = 0.5000-0.5000-0.5000 (  2764 PWs)   bands (ev):

    -7.4588  -7.4400  -6.7018  -6.6681  -6.6681  -6.6534  -6.6478  -6.6478
     5.0115   5.0293   5.0293   5.1124   5.1392   5.1392   6.0866   6.1303
     6.2607   6.2607   6.2935   6.6908   6.6908   6.7284   6.7511   6.7635
     6.7635   6.9884   6.9884   7.4473   7.4629   7.4629   7.8734   7.8734
     9.4934   9.4937   9.4937   9.6768   9.6768  10.1196  10.1239  10.1239
    10.1244  10.4512  10.4512  10.4519  10.5100  10.5104  10.5104  10.7287
    10.7287  10.8452  10.8452  10.8502  10.8733  11.0589  11.0620  11.0620
    11.2468  11.2468  11.2476  11.3049  11.3049  11.4035  11.4045  11.4045
    13.0412  13.0412  13.0415  13.0579  13.0579  13.0720  13.0726  13.0726
    16.4084  16.5584  19.6303  19.6304  19.6304

     occupation numbers 
     0.0156   0.0156   0.0156   0.0156   0.0156   0.0156   0.0156   0.0156
     0.0156   0.0156   0.0156   0.0156   0.0156   0.0156   0.0156   0.0156
     0.0156   0.0156   0.0156   0.0156   0.0156   0.0156   0.0156   0.0156
     0.0156   0.0156   0.0156   0.0156   0.0156   0.0156   0.0156   0.0156
     0.0156   0.0156   0.0156   0.0156   0.0156   0.0156   0.0156   0.0156
     0.0156   0.0156   0.0156   0.0156   0.0156   0.0156   0.0156   0.0156
     0.0156   0.0156   0.0156   0.0156   0.0156   0.0156   0.0156   0.0156
     0.0156   0.0156   0.0156   0.0156   0.0156   0.0156   0.0156   0.0156
     0.0000   0.0000   0.0000   0.0000   0.0000   0.0000   0.0000   0.0000
     0.0000   0.0000   0.0000   0.0000   0.0000

          k = 0.2500 0.7500 0.7500 (  2734 PWs)   bands (ev):

    -7.5041  -7.1739  -6.9693  -6.7804  -6.7661  -6.6005  -6.5615  -6.5522
     4.9731   4.9863   4.9984   5.2571   5.5059   5.5189   5.5229   6.1316
     6.2294   6.2502   6.3572   6.5688   6.5876   6.6696   6.8220   6.8370
     6.8389   7.0462   7.0576   7.1659   7.5133   7.7539   7.7811   8.0082
     9.3832   9.5590   9.9460   9.9461  10.0230  10.0242  10.0450  10.0469
    10.0591  10.1799  10.2163  10.2165  10.4016  10.4461  10.4995  10.5020
    10.6619  10.6996  10.7011  10.7152  10.8987  10.9508  11.0971  11.0983
    11.2175  11.2189  11.2347  11.2713  11.2790  11.2806  11.3495  11.3506
    12.7409  12.7999  12.8823  12.8827  13.2556  13.3429  13.3434  13.3551
    16.6926  17.6017  18.6712  19.3594  19.3597

     occupation numbers 
     0.0938   0.0938   0.0938   0.0938   0.0938   0.0938   0.0938   0.0938
     0.0938   0.0938   0.0938   0.0938   0.0938   0.0938   0.0938   0.0938
     0.0938   0.0938   0.0938   0.0938   0.0938   0.0938   0.0938   0.0938
     0.0938   0.0938   0.0938   0.0938   0.0938   0.0938   0.0938   0.0938
     0.0938   0.0938   0.0938   0.0938   0.0938   0.0938   0.0938   0.0938
     0.0938   0.0938   0.0938   0.0938   0.0938   0.0938   0.0938   0.0938
     0.0938   0.0938   0.0938   0.0938   0.0938   0.0938   0.0938   0.0938
     0.0937   0.0937   0.0937   0.0937   0.0937   0.0937   0.0937   0.0937
     0.0000   0.0000   0.0000   0.0000   0.0000   0.0000   0.0000   0.0000
     0.0000   0.0000   0.0000   0.0000   0.0000

          k = 0.7500-0.2500-0.7500 (  2734 PWs)   bands (ev):

    -7.5043  -7.1740  -6.9693  -6.7806  -6.7663  -6.6002  -6.5613  -6.5519
     4.9703   4.9820   4.9977   5.2974   5.4503   5.5089   5.5178   6.2258
     6.2274   6.2468   6.2831   6.6590   6.6740   6.6803   6.6973   6.7195
     6.8374   7.0842   7.0963   7.2790   7.3899   7.7619   7.7706   8.0596
     9.3555   9.5458   9.7628   9.7629   9.7868  10.0624  10.0986  10.0987
    10.2892  10.2913  10.4230  10.4236  10.4446  10.5558  10.5564  10.5623
    10.5723  10.6520  10.6539  10.6546  10.8440  10.8825  10.8844  10.9617
    11.0738  11.2455  11.2764  11.3032  11.3034  11.3616  11.3624  11.4249
    12.6940  12.8397  12.8851  12.8855  13.2819  13.3365  13.3436  13.3441
    16.6924  17.6033  18.6689  19.3585  19.3589

     occupation numbers 
     0.0938   0.0938   0.0938   0.0938   0.0938   0.0938   0.0938   0.0938
     0.0938   0.0938   0.0938   0.0938   0.0938   0.0938   0.0938   0.0938
     0.0938   0.0938   0.0938   0.0938   0.0938   0.0938   0.0938   0.0938
     0.0938   0.0938   0.0938   0.0938   0.0938   0.0938   0.0938   0.0938
     0.0938   0.0938   0.0938   0.0938   0.0938   0.0938   0.0938   0.0938
     0.0938   0.0938   0.0938   0.0938   0.0938   0.0938   0.0938   0.0938
     0.0938   0.0938   0.0938   0.0938   0.0938   0.0938   0.0938   0.0938
     0.0938   0.0937   0.0937   0.0937   0.0937   0.0937   0.0937   0.0937
     0.0000   0.0000   0.0000   0.0000   0.0000   0.0000   0.0000   0.0000
     0.0000   0.0000   0.0000   0.0000   0.0000

          k = 0.0000 0.5000 0.5000 (  2742 PWs)   bands (ev):

    -7.6420  -7.0265  -7.0119  -6.7310  -6.7160  -6.6106  -6.5983  -6.5472
     4.7803   4.7902   5.0877   5.0971   5.2491   5.2644   5.7162   5.9776
     6.3157   6.3345   6.5947   6.6823   6.6888   6.7984   6.8663   6.9302
     7.0248   7.1609   7.1817   7.2089   7.2218   7.4960   7.8418   8.1291
     9.5591   9.6108   9.6389   9.6405   9.7765  10.0769  10.0773  10.1335
    10.2446  10.2464  10.3095  10.3878  10.4509  10.5603  10.5619  10.5637
    10.6348  10.6666  10.6686  10.7446  10.7677  10.8237  11.0510  11.0533
    11.1068  11.2723  11.2725  11.3414  11.3713  11.3719  11.3879  11.4100
    13.0456  13.0477  13.0550  13.0551  13.0647  13.2072  13.2075  13.2365
    16.0075  18.0591  18.0611  19.3724  19.3735

     occupation numbers 
     0.0938   0.0938   0.0938   0.0938   0.0938   0.0938   0.0938   0.0938
     0.0938   0.0938   0.0938   0.0938   0.0938   0.0938   0.0938   0.0938
     0.0938   0.0938   0.0938   0.0938   0.0938   0.0938   0.0938   0.0938
     0.0938   0.0938   0.0938   0.0938   0.0938   0.0938   0.0938   0.0938
     0.0938   0.0938   0.0938   0.0938   0.0938   0.0938   0.0938   0.0938
     0.0938   0.0938   0.0938   0.0938   0.0938   0.0938   0.0938   0.0938
     0.0938   0.0938   0.0938   0.0938   0.0938   0.0938   0.0938   0.0938
     0.0938   0.0937   0.0937   0.0937   0.0937   0.0937   0.0937   0.0937
     0.0000   0.0000   0.0000   0.0000   0.0000   0.0000   0.0000   0.0000
     0.0000   0.0000   0.0000   0.0000   0.0000

     the Fermi energy is    11.9586 ev

!    total energy              =    -941.95414574 Ry
     Harris-Foulkes estimate   =    -941.95414574 Ry
     estimated scf accuracy    <          7.0E-09 Ry

     The total energy is the sum of the following terms:

     one-electron contribution =     -56.32840090 Ry
     hartree contribution      =     175.70808128 Ry
     xc contribution           =    -297.53834584 Ry
     ewald contribution        =    -763.85740583 Ry
     Hubbard energy            =       0.06192556 Ry
     smearing contrib. (-TS)   =       0.00000000 Ry

     total magnetization       =     0.00 Bohr mag/cell
     absolute magnetization    =    12.28 Bohr mag/cell

     convergence has been achieved in   7 iterations

     init_run     :     12.06s CPU     12.27s WALL (       1 calls)
     electrons    :    475.52s CPU    477.29s WALL (       1 calls)

     Called by init_run:
     wfcinit      :      0.00s CPU      0.00s WALL (       1 calls)
     potinit      :      1.13s CPU      1.17s WALL (       1 calls)

     Called by electrons:
     c_bands      :    350.51s CPU    351.41s WALL (       7 calls)
     sum_band     :     82.63s CPU     83.03s WALL (       7 calls)
     v_of_rho     :      8.08s CPU      8.10s WALL (       8 calls)
     v_h          :      0.21s CPU      0.21s WALL (       8 calls)
     v_xc         :      7.87s CPU      7.89s WALL (       8 calls)
     newd         :     37.96s CPU     37.99s WALL (       8 calls)
     mix_rho      :      0.74s CPU      0.74s WALL (       7 calls)

     Called by c_bands:
     init_us_2    :      2.45s CPU      2.46s WALL (     364 calls)
     cegterg      :    342.03s CPU    342.55s WALL (     182 calls)

     Called by sum_band:
     sum_band:bec :      0.43s CPU      0.42s WALL (     182 calls)
     addusdens    :     25.95s CPU     25.96s WALL (       7 calls)

     Called by *egterg:
     h_psi        :    231.79s CPU    232.23s WALL (     805 calls)
     s_psi        :     18.27s CPU     18.28s WALL (     805 calls)
     g_psi        :      0.94s CPU      0.94s WALL (     623 calls)
     cdiaghg      :     35.33s CPU     35.36s WALL (     779 calls)
     cegterg:over :     21.46s CPU     21.47s WALL (     623 calls)
     cegterg:upda :     13.78s CPU     13.80s WALL (     623 calls)
     cegterg:last :      9.54s CPU      9.54s WALL (     208 calls)

     Called by h_psi:
     h_psi:vloc   :    174.32s CPU    174.70s WALL (     805 calls)
     h_psi:vnl    :     38.08s CPU     38.10s WALL (     805 calls)
     add_vuspsi   :     18.85s CPU     18.88s WALL (     805 calls)
     vhpsi        :     18.73s CPU     18.76s WALL (     805 calls)

     General routines
     calbec       :     36.38s CPU     36.41s WALL (    1974 calls)
     fft          :      4.45s CPU      4.47s WALL (     236 calls)
     ffts         :      0.11s CPU      0.11s WALL (      30 calls)
     fftw         :    148.65s CPU    148.92s WALL (   86962 calls)
     interpolate  :      0.74s CPU      0.74s WALL (      30 calls)
     davcio       :      0.02s CPU      0.73s WALL (     390 calls)

     Parallel routines
     fft_scatter  :     45.39s CPU     45.67s WALL (   87228 calls)
     Hubbard U routines
     new_ns       :      3.07s CPU      3.37s WALL (       7 calls)
     vhpsi        :     18.73s CPU     18.76s WALL (     805 calls)

     PWSCF        :  8m 8.05s CPU     8m10.15s WALL


   This run was terminated on:  12:58: 7  13Nov2012            

=------------------------------------------------------------------------------=
   JOB DONE.
=------------------------------------------------------------------------------=
 
Job Ended on n16 at Tue Nov 13 12:58:07 EST 2012
 
