   JOB DONE.
=------------------------------------------------------------------------------=

     Program PWSCF v.5.0.1 starts on 13Nov2012 at 12:20: 6 

     This program is part of the open-source Quantum ESPRESSO suite
     for quantum simulation of materials; please cite
         "P. Giannozzi et al., J. Phys.:Condens. Matter 21 395502 (2009);
          URL http://www.quantum-espresso.org", 
     in publications or presentations arising from this work. More details at
     http://www.quantum-espresso.org/quote.php

     Parallel version (MPI), running on     2 processors
     R & G space division:  proc/pool =    2

     Current dimensions of program PWSCF are:
     Max number of different atomic species (ntypx) = 10
     Max number of k-points (npk) =  40000
     Max angular momentum in pseudopotentials (lmaxx) =  3
     Reading input from NiO_U0_a-10.in
               file Ni.pbe-nd-rrkjus.UPF: wavefunction(s)  4S renormalized
               file Ni.pbe-nd-rrkjus.UPF: wavefunction(s)  4S renormalized
               file O.pbe-rrkjus.UPF: wavefunction(s)  2S renormalized
               file O.pbe-rrkjus.UPF: wavefunction(s)  2S renormalized

     Subspace diagonalization in iterative solution of the eigenvalue problem:
     a serial algorithm will be used


     Parallelization info
     --------------------
     sticks:   dense  smooth     PW     G-vecs:    dense   smooth      PW
     Min        1293     519    150                43273    11032    1738
     Max        1294     520    151                43274    11043    1741
     Sum        2587    1039    301                86547    22075    3479


     Title: 
     GGA + U, U = 1D-40, alpha = -0.100                                         


     bravais-lattice index     =            2
     lattice parameter (alat)  =      15.8000  a.u.
     unit-cell volume          =     986.0780 (a.u.)^3
     number of atoms/cell      =           16
     number of atomic types    =            4
     number of electrons       =       128.00
     number of Kohn-Sham states=           77
     kinetic-energy cutoff     =      30.0000  Ry
     charge density cutoff     =     300.0000  Ry
     convergence threshold     =      1.0E-08
     mixing beta               =       0.3000
     number of iterations used =            8  plain     mixing
     Exchange-correlation      =  SLA  PW   PBE  PBE ( 1 4 3 4 0)
     EXX-fraction              =        0.00

     celldm(1)=  15.800000  celldm(2)=   0.000000  celldm(3)=   0.000000
     celldm(4)=   0.000000  celldm(5)=   0.000000  celldm(6)=   0.000000

     crystal axes: (cart. coord. in units of alat)
               a(1) = (  -0.500000   0.000000   0.500000 )  
               a(2) = (   0.000000   0.500000   0.500000 )  
               a(3) = (  -0.500000   0.500000   0.000000 )  

     reciprocal axes: (cart. coord. in units 2 pi/alat)
               b(1) = ( -1.000000 -1.000000  1.000000 )  
               b(2) = (  1.000000  1.000000  1.000000 )  
               b(3) = ( -1.000000  1.000000 -1.000000 )  


     PseudoPot. # 1 for Ni read from file:
     /home/mcurnan/dft-course/Project1/example_NiO/Ni.pbe-nd-rrkjus.UPF
     MD5 check sum: 8081f0a005c9a5470caab1a58e82ecb2
     Pseudo is Ultrasoft + core correction, Zval = 10.0
     Generated by new atomic code, or converted to UPF format
     Using radial grid of 1203 points,  6 beta functions with: 
                l(1) =   0
                l(2) =   0
                l(3) =   1
                l(4) =   1
                l(5) =   2
                l(6) =   2
     Q(r) pseudized with 0 coefficients 


     PseudoPot. # 2 for Ni read from file:
     /home/mcurnan/dft-course/Project1/example_NiO/Ni.pbe-nd-rrkjus.UPF
     MD5 check sum: 8081f0a005c9a5470caab1a58e82ecb2
     Pseudo is Ultrasoft + core correction, Zval = 10.0
     Generated by new atomic code, or converted to UPF format
     Using radial grid of 1203 points,  6 beta functions with: 
                l(1) =   0
                l(2) =   0
                l(3) =   1
                l(4) =   1
                l(5) =   2
                l(6) =   2
     Q(r) pseudized with 0 coefficients 


     PseudoPot. # 3 for O  read from file:
     /home/mcurnan/dft-course/Project1/example_NiO/O.pbe-rrkjus.UPF
     MD5 check sum: 390ba29e75625707450f3bd3f0eb6be9
     Pseudo is Ultrasoft, Zval =  6.0
     Generated by new atomic code, or converted to UPF format
     Using radial grid of 1269 points,  4 beta functions with: 
                l(1) =   0
                l(2) =   0
                l(3) =   1
                l(4) =   1
     Q(r) pseudized with 0 coefficients 


     PseudoPot. # 4 for O  read from file:
     /home/mcurnan/dft-course/Project1/example_NiO/O.pbe-rrkjus.UPF
     MD5 check sum: 390ba29e75625707450f3bd3f0eb6be9
     Pseudo is Ultrasoft, Zval =  6.0
     Generated by new atomic code, or converted to UPF format
     Using radial grid of 1269 points,  4 beta functions with: 
                l(1) =   0
                l(2) =   0
                l(3) =   1
                l(4) =   1
     Q(r) pseudized with 0 coefficients 


     atomic species   valence    mass     pseudopotential
        Ni1           10.00     1.00000     Ni( 1.00)
        Ni2           10.00     1.00000     Ni( 1.00)
        O1             6.00     1.00000     O ( 1.00)
        O2             6.00     1.00000     O ( 1.00)

     Starting magnetic structure 
     atomic species   magnetization
        Ni1          0.500
        Ni2         -0.500
        O1           0.000
        O2           0.000
 -----
     simplified LDA+U calculation, Hubbard_lmax = 2
     atomic species  L   Hubbard U  Hubbard alpha
        Ni1          2    0.000000    0.000000
        Ni2          2    0.000000    0.000000
        O1           1    0.000000   -0.100000
        O2           1    0.000000    0.000000
 -----

      6 Sym. Ops. (no inversion) found


                                    s                        frac. trans.

      isym =  1     identity                                     

 cryst.   s( 1) = (     1          0          0      )
                  (     0          1          0      )
                  (     0          0          1      )

 cart.    s( 1) = (  1.0000000  0.0000000  0.0000000 )
                  (  0.0000000  1.0000000  0.0000000 )
                  (  0.0000000  0.0000000  1.0000000 )


      isym =  2     120 deg rotation - cart. axis [-1,1,1]       

 cryst.   s( 2) = (     0          1          0      )
                  (     0          0          1      )
                  (     1          0          0      )

 cart.    s( 2) = (  0.0000000 -1.0000000  0.0000000 )
                  (  0.0000000  0.0000000  1.0000000 )
                  ( -1.0000000  0.0000000  0.0000000 )


      isym =  3     120 deg rotation - cart. axis [1,-1,-1]      

 cryst.   s( 3) = (     0          0          1      )
                  (     1          0          0      )
                  (     0          1          0      )

 cart.    s( 3) = (  0.0000000  0.0000000 -1.0000000 )
                  ( -1.0000000  0.0000000  0.0000000 )
                  (  0.0000000  1.0000000  0.0000000 )


      isym =  4     inv. 180 deg rotation - cart. axis [1,1,0]   

 cryst.   s( 4) = (     0          1          0      )
                  (     1          0          0      )
                  (     0          0          1      )

 cart.    s( 4) = (  0.0000000 -1.0000000  0.0000000 )
                  ( -1.0000000  0.0000000  0.0000000 )
                  (  0.0000000  0.0000000  1.0000000 )


      isym =  5     inv. 180 deg rotation - cart. axis [1,0,1]   

 cryst.   s( 5) = (     1          0          0      )
                  (     0          0          1      )
                  (     0          1          0      )

 cart.    s( 5) = (  0.0000000  0.0000000 -1.0000000 )
                  (  0.0000000  1.0000000  0.0000000 )
                  ( -1.0000000  0.0000000  0.0000000 )


      isym =  6     inv. 180 deg rotation - cart. axis [0,1,-1]  

 cryst.   s( 6) = (     0          0          1      )
                  (     0          1          0      )
                  (     1          0          0      )

 cart.    s( 6) = (  1.0000000  0.0000000  0.0000000 )
                  (  0.0000000  0.0000000  1.0000000 )
                  (  0.0000000  1.0000000  0.0000000 )


     point group C_3v (3m)  
     there are  3 classes
     the character table:

       E     2C3   3s_v 
A_1    1.00  1.00  1.00
A_2    1.00  1.00 -1.00
E      2.00 -1.00  0.00

     the symmetry operations in each class:
     E        1
     2C3      2    3
     3s_v     4    5    6

   Cartesian axes

     site n.     atom                  positions (alat units)
         1           Ni1 tau(   1) = (   0.0000000  -0.2500000   0.0000000  )
         2           Ni1 tau(   2) = (  -0.2500000   0.0000000   0.5000000  )
         3           Ni1 tau(   3) = (  -0.5000000   0.0000000   0.2500000  )
         4           Ni1 tau(   4) = (  -0.2500000   0.2500000   0.2500000  )
         5           Ni2 tau(   5) = (  -0.2500000  -0.2500000   0.2500000  )
         6           Ni2 tau(   6) = (   0.0000000   0.0000000   0.2500000  )
         7           Ni2 tau(   7) = (  -0.2500000   0.0000000   0.0000000  )
         8           Ni2 tau(   8) = (  -0.5000000   0.2500000   0.5000000  )
         9           O1  tau(   9) = (   0.0000000   0.0000000   0.0000000  )
        10           O2  tau(  10) = (  -0.2500000   0.0000000   0.2500000  )
        11           O2  tau(  11) = (   0.0000000   0.2500000   0.2500000  )
        12           O2  tau(  12) = (  -0.2500000   0.2500000   0.0000000  )
        13           O2  tau(  13) = (  -0.2500000   0.2500000   0.5000000  )
        14           O2  tau(  14) = (  -0.5000000   0.2500000   0.2500000  )
        15           O2  tau(  15) = (  -0.2500000   0.5000000   0.2500000  )
        16           O2  tau(  16) = (  -0.5000000   0.5000000   0.5000000  )

   Crystallographic axes

     site n.     atom                  positions (cryst. coord.)
         1           Ni1 tau(   1) = (  0.2500000 -0.2500000 -0.2500000  )
         2           Ni1 tau(   2) = (  0.7500000  0.2500000 -0.2500000  )
         3           Ni1 tau(   3) = (  0.7500000 -0.2500000  0.2500000  )
         4           Ni1 tau(   4) = (  0.2500000  0.2500000  0.2500000  )
         5           Ni2 tau(   5) = (  0.7500000 -0.2500000 -0.2500000  )
         6           Ni2 tau(   6) = (  0.2500000  0.2500000 -0.2500000  )
         7           Ni2 tau(   7) = (  0.2500000 -0.2500000  0.2500000  )
         8           Ni2 tau(   8) = (  0.7500000  0.2500000  0.2500000  )
         9           O1  tau(   9) = (  0.0000000  0.0000000  0.0000000  )
        10           O2  tau(  10) = (  0.5000000  0.0000000  0.0000000  )
        11           O2  tau(  11) = (  0.0000000  0.5000000  0.0000000  )
        12           O2  tau(  12) = (  0.0000000  0.0000000  0.5000000  )
        13           O2  tau(  13) = (  0.5000000  0.5000000  0.0000000  )
        14           O2  tau(  14) = (  0.5000000  0.0000000  0.5000000  )
        15           O2  tau(  15) = (  0.0000000  0.5000000  0.5000000  )
        16           O2  tau(  16) = (  0.5000000  0.5000000  0.5000000  )

     number of k points=    26  gaussian smearing, width (Ry)=  0.0100
                       cart. coord. in units 2pi/alat
        k(    1) = (   0.0000000   0.0000000   0.0000000), wk =   0.0156250
        k(    2) = (  -0.2500000   0.2500000  -0.2500000), wk =   0.0937500
        k(    3) = (   0.5000000  -0.5000000   0.5000000), wk =   0.0468750
        k(    4) = (   0.0000000   0.5000000   0.0000000), wk =   0.0937500
        k(    5) = (   0.7500000  -0.2500000   0.7500000), wk =   0.1875000
        k(    6) = (   0.5000000   0.0000000   0.5000000), wk =   0.0937500
        k(    7) = (   0.0000000  -1.0000000   0.0000000), wk =   0.0468750
        k(    8) = (  -0.5000000  -1.0000000   0.0000000), wk =   0.0937500
        k(    9) = (  -0.2500000   0.2500000   0.2500000), wk =   0.0312500
        k(   10) = (   0.5000000  -0.5000000  -0.5000000), wk =   0.0156250
        k(   11) = (   0.2500000   0.7500000   0.7500000), wk =   0.0937500
        k(   12) = (   0.7500000  -0.2500000  -0.7500000), wk =   0.0937500
        k(   13) = (   0.0000000   0.5000000   0.5000000), wk =   0.0937500
        k(   14) = (   0.0000000   0.0000000   0.0000000), wk =   0.0156250
        k(   15) = (  -0.2500000   0.2500000  -0.2500000), wk =   0.0937500
        k(   16) = (   0.5000000  -0.5000000   0.5000000), wk =   0.0468750
        k(   17) = (   0.0000000   0.5000000   0.0000000), wk =   0.0937500
        k(   18) = (   0.7500000  -0.2500000   0.7500000), wk =   0.1875000
        k(   19) = (   0.5000000   0.0000000   0.5000000), wk =   0.0937500
        k(   20) = (   0.0000000  -1.0000000   0.0000000), wk =   0.0468750
        k(   21) = (  -0.5000000  -1.0000000   0.0000000), wk =   0.0937500
        k(   22) = (  -0.2500000   0.2500000   0.2500000), wk =   0.0312500
        k(   23) = (   0.5000000  -0.5000000  -0.5000000), wk =   0.0156250
        k(   24) = (   0.2500000   0.7500000   0.7500000), wk =   0.0937500
        k(   25) = (   0.7500000  -0.2500000  -0.7500000), wk =   0.0937500
        k(   26) = (   0.0000000   0.5000000   0.5000000), wk =   0.0937500

                       cryst. coord.
        k(    1) = (   0.0000000   0.0000000   0.0000000), wk =   0.0156250
        k(    2) = (   0.0000000   0.0000000   0.2500000), wk =   0.0937500
        k(    3) = (   0.0000000   0.0000000  -0.5000000), wk =   0.0468750
        k(    4) = (   0.0000000   0.2500000   0.2500000), wk =   0.0937500
        k(    5) = (   0.0000000   0.2500000  -0.5000000), wk =   0.1875000
        k(    6) = (   0.0000000   0.2500000  -0.2500000), wk =   0.0937500
        k(    7) = (   0.0000000  -0.5000000  -0.5000000), wk =   0.0468750
        k(    8) = (   0.2500000  -0.5000000  -0.2500000), wk =   0.0937500
        k(    9) = (   0.2500000   0.2500000   0.2500000), wk =   0.0312500
        k(   10) = (  -0.5000000  -0.5000000  -0.5000000), wk =   0.0156250
        k(   11) = (   0.2500000   0.7500000   0.2500000), wk =   0.0937500
        k(   12) = (  -0.7500000  -0.5000000  -0.5000000), wk =   0.0937500
        k(   13) = (   0.2500000   0.5000000   0.2500000), wk =   0.0937500
        k(   14) = (   0.0000000   0.0000000   0.0000000), wk =   0.0156250
        k(   15) = (   0.0000000   0.0000000   0.2500000), wk =   0.0937500
        k(   16) = (   0.0000000   0.0000000  -0.5000000), wk =   0.0468750
        k(   17) = (   0.0000000   0.2500000   0.2500000), wk =   0.0937500
        k(   18) = (   0.0000000   0.2500000  -0.5000000), wk =   0.1875000
        k(   19) = (   0.0000000   0.2500000  -0.2500000), wk =   0.0937500
        k(   20) = (   0.0000000  -0.5000000  -0.5000000), wk =   0.0468750
        k(   21) = (   0.2500000  -0.5000000  -0.2500000), wk =   0.0937500
        k(   22) = (   0.2500000   0.2500000   0.2500000), wk =   0.0312500
        k(   23) = (  -0.5000000  -0.5000000  -0.5000000), wk =   0.0156250
        k(   24) = (   0.2500000   0.7500000   0.2500000), wk =   0.0937500
        k(   25) = (  -0.7500000  -0.5000000  -0.5000000), wk =   0.0937500
        k(   26) = (   0.2500000   0.5000000   0.2500000), wk =   0.0937500

     Dense  grid:    86547 G-vectors     FFT dimensions: (  64,  64,  64)

     Smooth grid:    22075 G-vectors     FFT dimensions: (  40,  40,  40)

     Largest allocated arrays     est. size (Mb)     dimensions
        Kohn-Sham Wavefunctions         1.64 Mb     (   1395,   77)
        Atomic wavefunctions            1.70 Mb     (   1395,   80)
        NL pseudopotentials             4.43 Mb     (   1395,  208)
        Each V/rho on FFT grid          4.00 Mb     ( 131072,   2)
        Each G-vector array             0.33 Mb     (  43274)
        G-vector shells                 0.00 Mb     (    635)
     Largest temporary arrays     est. size (Mb)     dimensions
        Auxiliary wavefunctions         6.56 Mb     (   1395,  308)
        Each subspace H/S matrix        1.45 Mb     ( 308, 308)
        Each <psi_i|beta_j> matrix      0.24 Mb     (    208,   77)
        Arrays for rho mixing          16.00 Mb     ( 131072,   8)

     Check: negative/imaginary core charge=   -0.000047    0.000000

     The initial density is read from file :
     /home/mcurnan/dft-course/Project1/example_NiO/0/O/alpha/NiO_U0.save/charge-density.dat

 --- in v_hubbard ---
Hubbard energy   -0.0413
 -------
     Number of +U iterations with fixed ns =  0
     Starting occupations:
 --- enter write_ns ---
 LDA+U parameters:
U( 1)     =  0.00000000
alpha( 1) =  0.00000000
U( 2)     =  0.00000000
alpha( 2) =  0.00000000
U( 3)     =  0.00000000
alpha( 3) = -0.10000000
U( 4)     =  0.00000000
alpha( 4) =  0.00000000
atom    1   Tr[ns(na)] (up, down, total) =   4.95241  3.75362  8.70602
   spin  1
    eigenvalues: 
  0.980  0.980  0.997  0.997  0.997
    eigenvectors:
  0.750  0.250  0.000  0.000  0.000
  0.000  0.000  0.000  0.666  0.334
  0.000  0.000  0.500  0.167  0.333
  0.250  0.750  0.000  0.000  0.000
  0.000  0.000  0.500  0.167  0.333
    occupations:
  0.980  0.000  0.000  0.000  0.000
  0.000  0.997  0.000  0.000  0.000
  0.000  0.000  0.997  0.000  0.000
  0.000  0.000  0.000  0.980  0.000
  0.000  0.000  0.000  0.000  0.997
   spin  2
    eigenvalues: 
  0.384  0.384  0.995  0.995  0.995
    eigenvectors:
  0.250  0.750  0.000  0.000  0.000
  0.000  0.000  0.000  0.667  0.333
  0.000  0.000  0.500  0.167  0.333
  0.750  0.250  0.000  0.000  0.000
  0.000  0.000  0.500  0.167  0.333
    occupations:
  0.384 -0.001  0.001  0.000 -0.001
 -0.001  0.995  0.000 -0.001  0.000
  0.001  0.000  0.995 -0.001  0.000
  0.000 -0.001 -0.001  0.384  0.000
 -0.001  0.000  0.000  0.000  0.995
atomic mag. moment =     1.198791
atom    2   Tr[ns(na)] (up, down, total) =   4.95241  3.75362  8.70602
   spin  1
    eigenvalues: 
  0.980  0.980  0.997  0.997  0.997
    eigenvectors:
  0.750  0.250  0.000  0.000  0.000
  0.000  0.000  0.500  0.167  0.333
  0.000  0.000  0.000  0.666  0.334
  0.250  0.750  0.000  0.000  0.000
  0.000  0.000  0.500  0.167  0.333
    occupations:
  0.980  0.000  0.000  0.000  0.000
  0.000  0.997  0.000  0.000  0.000
  0.000  0.000  0.997  0.000  0.000
  0.000  0.000  0.000  0.980  0.000
  0.000  0.000  0.000  0.000  0.997
   spin  2
    eigenvalues: 
  0.384  0.384  0.995  0.995  0.995
    eigenvectors:
  0.250  0.750  0.000  0.000  0.000
  0.000  0.000  0.500  0.167  0.333
  0.000  0.000  0.000  0.667  0.333
  0.750  0.250  0.000  0.000  0.000
  0.000  0.000  0.500  0.167  0.333
    occupations:
  0.384 -0.001  0.001  0.000 -0.001
 -0.001  0.995  0.000 -0.001  0.000
  0.001  0.000  0.995 -0.001  0.000
  0.000 -0.001 -0.001  0.384  0.000
 -0.001  0.000  0.000  0.000  0.995
atomic mag. moment =     1.198791
atom    3   Tr[ns(na)] (up, down, total) =   4.95241  3.75362  8.70602
   spin  1
    eigenvalues: 
  0.980  0.980  0.997  0.997  0.997
    eigenvectors:
  0.000  1.000  0.000  0.000  0.000
  0.000  0.000  0.500  0.167  0.333
  0.000  0.000  0.500  0.167  0.333
  1.000  0.000  0.000  0.000  0.000
  0.000  0.000  0.000  0.666  0.334
    occupations:
  0.980  0.000  0.000  0.000  0.000
  0.000  0.997  0.000  0.000  0.000
  0.000  0.000  0.997  0.000  0.000
  0.000  0.000  0.000  0.980  0.000
  0.000  0.000  0.000  0.000  0.997
   spin  2
    eigenvalues: 
  0.384  0.384  0.995  0.995  0.995
    eigenvectors:
  1.000  0.000  0.000  0.000  0.000
  0.000  0.000  0.500  0.167  0.333
  0.000  0.000  0.500  0.167  0.333
  0.000  1.000  0.000  0.000  0.000
  0.000  0.000  0.000  0.667  0.333
    occupations:
  0.384 -0.001  0.001  0.000 -0.001
 -0.001  0.995  0.000 -0.001  0.000
  0.001  0.000  0.995 -0.001  0.000
  0.000 -0.001 -0.001  0.384  0.000
 -0.001  0.000  0.000  0.000  0.995
atomic mag. moment =     1.198791
atom    4   Tr[ns(na)] (up, down, total) =   4.95241  3.75362  8.70602
   spin  1
    eigenvalues: 
  0.980  0.980  0.997  0.997  0.997
    eigenvectors:
  0.014  0.986  0.000  0.000  0.000
  0.000  0.000  0.067  0.600  0.333
  0.000  0.000  0.640  0.027  0.333
  0.986  0.014  0.000  0.000  0.000
  0.000  0.000  0.293  0.374  0.333
    occupations:
  0.980  0.000  0.000  0.000  0.000
  0.000  0.997  0.000  0.000  0.000
  0.000  0.000  0.997  0.000  0.000
  0.000  0.000  0.000  0.980  0.000
  0.000  0.000  0.000  0.000  0.997
   spin  2
    eigenvalues: 
  0.384  0.384  0.995  0.995  0.995
    eigenvectors:
  0.001  0.999  0.000  0.000  0.000
  0.000  0.000  0.044  0.622  0.333
  0.000  0.000  0.622  0.045  0.333
  0.999  0.001  0.000  0.000  0.000
  0.000  0.000  0.334  0.333  0.333
    occupations:
  0.384 -0.001  0.001  0.000 -0.001
 -0.001  0.995  0.000 -0.001  0.000
  0.001  0.000  0.995 -0.001  0.000
  0.000 -0.001 -0.001  0.384  0.000
 -0.001  0.000  0.000  0.000  0.995
atomic mag. moment =     1.198791
atom    5   Tr[ns(na)] (up, down, total) =   3.75362  4.95241  8.70602
   spin  1
    eigenvalues: 
  0.384  0.384  0.995  0.995  0.995
    eigenvectors:
  0.010  0.990  0.000  0.000  0.000
  0.000  0.000  0.062  0.605  0.333
  0.000  0.000  0.637  0.030  0.333
  0.990  0.010  0.000  0.000  0.000
  0.000  0.000  0.302  0.365  0.333
    occupations:
  0.384 -0.001  0.001  0.000 -0.001
 -0.001  0.995  0.000 -0.001  0.000
  0.001  0.000  0.995 -0.001  0.000
  0.000 -0.001 -0.001  0.384  0.000
 -0.001  0.000  0.000  0.000  0.995
   spin  2
    eigenvalues: 
  0.980  0.980  0.997  0.997  0.997
    eigenvectors:
  0.067  0.933  0.000  0.000  0.000
  0.000  0.000  0.069  0.598  0.333
  0.000  0.000  0.641  0.026  0.333
  0.933  0.067  0.000  0.000  0.000
  0.000  0.000  0.290  0.376  0.333
    occupations:
  0.980  0.000  0.000  0.000  0.000
  0.000  0.997  0.000  0.000  0.000
  0.000  0.000  0.997  0.000  0.000
  0.000  0.000  0.000  0.980  0.000
  0.000  0.000  0.000  0.000  0.997
atomic mag. moment =    -1.198792
atom    6   Tr[ns(na)] (up, down, total) =   3.75362  4.95241  8.70603
   spin  1
    eigenvalues: 
  0.384  0.384  0.995  0.995  0.995
    eigenvectors:
  0.000  1.000  0.000  0.000  0.000
  0.000  0.000  0.500  0.167  0.333
  0.000  0.000  0.500  0.167  0.333
  1.000  0.000  0.000  0.000  0.000
  0.000  0.000  0.000  0.667  0.333
    occupations:
  0.384 -0.001  0.001  0.000 -0.001
 -0.001  0.995  0.000 -0.001  0.000
  0.001  0.000  0.995 -0.001  0.000
  0.000 -0.001 -0.001  0.384  0.000
 -0.001  0.000  0.000  0.000  0.995
   spin  2
    eigenvalues: 
  0.980  0.980  0.997  0.997  0.997
    eigenvectors:
  1.000  0.000  0.000  0.000  0.000
  0.000  0.000  0.500  0.167  0.333
  0.000  0.000  0.500  0.167  0.333
  0.000  1.000  0.000  0.000  0.000
  0.000  0.000  0.000  0.667  0.333
    occupations:
  0.980  0.000  0.000  0.000  0.000
  0.000  0.997  0.000  0.000  0.000
  0.000  0.000  0.997  0.000  0.000
  0.000  0.000  0.000  0.980  0.000
  0.000  0.000  0.000  0.000  0.997
atomic mag. moment =    -1.198788
atom    7   Tr[ns(na)] (up, down, total) =   3.75362  4.95241  8.70603
   spin  1
    eigenvalues: 
  0.384  0.384  0.995  0.995  0.995
    eigenvectors:
  0.750  0.250  0.000  0.000  0.000
  0.000  0.000  0.500  0.167  0.333
  0.000  0.000  0.000  0.667  0.333
  0.250  0.750  0.000  0.000  0.000
  0.000  0.000  0.500  0.167  0.333
    occupations:
  0.384 -0.001  0.001  0.000 -0.001
 -0.001  0.995  0.000 -0.001  0.000
  0.001  0.000  0.995 -0.001  0.000
  0.000 -0.001 -0.001  0.384  0.000
 -0.001  0.000  0.000  0.000  0.995
   spin  2
    eigenvalues: 
  0.980  0.980  0.997  0.997  0.997
    eigenvectors:
  0.250  0.750  0.000  0.000  0.000
  0.000  0.000  0.500  0.167  0.333
  0.000  0.000  0.000  0.667  0.333
  0.750  0.250  0.000  0.000  0.000
  0.000  0.000  0.500  0.167  0.333
    occupations:
  0.980  0.000  0.000  0.000  0.000
  0.000  0.997  0.000  0.000  0.000
  0.000  0.000  0.997  0.000  0.000
  0.000  0.000  0.000  0.980  0.000
  0.000  0.000  0.000  0.000  0.997
atomic mag. moment =    -1.198788
atom    8   Tr[ns(na)] (up, down, total) =   3.75362  4.95241  8.70603
   spin  1
    eigenvalues: 
  0.384  0.384  0.995  0.995  0.995
    eigenvectors:
  0.750  0.250  0.000  0.000  0.000
  0.000  0.000  0.000  0.667  0.333
  0.000  0.000  0.500  0.167  0.333
  0.250  0.750  0.000  0.000  0.000
  0.000  0.000  0.500  0.167  0.333
    occupations:
  0.384 -0.001  0.001  0.000 -0.001
 -0.001  0.995  0.000 -0.001  0.000
  0.001  0.000  0.995 -0.001  0.000
  0.000 -0.001 -0.001  0.384  0.000
 -0.001  0.000  0.000  0.000  0.995
   spin  2
    eigenvalues: 
  0.980  0.980  0.997  0.997  0.997
    eigenvectors:
  0.250  0.750  0.000  0.000  0.000
  0.000  0.000  0.000  0.667  0.333
  0.000  0.000  0.500  0.167  0.333
  0.750  0.250  0.000  0.000  0.000
  0.000  0.000  0.500  0.167  0.333
    occupations:
  0.980  0.000  0.000  0.000  0.000
  0.000  0.997  0.000  0.000  0.000
  0.000  0.000  0.997  0.000  0.000
  0.000  0.000  0.000  0.980  0.000
  0.000  0.000  0.000  0.000  0.997
atomic mag. moment =    -1.198788
atom    9   Tr[ns(na)] (up, down, total) =   2.81114  2.81114  5.62228
   spin  1
    eigenvalues: 
  0.937  0.937  0.938
    eigenvectors:
  0.085  0.581  0.333
  0.265  0.402  0.333
  0.650  0.017  0.333
    occupations:
  0.937  0.000  0.000
  0.000  0.937  0.000
  0.000  0.000  0.937
   spin  2
    eigenvalues: 
  0.937  0.937  0.938
    eigenvectors:
  0.084  0.583  0.333
  0.267  0.400  0.333
  0.649  0.017  0.333
    occupations:
  0.937  0.000  0.000
  0.000  0.937  0.000
  0.000  0.000  0.937
atomic mag. moment =    -0.000001
atom   10   Tr[ns(na)] (up, down, total) =   2.81114  2.81114  5.62228
   spin  1
    eigenvalues: 
  0.937  0.937  0.938
    eigenvectors:
  0.500  0.167  0.333
  0.500  0.167  0.333
  0.000  0.667  0.333
    occupations:
  0.937  0.000  0.000
  0.000  0.937  0.000
  0.000  0.000  0.937
   spin  2
    eigenvalues: 
  0.937  0.937  0.938
    eigenvectors:
  0.500  0.167  0.333
  0.500  0.167  0.333
  0.000  0.667  0.333
    occupations:
  0.937  0.000  0.000
  0.000  0.937  0.000
  0.000  0.000  0.937
atomic mag. moment =     0.000000
atom   11   Tr[ns(na)] (up, down, total) =   2.81114  2.81114  5.62228
   spin  1
    eigenvalues: 
  0.937  0.937  0.938
    eigenvectors:
  0.500  0.167  0.333
  0.000  0.667  0.333
  0.500  0.167  0.333
    occupations:
  0.937  0.000  0.000
  0.000  0.937  0.000
  0.000  0.000  0.937
   spin  2
    eigenvalues: 
  0.937  0.937  0.938
    eigenvectors:
  0.500  0.167  0.333
  0.000  0.667  0.333
  0.500  0.167  0.333
    occupations:
  0.937  0.000  0.000
  0.000  0.937  0.000
  0.000  0.000  0.937
atomic mag. moment =     0.000000
atom   12   Tr[ns(na)] (up, down, total) =   2.81114  2.81114  5.62228
   spin  1
    eigenvalues: 
  0.937  0.937  0.938
    eigenvectors:
  0.000  0.667  0.333
  0.500  0.167  0.333
  0.500  0.167  0.333
    occupations:
  0.937  0.000  0.000
  0.000  0.937  0.000
  0.000  0.000  0.937
   spin  2
    eigenvalues: 
  0.937  0.937  0.938
    eigenvectors:
  0.000  0.667  0.333
  0.500  0.167  0.333
  0.500  0.167  0.333
    occupations:
  0.937  0.000  0.000
  0.000  0.937  0.000
  0.000  0.000  0.937
atomic mag. moment =     0.000000
atom   13   Tr[ns(na)] (up, down, total) =   2.81114  2.81114  5.62228
   spin  1
    eigenvalues: 
  0.937  0.937  0.938
    eigenvectors:
  0.000  0.667  0.333
  0.500  0.167  0.333
  0.500  0.167  0.333
    occupations:
  0.937  0.000  0.000
  0.000  0.937  0.000
  0.000  0.000  0.937
   spin  2
    eigenvalues: 
  0.937  0.937  0.938
    eigenvectors:
  0.000  0.667  0.333
  0.500  0.167  0.333
  0.500  0.167  0.333
    occupations:
  0.937  0.000  0.000
  0.000  0.937  0.000
  0.000  0.000  0.937
atomic mag. moment =     0.000000
atom   14   Tr[ns(na)] (up, down, total) =   2.81114  2.81114  5.62228
   spin  1
    eigenvalues: 
  0.937  0.937  0.938
    eigenvectors:
  0.500  0.167  0.333
  0.000  0.667  0.333
  0.500  0.167  0.333
    occupations:
  0.937  0.000  0.000
  0.000  0.937  0.000
  0.000  0.000  0.937
   spin  2
    eigenvalues: 
  0.937  0.937  0.938
    eigenvectors:
  0.500  0.167  0.333
  0.000  0.667  0.333
  0.500  0.167  0.333
    occupations:
  0.937  0.000  0.000
  0.000  0.937  0.000
  0.000  0.000  0.937
atomic mag. moment =     0.000000
atom   15   Tr[ns(na)] (up, down, total) =   2.81114  2.81114  5.62228
   spin  1
    eigenvalues: 
  0.937  0.937  0.938
    eigenvectors:
  0.500  0.167  0.333
  0.500  0.167  0.333
  0.000  0.667  0.333
    occupations:
  0.937  0.000  0.000
  0.000  0.937  0.000
  0.000  0.000  0.937
   spin  2
    eigenvalues: 
  0.937  0.937  0.938
    eigenvectors:
  0.500  0.167  0.333
  0.500  0.167  0.333
  0.000  0.667  0.333
    occupations:
  0.937  0.000  0.000
  0.000  0.937  0.000
  0.000  0.000  0.937
atomic mag. moment =     0.000000
atom   16   Tr[ns(na)] (up, down, total) =   2.81114  2.81114  5.62228
   spin  1
    eigenvalues: 
  0.937  0.937  0.938
    eigenvectors:
  0.072  0.595  0.333
  0.286  0.381  0.333
  0.643  0.024  0.333
    occupations:
  0.937  0.000  0.000
  0.000  0.937  0.000
  0.000  0.000  0.937
   spin  2
    eigenvalues: 
  0.937  0.937  0.938
    eigenvectors:
  0.027  0.640  0.333
  0.374  0.293  0.333
  0.600  0.067  0.333
    occupations:
  0.937  0.000  0.000
  0.000  0.937  0.000
  0.000  0.000  0.937
atomic mag. moment =    -0.000001
N of occupied +U levels = 114.6264667
 --- exit write_ns ---
 LDA+U Projector read from file 
     Starting wfc from file

     total cpu time spent up to now is       11.4 secs

     per-process dynamical memory:   103.4 Mb

     Self-consistent Calculation

     iteration #  1     ecut=    30.00 Ry     beta=0.30
     Davidson diagonalization with overlap
     c_bands:  1 eigenvalues not converged
     c_bands:  1 eigenvalues not converged
     c_bands:  1 eigenvalues not converged
     c_bands:  1 eigenvalues not converged
     c_bands:  1 eigenvalues not converged
     c_bands:  1 eigenvalues not converged
     ethr =  1.00E-10,  avg # of iterations = 13.3
 --- enter write_ns ---
 LDA+U parameters:
U( 1)     =  0.00000000
alpha( 1) =  0.00000000
U( 2)     =  0.00000000
alpha( 2) =  0.00000000
U( 3)     =  0.00000000
alpha( 3) = -0.10000000
U( 4)     =  0.00000000
alpha( 4) =  0.00000000
atom    1   Tr[ns(na)] (up, down, total) =   4.95242  3.75209  8.70451
   spin  1
    eigenvalues: 
  0.980  0.980  0.997  0.997  0.997
    eigenvectors:
  0.750  0.250  0.000  0.000  0.000
  0.000  0.000  0.676  0.000  0.324
  0.000  0.000  0.162  0.500  0.338
  0.250  0.750  0.000  0.000  0.000
  0.000  0.000  0.162  0.500  0.338
    occupations:
  0.980  0.000  0.000  0.000  0.000
  0.000  0.997  0.000  0.000  0.000
  0.000  0.000  0.997  0.000  0.000
  0.000  0.000  0.000  0.980  0.000
  0.000  0.000  0.000  0.000  0.997
   spin  2
    eigenvalues: 
  0.382  0.384  0.995  0.995  0.995
    eigenvectors:
  0.250  0.750  0.000  0.000  0.000
  0.000  0.000  0.678  0.000  0.322
  0.000  0.000  0.161  0.500  0.339
  0.750  0.250  0.000  0.000  0.000
  0.000  0.000  0.161  0.500  0.339
    occupations:
  0.383 -0.001  0.001 -0.001 -0.001
 -0.001  0.995  0.000 -0.001  0.000
  0.001  0.000  0.995 -0.001  0.000
 -0.001 -0.001 -0.001  0.383  0.000
 -0.001  0.000  0.000  0.000  0.995
atomic mag. moment =     1.200323
atom    2   Tr[ns(na)] (up, down, total) =   4.95242  3.75209  8.70451
   spin  1
    eigenvalues: 
  0.980  0.980  0.997  0.997  0.997
    eigenvectors:
  0.750  0.250  0.000  0.000  0.000
  0.000  0.000  0.162  0.500  0.338
  0.000  0.000  0.676  0.000  0.324
  0.250  0.750  0.000  0.000  0.000
  0.000  0.000  0.162  0.500  0.338
    occupations:
  0.980  0.000  0.000  0.000  0.000
  0.000  0.997  0.000  0.000  0.000
  0.000  0.000  0.997  0.000  0.000
  0.000  0.000  0.000  0.980  0.000
  0.000  0.000  0.000  0.000  0.997
   spin  2
    eigenvalues: 
  0.382  0.384  0.995  0.995  0.995
    eigenvectors:
  0.250  0.750  0.000  0.000  0.000
  0.000  0.000  0.161  0.500  0.339
  0.000  0.000  0.678  0.000  0.322
  0.750  0.250  0.000  0.000  0.000
  0.000  0.000  0.161  0.500  0.339
    occupations:
  0.383 -0.001  0.001  0.001 -0.001
 -0.001  0.995  0.000 -0.001  0.000
  0.001  0.000  0.995 -0.001  0.000
  0.001 -0.001 -0.001  0.383  0.000
 -0.001  0.000  0.000  0.000  0.995
atomic mag. moment =     1.200323
atom    3   Tr[ns(na)] (up, down, total) =   4.95242  3.75209  8.70451
   spin  1
    eigenvalues: 
  0.980  0.980  0.997  0.997  0.997
    eigenvectors:
  0.000  1.000  0.000  0.000  0.000
  0.000  0.000  0.162  0.500  0.338
  0.000  0.000  0.162  0.500  0.338
  1.000  0.000  0.000  0.000  0.000
  0.000  0.000  0.676  0.000  0.324
    occupations:
  0.980  0.000  0.000  0.000  0.000
  0.000  0.997  0.000  0.000  0.000
  0.000  0.000  0.997  0.000  0.000
  0.000  0.000  0.000  0.980  0.000
  0.000  0.000  0.000  0.000  0.997
   spin  2
    eigenvalues: 
  0.382  0.384  0.995  0.995  0.995
    eigenvectors:
  1.000  0.000  0.000  0.000  0.000
  0.000  0.000  0.161  0.500  0.339
  0.000  0.000  0.161  0.500  0.339
  0.000  1.000  0.000  0.000  0.000
  0.000  0.000  0.678  0.000  0.322
    occupations:
  0.382  0.000  0.000  0.000 -0.001
  0.000  0.995  0.000 -0.001  0.000
  0.000  0.000  0.995 -0.001  0.000
  0.000 -0.001 -0.001  0.384  0.000
 -0.001  0.000  0.000  0.000  0.995
atomic mag. moment =     1.200323
atom    4   Tr[ns(na)] (up, down, total) =   4.95241  3.75358  8.70599
   spin  1
    eigenvalues: 
  0.980  0.980  0.997  0.997  0.997
    eigenvectors:
  0.021  0.979  0.000  0.000  0.000
  0.000  0.000  0.050  0.616  0.333
  0.000  0.000  0.627  0.039  0.333
  0.979  0.021  0.000  0.000  0.000
  0.000  0.000  0.323  0.344  0.333
    occupations:
  0.980  0.000  0.000  0.000  0.000
  0.000  0.997  0.000  0.000  0.000
  0.000  0.000  0.997  0.000  0.000
  0.000  0.000  0.000  0.980  0.000
  0.000  0.000  0.000  0.000  0.997
   spin  2
    eigenvalues: 
  0.384  0.384  0.995  0.995  0.995
    eigenvectors:
  0.015  0.985  0.000  0.000  0.000
  0.000  0.000  0.048  0.619  0.333
  0.000  0.000  0.625  0.041  0.333
  0.985  0.015  0.000  0.000  0.000
  0.000  0.000  0.327  0.340  0.333
    occupations:
  0.384 -0.001  0.001  0.000 -0.001
 -0.001  0.995  0.000 -0.001  0.000
  0.001  0.000  0.995 -0.001  0.000
  0.000 -0.001 -0.001  0.384  0.000
 -0.001  0.000  0.000  0.000  0.995
atomic mag. moment =     1.198825
atom    5   Tr[ns(na)] (up, down, total) =   3.75359  4.95241  8.70600
   spin  1
    eigenvalues: 
  0.384  0.384  0.995  0.995  0.995
    eigenvectors:
  0.034  0.966  0.000  0.000  0.000
  0.000  0.000  0.056  0.610  0.333
  0.000  0.000  0.632  0.034  0.333
  0.966  0.034  0.000  0.000  0.000
  0.000  0.000  0.311  0.355  0.333
    occupations:
  0.384 -0.001  0.001  0.000 -0.001
 -0.001  0.995  0.000 -0.001  0.000
  0.001  0.000  0.995 -0.001  0.000
  0.000 -0.001 -0.001  0.384  0.000
 -0.001  0.000  0.000  0.000  0.995
   spin  2
    eigenvalues: 
  0.980  0.980  0.997  0.997  0.997
    eigenvectors:
  0.000  1.000  0.000  0.000  0.000
  0.000  0.000  0.056  0.611  0.333
  0.000  0.000  0.632  0.034  0.333
  1.000  0.000  0.000  0.000  0.000
  0.000  0.000  0.312  0.355  0.333
    occupations:
  0.980  0.000  0.000  0.000  0.000
  0.000  0.997  0.000  0.000  0.000
  0.000  0.000  0.997  0.000  0.000
  0.000  0.000  0.000  0.980  0.000
  0.000  0.000  0.000  0.000  0.997
atomic mag. moment =    -1.198815
atom    6   Tr[ns(na)] (up, down, total) =   3.75207  4.95241  8.70449
   spin  1
    eigenvalues: 
  0.382  0.384  0.995  0.995  0.995
    eigenvectors:
  1.000  0.000  0.000  0.000  0.000
  0.000  0.000  0.161  0.500  0.339
  0.000  0.000  0.161  0.500  0.339
  0.000  1.000  0.000  0.000  0.000
  0.000  0.000  0.678  0.000  0.322
    occupations:
  0.382  0.000  0.000  0.000 -0.001
  0.000  0.995  0.000 -0.001  0.000
  0.000  0.000  0.995 -0.001  0.000
  0.000 -0.001 -0.001  0.384  0.000
 -0.001  0.000  0.000  0.000  0.995
   spin  2
    eigenvalues: 
  0.980  0.980  0.997  0.997  0.997
    eigenvectors:
  0.000  1.000  0.000  0.000  0.000
  0.000  0.000  0.163  0.500  0.337
  0.000  0.000  0.163  0.500  0.337
  1.000  0.000  0.000  0.000  0.000
  0.000  0.000  0.674  0.000  0.326
    occupations:
  0.980  0.000  0.000  0.000  0.000
  0.000  0.997  0.000  0.000  0.000
  0.000  0.000  0.997  0.000  0.000
  0.000  0.000  0.000  0.980  0.000
  0.000  0.000  0.000  0.000  0.997
atomic mag. moment =    -1.200339
atom    7   Tr[ns(na)] (up, down, total) =   3.75207  4.95241  8.70449
   spin  1
    eigenvalues: 
  0.382  0.384  0.995  0.995  0.995
    eigenvectors:
  0.250  0.750  0.000  0.000  0.000
  0.000  0.000  0.161  0.500  0.339
  0.000  0.000  0.678  0.000  0.322
  0.750  0.250  0.000  0.000  0.000
  0.000  0.000  0.161  0.500  0.339
    occupations:
  0.383 -0.001  0.001  0.001 -0.001
 -0.001  0.995  0.000 -0.001  0.000
  0.001  0.000  0.995 -0.001  0.000
  0.001 -0.001 -0.001  0.383  0.000
 -0.001  0.000  0.000  0.000  0.995
   spin  2
    eigenvalues: 
  0.980  0.980  0.997  0.997  0.997
    eigenvectors:
  0.750  0.250  0.000  0.000  0.000
  0.000  0.000  0.163  0.500  0.337
  0.000  0.000  0.674  0.000  0.326
  0.250  0.750  0.000  0.000  0.000
  0.000  0.000  0.163  0.500  0.337
    occupations:
  0.980  0.000  0.000  0.000  0.000
  0.000  0.997  0.000  0.000  0.000
  0.000  0.000  0.997  0.000  0.000
  0.000  0.000  0.000  0.980  0.000
  0.000  0.000  0.000  0.000  0.997
atomic mag. moment =    -1.200339
atom    8   Tr[ns(na)] (up, down, total) =   3.75207  4.95241  8.70449
   spin  1
    eigenvalues: 
  0.382  0.384  0.995  0.995  0.995
    eigenvectors:
  0.250  0.750  0.000  0.000  0.000
  0.000  0.000  0.678  0.000  0.322
  0.000  0.000  0.161  0.500  0.339
  0.750  0.250  0.000  0.000  0.000
  0.000  0.000  0.161  0.500  0.339
    occupations:
  0.383 -0.001  0.001 -0.001 -0.001
 -0.001  0.995  0.000 -0.001  0.000
  0.001  0.000  0.995 -0.001  0.000
 -0.001 -0.001 -0.001  0.383  0.000
 -0.001  0.000  0.000  0.000  0.995
   spin  2
    eigenvalues: 
  0.980  0.980  0.997  0.997  0.997
    eigenvectors:
  0.750  0.250  0.000  0.000  0.000
  0.000  0.000  0.674  0.000  0.326
  0.000  0.000  0.163  0.500  0.337
  0.250  0.750  0.000  0.000  0.000
  0.000  0.000  0.163  0.500  0.337
    occupations:
  0.980  0.000  0.000  0.000  0.000
  0.000  0.997  0.000  0.000  0.000
  0.000  0.000  0.997  0.000  0.000
  0.000  0.000  0.000  0.980  0.000
  0.000  0.000  0.000  0.000  0.997
atomic mag. moment =    -1.200339
atom    9   Tr[ns(na)] (up, down, total) =   2.81554  2.81554  5.63108
   spin  1
    eigenvalues: 
  0.938  0.938  0.939
    eigenvectors:
  0.131  0.536  0.333
  0.205  0.461  0.333
  0.664  0.003  0.333
    occupations:
  0.939  0.000  0.000
  0.000  0.939  0.000
  0.000  0.000  0.939
   spin  2
    eigenvalues: 
  0.938  0.938  0.939
    eigenvectors:
  0.146  0.521  0.333
  0.188  0.479  0.333
  0.666  0.001  0.333
    occupations:
  0.939  0.000  0.000
  0.000  0.939  0.000
  0.000  0.000  0.939
atomic mag. moment =     0.000004
atom   10   Tr[ns(na)] (up, down, total) =   2.81113  2.81113  5.62227
   spin  1
    eigenvalues: 
  0.937  0.937  0.938
    eigenvectors:
  0.500  0.162  0.338
  0.500  0.162  0.338
  0.000  0.675  0.325
    occupations:
  0.937  0.000  0.000
  0.000  0.937  0.000
  0.000  0.000  0.937
   spin  2
    eigenvalues: 
  0.937  0.937  0.938
    eigenvectors:
  0.500  0.163  0.337
  0.500  0.163  0.337
  0.000  0.675  0.325
    occupations:
  0.937  0.000  0.000
  0.000  0.937  0.000
  0.000  0.000  0.937
atomic mag. moment =     0.000002
atom   11   Tr[ns(na)] (up, down, total) =   2.81113  2.81113  5.62227
   spin  1
    eigenvalues: 
  0.937  0.937  0.938
    eigenvectors:
  0.500  0.162  0.338
  0.000  0.675  0.325
  0.500  0.162  0.338
    occupations:
  0.937  0.000  0.000
  0.000  0.937  0.000
  0.000  0.000  0.937
   spin  2
    eigenvalues: 
  0.937  0.937  0.938
    eigenvectors:
  0.500  0.163  0.337
  0.000  0.675  0.325
  0.500  0.163  0.337
    occupations:
  0.937  0.000  0.000
  0.000  0.937  0.000
  0.000  0.000  0.937
atomic mag. moment =     0.000002
atom   12   Tr[ns(na)] (up, down, total) =   2.81113  2.81113  5.62227
   spin  1
    eigenvalues: 
  0.937  0.937  0.938
    eigenvectors:
  0.000  0.675  0.325
  0.500  0.162  0.338
  0.500  0.162  0.338
    occupations:
  0.937  0.000  0.000
  0.000  0.937  0.000
  0.000  0.000  0.937
   spin  2
    eigenvalues: 
  0.937  0.937  0.938
    eigenvectors:
  0.000  0.675  0.325
  0.500  0.163  0.337
  0.500  0.163  0.337
    occupations:
  0.937  0.000  0.000
  0.000  0.937  0.000
  0.000  0.000  0.937
atomic mag. moment =     0.000002
atom   13   Tr[ns(na)] (up, down, total) =   2.81115  2.81115  5.62230
   spin  1
    eigenvalues: 
  0.937  0.937  0.938
    eigenvectors:
  0.661  0.000  0.339
  0.170  0.500  0.330
  0.170  0.500  0.330
    occupations:
  0.937  0.000  0.000
  0.000  0.937  0.000
  0.000  0.000  0.937
   spin  2
    eigenvalues: 
  0.937  0.937  0.938
    eigenvectors:
  0.660  0.000  0.340
  0.170  0.500  0.330
  0.170  0.500  0.330
    occupations:
  0.937  0.000  0.000
  0.000  0.937  0.000
  0.000  0.000  0.937
atomic mag. moment =     0.000002
atom   14   Tr[ns(na)] (up, down, total) =   2.81115  2.81115  5.62230
   spin  1
    eigenvalues: 
  0.937  0.937  0.938
    eigenvectors:
  0.170  0.500  0.330
  0.661  0.000  0.339
  0.170  0.500  0.330
    occupations:
  0.937  0.000  0.000
  0.000  0.937  0.000
  0.000  0.000  0.937
   spin  2
    eigenvalues: 
  0.937  0.937  0.938
    eigenvectors:
  0.170  0.500  0.330
  0.660  0.000  0.340
  0.170  0.500  0.330
    occupations:
  0.937  0.000  0.000
  0.000  0.937  0.000
  0.000  0.000  0.937
atomic mag. moment =     0.000002
atom   15   Tr[ns(na)] (up, down, total) =   2.81115  2.81115  5.62230
   spin  1
    eigenvalues: 
  0.937  0.937  0.938
    eigenvectors:
  0.170  0.500  0.330
  0.170  0.500  0.330
  0.661  0.000  0.339
    occupations:
  0.937  0.000  0.000
  0.000  0.937  0.000
  0.000  0.000  0.937
   spin  2
    eigenvalues: 
  0.937  0.937  0.938
    eigenvectors:
  0.170  0.500  0.330
  0.170  0.500  0.330
  0.660  0.000  0.340
    occupations:
  0.937  0.000  0.000
  0.000  0.937  0.000
  0.000  0.000  0.937
atomic mag. moment =     0.000002
atom   16   Tr[ns(na)] (up, down, total) =   2.81077  2.81077  5.62154
   spin  1
    eigenvalues: 
  0.936  0.936  0.938
    eigenvectors:
  0.064  0.602  0.333
  0.297  0.369  0.333
  0.638  0.028  0.333
    occupations:
  0.937  0.000  0.000
  0.000  0.937  0.000
  0.000  0.000  0.937
   spin  2
    eigenvalues: 
  0.936  0.936  0.938
    eigenvectors:
  0.102  0.564  0.333
  0.241  0.426  0.333
  0.657  0.010  0.333
    occupations:
  0.937  0.000  0.000
  0.000  0.937  0.000
  0.000  0.000  0.937
atomic mag. moment =     0.000004
N of occupied +U levels = 114.6253248
 --- exit write_ns ---
 --- in v_hubbard ---
Hubbard energy   -0.0413
 -------

     total cpu time spent up to now is      131.7 secs

     total energy              =    -942.05740894 Ry
     Harris-Foulkes estimate   =    -942.05745647 Ry
     estimated scf accuracy    <       0.00010486 Ry

     total magnetization       =     0.00 Bohr mag/cell
     absolute magnetization    =    12.30 Bohr mag/cell

     iteration #  2     ecut=    30.00 Ry     beta=0.30
     Davidson diagonalization with overlap
     ethr =  8.19E-08,  avg # of iterations =  2.0
 --- enter write_ns ---
 LDA+U parameters:
U( 1)     =  0.00000000
alpha( 1) =  0.00000000
U( 2)     =  0.00000000
alpha( 2) =  0.00000000
U( 3)     =  0.00000000
alpha( 3) = -0.10000000
U( 4)     =  0.00000000
alpha( 4) =  0.00000000
atom    1   Tr[ns(na)] (up, down, total) =   4.95239  3.75332  8.70572
   spin  1
    eigenvalues: 
  0.980  0.980  0.997  0.997  0.997
    eigenvectors:
  0.250  0.750  0.000  0.000  0.000
  0.000  0.000  0.000  0.591  0.409
  0.000  0.000  0.500  0.204  0.296
  0.750  0.250  0.000  0.000  0.000
  0.000  0.000  0.500  0.204  0.296
    occupations:
  0.980  0.000  0.000  0.000  0.000
  0.000  0.997  0.000  0.000  0.000
  0.000  0.000  0.997  0.000  0.000
  0.000  0.000  0.000  0.980  0.000
  0.000  0.000  0.000  0.000  0.997
   spin  2
    eigenvalues: 
  0.383  0.384  0.995  0.995  0.995
    eigenvectors:
  0.250  0.750  0.000  0.000  0.000
  0.000  0.000  0.000  0.648  0.352
  0.000  0.000  0.500  0.176  0.324
  0.750  0.250  0.000  0.000  0.000
  0.000  0.000  0.500  0.176  0.324
    occupations:
  0.384 -0.001  0.001  0.000 -0.001
 -0.001  0.995  0.000 -0.001  0.000
  0.001  0.000  0.995 -0.001  0.000
  0.000 -0.001 -0.001  0.384  0.000
 -0.001  0.000  0.000  0.000  0.995
atomic mag. moment =     1.199070
atom    2   Tr[ns(na)] (up, down, total) =   4.95239  3.75332  8.70572
   spin  1
    eigenvalues: 
  0.980  0.980  0.997  0.997  0.997
    eigenvectors:
  0.250  0.750  0.000  0.000  0.000
  0.000  0.000  0.500  0.204  0.296
  0.000  0.000  0.000  0.591  0.409
  0.750  0.250  0.000  0.000  0.000
  0.000  0.000  0.500  0.204  0.296
    occupations:
  0.980  0.000  0.000  0.000  0.000
  0.000  0.997  0.000  0.000  0.000
  0.000  0.000  0.997  0.000  0.000
  0.000  0.000  0.000  0.980  0.000
  0.000  0.000  0.000  0.000  0.997
   spin  2
    eigenvalues: 
  0.383  0.384  0.995  0.995  0.995
    eigenvectors:
  0.250  0.750  0.000  0.000  0.000
  0.000  0.000  0.500  0.176  0.324
  0.000  0.000  0.000  0.648  0.352
  0.750  0.250  0.000  0.000  0.000
  0.000  0.000  0.500  0.176  0.324
    occupations:
  0.384 -0.001  0.001  0.000 -0.001
 -0.001  0.995  0.000 -0.001  0.000
  0.001  0.000  0.995 -0.001  0.000
  0.000 -0.001 -0.001  0.384  0.000
 -0.001  0.000  0.000  0.000  0.995
atomic mag. moment =     1.199070
atom    3   Tr[ns(na)] (up, down, total) =   4.95239  3.75332  8.70572
   spin  1
    eigenvalues: 
  0.980  0.980  0.997  0.997  0.997
    eigenvectors:
  1.000  0.000  0.000  0.000  0.000
  0.000  0.000  0.500  0.204  0.296
  0.000  0.000  0.500  0.204  0.296
  0.000  1.000  0.000  0.000  0.000
  0.000  0.000  0.000  0.591  0.409
    occupations:
  0.980  0.000  0.000  0.000  0.000
  0.000  0.997  0.000  0.000  0.000
  0.000  0.000  0.997  0.000  0.000
  0.000  0.000  0.000  0.980  0.000
  0.000  0.000  0.000  0.000  0.997
   spin  2
    eigenvalues: 
  0.383  0.384  0.995  0.995  0.995
    eigenvectors:
  1.000  0.000  0.000  0.000  0.000
  0.000  0.000  0.500  0.176  0.324
  0.000  0.000  0.500  0.176  0.324
  0.000  1.000  0.000  0.000  0.000
  0.000  0.000  0.000  0.648  0.352
    occupations:
  0.383 -0.001  0.001  0.000 -0.001
 -0.001  0.995  0.000 -0.001  0.000
  0.001  0.000  0.995 -0.001  0.000
  0.000 -0.001 -0.001  0.384  0.000
 -0.001  0.000  0.000  0.000  0.995
atomic mag. moment =     1.199070
atom    4   Tr[ns(na)] (up, down, total) =   4.95240  3.75356  8.70597
   spin  1
    eigenvalues: 
  0.980  0.980  0.997  0.997  0.997
    eigenvectors:
  0.041  0.959  0.000  0.000  0.000
  0.000  0.000  0.059  0.608  0.333
  0.000  0.000  0.634  0.032  0.333
  0.959  0.041  0.000  0.000  0.000
  0.000  0.000  0.307  0.359  0.333
    occupations:
  0.980  0.000  0.000  0.000  0.000
  0.000  0.997  0.000  0.000  0.000
  0.000  0.000  0.997  0.000  0.000
  0.000  0.000  0.000  0.980  0.000
  0.000  0.000  0.000  0.000  0.997
   spin  2
    eigenvalues: 
  0.384  0.384  0.995  0.995  0.995
    eigenvectors:
  0.078  0.922  0.000  0.000  0.000
  0.000  0.000  0.043  0.624  0.333
  0.000  0.000  0.620  0.047  0.333
  0.922  0.078  0.000  0.000  0.000
  0.000  0.000  0.338  0.329  0.333
    occupations:
  0.384 -0.001  0.001  0.000 -0.001
 -0.001  0.995  0.000 -0.001  0.000
  0.001  0.000  0.995 -0.001  0.000
  0.000 -0.001 -0.001  0.384  0.000
 -0.001  0.000  0.000  0.000  0.995
atomic mag. moment =     1.198841
atom    5   Tr[ns(na)] (up, down, total) =   3.75354  4.95240  8.70595
   spin  1
    eigenvalues: 
  0.384  0.384  0.995  0.995  0.995
    eigenvectors:
  0.034  0.966  0.000  0.000  0.000
  0.000  0.000  0.053  0.614  0.333
  0.000  0.000  0.629  0.037  0.333
  0.966  0.034  0.000  0.000  0.000
  0.000  0.000  0.318  0.348  0.333
    occupations:
  0.384 -0.001  0.001  0.000 -0.001
 -0.001  0.995  0.000 -0.001  0.000
  0.001  0.000  0.995 -0.001  0.000
  0.000 -0.001 -0.001  0.384  0.000
 -0.001  0.000  0.000  0.000  0.995
   spin  2
    eigenvalues: 
  0.980  0.980  0.997  0.997  0.997
    eigenvectors:
  0.001  0.999  0.000  0.000  0.000
  0.000  0.000  0.059  0.608  0.333
  0.000  0.000  0.635  0.032  0.333
  0.999  0.001  0.000  0.000  0.000
  0.000  0.000  0.306  0.360  0.333
    occupations:
  0.980  0.000  0.000  0.000  0.000
  0.000  0.997  0.000  0.000  0.000
  0.000  0.000  0.997  0.000  0.000
  0.000  0.000  0.000  0.980  0.000
  0.000  0.000  0.000  0.000  0.997
atomic mag. moment =    -1.198857
atom    6   Tr[ns(na)] (up, down, total) =   3.75335  4.95240  8.70575
   spin  1
    eigenvalues: 
  0.383  0.384  0.995  0.995  0.995
    eigenvectors:
  1.000  0.000  0.000  0.000  0.000
  0.000  0.000  0.500  0.176  0.324
  0.000  0.000  0.500  0.176  0.324
  0.000  1.000  0.000  0.000  0.000
  0.000  0.000  0.000  0.647  0.353
    occupations:
  0.383 -0.001  0.001  0.000 -0.001
 -0.001  0.995  0.000 -0.001  0.000
  0.001  0.000  0.995 -0.001  0.000
  0.000 -0.001 -0.001  0.384  0.000
 -0.001  0.000  0.000  0.000  0.995
   spin  2
    eigenvalues: 
  0.980  0.980  0.997  0.997  0.997
    eigenvectors:
  1.000  0.000  0.000  0.000  0.000
  0.000  0.000  0.500  0.203  0.297
  0.000  0.000  0.500  0.203  0.297
  0.000  1.000  0.000  0.000  0.000
  0.000  0.000  0.000  0.594  0.406
    occupations:
  0.980  0.000  0.000  0.000  0.000
  0.000  0.997  0.000  0.000  0.000
  0.000  0.000  0.997  0.000  0.000
  0.000  0.000  0.000  0.980  0.000
  0.000  0.000  0.000  0.000  0.997
atomic mag. moment =    -1.199049
atom    7   Tr[ns(na)] (up, down, total) =   3.75335  4.95240  8.70575
   spin  1
    eigenvalues: 
  0.383  0.384  0.995  0.995  0.995
    eigenvectors:
  0.250  0.750  0.000  0.000  0.000
  0.000  0.000  0.500  0.176  0.324
  0.000  0.000  0.000  0.647  0.353
  0.750  0.250  0.000  0.000  0.000
  0.000  0.000  0.500  0.176  0.324
    occupations:
  0.384 -0.001  0.001  0.000 -0.001
 -0.001  0.995  0.000 -0.001  0.000
  0.001  0.000  0.995 -0.001  0.000
  0.000 -0.001 -0.001  0.384  0.000
 -0.001  0.000  0.000  0.000  0.995
   spin  2
    eigenvalues: 
  0.980  0.980  0.997  0.997  0.997
    eigenvectors:
  0.250  0.750  0.000  0.000  0.000
  0.000  0.000  0.500  0.203  0.297
  0.000  0.000  0.000  0.594  0.406
  0.750  0.250  0.000  0.000  0.000
  0.000  0.000  0.500  0.203  0.297
    occupations:
  0.980  0.000  0.000  0.000  0.000
  0.000  0.997  0.000  0.000  0.000
  0.000  0.000  0.997  0.000  0.000
  0.000  0.000  0.000  0.980  0.000
  0.000  0.000  0.000  0.000  0.997
atomic mag. moment =    -1.199049
atom    8   Tr[ns(na)] (up, down, total) =   3.75335  4.95240  8.70575
   spin  1
    eigenvalues: 
  0.383  0.384  0.995  0.995  0.995
    eigenvectors:
  0.250  0.750  0.000  0.000  0.000
  0.000  0.000  0.000  0.647  0.353
  0.000  0.000  0.500  0.176  0.324
  0.750  0.250  0.000  0.000  0.000
  0.000  0.000  0.500  0.176  0.324
    occupations:
  0.384 -0.001  0.001  0.000 -0.001
 -0.001  0.995  0.000 -0.001  0.000
  0.001  0.000  0.995 -0.001  0.000
  0.000 -0.001 -0.001  0.384  0.000
 -0.001  0.000  0.000  0.000  0.995
   spin  2
    eigenvalues: 
  0.980  0.980  0.997  0.997  0.997
    eigenvectors:
  0.250  0.750  0.000  0.000  0.000
  0.000  0.000  0.000  0.594  0.406
  0.000  0.000  0.500  0.203  0.297
  0.750  0.250  0.000  0.000  0.000
  0.000  0.000  0.500  0.203  0.297
    occupations:
  0.980  0.000  0.000  0.000  0.000
  0.000  0.997  0.000  0.000  0.000
  0.000  0.000  0.997  0.000  0.000
  0.000  0.000  0.000  0.980  0.000
  0.000  0.000  0.000  0.000  0.997
atomic mag. moment =    -1.199049
atom    9   Tr[ns(na)] (up, down, total) =   2.81176  2.81177  5.62353
   spin  1
    eigenvalues: 
  0.937  0.937  0.938
    eigenvectors:
  0.093  0.574  0.333
  0.254  0.413  0.333
  0.653  0.013  0.333
    occupations:
  0.937  0.000  0.000
  0.000  0.937  0.000
  0.000  0.000  0.937
   spin  2
    eigenvalues: 
  0.937  0.937  0.938
    eigenvectors:
  0.076  0.590  0.333
  0.278  0.389  0.333
  0.646  0.021  0.333
    occupations:
  0.937  0.000  0.000
  0.000  0.937  0.000
  0.000  0.000  0.937
atomic mag. moment =    -0.000005
atom   10   Tr[ns(na)] (up, down, total) =   2.81110  2.81110  5.62219
   spin  1
    eigenvalues: 
  0.937  0.937  0.938
    eigenvectors:
  0.500  0.171  0.329
  0.500  0.171  0.329
  0.000  0.657  0.343
    occupations:
  0.937  0.000  0.000
  0.000  0.937  0.000
  0.000  0.000  0.937
   spin  2
    eigenvalues: 
  0.937  0.937  0.938
    eigenvectors:
  0.500  0.171  0.329
  0.500  0.171  0.329
  0.000  0.658  0.342
    occupations:
  0.937  0.000  0.000
  0.000  0.937  0.000
  0.000  0.000  0.937
atomic mag. moment =    -0.000002
atom   11   Tr[ns(na)] (up, down, total) =   2.81110  2.81110  5.62219
   spin  1
    eigenvalues: 
  0.937  0.937  0.938
    eigenvectors:
  0.500  0.171  0.329
  0.000  0.657  0.343
  0.500  0.171  0.329
    occupations:
  0.937  0.000  0.000
  0.000  0.937  0.000
  0.000  0.000  0.937
   spin  2
    eigenvalues: 
  0.937  0.937  0.938
    eigenvectors:
  0.500  0.171  0.329
  0.000  0.658  0.342
  0.500  0.171  0.329
    occupations:
  0.937  0.000  0.000
  0.000  0.937  0.000
  0.000  0.000  0.937
atomic mag. moment =    -0.000002
atom   12   Tr[ns(na)] (up, down, total) =   2.81110  2.81110  5.62219
   spin  1
    eigenvalues: 
  0.937  0.937  0.938
    eigenvectors:
  0.000  0.657  0.343
  0.500  0.171  0.329
  0.500  0.171  0.329
    occupations:
  0.937  0.000  0.000
  0.000  0.937  0.000
  0.000  0.000  0.937
   spin  2
    eigenvalues: 
  0.937  0.937  0.938
    eigenvectors:
  0.000  0.658  0.342
  0.500  0.171  0.329
  0.500  0.171  0.329
    occupations:
  0.937  0.000  0.000
  0.000  0.937  0.000
  0.000  0.000  0.937
atomic mag. moment =    -0.000002
atom   13   Tr[ns(na)] (up, down, total) =   2.81107  2.81107  5.62214
   spin  1
    eigenvalues: 
  0.937  0.937  0.938
    eigenvectors:
  0.000  0.655  0.345
  0.500  0.173  0.327
  0.500  0.173  0.327
    occupations:
  0.937  0.000  0.000
  0.000  0.937  0.000
  0.000  0.000  0.937
   spin  2
    eigenvalues: 
  0.937  0.937  0.938
    eigenvectors:
  0.000  0.656  0.344
  0.500  0.172  0.328
  0.500  0.172  0.328
    occupations:
  0.937  0.000  0.000
  0.000  0.937  0.000
  0.000  0.000  0.937
atomic mag. moment =    -0.000002
atom   14   Tr[ns(na)] (up, down, total) =   2.81107  2.81107  5.62214
   spin  1
    eigenvalues: 
  0.937  0.937  0.938
    eigenvectors:
  0.500  0.173  0.327
  0.000  0.655  0.345
  0.500  0.173  0.327
    occupations:
  0.937  0.000  0.000
  0.000  0.937  0.000
  0.000  0.000  0.937
   spin  2
    eigenvalues: 
  0.937  0.937  0.938
    eigenvectors:
  0.500  0.172  0.328
  0.000  0.656  0.344
  0.500  0.172  0.328
    occupations:
  0.937  0.000  0.000
  0.000  0.937  0.000
  0.000  0.000  0.937
atomic mag. moment =    -0.000002
atom   15   Tr[ns(na)] (up, down, total) =   2.81107  2.81107  5.62214
   spin  1
    eigenvalues: 
  0.937  0.937  0.938
    eigenvectors:
  0.500  0.173  0.327
  0.500  0.173  0.327
  0.000  0.655  0.345
    occupations:
  0.937  0.000  0.000
  0.000  0.937  0.000
  0.000  0.000  0.937
   spin  2
    eigenvalues: 
  0.937  0.937  0.938
    eigenvectors:
  0.500  0.172  0.328
  0.500  0.172  0.328
  0.000  0.656  0.344
    occupations:
  0.937  0.000  0.000
  0.000  0.937  0.000
  0.000  0.000  0.937
atomic mag. moment =    -0.000002
atom   16   Tr[ns(na)] (up, down, total) =   2.81163  2.81164  5.62327
   spin  1
    eigenvalues: 
  0.937  0.937  0.938
    eigenvectors:
  0.117  0.549  0.333
  0.221  0.445  0.333
  0.661  0.005  0.333
    occupations:
  0.937  0.000  0.000
  0.000  0.937  0.000
  0.000  0.000  0.937
   spin  2
    eigenvalues: 
  0.937  0.937  0.938
    eigenvectors:
  0.110  0.556  0.333
  0.230  0.437  0.333
  0.659  0.007  0.333
    occupations:
  0.937  0.000  0.000
  0.000  0.937  0.000
  0.000  0.000  0.937
atomic mag. moment =    -0.000005
N of occupied +U levels = 114.6261194
 --- exit write_ns ---
 --- in v_hubbard ---
Hubbard energy   -0.0413
 -------

     total cpu time spent up to now is      180.9 secs

     total energy              =    -942.05743333 Ry
     Harris-Foulkes estimate   =    -942.05744094 Ry
     estimated scf accuracy    <       0.00002275 Ry

     total magnetization       =     0.00 Bohr mag/cell
     absolute magnetization    =    12.29 Bohr mag/cell

     iteration #  3     ecut=    30.00 Ry     beta=0.30
     Davidson diagonalization with overlap
     ethr =  1.78E-08,  avg # of iterations =  2.0
 --- enter write_ns ---
 LDA+U parameters:
U( 1)     =  0.00000000
alpha( 1) =  0.00000000
U( 2)     =  0.00000000
alpha( 2) =  0.00000000
U( 3)     =  0.00000000
alpha( 3) = -0.10000000
U( 4)     =  0.00000000
alpha( 4) =  0.00000000
atom    1   Tr[ns(na)] (up, down, total) =   4.95241  3.75297  8.70538
   spin  1
    eigenvalues: 
  0.980  0.980  0.997  0.997  0.997
    eigenvectors:
  0.750  0.250  0.000  0.000  0.000
  0.000  0.000  0.000  0.628  0.372
  0.000  0.000  0.500  0.186  0.314
  0.250  0.750  0.000  0.000  0.000
  0.000  0.000  0.500  0.186  0.314
    occupations:
  0.980  0.000  0.000  0.000  0.000
  0.000  0.997  0.000  0.000  0.000
  0.000  0.000  0.997  0.000  0.000
  0.000  0.000  0.000  0.980  0.000
  0.000  0.000  0.000  0.000  0.997
   spin  2
    eigenvalues: 
  0.383  0.384  0.995  0.995  0.995
    eigenvectors:
  0.250  0.750  0.000  0.000  0.000
  0.000  0.000  0.000  0.662  0.338
  0.000  0.000  0.500  0.169  0.331
  0.750  0.250  0.000  0.000  0.000
  0.000  0.000  0.500  0.169  0.331
    occupations:
  0.384 -0.001  0.001  0.000 -0.001
 -0.001  0.995  0.000 -0.001  0.000
  0.001  0.000  0.995 -0.001  0.000
  0.000 -0.001 -0.001  0.383  0.000
 -0.001  0.000  0.000  0.000  0.995
atomic mag. moment =     1.199432
atom    2   Tr[ns(na)] (up, down, total) =   4.95241  3.75297  8.70538
   spin  1
    eigenvalues: 
  0.980  0.980  0.997  0.997  0.997
    eigenvectors:
  0.750  0.250  0.000  0.000  0.000
  0.000  0.000  0.500  0.186  0.314
  0.000  0.000  0.000  0.628  0.372
  0.250  0.750  0.000  0.000  0.000
  0.000  0.000  0.500  0.186  0.314
    occupations:
  0.980  0.000  0.000  0.000  0.000
  0.000  0.997  0.000  0.000  0.000
  0.000  0.000  0.997  0.000  0.000
  0.000  0.000  0.000  0.980  0.000
  0.000  0.000  0.000  0.000  0.997
   spin  2
    eigenvalues: 
  0.383  0.384  0.995  0.995  0.995
    eigenvectors:
  0.250  0.750  0.000  0.000  0.000
  0.000  0.000  0.500  0.169  0.331
  0.000  0.000  0.000  0.662  0.338
  0.750  0.250  0.000  0.000  0.000
  0.000  0.000  0.500  0.169  0.331
    occupations:
  0.384 -0.001  0.001  0.000 -0.001
 -0.001  0.995  0.000 -0.001  0.000
  0.001  0.000  0.995 -0.001  0.000
  0.000 -0.001 -0.001  0.383  0.000
 -0.001  0.000  0.000  0.000  0.995
atomic mag. moment =     1.199432
atom    3   Tr[ns(na)] (up, down, total) =   4.95241  3.75297  8.70538
   spin  1
    eigenvalues: 
  0.980  0.980  0.997  0.997  0.997
    eigenvectors:
  0.000  1.000  0.000  0.000  0.000
  0.000  0.000  0.500  0.186  0.314
  0.000  0.000  0.500  0.186  0.314
  1.000  0.000  0.000  0.000  0.000
  0.000  0.000  0.000  0.628  0.372
    occupations:
  0.980  0.000  0.000  0.000  0.000
  0.000  0.997  0.000  0.000  0.000
  0.000  0.000  0.997  0.000  0.000
  0.000  0.000  0.000  0.980  0.000
  0.000  0.000  0.000  0.000  0.997
   spin  2
    eigenvalues: 
  0.383  0.384  0.995  0.995  0.995
    eigenvectors:
  1.000  0.000  0.000  0.000  0.000
  0.000  0.000  0.500  0.169  0.331
  0.000  0.000  0.500  0.169  0.331
  0.000  1.000  0.000  0.000  0.000
  0.000  0.000  0.000  0.662  0.338
    occupations:
  0.383 -0.001  0.001  0.000 -0.001
 -0.001  0.995  0.000 -0.001  0.000
  0.001  0.000  0.995 -0.001  0.000
  0.000 -0.001 -0.001  0.384  0.000
 -0.001  0.000  0.000  0.000  0.995
atomic mag. moment =     1.199432
atom    4   Tr[ns(na)] (up, down, total) =   4.95241  3.75362  8.70603
   spin  1
    eigenvalues: 
  0.980  0.980  0.997  0.997  0.997
    eigenvectors:
  0.016  0.984  0.000  0.000  0.000
  0.000  0.000  0.057  0.610  0.333
  0.000  0.000  0.633  0.034  0.333
  0.984  0.016  0.000  0.000  0.000
  0.000  0.000  0.310  0.357  0.333
    occupations:
  0.980  0.000  0.000  0.000  0.000
  0.000  0.997  0.000  0.000  0.000
  0.000  0.000  0.997  0.000  0.000
  0.000  0.000  0.000  0.980  0.000
  0.000  0.000  0.000  0.000  0.997
   spin  2
    eigenvalues: 
  0.384  0.384  0.995  0.995  0.995
    eigenvectors:
  0.009  0.991  0.000  0.000  0.000
  0.000  0.000  0.048  0.618  0.333
  0.000  0.000  0.625  0.041  0.333
  0.991  0.009  0.000  0.000  0.000
  0.000  0.000  0.326  0.340  0.333
    occupations:
  0.384 -0.001  0.001  0.000 -0.001
 -0.001  0.995  0.000 -0.001  0.000
  0.001  0.000  0.995 -0.001  0.000
  0.000 -0.001 -0.001  0.384  0.000
 -0.001  0.000  0.000  0.000  0.995
atomic mag. moment =     1.198791
atom    5   Tr[ns(na)] (up, down, total) =   3.75363  4.95241  8.70604
   spin  1
    eigenvalues: 
  0.384  0.384  0.995  0.995  0.995
    eigenvectors:
  0.024  0.976  0.000  0.000  0.000
  0.000  0.000  0.053  0.613  0.333
  0.000  0.000  0.630  0.037  0.333
  0.976  0.024  0.000  0.000  0.000
  0.000  0.000  0.316  0.350  0.333
    occupations:
  0.384 -0.001  0.001  0.000 -0.001
 -0.001  0.995  0.000 -0.001  0.000
  0.001  0.000  0.995 -0.001  0.000
  0.000 -0.001 -0.001  0.384  0.000
 -0.001  0.000  0.000  0.000  0.995
   spin  2
    eigenvalues: 
  0.980  0.980  0.997  0.997  0.997
    eigenvectors:
  0.000  1.000  0.000  0.000  0.000
  0.000  0.000  0.059  0.607  0.333
  0.000  0.000  0.635  0.032  0.333
  1.000  0.000  0.000  0.000  0.000
  0.000  0.000  0.306  0.361  0.333
    occupations:
  0.980  0.000  0.000  0.000  0.000
  0.000  0.997  0.000  0.000  0.000
  0.000  0.000  0.997  0.000  0.000
  0.000  0.000  0.000  0.980  0.000
  0.000  0.000  0.000  0.000  0.997
atomic mag. moment =    -1.198780
atom    6   Tr[ns(na)] (up, down, total) =   3.75296  4.95240  8.70536
   spin  1
    eigenvalues: 
  0.383  0.384  0.995  0.995  0.995
    eigenvectors:
  1.000  0.000  0.000  0.000  0.000
  0.000  0.000  0.500  0.169  0.331
  0.000  0.000  0.500  0.169  0.331
  0.000  1.000  0.000  0.000  0.000
  0.000  0.000  0.000  0.663  0.337
    occupations:
  0.383 -0.001  0.001  0.000 -0.001
 -0.001  0.995  0.000 -0.001  0.000
  0.001  0.000  0.995 -0.001  0.000
  0.000 -0.001 -0.001  0.384  0.000
 -0.001  0.000  0.000  0.000  0.995
   spin  2
    eigenvalues: 
  0.980  0.980  0.997  0.997  0.997
    eigenvectors:
  0.000  1.000  0.000  0.000  0.000
  0.000  0.000  0.500  0.187  0.313
  0.000  0.000  0.500  0.187  0.313
  1.000  0.000  0.000  0.000  0.000
  0.000  0.000  0.000  0.627  0.373
    occupations:
  0.980  0.000  0.000  0.000  0.000
  0.000  0.997  0.000  0.000  0.000
  0.000  0.000  0.997  0.000  0.000
  0.000  0.000  0.000  0.980  0.000
  0.000  0.000  0.000  0.000  0.997
atomic mag. moment =    -1.199445
atom    7   Tr[ns(na)] (up, down, total) =   3.75296  4.95240  8.70536
   spin  1
    eigenvalues: 
  0.383  0.384  0.995  0.995  0.995
    eigenvectors:
  0.250  0.750  0.000  0.000  0.000
  0.000  0.000  0.500  0.169  0.331
  0.000  0.000  0.000  0.663  0.337
  0.750  0.250  0.000  0.000  0.000
  0.000  0.000  0.500  0.169  0.331
    occupations:
  0.384 -0.001  0.001  0.000 -0.001
 -0.001  0.995  0.000 -0.001  0.000
  0.001  0.000  0.995 -0.001  0.000
  0.000 -0.001 -0.001  0.383  0.000
 -0.001  0.000  0.000  0.000  0.995
   spin  2
    eigenvalues: 
  0.980  0.980  0.997  0.997  0.997
    eigenvectors:
  0.750  0.250  0.000  0.000  0.000
  0.000  0.000  0.500  0.187  0.313
  0.000  0.000  0.000  0.627  0.373
  0.250  0.750  0.000  0.000  0.000
  0.000  0.000  0.500  0.187  0.313
    occupations:
  0.980  0.000  0.000  0.000  0.000
  0.000  0.997  0.000  0.000  0.000
  0.000  0.000  0.997  0.000  0.000
  0.000  0.000  0.000  0.980  0.000
  0.000  0.000  0.000  0.000  0.997
atomic mag. moment =    -1.199445
atom    8   Tr[ns(na)] (up, down, total) =   3.75296  4.95240  8.70536
   spin  1
    eigenvalues: 
  0.383  0.384  0.995  0.995  0.995
    eigenvectors:
  0.250  0.750  0.000  0.000  0.000
  0.000  0.000  0.000  0.663  0.337
  0.000  0.000  0.500  0.169  0.331
  0.750  0.250  0.000  0.000  0.000
  0.000  0.000  0.500  0.169  0.331
    occupations:
  0.384 -0.001  0.001  0.000 -0.001
 -0.001  0.995  0.000 -0.001  0.000
  0.001  0.000  0.995 -0.001  0.000
  0.000 -0.001 -0.001  0.383  0.000
 -0.001  0.000  0.000  0.000  0.995
   spin  2
    eigenvalues: 
  0.980  0.980  0.997  0.997  0.997
    eigenvectors:
  0.750  0.250  0.000  0.000  0.000
  0.000  0.000  0.000  0.627  0.373
  0.000  0.000  0.500  0.187  0.313
  0.250  0.750  0.000  0.000  0.000
  0.000  0.000  0.500  0.187  0.313
    occupations:
  0.980  0.000  0.000  0.000  0.000
  0.000  0.997  0.000  0.000  0.000
  0.000  0.000  0.997  0.000  0.000
  0.000  0.000  0.000  0.980  0.000
  0.000  0.000  0.000  0.000  0.997
atomic mag. moment =    -1.199445
atom    9   Tr[ns(na)] (up, down, total) =   2.81292  2.81292  5.62584
   spin  1
    eigenvalues: 
  0.937  0.937  0.939
    eigenvectors:
  0.107  0.560  0.333
  0.235  0.432  0.333
  0.658  0.008  0.333
    occupations:
  0.938  0.000  0.000
  0.000  0.938  0.000
  0.000  0.000  0.938
   spin  2
    eigenvalues: 
  0.937  0.937  0.939
    eigenvectors:
  0.106  0.561  0.333
  0.236  0.430  0.333
  0.658  0.009  0.333
    occupations:
  0.938  0.000  0.000
  0.000  0.938  0.000
  0.000  0.000  0.938
atomic mag. moment =     0.000003
atom   10   Tr[ns(na)] (up, down, total) =   2.81112  2.81112  5.62224
   spin  1
    eigenvalues: 
  0.937  0.937  0.938
    eigenvectors:
  0.500  0.166  0.334
  0.500  0.166  0.334
  0.000  0.669  0.331
    occupations:
  0.937  0.000  0.000
  0.000  0.937  0.000
  0.000  0.000  0.937
   spin  2
    eigenvalues: 
  0.937  0.937  0.938
    eigenvectors:
  0.500  0.166  0.334
  0.500  0.166  0.334
  0.000  0.668  0.332
    occupations:
  0.937  0.000  0.000
  0.000  0.937  0.000
  0.000  0.000  0.937
atomic mag. moment =     0.000001
atom   11   Tr[ns(na)] (up, down, total) =   2.81112  2.81112  5.62224
   spin  1
    eigenvalues: 
  0.937  0.937  0.938
    eigenvectors:
  0.500  0.166  0.334
  0.000  0.669  0.331
  0.500  0.166  0.334
    occupations:
  0.937  0.000  0.000
  0.000  0.937  0.000
  0.000  0.000  0.937
   spin  2
    eigenvalues: 
  0.937  0.937  0.938
    eigenvectors:
  0.500  0.166  0.334
  0.000  0.668  0.332
  0.500  0.166  0.334
    occupations:
  0.937  0.000  0.000
  0.000  0.937  0.000
  0.000  0.000  0.937
atomic mag. moment =     0.000001
atom   12   Tr[ns(na)] (up, down, total) =   2.81112  2.81112  5.62224
   spin  1
    eigenvalues: 
  0.937  0.937  0.938
    eigenvectors:
  0.000  0.669  0.331
  0.500  0.166  0.334
  0.500  0.166  0.334
    occupations:
  0.937  0.000  0.000
  0.000  0.937  0.000
  0.000  0.000  0.937
   spin  2
    eigenvalues: 
  0.937  0.937  0.938
    eigenvectors:
  0.000  0.668  0.332
  0.500  0.166  0.334
  0.500  0.166  0.334
    occupations:
  0.937  0.000  0.000
  0.000  0.937  0.000
  0.000  0.000  0.937
atomic mag. moment =     0.000001
atom   13   Tr[ns(na)] (up, down, total) =   2.81113  2.81113  5.62226
   spin  1
    eigenvalues: 
  0.937  0.937  0.938
    eigenvectors:
  0.661  0.000  0.339
  0.169  0.500  0.331
  0.169  0.500  0.331
    occupations:
  0.937  0.000  0.000
  0.000  0.937  0.000
  0.000  0.000  0.937
   spin  2
    eigenvalues: 
  0.937  0.937  0.938
    eigenvectors:
  0.661  0.000  0.339
  0.170  0.500  0.330
  0.170  0.500  0.330
    occupations:
  0.937  0.000  0.000
  0.000  0.937  0.000
  0.000  0.000  0.937
atomic mag. moment =     0.000001
atom   14   Tr[ns(na)] (up, down, total) =   2.81113  2.81113  5.62226
   spin  1
    eigenvalues: 
  0.937  0.937  0.938
    eigenvectors:
  0.169  0.500  0.331
  0.661  0.000  0.339
  0.169  0.500  0.331
    occupations:
  0.937  0.000  0.000
  0.000  0.937  0.000
  0.000  0.000  0.937
   spin  2
    eigenvalues: 
  0.937  0.937  0.938
    eigenvectors:
  0.170  0.500  0.330
  0.661  0.000  0.339
  0.170  0.500  0.330
    occupations:
  0.937  0.000  0.000
  0.000  0.937  0.000
  0.000  0.000  0.937
atomic mag. moment =     0.000001
atom   15   Tr[ns(na)] (up, down, total) =   2.81113  2.81113  5.62226
   spin  1
    eigenvalues: 
  0.937  0.937  0.938
    eigenvectors:
  0.169  0.500  0.331
  0.169  0.500  0.331
  0.661  0.000  0.339
    occupations:
  0.937  0.000  0.000
  0.000  0.937  0.000
  0.000  0.000  0.937
   spin  2
    eigenvalues: 
  0.937  0.937  0.938
    eigenvectors:
  0.170  0.500  0.330
  0.170  0.500  0.330
  0.661  0.000  0.339
    occupations:
  0.937  0.000  0.000
  0.000  0.937  0.000
  0.000  0.000  0.937
atomic mag. moment =     0.000001
atom   16   Tr[ns(na)] (up, down, total) =   2.81107  2.81107  5.62214
   spin  1
    eigenvalues: 
  0.937  0.937  0.938
    eigenvectors:
  0.091  0.575  0.333
  0.256  0.411  0.333
  0.653  0.014  0.333
    occupations:
  0.937  0.000  0.000
  0.000  0.937  0.000
  0.000  0.000  0.937
   spin  2
    eigenvalues: 
  0.937  0.937  0.938
    eigenvectors:
  0.109  0.558  0.333
  0.232  0.434  0.333
  0.659  0.008  0.333
    occupations:
  0.937  0.000  0.000
  0.000  0.937  0.000
  0.000  0.000  0.937
atomic mag. moment =     0.000003
N of occupied +U levels = 114.6257746
 --- exit write_ns ---
 --- in v_hubbard ---
Hubbard energy   -0.0413
 -------

     total cpu time spent up to now is      224.8 secs

     total energy              =    -942.05743680 Ry
     Harris-Foulkes estimate   =    -942.05743687 Ry
     estimated scf accuracy    <       0.00000039 Ry

     total magnetization       =     0.00 Bohr mag/cell
     absolute magnetization    =    12.29 Bohr mag/cell

     iteration #  4     ecut=    30.00 Ry     beta=0.30
     Davidson diagonalization with overlap
     ethr =  3.05E-10,  avg # of iterations =  2.0
 --- enter write_ns ---
 LDA+U parameters:
U( 1)     =  0.00000000
alpha( 1) =  0.00000000
U( 2)     =  0.00000000
alpha( 2) =  0.00000000
U( 3)     =  0.00000000
alpha( 3) = -0.10000000
U( 4)     =  0.00000000
alpha( 4) =  0.00000000
atom    1   Tr[ns(na)] (up, down, total) =   4.95241  3.75291  8.70532
   spin  1
    eigenvalues: 
  0.980  0.980  0.997  0.997  0.997
    eigenvectors:
  0.750  0.250  0.000  0.000  0.000
  0.000  0.000  0.000  0.630  0.370
  0.000  0.000  0.500  0.185  0.315
  0.250  0.750  0.000  0.000  0.000
  0.000  0.000  0.500  0.185  0.315
    occupations:
  0.980  0.000  0.000  0.000  0.000
  0.000  0.997  0.000  0.000  0.000
  0.000  0.000  0.997  0.000  0.000
  0.000  0.000  0.000  0.980  0.000
  0.000  0.000  0.000  0.000  0.997
   spin  2
    eigenvalues: 
  0.383  0.384  0.995  0.995  0.995
    eigenvectors:
  0.250  0.750  0.000  0.000  0.000
  0.000  0.000  0.000  0.664  0.336
  0.000  0.000  0.500  0.168  0.332
  0.750  0.250  0.000  0.000  0.000
  0.000  0.000  0.500  0.168  0.332
    occupations:
  0.384 -0.001  0.001  0.000 -0.001
 -0.001  0.995  0.000 -0.001  0.000
  0.001  0.000  0.995 -0.001  0.000
  0.000 -0.001 -0.001  0.383  0.000
 -0.001  0.000  0.000  0.000  0.995
atomic mag. moment =     1.199497
atom    2   Tr[ns(na)] (up, down, total) =   4.95241  3.75291  8.70532
   spin  1
    eigenvalues: 
  0.980  0.980  0.997  0.997  0.997
    eigenvectors:
  0.750  0.250  0.000  0.000  0.000
  0.000  0.000  0.500  0.185  0.315
  0.000  0.000  0.000  0.630  0.370
  0.250  0.750  0.000  0.000  0.000
  0.000  0.000  0.500  0.185  0.315
    occupations:
  0.980  0.000  0.000  0.000  0.000
  0.000  0.997  0.000  0.000  0.000
  0.000  0.000  0.997  0.000  0.000
  0.000  0.000  0.000  0.980  0.000
  0.000  0.000  0.000  0.000  0.997
   spin  2
    eigenvalues: 
  0.383  0.384  0.995  0.995  0.995
    eigenvectors:
  0.250  0.750  0.000  0.000  0.000
  0.000  0.000  0.500  0.168  0.332
  0.000  0.000  0.000  0.664  0.336
  0.750  0.250  0.000  0.000  0.000
  0.000  0.000  0.500  0.168  0.332
    occupations:
  0.384 -0.001  0.001  0.000 -0.001
 -0.001  0.995  0.000 -0.001  0.000
  0.001  0.000  0.995 -0.001  0.000
  0.000 -0.001 -0.001  0.383  0.000
 -0.001  0.000  0.000  0.000  0.995
atomic mag. moment =     1.199497
atom    3   Tr[ns(na)] (up, down, total) =   4.95241  3.75291  8.70532
   spin  1
    eigenvalues: 
  0.980  0.980  0.997  0.997  0.997
    eigenvectors:
  0.000  1.000  0.000  0.000  0.000
  0.000  0.000  0.500  0.185  0.315
  0.000  0.000  0.500  0.185  0.315
  1.000  0.000  0.000  0.000  0.000
  0.000  0.000  0.000  0.630  0.370
    occupations:
  0.980  0.000  0.000  0.000  0.000
  0.000  0.997  0.000  0.000  0.000
  0.000  0.000  0.997  0.000  0.000
  0.000  0.000  0.000  0.980  0.000
  0.000  0.000  0.000  0.000  0.997
   spin  2
    eigenvalues: 
  0.383  0.384  0.995  0.995  0.995
    eigenvectors:
  1.000  0.000  0.000  0.000  0.000
  0.000  0.000  0.500  0.168  0.332
  0.000  0.000  0.500  0.168  0.332
  0.000  1.000  0.000  0.000  0.000
  0.000  0.000  0.000  0.664  0.336
    occupations:
  0.383 -0.001  0.001  0.000 -0.001
 -0.001  0.995  0.000 -0.001  0.000
  0.001  0.000  0.995 -0.001  0.000
  0.000 -0.001 -0.001  0.384  0.000
 -0.001  0.000  0.000  0.000  0.995
atomic mag. moment =     1.199497
atom    4   Tr[ns(na)] (up, down, total) =   4.95241  3.75363  8.70604
   spin  1
    eigenvalues: 
  0.980  0.980  0.997  0.997  0.997
    eigenvectors:
  0.021  0.979  0.000  0.000  0.000
  0.000  0.000  0.051  0.616  0.333
  0.000  0.000  0.628  0.039  0.333
  0.979  0.021  0.000  0.000  0.000
  0.000  0.000  0.321  0.345  0.333
    occupations:
  0.980  0.000  0.000  0.000  0.000
  0.000  0.997  0.000  0.000  0.000
  0.000  0.000  0.997  0.000  0.000
  0.000  0.000  0.000  0.980  0.000
  0.000  0.000  0.000  0.000  0.997
   spin  2
    eigenvalues: 
  0.384  0.384  0.995  0.995  0.995
    eigenvectors:
  0.082  0.918  0.000  0.000  0.000
  0.000  0.000  0.067  0.600  0.333
  0.000  0.000  0.640  0.027  0.333
  0.918  0.082  0.000  0.000  0.000
  0.000  0.000  0.294  0.373  0.333
    occupations:
  0.384 -0.001  0.001  0.000 -0.001
 -0.001  0.995  0.000 -0.001  0.000
  0.001  0.000  0.995 -0.001  0.000
  0.000 -0.001 -0.001  0.384  0.000
 -0.001  0.000  0.000  0.000  0.995
atomic mag. moment =     1.198780
atom    5   Tr[ns(na)] (up, down, total) =   3.75362  4.95241  8.70602
   spin  1
    eigenvalues: 
  0.384  0.384  0.995  0.995  0.995
    eigenvectors:
  0.016  0.984  0.000  0.000  0.000
  0.000  0.000  0.047  0.619  0.333
  0.000  0.000  0.625  0.042  0.333
  0.984  0.016  0.000  0.000  0.000
  0.000  0.000  0.328  0.338  0.333
    occupations:
  0.384 -0.001  0.001  0.000 -0.001
 -0.001  0.995  0.000 -0.001  0.000
  0.001  0.000  0.995 -0.001  0.000
  0.000 -0.001 -0.001  0.384  0.000
 -0.001  0.000  0.000  0.000  0.995
   spin  2
    eigenvalues: 
  0.980  0.980  0.997  0.997  0.997
    eigenvectors:
  0.022  0.978  0.000  0.000  0.000
  0.000  0.000  0.048  0.619  0.333
  0.000  0.000  0.625  0.042  0.333
  0.978  0.022  0.000  0.000  0.000
  0.000  0.000  0.327  0.339  0.333
    occupations:
  0.980  0.000  0.000  0.000  0.000
  0.000  0.997  0.000  0.000  0.000
  0.000  0.000  0.997  0.000  0.000
  0.000  0.000  0.000  0.980  0.000
  0.000  0.000  0.000  0.000  0.997
atomic mag. moment =    -1.198792
atom    6   Tr[ns(na)] (up, down, total) =   3.75293  4.95241  8.70534
   spin  1
    eigenvalues: 
  0.383  0.384  0.995  0.995  0.995
    eigenvectors:
  1.000  0.000  0.000  0.000  0.000
  0.000  0.000  0.500  0.168  0.332
  0.000  0.000  0.500  0.168  0.332
  0.000  1.000  0.000  0.000  0.000
  0.000  0.000  0.000  0.664  0.336
    occupations:
  0.383 -0.001  0.001  0.000 -0.001
 -0.001  0.995  0.000 -0.001  0.000
  0.001  0.000  0.995 -0.001  0.000
  0.000 -0.001 -0.001  0.384  0.000
 -0.001  0.000  0.000  0.000  0.995
   spin  2
    eigenvalues: 
  0.980  0.980  0.997  0.997  0.997
    eigenvectors:
  0.000  1.000  0.000  0.000  0.000
  0.000  0.000  0.500  0.184  0.316
  0.000  0.000  0.500  0.184  0.316
  1.000  0.000  0.000  0.000  0.000
  0.000  0.000  0.000  0.631  0.369
    occupations:
  0.980  0.000  0.000  0.000  0.000
  0.000  0.997  0.000  0.000  0.000
  0.000  0.000  0.997  0.000  0.000
  0.000  0.000  0.000  0.980  0.000
  0.000  0.000  0.000  0.000  0.997
atomic mag. moment =    -1.199485
atom    7   Tr[ns(na)] (up, down, total) =   3.75293  4.95241  8.70534
   spin  1
    eigenvalues: 
  0.383  0.384  0.995  0.995  0.995
    eigenvectors:
  0.250  0.750  0.000  0.000  0.000
  0.000  0.000  0.500  0.168  0.332
  0.000  0.000  0.000  0.664  0.336
  0.750  0.250  0.000  0.000  0.000
  0.000  0.000  0.500  0.168  0.332
    occupations:
  0.384 -0.001  0.001  0.000 -0.001
 -0.001  0.995  0.000 -0.001  0.000
  0.001  0.000  0.995 -0.001  0.000
  0.000 -0.001 -0.001  0.383  0.000
 -0.001  0.000  0.000  0.000  0.995
   spin  2
    eigenvalues: 
  0.980  0.980  0.997  0.997  0.997
    eigenvectors:
  0.750  0.250  0.000  0.000  0.000
  0.000  0.000  0.500  0.184  0.316
  0.000  0.000  0.000  0.631  0.369
  0.250  0.750  0.000  0.000  0.000
  0.000  0.000  0.500  0.184  0.316
    occupations:
  0.980  0.000  0.000  0.000  0.000
  0.000  0.997  0.000  0.000  0.000
  0.000  0.000  0.997  0.000  0.000
  0.000  0.000  0.000  0.980  0.000
  0.000  0.000  0.000  0.000  0.997
atomic mag. moment =    -1.199485
atom    8   Tr[ns(na)] (up, down, total) =   3.75293  4.95241  8.70534
   spin  1
    eigenvalues: 
  0.383  0.384  0.995  0.995  0.995
    eigenvectors:
  0.250  0.750  0.000  0.000  0.000
  0.000  0.000  0.000  0.664  0.336
  0.000  0.000  0.500  0.168  0.332
  0.750  0.250  0.000  0.000  0.000
  0.000  0.000  0.500  0.168  0.332
    occupations:
  0.384 -0.001  0.001  0.000 -0.001
 -0.001  0.995  0.000 -0.001  0.000
  0.001  0.000  0.995 -0.001  0.000
  0.000 -0.001 -0.001  0.383  0.000
 -0.001  0.000  0.000  0.000  0.995
   spin  2
    eigenvalues: 
  0.980  0.980  0.997  0.997  0.997
    eigenvectors:
  0.750  0.250  0.000  0.000  0.000
  0.000  0.000  0.000  0.631  0.369
  0.000  0.000  0.500  0.184  0.316
  0.250  0.750  0.000  0.000  0.000
  0.000  0.000  0.500  0.184  0.316
    occupations:
  0.980  0.000  0.000  0.000  0.000
  0.000  0.997  0.000  0.000  0.000
  0.000  0.000  0.997  0.000  0.000
  0.000  0.000  0.000  0.980  0.000
  0.000  0.000  0.000  0.000  0.997
atomic mag. moment =    -1.199485
atom    9   Tr[ns(na)] (up, down, total) =   2.81291  2.81291  5.62582
   spin  1
    eigenvalues: 
  0.937  0.937  0.939
    eigenvectors:
  0.142  0.524  0.333
  0.192  0.474  0.333
  0.665  0.001  0.333
    occupations:
  0.938  0.000  0.000
  0.000  0.938  0.000
  0.000  0.000  0.938
   spin  2
    eigenvalues: 
  0.937  0.937  0.939
    eigenvectors:
  0.096  0.571  0.333
  0.250  0.417  0.333
  0.655  0.012  0.333
    occupations:
  0.938  0.000  0.000
  0.000  0.938  0.000
  0.000  0.000  0.938
atomic mag. moment =    -0.000003
atom   10   Tr[ns(na)] (up, down, total) =   2.81112  2.81113  5.62225
   spin  1
    eigenvalues: 
  0.937  0.937  0.938
    eigenvectors:
  0.500  0.166  0.334
  0.500  0.166  0.334
  0.000  0.668  0.332
    occupations:
  0.937  0.000  0.000
  0.000  0.937  0.000
  0.000  0.000  0.937
   spin  2
    eigenvalues: 
  0.937  0.937  0.938
    eigenvectors:
  0.500  0.166  0.334
  0.500  0.166  0.334
  0.000  0.669  0.331
    occupations:
  0.937  0.000  0.000
  0.000  0.937  0.000
  0.000  0.000  0.937
atomic mag. moment =    -0.000001
atom   11   Tr[ns(na)] (up, down, total) =   2.81112  2.81113  5.62225
   spin  1
    eigenvalues: 
  0.937  0.937  0.938
    eigenvectors:
  0.500  0.166  0.334
  0.000  0.668  0.332
  0.500  0.166  0.334
    occupations:
  0.937  0.000  0.000
  0.000  0.937  0.000
[...]
    10.6558  10.6568  10.8656  10.8666  10.9590  10.9602  11.2398  11.2411
    11.2485  11.2499  11.2933  11.2946  11.3263  11.3273  11.4276  11.4298
    13.0352  13.0357  13.0418  13.0421  13.0502  13.0502  13.0603  13.0606
    16.4824  16.4846  19.6530  19.6531  19.7122

     occupation numbers 
     0.0469   0.0469   0.0469   0.0469   0.0469   0.0469   0.0469   0.0469
     0.0469   0.0469   0.0469   0.0469   0.0469   0.0469   0.0469   0.0469
     0.0469   0.0469   0.0469   0.0469   0.0469   0.0469   0.0469   0.0469
     0.0469   0.0469   0.0469   0.0469   0.0469   0.0469   0.0469   0.0469
     0.0469   0.0469   0.0469   0.0469   0.0469   0.0469   0.0469   0.0469
     0.0469   0.0469   0.0469   0.0469   0.0469   0.0469   0.0469   0.0469
     0.0469   0.0469   0.0469   0.0469   0.0469   0.0469   0.0469   0.0469
     0.0469   0.0469   0.0469   0.0469   0.0469   0.0469   0.0469   0.0469
     0.0000   0.0000   0.0000   0.0000   0.0000   0.0000   0.0000   0.0000
     0.0000   0.0000   0.0000   0.0000   0.0000

          k = 0.0000 0.5000 0.0000 (  2706 PWs)   bands (ev):

    -7.8473  -6.8050  -6.7532  -6.7531  -6.7527  -6.7352  -6.5665  -6.5564
     4.4711   4.4738   4.4801   4.4901   5.2193   5.5073   5.5074   6.5108
     6.5218   6.5405   6.5724   6.5859   6.6050   6.6172   6.6703   7.0512
     7.0515   7.1513   7.1639   7.4521   7.9604   7.9655   8.6420   8.6511
     8.9517   9.5300   9.6235   9.6235   9.8090   9.9747  10.0517  10.0521
    10.0911  10.1072  10.1806  10.2742  10.2742  10.3922  10.4056  10.5397
    10.5409  10.6088  10.6091  10.6541  10.9073  11.0039  11.0046  11.0456
    11.0518  11.1652  11.2379  11.2897  11.2904  11.3426  11.3435  11.3747
    12.8740  13.0350  13.0353  13.0386  13.5196  13.5629  13.6404  13.6409
    15.2141  18.5669  18.5681  18.5681  18.5703

     occupation numbers 
     0.0938   0.0938   0.0938   0.0938   0.0938   0.0938   0.0938   0.0938
     0.0938   0.0938   0.0938   0.0938   0.0938   0.0938   0.0938   0.0938
     0.0938   0.0938   0.0938   0.0938   0.0938   0.0938   0.0938   0.0938
     0.0938   0.0938   0.0938   0.0938   0.0938   0.0938   0.0938   0.0938
     0.0938   0.0938   0.0938   0.0938   0.0938   0.0938   0.0938   0.0938
     0.0938   0.0938   0.0938   0.0938   0.0938   0.0938   0.0938   0.0938
     0.0938   0.0938   0.0938   0.0938   0.0938   0.0938   0.0938   0.0938
     0.0938   0.0937   0.0937   0.0937   0.0937   0.0937   0.0937   0.0937
     0.0000   0.0000   0.0000   0.0000   0.0000   0.0000   0.0000   0.0000
     0.0000   0.0000   0.0000   0.0000   0.0000

          k = 0.7500-0.2500 0.7500 (  2734 PWs)   bands (ev):

    -7.4980  -7.1674  -6.9623  -6.7703  -6.7615  -6.5915  -6.5551  -6.5445
     4.9457   4.9515   4.9681   5.2927   5.4107   5.4852   5.5075   6.1604
     6.1986   6.2248   6.2547   6.5732   6.5857   6.7326   6.7395   6.8490
     6.8794   6.9120   6.9832   7.3466   7.3656   7.7107   7.7493   8.0051
     9.4516   9.6466   9.8174   9.8898   9.9509   9.9635  10.0318  10.1334
    10.1360  10.1636  10.2056  10.2829  10.3104  10.3170  10.4726  10.5063
    10.7269  10.7328  10.7369  10.7483  10.8727  10.9013  11.0351  11.0729
    11.1626  11.1902  11.2205  11.2523  11.3268  11.3308  11.3488  11.4052
    12.7347  12.7786  12.8304  12.9268  13.2313  13.2544  13.3601  13.4289
    16.6950  17.6028  18.6710  19.3631  19.3648

     occupation numbers 
     0.1875   0.1875   0.1875   0.1875   0.1875   0.1875   0.1875   0.1875
     0.1875   0.1875   0.1875   0.1875   0.1875   0.1875   0.1875   0.1875
     0.1875   0.1875   0.1875   0.1875   0.1875   0.1875   0.1875   0.1875
     0.1875   0.1875   0.1875   0.1875   0.1875   0.1875   0.1875   0.1875
     0.1875   0.1875   0.1875   0.1875   0.1875   0.1875   0.1875   0.1875
     0.1875   0.1875   0.1875   0.1875   0.1875   0.1875   0.1875   0.1875
     0.1875   0.1875   0.1875   0.1875   0.1875   0.1875   0.1875   0.1875
     0.1875   0.1875   0.1875   0.1875   0.1875   0.1875   0.1875   0.1875
     0.0000   0.0000   0.0000   0.0000   0.0000   0.0000   0.0000   0.0000
     0.0000   0.0000   0.0000   0.0000   0.0000

          k = 0.5000 0.0000 0.5000 (  2742 PWs)   bands (ev):

    -7.6359  -7.0163  -7.0080  -6.7194  -6.7113  -6.6018  -6.5931  -6.5398
     4.7547   4.7632   5.0516   5.0561   5.2448   5.2544   5.6872   5.9517
     6.2719   6.2936   6.5163   6.7081   6.7331   6.7376   6.8980   6.9087
     6.9202   7.1422   7.1551   7.1782   7.4349   7.4456   7.6218   8.1146
     9.6529   9.6541   9.7852   9.8446   9.9005   9.9014  10.0395  10.1069
    10.1283  10.2218  10.2241  10.2250  10.2250  10.3567  10.3573  10.5110
    10.7136  10.7457  10.7463  10.8223  10.8987  11.0905  11.0914  11.1097
    11.2040  11.2049  11.2273  11.2386  11.2734  11.3403  11.4003  11.4010
    13.0382  13.0425  13.0533  13.0536  13.1099  13.1474  13.1478  13.2795
    16.0082  18.0617  18.0622  19.3780  19.3788

     occupation numbers 
     0.0938   0.0938   0.0938   0.0938   0.0938   0.0938   0.0938   0.0938
     0.0938   0.0938   0.0938   0.0938   0.0938   0.0938   0.0938   0.0938
     0.0938   0.0938   0.0938   0.0938   0.0938   0.0938   0.0938   0.0938
     0.0938   0.0938   0.0938   0.0938   0.0938   0.0938   0.0938   0.0938
     0.0938   0.0938   0.0938   0.0938   0.0938   0.0938   0.0938   0.0938
     0.0938   0.0938   0.0938   0.0938   0.0938   0.0938   0.0938   0.0938
     0.0938   0.0938   0.0938   0.0938   0.0938   0.0938   0.0938   0.0938
     0.0937   0.0937   0.0937   0.0937   0.0937   0.0937   0.0937   0.0937
     0.0000   0.0000   0.0000   0.0000   0.0000   0.0000   0.0000   0.0000
     0.0000   0.0000   0.0000   0.0000   0.0000

          k = 0.0000-1.0000 0.0000 (  2762 PWs)   bands (ev):

    -7.3110  -7.3019  -6.8162  -6.8160  -6.8155  -6.7986  -6.5122  -6.5026
     4.9971   5.0036   5.0158   5.0234   5.7486   5.7652   6.0790   6.0849
     6.0966   6.1025   6.3852   6.3999   6.6363   6.6477   6.6683   6.6800
     6.6954   6.7198   6.7231   6.7261   8.1341   8.1451   8.1460   8.1570
     9.2455   9.2460   9.9451   9.9460  10.0257  10.0260  10.0413  10.0414
    10.0429  10.0452  10.1652  10.1654  10.3451  10.3454  10.4912  10.4923
    10.5131  10.5153  10.5771  10.5774  10.9078  10.9078  11.0002  11.0013
    11.1437  11.1442  11.2216  11.2228  11.3316  11.3325  11.3360  11.3366
    12.4583  12.4588  12.7162  12.7164  13.5133  13.5140  13.6134  13.6139
    17.6674  17.6677  19.2524  19.2527  19.2536

     occupation numbers 
     0.0469   0.0469   0.0469   0.0469   0.0469   0.0469   0.0469   0.0469
     0.0469   0.0469   0.0469   0.0469   0.0469   0.0469   0.0469   0.0469
     0.0469   0.0469   0.0469   0.0469   0.0469   0.0469   0.0469   0.0469
     0.0469   0.0469   0.0469   0.0469   0.0469   0.0469   0.0469   0.0469
     0.0469   0.0469   0.0469   0.0469   0.0469   0.0469   0.0469   0.0469
     0.0469   0.0469   0.0469   0.0469   0.0469   0.0469   0.0469   0.0469
     0.0469   0.0469   0.0469   0.0469   0.0469   0.0469   0.0469   0.0469
     0.0469   0.0469   0.0469   0.0469   0.0469   0.0469   0.0469   0.0469
     0.0000   0.0000   0.0000   0.0000   0.0000   0.0000   0.0000   0.0000
     0.0000   0.0000   0.0000   0.0000   0.0000

          k =-0.5000-1.0000 0.0000 (  2740 PWs)   bands (ev):

    -7.1520  -7.1515  -7.1512  -7.1332  -6.5796  -6.5771  -6.5743  -6.5569
     5.2582   5.2711   5.2745   5.3165   5.3679   5.5297   5.5307   5.6415
     6.2104   6.2399   6.2448   6.2761   6.6085   6.6117   6.6235   6.7512
     6.8917   7.2540   7.2626   7.4516   7.4684   7.4962   7.4966   7.5483
     9.7071   9.7340   9.7344   9.8018   9.9819  10.0320  10.0334  10.0651
    10.1133  10.2670  10.2833  10.2844  10.3399  10.3406  10.3942  10.4596
    10.6105  10.6580  10.6585  10.6851  10.9427  10.9436  10.9642  10.9858
    11.1689  11.1803  11.1815  11.2752  11.2906  11.2946  11.3611  11.3616
    12.7705  12.8852  12.8854  12.9989  13.1504  13.1945  13.1951  13.2397
    18.0180  18.0360  18.0380  18.0574  20.8593

     occupation numbers 
     0.0938   0.0938   0.0938   0.0938   0.0938   0.0938   0.0938   0.0938
     0.0938   0.0938   0.0938   0.0938   0.0938   0.0938   0.0938   0.0938
     0.0938   0.0938   0.0938   0.0938   0.0938   0.0938   0.0938   0.0938
     0.0938   0.0938   0.0938   0.0938   0.0938   0.0938   0.0938   0.0938
     0.0938   0.0938   0.0938   0.0938   0.0938   0.0938   0.0938   0.0938
     0.0938   0.0938   0.0938   0.0938   0.0938   0.0938   0.0938   0.0938
     0.0938   0.0938   0.0938   0.0938   0.0938   0.0938   0.0938   0.0938
     0.0937   0.0937   0.0937   0.0937   0.0937   0.0937   0.0937   0.0937
     0.0000   0.0000   0.0000   0.0000   0.0000   0.0000   0.0000   0.0000
     0.0000   0.0000   0.0000   0.0000   0.0000

          k =-0.2500 0.2500 0.2500 (  2743 PWs)   bands (ev):

    -7.9006  -6.9242  -6.6829  -6.6829  -6.6736  -6.6324  -6.6324  -6.6149
     4.3286   4.3286   4.3415   4.5966   5.3285   5.3285   5.3331   6.4583
     6.4744   6.4744   6.6095   6.6095   6.6187   6.6881   6.6881   7.1934
     7.2077   7.2077   7.6923   7.6923   7.7028   7.9643   8.4442   8.4442
     9.2578   9.2585   9.2585   9.6146   9.6146   9.9979  10.0613  10.0613
    10.0613  10.2719  10.2727  10.2727  10.5990  10.5990  10.5994  10.6178
    10.6178  10.7190  10.7190  10.7201  10.9104  10.9104  10.9355  10.9374
    10.9374  11.0297  11.2530  11.2535  11.2535  11.3905  11.3905  11.3912
    13.3305  13.3305  13.3469  13.3469  13.3469  13.3545  13.3546  13.3546
    14.7678  17.5960  18.6753  18.6753  18.6774

     occupation numbers 
     0.0313   0.0313   0.0313   0.0313   0.0313   0.0313   0.0313   0.0313
     0.0313   0.0313   0.0313   0.0313   0.0313   0.0313   0.0313   0.0313
     0.0313   0.0313   0.0313   0.0313   0.0313   0.0313   0.0313   0.0313
     0.0313   0.0313   0.0313   0.0313   0.0313   0.0313   0.0313   0.0313
     0.0313   0.0313   0.0313   0.0313   0.0313   0.0313   0.0313   0.0313
     0.0313   0.0313   0.0313   0.0313   0.0313   0.0313   0.0313   0.0313
     0.0313   0.0313   0.0313   0.0313   0.0313   0.0313   0.0313   0.0313
     0.0313   0.0313   0.0312   0.0312   0.0312   0.0312   0.0312   0.0312
     0.0000   0.0000   0.0000   0.0000   0.0000   0.0000   0.0000   0.0000
     0.0000   0.0000   0.0000   0.0000   0.0000

          k = 0.5000-0.5000-0.5000 (  2764 PWs)   bands (ev):

    -7.4501  -7.4366  -6.6714  -6.6714  -6.6660  -6.6511  -6.6511  -6.6299
     4.9909   4.9909   5.0082   5.0959   5.0959   5.1096   6.0643   6.1077
     6.2375   6.2571   6.2571   6.6665   6.6878   6.6878   6.7380   6.7380
     6.7468   6.9718   6.9718   7.4340   7.4340   7.4441   7.8551   7.8551
     9.4874   9.4874   9.4875   9.6705   9.6705  10.1127  10.1171  10.1174
    10.1174  10.4457  10.4462  10.4462  10.5032  10.5032  10.5035  10.7234
    10.7234  10.8365  10.8397  10.8397  10.8677  11.0512  11.0512  11.0533
    11.2412  11.2418  11.2418  11.2952  11.2952  11.3983  11.3983  11.3990
    13.0366  13.0368  13.0368  13.0531  13.0531  13.0683  13.0683  13.0687
    16.4105  16.5606  19.6314  19.6314  19.6314

     occupation numbers 
     0.0156   0.0156   0.0156   0.0156   0.0156   0.0156   0.0156   0.0156
     0.0156   0.0156   0.0156   0.0156   0.0156   0.0156   0.0156   0.0156
     0.0156   0.0156   0.0156   0.0156   0.0156   0.0156   0.0156   0.0156
     0.0156   0.0156   0.0156   0.0156   0.0156   0.0156   0.0156   0.0156
     0.0156   0.0156   0.0156   0.0156   0.0156   0.0156   0.0156   0.0156
     0.0156   0.0156   0.0156   0.0156   0.0156   0.0156   0.0156   0.0156
     0.0156   0.0156   0.0156   0.0156   0.0156   0.0156   0.0156   0.0156
     0.0156   0.0156   0.0156   0.0156   0.0156   0.0156   0.0156   0.0156
     0.0000   0.0000   0.0000   0.0000   0.0000   0.0000   0.0000   0.0000
     0.0000   0.0000   0.0000   0.0000   0.0000

          k = 0.2500 0.7500 0.7500 (  2734 PWs)   bands (ev):

    -7.4980  -7.1674  -6.9624  -6.7702  -6.7615  -6.5916  -6.5551  -6.5445
     4.9519   4.9543   4.9693   5.2308   5.4842   5.4873   5.4959   6.1097
     6.2101   6.2254   6.3337   6.5523   6.5628   6.6510   6.8058   6.8137
     6.8211   7.0274   7.0351   7.1467   7.4938   7.7361   7.7618   7.9903
     9.3771   9.5529   9.9394   9.9394  10.0163  10.0171  10.0386  10.0400
    10.0522  10.1733  10.2095  10.2096  10.3938  10.4383  10.4927  10.4943
    10.6545  10.6922  10.6931  10.7072  10.8916  10.9443  11.0910  11.0918
    11.2114  11.2125  11.2279  11.2653  11.2724  11.2744  11.3438  11.3446
    12.7370  12.7959  12.8780  12.8783  13.2507  13.3384  13.3388  13.3501
    16.6945  17.6039  18.6728  19.3614  19.3616

     occupation numbers 
     0.0938   0.0938   0.0938   0.0938   0.0938   0.0938   0.0938   0.0938
     0.0938   0.0938   0.0938   0.0938   0.0938   0.0938   0.0938   0.0938
     0.0938   0.0938   0.0938   0.0938   0.0938   0.0938   0.0938   0.0938
     0.0938   0.0938   0.0938   0.0938   0.0938   0.0938   0.0938   0.0938
     0.0938   0.0938   0.0938   0.0938   0.0938   0.0938   0.0938   0.0938
     0.0938   0.0938   0.0938   0.0938   0.0938   0.0938   0.0938   0.0938
     0.0938   0.0938   0.0938   0.0938   0.0938   0.0938   0.0938   0.0938
     0.0937   0.0937   0.0937   0.0937   0.0937   0.0937   0.0937   0.0937
     0.0000   0.0000   0.0000   0.0000   0.0000   0.0000   0.0000   0.0000
     0.0000   0.0000   0.0000   0.0000   0.0000

          k = 0.7500-0.2500-0.7500 (  2734 PWs)   bands (ev):

    -7.4981  -7.1675  -6.9624  -6.7704  -6.7616  -6.5913  -6.5549  -6.5443
     4.9483   4.9512   4.9682   5.2708   5.4252   5.4827   5.4893   6.1983
     6.2178   6.2233   6.2542   6.6423   6.6531   6.6603   6.6806   6.6938
     6.8197   7.0658   7.0740   7.2599   7.3704   7.7442   7.7510   8.0415
     9.3495   9.5398   9.7561   9.7562   9.7803  10.0555  10.0916  10.0917
    10.2821  10.2834  10.4163  10.4168  10.4374  10.5493  10.5498  10.5552
    10.5654  10.6453  10.6456  10.6471  10.8376  10.8754  10.8766  10.9558
    11.0662  11.2381  11.2703  11.2971  11.2973  11.3561  11.3566  11.4188
    12.6899  12.8359  12.8808  12.8811  13.2771  13.3315  13.3392  13.3395
    16.6943  17.6054  18.6705  19.3605  19.3607

     occupation numbers 
     0.0938   0.0938   0.0938   0.0938   0.0938   0.0938   0.0938   0.0938
     0.0938   0.0938   0.0938   0.0938   0.0938   0.0938   0.0938   0.0938
     0.0938   0.0938   0.0938   0.0938   0.0938   0.0938   0.0938   0.0938
     0.0938   0.0938   0.0938   0.0938   0.0938   0.0938   0.0938   0.0938
     0.0938   0.0938   0.0938   0.0938   0.0938   0.0938   0.0938   0.0938
     0.0938   0.0938   0.0938   0.0938   0.0938   0.0938   0.0938   0.0938
     0.0938   0.0938   0.0938   0.0938   0.0938   0.0938   0.0938   0.0938
     0.0938   0.0937   0.0937   0.0937   0.0937   0.0937   0.0937   0.0937
     0.0000   0.0000   0.0000   0.0000   0.0000   0.0000   0.0000   0.0000
     0.0000   0.0000   0.0000   0.0000   0.0000

          k = 0.0000 0.5000 0.5000 (  2742 PWs)   bands (ev):

    -7.6360  -7.0164  -7.0081  -6.7198  -6.7116  -6.6012  -6.5926  -6.5398
     4.7534   4.7603   5.0619   5.0688   5.2237   5.2336   5.6889   5.9545
     6.2974   6.3106   6.5751   6.6643   6.6681   6.7802   6.8472   6.9128
     7.0046   7.1445   7.1576   7.1909   7.1974   7.4761   7.8236   8.1125
     9.5527   9.6044   9.6321   9.6331   9.7704  10.0700  10.0702  10.1267
    10.2381  10.2392  10.3012  10.3817  10.4431  10.5540  10.5555  10.5565
    10.6280  10.6596  10.6608  10.7391  10.7600  10.8161  11.0444  11.0458
    11.1008  11.2665  11.2666  11.3357  11.3656  11.3660  11.3809  11.4014
    13.0410  13.0429  13.0509  13.0509  13.0601  13.2025  13.2028  13.2322
    16.0095  18.0611  18.0630  19.3734  19.3742

     occupation numbers 
     0.0938   0.0938   0.0938   0.0938   0.0938   0.0938   0.0938   0.0938
     0.0938   0.0938   0.0938   0.0938   0.0938   0.0938   0.0938   0.0938
     0.0938   0.0938   0.0938   0.0938   0.0938   0.0938   0.0938   0.0938
     0.0938   0.0938   0.0938   0.0938   0.0938   0.0938   0.0938   0.0938
     0.0938   0.0938   0.0938   0.0938   0.0938   0.0938   0.0938   0.0938
     0.0938   0.0938   0.0938   0.0938   0.0938   0.0938   0.0938   0.0938
     0.0938   0.0938   0.0938   0.0938   0.0938   0.0938   0.0938   0.0938
     0.0938   0.0937   0.0937   0.0937   0.0937   0.0937   0.0937   0.0937
     0.0000   0.0000   0.0000   0.0000   0.0000   0.0000   0.0000   0.0000
     0.0000   0.0000   0.0000   0.0000   0.0000

     the Fermi energy is    11.9533 ev

!    total energy              =    -942.05743686 Ry
     Harris-Foulkes estimate   =    -942.05743686 Ry
     estimated scf accuracy    <          2.9E-09 Ry

     The total energy is the sum of the following terms:

     one-electron contribution =     -56.32840214 Ry
     hartree contribution      =     175.71173660 Ry
     xc contribution           =    -297.54201669 Ry
     ewald contribution        =    -763.85740583 Ry
     Hubbard energy            =      -0.04134880 Ry
     smearing contrib. (-TS)   =       0.00000000 Ry

     total magnetization       =     0.00 Bohr mag/cell
     absolute magnetization    =    12.29 Bohr mag/cell

     convergence has been achieved in   7 iterations

     init_run     :     10.46s CPU     10.63s WALL (       1 calls)
     electrons    :    383.91s CPU    388.48s WALL (       1 calls)

     Called by init_run:
     wfcinit      :      0.00s CPU      0.00s WALL (       1 calls)
     potinit      :      0.99s CPU      1.02s WALL (       1 calls)

     Called by electrons:
     c_bands      :    288.45s CPU    289.63s WALL (       7 calls)
     sum_band     :     62.72s CPU     63.22s WALL (       7 calls)
     v_of_rho     :      7.78s CPU      7.80s WALL (       8 calls)
     v_h          :      0.16s CPU      0.16s WALL (       8 calls)
     v_xc         :      7.62s CPU      7.64s WALL (       8 calls)
     newd         :     27.53s CPU     27.63s WALL (       8 calls)
     mix_rho      :      0.46s CPU      0.46s WALL (       7 calls)

     Called by c_bands:
     init_us_2    :      2.09s CPU      2.10s WALL (     364 calls)
     cegterg      :    280.53s CPU    281.26s WALL (     182 calls)

     Called by sum_band:
     sum_band:bec :      0.43s CPU      0.43s WALL (     182 calls)
     addusdens    :     23.77s CPU     23.78s WALL (       7 calls)

     Called by *egterg:
     h_psi        :    179.04s CPU    179.67s WALL (     789 calls)
     s_psi        :     18.00s CPU     18.00s WALL (     789 calls)
     g_psi        :      0.90s CPU      0.89s WALL (     607 calls)
     cdiaghg      :     31.17s CPU     31.19s WALL (     763 calls)
     cegterg:over :     18.93s CPU     18.96s WALL (     607 calls)
     cegterg:upda :     13.23s CPU     13.23s WALL (     607 calls)
     cegterg:last :      8.93s CPU      8.93s WALL (     208 calls)

     Called by h_psi:
     h_psi:vloc   :    124.32s CPU    124.89s WALL (     789 calls)
     h_psi:vnl    :     36.47s CPU     36.48s WALL (     789 calls)
     add_vuspsi   :     18.02s CPU     18.03s WALL (     789 calls)
     vhpsi        :     17.69s CPU     17.74s WALL (     789 calls)

     General routines
     calbec       :     34.48s CPU     34.49s WALL (    1942 calls)
     fft          :      4.11s CPU      4.14s WALL (     236 calls)
     ffts         :      0.08s CPU      0.08s WALL (      30 calls)
     fftw         :    122.48s CPU    123.02s WALL (   85512 calls)
     interpolate  :      0.62s CPU      0.62s WALL (      30 calls)
     davcio       :      0.00s CPU      0.78s WALL (     390 calls)

     Parallel routines
     fft_scatter  :     37.36s CPU     37.78s WALL (   85778 calls)
     Hubbard U routines
     new_ns       :      2.76s CPU      3.08s WALL (       7 calls)
     vhpsi        :     17.69s CPU     17.74s WALL (     789 calls)

     PWSCF        :  6m35.08s CPU     6m39.84s WALL


   This run was terminated on:  12:26:46  13Nov2012            

=------------------------------------------------------------------------------=
