   JOB DONE.
=------------------------------------------------------------------------------=

     Program PWSCF v.5.0.1 starts on 13Nov2012 at  5:23:27 

     This program is part of the open-source Quantum ESPRESSO suite
     for quantum simulation of materials; please cite
         "P. Giannozzi et al., J. Phys.:Condens. Matter 21 395502 (2009);
          URL http://www.quantum-espresso.org", 
     in publications or presentations arising from this work. More details at
     http://www.quantum-espresso.org/quote.php

     Parallel version (MPI), running on     2 processors
     R & G space division:  proc/pool =    2

     Current dimensions of program PWSCF are:
     Max number of different atomic species (ntypx) = 10
     Max number of k-points (npk) =  40000
     Max angular momentum in pseudopotentials (lmaxx) =  3
     Reading input from CoLaO_U600_a-15.in
               file Co.pbe-nd-rrkjus.UPF: wavefunction(s)  4S 3D renormalized
               file Co.pbe-nd-rrkjus.UPF: wavefunction(s)  4S 3D renormalized
               file O.pbe-rrkjus.UPF: wavefunction(s)  2S renormalized

     Subspace diagonalization in iterative solution of the eigenvalue problem:
     a serial algorithm will be used


     Parallelization info
     --------------------
     sticks:   dense  smooth     PW     G-vecs:    dense   smooth      PW
     Min        1112     444    131                34808     8786    1448
     Max        1113     445    132                34809     8787    1449
     Sum        2225     889    263                69617    17573    2897


     Title: 
     GGA + U, U = 6.000, alpha = -0.150                                         


     bravais-lattice index     =            5
     lattice parameter (alat)  =      10.3292  a.u.
     unit-cell volume          =     793.0599 (a.u.)^3
     number of atoms/cell      =           10
     number of atomic types    =            4
     number of electrons       =        76.00
     number of Kohn-Sham states=           46
     kinetic-energy cutoff     =      30.0000  Ry
     charge density cutoff     =     300.0000  Ry
     convergence threshold     =      1.0E-08
     mixing beta               =       0.2000
     number of iterations used =            8  plain     mixing
     Exchange-correlation      =  SLA  PW   PBE  PBE ( 1 4 3 4 0)
     EXX-fraction              =        0.00

     celldm(1)=  10.329242  celldm(2)=   0.000000  celldm(3)=   0.000000
     celldm(4)=   0.488100  celldm(5)=   0.000000  celldm(6)=   0.000000

     crystal axes: (cart. coord. in units of alat)
               a(1) = (   0.505915  -0.292090   0.811624 )  
               a(2) = (   0.000000   0.584180   0.811624 )  
               a(3) = (  -0.505915  -0.292090   0.811624 )  

     reciprocal axes: (cart. coord. in units 2 pi/alat)
               b(1) = (  0.988308 -0.570600  0.410699 )  
               b(2) = (  0.000000  1.141200  0.410699 )  
               b(3) = ( -0.988308 -0.570600  0.410699 )  


     PseudoPot. # 1 for Co read from file:
     /home/mcurnan/dft-course/Project1/example_LaCoO3/Co.pbe-nd-rrkjus.UPF
     MD5 check sum: 3e47a84addf5e975e0edeaeee2a73f59
     Pseudo is Ultrasoft + core correction, Zval =  9.0
     Generated by new atomic code, or converted to UPF format
     Using radial grid of  961 points,  6 beta functions with: 
                l(1) =   0
                l(2) =   0
                l(3) =   1
                l(4) =   1
                l(5) =   2
                l(6) =   2
     Q(r) pseudized with 0 coefficients 


     PseudoPot. # 2 for Co read from file:
     /home/mcurnan/dft-course/Project1/example_LaCoO3/Co.pbe-nd-rrkjus.UPF
     MD5 check sum: 3e47a84addf5e975e0edeaeee2a73f59
     Pseudo is Ultrasoft + core correction, Zval =  9.0
     Generated by new atomic code, or converted to UPF format
     Using radial grid of  961 points,  6 beta functions with: 
                l(1) =   0
                l(2) =   0
                l(3) =   1
                l(4) =   1
                l(5) =   2
                l(6) =   2
     Q(r) pseudized with 0 coefficients 


     PseudoPot. # 3 for La read from file:
     /home/mcurnan/dft-course/Project1/example_LaCoO3/La.pbe-nsp-van.UPF
     MD5 check sum: b2f11743f52dde65f77d1302becd7929
     Pseudo is Ultrasoft + core correction, Zval = 11.0
     Generated by new atomic code, or converted to UPF format
     Using radial grid of  907 points,  6 beta functions with: 
                l(1) =   0
                l(2) =   0
                l(3) =   1
                l(4) =   1
                l(5) =   2
                l(6) =   2
     Q(r) pseudized with  6 coefficients,  rinner =    1.200   1.200   1.200
                                                       1.200   1.200

     PseudoPot. # 4 for O  read from file:
     /home/mcurnan/dft-course/Project1/example_LaCoO3/O.pbe-rrkjus.UPF
     MD5 check sum: 390ba29e75625707450f3bd3f0eb6be9
     Pseudo is Ultrasoft, Zval =  6.0
     Generated by new atomic code, or converted to UPF format
     Using radial grid of 1269 points,  4 beta functions with: 
                l(1) =   0
                l(2) =   0
                l(3) =   1
                l(4) =   1
     Q(r) pseudized with 0 coefficients 


     atomic species   valence    mass     pseudopotential
        Co1            9.00     1.00000     Co( 1.00)
        Co2            9.00     1.00000     Co( 1.00)
        La1           11.00     1.00000     La( 1.00)
        O1             6.00     1.00000     O ( 1.00)
 -----
     simplified LDA+U calculation, Hubbard_lmax = 2
     atomic species  L   Hubbard U  Hubbard alpha
        Co1          2    6.000000   -0.150000
        Co2          2    6.000000    0.000000
        La1          2    0.000000    0.000000
        O1           1    0.000000    0.000000
 -----

      6 Sym. Ops., with inversion, found


                                    s                        frac. trans.

      isym =  1     identity                                     

 cryst.   s( 1) = (     1          0          0      )
                  (     0          1          0      )
                  (     0          0          1      )

 cart.    s( 1) = (  1.0000000  0.0000000  0.0000000 )
                  (  0.0000000  1.0000000  0.0000000 )
                  (  0.0000000  0.0000000  1.0000000 )


      isym =  2     120 deg rotation - cryst. axis [0,0,1]       

 cryst.   s( 2) = (     0          1          0      )
                  (     0          0          1      )
                  (     1          0          0      )

 cart.    s( 2) = ( -0.5000000 -0.8660254  0.0000000 )
                  (  0.8660254 -0.5000000  0.0000000 )
                  (  0.0000000  0.0000000  1.0000000 )


      isym =  3     120 deg rotation - cryst. axis [0,0,-1]      

 cryst.   s( 3) = (     0          0          1      )
                  (     1          0          0      )
                  (     0          1          0      )

 cart.    s( 3) = ( -0.5000000  0.8660254  0.0000000 )
                  ( -0.8660254 -0.5000000  0.0000000 )
                  (  0.0000000  0.0000000  1.0000000 )


      isym =  4     inversion                                    

 cryst.   s( 4) = (    -1          0          0      )
                  (     0         -1          0      )
                  (     0          0         -1      )

 cart.    s( 4) = ( -1.0000000  0.0000000  0.0000000 )
                  (  0.0000000 -1.0000000  0.0000000 )
                  (  0.0000000  0.0000000 -1.0000000 )


      isym =  5     inv. 180 deg rotation - cart. axis [0,1,0]   

 cryst.   s( 5) = (     0         -1          0      )
                  (     0          0         -1      )
                  (    -1          0          0      )

 cart.    s( 5) = (  0.5000000  0.8660254  0.0000000 )
                  ( -0.8660254  0.5000000  0.0000000 )
                  (  0.0000000  0.0000000 -1.0000000 )


      isym =  6     inv. 180 deg rotation - cart. axis [1,0,0]   

 cryst.   s( 6) = (     0          0         -1      )
                  (    -1          0          0      )
                  (     0         -1          0      )

 cart.    s( 6) = (  0.5000000 -0.8660254  0.0000000 )
                  (  0.8660254  0.5000000  0.0000000 )
                  (  0.0000000  0.0000000 -1.0000000 )


     point group S_6 (-3)   
     there are  6 classes
     the character table:

       E     C3    C3^2  i     S6^5  S6   
A_g    1.00  1.00  1.00  1.00  1.00  1.00
E_g    1.00 -0.50 -0.50  1.00 -0.50 -0.50
E_g*   1.00 -0.50 -0.50  1.00 -0.50 -0.50
A_u    1.00  1.00  1.00 -1.00 -1.00 -1.00
E_u    1.00 -0.50 -0.50 -1.00  0.50  0.50
E_u*   1.00 -0.50 -0.50 -1.00  0.50  0.50
     imaginary part
A_g    0.00  0.00  0.00  0.00  0.00  0.00
E_g    0.00  0.87 -0.87  0.00  0.87 -0.87
E_g*   0.00 -0.87  0.87  0.00 -0.87  0.87
A_u    0.00  0.00  0.00  0.00  0.00  0.00
E_u    0.00  0.87 -0.87  0.00 -0.87  0.87
E_u*   0.00 -0.87  0.87  0.00  0.87 -0.87

     the symmetry operations in each class:
     E        1
     C3       2
     C3^2     3
     i        4
     S6^5     5
     S6       6

   Cartesian axes

     site n.     atom                  positions (alat units)
         1           Co1 tau(   1) = (   0.0000000   0.0000000   0.0000000  )
         2           Co2 tau(   2) = (   0.0000000   0.0000000   1.2174358  )
         3           La1 tau(   3) = (   0.0000000   0.0000000   0.6087179  )
         4           La1 tau(   4) = (   0.0000000   0.0000000   1.8261537  )
         5           O1  tau(   5) = (  -0.2839701  -0.0933228   1.0141240  )
         6           O1  tau(   6) = (   0.0611651   0.2925867   1.0141240  )
         7           O1  tau(   7) = (   0.2228050  -0.1992639   1.0141240  )
         8           O1  tau(   8) = (  -0.0611651  -0.2925867   1.4207476  )
         9           O1  tau(   9) = (   0.2839701   0.0933228   1.4207476  )
        10           O1  tau(  10) = (  -0.2228050   0.1992639   1.4207476  )

   Crystallographic axes

     site n.     atom                  positions (cryst. coord.)
         1           Co1 tau(   1) = (  0.0000000  0.0000000  0.0000000  )
         2           Co2 tau(   2) = (  0.5000000  0.5000000  0.5000000  )
         3           La1 tau(   3) = (  0.2500000  0.2500000  0.2500000  )
         4           La1 tau(   4) = (  0.7500000  0.7500000  0.7500000  )
         5           O1  tau(   5) = (  0.1891000  0.3100000  0.7504000  )
         6           O1  tau(   6) = (  0.3100000  0.7504000  0.1891000  )
         7           O1  tau(   7) = (  0.7504000  0.1891000  0.3100000  )
         8           O1  tau(   8) = (  0.6900000  0.2496000  0.8109000  )
         9           O1  tau(   9) = (  0.8109000  0.6900000  0.2496000  )
        10           O1  tau(  10) = (  0.2496000  0.8109000  0.6900000  )

     number of k points=    14  gaussian smearing, width (Ry)=  0.0300
                       cart. coord. in units 2pi/alat
        k(    1) = (   0.0000000   0.0000000   0.0000000), wk =   0.0312500
        k(    2) = (  -0.2470771  -0.1426500   0.1026748), wk =   0.1875000
        k(    3) = (   0.4941541   0.2853000  -0.2053496), wk =   0.0937500
        k(    4) = (  -0.2470771   0.1426500   0.2053496), wk =   0.1875000
        k(    5) = (   0.4941541   0.5706001  -0.1026748), wk =   0.1875000
        k(    6) = (   0.2470771   0.4279500   0.0000000), wk =   0.1875000
        k(    7) = (   0.4941541  -0.2853000  -0.4106993), wk =   0.0937500
        k(    8) = (   0.0000000   0.0000000   0.3080244), wk =   0.0625000
        k(    9) = (   0.7412312   0.4279500   0.0000000), wk =   0.1875000
        k(   10) = (   0.4941541   0.2853000   0.1026748), wk =   0.1875000
        k(   11) = (   0.7412312  -0.4279500  -0.3080244), wk =   0.1875000
        k(   12) = (   0.4941541  -0.5706001  -0.2053496), wk =   0.1875000
        k(   13) = (   0.0000000   0.0000000  -0.6160489), wk =   0.0312500
        k(   14) = (   0.4941541  -0.5706001   0.1026748), wk =   0.1875000

                       cryst. coord.
        k(    1) = (   0.0000000   0.0000000   0.0000000), wk =   0.0312500
        k(    2) = (   0.0000000   0.0000000   0.2500000), wk =   0.1875000
        k(    3) = (   0.0000000   0.0000000  -0.5000000), wk =   0.0937500
        k(    4) = (   0.0000000   0.2500000   0.2500000), wk =   0.1875000
        k(    5) = (   0.0000000   0.2500000  -0.5000000), wk =   0.1875000
        k(    6) = (   0.0000000   0.2500000  -0.2500000), wk =   0.1875000
        k(    7) = (   0.0000000  -0.5000000  -0.5000000), wk =   0.0937500
        k(    8) = (   0.2500000   0.2500000   0.2500000), wk =   0.0625000
        k(    9) = (   0.2500000   0.2500000  -0.5000000), wk =   0.1875000
        k(   10) = (   0.2500000   0.2500000  -0.2500000), wk =   0.1875000
        k(   11) = (   0.2500000  -0.5000000  -0.5000000), wk =   0.1875000
        k(   12) = (   0.2500000  -0.5000000  -0.2500000), wk =   0.1875000
        k(   13) = (  -0.5000000  -0.5000000  -0.5000000), wk =   0.0312500
        k(   14) = (   0.5000000  -0.2500000   0.0000000), wk =   0.1875000

     Dense  grid:    69617 G-vectors     FFT dimensions: (  60,  60,  60)

     Smooth grid:    17573 G-vectors     FFT dimensions: (  40,  40,  40)

     Largest allocated arrays     est. size (Mb)     dimensions
        Kohn-Sham Wavefunctions         0.78 Mb     (   1117,   46)
        Atomic wavefunctions            1.06 Mb     (   1117,   62)
        NL pseudopotentials             2.05 Mb     (   1117,  120)
        Each V/rho on FFT grid          1.65 Mb     ( 108000)
        Each G-vector array             0.27 Mb     (  34808)
        G-vector shells                 0.04 Mb     (   4682)
     Largest temporary arrays     est. size (Mb)     dimensions
        Auxiliary wavefunctions         3.14 Mb     (   1117,  184)
        Each subspace H/S matrix        0.52 Mb     ( 184, 184)
        Each <psi_i|beta_j> matrix      0.08 Mb     (    120,   46)
        Arrays for rho mixing          13.18 Mb     ( 108000,   8)

     Check: negative/imaginary core charge=   -0.000028    0.000000

     The initial density is read from file :
     /home/mcurnan/dft-course/Project1/example_LaCoO3/600/Co/alpha/CoLaO_U600.save/charge-density.dat

 --- in v_hubbard ---
Hubbard energy    0.4857
 -------
     Number of +U iterations with fixed ns =  0
     Starting occupations:
 --- enter write_ns ---
 LDA+U parameters:
U( 1)     =  6.00000000
alpha( 1) = -0.15000000
U( 2)     =  6.00000000
alpha( 2) =  0.00000000
U( 3)     =  0.00000000
alpha( 3) =  0.00000000
U( 4)     =  0.00000000
alpha( 4) =  0.00000000
atom    1   Tr[ns(na)] =   8.02206
    eigenvalues: 
  0.596  0.596  0.938  0.941  0.941
    eigenvectors:
  0.000  0.000  1.000  0.000  0.000
  0.333  0.322  0.000  0.004  0.341
  0.322  0.333  0.000  0.341  0.004
  0.289  0.056  0.000  0.515  0.140
  0.056  0.289  0.000  0.140  0.515
    occupations:
  0.938  0.000  0.000  0.000  0.000
  0.000  0.715  0.000 -0.060  0.152
  0.000  0.000  0.715  0.152  0.060
  0.000 -0.060  0.152  0.822  0.000
  0.000  0.152  0.060  0.000  0.822
atom    2   Tr[ns(na)] =   8.02145
    eigenvalues: 
  0.595  0.595  0.938  0.941  0.941
    eigenvectors:
  0.000  0.000  1.000  0.000  0.000
  0.640  0.015  0.000  0.223  0.122
  0.015  0.640  0.000  0.122  0.223
  0.017  0.329  0.000  0.470  0.185
  0.329  0.017  0.000  0.185  0.470
    occupations:
  0.938  0.000  0.000  0.000  0.000
  0.000  0.715  0.000  0.060  0.153
  0.000  0.000  0.715  0.153 -0.060
  0.000  0.060  0.153  0.822  0.000
  0.000  0.153 -0.060  0.000  0.822
atom    3   Tr[ns(na)] =   3.80284
    eigenvalues: 
  0.355  0.355  0.384  0.403  0.403
    eigenvectors:
  0.000  0.000  1.000  0.000  0.000
  0.781  0.139  0.000  0.012  0.068
  0.139  0.781  0.000  0.068  0.012
  0.013  0.067  0.000  0.780  0.141
  0.067  0.013  0.000  0.141  0.780
    occupations:
  0.384  0.000  0.000  0.000  0.000
  0.000  0.359  0.000  0.000  0.013
  0.000  0.000  0.359  0.013  0.000
  0.000  0.000  0.013  0.399  0.000
  0.000  0.013  0.000  0.000  0.399
atom    4   Tr[ns(na)] =   3.80284
    eigenvalues: 
  0.355  0.355  0.384  0.403  0.403
    eigenvectors:
  0.000  0.000  1.000  0.000  0.000
  0.782  0.139  0.000  0.012  0.068
  0.139  0.782  0.000  0.068  0.012
  0.012  0.067  0.000  0.780  0.141
  0.067  0.012  0.000  0.141  0.780
    occupations:
  0.384  0.000  0.000  0.000  0.000
  0.000  0.359  0.000  0.000  0.013
  0.000  0.000  0.359  0.013  0.000
  0.000  0.000  0.013  0.399  0.000
  0.000  0.013  0.000  0.000  0.399
atom    5   Tr[ns(na)] =   5.43357
    eigenvalues: 
  0.846  0.929  0.941
    eigenvectors:
  0.340  0.000  0.660
  0.494  0.250  0.256
  0.166  0.750  0.085
    occupations:
  0.909  0.039  0.022
  0.039  0.891 -0.022
  0.022 -0.022  0.917
atom    6   Tr[ns(na)] =   5.43357
    eigenvalues: 
  0.846  0.929  0.941
    eigenvectors:
  0.340  0.000  0.660
  0.000  1.000  0.000
  0.660  0.000  0.340
    occupations:
  0.909  0.000 -0.045
  0.000  0.929  0.000
 -0.045  0.000  0.879
atom    7   Tr[ns(na)] =   5.43357
    eigenvalues: 
  0.846  0.929  0.941
    eigenvectors:
  0.340  0.000  0.660
  0.496  0.250  0.255
  0.164  0.750  0.086
    occupations:
  0.909 -0.039  0.022
 -0.039  0.891  0.022
  0.022  0.022  0.917
atom    8   Tr[ns(na)] =   5.43357
    eigenvalues: 
  0.846  0.929  0.941
    eigenvectors:
  0.340  0.000  0.660
  0.000  1.000  0.000
  0.660  0.000  0.340
    occupations:
  0.909  0.000 -0.045
  0.000  0.929  0.000
 -0.045  0.000  0.879
atom    9   Tr[ns(na)] =   5.43357
    eigenvalues: 
  0.846  0.929  0.941
    eigenvectors:
  0.340  0.000  0.660
  0.494  0.250  0.256
  0.166  0.750  0.085
    occupations:
  0.909  0.039  0.022
  0.039  0.891 -0.022
  0.022 -0.022  0.917
atom   10   Tr[ns(na)] =   5.43357
    eigenvalues: 
  0.846  0.929  0.941
    eigenvectors:
  0.340  0.000  0.660
  0.496  0.250  0.255
  0.164  0.750  0.086
    occupations:
  0.909 -0.039  0.022
 -0.039  0.891  0.022
  0.022  0.022  0.917
N of occupied +U levels =  56.2506062
 --- exit write_ns ---
 LDA+U Projector read from file 
     Starting wfc from file

     total cpu time spent up to now is        8.1 secs

     per-process dynamical memory:    46.9 Mb

     Self-consistent Calculation

     iteration #  1     ecut=    30.00 Ry     beta=0.20
     Davidson diagonalization with overlap
     c_bands:  1 eigenvalues not converged
     c_bands:  1 eigenvalues not converged
     c_bands:  1 eigenvalues not converged
     c_bands:  1 eigenvalues not converged
     ethr =  1.00E-10,  avg # of iterations = 16.5
 --- enter write_ns ---
 LDA+U parameters:
U( 1)     =  6.00000000
alpha( 1) = -0.15000000
U( 2)     =  6.00000000
alpha( 2) =  0.00000000
U( 3)     =  0.00000000
alpha( 3) =  0.00000000
U( 4)     =  0.00000000
alpha( 4) =  0.00000000
atom    1   Tr[ns(na)] =   8.31169
    eigenvalues: 
  0.586  0.586  0.994  0.994  0.996
    eigenvectors:
  0.000  0.000  0.000  0.000  1.000
  0.330  0.324  0.004  0.342  0.000
  0.324  0.330  0.342  0.004  0.000
  0.290  0.056  0.514  0.140  0.000
  0.056  0.290  0.140  0.514  0.000
    occupations:
  0.996  0.000  0.000  0.000  0.000
  0.000  0.727  0.000 -0.071  0.180
  0.000  0.000  0.727  0.180  0.071
  0.000 -0.071  0.180  0.853  0.000
  0.000  0.180  0.071  0.000  0.853
atom    2   Tr[ns(na)] =   8.24178
    eigenvalues: 
  0.570  0.570  0.993  0.993  0.996
    eigenvectors:
  0.000  0.000  0.000  0.000  1.000
  0.635  0.019  0.221  0.125  0.000
  0.019  0.635  0.125  0.221  0.000
  0.013  0.333  0.469  0.185  0.000
  0.333  0.013  0.185  0.469  0.000
    occupations:
  0.996  0.000  0.000  0.000  0.000
  0.000  0.716  0.000  0.072  0.188
  0.000  0.000  0.716  0.188 -0.072
  0.000  0.072  0.188  0.846  0.000
  0.000  0.188 -0.072  0.000  0.846
atom    3   Tr[ns(na)] =   3.78935
    eigenvalues: 
  0.356  0.356  0.381  0.401  0.401
    eigenvectors:
  0.000  0.000  1.000  0.000  0.000
  0.774  0.141  0.000  0.012  0.072
  0.141  0.774  0.000  0.072  0.012
  0.014  0.071  0.000  0.773  0.142
  0.071  0.014  0.000  0.142  0.773
    occupations:
  0.381  0.000  0.000  0.000  0.000
  0.000  0.360  0.000  0.000  0.013
  0.000  0.000  0.360  0.013  0.000
  0.000  0.000  0.013  0.397  0.000
  0.000  0.013  0.000  0.000  0.397
atom    4   Tr[ns(na)] =   3.78935
    eigenvalues: 
  0.356  0.356  0.381  0.401  0.401
    eigenvectors:
  0.000  0.000  1.000  0.000  0.000
  0.774  0.141  0.000  0.012  0.072
  0.141  0.774  0.000  0.072  0.012
  0.014  0.071  0.000  0.773  0.142
  0.071  0.014  0.000  0.142  0.773
    occupations:
  0.381  0.000  0.000  0.000  0.000
  0.000  0.360  0.000  0.000  0.013
  0.000  0.000  0.360  0.013  0.000
  0.000  0.000  0.013  0.397  0.000
  0.000  0.013  0.000  0.000  0.397
atom    5   Tr[ns(na)] =   5.36784
    eigenvalues: 
  0.819  0.921  0.944
    eigenvectors:
  0.342  0.000  0.658
  0.487  0.257  0.256
  0.171  0.743  0.086
    occupations:
  0.901  0.051  0.030
  0.051  0.877 -0.026
  0.030 -0.026  0.906
atom    6   Tr[ns(na)] =   5.36784
    eigenvalues: 
  0.819  0.921  0.944
    eigenvectors:
  0.342  0.000  0.658
  0.000  1.000  0.000
  0.658  0.000  0.342
    occupations:
  0.901  0.001 -0.059
  0.001  0.921  0.001
 -0.059  0.001  0.862
atom    7   Tr[ns(na)] =   5.36784
    eigenvalues: 
  0.819  0.921  0.944
    eigenvectors:
  0.342  0.000  0.658
  0.500  0.243  0.257
  0.158  0.757  0.085
    occupations:
  0.901 -0.051  0.029
 -0.051  0.876  0.025
  0.029  0.025  0.907
atom    8   Tr[ns(na)] =   5.36784
    eigenvalues: 
  0.819  0.921  0.944
    eigenvectors:
  0.342  0.000  0.658
  0.000  1.000  0.000
  0.658  0.000  0.342
    occupations:
  0.901  0.001 -0.059
  0.001  0.921  0.001
 -0.059  0.001  0.862
atom    9   Tr[ns(na)] =   5.36784
    eigenvalues: 
  0.819  0.921  0.944
    eigenvectors:
  0.342  0.000  0.658
  0.487  0.257  0.256
  0.171  0.743  0.086
    occupations:
  0.901  0.051  0.030
  0.051  0.877 -0.026
  0.030 -0.026  0.906
atom   10   Tr[ns(na)] =   5.36784
    eigenvalues: 
  0.819  0.921  0.944
    eigenvectors:
  0.342  0.000  0.658
  0.500  0.243  0.257
  0.158  0.757  0.085
    occupations:
  0.901 -0.051  0.029
 -0.051  0.876  0.025
  0.029  0.025  0.907
N of occupied +U levels =  56.3392214
 --- exit write_ns ---
 --- in v_hubbard ---
Hubbard energy    0.4607
 -------

     total cpu time spent up to now is       46.3 secs

     total energy              =    -537.91006419 Ry
     Harris-Foulkes estimate   =    -537.93077113 Ry
     estimated scf accuracy    <       0.08264736 Ry

     iteration #  2     ecut=    30.00 Ry     beta=0.20
     Davidson diagonalization with overlap
     ethr =  1.09E-04,  avg # of iterations =  2.0
 --- enter write_ns ---
 LDA+U parameters:
U( 1)     =  6.00000000
alpha( 1) = -0.15000000
U( 2)     =  6.00000000
alpha( 2) =  0.00000000
U( 3)     =  0.00000000
alpha( 3) =  0.00000000
U( 4)     =  0.00000000
alpha( 4) =  0.00000000
atom    1   Tr[ns(na)] =   8.01333
    eigenvalues: 
  0.511  0.511  0.994  0.994  0.997
    eigenvectors:
  0.000  0.000  0.000  0.000  1.000
  0.333  0.323  0.003  0.341  0.000
  0.323  0.333  0.341  0.003  0.000
  0.289  0.055  0.516  0.139  0.000
  0.055  0.289  0.139  0.516  0.000
    occupations:
  0.997  0.000  0.000  0.000  0.000
  0.000  0.678  0.000 -0.085  0.213
  0.000  0.000  0.678  0.213  0.085
  0.000 -0.085  0.213  0.827  0.000
  0.000  0.213  0.085  0.000  0.827
atom    2   Tr[ns(na)] =   8.03408
    eigenvalues: 
  0.514  0.514  0.995  0.995  0.998
    eigenvectors:
  0.000  0.000  0.000  0.000  1.000
  0.639  0.016  0.224  0.120  0.000
  0.016  0.639  0.120  0.224  0.000
  0.017  0.328  0.471  0.185  0.000
  0.328  0.017  0.185  0.471  0.000
    occupations:
  0.998  0.000  0.000  0.000  0.000
  0.000  0.680  0.000  0.085  0.212
  0.000  0.000  0.680  0.212 -0.085
  0.000  0.085  0.212  0.829  0.000
  0.000  0.212 -0.085  0.000  0.829
atom    3   Tr[ns(na)] =   3.78394
    eigenvalues: 
  0.355  0.355  0.380  0.401  0.401
    eigenvectors:
  0.000  0.000  1.000  0.000  0.000
  0.781  0.139  0.000  0.012  0.068
  0.139  0.781  0.000  0.068  0.012
  0.012  0.067  0.000  0.779  0.141
  0.067  0.012  0.000  0.141  0.779
    occupations:
  0.380  0.000  0.000  0.000  0.000
  0.000  0.358  0.000  0.000  0.013
  0.000  0.000  0.358  0.013  0.000
  0.000  0.000  0.013  0.397  0.000
  0.000  0.013  0.000  0.000  0.397
atom    4   Tr[ns(na)] =   3.78394
    eigenvalues: 
  0.355  0.355  0.380  0.401  0.401
    eigenvectors:
  0.000  0.000  1.000  0.000  0.000
  0.781  0.139  0.000  0.012  0.068
  0.139  0.781  0.000  0.068  0.012
  0.012  0.067  0.000  0.779  0.141
  0.067  0.012  0.000  0.141  0.779
    occupations:
  0.380  0.000  0.000  0.000  0.000
  0.000  0.358  0.000  0.000  0.013
  0.000  0.000  0.358  0.013  0.000
  0.000  0.000  0.013  0.397  0.000
  0.000  0.013  0.000  0.000  0.397
atom    5   Tr[ns(na)] =   5.44920
    eigenvalues: 
  0.843  0.932  0.950
    eigenvectors:
  0.335  0.000  0.665
  0.503  0.245  0.253
  0.162  0.755  0.083
    occupations:
  0.914  0.044  0.025
  0.044  0.892 -0.023
  0.025 -0.023  0.919
atom    6   Tr[ns(na)] =   5.44920
    eigenvalues: 
  0.843  0.932  0.950
    eigenvectors:
  0.335  0.000  0.665
  0.000  1.000  0.000
  0.665  0.000  0.335
    occupations:
  0.914  0.000 -0.050
  0.000  0.932  0.000
 -0.050  0.000  0.879
atom    7   Tr[ns(na)] =   5.44920
    eigenvalues: 
  0.843  0.932  0.950
    eigenvectors:
  0.335  0.000  0.665
  0.495  0.255  0.250
  0.170  0.745  0.085
    occupations:
  0.914 -0.044  0.026
 -0.044  0.892  0.023
  0.026  0.023  0.918
atom    8   Tr[ns(na)] =   5.44920
    eigenvalues: 
  0.843  0.932  0.950
    eigenvectors:
  0.335  0.000  0.665
  0.000  1.000  0.000
  0.665  0.000  0.335
    occupations:
  0.914  0.000 -0.050
  0.000  0.932  0.000
 -0.050  0.000  0.879
atom    9   Tr[ns(na)] =   5.44920
    eigenvalues: 
  0.843  0.932  0.950
    eigenvectors:
  0.335  0.000  0.665
  0.503  0.245  0.253
  0.162  0.755  0.083
    occupations:
  0.914  0.044  0.025
  0.044  0.892 -0.023
  0.025 -0.023  0.919
atom   10   Tr[ns(na)] =   5.44920
    eigenvalues: 
  0.843  0.932  0.950
    eigenvectors:
  0.335  0.000  0.665
  0.495  0.255  0.250
  0.170  0.745  0.085
    occupations:
  0.914 -0.044  0.026
 -0.044  0.892  0.023
  0.026  0.023  0.918
N of occupied +U levels =  56.3104918
 --- exit write_ns ---
 --- in v_hubbard ---
Hubbard energy    0.4508
 -------

     total cpu time spent up to now is       59.5 secs

     total energy              =    -537.92734287 Ry
     Harris-Foulkes estimate   =    -537.92823095 Ry
     estimated scf accuracy    <       0.04660400 Ry

     iteration #  3     ecut=    30.00 Ry     beta=0.20
     Davidson diagonalization with overlap
     ethr =  6.13E-05,  avg # of iterations =  1.0
 --- enter write_ns ---
 LDA+U parameters:
U( 1)     =  6.00000000
alpha( 1) = -0.15000000
U( 2)     =  6.00000000
alpha( 2) =  0.00000000
U( 3)     =  0.00000000
alpha( 3) =  0.00000000
U( 4)     =  0.00000000
alpha( 4) =  0.00000000
atom    1   Tr[ns(na)] =   8.08920
    eigenvalues: 
  0.529  0.529  0.994  0.994  0.997
    eigenvectors:
  0.000  0.000  0.000  0.000  1.000
  0.333  0.322  0.003  0.341  0.000
  0.322  0.333  0.341  0.003  0.000
  0.289  0.055  0.516  0.139  0.000
  0.055  0.289  0.139  0.516  0.000
    occupations:
  0.997  0.000  0.000  0.000  0.000
  0.000  0.689  0.000 -0.082  0.205
  0.000  0.000  0.689  0.205  0.082
  0.000 -0.082  0.205  0.834  0.000
  0.000  0.205  0.082  0.000  0.834
atom    2   Tr[ns(na)] =   8.06281
    eigenvalues: 
  0.522  0.522  0.995  0.995  0.998
    eigenvectors:
  0.000  0.000  0.000  0.000  1.000
  0.638  0.017  0.223  0.121  0.000
  0.017  0.638  0.121  0.223  0.000
  0.015  0.329  0.471  0.185  0.000
  0.329  0.015  0.185  0.471  0.000
    occupations:
  0.998  0.000  0.000  0.000  0.000
  0.000  0.685  0.000  0.082  0.209
  0.000  0.000  0.685  0.209 -0.082
  0.000  0.082  0.209  0.832  0.000
  0.000  0.209 -0.082  0.000  0.832
atom    3   Tr[ns(na)] =   3.78512
    eigenvalues: 
  0.355  0.355  0.380  0.401  0.401
    eigenvectors:
  0.000  0.000  1.000  0.000  0.000
  0.781  0.139  0.000  0.012  0.068
  0.139  0.781  0.000  0.068  0.012
  0.013  0.067  0.000  0.779  0.141
  0.067  0.013  0.000  0.141  0.779
    occupations:
  0.380  0.000  0.000  0.000  0.000
  0.000  0.359  0.000  0.000  0.012
  0.000  0.000  0.359  0.012  0.000
  0.000  0.000  0.012  0.397  0.000
  0.000  0.012  0.000  0.000  0.397
atom    4   Tr[ns(na)] =   3.78512
    eigenvalues: 
  0.355  0.355  0.380  0.401  0.401
    eigenvectors:
  0.000  0.000  1.000  0.000  0.000
  0.781  0.139  0.000  0.012  0.068
  0.139  0.781  0.000  0.068  0.012
  0.013  0.067  0.000  0.779  0.141
  0.067  0.013  0.000  0.141  0.779
    occupations:
  0.380  0.000  0.000  0.000  0.000
  0.000  0.359  0.000  0.000  0.012
  0.000  0.000  0.359  0.012  0.000
  0.000  0.000  0.012  0.397  0.000
  0.000  0.012  0.000  0.000  0.397
atom    5   Tr[ns(na)] =   5.43257
    eigenvalues: 
  0.837  0.930  0.949
    eigenvectors:
  0.337  0.000  0.663
  0.496  0.251  0.253
  0.168  0.749  0.084
    occupations:
  0.911  0.045  0.026
  0.045  0.889 -0.024
  0.026 -0.024  0.916
atom    6   Tr[ns(na)] =   5.43257
    eigenvalues: 
  0.837  0.930  0.949
    eigenvectors:
  0.337  0.000  0.663
  0.000  1.000  0.000
  0.663  0.000  0.337
    occupations:
  0.911  0.000 -0.053
  0.000  0.930  0.000
 -0.053  0.000  0.875
atom    7   Tr[ns(na)] =   5.43257
    eigenvalues: 
  0.837  0.930  0.949
    eigenvectors:
  0.337  0.000  0.663
  0.499  0.249  0.252
  0.164  0.751  0.085
    occupations:
  0.911 -0.046  0.026
 -0.046  0.889  0.024
  0.026  0.024  0.917
atom    8   Tr[ns(na)] =   5.43257
    eigenvalues: 
  0.837  0.930  0.949
    eigenvectors:
  0.337  0.000  0.663
  0.000  1.000  0.000
  0.663  0.000  0.337
    occupations:
  0.911  0.000 -0.053
  0.000  0.930  0.000
 -0.053  0.000  0.875
atom    9   Tr[ns(na)] =   5.43257
    eigenvalues: 
  0.837  0.930  0.949
    eigenvectors:
  0.337  0.000  0.663
  0.496  0.251  0.253
  0.168  0.749  0.084
    occupations:
  0.911  0.045  0.026
  0.045  0.889 -0.024
  0.026 -0.024  0.916
atom   10   Tr[ns(na)] =   5.43257
    eigenvalues: 
  0.837  0.930  0.949
    eigenvectors:
  0.337  0.000  0.663
  0.499  0.249  0.252
  0.164  0.751  0.085
    occupations:
  0.911 -0.046  0.026
 -0.046  0.889  0.024
  0.026  0.024  0.917
N of occupied +U levels =  56.3176834
 --- exit write_ns ---
 --- in v_hubbard ---
Hubbard energy    0.3997
 -------

     total cpu time spent up to now is       71.7 secs

     total energy              =    -537.93440578 Ry
     Harris-Foulkes estimate   =    -537.92855052 Ry
     estimated scf accuracy    <       0.01863891 Ry

     iteration #  4     ecut=    30.00 Ry     beta=0.20
     Davidson diagonalization with overlap
     ethr =  2.45E-05,  avg # of iterations =  1.1
 --- enter write_ns ---
 LDA+U parameters:
U( 1)     =  6.00000000
alpha( 1) = -0.15000000
U( 2)     =  6.00000000
alpha( 2) =  0.00000000
U( 3)     =  0.00000000
alpha( 3) =  0.00000000
U( 4)     =  0.00000000
alpha( 4) =  0.00000000
atom    1   Tr[ns(na)] =   8.07459
    eigenvalues: 
  0.525  0.525  0.995  0.995  0.998
    eigenvectors:
  0.000  0.000  0.000  0.000  1.000
  0.336  0.321  0.003  0.340  0.000
  0.321  0.336  0.340  0.003  0.000
  0.287  0.056  0.518  0.139  0.000
  0.056  0.287  0.139  0.518  0.000
    occupations:
  0.998  0.000  0.000  0.000  0.000
  0.000  0.686  0.000 -0.083  0.207
  0.000  0.000  0.686  0.207  0.083
  0.000 -0.083  0.207  0.834  0.000
  0.000  0.207  0.083  0.000  0.834
atom    2   Tr[ns(na)] =   8.10791
    eigenvalues: 
  0.531  0.531  0.996  0.996  0.999
    eigenvectors:
  0.000  0.000  0.000  0.000  1.000
  0.640  0.017  0.223  0.119  0.000
  0.017  0.640  0.119  0.223  0.000
  0.016  0.326  0.473  0.184  0.000
  0.326  0.016  0.184  0.473  0.000
    occupations:
  0.999  0.000  0.000  0.000  0.000
  0.000  0.691  0.000  0.082  0.205
  0.000  0.000  0.691  0.205 -0.082
  0.000  0.082  0.205  0.837  0.000
  0.000  0.205 -0.082  0.000  0.837
atom    3   Tr[ns(na)] =   3.79249
    eigenvalues: 
  0.356  0.356  0.381  0.401  0.401
    eigenvectors:
  0.000  0.000  1.000  0.000  0.000
  0.784  0.138  0.000  0.012  0.067
  0.138  0.784  0.000  0.067  0.012
  0.012  0.066  0.000  0.781  0.141
  0.066  0.012  0.000  0.141  0.781
    occupations:
  0.381  0.000  0.000  0.000  0.000
  0.000  0.360  0.000  0.000  0.012
  0.000  0.000  0.360  0.012  0.000
  0.000  0.000  0.012  0.398  0.000
  0.000  0.012  0.000  0.000  0.398
atom    4   Tr[ns(na)] =   3.79249
    eigenvalues: 
  0.356  0.356  0.381  0.401  0.401
    eigenvectors:
  0.000  0.000  1.000  0.000  0.000
  0.783  0.138  0.000  0.012  0.067
  0.138  0.783  0.000  0.067  0.012
  0.012  0.066  0.000  0.781  0.141
  0.066  0.012  0.000  0.141  0.781
    occupations:
  0.381  0.000  0.000  0.000  0.000
  0.000  0.360  0.000  0.000  0.012
  0.000  0.000  0.360  0.012  0.000
  0.000  0.000  0.012  0.398  0.000
  0.000  0.012  0.000  0.000  0.398
atom    5   Tr[ns(na)] =   5.42411
    eigenvalues: 
  0.835  0.929  0.948
    eigenvectors:
  0.337  0.000  0.663
  0.503  0.243  0.254
  0.160  0.757  0.083
    occupations:
  0.910  0.046  0.026
  0.046  0.887 -0.024
  0.026 -0.024  0.916
atom    6   Tr[ns(na)] =   5.42411
    eigenvalues: 
  0.835  0.929  0.948
    eigenvectors:
  0.337  0.000  0.663
  0.000  1.000  0.000
  0.663  0.000  0.337
    occupations:
  0.910  0.000 -0.053
  0.000  0.929 -0.001
 -0.053 -0.001  0.873
atom    7   Tr[ns(na)] =   5.42411
    eigenvalues: 
  0.835  0.929  0.948
    eigenvectors:
  0.337  0.000  0.663
  0.491  0.257  0.251
  0.171  0.743  0.086
    occupations:
  0.910 -0.046  0.027
 -0.046  0.888  0.025
  0.027  0.025  0.915
atom    8   Tr[ns(na)] =   5.42411
    eigenvalues: 
  0.835  0.929  0.948
    eigenvectors:
  0.337  0.000  0.663
  0.000  1.000  0.000
  0.663  0.000  0.337
    occupations:
  0.910  0.000 -0.053
  0.000  0.929 -0.001
 -0.053 -0.001  0.873
atom    9   Tr[ns(na)] =   5.42411
    eigenvalues: 
  0.835  0.929  0.948
    eigenvectors:
  0.337  0.000  0.663
  0.503  0.243  0.254
  0.160  0.757  0.083
    occupations:
  0.910  0.046  0.026
  0.046  0.887 -0.024
  0.026 -0.024  0.916
atom   10   Tr[ns(na)] =   5.42411
    eigenvalues: 
  0.835  0.929  0.948
    eigenvectors:
  0.337  0.000  0.663
  0.491  0.257  0.251
  0.171  0.743  0.086
    occupations:
  0.910 -0.046  0.027
 -0.046  0.888  0.025
  0.027  0.025  0.915
N of occupied +U levels =  56.3121227
 --- exit write_ns ---
 --- in v_hubbard ---
Hubbard energy    0.3540
 -------

     total cpu time spent up to now is       85.3 secs

     total energy              =    -537.93628248 Ry
     Harris-Foulkes estimate   =    -537.93530517 Ry
     estimated scf accuracy    <       0.00512695 Ry

     iteration #  5     ecut=    30.00 Ry     beta=0.20
     Davidson diagonalization with overlap
     ethr =  6.75E-06,  avg # of iterations =  1.9
 --- enter write_ns ---
 LDA+U parameters:
U( 1)     =  6.00000000
alpha( 1) = -0.15000000
U( 2)     =  6.00000000
alpha( 2) =  0.00000000
U( 3)     =  0.00000000
alpha( 3) =  0.00000000
U( 4)     =  0.00000000
alpha( 4) =  0.00000000
atom    1   Tr[ns(na)] =   8.09000
    eigenvalues: 
  0.526  0.526  0.997  0.997  0.999
    eigenvectors:
  0.000  0.000  0.000  0.000  1.000
  0.339  0.319  0.003  0.339  0.000
  0.319  0.339  0.339  0.003  0.000
  0.287  0.055  0.520  0.139  0.000
  0.055  0.287  0.139  0.520  0.000
    occupations:
  0.999  0.000  0.000  0.000  0.000
  0.000  0.687  0.000 -0.084  0.206
  0.000  0.000  0.687  0.206  0.084
  0.000 -0.084  0.206  0.836  0.000
  0.000  0.206  0.084  0.000  0.836
atom    2   Tr[ns(na)] =   8.06329
    eigenvalues: 
  0.519  0.519  0.997  0.997  0.999
    eigenvectors:
  0.000  0.000  0.000  0.000  1.000
  0.640  0.018  0.223  0.119  0.000
  0.018  0.640  0.119  0.223  0.000
  0.016  0.326  0.474  0.184  0.000
  0.326  0.016  0.184  0.474  0.000
    occupations:
  0.999  0.000  0.000  0.000  0.000
  0.000  0.682  0.000  0.085  0.210
  0.000  0.000  0.682  0.210 -0.085
  0.000  0.085  0.210  0.834  0.000
  0.000  0.210 -0.085  0.000  0.834
atom    3   Tr[ns(na)] =   3.79761
    eigenvalues: 
  0.357  0.357  0.381  0.402  0.402
    eigenvectors:
  0.000  0.000  1.000  0.000  0.000
  0.784  0.138  0.000  0.011  0.066
  0.138  0.784  0.000  0.066  0.011
  0.012  0.065  0.000  0.782  0.140
  0.065  0.012  0.000  0.140  0.782
    occupations:
  0.381  0.000  0.000  0.000  0.000
  0.000  0.360  0.000  0.000  0.012
  0.000  0.000  0.360  0.012  0.000
  0.000  0.000  0.012  0.398  0.000
  0.000  0.012  0.000  0.000  0.398
atom    4   Tr[ns(na)] =   3.79761
    eigenvalues: 
  0.357  0.357  0.381  0.402  0.402
    eigenvectors:
  0.000  0.000  1.000  0.000  0.000
  0.784  0.138  0.000  0.011  0.066
  0.138  0.784  0.000  0.066  0.011
  0.012  0.065  0.000  0.782  0.140
  0.065  0.012  0.000  0.140  0.782
    occupations:
  0.381  0.000  0.000  0.000  0.000
  0.000  0.360  0.000  0.000  0.012
  0.000  0.000  0.360  0.012  0.000
  0.000  0.000  0.012  0.398  0.000
  0.000  0.012  0.000  0.000  0.398
atom    5   Tr[ns(na)] =   5.42582
    eigenvalues: 
  0.836  0.929  0.948
    eigenvectors:
  0.337  0.000  0.663
  0.495  0.251  0.253
  0.168  0.749  0.084
    occupations:
  0.910  0.046  0.027
  0.046  0.888 -0.024
  0.027 -0.024  0.915
atom    6   Tr[ns(na)] =   5.42582
    eigenvalues: 
  0.836  0.929  0.948
    eigenvectors:
  0.337  0.000  0.663
  0.000  1.000  0.000
  0.663  0.000  0.337
    occupations:
  0.910  0.000 -0.053
  0.000  0.929  0.000
 -0.053  0.000  0.874
atom    7   Tr[ns(na)] =   5.42582
    eigenvalues: 
  0.836  0.929  0.948
    eigenvectors:
  0.337  0.000  0.663
  0.499  0.249  0.252
  0.164  0.751  0.085
    occupations:
  0.910 -0.046  0.026
 -0.046  0.887  0.024
  0.026  0.024  0.916
atom    8   Tr[ns(na)] =   5.42582
    eigenvalues: 
  0.836  0.929  0.948
    eigenvectors:
  0.337  0.000  0.663
  0.000  1.000  0.000
  0.663  0.000  0.337
    occupations:
  0.910  0.000 -0.053
  0.000  0.929  0.000
 -0.053  0.000  0.874
atom    9   Tr[ns(na)] =   5.42582
    eigenvalues: 
  0.836  0.929  0.948
    eigenvectors:
  0.337  0.000  0.663
  0.495  0.251  0.253
  0.168  0.749  0.084
    occupations:
  0.910  0.046  0.027
  0.046  0.888 -0.024
  0.027 -0.024  0.915
atom   10   Tr[ns(na)] =   5.42582
    eigenvalues: 
  0.836  0.929  0.948
    eigenvectors:
  0.337  0.000  0.663
  0.499  0.249  0.252
  0.164  0.751  0.085
    occupations:
  0.910 -0.046  0.026
 -0.046  0.887  0.024
  0.026  0.024  0.916
N of occupied +U levels =  56.3034005
 --- exit write_ns ---
 --- in v_hubbard ---
Hubbard energy    0.3541
 -------

     total cpu time spent up to now is       98.5 secs

     total energy              =    -537.93679941 Ry
     Harris-Foulkes estimate   =    -537.93682235 Ry
     estimated scf accuracy    <       0.00071365 Ry

     iteration #  6     ecut=    30.00 Ry     beta=0.20
     Davidson diagonalization with overlap
     ethr =  9.39E-07,  avg # of iterations =  1.8
 --- enter write_ns ---
 LDA+U parameters:
U( 1)     =  6.00000000
alpha( 1) = -0.15000000
U( 2)     =  6.00000000
alpha( 2) =  0.00000000
U( 3)     =  0.00000000
alpha( 3) =  0.00000000
U( 4)     =  0.00000000
alpha( 4) =  0.00000000
atom    1   Tr[ns(na)] =   8.07207
    eigenvalues: 
  0.522  0.522  0.997  0.997  0.999
    eigenvectors:
  0.000  0.000  0.000  0.000  1.000
  0.339  0.319  0.003  0.339  0.000
  0.319  0.339  0.339  0.003  0.000
  0.287  0.055  0.520  0.138  0.000
  0.055  0.287  0.138  0.520  0.000
    occupations:
  0.999  0.000  0.000  0.000  0.000
  0.000  0.684  0.000 -0.085  0.208
  0.000  0.000  0.684  0.208  0.085
  0.000 -0.085  0.208  0.834  0.000
  0.000  0.208  0.085  0.000  0.834
atom    2   Tr[ns(na)] =   8.04915
    eigenvalues: 
  0.516  0.516  0.997  0.997  0.999
    eigenvectors:
  0.000  0.000  0.000  0.000  1.000
  0.641  0.018  0.223  0.118  0.000
  0.018  0.641  0.118  0.223  0.000
  0.016  0.325  0.474  0.184  0.000
  0.325  0.016  0.184  0.474  0.000
    occupations:
  0.999  0.000  0.000  0.000  0.000
  0.000  0.680  0.000  0.086  0.212
  0.000  0.000  0.680  0.212 -0.086
  0.000  0.086  0.212  0.833  0.000
  0.000  0.212 -0.086  0.000  0.833
atom    3   Tr[ns(na)] =   3.79529
    eigenvalues: 
  0.356  0.356  0.381  0.402  0.402
    eigenvectors:
  0.000  0.000  1.000  0.000  0.000
  0.783  0.138  0.000  0.011  0.067
  0.138  0.783  0.000  0.067  0.011
  0.012  0.066  0.000  0.781  0.141
  0.066  0.012  0.000  0.141  0.781
    occupations:
  0.381  0.000  0.000  0.000  0.000
  0.000  0.360  0.000  0.000  0.012
  0.000  0.000  0.360  0.012  0.000
  0.000  0.000  0.012  0.398  0.000
  0.000  0.012  0.000  0.000  0.398
atom    4   Tr[ns(na)] =   3.79529
    eigenvalues: 
  0.356  0.356  0.381  0.402  0.402
    eigenvectors:
  0.000  0.000  1.000  0.000  0.000
  0.784  0.138  0.000  0.011  0.067
  0.138  0.784  0.000  0.067  0.011
  0.012  0.066  0.000  0.781  0.141
  0.066  0.012  0.000  0.141  0.781
    occupations:
  0.381  0.000  0.000  0.000  0.000
  0.000  0.360  0.000  0.000  0.012
  0.000  0.000  0.360  0.012  0.000
  0.000  0.000  0.012  0.398  0.000
  0.000  0.012  0.000  0.000  0.398
atom    5   Tr[ns(na)] =   5.43122
    eigenvalues: 
  0.837  0.930  0.948
    eigenvectors:
  0.337  0.000  0.663
  0.496  0.251  0.253
  0.167  0.749  0.084
    occupations:
  0.911  0.045  0.026
  0.045  0.889 -0.024
  0.026 -0.024  0.916
atom    6   Tr[ns(na)] =   5.43122
    eigenvalues: 
  0.837  0.930  0.948
    eigenvectors:
  0.337  0.000  0.663
  0.000  1.000  0.000
  0.663  0.000  0.337
    occupations:
  0.911  0.000 -0.052
  0.000  0.930  0.000
 -0.052  0.000  0.875
atom    7   Tr[ns(na)] =   5.43122
    eigenvalues: 
  0.837  0.930  0.948
    eigenvectors:
  0.337  0.000  0.663
  0.499  0.249  0.252
  0.164  0.751  0.085
    occupations:
  0.911 -0.045  0.026
 -0.045  0.888  0.024
  0.026  0.024  0.916
atom    8   Tr[ns(na)] =   5.43122
    eigenvalues: 
  0.837  0.930  0.948
    eigenvectors:
  0.337  0.000  0.663
  0.000  1.000  0.000
  0.663  0.000  0.337
    occupations:
  0.911  0.000 -0.052
  0.000  0.930  0.000
 -0.052  0.000  0.875
atom    9   Tr[ns(na)] =   5.43122
    eigenvalues: 
  0.837  0.930  0.948
    eigenvectors:
  0.337  0.000  0.663
  0.496  0.251  0.253
  0.167  0.749  0.084
    occupations:
  0.911  0.045  0.026
  0.045  0.889 -0.024
  0.026 -0.024  0.916
atom   10   Tr[ns(na)] =   5.43122
    eigenvalues: 
  0.837  0.930  0.948
    eigenvectors:
  0.337  0.000  0.663
  0.499  0.249  0.252
  0.164  0.751  0.085
    occupations:
  0.911 -0.045  0.026
 -0.045  0.888  0.024
  0.026  0.024  0.916
N of occupied +U levels =  56.2991539
 --- exit write_ns ---
 --- in v_hubbard ---
Hubbard energy    0.3553
 -------

     total cpu time spent up to now is      112.2 secs

     total energy              =    -537.93695615 Ry
     Harris-Foulkes estimate   =    -537.93688974 Ry
     estimated scf accuracy    <       0.00015060 Ry

     iteration #  7     ecut=    30.00 Ry     beta=0.20
     Davidson diagonalization with overlap
     ethr =  1.98E-07,  avg # of iterations =  2.1
 --- enter write_ns ---
 LDA+U parameters:
U( 1)     =  6.00000000
alpha( 1) = -0.15000000
U( 2)     =  6.00000000
alpha( 2) =  0.00000000
U( 3)     =  0.00000000
alpha( 3) =  0.00000000
U( 4)     =  0.00000000
alpha( 4) =  0.00000000
atom    1   Tr[ns(na)] =   8.06775
    eigenvalues: 
  0.521  0.521  0.997  0.997  0.999
    eigenvectors:
  0.000  0.000  0.000  0.000  1.000
  0.339  0.319  0.002  0.339  0.000
  0.319  0.339  0.339  0.002  0.000
  0.288  0.054  0.520  0.138  0.000
  0.054  0.288  0.138  0.520  0.000
    occupations:
  0.999  0.000  0.000  0.000  0.000
  0.000  0.683  0.000 -0.086  0.209
  0.000  0.000  0.683  0.209  0.086
  0.000 -0.086  0.209  0.834  0.000
  0.000  0.209  0.086  0.000  0.834
atom    2   Tr[ns(na)] =   8.04498
    eigenvalues: 
  0.514  0.514  0.997  0.997  0.999
    eigenvectors:
  0.000  0.000  0.000  0.000  1.000
  0.641  0.017  0.224  0.118  0.000
  0.017  0.641  0.118  0.224  0.000
  0.017  0.325  0.474  0.184  0.000
  0.325  0.017  0.184  0.474  0.000
    occupations:
  0.999  0.000  0.000  0.000  0.000
  0.000  0.679  0.000  0.086  0.212
  0.000  0.000  0.679  0.212 -0.086
  0.000  0.086  0.212  0.832  0.000
  0.000  0.212 -0.086  0.000  0.832
atom    3   Tr[ns(na)] =   3.78872
    eigenvalues: 
  0.356  0.356  0.381  0.401  0.401
    eigenvectors:
  0.000  0.000  1.000  0.000  0.000
  0.782  0.139  0.000  0.012  0.068
  0.139  0.782  0.000  0.068  0.012
  0.012  0.067  0.000  0.780  0.141
  0.067  0.012  0.000  0.141  0.780
    occupations:
  0.381  0.000  0.000  0.000  0.000
  0.000  0.359  0.000  0.000  0.012
  0.000  0.000  0.359  0.012  0.000
  0.000  0.000  0.012  0.398  0.000
  0.000  0.012  0.000  0.000  0.398
atom    4   Tr[ns(na)] =   3.78872
    eigenvalues: 
  0.356  0.356  0.381  0.401  0.401
    eigenvectors:
  0.000  0.000  1.000  0.000  0.000
  0.782  0.139  0.000  0.012  0.067
  0.139  0.782  0.000  0.067  0.012
  0.012  0.067  0.000  0.780  0.141
  0.067  0.012  0.000  0.141  0.780
    occupations:
  0.381  0.000  0.000  0.000  0.000
  0.000  0.359  0.000  0.000  0.012
  0.000  0.000  0.359  0.012  0.000
  0.000  0.000  0.012  0.398  0.000
  0.000  0.012  0.000  0.000  0.398
atom    5   Tr[ns(na)] =   5.43385
    eigenvalues: 
  0.838  0.930  0.949
    eigenvectors:
  0.337  0.000  0.663
  0.496  0.251  0.253
  0.167  0.749  0.084
    occupations:
  0.911  0.045  0.026
  0.045  0.889 -0.024
  0.026 -0.024  0.917
atom    6   Tr[ns(na)] =   5.43385
    eigenvalues: 
  0.838  0.930  0.949
    eigenvectors:
  0.337  0.000  0.663
  0.000  1.000  0.000
  0.663  0.000  0.337
    occupations:
  0.911  0.000 -0.052
  0.000  0.930  0.000
 -0.052  0.000  0.875
atom    7   Tr[ns(na)] =   5.43385
    eigenvalues: 
  0.838  0.930  0.949
    eigenvectors:
  0.337  0.000  0.663
  0.499  0.249  0.252
  0.164  0.751  0.085
    occupations:
  0.911 -0.045  0.026
 -0.045  0.889  0.024
  0.026  0.024  0.917
atom    8   Tr[ns(na)] =   5.43385
    eigenvalues: 
  0.838  0.930  0.949
    eigenvectors:
  0.337  0.000  0.663
  0.000  1.000  0.000
  0.663  0.000  0.337
    occupations:
  0.911  0.000 -0.052
  0.000  0.930  0.000
 -0.052  0.000  0.875
atom    9   Tr[ns(na)] =   5.43385
    eigenvalues: 
  0.838  0.930  0.949
    eigenvectors:
  0.337  0.000  0.663
  0.496  0.251  0.253
  0.167  0.749  0.084
    occupations:
  0.911  0.045  0.026
  0.045  0.889 -0.024
  0.026 -0.024  0.917
atom   10   Tr[ns(na)] =   5.43385
    eigenvalues: 
  0.838  0.930  0.949
    eigenvectors:
  0.337  0.000  0.663
  0.499  0.249  0.252
  0.164  0.751  0.085
    occupations:
  0.911 -0.045  0.026
 -0.045  0.889  0.024
  0.026  0.024  0.917
N of occupied +U levels =  56.2932714
 --- exit write_ns ---
 --- in v_hubbard ---
Hubbard energy    0.3560
 -------

     total cpu time spent up to now is      128.6 secs

     total energy              =    -537.93705288 Ry
     Harris-Foulkes estimate   =    -537.93698911 Ry
     estimated scf accuracy    <       0.00009710 Ry

     iteration #  8     ecut=    30.00 Ry     beta=0.20
     Davidson diagonalization with overlap
     ethr =  1.28E-07,  avg # of iterations =  1.0
 --- enter write_ns ---
 LDA+U parameters:
U( 1)     =  6.00000000
alpha( 1) = -0.15000000
U( 2)     =  6.00000000
alpha( 2) =  0.00000000
U( 3)     =  0.00000000
alpha( 3) =  0.00000000
U( 4)     =  0.00000000
alpha( 4) =  0.00000000
atom    1   Tr[ns(na)] =   8.06730
    eigenvalues: 
  0.521  0.521  0.997  0.997  0.999
    eigenvectors:
  0.000  0.000  0.000  0.000  1.000
  0.339  0.319  0.002  0.340  0.000
  0.319  0.339  0.340  0.002  0.000
  0.288  0.054  0.520  0.138  0.000
  0.054  0.288  0.138  0.520  0.000
    occupations:
  0.999  0.000  0.000  0.000  0.000
  0.000  0.683  0.000 -0.086  0.209
  0.000  0.000  0.683  0.209  0.086
  0.000 -0.086  0.209  0.834  0.000
  0.000  0.209  0.086  0.000  0.834
atom    2   Tr[ns(na)] =   8.04523
    eigenvalues: 
  0.515  0.515  0.997  0.997  0.999
    eigenvectors:
  0.000  0.000  0.000  0.000  1.000
  0.641  0.017  0.224  0.117  0.000
  0.017  0.641  0.117  0.224  0.000
  0.017  0.324  0.474  0.184  0.000
  0.324  0.017  0.184  0.474  0.000
    occupations:
  0.999  0.000  0.000  0.000  0.000
  0.000  0.679  0.000  0.086  0.212
  0.000  0.000  0.679  0.212 -0.086
  0.000  0.086  0.212  0.832  0.000
  0.000  0.212 -0.086  0.000  0.832
atom    3   Tr[ns(na)] =   3.79124
    eigenvalues: 
  0.356  0.356  0.381  0.401  0.401
    eigenvectors:
  0.000  0.000  1.000  0.000  0.000
  0.783  0.139  0.000  0.011  0.067
  0.139  0.783  0.000  0.067  0.011
  0.012  0.066  0.000  0.781  0.141
  0.066  0.012  0.000  0.141  0.781
    occupations:
  0.381  0.000  0.000  0.000  0.000
  0.000  0.360  0.000  0.000  0.012
  0.000  0.000  0.360  0.012  0.000
  0.000  0.000  0.012  0.398  0.000
  0.000  0.012  0.000  0.000  0.398
atom    4   Tr[ns(na)] =   3.79124
    eigenvalues: 
  0.356  0.356  0.381  0.401  0.401
    eigenvectors:
  0.000  0.000  1.000  0.000  0.000
  0.783  0.139  0.000  0.011  0.067
  0.139  0.783  0.000  0.067  0.011
  0.012  0.066  0.000  0.781  0.140
  0.066  0.012  0.000  0.140  0.781
    occupations:
  0.381  0.000  0.000  0.000  0.000
  0.000  0.360  0.000  0.000  0.012
  0.000  0.000  0.360  0.012  0.000
  0.000  0.000  0.012  0.398  0.000
  0.000  0.012  0.000  0.000  0.398
atom    5   Tr[ns(na)] =   5.43331
    eigenvalues: 
  0.838  0.930  0.948
    eigenvectors:
  0.337  0.000  0.663
  0.496  0.251  0.253
  0.167  0.749  0.084
    occupations:
  0.911  0.045  0.026
  0.045  0.889 -0.024
  0.026 -0.024  0.916
atom    6   Tr[ns(na)] =   5.43331
    eigenvalues: 
  0.838  0.930  0.948
    eigenvectors:
  0.337  0.000  0.663
  0.000  1.000  0.000
  0.663  0.000  0.337
    occupations:
  0.911  0.000 -0.052
  0.000  0.930  0.000
 -0.052  0.000  0.875
atom    7   Tr[ns(na)] =   5.43331
    eigenvalues: 
  0.838  0.930  0.948
    eigenvectors:
  0.337  0.000  0.663
  0.499  0.249  0.252
  0.165  0.751  0.085
    occupations:
  0.911 -0.045  0.026
 -0.045  0.889  0.024
  0.026  0.024  0.917
atom    8   Tr[ns(na)] =   5.43331
    eigenvalues: 
  0.838  0.930  0.948
    eigenvectors:
  0.337  0.000  0.663
  0.000  1.000  0.000
  0.663  0.000  0.337
    occupations:
  0.911  0.000 -0.052
  0.000  0.930  0.000
 -0.052  0.000  0.875
atom    9   Tr[ns(na)] =   5.43331
    eigenvalues: 
  0.838  0.930  0.948
    eigenvectors:
  0.337  0.000  0.663
  0.496  0.251  0.253
  0.167  0.749  0.084
    occupations:
  0.911  0.045  0.026
  0.045  0.889 -0.024
  0.026 -0.024  0.916
atom   10   Tr[ns(na)] =   5.43331
    eigenvalues: 
  0.838  0.930  0.948
    eigenvectors:
  0.337  0.000  0.663
  0.499  0.249  0.252
  0.165  0.751  0.085
    occupations:
  0.911 -0.045  0.026
 -0.045  0.889  0.024
  0.026  0.024  0.917
N of occupied +U levels =  56.2948423
 --- exit write_ns ---
 --- in v_hubbard ---
Hubbard energy    0.3572
 -------

     total cpu time spent up to now is      142.3 secs

     total energy              =    -537.93709266 Ry
     Harris-Foulkes estimate   =    -537.93705778 Ry
     estimated scf accuracy    <       0.00006333 Ry

     iteration #  9     ecut=    30.00 Ry     beta=0.20
     Davidson diagonalization with overlap
     ethr =  8.33E-08,  avg # of iterations =  1.6
 --- enter write_ns ---
 LDA+U parameters:
U( 1)     =  6.00000000
alpha( 1) = -0.15000000
U( 2)     =  6.00000000
alpha( 2) =  0.00000000
U( 3)     =  0.00000000
alpha( 3) =  0.00000000
U( 4)     =  0.00000000
alpha( 4) =  0.00000000
atom    1   Tr[ns(na)] =   8.07129
    eigenvalues: 
  0.522  0.522  0.997  0.997  0.999
    eigenvectors:
  0.000  0.000  0.000  0.000  1.000
  0.339  0.319  0.002  0.340  0.000
  0.319  0.339  0.340  0.002  0.000
  0.288  0.054  0.520  0.138  0.000
  0.054  0.288  0.138  0.520  0.000
    occupations:
  0.999  0.000  0.000  0.000  0.000
  0.000  0.684  0.000 -0.086  0.208
  0.000  0.000  0.684  0.208  0.086
  0.000 -0.086  0.208  0.834  0.000
  0.000  0.208  0.086  0.000  0.834
atom    2   Tr[ns(na)] =   8.04826
    eigenvalues: 
  0.515  0.515  0.997  0.997  0.999
    eigenvectors:
  0.000  0.000  0.000  0.000  1.000
  0.642  0.016  0.225  0.117  0.000
  0.016  0.642  0.117  0.225  0.000
  0.018  0.324  0.475  0.184  0.000
  0.324  0.018  0.184  0.475  0.000
    occupations:
  0.999  0.000  0.000  0.000  0.000
  0.000  0.680  0.000  0.087  0.211
  0.000  0.000  0.680  0.211 -0.087
  0.000  0.087  0.211  0.832  0.000
  0.000  0.211 -0.087  0.000  0.832
atom    3   Tr[ns(na)] =   3.79236
    eigenvalues: 
  0.356  0.356  0.381  0.401  0.401
    eigenvectors:
  0.000  0.000  1.000  0.000  0.000
  0.783  0.138  0.000  0.011  0.067
  0.138  0.783  0.000  0.067  0.011
  0.012  0.066  0.000  0.781  0.141
  0.066  0.012  0.000  0.141  0.781
    occupations:
  0.381  0.000  0.000  0.000  0.000
  0.000  0.360  0.000  0.000  0.012
  0.000  0.000  0.360  0.012  0.000
  0.000  0.000  0.012  0.398  0.000
  0.000  0.012  0.000  0.000  0.398
atom    4   Tr[ns(na)] =   3.79236
    eigenvalues: 
  0.356  0.356  0.381  0.401  0.401
    eigenvectors:
  0.000  0.000  1.000  0.000  0.000
  0.783  0.138  0.000  0.012  0.067
  0.138  0.783  0.000  0.067  0.012
  0.012  0.066  0.000  0.781  0.141
  0.066  0.012  0.000  0.141  0.781
    occupations:
  0.381  0.000  0.000  0.000  0.000
  0.000  0.360  0.000  0.000  0.012
  0.000  0.000  0.360  0.012  0.000
  0.000  0.000  0.012  0.398  0.000
  0.000  0.012  0.000  0.000  0.398
atom    5   Tr[ns(na)] =   5.43187
    eigenvalues: 
  0.837  0.930  0.948
    eigenvectors:
  0.337  0.000  0.663
  0.496  0.251  0.253
  0.167  0.749  0.084
    occupations:
  0.911  0.045  0.026
  0.045  0.889 -0.024
  0.026 -0.024  0.916
atom    6   Tr[ns(na)] =   5.43187
    eigenvalues: 
  0.837  0.930  0.948
    eigenvectors:
  0.337  0.000  0.663
  0.000  1.000  0.000
  0.663  0.000  0.337
    occupations:
  0.911  0.000 -0.052
  0.000  0.930  0.000
 -0.052  0.000  0.875
atom    7   Tr[ns(na)] =   5.43187
    eigenvalues: 
  0.837  0.930  0.948
    eigenvectors:
  0.337  0.000  0.663
  0.499  0.249  0.252
  0.164  0.751  0.085
    occupations:
  0.911 -0.045  0.026
 -0.045  0.889  0.024
  0.026  0.024  0.916
atom    8   Tr[ns(na)] =   5.43187
    eigenvalues: 
  0.837  0.930  0.948
    eigenvectors:
  0.337  0.000  0.663
  0.000  1.000  0.000
  0.663  0.000  0.337
    occupations:
  0.911  0.000 -0.052
  0.000  0.930  0.000
 -0.052  0.000  0.875
atom    9   Tr[ns(na)] =   5.43187
    eigenvalues: 
  0.837  0.930  0.948
    eigenvectors:
  0.337  0.000  0.663
  0.496  0.251  0.253
  0.167  0.749  0.084
    occupations:
  0.911  0.045  0.026
  0.045  0.889 -0.024
  0.026 -0.024  0.916
atom   10   Tr[ns(na)] =   5.43187
    eigenvalues: 
  0.837  0.930  0.948
    eigenvectors:
  0.337  0.000  0.663
  0.499  0.249  0.252
  0.164  0.751  0.085
    occupations:
  0.911 -0.045  0.026
 -0.045  0.889  0.024
  0.026  0.024  0.916
N of occupied +U levels =  56.2954922
 --- exit write_ns ---
 --- in v_hubbard ---
Hubbard energy    0.3574
 -------

     total cpu time spent up to now is      156.0 secs

     total energy              =    -537.93712959 Ry
     Harris-Foulkes estimate   =    -537.93709923 Ry
     estimated scf accuracy    <       0.00000423 Ry

     iteration # 10     ecut=    30.00 Ry     beta=0.20
     Davidson diagonalization with overlap
     ethr =  5.57E-09,  avg # of iterations =  2.1
 --- enter write_ns ---
 LDA+U parameters:
U( 1)     =  6.00000000
alpha( 1) = -0.15000000
U( 2)     =  6.00000000
alpha( 2) =  0.00000000
U( 3)     =  0.00000000
alpha( 3) =  0.00000000
U( 4)     =  0.00000000
alpha( 4) =  0.00000000
atom    1   Tr[ns(na)] =   8.07269
    eigenvalues: 
  0.522  0.522  0.997  0.997  0.999
    eigenvectors:
  0.000  0.000  0.000  0.000  1.000
  0.339  0.319  0.002  0.340  0.000
  0.319  0.339  0.340  0.002  0.000
  0.288  0.054  0.520  0.138  0.000
  0.054  0.288  0.138  0.520  0.000
    occupations:
  0.999  0.000  0.000  0.000  0.000
  0.000  0.684  0.000 -0.086  0.208
  0.000  0.000  0.684  0.208  0.086
  0.000 -0.086  0.208  0.834  0.000
  0.000  0.208  0.086  0.000  0.834
atom    2   Tr[ns(na)] =   8.04870
    eigenvalues: 
  0.515  0.515  0.997  0.997  0.999
    eigenvectors:
  0.000  0.000  0.000  0.000  1.000
  0.642  0.016  0.225  0.117  0.000
  0.016  0.642  0.117  0.225  0.000
  0.018  0.324  0.475  0.184  0.000
  0.324  0.018  0.184  0.475  0.000
    occupations:
  0.999  0.000  0.000  0.000  0.000
  0.000  0.680  0.000  0.087  0.211
  0.000  0.000  0.680  0.211 -0.087
  0.000  0.087  0.211  0.832  0.000
  0.000  0.211 -0.087  0.000  0.832
atom    3   Tr[ns(na)] =   3.79200
    eigenvalues: 
  0.356  0.356  0.381  0.401  0.401
    eigenvectors:
  0.000  0.000  1.000  0.000  0.000
  0.783  0.138  0.000  0.012  0.067
  0.138  0.783  0.000  0.067  0.012
  0.012  0.066  0.000  0.781  0.141
  0.066  0.012  0.000  0.141  0.781
    occupations:
  0.381  0.000  0.000  0.000  0.000
  0.000  0.360  0.000  0.000  0.012
  0.000  0.000  0.360  0.012  0.000
  0.000  0.000  0.012  0.398  0.000
  0.000  0.012  0.000  0.000  0.398
atom    4   Tr[ns(na)] =   3.79200
    eigenvalues: 
  0.356  0.356  0.381  0.401  0.401
    eigenvectors:
  0.000  0.000  1.000  0.000  0.000
  0.783  0.139  0.000  0.012  0.067
  0.139  0.783  0.000  0.067  0.012
  0.012  0.066  0.000  0.780  0.141
  0.066  0.012  0.000  0.141  0.780
    occupations:
  0.381  0.000  0.000  0.000  0.000
  0.000  0.360  0.000  0.000  0.012
  0.000  0.000  0.360  0.012  0.000
  0.000  0.000  0.012  0.398  0.000
  0.000  0.012  0.000  0.000  0.398
atom    5   Tr[ns(na)] =   5.43164
    eigenvalues: 
  0.837  0.930  0.948
    eigenvectors:
  0.337  0.000  0.663
  0.496  0.251  0.253
  0.167  0.749  0.084
    occupations:
  0.911  0.045  0.026
  0.045  0.889 -0.024
  0.026 -0.024  0.916
atom    6   Tr[ns(na)] =   5.43164
    eigenvalues: 
  0.837  0.930  0.948
    eigenvectors:
  0.337  0.000  0.663
  0.000  1.000  0.000
  0.663  0.000  0.337
    occupations:
  0.911  0.000 -0.052
  0.000  0.930  0.000
 -0.052  0.000  0.875
atom    7   Tr[ns(na)] =   5.43164
    eigenvalues: 
  0.837  0.930  0.948
    eigenvectors:
  0.337  0.000  0.663
  0.499  0.249  0.252
  0.164  0.751  0.085
    occupations:
  0.911 -0.045  0.026
 -0.045  0.888  0.024
  0.026  0.024  0.916
atom    8   Tr[ns(na)] =   5.43164
    eigenvalues: 
  0.837  0.930  0.948
    eigenvectors:
  0.337  0.000  0.663
  0.000  1.000  0.000
  0.663  0.000  0.337
    occupations:
  0.911  0.000 -0.052
  0.000  0.930  0.000
 -0.052  0.000  0.875
atom    9   Tr[ns(na)] =   5.43164
    eigenvalues: 
  0.837  0.930  0.948
    eigenvectors:
  0.337  0.000  0.663
  0.496  0.251  0.253
  0.167  0.749  0.084
    occupations:
  0.911  0.045  0.026
  0.045  0.889 -0.024
  0.026 -0.024  0.916
atom   10   Tr[ns(na)] =   5.43164
    eigenvalues: 
  0.837  0.930  0.948
    eigenvectors:
  0.337  0.000  0.663
  0.499  0.249  0.252
  0.164  0.751  0.085
    occupations:
  0.911 -0.045  0.026
 -0.045  0.888  0.024
  0.026  0.024  0.916
N of occupied +U levels =  56.2952512
 --- exit write_ns ---
 --- in v_hubbard ---
Hubbard energy    0.3577
 -------

     total cpu time spent up to now is      171.5 secs

     total energy              =    -537.93714863 Ry
     Harris-Foulkes estimate   =    -537.93713073 Ry
     estimated scf accuracy    <       0.00000552 Ry

     iteration # 11     ecut=    30.00 Ry     beta=0.20
     Davidson diagonalization with overlap
     ethr =  5.57E-09,  avg # of iterations =  1.0
 --- enter write_ns ---
 LDA+U parameters:
U( 1)     =  6.00000000
alpha( 1) = -0.15000000
U( 2)     =  6.00000000
alpha( 2) =  0.00000000
U( 3)     =  0.00000000
alpha( 3) =  0.00000000
U( 4)     =  0.00000000
alpha( 4) =  0.00000000
atom    1   Tr[ns(na)] =   8.07095
    eigenvalues: 
  0.521  0.521  0.997  0.997  0.999
    eigenvectors:
  0.000  0.000  0.000  0.000  1.000
  0.340  0.319  0.002  0.340  0.000
  0.319  0.340  0.340  0.002  0.000
  0.288  0.053  0.521  0.137  0.000
  0.053  0.288  0.137  0.521  0.000
    occupations:
  0.999  0.000  0.000  0.000  0.000
  0.000  0.684  0.000 -0.087  0.208
  0.000  0.000  0.684  0.208  0.087
  0.000 -0.087  0.208  0.834  0.000
  0.000  0.208  0.087  0.000  0.834
atom    2   Tr[ns(na)] =   8.04758
    eigenvalues: 
  0.515  0.515  0.997  0.997  0.999
    eigenvectors:
  0.000  0.000  0.000  0.000  1.000
  0.642  0.016  0.225  0.117  0.000
  0.016  0.642  0.117  0.225  0.000
  0.019  0.323  0.475  0.183  0.000
  0.323  0.019  0.183  0.475  0.000
    occupations:
  0.999  0.000  0.000  0.000  0.000
  0.000  0.680  0.000  0.087  0.211
  0.000  0.000  0.680  0.211 -0.087
  0.000  0.087  0.211  0.832  0.000
  0.000  0.211 -0.087  0.000  0.832
atom    3   Tr[ns(na)] =   3.79172
    eigenvalues: 
  0.356  0.356  0.381  0.401  0.401
    eigenvectors:
  0.000  0.000  1.000  0.000  0.000
  0.783  0.139  0.000  0.012  0.067
  0.139  0.783  0.000  0.067  0.012
  0.012  0.066  0.000  0.781  0.141
  0.066  0.012  0.000  0.141  0.781
    occupations:
  0.381  0.000  0.000  0.000  0.000
  0.000  0.360  0.000  0.000  0.012
  0.000  0.000  0.360  0.012  0.000
  0.000  0.000  0.012  0.398  0.000
  0.000  0.012  0.000  0.000  0.398
atom    4   Tr[ns(na)] =   3.79172
    eigenvalues: 
  0.356  0.356  0.381  0.401  0.401
    eigenvectors:
  0.000  0.000  1.000  0.000  0.000
  0.783  0.139  0.000  0.012  0.067
  0.139  0.783  0.000  0.067  0.012
  0.012  0.066  0.000  0.781  0.141
  0.066  0.012  0.000  0.141  0.781
    occupations:
  0.381  0.000  0.000  0.000  0.000
  0.000  0.360  0.000  0.000  0.012
  0.000  0.000  0.360  0.012  0.000
  0.000  0.000  0.012  0.398  0.000
  0.000  0.012  0.000  0.000  0.398
atom    5   Tr[ns(na)] =   5.43213
    eigenvalues: 
  0.838  0.930  0.948
    eigenvectors:
  0.337  0.000  0.663
  0.496  0.251  0.253
  0.167  0.749  0.084
    occupations:
  0.911  0.045  0.026
  0.045  0.889 -0.024
  0.026 -0.024  0.916
atom    6   Tr[ns(na)] =   5.43213
    eigenvalues: 
  0.838  0.930  0.948
    eigenvectors:
  0.337  0.000  0.663
  0.000  1.000  0.000
  0.663  0.000  0.337
    occupations:
  0.911  0.000 -0.052
  0.000  0.930  0.000
 -0.052  0.000  0.875
atom    7   Tr[ns(na)] =   5.43213
    eigenvalues: 
  0.838  0.930  0.948
    eigenvectors:
  0.337  0.000  0.663
  0.499  0.249  0.252
  0.164  0.751  0.085
    occupations:
  0.911 -0.045  0.026
 -0.045  0.889  0.024
  0.026  0.024  0.917
atom    8   Tr[ns(na)] =   5.43213
    eigenvalues: 
  0.838  0.930  0.948
    eigenvectors:
  0.337  0.000  0.663
  0.000  1.000  0.000
  0.663  0.000  0.337
    occupations:
  0.911  0.000 -0.052
  0.000  0.930  0.000
 -0.052  0.000  0.875
atom    9   Tr[ns(na)] =   5.43213
    eigenvalues: 
  0.838  0.930  0.948
    eigenvectors:
  0.337  0.000  0.663
  0.496  0.251  0.253
  0.167  0.749  0.084
    occupations:
  0.911  0.045  0.026
  0.045  0.889 -0.024
  0.026 -0.024  0.916
atom   10   Tr[ns(na)] =   5.43213
    eigenvalues: 
  0.838  0.930  0.948
    eigenvectors:
  0.337  0.000  0.663
  0.499  0.249  0.252
  0.164  0.751  0.085
    occupations:
  0.911 -0.045  0.026
 -0.045  0.889  0.024
  0.026  0.024  0.917
N of occupied +U levels =  56.2947487
 --- exit write_ns ---
 --- in v_hubbard ---
Hubbard energy    0.3577
 -------

     total cpu time spent up to now is      184.6 secs

     total energy              =    -537.93716324 Ry
     Harris-Foulkes estimate   =    -537.93714960 Ry
     estimated scf accuracy    <       0.00000059 Ry

     iteration # 12     ecut=    30.00 Ry     beta=0.20
     Davidson diagonalization with overlap
     ethr =  7.73E-10,  avg # of iterations =  2.0
 --- enter write_ns ---
 LDA+U parameters:
U( 1)     =  6.00000000
alpha( 1) = -0.15000000
U( 2)     =  6.00000000
alpha( 2) =  0.00000000
U( 3)     =  0.00000000
alpha( 3) =  0.00000000
U( 4)     =  0.00000000
alpha( 4) =  0.00000000
atom    1   Tr[ns(na)] =   8.07126
    eigenvalues: 
  0.521  0.521  0.997  0.997  0.999
    eigenvectors:
  0.000  0.000  0.000  0.000  1.000
  0.340  0.318  0.002  0.340  0.000
  0.318  0.340  0.340  0.002  0.000
  0.289  0.053  0.521  0.137  0.000
  0.053  0.289  0.137  0.521  0.000
    occupations:
  0.999  0.000  0.000  0.000  0.000
  0.000  0.684  0.000 -0.087  0.208
  0.000  0.000  0.684  0.208  0.087
  0.000 -0.087  0.208  0.834  0.000
  0.000  0.208  0.087  0.000  0.834
atom    2   Tr[ns(na)] =   8.04808
    eigenvalues: 
  0.515  0.515  0.997  0.997  0.999
    eigenvectors:
  0.000  0.000  0.000  0.000  1.000
  0.643  0.016  0.225  0.116  0.000
  0.016  0.643  0.116  0.225  0.000
  0.019  0.323  0.475  0.183  0.000
  0.323  0.019  0.183  0.475  0.000
    occupations:
  0.999  0.000  0.000  0.000  0.000
  0.000  0.680  0.000  0.087  0.211
  0.000  0.000  0.680  0.211 -0.087
  0.000  0.087  0.211  0.832  0.000
  0.000  0.211 -0.087  0.000  0.832
atom    3   Tr[ns(na)] =   3.79199
    eigenvalues: 
  0.356  0.356  0.381  0.401  0.401
    eigenvectors:
  0.000  0.000  1.000  0.000  0.000
  0.783  0.138  0.000  0.012  0.067
  0.138  0.783  0.000  0.067  0.012
  0.012  0.066  0.000  0.780  0.141
  0.066  0.012  0.000  0.141  0.780
    occupations:
  0.381  0.000  0.000  0.000  0.000
  0.000  0.360  0.000  0.000  0.012
  0.000  0.000  0.360  0.012  0.000
  0.000  0.000  0.012  0.398  0.000
  0.000  0.012  0.000  0.000  0.398
atom    4   Tr[ns(na)] =   3.79199
    eigenvalues: 
  0.356  0.356  0.381  0.401  0.401
    eigenvectors:
  0.000  0.000  1.000  0.000  0.000
  0.783  0.139  0.000  0.011  0.067
  0.139  0.783  0.000  0.067  0.011
  0.012  0.066  0.000  0.781  0.141
  0.066  0.012  0.000  0.141  0.781
    occupations:
  0.381  0.000  0.000  0.000  0.000
  0.000  0.360  0.000  0.000  0.012
  0.000  0.000  0.360  0.012  0.000
  0.000  0.000  0.012  0.398  0.000
  0.000  0.012  0.000  0.000  0.398
atom    5   Tr[ns(na)] =   5.43195
    eigenvalues: 
  0.837  0.930  0.948
    eigenvectors:
  0.337  0.000  0.663
  0.496  0.251  0.253
  0.167  0.749  0.084
    occupations:
  0.911  0.045  0.026
  0.045  0.889 -0.024
  0.026 -0.024  0.916
atom    6   Tr[ns(na)] =   5.43195
    eigenvalues: 
  0.837  0.930  0.948
    eigenvectors:
  0.337  0.000  0.663
  0.000  1.000  0.000
  0.663  0.000  0.337
    occupations:
  0.911  0.000 -0.052
  0.000  0.930  0.000
 -0.052  0.000  0.875
atom    7   Tr[ns(na)] =   5.43195
    eigenvalues: 
  0.837  0.930  0.948
    eigenvectors:
  0.337  0.000  0.663
  0.499  0.249  0.252
  0.164  0.751  0.085
    occupations:
  0.911 -0.045  0.026
 -0.045  0.889  0.024
  0.026  0.024  0.917
atom    8   Tr[ns(na)] =   5.43195
    eigenvalues: 
  0.837  0.930  0.948
    eigenvectors:
  0.337  0.000  0.663
  0.000  1.000  0.000
  0.663  0.000  0.337
    occupations:
  0.911  0.000 -0.052
  0.000  0.930  0.000
 -0.052  0.000  0.875
atom    9   Tr[ns(na)] =   5.43195
    eigenvalues: 
  0.837  0.930  0.948
    eigenvectors:
  0.337  0.000  0.663
  0.496  0.251  0.253
  0.167  0.749  0.084
    occupations:
  0.911  0.045  0.026
  0.045  0.889 -0.024
  0.026 -0.024  0.916
atom   10   Tr[ns(na)] =   5.43195
    eigenvalues: 
  0.837  0.930  0.948
    eigenvectors:
  0.337  0.000  0.663
  0.499  0.249  0.252
  0.164  0.751  0.085
    occupations:
  0.911 -0.045  0.026
 -0.045  0.889  0.024
  0.026  0.024  0.917
N of occupied +U levels =  56.2950409
 --- exit write_ns ---
 --- in v_hubbard ---
Hubbard energy    0.3575
 -------

     total cpu time spent up to now is      200.7 secs

     total energy              =    -537.93717142 Ry
     Harris-Foulkes estimate   =    -537.93716356 Ry
     estimated scf accuracy    <       0.00000056 Ry

     iteration # 13     ecut=    30.00 Ry     beta=0.20
     Davidson diagonalization with overlap
     ethr =  7.33E-10,  avg # of iterations =  1.1
 --- enter write_ns ---
 LDA+U parameters:
U( 1)     =  6.00000000
alpha( 1) = -0.15000000
U( 2)     =  6.00000000
alpha( 2) =  0.00000000
U( 3)     =  0.00000000
alpha( 3) =  0.00000000
U( 4)     =  0.00000000
alpha( 4) =  0.00000000
atom    1   Tr[ns(na)] =   8.07097
    eigenvalues: 
  0.521  0.521  0.997  0.997  0.999
    eigenvectors:
  0.000  0.000  0.000  0.000  1.000
  0.340  0.318  0.002  0.340  0.000
  0.318  0.340  0.340  0.002  0.000
  0.289  0.053  0.521  0.137  0.000
  0.053  0.289  0.137  0.521  0.000
    occupations:
  0.999  0.000  0.000  0.000  0.000
  0.000  0.684  0.000 -0.087  0.208
  0.000  0.000  0.684  0.208  0.087
  0.000 -0.087  0.208  0.834  0.000
  0.000  0.208  0.087  0.000  0.834
atom    2   Tr[ns(na)] =   8.04760
    eigenvalues: 
  0.515  0.515  0.997  0.997  0.999
    eigenvectors:
  0.000  0.000  0.000  0.000  1.000
  0.643  0.016  0.226  0.116  0.000
  0.016  0.643  0.116  0.226  0.000
  0.019  0.323  0.475  0.184  0.000
  0.323  0.019  0.184  0.475  0.000
    occupations:
  0.999  0.000  0.000  0.000  0.000
  0.000  0.680  0.000  0.087  0.211
  0.000  0.000  0.680  0.211 -0.087
  0.000  0.087  0.211  0.832  0.000
  0.000  0.211 -0.087  0.000  0.832
atom    3   Tr[ns(na)] =   3.79185
    eigenvalues: 
  0.356  0.356  0.381  0.401  0.401
    eigenvectors:
  0.000  0.000  1.000  0.000  0.000
  0.782  0.139  0.000  0.012  0.067
  0.139  0.782  0.000  0.067  0.012
  0.012  0.066  0.000  0.781  0.141
  0.066  0.012  0.000  0.141  0.781
    occupations:
  0.381  0.000  0.000  0.000  0.000
  0.000  0.360  0.000  0.000  0.012
  0.000  0.000  0.360  0.012  0.000
  0.000  0.000  0.012  0.398  0.000
  0.000  0.012  0.000  0.000  0.398
atom    4   Tr[ns(na)] =   3.79185
    eigenvalues: 
  0.356  0.356  0.381  0.401  0.401
    eigenvectors:
  0.000  0.000  1.000  0.000  0.000
  0.782  0.139  0.000  0.011  0.067
  0.139  0.782  0.000  0.067  0.011
  0.012  0.066  0.000  0.781  0.141
  0.066  0.012  0.000  0.141  0.781
    occupations:
  0.381  0.000  0.000  0.000  0.000
  0.000  0.360  0.000  0.000  0.012
  0.000  0.000  0.360  0.012  0.000
  0.000  0.000  0.012  0.398  0.000
  0.000  0.012  0.000  0.000  0.398
atom    5   Tr[ns(na)] =   5.43210
    eigenvalues: 
  0.837  0.930  0.948
    eigenvectors:
  0.337  0.000  0.663
  0.496  0.251  0.253
  0.167  0.749  0.084
    occupations:
  0.911  0.045  0.026
  0.045  0.889 -0.024
  0.026 -0.024  0.916
atom    6   Tr[ns(na)] =   5.43210
    eigenvalues: 
  0.837  0.930  0.948
    eigenvectors:
  0.337  0.000  0.663
  0.000  1.000  0.000
  0.663  0.000  0.337
    occupations:
  0.911  0.000 -0.052
  0.000  0.930  0.000
 -0.052  0.000  0.875
atom    7   Tr[ns(na)] =   5.43210
    eigenvalues: 
  0.837  0.930  0.948
    eigenvectors:
  0.337  0.000  0.663
  0.499  0.249  0.252
  0.164  0.751  0.085
    occupations:
  0.911 -0.045  0.026
 -0.045  0.889  0.024
  0.026  0.024  0.917
atom    8   Tr[ns(na)] =   5.43210
    eigenvalues: 
  0.837  0.930  0.948
    eigenvectors:
  0.337  0.000  0.663
  0.000  1.000  0.000
  0.663  0.000  0.337
    occupations:
  0.911  0.000 -0.052
  0.000  0.930  0.000
 -0.052  0.000  0.875
atom    9   Tr[ns(na)] =   5.43210
    eigenvalues: 
  0.837  0.930  0.948
    eigenvectors:
  0.337  0.000  0.663
  0.496  0.251  0.253
  0.167  0.749  0.084
    occupations:
  0.911  0.045  0.026
  0.045  0.889 -0.024
  0.026 -0.024  0.916
atom   10   Tr[ns(na)] =   5.43210
    eigenvalues: 
  0.837  0.930  0.948
    eigenvectors:
  0.337  0.000  0.663
  0.499  0.249  0.252
  0.164  0.751  0.085
    occupations:
  0.911 -0.045  0.026
 -0.045  0.889  0.024
  0.026  0.024  0.917
N of occupied +U levels =  56.2948865
 --- exit write_ns ---
 --- in v_hubbard ---
Hubbard energy    0.3575
 -------

     total cpu time spent up to now is      214.0 secs

     total energy              =    -537.93717714 Ry
     Harris-Foulkes estimate   =    -537.93717156 Ry
     estimated scf accuracy    <       0.00000001 Ry

     iteration # 14     ecut=    30.00 Ry     beta=0.20
     Davidson diagonalization with overlap
     ethr =  1.42E-11,  avg # of iterations =  3.0
 --- enter write_ns ---
 LDA+U parameters:
U( 1)     =  6.00000000
alpha( 1) = -0.15000000
U( 2)     =  6.00000000
alpha( 2) =  0.00000000
U( 3)     =  0.00000000
alpha( 3) =  0.00000000
U( 4)     =  0.00000000
alpha( 4) =  0.00000000
atom    1   Tr[ns(na)] =   8.07100
    eigenvalues: 
  0.521  0.521  0.997  0.997  0.999
    eigenvectors:
  0.000  0.000  0.000  0.000  1.000
  0.340  0.318  0.002  0.340  0.000
  0.318  0.340  0.340  0.002  0.000
  0.289  0.053  0.521  0.137  0.000
  0.053  0.289  0.137  0.521  0.000
    occupations:
  0.999  0.000  0.000  0.000  0.000
  0.000  0.684  0.000 -0.087  0.208
  0.000  0.000  0.684  0.208  0.087
  0.000 -0.087  0.208  0.834  0.000
  0.000  0.208  0.087  0.000  0.834
atom    2   Tr[ns(na)] =   8.04769
    eigenvalues: 
  0.515  0.515  0.997  0.997  0.999
    eigenvectors:
  0.000  0.000  0.000  0.000  1.000
  0.642  0.016  0.226  0.116  0.000
  0.016  0.642  0.116  0.226  0.000
  0.019  0.323  0.475  0.183  0.000
  0.323  0.019  0.183  0.475  0.000
    occupations:
  0.999  0.000  0.000  0.000  0.000
  0.000  0.680  0.000  0.087  0.211
  0.000  0.000  0.680  0.211 -0.087
  0.000  0.087  0.211  0.832  0.000
  0.000  0.211 -0.087  0.000  0.832
atom    3   Tr[ns(na)] =   3.79183
    eigenvalues: 
  0.356  0.356  0.381  0.401  0.401
    eigenvectors:
  0.000  0.000  1.000  0.000  0.000
  0.783  0.139  0.000  0.012  0.067
  0.139  0.783  0.000  0.067  0.012
  0.012  0.066  0.000  0.781  0.141
  0.066  0.012  0.000  0.141  0.781
    occupations:
  0.381  0.000  0.000  0.000  0.000
  0.000  0.360  0.000  0.000  0.012
  0.000  0.000  0.360  0.012  0.000
  0.000  0.000  0.012  0.398  0.000
  0.000  0.012  0.000  0.000  0.398
atom    4   Tr[ns(na)] =   3.79183
    eigenvalues: 
  0.356  0.356  0.381  0.401  0.401
    eigenvectors:
  0.000  0.000  1.000  0.000  0.000
  0.783  0.139  0.000  0.011  0.067
  0.139  0.783  0.000  0.067  0.011
  0.012  0.066  0.000  0.781  0.141
  0.066  0.012  0.000  0.141  0.781
    occupations:
  0.381  0.000  0.000  0.000  0.000
  0.000  0.360  0.000  0.000  0.012
  0.000  0.000  0.360  0.012  0.000
  0.000  0.000  0.012  0.398  0.000
  0.000  0.012  0.000  0.000  0.398
atom    5   Tr[ns(na)] =   5.43209
    eigenvalues: 
  0.837  0.930  0.948
    eigenvectors:
  0.337  0.000  0.663
  0.496  0.251  0.253
  0.167  0.749  0.084
    occupations:
  0.911  0.045  0.026
  0.045  0.889 -0.024
  0.026 -0.024  0.916
atom    6   Tr[ns(na)] =   5.43209
    eigenvalues: 
  0.837  0.930  0.948
    eigenvectors:
  0.337  0.000  0.663
  0.000  1.000  0.000
  0.663  0.000  0.337
    occupations:
  0.911  0.000 -0.052
  0.000  0.930  0.000
 -0.052  0.000  0.875
atom    7   Tr[ns(na)] =   5.43209
    eigenvalues: 
  0.837  0.930  0.948
    eigenvectors:
  0.337  0.000  0.663
  0.499  0.249  0.252
  0.164  0.751  0.085
    occupations:
  0.911 -0.045  0.026
 -0.045  0.889  0.024
  0.026  0.024  0.917
atom    8   Tr[ns(na)] =   5.43209
    eigenvalues: 
  0.837  0.930  0.948
    eigenvectors:
  0.337  0.000  0.663
  0.000  1.000  0.000
  0.663  0.000  0.337
    occupations:
  0.911  0.000 -0.052
  0.000  0.930  0.000
 -0.052  0.000  0.875
atom    9   Tr[ns(na)] =   5.43209
    eigenvalues: 
  0.837  0.930  0.948
    eigenvectors:
  0.337  0.000  0.663
  0.496  0.251  0.253
  0.167  0.749  0.084
    occupations:
  0.911  0.045  0.026
  0.045  0.889 -0.024
  0.026 -0.024  0.916
atom   10   Tr[ns(na)] =   5.43209
    eigenvalues: 
  0.837  0.930  0.948
    eigenvectors:
  0.337  0.000  0.663
  0.499  0.249  0.252
  0.164  0.751  0.085
    occupations:
  0.911 -0.045  0.026
 -0.045  0.889  0.024
  0.026  0.024  0.917
N of occupied +U levels =  56.2948961
 --- exit write_ns ---
 --- in v_hubbard ---
Hubbard energy    0.3574
 -------

     total cpu time spent up to now is      230.6 secs

     End of self-consistent calculation

          k = 0.0000 0.0000 0.0000 (  2175 PWs)   bands (ev):

   -19.7998 -19.6266  -6.5562  -5.9026  -5.9026  -5.8308  -5.8308  -5.4917
    -3.9140  -3.3023  -3.3023  -3.2616  -3.0281  -3.0281   5.1669   6.1498
     6.1498   6.1997   6.6105   6.6105   7.5060   7.5060   7.6976   7.7036
     8.0261   8.0261   9.2885   9.6174   9.6174   9.9680   9.9680  10.1454
    10.4495  10.4495  10.6665  10.7044  10.7044  11.0132  11.8269  11.8269
    14.7081  14.7081  15.4254  15.4254  16.1978  16.7833

     occupation numbers 
     0.0313   0.0313   0.0313   0.0313   0.0313   0.0313   0.0313   0.0313
     0.0313   0.0313   0.0313   0.0313   0.0313   0.0313   0.0313   0.0313
     0.0313   0.0313   0.0313   0.0313   0.0313   0.0313   0.0313   0.0313
     0.0313   0.0313   0.0312   0.0312   0.0312   0.0312   0.0312   0.0312
     0.0312   0.0312   0.0311   0.0310   0.0310   0.0287   0.0024   0.0024
     0.0000   0.0000   0.0000   0.0000   0.0000   0.0000

          k =-0.2471-0.1427 0.1027 (  2181 PWs)   bands (ev):

   -19.7759 -19.6716  -6.7344  -6.3135  -5.9881  -5.8769  -5.6297  -5.4994
    -3.6800  -3.4361  -2.9611  -2.9190  -2.8877  -2.7771   5.4526   5.9213
     6.1976   6.2572   6.5827   6.6063   6.8824   7.2722   7.4280   7.5665
     7.6225   7.8999   9.3305   9.4903   9.6901   9.8389   9.8731   9.9642
    10.1874  10.3572  10.3880  10.6733  10.7885  10.8273  12.2530  12.3273
    14.2549  14.2662  15.8127  16.0659  16.9694  17.2633

     occupation numbers 
     0.1875   0.1875   0.1875   0.1875   0.1875   0.1875   0.1875   0.1875
     0.1875   0.1875   0.1875   0.1875   0.1875   0.1875   0.1875   0.1875
     0.1875   0.1875   0.1875   0.1875   0.1875   0.1875   0.1875   0.1875
     0.1875   0.1875   0.1875   0.1875   0.1875   0.1875   0.1875   0.1875
     0.1875   0.1875   0.1875   0.1865   0.1847   0.1836   0.0003   0.0001
     0.0000   0.0000   0.0000   0.0000   0.0000   0.0000

          k = 0.4942 0.2853-0.2053 (  2202 PWs)   bands (ev):

   -19.7354 -19.7339  -6.7330  -6.7228  -5.9958  -5.9808  -5.5486  -5.5343
    -3.4265  -3.4201  -2.8193  -2.8134  -2.5125  -2.5109   5.6087   5.6439
     6.3204   6.3674   6.5041   6.5554   6.8568   6.8780   7.2332   7.2810
     7.3704   7.4238   9.3166   9.3208   9.7448   9.7600  10.0048  10.0315
    10.1105  10.1316  10.3504  10.3659  10.5822  10.6086  13.2380  13.2829
    13.3213  13.3661  16.8275  16.8321  17.1241  17.1258

     occupation numbers 
     0.0938   0.0938   0.0938   0.0938   0.0938   0.0938   0.0938   0.0938
     0.0938   0.0938   0.0938   0.0938   0.0938   0.0938   0.0938   0.0938
     0.0938   0.0938   0.0938   0.0938   0.0938   0.0938   0.0938   0.0938
     0.0938   0.0938   0.0937   0.0937   0.0937   0.0937   0.0937   0.0937
     0.0937   0.0937   0.0937   0.0937   0.0936   0.0935   0.0000   0.0000
     0.0000   0.0000   0.0000   0.0000   0.0000   0.0000

          k =-0.2471 0.1427 0.2053 (  2195 PWs)   bands (ev):

   -19.7672 -19.6874  -6.8622  -6.2642  -6.0901  -5.8514  -5.6700  -5.4968
    -3.4727  -3.2869  -3.1352  -2.9246  -2.8566  -2.5665   5.5055   5.6113
     6.0725   6.2723   6.5554   6.9244   7.0165   7.2593   7.2898   7.5207
     7.6902   7.9761   8.7104   9.2764   9.6876   9.8155   9.9461   9.9517
    10.2379  10.4284  10.5681  10.6517  10.7260  10.7411  11.7638  12.6831
    13.5851  14.7273  15.9902  16.1926  17.0332  17.5346

     occupation numbers 
     0.1875   0.1875   0.1875   0.1875   0.1875   0.1875   0.1875   0.1875
     0.1875   0.1875   0.1875   0.1875   0.1875   0.1875   0.1875   0.1875
     0.1875   0.1875   0.1875   0.1875   0.1875   0.1875   0.1875   0.1875
     0.1875   0.1875   0.1875   0.1875   0.1875   0.1875   0.1875   0.1875
     0.1875   0.1874   0.1872   0.1867   0.1859   0.1857   0.0212   0.0000
     0.0000   0.0000   0.0000   0.0000   0.0000   0.0000

          k = 0.4942 0.5706-0.1027 (  2198 PWs)   bands (ev):

   -19.7421 -19.7335  -6.9656  -6.6562  -6.1445  -5.9074  -5.5323  -5.4115
    -3.3458  -3.2799  -2.8940  -2.7235  -2.5381  -2.3941   5.3595   5.7734
     5.9243   6.4081   6.4346   6.5873   6.6337   7.0157   7.2445   7.3617
     7.7920   7.9028   8.7757   9.1030   9.4361   9.6696   9.6819  10.0041
    10.2175  10.3209  10.3408  10.4567  10.6343  10.8198  12.2461  12.6877
    13.3798  14.3076  16.9004  17.1090  17.3015  18.0101

     occupation numbers 
     0.1875   0.1875   0.1875   0.1875   0.1875   0.1875   0.1875   0.1875
     0.1875   0.1875   0.1875   0.1875   0.1875   0.1875   0.1875   0.1875
     0.1875   0.1875   0.1875   0.1875   0.1875   0.1875   0.1875   0.1875
     0.1875   0.1875   0.1875   0.1875   0.1875   0.1875   0.1875   0.1875
     0.1875   0.1875   0.1875   0.1874   0.1869   0.1838   0.0004   0.0000
     0.0000   0.0000   0.0000   0.0000   0.0000   0.0000

          k = 0.2471 0.4280 0.0000 (  2203 PWs)   bands (ev):

   -19.7552 -19.7133  -6.8550  -6.6565  -6.0647  -5.9982  -5.4605  -5.3940
    -3.5886  -3.3149  -2.8142  -2.7162  -2.5897  -2.5785   5.5335   5.7312
     6.1504   6.2559   6.4714   6.5671   6.7950   6.9339   7.2198   7.3568
     7.4114   8.1660   8.8545   9.2705   9.6442   9.7016   9.8745  10.0696
    10.1865  10.2495  10.3452  10.4255  10.4886  10.8954  12.1516  13.2688
    13.3511  14.1018  16.4281  16.9898  17.4156  17.9207

     occupation numbers 
     0.1875   0.1875   0.1875   0.1875   0.1875   0.1875   0.1875   0.1875
     0.1875   0.1875   0.1875   0.1875   0.1875   0.1875   0.1875   0.1875
     0.1875   0.1875   0.1875   0.1875   0.1875   0.1875   0.1875   0.1875
     0.1875   0.1875   0.1875   0.1875   0.1875   0.1875   0.1875   0.1875
     0.1875   0.1875   0.1875   0.1874   0.1874   0.1807   0.0010   0.0000
     0.0000   0.0000   0.0000   0.0000   0.0000   0.0000

          k = 0.4942-0.2853-0.4107 (  2202 PWs)   bands (ev):

   -19.7477 -19.7340  -7.1792  -6.4585  -6.2443  -5.9911  -5.5392  -5.3255
    -3.2315  -3.1214  -3.0772  -2.6536  -2.4853  -2.2291   4.9640   5.6555
     5.7461   6.3662   6.4736   6.9101   7.0176   7.0892   7.1401   7.2497
     7.9899   8.1591   8.2956   8.5979   9.4075   9.6691  10.0235  10.0564
    10.0914  10.2261  10.3221  10.5664  10.5891  10.9303  11.7210  12.3513
    13.2821  14.7428  17.0409  17.2630  17.5150  17.6101

     occupation numbers 
     0.0938   0.0938   0.0938   0.0938   0.0938   0.0938   0.0938   0.0938
     0.0938   0.0938   0.0938   0.0938   0.0938   0.0938   0.0938   0.0938
     0.0938   0.0938   0.0938   0.0938   0.0938   0.0938   0.0938   0.0938
     0.0938   0.0938   0.0938   0.0938   0.0937   0.0937   0.0937   0.0937
     0.0937   0.0937   0.0937   0.0936   0.0936   0.0894   0.0135   0.0001
     0.0000   0.0000   0.0000   0.0000   0.0000   0.0000

          k = 0.0000 0.0000 0.3080 (  2187 PWs)   bands (ev):

   -19.7755 -19.6740  -6.6223  -6.0012  -5.9723  -5.9723  -5.8608  -5.8608
    -3.2483  -3.1769  -3.1769  -2.9840  -2.9085  -2.9085   5.5904   5.8991
     6.2016   6.2016   6.6318   6.6318   6.9235   7.4143   7.4143   7.6767
     7.6767   7.7685   9.4102   9.4102   9.4305   9.6721  10.0684  10.0684
    10.0891  10.0891  10.4468  10.7335  10.7631  10.7631  12.2240  12.2240
    14.2163  14.2163  15.9083  15.9083  16.8755  17.4771

     occupation numbers 
     0.0625   0.0625   0.0625   0.0625   0.0625   0.0625   0.0625   0.0625
     0.0625   0.0625   0.0625   0.0625   0.0625   0.0625   0.0625   0.0625
     0.0625   0.0625   0.0625   0.0625   0.0625   0.0625   0.0625   0.0625
     0.0625   0.0625   0.0625   0.0625   0.0625   0.0625   0.0625   0.0625
     0.0625   0.0625   0.0625   0.0619   0.0617   0.0617   0.0002   0.0002
     0.0000   0.0000   0.0000   0.0000   0.0000   0.0000

          k = 0.7412 0.4280 0.0000 (  2204 PWs)   bands (ev):

   -19.7542 -19.7162  -6.7405  -6.6217  -6.1554  -5.8480  -5.7219  -5.5686
    -3.2264  -3.1166  -3.0566  -2.6883  -2.6783  -2.5968   5.6269   5.7961
     6.0296   6.4022   6.4301   6.6972   6.7801   6.9269   7.2697   7.3491
     7.5111   7.9910   8.8334   9.3799   9.3861   9.6444   9.8077  10.0714
    10.2183  10.2369  10.4580  10.4725  10.5270  10.6019  12.1487  13.1886
    13.2665  14.1314  16.6801  16.7217  17.5861  17.7893

     occupation numbers 
     0.1875   0.1875   0.1875   0.1875   0.1875   0.1875   0.1875   0.1875
     0.1875   0.1875   0.1875   0.1875   0.1875   0.1875   0.1875   0.1875
     0.1875   0.1875   0.1875   0.1875   0.1875   0.1875   0.1875   0.1875
     0.1875   0.1875   0.1875   0.1875   0.1875   0.1875   0.1875   0.1875
     0.1875   0.1875   0.1874   0.1874   0.1873   0.1870   0.0010   0.0000
     0.0000   0.0000   0.0000   0.0000   0.0000   0.0000

          k = 0.4942 0.2853 0.1027 (  2211 PWs)   bands (ev):

   -19.7435 -19.7321  -6.9824  -6.5525  -6.3358  -5.7243  -5.6345  -5.3856
    -3.3613  -3.1804  -3.0639  -2.6097  -2.5758  -2.3857   5.3737   5.8229
     5.8591   6.2234   6.4849   6.7233   6.8162   6.8446   7.2366   7.2640
     7.8564   7.9428   8.7445   9.2539   9.3161   9.5819   9.8386   9.8865
    10.2840  10.3022  10.4702  10.5402  10.5928  10.6397  12.2017  12.7009
    13.4273  14.2892  16.8807  16.9302  17.5729  17.9221

     occupation numbers 
     0.1875   0.1875   0.1875   0.1875   0.1875   0.1875   0.1875   0.1875
     0.1875   0.1875   0.1875   0.1875   0.1875   0.1875   0.1875   0.1875
     0.1875   0.1875   0.1875   0.1875   0.1875   0.1875   0.1875   0.1875
     0.1875   0.1875   0.1875   0.1875   0.1875   0.1875   0.1875   0.1875
     0.1875   0.1875   0.1874   0.1873   0.1871   0.1868   0.0006   0.0000
     0.0000   0.0000   0.0000   0.0000   0.0000   0.0000

          k = 0.7412-0.4280-0.3080 (  2210 PWs)   bands (ev):

   -19.7431 -19.7345  -6.9194  -6.4646  -6.3141  -5.8059  -5.7849  -5.5182
    -3.0956  -3.0783  -2.9808  -2.7446  -2.6370  -2.4364   5.4291   5.8944
     5.9407   6.2420   6.4961   6.6103   6.8297   6.9416   7.2753   7.3138
     7.8413   7.9156   8.6884   9.1869   9.3724   9.4513   9.6238  10.0125
    10.2240  10.2660  10.3849  10.5198  10.6423  10.6758  12.1620  12.6549
    13.3762  14.2593  17.0551  17.0654  17.5410  17.8974

     occupation numbers 
     0.1875   0.1875   0.1875   0.1875   0.1875   0.1875   0.1875   0.1875
     0.1875   0.1875   0.1875   0.1875   0.1875   0.1875   0.1875   0.1875
     0.1875   0.1875   0.1875   0.1875   0.1875   0.1875   0.1875   0.1875
     0.1875   0.1875   0.1875   0.1875   0.1875   0.1875   0.1875   0.1875
     0.1875   0.1875   0.1875   0.1873   0.1868   0.1865   0.0009   0.0000
     0.0000   0.0000   0.0000   0.0000   0.0000   0.0000

          k = 0.4942-0.5706-0.2053 (  2206 PWs)   bands (ev):

   -19.7415 -19.7414  -6.8924  -6.8903  -6.0433  -6.0412  -5.4564  -5.4504
    -3.1721  -3.1713  -2.8338  -2.8335  -2.3900  -2.3879   5.6345   5.6438
     5.8473   5.8719   6.5773   6.5858   6.7689   6.8005   7.2304   7.2505
     8.1491   8.1504   8.7569   8.7578   9.4074   9.4094   9.8884   9.8979
    10.2053  10.2177  10.3491  10.3629  10.7012  10.7121  12.2071  12.2086
    13.9519  13.9653  17.4197  17.4200  17.8652  17.8675

     occupation numbers 
     0.1875   0.1875   0.1875   0.1875   0.1875   0.1875   0.1875   0.1875
     0.1875   0.1875   0.1875   0.1875   0.1875   0.1875   0.1875   0.1875
     0.1875   0.1875   0.1875   0.1875   0.1875   0.1875   0.1875   0.1875
     0.1875   0.1875   0.1875   0.1875   0.1875   0.1875   0.1875   0.1875
     0.1875   0.1875   0.1875   0.1875   0.1862   0.1861   0.0006   0.0006
     0.0000   0.0000   0.0000   0.0000   0.0000   0.0000

          k = 0.0000 0.0000-0.6160 (  2186 PWs)   bands (ev):

   -19.7375 -19.7359  -6.5226  -6.5094  -5.9722  -5.9722  -5.9588  -5.9588
    -2.9233  -2.9233  -2.9168  -2.9168  -2.7101  -2.7099   5.8235   5.8601
     6.4041   6.4041   6.4565   6.4565   6.8465   6.8659   7.3342   7.3342
     7.3848   7.3848   9.5050   9.5050   9.5133   9.5133   9.5744   9.5881
    10.2897  10.3198  10.4311  10.4311  10.4581  10.4581  13.1773  13.1773
    13.2203  13.2203  17.1121  17.1121  17.1132  17.1132

     occupation numbers 
     0.0313   0.0313   0.0313   0.0313   0.0313   0.0313   0.0313   0.0313
     0.0313   0.0313   0.0313   0.0313   0.0313   0.0313   0.0313   0.0313
     0.0313   0.0313   0.0313   0.0313   0.0313   0.0313   0.0313   0.0313
     0.0313   0.0313   0.0312   0.0312   0.0312   0.0312   0.0312   0.0312
     0.0312   0.0312   0.0312   0.0312   0.0312   0.0312   0.0000   0.0000
     0.0000   0.0000   0.0000   0.0000   0.0000   0.0000

          k = 0.4942-0.5706 0.1027 (  2198 PWs)   bands (ev):

   -19.7421 -19.7335  -6.9669  -6.6577  -6.1416  -5.9007  -5.5354  -5.4155
    -3.3474  -3.2797  -2.8930  -2.7217  -2.5388  -2.3944   5.3548   5.7865
     5.9188   6.3954   6.4463   6.5597   6.6662   7.0097   7.2492   7.3529
     7.7864   7.9134   8.7761   9.1007   9.4350   9.6666   9.6859  10.0015
    10.2258  10.3106  10.3407  10.4567  10.6458  10.8142  12.2461  12.6871
    13.3793  14.3076  16.9021  17.1063  17.3020  18.0112

     occupation numbers 
     0.1875   0.1875   0.1875   0.1875   0.1875   0.1875   0.1875   0.1875
     0.1875   0.1875   0.1875   0.1875   0.1875   0.1875   0.1875   0.1875
     0.1875   0.1875   0.1875   0.1875   0.1875   0.1875   0.1875   0.1875
     0.1875   0.1875   0.1875   0.1875   0.1875   0.1875   0.1875   0.1875
     0.1875   0.1875   0.1875   0.1874   0.1868   0.1840   0.0004   0.0000
     0.0000   0.0000   0.0000   0.0000   0.0000   0.0000

     the Fermi energy is    11.4143 ev

!    total energy              =    -537.93718697 Ry
     Harris-Foulkes estimate   =    -537.93717714 Ry
     estimated scf accuracy    <          5.2E-09 Ry

     The total energy is the sum of the following terms:

     one-electron contribution =     -32.91013705 Ry
     hartree contribution      =      83.68885159 Ry
     xc contribution           =    -199.62593670 Ry
     ewald contribution        =    -389.44315552 Ry
     Hubbard energy            =       0.35743856 Ry
     smearing contrib. (-TS)   =      -0.00424785 Ry

     convergence has been achieved in  14 iterations

     init_run     :      7.39s CPU      7.47s WALL (       1 calls)
     electrons    :    220.88s CPU    222.54s WALL (       1 calls)

     Called by init_run:
     wfcinit      :      0.00s CPU      0.00s WALL (       1 calls)
     potinit      :      0.28s CPU      0.30s WALL (       1 calls)

     Called by electrons:
     c_bands      :    141.32s CPU    142.09s WALL (      14 calls)
     sum_band     :     45.19s CPU     45.50s WALL (      14 calls)
     v_of_rho     :      3.91s CPU      3.92s WALL (      15 calls)
     v_h          :      0.23s CPU      0.23s WALL (      15 calls)
     v_xc         :      3.67s CPU      3.68s WALL (      15 calls)
     newd         :     31.37s CPU     31.44s WALL (      15 calls)
     mix_rho      :      0.46s CPU      0.46s WALL (      14 calls)

     Called by c_bands:
     init_us_2    :      1.60s CPU      1.60s WALL (     392 calls)
     cegterg      :    137.05s CPU    137.56s WALL (     196 calls)

     Called by sum_band:
     sum_band:bec :      0.15s CPU      0.15s WALL (     196 calls)
     addusdens    :     19.64s CPU     19.68s WALL (      14 calls)

     Called by *egterg:
     h_psi        :    103.98s CPU    104.39s WALL (     733 calls)
     s_psi        :      5.82s CPU      5.84s WALL (     733 calls)
     g_psi        :      0.46s CPU      0.47s WALL (     537 calls)
     cdiaghg      :      8.71s CPU      8.76s WALL (     719 calls)
     cegterg:over :      6.50s CPU      6.52s WALL (     537 calls)
     cegterg:upda :      4.30s CPU      4.29s WALL (     537 calls)
     cegterg:last :      3.17s CPU      3.19s WALL (     222 calls)

     Called by h_psi:
     h_psi:vloc   :     85.04s CPU     85.39s WALL (     733 calls)
     h_psi:vnl    :     12.01s CPU     12.06s WALL (     733 calls)
     add_vuspsi   :      5.94s CPU      5.96s WALL (     733 calls)
     vhpsi        :      6.64s CPU      6.66s WALL (     733 calls)

     General routines
     calbec       :     12.65s CPU     12.70s WALL (    1858 calls)
     fft          :      2.63s CPU      2.70s WALL (     235 calls)
     ffts         :      0.07s CPU      0.13s WALL (      29 calls)
     fftw         :     79.43s CPU     79.65s WALL (   55332 calls)
     interpolate  :      0.47s CPU      0.55s WALL (      29 calls)
     davcio       :      0.01s CPU      0.50s WALL (     406 calls)

     Parallel routines
     fft_scatter  :     21.60s CPU     21.64s WALL (   55596 calls)
     Hubbard U routines
     new_ns       :      1.32s CPU      1.55s WALL (      14 calls)
     vhpsi        :      6.64s CPU      6.66s WALL (     733 calls)

     PWSCF        :  3m48.85s CPU     3m50.61s WALL


   This run was terminated on:   5:27:18  13Nov2012            

=------------------------------------------------------------------------------=
