   JOB DONE.
=------------------------------------------------------------------------------=

     Program PWSCF v.5.0.1 starts on 13Nov2012 at  5:35:10 

     This program is part of the open-source Quantum ESPRESSO suite
     for quantum simulation of materials; please cite
         "P. Giannozzi et al., J. Phys.:Condens. Matter 21 395502 (2009);
          URL http://www.quantum-espresso.org", 
     in publications or presentations arising from this work. More details at
     http://www.quantum-espresso.org/quote.php

     Parallel version (MPI), running on     2 processors
     R & G space division:  proc/pool =    2

     Current dimensions of program PWSCF are:
     Max number of different atomic species (ntypx) = 10
     Max number of k-points (npk) =  40000
     Max angular momentum in pseudopotentials (lmaxx) =  3
     Reading input from CoLaO_U600_a0.in
               file Co.pbe-nd-rrkjus.UPF: wavefunction(s)  4S 3D renormalized
               file Co.pbe-nd-rrkjus.UPF: wavefunction(s)  4S 3D renormalized
               file O.pbe-rrkjus.UPF: wavefunction(s)  2S renormalized

     Subspace diagonalization in iterative solution of the eigenvalue problem:
     a serial algorithm will be used


     Parallelization info
     --------------------
     sticks:   dense  smooth     PW     G-vecs:    dense   smooth      PW
     Min        1112     444    131                34808     8786    1448
     Max        1113     445    132                34809     8787    1449
     Sum        2225     889    263                69617    17573    2897


     Title: 
     GGA + U, U = 6.000, alpha = 1D-40                                          


     bravais-lattice index     =            5
     lattice parameter (alat)  =      10.3292  a.u.
     unit-cell volume          =     793.0599 (a.u.)^3
     number of atoms/cell      =           10
     number of atomic types    =            4
     number of electrons       =        76.00
     number of Kohn-Sham states=           46
     kinetic-energy cutoff     =      30.0000  Ry
     charge density cutoff     =     300.0000  Ry
     convergence threshold     =      1.0E-08
     mixing beta               =       0.2000
     number of iterations used =            8  plain     mixing
     Exchange-correlation      =  SLA  PW   PBE  PBE ( 1 4 3 4 0)
     EXX-fraction              =        0.00

     celldm(1)=  10.329242  celldm(2)=   0.000000  celldm(3)=   0.000000
     celldm(4)=   0.488100  celldm(5)=   0.000000  celldm(6)=   0.000000

     crystal axes: (cart. coord. in units of alat)
               a(1) = (   0.505915  -0.292090   0.811624 )  
               a(2) = (   0.000000   0.584180   0.811624 )  
               a(3) = (  -0.505915  -0.292090   0.811624 )  

     reciprocal axes: (cart. coord. in units 2 pi/alat)
               b(1) = (  0.988308 -0.570600  0.410699 )  
               b(2) = (  0.000000  1.141200  0.410699 )  
               b(3) = ( -0.988308 -0.570600  0.410699 )  


     PseudoPot. # 1 for Co read from file:
     /home/mcurnan/dft-course/Project1/example_LaCoO3/Co.pbe-nd-rrkjus.UPF
     MD5 check sum: 3e47a84addf5e975e0edeaeee2a73f59
     Pseudo is Ultrasoft + core correction, Zval =  9.0
     Generated by new atomic code, or converted to UPF format
     Using radial grid of  961 points,  6 beta functions with: 
                l(1) =   0
                l(2) =   0
                l(3) =   1
                l(4) =   1
                l(5) =   2
                l(6) =   2
     Q(r) pseudized with 0 coefficients 


     PseudoPot. # 2 for Co read from file:
     /home/mcurnan/dft-course/Project1/example_LaCoO3/Co.pbe-nd-rrkjus.UPF
     MD5 check sum: 3e47a84addf5e975e0edeaeee2a73f59
     Pseudo is Ultrasoft + core correction, Zval =  9.0
     Generated by new atomic code, or converted to UPF format
     Using radial grid of  961 points,  6 beta functions with: 
                l(1) =   0
                l(2) =   0
                l(3) =   1
                l(4) =   1
                l(5) =   2
                l(6) =   2
     Q(r) pseudized with 0 coefficients 


     PseudoPot. # 3 for La read from file:
     /home/mcurnan/dft-course/Project1/example_LaCoO3/La.pbe-nsp-van.UPF
     MD5 check sum: b2f11743f52dde65f77d1302becd7929
     Pseudo is Ultrasoft + core correction, Zval = 11.0
     Generated by new atomic code, or converted to UPF format
     Using radial grid of  907 points,  6 beta functions with: 
                l(1) =   0
                l(2) =   0
                l(3) =   1
                l(4) =   1
                l(5) =   2
                l(6) =   2
     Q(r) pseudized with  6 coefficients,  rinner =    1.200   1.200   1.200
                                                       1.200   1.200

     PseudoPot. # 4 for O  read from file:
     /home/mcurnan/dft-course/Project1/example_LaCoO3/O.pbe-rrkjus.UPF
     MD5 check sum: 390ba29e75625707450f3bd3f0eb6be9
     Pseudo is Ultrasoft, Zval =  6.0
     Generated by new atomic code, or converted to UPF format
     Using radial grid of 1269 points,  4 beta functions with: 
                l(1) =   0
                l(2) =   0
                l(3) =   1
                l(4) =   1
     Q(r) pseudized with 0 coefficients 


     atomic species   valence    mass     pseudopotential
        Co1            9.00     1.00000     Co( 1.00)
        Co2            9.00     1.00000     Co( 1.00)
        La1           11.00     1.00000     La( 1.00)
        O1             6.00     1.00000     O ( 1.00)
 -----
     simplified LDA+U calculation, Hubbard_lmax = 2
     atomic species  L   Hubbard U  Hubbard alpha
        Co1          2    6.000000    0.000000
        Co2          2    6.000000    0.000000
        La1          2    0.000000    0.000000
        O1           1    0.000000    0.000000
 -----

      6 Sym. Ops., with inversion, found


                                    s                        frac. trans.

      isym =  1     identity                                     

 cryst.   s( 1) = (     1          0          0      )
                  (     0          1          0      )
                  (     0          0          1      )

 cart.    s( 1) = (  1.0000000  0.0000000  0.0000000 )
                  (  0.0000000  1.0000000  0.0000000 )
                  (  0.0000000  0.0000000  1.0000000 )


      isym =  2     120 deg rotation - cryst. axis [0,0,1]       

 cryst.   s( 2) = (     0          1          0      )
                  (     0          0          1      )
                  (     1          0          0      )

 cart.    s( 2) = ( -0.5000000 -0.8660254  0.0000000 )
                  (  0.8660254 -0.5000000  0.0000000 )
                  (  0.0000000  0.0000000  1.0000000 )


      isym =  3     120 deg rotation - cryst. axis [0,0,-1]      

 cryst.   s( 3) = (     0          0          1      )
                  (     1          0          0      )
                  (     0          1          0      )

 cart.    s( 3) = ( -0.5000000  0.8660254  0.0000000 )
                  ( -0.8660254 -0.5000000  0.0000000 )
                  (  0.0000000  0.0000000  1.0000000 )


      isym =  4     inversion                                    

 cryst.   s( 4) = (    -1          0          0      )
                  (     0         -1          0      )
                  (     0          0         -1      )

 cart.    s( 4) = ( -1.0000000  0.0000000  0.0000000 )
                  (  0.0000000 -1.0000000  0.0000000 )
                  (  0.0000000  0.0000000 -1.0000000 )


      isym =  5     inv. 180 deg rotation - cart. axis [0,1,0]   

 cryst.   s( 5) = (     0         -1          0      )
                  (     0          0         -1      )
                  (    -1          0          0      )

 cart.    s( 5) = (  0.5000000  0.8660254  0.0000000 )
                  ( -0.8660254  0.5000000  0.0000000 )
                  (  0.0000000  0.0000000 -1.0000000 )


      isym =  6     inv. 180 deg rotation - cart. axis [1,0,0]   

 cryst.   s( 6) = (     0          0         -1      )
                  (    -1          0          0      )
                  (     0         -1          0      )

 cart.    s( 6) = (  0.5000000 -0.8660254  0.0000000 )
                  (  0.8660254  0.5000000  0.0000000 )
                  (  0.0000000  0.0000000 -1.0000000 )


     point group S_6 (-3)   
     there are  6 classes
     the character table:

       E     C3    C3^2  i     S6^5  S6   
A_g    1.00  1.00  1.00  1.00  1.00  1.00
E_g    1.00 -0.50 -0.50  1.00 -0.50 -0.50
E_g*   1.00 -0.50 -0.50  1.00 -0.50 -0.50
A_u    1.00  1.00  1.00 -1.00 -1.00 -1.00
E_u    1.00 -0.50 -0.50 -1.00  0.50  0.50
E_u*   1.00 -0.50 -0.50 -1.00  0.50  0.50
     imaginary part
A_g    0.00  0.00  0.00  0.00  0.00  0.00
E_g    0.00  0.87 -0.87  0.00  0.87 -0.87
E_g*   0.00 -0.87  0.87  0.00 -0.87  0.87
A_u    0.00  0.00  0.00  0.00  0.00  0.00
E_u    0.00  0.87 -0.87  0.00 -0.87  0.87
E_u*   0.00 -0.87  0.87  0.00  0.87 -0.87

     the symmetry operations in each class:
     E        1
     C3       2
     C3^2     3
     i        4
     S6^5     5
     S6       6

   Cartesian axes

     site n.     atom                  positions (alat units)
         1           Co1 tau(   1) = (   0.0000000   0.0000000   0.0000000  )
         2           Co2 tau(   2) = (   0.0000000   0.0000000   1.2174358  )
         3           La1 tau(   3) = (   0.0000000   0.0000000   0.6087179  )
         4           La1 tau(   4) = (   0.0000000   0.0000000   1.8261537  )
         5           O1  tau(   5) = (  -0.2839701  -0.0933228   1.0141240  )
         6           O1  tau(   6) = (   0.0611651   0.2925867   1.0141240  )
         7           O1  tau(   7) = (   0.2228050  -0.1992639   1.0141240  )
         8           O1  tau(   8) = (  -0.0611651  -0.2925867   1.4207476  )
         9           O1  tau(   9) = (   0.2839701   0.0933228   1.4207476  )
        10           O1  tau(  10) = (  -0.2228050   0.1992639   1.4207476  )

   Crystallographic axes

     site n.     atom                  positions (cryst. coord.)
         1           Co1 tau(   1) = (  0.0000000  0.0000000  0.0000000  )
         2           Co2 tau(   2) = (  0.5000000  0.5000000  0.5000000  )
         3           La1 tau(   3) = (  0.2500000  0.2500000  0.2500000  )
         4           La1 tau(   4) = (  0.7500000  0.7500000  0.7500000  )
         5           O1  tau(   5) = (  0.1891000  0.3100000  0.7504000  )
         6           O1  tau(   6) = (  0.3100000  0.7504000  0.1891000  )
         7           O1  tau(   7) = (  0.7504000  0.1891000  0.3100000  )
         8           O1  tau(   8) = (  0.6900000  0.2496000  0.8109000  )
         9           O1  tau(   9) = (  0.8109000  0.6900000  0.2496000  )
        10           O1  tau(  10) = (  0.2496000  0.8109000  0.6900000  )

     number of k points=    14  gaussian smearing, width (Ry)=  0.0300
                       cart. coord. in units 2pi/alat
        k(    1) = (   0.0000000   0.0000000   0.0000000), wk =   0.0312500
        k(    2) = (  -0.2470771  -0.1426500   0.1026748), wk =   0.1875000
        k(    3) = (   0.4941541   0.2853000  -0.2053496), wk =   0.0937500
        k(    4) = (  -0.2470771   0.1426500   0.2053496), wk =   0.1875000
        k(    5) = (   0.4941541   0.5706001  -0.1026748), wk =   0.1875000
        k(    6) = (   0.2470771   0.4279500   0.0000000), wk =   0.1875000
        k(    7) = (   0.4941541  -0.2853000  -0.4106993), wk =   0.0937500
        k(    8) = (   0.0000000   0.0000000   0.3080244), wk =   0.0625000
        k(    9) = (   0.7412312   0.4279500   0.0000000), wk =   0.1875000
        k(   10) = (   0.4941541   0.2853000   0.1026748), wk =   0.1875000
        k(   11) = (   0.7412312  -0.4279500  -0.3080244), wk =   0.1875000
        k(   12) = (   0.4941541  -0.5706001  -0.2053496), wk =   0.1875000
        k(   13) = (   0.0000000   0.0000000  -0.6160489), wk =   0.0312500
        k(   14) = (   0.4941541  -0.5706001   0.1026748), wk =   0.1875000

                       cryst. coord.
        k(    1) = (   0.0000000   0.0000000   0.0000000), wk =   0.0312500
        k(    2) = (   0.0000000   0.0000000   0.2500000), wk =   0.1875000
        k(    3) = (   0.0000000   0.0000000  -0.5000000), wk =   0.0937500
        k(    4) = (   0.0000000   0.2500000   0.2500000), wk =   0.1875000
        k(    5) = (   0.0000000   0.2500000  -0.5000000), wk =   0.1875000
        k(    6) = (   0.0000000   0.2500000  -0.2500000), wk =   0.1875000
        k(    7) = (   0.0000000  -0.5000000  -0.5000000), wk =   0.0937500
        k(    8) = (   0.2500000   0.2500000   0.2500000), wk =   0.0625000
        k(    9) = (   0.2500000   0.2500000  -0.5000000), wk =   0.1875000
        k(   10) = (   0.2500000   0.2500000  -0.2500000), wk =   0.1875000
        k(   11) = (   0.2500000  -0.5000000  -0.5000000), wk =   0.1875000
        k(   12) = (   0.2500000  -0.5000000  -0.2500000), wk =   0.1875000
        k(   13) = (  -0.5000000  -0.5000000  -0.5000000), wk =   0.0312500
        k(   14) = (   0.5000000  -0.2500000   0.0000000), wk =   0.1875000

     Dense  grid:    69617 G-vectors     FFT dimensions: (  60,  60,  60)

     Smooth grid:    17573 G-vectors     FFT dimensions: (  40,  40,  40)

     Largest allocated arrays     est. size (Mb)     dimensions
        Kohn-Sham Wavefunctions         0.78 Mb     (   1117,   46)
        Atomic wavefunctions            1.06 Mb     (   1117,   62)
        NL pseudopotentials             2.05 Mb     (   1117,  120)
        Each V/rho on FFT grid          1.65 Mb     ( 108000)
        Each G-vector array             0.27 Mb     (  34808)
        G-vector shells                 0.04 Mb     (   4682)
     Largest temporary arrays     est. size (Mb)     dimensions
        Auxiliary wavefunctions         3.14 Mb     (   1117,  184)
        Each subspace H/S matrix        0.52 Mb     ( 184, 184)
        Each <psi_i|beta_j> matrix      0.08 Mb     (    120,   46)
        Arrays for rho mixing          13.18 Mb     ( 108000,   8)

     Check: negative/imaginary core charge=   -0.000028    0.000000

     The initial density is read from file :
     /home/mcurnan/dft-course/Project1/example_LaCoO3/600/Co/alpha/CoLaO_U600.save/charge-density.dat

 --- in v_hubbard ---
Hubbard energy    0.5742
 -------
     Number of +U iterations with fixed ns =  0
     Starting occupations:
 --- enter write_ns ---
 LDA+U parameters:
U( 1)     =  6.00000000
alpha( 1) =  0.00000000
U( 2)     =  6.00000000
alpha( 2) =  0.00000000
U( 3)     =  0.00000000
alpha( 3) =  0.00000000
U( 4)     =  0.00000000
alpha( 4) =  0.00000000
atom    1   Tr[ns(na)] =   8.02206
    eigenvalues: 
  0.596  0.596  0.938  0.941  0.941
    eigenvectors:
  0.000  0.000  1.000  0.000  0.000
  0.333  0.322  0.000  0.004  0.341
  0.322  0.333  0.000  0.341  0.004
  0.289  0.056  0.000  0.515  0.140
  0.056  0.289  0.000  0.140  0.515
    occupations:
  0.938  0.000  0.000  0.000  0.000
  0.000  0.715  0.000 -0.060  0.152
  0.000  0.000  0.715  0.152  0.060
  0.000 -0.060  0.152  0.822  0.000
  0.000  0.152  0.060  0.000  0.822
atom    2   Tr[ns(na)] =   8.02145
    eigenvalues: 
  0.595  0.595  0.938  0.941  0.941
    eigenvectors:
  0.000  0.000  1.000  0.000  0.000
  0.640  0.015  0.000  0.223  0.122
  0.015  0.640  0.000  0.122  0.223
  0.017  0.329  0.000  0.470  0.185
  0.329  0.017  0.000  0.185  0.470
    occupations:
  0.938  0.000  0.000  0.000  0.000
  0.000  0.715  0.000  0.060  0.153
  0.000  0.000  0.715  0.153 -0.060
  0.000  0.060  0.153  0.822  0.000
  0.000  0.153 -0.060  0.000  0.822
atom    3   Tr[ns(na)] =   3.80284
    eigenvalues: 
  0.355  0.355  0.384  0.403  0.403
    eigenvectors:
  0.000  0.000  1.000  0.000  0.000
  0.781  0.139  0.000  0.012  0.068
  0.139  0.781  0.000  0.068  0.012
  0.013  0.067  0.000  0.780  0.141
  0.067  0.013  0.000  0.141  0.780
    occupations:
  0.384  0.000  0.000  0.000  0.000
  0.000  0.359  0.000  0.000  0.013
  0.000  0.000  0.359  0.013  0.000
  0.000  0.000  0.013  0.399  0.000
  0.000  0.013  0.000  0.000  0.399
atom    4   Tr[ns(na)] =   3.80284
    eigenvalues: 
  0.355  0.355  0.384  0.403  0.403
    eigenvectors:
  0.000  0.000  1.000  0.000  0.000
  0.782  0.139  0.000  0.012  0.068
  0.139  0.782  0.000  0.068  0.012
  0.012  0.067  0.000  0.780  0.141
  0.067  0.012  0.000  0.141  0.780
    occupations:
  0.384  0.000  0.000  0.000  0.000
  0.000  0.359  0.000  0.000  0.013
  0.000  0.000  0.359  0.013  0.000
  0.000  0.000  0.013  0.399  0.000
  0.000  0.013  0.000  0.000  0.399
atom    5   Tr[ns(na)] =   5.43357
    eigenvalues: 
  0.846  0.929  0.941
    eigenvectors:
  0.340  0.000  0.660
  0.494  0.250  0.256
  0.166  0.750  0.085
    occupations:
  0.909  0.039  0.022
  0.039  0.891 -0.022
  0.022 -0.022  0.917
atom    6   Tr[ns(na)] =   5.43357
    eigenvalues: 
  0.846  0.929  0.941
    eigenvectors:
  0.340  0.000  0.660
  0.000  1.000  0.000
  0.660  0.000  0.340
    occupations:
  0.909  0.000 -0.045
  0.000  0.929  0.000
 -0.045  0.000  0.879
atom    7   Tr[ns(na)] =   5.43357
    eigenvalues: 
  0.846  0.929  0.941
    eigenvectors:
  0.340  0.000  0.660
  0.496  0.250  0.255
  0.164  0.750  0.086
    occupations:
  0.909 -0.039  0.022
 -0.039  0.891  0.022
  0.022  0.022  0.917
atom    8   Tr[ns(na)] =   5.43357
    eigenvalues: 
  0.846  0.929  0.941
    eigenvectors:
  0.340  0.000  0.660
  0.000  1.000  0.000
  0.660  0.000  0.340
    occupations:
  0.909  0.000 -0.045
  0.000  0.929  0.000
 -0.045  0.000  0.879
atom    9   Tr[ns(na)] =   5.43357
    eigenvalues: 
  0.846  0.929  0.941
    eigenvectors:
  0.340  0.000  0.660
  0.494  0.250  0.256
  0.166  0.750  0.085
    occupations:
  0.909  0.039  0.022
  0.039  0.891 -0.022
  0.022 -0.022  0.917
atom   10   Tr[ns(na)] =   5.43357
    eigenvalues: 
  0.846  0.929  0.941
    eigenvectors:
  0.340  0.000  0.660
  0.496  0.250  0.255
  0.164  0.750  0.086
    occupations:
  0.909 -0.039  0.022
 -0.039  0.891  0.022
  0.022  0.022  0.917
N of occupied +U levels =  56.2506062
 --- exit write_ns ---
 LDA+U Projector read from file 
     Starting wfc from file

     total cpu time spent up to now is        8.2 secs

     per-process dynamical memory:    46.9 Mb

     Self-consistent Calculation

     iteration #  1     ecut=    30.00 Ry     beta=0.20
     Davidson diagonalization with overlap
     c_bands:  1 eigenvalues not converged
     c_bands:  1 eigenvalues not converged
     c_bands:  1 eigenvalues not converged
     c_bands:  1 eigenvalues not converged
     ethr =  1.00E-10,  avg # of iterations = 16.6
 --- enter write_ns ---
 LDA+U parameters:
U( 1)     =  6.00000000
alpha( 1) =  0.00000000
U( 2)     =  6.00000000
alpha( 2) =  0.00000000
U( 3)     =  0.00000000
alpha( 3) =  0.00000000
U( 4)     =  0.00000000
alpha( 4) =  0.00000000
atom    1   Tr[ns(na)] =   8.25364
    eigenvalues: 
  0.572  0.572  0.993  0.993  0.996
    eigenvectors:
  0.000  0.000  0.000  0.000  1.000
  0.330  0.324  0.004  0.342  0.000
  0.324  0.330  0.342  0.004  0.000
  0.289  0.057  0.514  0.140  0.000
  0.057  0.289  0.140  0.514  0.000
    occupations:
  0.996  0.000  0.000  0.000  0.000
  0.000  0.718  0.000 -0.073  0.186
  0.000  0.000  0.718  0.186  0.073
  0.000 -0.073  0.186  0.848  0.000
  0.000  0.186  0.073  0.000  0.848
atom    2   Tr[ns(na)] =   8.24381
    eigenvalues: 
  0.569  0.569  0.993  0.993  0.996
    eigenvectors:
  0.000  0.000  0.000  0.000  1.000
  0.636  0.019  0.222  0.124  0.000
  0.019  0.636  0.124  0.222  0.000
  0.014  0.332  0.469  0.185  0.000
  0.332  0.014  0.185  0.469  0.000
    occupations:
  0.996  0.000  0.000  0.000  0.000
  0.000  0.716  0.000  0.073  0.188
  0.000  0.000  0.716  0.188 -0.073
  0.000  0.073  0.188  0.847  0.000
  0.000  0.188 -0.073  0.000  0.847
atom    3   Tr[ns(na)] =   3.79042
    eigenvalues: 
  0.356  0.356  0.381  0.401  0.401
    eigenvectors:
  0.000  0.000  1.000  0.000  0.000
  0.775  0.141  0.000  0.012  0.072
  0.141  0.775  0.000  0.072  0.012
  0.014  0.071  0.000  0.774  0.142
  0.071  0.014  0.000  0.142  0.774
    occupations:
  0.381  0.000  0.000  0.000  0.000
  0.000  0.360  0.000  0.000  0.013
  0.000  0.000  0.360  0.013  0.000
  0.000  0.000  0.013  0.397  0.000
  0.000  0.013  0.000  0.000  0.397
atom    4   Tr[ns(na)] =   3.79042
    eigenvalues: 
  0.356  0.356  0.381  0.401  0.401
    eigenvectors:
  0.000  0.000  1.000  0.000  0.000
  0.775  0.141  0.000  0.012  0.072
  0.141  0.775  0.000  0.072  0.012
  0.014  0.071  0.000  0.774  0.142
  0.071  0.014  0.000  0.142  0.774
    occupations:
  0.381  0.000  0.000  0.000  0.000
  0.000  0.360  0.000  0.000  0.013
  0.000  0.000  0.360  0.013  0.000
  0.000  0.000  0.013  0.397  0.000
  0.000  0.013  0.000  0.000  0.397
atom    5   Tr[ns(na)] =   5.37601
    eigenvalues: 
  0.822  0.922  0.944
    eigenvectors:
  0.341  0.000  0.659
  0.494  0.250  0.256
  0.165  0.750  0.085
    occupations:
  0.902  0.050  0.029
  0.050  0.878 -0.025
  0.029 -0.025  0.907
atom    6   Tr[ns(na)] =   5.37601
    eigenvalues: 
  0.822  0.922  0.944
    eigenvectors:
  0.341  0.000  0.659
  0.000  1.000  0.000
  0.659  0.000  0.341
    occupations:
  0.902  0.000 -0.058
  0.000  0.922  0.000
 -0.058  0.000  0.863
atom    7   Tr[ns(na)] =   5.37601
    eigenvalues: 
  0.822  0.922  0.944
    eigenvectors:
  0.341  0.000  0.659
  0.494  0.250  0.256
  0.164  0.750  0.086
    occupations:
  0.902 -0.050  0.029
 -0.050  0.878  0.025
  0.029  0.025  0.908
atom    8   Tr[ns(na)] =   5.37601
    eigenvalues: 
  0.822  0.922  0.944
    eigenvectors:
  0.341  0.000  0.659
  0.000  1.000  0.000
  0.659  0.000  0.341
    occupations:
  0.902  0.000 -0.058
  0.000  0.922  0.000
 -0.058  0.000  0.863
atom    9   Tr[ns(na)] =   5.37601
    eigenvalues: 
  0.822  0.922  0.944
    eigenvectors:
  0.341  0.000  0.659
  0.494  0.250  0.256
  0.165  0.750  0.085
    occupations:
  0.902  0.050  0.029
  0.050  0.878 -0.025
  0.029 -0.025  0.907
atom   10   Tr[ns(na)] =   5.37601
    eigenvalues: 
  0.822  0.922  0.944
    eigenvectors:
  0.341  0.000  0.659
  0.494  0.250  0.256
  0.164  0.750  0.086
    occupations:
  0.902 -0.050  0.029
 -0.050  0.878  0.025
  0.029  0.025  0.908
N of occupied +U levels =  56.3343680
 --- exit write_ns ---
 --- in v_hubbard ---
Hubbard energy    0.5502
 -------

     total cpu time spent up to now is       43.2 secs

     total energy              =    -537.82455055 Ry
     Harris-Foulkes estimate   =    -537.83945622 Ry
     estimated scf accuracy    <       0.06708008 Ry

     iteration #  2     ecut=    30.00 Ry     beta=0.20
     Davidson diagonalization with overlap
     ethr =  8.83E-05,  avg # of iterations =  2.0
 --- enter write_ns ---
 LDA+U parameters:
U( 1)     =  6.00000000
alpha( 1) =  0.00000000
U( 2)     =  6.00000000
alpha( 2) =  0.00000000
U( 3)     =  0.00000000
alpha( 3) =  0.00000000
U( 4)     =  0.00000000
alpha( 4) =  0.00000000
atom    1   Tr[ns(na)] =   8.02208
    eigenvalues: 
  0.513  0.513  0.994  0.994  0.997
    eigenvectors:
  0.000  0.000  0.000  0.000  1.000
  0.333  0.323  0.003  0.341  0.000
  0.323  0.333  0.341  0.003  0.000
  0.290  0.055  0.516  0.139  0.000
  0.055  0.290  0.139  0.516  0.000
    occupations:
  0.997  0.000  0.000  0.000  0.000
  0.000  0.679  0.000 -0.085  0.212
  0.000  0.000  0.679  0.212  0.085
  0.000 -0.085  0.212  0.828  0.000
  0.000  0.212  0.085  0.000  0.828
atom    2   Tr[ns(na)] =   8.02296
    eigenvalues: 
  0.512  0.512  0.995  0.995  0.998
    eigenvectors:
  0.000  0.000  0.000  0.000  1.000
  0.639  0.017  0.224  0.120  0.000
  0.017  0.639  0.120  0.224  0.000
  0.016  0.328  0.471  0.185  0.000
  0.328  0.016  0.185  0.471  0.000
    occupations:
  0.998  0.000  0.000  0.000  0.000
  0.000  0.678  0.000  0.085  0.213
  0.000  0.000  0.678  0.213 -0.085
  0.000  0.085  0.213  0.828  0.000
  0.000  0.213 -0.085  0.000  0.828
atom    3   Tr[ns(na)] =   3.78560
    eigenvalues: 
  0.355  0.355  0.381  0.401  0.401
    eigenvectors:
  0.000  0.000  1.000  0.000  0.000
  0.781  0.139  0.000  0.012  0.068
  0.139  0.781  0.000  0.068  0.012
  0.013  0.067  0.000  0.779  0.141
  0.067  0.013  0.000  0.141  0.779
    occupations:
  0.381  0.000  0.000  0.000  0.000
  0.000  0.359  0.000  0.000  0.013
  0.000  0.000  0.359  0.013  0.000
  0.000  0.000  0.013  0.397  0.000
  0.000  0.013  0.000  0.000  0.397
atom    4   Tr[ns(na)] =   3.78560
    eigenvalues: 
  0.355  0.355  0.381  0.401  0.401
    eigenvectors:
  0.000  0.000  1.000  0.000  0.000
  0.781  0.139  0.000  0.012  0.068
  0.139  0.781  0.000  0.068  0.012
  0.013  0.067  0.000  0.779  0.141
  0.067  0.013  0.000  0.141  0.779
    occupations:
  0.381  0.000  0.000  0.000  0.000
  0.000  0.359  0.000  0.000  0.013
  0.000  0.000  0.359  0.013  0.000
  0.000  0.000  0.013  0.397  0.000
  0.000  0.013  0.000  0.000  0.397
atom    5   Tr[ns(na)] =   5.44838
    eigenvalues: 
  0.843  0.932  0.949
    eigenvectors:
  0.335  0.000  0.665
  0.500  0.248  0.252
  0.165  0.752  0.083
    occupations:
  0.914  0.044  0.025
  0.044  0.892 -0.023
  0.025 -0.023  0.919
atom    6   Tr[ns(na)] =   5.44838
    eigenvalues: 
  0.843  0.932  0.949
    eigenvectors:
  0.335  0.000  0.665
  0.000  1.000  0.000
  0.665  0.000  0.335
    occupations:
  0.914  0.000 -0.050
  0.000  0.932  0.000
 -0.050  0.000  0.878
atom    7   Tr[ns(na)] =   5.44838
    eigenvalues: 
  0.843  0.932  0.949
    eigenvectors:
  0.335  0.000  0.665
  0.497  0.252  0.251
  0.167  0.748  0.084
    occupations:
  0.914 -0.044  0.025
 -0.044  0.892  0.023
  0.025  0.023  0.919
atom    8   Tr[ns(na)] =   5.44838
    eigenvalues: 
  0.843  0.932  0.949
    eigenvectors:
  0.335  0.000  0.665
  0.000  1.000  0.000
  0.665  0.000  0.335
    occupations:
  0.914  0.000 -0.050
  0.000  0.932  0.000
 -0.050  0.000  0.878
atom    9   Tr[ns(na)] =   5.44838
    eigenvalues: 
  0.843  0.932  0.949
    eigenvectors:
  0.335  0.000  0.665
  0.500  0.248  0.252
  0.165  0.752  0.083
    occupations:
  0.914  0.044  0.025
  0.044  0.892 -0.023
  0.025 -0.023  0.919
atom   10   Tr[ns(na)] =   5.44838
    eigenvalues: 
  0.843  0.932  0.949
    eigenvectors:
  0.335  0.000  0.665
  0.497  0.252  0.251
  0.167  0.748  0.084
    occupations:
  0.914 -0.044  0.025
 -0.044  0.892  0.023
  0.025  0.023  0.919
N of occupied +U levels =  56.3065155
 --- exit write_ns ---
 --- in v_hubbard ---
Hubbard energy    0.5401
 -------

     total cpu time spent up to now is       54.8 secs

     total energy              =    -537.83855612 Ry
     Harris-Foulkes estimate   =    -537.83842133 Ry
     estimated scf accuracy    <       0.04123182 Ry

     iteration #  3     ecut=    30.00 Ry     beta=0.20
     Davidson diagonalization with overlap
     ethr =  5.43E-05,  avg # of iterations =  1.0
 --- enter write_ns ---
 LDA+U parameters:
U( 1)     =  6.00000000
alpha( 1) =  0.00000000
U( 2)     =  6.00000000
alpha( 2) =  0.00000000
U( 3)     =  0.00000000
alpha( 3) =  0.00000000
U( 4)     =  0.00000000
alpha( 4) =  0.00000000
atom    1   Tr[ns(na)] =   8.06886
    eigenvalues: 
  0.524  0.524  0.994  0.994  0.998
    eigenvectors:
  0.000  0.000  0.000  0.000  1.000
  0.333  0.322  0.003  0.341  0.000
  0.322  0.333  0.341  0.003  0.000
  0.289  0.055  0.516  0.139  0.000
  0.055  0.289  0.139  0.516  0.000
    occupations:
  0.998  0.000  0.000  0.000  0.000
  0.000  0.686  0.000 -0.083  0.208
  0.000  0.000  0.686  0.208  0.083
  0.000 -0.083  0.208  0.832  0.000
  0.000  0.208  0.083  0.000  0.832
atom    2   Tr[ns(na)] =   8.06586
    eigenvalues: 
  0.523  0.523  0.995  0.995  0.998
    eigenvectors:
  0.000  0.000  0.000  0.000  1.000
  0.639  0.017  0.224  0.121  0.000
  0.017  0.639  0.121  0.224  0.000
  0.016  0.329  0.471  0.185  0.000
  0.329  0.016  0.185  0.471  0.000
    occupations:
  0.998  0.000  0.000  0.000  0.000
  0.000  0.685  0.000  0.083  0.209
  0.000  0.000  0.685  0.209 -0.083
  0.000  0.083  0.209  0.832  0.000
  0.000  0.209 -0.083  0.000  0.832
atom    3   Tr[ns(na)] =   3.78663
    eigenvalues: 
  0.355  0.355  0.381  0.401  0.401
    eigenvectors:
  0.000  0.000  1.000  0.000  0.000
  0.781  0.139  0.000  0.012  0.068
  0.139  0.781  0.000  0.068  0.012
  0.013  0.067  0.000  0.779  0.141
  0.067  0.013  0.000  0.141  0.779
    occupations:
  0.381  0.000  0.000  0.000  0.000
  0.000  0.359  0.000  0.000  0.012
  0.000  0.000  0.359  0.012  0.000
  0.000  0.000  0.012  0.397  0.000
  0.000  0.012  0.000  0.000  0.397
atom    4   Tr[ns(na)] =   3.78663
    eigenvalues: 
  0.355  0.355  0.381  0.401  0.401
    eigenvectors:
  0.000  0.000  1.000  0.000  0.000
  0.781  0.139  0.000  0.012  0.068
  0.139  0.781  0.000  0.068  0.012
  0.013  0.067  0.000  0.779  0.141
  0.067  0.013  0.000  0.141  0.779
    occupations:
  0.381  0.000  0.000  0.000  0.000
  0.000  0.359  0.000  0.000  0.012
  0.000  0.000  0.359  0.012  0.000
  0.000  0.000  0.012  0.397  0.000
  0.000  0.012  0.000  0.000  0.397
atom    5   Tr[ns(na)] =   5.43406
    eigenvalues: 
  0.838  0.930  0.949
    eigenvectors:
  0.337  0.000  0.663
  0.498  0.249  0.253
  0.165  0.751  0.084
    occupations:
  0.911  0.045  0.026
  0.045  0.889 -0.024
  0.026 -0.024  0.917
atom    6   Tr[ns(na)] =   5.43406
    eigenvalues: 
  0.838  0.930  0.949
    eigenvectors:
  0.337  0.000  0.663
  0.000  1.000  0.000
  0.663  0.000  0.337
    occupations:
  0.911  0.000 -0.052
  0.000  0.930  0.000
 -0.052  0.000  0.875
atom    7   Tr[ns(na)] =   5.43406
    eigenvalues: 
  0.838  0.930  0.949
    eigenvectors:
  0.337  0.000  0.663
  0.497  0.251  0.252
  0.167  0.749  0.085
    occupations:
  0.911 -0.045  0.026
 -0.045  0.889  0.024
  0.026  0.024  0.917
atom    8   Tr[ns(na)] =   5.43406
    eigenvalues: 
  0.838  0.930  0.949
    eigenvectors:
  0.337  0.000  0.663
  0.000  1.000  0.000
  0.663  0.000  0.337
    occupations:
  0.911  0.000 -0.052
  0.000  0.930  0.000
 -0.052  0.000  0.875
atom    9   Tr[ns(na)] =   5.43406
    eigenvalues: 
  0.838  0.930  0.949
    eigenvectors:
  0.337  0.000  0.663
  0.498  0.249  0.253
  0.165  0.751  0.084
    occupations:
  0.911  0.045  0.026
  0.045  0.889 -0.024
  0.026 -0.024  0.917
atom   10   Tr[ns(na)] =   5.43406
    eigenvalues: 
  0.838  0.930  0.949
    eigenvectors:
  0.337  0.000  0.663
  0.497  0.251  0.252
  0.167  0.749  0.085
    occupations:
  0.911 -0.045  0.026
 -0.045  0.889  0.024
  0.026  0.024  0.917
N of occupied +U levels =  56.3123444
 --- exit write_ns ---
 --- in v_hubbard ---
Hubbard energy    0.4447
 -------

     total cpu time spent up to now is       65.5 secs

     total energy              =    -537.84609569 Ry
     Harris-Foulkes estimate   =    -537.83938626 Ry
     estimated scf accuracy    <       0.01879848 Ry

     iteration #  4     ecut=    30.00 Ry     beta=0.20
     Davidson diagonalization with overlap
     ethr =  2.47E-05,  avg # of iterations =  2.0
 --- enter write_ns ---
 LDA+U parameters:
U( 1)     =  6.00000000
alpha( 1) =  0.00000000
U( 2)     =  6.00000000
alpha( 2) =  0.00000000
U( 3)     =  0.00000000
alpha( 3) =  0.00000000
U( 4)     =  0.00000000
alpha( 4) =  0.00000000
atom    1   Tr[ns(na)] =   8.07880
    eigenvalues: 
  0.524  0.524  0.997  0.997  0.999
    eigenvectors:
  0.000  0.000  0.000  0.000  1.000
  0.339  0.320  0.003  0.339  0.000
  0.320  0.339  0.339  0.003  0.000
  0.287  0.055  0.520  0.139  0.000
  0.055  0.287  0.139  0.520  0.000
    occupations:
  0.999  0.000  0.000  0.000  0.000
  0.000  0.685  0.000 -0.085  0.208
  0.000  0.000  0.685  0.208  0.085
  0.000 -0.085  0.208  0.835  0.000
  0.000  0.208  0.085  0.000  0.835
atom    2   Tr[ns(na)] =   8.08192
    eigenvalues: 
  0.524  0.524  0.997  0.997  0.999
    eigenvectors:
  0.000  0.000  0.000  0.000  1.000
  0.641  0.018  0.223  0.118  0.000
  0.018  0.641  0.118  0.223  0.000
  0.016  0.325  0.475  0.184  0.000
  0.325  0.016  0.184  0.475  0.000
    occupations:
  0.999  0.000  0.000  0.000  0.000
  0.000  0.685  0.000  0.084  0.208
  0.000  0.000  0.685  0.208 -0.084
  0.000  0.084  0.208  0.835  0.000
  0.000  0.208 -0.084  0.000  0.835
atom    3   Tr[ns(na)] =   3.79871
    eigenvalues: 
  0.357  0.357  0.381  0.402  0.402
    eigenvectors:
  0.000  0.000  1.000  0.000  0.000
  0.785  0.138  0.000  0.011  0.066
  0.138  0.785  0.000  0.066  0.011
  0.012  0.065  0.000  0.782  0.140
  0.065  0.012  0.000  0.140  0.782
    occupations:
  0.381  0.000  0.000  0.000  0.000
  0.000  0.361  0.000  0.000  0.012
  0.000  0.000  0.361  0.012  0.000
  0.000  0.000  0.012  0.398  0.000
  0.000  0.012  0.000  0.000  0.398
atom    4   Tr[ns(na)] =   3.79871
    eigenvalues: 
  0.357  0.357  0.381  0.402  0.402
    eigenvectors:
  0.000  0.000  1.000  0.000  0.000
  0.786  0.137  0.000  0.011  0.066
  0.137  0.786  0.000  0.066  0.011
  0.012  0.065  0.000  0.782  0.140
  0.065  0.012  0.000  0.140  0.782
    occupations:
  0.381  0.000  0.000  0.000  0.000
  0.000  0.361  0.000  0.000  0.012
  0.000  0.000  0.361  0.012  0.000
  0.000  0.000  0.012  0.398  0.000
  0.000  0.012  0.000  0.000  0.398
atom    5   Tr[ns(na)] =   5.42358
    eigenvalues: 
  0.835  0.929  0.947
    eigenvectors:
  0.337  0.000  0.663
  0.499  0.248  0.254
  0.164  0.752  0.084
    occupations:
  0.910  0.046  0.026
  0.046  0.887 -0.024
  0.026 -0.024  0.915
atom    6   Tr[ns(na)] =   5.42358
    eigenvalues: 
  0.835  0.929  0.947
    eigenvectors:
  0.337  0.000  0.663
  0.000  1.000  0.000
  0.663  0.000  0.337
    occupations:
  0.910  0.000 -0.053
  0.000  0.929  0.000
 -0.053  0.000  0.873
atom    7   Tr[ns(na)] =   5.42358
    eigenvalues: 
  0.835  0.929  0.947
    eigenvectors:
  0.337  0.000  0.663
  0.496  0.252  0.252
  0.167  0.748  0.085
    occupations:
  0.910 -0.046  0.027
 -0.046  0.887  0.024
  0.027  0.024  0.915
atom    8   Tr[ns(na)] =   5.42358
    eigenvalues: 
  0.835  0.929  0.947
    eigenvectors:
  0.337  0.000  0.663
  0.000  1.000  0.000
  0.663  0.000  0.337
    occupations:
  0.910  0.000 -0.053
  0.000  0.929  0.000
 -0.053  0.000  0.873
atom    9   Tr[ns(na)] =   5.42358
    eigenvalues: 
  0.835  0.929  0.947
    eigenvectors:
  0.337  0.000  0.663
  0.499  0.248  0.254
  0.164  0.752  0.084
    occupations:
  0.910  0.046  0.026
  0.046  0.887 -0.024
  0.026 -0.024  0.915
atom   10   Tr[ns(na)] =   5.42358
    eigenvalues: 
  0.835  0.929  0.947
    eigenvectors:
  0.337  0.000  0.663
  0.496  0.252  0.252
  0.167  0.748  0.085
    occupations:
  0.910 -0.046  0.027
 -0.046  0.887  0.024
  0.027  0.024  0.915
N of occupied +U levels =  56.2995897
 --- exit write_ns ---
 --- in v_hubbard ---
Hubbard energy    0.4434
 -------

     total cpu time spent up to now is       76.9 secs

     total energy              =    -537.84777181 Ry
     Harris-Foulkes estimate   =    -537.84788030 Ry
     estimated scf accuracy    <       0.00208091 Ry

     iteration #  5     ecut=    30.00 Ry     beta=0.20
     Davidson diagonalization with overlap
     ethr =  2.74E-06,  avg # of iterations =  1.6
 --- enter write_ns ---
 LDA+U parameters:
U( 1)     =  6.00000000
alpha( 1) =  0.00000000
U( 2)     =  6.00000000
alpha( 2) =  0.00000000
U( 3)     =  0.00000000
alpha( 3) =  0.00000000
U( 4)     =  0.00000000
alpha( 4) =  0.00000000
atom    1   Tr[ns(na)] =   8.06445
    eigenvalues: 
  0.520  0.520  0.997  0.997  0.999
    eigenvectors:
  0.000  0.000  0.000  0.000  1.000
  0.339  0.319  0.003  0.339  0.000
  0.319  0.339  0.339  0.003  0.000
  0.287  0.055  0.520  0.138  0.000
  0.055  0.287  0.138  0.520  0.000
    occupations:
  0.999  0.000  0.000  0.000  0.000
  0.000  0.683  0.000 -0.086  0.209
  0.000  0.000  0.683  0.209  0.086
  0.000 -0.086  0.209  0.834  0.000
  0.000  0.209  0.086  0.000  0.834
atom    2   Tr[ns(na)] =   8.05998
    eigenvalues: 
  0.518  0.518  0.997  0.997  0.999
    eigenvectors:
  0.000  0.000  0.000  0.000  1.000
  0.641  0.017  0.223  0.118  0.000
  0.017  0.641  0.118  0.223  0.000
  0.017  0.325  0.475  0.184  0.000
  0.325  0.017  0.184  0.475  0.000
    occupations:
  0.999  0.000  0.000  0.000  0.000
  0.000  0.682  0.000  0.085  0.210
  0.000  0.000  0.682  0.210 -0.085
  0.000  0.085  0.210  0.834  0.000
  0.000  0.210 -0.085  0.000  0.834
atom    3   Tr[ns(na)] =   3.79811
    eigenvalues: 
  0.357  0.357  0.381  0.402  0.402
    eigenvectors:
  0.000  0.000  1.000  0.000  0.000
  0.784  0.138  0.000  0.011  0.066
  0.138  0.784  0.000  0.066  0.011
  0.012  0.066  0.000  0.782  0.141
  0.066  0.012  0.000  0.141  0.782
    occupations:
  0.381  0.000  0.000  0.000  0.000
  0.000  0.360  0.000  0.000  0.012
  0.000  0.000  0.360  0.012  0.000
  0.000  0.000  0.012  0.398  0.000
  0.000  0.012  0.000  0.000  0.398
atom    4   Tr[ns(na)] =   3.79811
    eigenvalues: 
  0.357  0.357  0.381  0.402  0.402
    eigenvectors:
  0.000  0.000  1.000  0.000  0.000
  0.784  0.138  0.000  0.011  0.066
  0.138  0.784  0.000  0.066  0.011
  0.012  0.066  0.000  0.782  0.141
  0.066  0.012  0.000  0.141  0.782
    occupations:
  0.381  0.000  0.000  0.000  0.000
  0.000  0.360  0.000  0.000  0.012
  0.000  0.000  0.360  0.012  0.000
  0.000  0.000  0.012  0.398  0.000
  0.000  0.012  0.000  0.000  0.398
atom    5   Tr[ns(na)] =   5.42918
    eigenvalues: 
  0.837  0.930  0.948
    eigenvectors:
  0.337  0.000  0.663
  0.498  0.249  0.253
  0.165  0.751  0.084
    occupations:
  0.910  0.045  0.026
  0.045  0.888 -0.024
  0.026 -0.024  0.916
atom    6   Tr[ns(na)] =   5.42918
    eigenvalues: 
  0.837  0.930  0.948
    eigenvectors:
  0.337  0.000  0.663
  0.000  1.000  0.000
  0.663  0.000  0.337
    occupations:
  0.910  0.000 -0.052
  0.000  0.930  0.000
 -0.052  0.000  0.874
atom    7   Tr[ns(na)] =   5.42918
    eigenvalues: 
  0.837  0.930  0.948
    eigenvectors:
  0.337  0.000  0.663
  0.497  0.251  0.252
  0.166  0.749  0.085
    occupations:
  0.910 -0.045  0.026
 -0.045  0.888  0.024
  0.026  0.024  0.916
atom    8   Tr[ns(na)] =   5.42918
    eigenvalues: 
  0.837  0.930  0.948
    eigenvectors:
  0.337  0.000  0.663
  0.000  1.000  0.000
  0.663  0.000  0.337
    occupations:
  0.910  0.000 -0.052
  0.000  0.930  0.000
 -0.052  0.000  0.874
atom    9   Tr[ns(na)] =   5.42918
    eigenvalues: 
  0.837  0.930  0.948
    eigenvectors:
  0.337  0.000  0.663
  0.498  0.249  0.253
  0.165  0.751  0.084
    occupations:
  0.910  0.045  0.026
  0.045  0.888 -0.024
  0.026 -0.024  0.916
atom   10   Tr[ns(na)] =   5.42918
    eigenvalues: 
  0.837  0.930  0.948
    eigenvectors:
  0.337  0.000  0.663
  0.497  0.251  0.252
  0.166  0.749  0.085
    occupations:
  0.910 -0.045  0.026
 -0.045  0.888  0.024
  0.026  0.024  0.916
N of occupied +U levels =  56.2957534
 --- exit write_ns ---
 --- in v_hubbard ---
Hubbard energy    0.4433
 -------

     total cpu time spent up to now is       88.1 secs

     total energy              =    -537.84796252 Ry
     Harris-Foulkes estimate   =    -537.84791838 Ry
     estimated scf accuracy    <       0.00042730 Ry

     iteration #  6     ecut=    30.00 Ry     beta=0.20
     Davidson diagonalization with overlap
     ethr =  5.62E-07,  avg # of iterations =  1.4
 --- enter write_ns ---
 LDA+U parameters:
U( 1)     =  6.00000000
alpha( 1) =  0.00000000
U( 2)     =  6.00000000
alpha( 2) =  0.00000000
U( 3)     =  0.00000000
alpha( 3) =  0.00000000
U( 4)     =  0.00000000
alpha( 4) =  0.00000000
atom    1   Tr[ns(na)] =   8.04995
    eigenvalues: 
  0.516  0.516  0.997  0.997  0.999
    eigenvectors:
  0.000  0.000  0.000  0.000  1.000
  0.339  0.320  0.003  0.339  0.000
  0.320  0.339  0.339  0.003  0.000
  0.287  0.054  0.520  0.138  0.000
  0.054  0.287  0.138  0.520  0.000
    occupations:
  0.999  0.000  0.000  0.000  0.000
  0.000  0.680  0.000 -0.087  0.211
  0.000  0.000  0.680  0.211  0.087
  0.000 -0.087  0.211  0.833  0.000
  0.000  0.211  0.087  0.000  0.833
atom    2   Tr[ns(na)] =   8.05096
    eigenvalues: 
  0.516  0.516  0.997  0.997  0.999
    eigenvectors:
  0.000  0.000  0.000  0.000  1.000
  0.642  0.017  0.224  0.118  0.000
  0.017  0.642  0.118  0.224  0.000
  0.017  0.324  0.474  0.184  0.000
  0.324  0.017  0.184  0.474  0.000
    occupations:
  0.999  0.000  0.000  0.000  0.000
  0.000  0.680  0.000  0.086  0.211
  0.000  0.000  0.680  0.211 -0.086
  0.000  0.086  0.211  0.833  0.000
  0.000  0.211 -0.086  0.000  0.833
atom    3   Tr[ns(na)] =   3.79509
    eigenvalues: 
  0.356  0.356  0.381  0.402  0.402
    eigenvectors:
  0.000  0.000  1.000  0.000  0.000
  0.783  0.138  0.000  0.011  0.067
  0.138  0.783  0.000  0.067  0.011
  0.012  0.066  0.000  0.781  0.141
  0.066  0.012  0.000  0.141  0.781
    occupations:
  0.381  0.000  0.000  0.000  0.000
  0.000  0.360  0.000  0.000  0.012
  0.000  0.000  0.360  0.012  0.000
  0.000  0.000  0.012  0.398  0.000
  0.000  0.012  0.000  0.000  0.398
atom    4   Tr[ns(na)] =   3.79509
    eigenvalues: 
  0.356  0.356  0.381  0.402  0.402
    eigenvectors:
  0.000  0.000  1.000  0.000  0.000
  0.783  0.138  0.000  0.011  0.067
  0.138  0.783  0.000  0.067  0.011
  0.012  0.066  0.000  0.781  0.141
  0.066  0.012  0.000  0.141  0.781
    occupations:
  0.381  0.000  0.000  0.000  0.000
  0.000  0.360  0.000  0.000  0.012
  0.000  0.000  0.360  0.012  0.000
  0.000  0.000  0.012  0.398  0.000
  0.000  0.012  0.000  0.000  0.398
atom    5   Tr[ns(na)] =   5.43342
    eigenvalues: 
  0.838  0.930  0.948
    eigenvectors:
  0.337  0.000  0.663
  0.499  0.248  0.253
  0.165  0.752  0.084
    occupations:
  0.911  0.045  0.026
  0.045  0.889 -0.024
  0.026 -0.024  0.917
atom    6   Tr[ns(na)] =   5.43342
    eigenvalues: 
  0.838  0.930  0.948
    eigenvectors:
  0.337  0.000  0.663
  0.000  1.000  0.000
  0.663  0.000  0.337
    occupations:
  0.911  0.000 -0.052
  0.000  0.930  0.000
 -0.052  0.000  0.875
atom    7   Tr[ns(na)] =   5.43342
    eigenvalues: 
  0.838  0.930  0.948
    eigenvectors:
  0.337  0.000  0.663
  0.496  0.252  0.252
  0.167  0.748  0.085
    occupations:
  0.911 -0.045  0.026
 -0.045  0.889  0.024
  0.026  0.024  0.916
atom    8   Tr[ns(na)] =   5.43342
    eigenvalues: 
  0.838  0.930  0.948
    eigenvectors:
  0.337  0.000  0.663
  0.000  1.000  0.000
  0.663  0.000  0.337
    occupations:
  0.911  0.000 -0.052
  0.000  0.930  0.000
 -0.052  0.000  0.875
atom    9   Tr[ns(na)] =   5.43342
    eigenvalues: 
  0.838  0.930  0.948
    eigenvectors:
  0.337  0.000  0.663
  0.499  0.248  0.253
  0.165  0.752  0.084
    occupations:
  0.911  0.045  0.026
  0.045  0.889 -0.024
  0.026 -0.024  0.917
atom   10   Tr[ns(na)] =   5.43342
    eigenvalues: 
  0.838  0.930  0.948
    eigenvectors:
  0.337  0.000  0.663
  0.496  0.252  0.252
  0.167  0.748  0.085
    occupations:
  0.911 -0.045  0.026
 -0.045  0.889  0.024
  0.026  0.024  0.916
N of occupied +U levels =  56.2915725
 --- exit write_ns ---
 --- in v_hubbard ---
Hubbard energy    0.4442
 -------

     total cpu time spent up to now is       99.2 secs

     total energy              =    -537.84809502 Ry
     Harris-Foulkes estimate   =    -537.84801331 Ry
     estimated scf accuracy    <       0.00011481 Ry

     iteration #  7     ecut=    30.00 Ry     beta=0.20
     Davidson diagonalization with overlap
     ethr =  1.51E-07,  avg # of iterations =  2.1
 --- enter write_ns ---
 LDA+U parameters:
U( 1)     =  6.00000000
alpha( 1) =  0.00000000
U( 2)     =  6.00000000
alpha( 2) =  0.00000000
U( 3)     =  0.00000000
alpha( 3) =  0.00000000
U( 4)     =  0.00000000
alpha( 4) =  0.00000000
atom    1   Tr[ns(na)] =   8.04599
    eigenvalues: 
  0.515  0.515  0.997  0.997  0.999
    eigenvectors:
  0.000  0.000  0.000  0.000  1.000
  0.339  0.319  0.002  0.339  0.000
  0.319  0.339  0.339  0.002  0.000
  0.288  0.054  0.520  0.138  0.000
  0.054  0.288  0.138  0.520  0.000
    occupations:
  0.999  0.000  0.000  0.000  0.000
  0.000  0.680  0.000 -0.087  0.211
  0.000  0.000  0.680  0.211  0.087
  0.000 -0.087  0.211  0.832  0.000
  0.000  0.211  0.087  0.000  0.832
atom    2   Tr[ns(na)] =   8.04308
    eigenvalues: 
  0.514  0.514  0.997  0.997  0.999
    eigenvectors:
  0.000  0.000  0.000  0.000  1.000
  0.642  0.016  0.225  0.117  0.000
  0.016  0.642  0.117  0.225  0.000
  0.018  0.324  0.475  0.184  0.000
  0.324  0.018  0.184  0.475  0.000
    occupations:
  0.999  0.000  0.000  0.000  0.000
  0.000  0.679  0.000  0.087  0.212
  0.000  0.000  0.679  0.212 -0.087
  0.000  0.087  0.212  0.832  0.000
  0.000  0.212 -0.087  0.000  0.832
atom    3   Tr[ns(na)] =   3.78982
    eigenvalues: 
  0.356  0.356  0.381  0.401  0.401
    eigenvectors:
  0.000  0.000  1.000  0.000  0.000
  0.782  0.139  0.000  0.012  0.067
  0.139  0.782  0.000  0.067  0.012
  0.012  0.067  0.000  0.780  0.141
  0.067  0.012  0.000  0.141  0.780
    occupations:
  0.381  0.000  0.000  0.000  0.000
  0.000  0.359  0.000  0.000  0.012
  0.000  0.000  0.359  0.012  0.000
  0.000  0.000  0.012  0.398  0.000
  0.000  0.012  0.000  0.000  0.398
atom    4   Tr[ns(na)] =   3.78982
    eigenvalues: 
  0.356  0.356  0.381  0.401  0.401
    eigenvectors:
  0.000  0.000  1.000  0.000  0.000
  0.782  0.139  0.000  0.012  0.067
  0.139  0.782  0.000  0.067  0.012
  0.012  0.067  0.000  0.780  0.141
  0.067  0.012  0.000  0.141  0.780
    occupations:
  0.381  0.000  0.000  0.000  0.000
  0.000  0.359  0.000  0.000  0.012
  0.000  0.000  0.359  0.012  0.000
  0.000  0.000  0.012  0.398  0.000
  0.000  0.012  0.000  0.000  0.398
atom    5   Tr[ns(na)] =   5.43628
    eigenvalues: 
  0.839  0.931  0.949
    eigenvectors:
  0.337  0.000  0.663
  0.498  0.249  0.253
  0.165  0.751  0.084
    occupations:
  0.912  0.045  0.026
  0.045  0.889 -0.024
  0.026 -0.024  0.917
atom    6   Tr[ns(na)] =   5.43628
    eigenvalues: 
  0.839  0.931  0.949
    eigenvectors:
  0.337  0.000  0.663
  0.000  1.000  0.000
  0.663  0.000  0.337
    occupations:
  0.912  0.000 -0.052
  0.000  0.931  0.000
 -0.052  0.000  0.876
atom    7   Tr[ns(na)] =   5.43628
    eigenvalues: 
  0.839  0.931  0.949
    eigenvectors:
  0.337  0.000  0.663
  0.497  0.251  0.252
  0.167  0.749  0.085
    occupations:
  0.912 -0.045  0.026
 -0.045  0.890  0.024
  0.026  0.024  0.917
atom    8   Tr[ns(na)] =   5.43628
    eigenvalues: 
  0.839  0.931  0.949
    eigenvectors:
  0.337  0.000  0.663
  0.000  1.000  0.000
  0.663  0.000  0.337
    occupations:
  0.912  0.000 -0.052
  0.000  0.931  0.000
 -0.052  0.000  0.876
atom    9   Tr[ns(na)] =   5.43628
    eigenvalues: 
  0.839  0.931  0.949
    eigenvectors:
  0.337  0.000  0.663
  0.498  0.249  0.253
  0.165  0.751  0.084
    occupations:
  0.912  0.045  0.026
  0.045  0.889 -0.024
  0.026 -0.024  0.917
atom   10   Tr[ns(na)] =   5.43628
    eigenvalues: 
  0.839  0.931  0.949
    eigenvectors:
  0.337  0.000  0.663
  0.497  0.251  0.252
  0.167  0.749  0.085
    occupations:
  0.912 -0.045  0.026
 -0.045  0.890  0.024
  0.026  0.024  0.917
N of occupied +U levels =  56.2864006
 --- exit write_ns ---
 --- in v_hubbard ---
Hubbard energy    0.4455
 -------

     total cpu time spent up to now is      112.2 secs

     total energy              =    -537.84817994 Ry
     Harris-Foulkes estimate   =    -537.84812255 Ry
     estimated scf accuracy    <       0.00012743 Ry

     iteration #  8     ecut=    30.00 Ry     beta=0.20
     Davidson diagonalization with overlap
     ethr =  1.51E-07,  avg # of iterations =  1.6
 --- enter write_ns ---
 LDA+U parameters:
U( 1)     =  6.00000000
alpha( 1) =  0.00000000
U( 2)     =  6.00000000
alpha( 2) =  0.00000000
U( 3)     =  0.00000000
alpha( 3) =  0.00000000
U( 4)     =  0.00000000
alpha( 4) =  0.00000000
atom    1   Tr[ns(na)] =   8.04839
    eigenvalues: 
  0.516  0.516  0.997  0.997  0.999
    eigenvectors:
  0.000  0.000  0.000  0.000  1.000
  0.340  0.318  0.002  0.339  0.000
  0.318  0.340  0.339  0.002  0.000
  0.288  0.054  0.520  0.138  0.000
  0.054  0.288  0.138  0.520  0.000
    occupations:
  0.999  0.000  0.000  0.000  0.000
  0.000  0.680  0.000 -0.087  0.211
  0.000  0.000  0.680  0.211  0.087
  0.000 -0.087  0.211  0.832  0.000
  0.000  0.211  0.087  0.000  0.832
atom    2   Tr[ns(na)] =   8.04515
    eigenvalues: 
  0.514  0.514  0.997  0.997  0.999
    eigenvectors:
  0.000  0.000  0.000  0.000  1.000
  0.642  0.016  0.225  0.117  0.000
  0.016  0.642  0.117  0.225  0.000
  0.018  0.324  0.475  0.184  0.000
  0.324  0.018  0.184  0.475  0.000
    occupations:
  0.999  0.000  0.000  0.000  0.000
  0.000  0.679  0.000  0.087  0.212
  0.000  0.000  0.679  0.212 -0.087
  0.000  0.087  0.212  0.832  0.000
  0.000  0.212 -0.087  0.000  0.832
atom    3   Tr[ns(na)] =   3.79288
    eigenvalues: 
  0.356  0.356  0.381  0.402  0.402
    eigenvectors:
  0.000  0.000  1.000  0.000  0.000
  0.783  0.138  0.000  0.011  0.067
  0.138  0.783  0.000  0.067  0.011
  0.012  0.066  0.000  0.781  0.141
  0.066  0.012  0.000  0.141  0.781
    occupations:
  0.381  0.000  0.000  0.000  0.000
  0.000  0.360  0.000  0.000  0.012
  0.000  0.000  0.360  0.012  0.000
  0.000  0.000  0.012  0.398  0.000
  0.000  0.012  0.000  0.000  0.398
atom    4   Tr[ns(na)] =   3.79288
    eigenvalues: 
  0.356  0.356  0.381  0.402  0.402
    eigenvectors:
  0.000  0.000  1.000  0.000  0.000
  0.783  0.139  0.000  0.011  0.067
  0.139  0.783  0.000  0.067  0.011
  0.012  0.066  0.000  0.781  0.141
  0.066  0.012  0.000  0.141  0.781
    occupations:
  0.381  0.000  0.000  0.000  0.000
  0.000  0.360  0.000  0.000  0.012
  0.000  0.000  0.360  0.012  0.000
  0.000  0.000  0.012  0.398  0.000
  0.000  0.012  0.000  0.000  0.398
atom    5   Tr[ns(na)] =   5.43489
    eigenvalues: 
  0.839  0.931  0.948
    eigenvectors:
  0.337  0.000  0.663
  0.498  0.249  0.253
  0.165  0.751  0.084
    occupations:
  0.911  0.045  0.026
  0.045  0.889 -0.024
  0.026 -0.024  0.917
atom    6   Tr[ns(na)] =   5.43489
    eigenvalues: 
  0.839  0.931  0.948
    eigenvectors:
  0.337  0.000  0.663
  0.000  1.000  0.000
  0.663  0.000  0.337
    occupations:
  0.911  0.000 -0.052
  0.000  0.931  0.000
 -0.052  0.000  0.875
atom    7   Tr[ns(na)] =   5.43489
    eigenvalues: 
  0.839  0.931  0.948
    eigenvectors:
  0.337  0.000  0.663
  0.497  0.251  0.252
  0.167  0.749  0.085
    occupations:
  0.911 -0.045  0.026
 -0.045  0.889  0.024
  0.026  0.024  0.917
atom    8   Tr[ns(na)] =   5.43489
    eigenvalues: 
  0.839  0.931  0.948
    eigenvectors:
  0.337  0.000  0.663
  0.000  1.000  0.000
  0.663  0.000  0.337
    occupations:
  0.911  0.000 -0.052
  0.000  0.931  0.000
 -0.052  0.000  0.875
atom    9   Tr[ns(na)] =   5.43489
    eigenvalues: 
  0.839  0.931  0.948
    eigenvectors:
  0.337  0.000  0.663
  0.498  0.249  0.253
  0.165  0.751  0.084
    occupations:
  0.911  0.045  0.026
  0.045  0.889 -0.024
  0.026 -0.024  0.917
atom   10   Tr[ns(na)] =   5.43489
    eigenvalues: 
  0.839  0.931  0.948
    eigenvectors:
  0.337  0.000  0.663
  0.497  0.251  0.252
  0.167  0.749  0.085
    occupations:
  0.911 -0.045  0.026
 -0.045  0.889  0.024
  0.026  0.024  0.917
N of occupied +U levels =  56.2886243
 --- exit write_ns ---
 --- in v_hubbard ---
Hubbard energy    0.4461
 -------

     total cpu time spent up to now is      123.4 secs

     total energy              =    -537.84822693 Ry
     Harris-Foulkes estimate   =    -537.84818835 Ry
     estimated scf accuracy    <       0.00003477 Ry

     iteration #  9     ecut=    30.00 Ry     beta=0.20
     Davidson diagonalization with overlap
     ethr =  4.58E-08,  avg # of iterations =  1.8
 --- enter write_ns ---
 LDA+U parameters:
U( 1)     =  6.00000000
alpha( 1) =  0.00000000
U( 2)     =  6.00000000
alpha( 2) =  0.00000000
U( 3)     =  0.00000000
alpha( 3) =  0.00000000
U( 4)     =  0.00000000
alpha( 4) =  0.00000000
atom    1   Tr[ns(na)] =   8.05042
    eigenvalues: 
  0.516  0.516  0.997  0.997  0.999
    eigenvectors:
  0.000  0.000  0.000  0.000  1.000
  0.339  0.319  0.002  0.340  0.000
  0.319  0.339  0.340  0.002  0.000
  0.288  0.054  0.521  0.138  0.000
  0.054  0.288  0.138  0.521  0.000
    occupations:
  0.999  0.000  0.000  0.000  0.000
  0.000  0.680  0.000 -0.087  0.211
  0.000  0.000  0.680  0.211  0.087
  0.000 -0.087  0.211  0.833  0.000
  0.000  0.211  0.087  0.000  0.833
atom    2   Tr[ns(na)] =   8.04749
    eigenvalues: 
  0.515  0.515  0.997  0.997  0.999
    eigenvectors:
  0.000  0.000  0.000  0.000  1.000
  0.642  0.016  0.225  0.117  0.000
  0.016  0.642  0.117  0.225  0.000
  0.019  0.323  0.475  0.183  0.000
  0.323  0.019  0.183  0.475  0.000
    occupations:
  0.999  0.000  0.000  0.000  0.000
  0.000  0.680  0.000  0.087  0.211
  0.000  0.000  0.680  0.211 -0.087
  0.000  0.087  0.211  0.832  0.000
  0.000  0.211 -0.087  0.000  0.832
atom    3   Tr[ns(na)] =   3.79291
    eigenvalues: 
  0.356  0.356  0.381  0.402  0.402
    eigenvectors:
  0.000  0.000  1.000  0.000  0.000
  0.782  0.139  0.000  0.012  0.067
  0.139  0.782  0.000  0.067  0.012
  0.012  0.066  0.000  0.781  0.141
  0.066  0.012  0.000  0.141  0.781
    occupations:
  0.381  0.000  0.000  0.000  0.000
  0.000  0.360  0.000  0.000  0.012
  0.000  0.000  0.360  0.012  0.000
  0.000  0.000  0.012  0.398  0.000
  0.000  0.012  0.000  0.000  0.398
atom    4   Tr[ns(na)] =   3.79291
    eigenvalues: 
  0.356  0.356  0.381  0.402  0.402
    eigenvectors:
  0.000  0.000  1.000  0.000  0.000
  0.783  0.138  0.000  0.012  0.067
  0.138  0.783  0.000  0.067  0.012
  0.012  0.066  0.000  0.780  0.141
  0.066  0.012  0.000  0.141  0.780
    occupations:
  0.381  0.000  0.000  0.000  0.000
  0.000  0.360  0.000  0.000  0.012
  0.000  0.000  0.360  0.012  0.000
  0.000  0.000  0.012  0.398  0.000
  0.000  0.012  0.000  0.000  0.398
atom    5   Tr[ns(na)] =   5.43412
    eigenvalues: 
  0.838  0.930  0.948
    eigenvectors:
  0.337  0.000  0.663
  0.498  0.249  0.253
  0.165  0.751  0.084
    occupations:
  0.911  0.045  0.026
  0.045  0.889 -0.024
  0.026 -0.024  0.917
atom    6   Tr[ns(na)] =   5.43412
    eigenvalues: 
  0.838  0.930  0.948
    eigenvectors:
  0.337  0.000  0.663
  0.000  1.000  0.000
  0.663  0.000  0.337
    occupations:
  0.911  0.000 -0.052
  0.000  0.930  0.000
 -0.052  0.000  0.875
atom    7   Tr[ns(na)] =   5.43412
    eigenvalues: 
  0.838  0.930  0.948
    eigenvectors:
  0.337  0.000  0.663
  0.497  0.251  0.252
  0.167  0.749  0.085
    occupations:
  0.911 -0.045  0.026
 -0.045  0.889  0.024
  0.026  0.024  0.917
atom    8   Tr[ns(na)] =   5.43412
    eigenvalues: 
  0.838  0.930  0.948
    eigenvectors:
  0.337  0.000  0.663
  0.000  1.000  0.000
  0.663  0.000  0.337
    occupations:
  0.911  0.000 -0.052
  0.000  0.930  0.000
 -0.052  0.000  0.875
atom    9   Tr[ns(na)] =   5.43412
    eigenvalues: 
  0.838  0.930  0.948
    eigenvectors:
  0.337  0.000  0.663
  0.498  0.249  0.253
  0.165  0.751  0.084
    occupations:
  0.911  0.045  0.026
  0.045  0.889 -0.024
  0.026 -0.024  0.917
atom   10   Tr[ns(na)] =   5.43412
    eigenvalues: 
  0.838  0.930  0.948
    eigenvectors:
  0.337  0.000  0.663
  0.497  0.251  0.252
  0.167  0.749  0.085
    occupations:
  0.911 -0.045  0.026
 -0.045  0.889  0.024
  0.026  0.024  0.917
N of occupied +U levels =  56.2884745
 --- exit write_ns ---
 --- in v_hubbard ---
Hubbard energy    0.4465
 -------

     total cpu time spent up to now is      134.6 secs

     total energy              =    -537.84826375 Ry
     Harris-Foulkes estimate   =    -537.84823030 Ry
     estimated scf accuracy    <       0.00000289 Ry

     iteration # 10     ecut=    30.00 Ry     beta=0.20
     Davidson diagonalization with overlap
     ethr =  3.80E-09,  avg # of iterations =  3.0
 --- enter write_ns ---
 LDA+U parameters:
U( 1)     =  6.00000000
alpha( 1) =  0.00000000
U( 2)     =  6.00000000
alpha( 2) =  0.00000000
U( 3)     =  0.00000000
alpha( 3) =  0.00000000
U( 4)     =  0.00000000
alpha( 4) =  0.00000000
atom    1   Tr[ns(na)] =   8.05284
    eigenvalues: 
  0.517  0.517  0.997  0.997  0.999
    eigenvectors:
  0.000  0.000  0.000  0.000  1.000
  0.340  0.318  0.002  0.340  0.000
  0.318  0.340  0.340  0.002  0.000
  0.288  0.054  0.521  0.137  0.000
  0.054  0.288  0.137  0.521  0.000
    occupations:
  0.999  0.000  0.000  0.000  0.000
  0.000  0.681  0.000 -0.088  0.210
  0.000  0.000  0.681  0.210  0.088
  0.000 -0.088  0.210  0.833  0.000
  0.000  0.210  0.088  0.000  0.833
atom    2   Tr[ns(na)] =   8.04932
    eigenvalues: 
  0.515  0.515  0.997  0.997  0.999
    eigenvectors:
  0.000  0.000  0.000  0.000  1.000
  0.643  0.016  0.226  0.116  0.000
  0.016  0.643  0.116  0.226  0.000
  0.019  0.323  0.475  0.183  0.000
  0.323  0.019  0.183  0.475  0.000
    occupations:
  0.999  0.000  0.000  0.000  0.000
  0.000  0.680  0.000  0.087  0.211
  0.000  0.000  0.680  0.211 -0.087
  0.000  0.087  0.211  0.833  0.000
  0.000  0.211 -0.087  0.000  0.833
atom    3   Tr[ns(na)] =   3.79353
    eigenvalues: 
  0.356  0.356  0.381  0.402  0.402
    eigenvectors:
  0.000  0.000  1.000  0.000  0.000
  0.783  0.138  0.000  0.012  0.067
  0.138  0.783  0.000  0.067  0.012
  0.012  0.066  0.000  0.780  0.141
  0.066  0.012  0.000  0.141  0.780
    occupations:
  0.381  0.000  0.000  0.000  0.000
  0.000  0.360  0.000  0.000  0.012
  0.000  0.000  0.360  0.012  0.000
  0.000  0.000  0.012  0.398  0.000
  0.000  0.012  0.000  0.000  0.398
atom    4   Tr[ns(na)] =   3.79353
    eigenvalues: 
  0.356  0.356  0.381  0.402  0.402
    eigenvectors:
  0.000  0.000  1.000  0.000  0.000
  0.783  0.139  0.000  0.012  0.067
  0.139  0.783  0.000  0.067  0.012
  0.012  0.066  0.000  0.781  0.141
  0.066  0.012  0.000  0.141  0.781
    occupations:
  0.381  0.000  0.000  0.000  0.000
  0.000  0.360  0.000  0.000  0.012
  0.000  0.000  0.360  0.012  0.000
  0.000  0.000  0.012  0.398  0.000
  0.000  0.012  0.000  0.000  0.398
atom    5   Tr[ns(na)] =   5.43331
    eigenvalues: 
  0.838  0.930  0.948
    eigenvectors:
  0.337  0.000  0.663
  0.498  0.249  0.253
  0.165  0.751  0.084
    occupations:
  0.911  0.045  0.026
  0.045  0.889 -0.024
  0.026 -0.024  0.917
atom    6   Tr[ns(na)] =   5.43331
    eigenvalues: 
  0.838  0.930  0.948
    eigenvectors:
  0.337  0.000  0.663
  0.000  1.000  0.000
  0.663  0.000  0.337
    occupations:
  0.911  0.000 -0.052
  0.000  0.930  0.000
 -0.052  0.000  0.875
atom    7   Tr[ns(na)] =   5.43331
    eigenvalues: 
  0.838  0.930  0.948
    eigenvectors:
  0.337  0.000  0.663
  0.497  0.251  0.252
  0.166  0.749  0.085
    occupations:
  0.911 -0.045  0.026
 -0.045  0.889  0.024
  0.026  0.024  0.917
atom    8   Tr[ns(na)] =   5.43331
    eigenvalues: 
  0.838  0.930  0.948
    eigenvectors:
  0.337  0.000  0.663
  0.000  1.000  0.000
  0.663  0.000  0.337
    occupations:
  0.911  0.000 -0.052
  0.000  0.930  0.000
 -0.052  0.000  0.875
atom    9   Tr[ns(na)] =   5.43331
    eigenvalues: 
  0.838  0.930  0.948
    eigenvectors:
  0.337  0.000  0.663
  0.498  0.249  0.253
  0.165  0.751  0.084
    occupations:
  0.911  0.045  0.026
  0.045  0.889 -0.024
  0.026 -0.024  0.917
atom   10   Tr[ns(na)] =   5.43331
    eigenvalues: 
  0.838  0.930  0.948
    eigenvectors:
  0.337  0.000  0.663
  0.497  0.251  0.252
  0.166  0.749  0.085
    occupations:
  0.911 -0.045  0.026
 -0.045  0.889  0.024
  0.026  0.024  0.917
N of occupied +U levels =  56.2890742
 --- exit write_ns ---
 --- in v_hubbard ---
Hubbard energy    0.4467
 -------

     total cpu time spent up to now is      148.4 secs

     total energy              =    -537.84827835 Ry
     Harris-Foulkes estimate   =    -537.84826614 Ry
     estimated scf accuracy    <       0.00001494 Ry

     iteration # 11     ecut=    30.00 Ry     beta=0.20
     Davidson diagonalization with overlap
     ethr =  3.80E-09,  avg # of iterations =  2.0
 --- enter write_ns ---
 LDA+U parameters:
U( 1)     =  6.00000000
alpha( 1) =  0.00000000
U( 2)     =  6.00000000
alpha( 2) =  0.00000000
U( 3)     =  0.00000000
alpha( 3) =  0.00000000
U( 4)     =  0.00000000
alpha( 4) =  0.00000000
atom    1   Tr[ns(na)] =   8.04974
    eigenvalues: 
  0.516  0.516  0.997  0.997  0.999
    eigenvectors:
  0.000  0.000  0.000  0.000  1.000
  0.341  0.318  0.002  0.340  0.000
  0.318  0.341  0.340  0.002  0.000
  0.288  0.053  0.521  0.137  0.000
  0.053  0.288  0.137  0.521  0.000
    occupations:
  0.999  0.000  0.000  0.000  0.000
  0.000  0.680  0.000 -0.088  0.210
  0.000  0.000  0.680  0.210  0.088
  0.000 -0.088  0.210  0.832  0.000
  0.000  0.210  0.088  0.000  0.832
atom    2   Tr[ns(na)] =   8.04679
    eigenvalues: 
  0.515  0.515  0.997  0.997  0.999
    eigenvectors:
  0.000  0.000  0.000  0.000  1.000
  0.643  0.015  0.226  0.116  0.000
  0.015  0.643  0.116  0.226  0.000
  0.019  0.322  0.475  0.183  0.000
  0.322  0.019  0.183  0.475  0.000
    occupations:
  0.999  0.000  0.000  0.000  0.000
  0.000  0.680  0.000  0.088  0.211
  0.000  0.000  0.680  0.211 -0.088
  0.000  0.088  0.211  0.832  0.000
  0.000  0.211 -0.088  0.000  0.832
atom    3   Tr[ns(na)] =   3.79274
    eigenvalues: 
  0.356  0.356  0.381  0.402  0.402
    eigenvectors:
  0.000  0.000  1.000  0.000  0.000
  0.783  0.138  0.000  0.012  0.067
  0.138  0.783  0.000  0.067  0.012
  0.012  0.067  0.000  0.781  0.141
  0.067  0.012  0.000  0.141  0.781
    occupations:
  0.381  0.000  0.000  0.000  0.000
  0.000  0.360  0.000  0.000  0.012
  0.000  0.000  0.360  0.012  0.000
  0.000  0.000  0.012  0.398  0.000
  0.000  0.012  0.000  0.000  0.398
atom    4   Tr[ns(na)] =   3.79274
    eigenvalues: 
  0.356  0.356  0.381  0.402  0.402
    eigenvectors:
  0.000  0.000  1.000  0.000  0.000
  0.783  0.139  0.000  0.012  0.067
  0.139  0.783  0.000  0.067  0.012
  0.012  0.067  0.000  0.780  0.141
  0.067  0.012  0.000  0.141  0.780
    occupations:
  0.381  0.000  0.000  0.000  0.000
  0.000  0.360  0.000  0.000  0.012
  0.000  0.000  0.360  0.012  0.000
  0.000  0.000  0.012  0.398  0.000
  0.000  0.012  0.000  0.000  0.398
atom    5   Tr[ns(na)] =   5.43432
    eigenvalues: 
  0.838  0.931  0.948
    eigenvectors:
  0.337  0.000  0.663
  0.498  0.249  0.253
  0.165  0.751  0.084
    occupations:
  0.911  0.045  0.026
  0.045  0.889 -0.024
  0.026 -0.024  0.917
atom    6   Tr[ns(na)] =   5.43432
    eigenvalues: 
  0.838  0.931  0.948
    eigenvectors:
  0.337  0.000  0.663
  0.000  1.000  0.000
  0.663  0.000  0.337
    occupations:
  0.911  0.000 -0.052
  0.000  0.931  0.000
 -0.052  0.000  0.875
atom    7   Tr[ns(na)] =   5.43432
    eigenvalues: 
  0.838  0.931  0.948
    eigenvectors:
  0.337  0.000  0.663
  0.497  0.251  0.252
  0.167  0.749  0.085
    occupations:
  0.911 -0.045  0.026
 -0.045  0.889  0.024
  0.026  0.024  0.917
atom    8   Tr[ns(na)] =   5.43432
    eigenvalues: 
  0.838  0.931  0.948
    eigenvectors:
  0.337  0.000  0.663
  0.000  1.000  0.000
  0.663  0.000  0.337
    occupations:
  0.911  0.000 -0.052
  0.000  0.931  0.000
 -0.052  0.000  0.875
atom    9   Tr[ns(na)] =   5.43432
    eigenvalues: 
  0.838  0.931  0.948
    eigenvectors:
  0.337  0.000  0.663
  0.498  0.249  0.253
  0.165  0.751  0.084
    occupations:
  0.911  0.045  0.026
  0.045  0.889 -0.024
  0.026 -0.024  0.917
atom   10   Tr[ns(na)] =   5.43432
    eigenvalues: 
  0.838  0.931  0.948
    eigenvectors:
  0.337  0.000  0.663
  0.497  0.251  0.252
  0.167  0.749  0.085
    occupations:
  0.911 -0.045  0.026
 -0.045  0.889  0.024
  0.026  0.024  0.917
N of occupied +U levels =  56.2879402
 --- exit write_ns ---
 --- in v_hubbard ---
Hubbard energy    0.4466
 -------

     total cpu time spent up to now is      162.4 secs

     total energy              =    -537.84829643 Ry
     Harris-Foulkes estimate   =    -537.84828114 Ry
     estimated scf accuracy    <       0.00000074 Ry

     iteration # 12     ecut=    30.00 Ry     beta=0.20
     Davidson diagonalization with overlap
     ethr =  9.74E-10,  avg # of iterations =  2.0
 --- enter write_ns ---
 LDA+U parameters:
U( 1)     =  6.00000000
alpha( 1) =  0.00000000
U( 2)     =  6.00000000
alpha( 2) =  0.00000000
U( 3)     =  0.00000000
alpha( 3) =  0.00000000
U( 4)     =  0.00000000
alpha( 4) =  0.00000000
atom    1   Tr[ns(na)] =   8.05100
    eigenvalues: 
  0.516  0.516  0.997  0.997  0.999
    eigenvectors:
  0.000  0.000  0.000  0.000  1.000
  0.340  0.318  0.002  0.340  0.000
  0.318  0.340  0.340  0.002  0.000
  0.288  0.053  0.521  0.137  0.000
  0.053  0.288  0.137  0.521  0.000
    occupations:
  0.999  0.000  0.000  0.000  0.000
  0.000  0.681  0.000 -0.088  0.210
  0.000  0.000  0.681  0.210  0.088
  0.000 -0.088  0.210  0.833  0.000
  0.000  0.210  0.088  0.000  0.833
atom    2   Tr[ns(na)] =   8.04775
    eigenvalues: 
  0.515  0.515  0.997  0.997  0.999
    eigenvectors:
  0.000  0.000  0.000  0.000  1.000
  0.643  0.015  0.226  0.116  0.000
  0.015  0.643  0.116  0.226  0.000
  0.019  0.322  0.475  0.184  0.000
  0.322  0.019  0.184  0.475  0.000
    occupations:
  0.999  0.000  0.000  0.000  0.000
  0.000  0.680  0.000  0.088  0.211
  0.000  0.000  0.680  0.211 -0.088
  0.000  0.088  0.211  0.832  0.000
  0.000  0.211 -0.088  0.000  0.832
atom    3   Tr[ns(na)] =   3.79314
    eigenvalues: 
  0.356  0.356  0.381  0.402  0.402
    eigenvectors:
  0.000  0.000  1.000  0.000  0.000
  0.783  0.138  0.000  0.012  0.067
  0.138  0.783  0.000  0.067  0.012
  0.012  0.066  0.000  0.780  0.141
  0.066  0.012  0.000  0.141  0.780
    occupations:
  0.381  0.000  0.000  0.000  0.000
  0.000  0.360  0.000  0.000  0.012
  0.000  0.000  0.360  0.012  0.000
  0.000  0.000  0.012  0.398  0.000
  0.000  0.012  0.000  0.000  0.398
atom    4   Tr[ns(na)] =   3.79314
    eigenvalues: 
  0.356  0.356  0.381  0.402  0.402
    eigenvectors:
  0.000  0.000  1.000  0.000  0.000
  0.782  0.139  0.000  0.012  0.067
  0.139  0.782  0.000  0.067  0.012
  0.012  0.066  0.000  0.780  0.141
  0.066  0.012  0.000  0.141  0.780
    occupations:
  0.381  0.000  0.000  0.000  0.000
  0.000  0.360  0.000  0.000  0.012
  0.000  0.000  0.360  0.012  0.000
  0.000  0.000  0.012  0.398  0.000
  0.000  0.012  0.000  0.000  0.398
atom    5   Tr[ns(na)] =   5.43391
    eigenvalues: 
  0.838  0.931  0.948
    eigenvectors:
  0.337  0.000  0.663
  0.498  0.249  0.253
  0.165  0.751  0.084
    occupations:
  0.911  0.045  0.026
  0.045  0.889 -0.024
  0.026 -0.024  0.917
atom    6   Tr[ns(na)] =   5.43391
    eigenvalues: 
  0.838  0.931  0.948
    eigenvectors:
  0.337  0.000  0.663
  0.000  1.000  0.000
  0.663  0.000  0.337
    occupations:
  0.911  0.000 -0.052
  0.000  0.931  0.000
 -0.052  0.000  0.875
atom    7   Tr[ns(na)] =   5.43391
    eigenvalues: 
  0.838  0.931  0.948
    eigenvectors:
  0.337  0.000  0.663
  0.497  0.251  0.252
  0.167  0.749  0.085
    occupations:
  0.911 -0.045  0.026
 -0.045  0.889  0.024
  0.026  0.024  0.917
atom    8   Tr[ns(na)] =   5.43391
    eigenvalues: 
  0.838  0.931  0.948
    eigenvectors:
  0.337  0.000  0.663
  0.000  1.000  0.000
  0.663  0.000  0.337
    occupations:
  0.911  0.000 -0.052
  0.000  0.931  0.000
 -0.052  0.000  0.875
atom    9   Tr[ns(na)] =   5.43391
    eigenvalues: 
  0.838  0.931  0.948
    eigenvectors:
  0.337  0.000  0.663
  0.498  0.249  0.253
  0.165  0.751  0.084
    occupations:
  0.911  0.045  0.026
  0.045  0.889 -0.024
  0.026 -0.024  0.917
atom   10   Tr[ns(na)] =   5.43391
    eigenvalues: 
  0.838  0.931  0.948
    eigenvectors:
  0.337  0.000  0.663
  0.497  0.251  0.252
  0.167  0.749  0.085
    occupations:
  0.911 -0.045  0.026
 -0.045  0.889  0.024
  0.026  0.024  0.917
N of occupied +U levels =  56.2885090
 --- exit write_ns ---
 --- in v_hubbard ---
Hubbard energy    0.4465
 -------

     total cpu time spent up to now is      176.5 secs

     total energy              =    -537.84830426 Ry
     Harris-Foulkes estimate   =    -537.84829681 Ry
     estimated scf accuracy    <       0.00000149 Ry

     iteration # 13     ecut=    30.00 Ry     beta=0.20
     Davidson diagonalization with overlap
     ethr =  9.74E-10,  avg # of iterations =  1.0
 --- enter write_ns ---
 LDA+U parameters:
U( 1)     =  6.00000000
alpha( 1) =  0.00000000
U( 2)     =  6.00000000
alpha( 2) =  0.00000000
U( 3)     =  0.00000000
alpha( 3) =  0.00000000
U( 4)     =  0.00000000
alpha( 4) =  0.00000000
atom    1   Tr[ns(na)] =   8.05044
    eigenvalues: 
  0.516  0.516  0.997  0.997  0.999
    eigenvectors:
  0.000  0.000  0.000  0.000  1.000
  0.340  0.318  0.002  0.340  0.000
  0.318  0.340  0.340  0.002  0.000
  0.289  0.053  0.521  0.137  0.000
  0.053  0.289  0.137  0.521  0.000
    occupations:
  0.999  0.000  0.000  0.000  0.000
  0.000  0.680  0.000 -0.088  0.210
  0.000  0.000  0.680  0.210  0.088
  0.000 -0.088  0.210  0.833  0.000
  0.000  0.210  0.088  0.000  0.833
atom    2   Tr[ns(na)] =   8.04732
    eigenvalues: 
  0.515  0.515  0.997  0.997  0.999
    eigenvectors:
  0.000  0.000  0.000  0.000  1.000
  0.643  0.015  0.226  0.115  0.000
  0.015  0.643  0.115  0.226  0.000
  0.019  0.322  0.475  0.184  0.000
  0.322  0.019  0.184  0.475  0.000
    occupations:
  0.999  0.000  0.000  0.000  0.000
  0.000  0.680  0.000  0.088  0.211
  0.000  0.000  0.680  0.211 -0.088
  0.000  0.088  0.211  0.832  0.000
  0.000  0.211 -0.088  0.000  0.832
atom    3   Tr[ns(na)] =   3.79308
    eigenvalues: 
  0.356  0.356  0.381  0.402  0.402
    eigenvectors:
  0.000  0.000  1.000  0.000  0.000
  0.783  0.138  0.000  0.012  0.067
  0.138  0.783  0.000  0.067  0.012
  0.012  0.066  0.000  0.781  0.141
  0.066  0.012  0.000  0.141  0.781
    occupations:
  0.381  0.000  0.000  0.000  0.000
  0.000  0.360  0.000  0.000  0.012
  0.000  0.000  0.360  0.012  0.000
  0.000  0.000  0.012  0.398  0.000
  0.000  0.012  0.000  0.000  0.398
atom    4   Tr[ns(na)] =   3.79308
    eigenvalues: 
  0.356  0.356  0.381  0.402  0.402
    eigenvectors:
  0.000  0.000  1.000  0.000  0.000
  0.783  0.139  0.000  0.012  0.067
  0.139  0.783  0.000  0.067  0.012
  0.012  0.066  0.000  0.780  0.141
  0.066  0.012  0.000  0.141  0.780
    occupations:
  0.381  0.000  0.000  0.000  0.000
  0.000  0.360  0.000  0.000  0.012
  0.000  0.000  0.360  0.012  0.000
  0.000  0.000  0.012  0.398  0.000
  0.000  0.012  0.000  0.000  0.398
atom    5   Tr[ns(na)] =   5.43408
    eigenvalues: 
  0.838  0.931  0.948
    eigenvectors:
  0.337  0.000  0.663
  0.498  0.249  0.253
  0.165  0.751  0.084
    occupations:
  0.911  0.045  0.026
  0.045  0.889 -0.024
  0.026 -0.024  0.917
atom    6   Tr[ns(na)] =   5.43408
    eigenvalues: 
  0.838  0.931  0.948
    eigenvectors:
  0.337  0.000  0.663
  0.000  1.000  0.000
  0.663  0.000  0.337
    occupations:
  0.911  0.000 -0.052
  0.000  0.931  0.000
 -0.052  0.000  0.875
atom    7   Tr[ns(na)] =   5.43408
    eigenvalues: 
  0.838  0.931  0.948
    eigenvectors:
  0.337  0.000  0.663
  0.497  0.251  0.252
  0.167  0.749  0.085
    occupations:
  0.911 -0.045  0.026
 -0.045  0.889  0.024
  0.026  0.024  0.917
atom    8   Tr[ns(na)] =   5.43408
    eigenvalues: 
  0.838  0.931  0.948
    eigenvectors:
  0.337  0.000  0.663
  0.000  1.000  0.000
  0.663  0.000  0.337
    occupations:
  0.911  0.000 -0.052
  0.000  0.931  0.000
 -0.052  0.000  0.875
atom    9   Tr[ns(na)] =   5.43408
    eigenvalues: 
  0.838  0.931  0.948
    eigenvectors:
  0.337  0.000  0.663
  0.498  0.249  0.253
  0.165  0.751  0.084
    occupations:
  0.911  0.045  0.026
  0.045  0.889 -0.024
  0.026 -0.024  0.917
atom   10   Tr[ns(na)] =   5.43408
    eigenvalues: 
  0.838  0.931  0.948
    eigenvectors:
  0.337  0.000  0.663
  0.497  0.251  0.252
  0.167  0.749  0.085
    occupations:
  0.911 -0.045  0.026
 -0.045  0.889  0.024
  0.026  0.024  0.917
N of occupied +U levels =  56.2883908
 --- exit write_ns ---
 --- in v_hubbard ---
Hubbard energy    0.4464
 -------

     total cpu time spent up to now is      189.0 secs

     total energy              =    -537.84830979 Ry
     Harris-Foulkes estimate   =    -537.84830459 Ry
     estimated scf accuracy    <       0.00000016 Ry

     iteration # 14     ecut=    30.00 Ry     beta=0.20
     Davidson diagonalization with overlap
     ethr =  2.07E-10,  avg # of iterations =  2.0
 --- enter write_ns ---
 LDA+U parameters:
U( 1)     =  6.00000000
alpha( 1) =  0.00000000
U( 2)     =  6.00000000
alpha( 2) =  0.00000000
U( 3)     =  0.00000000
alpha( 3) =  0.00000000
U( 4)     =  0.00000000
alpha( 4) =  0.00000000
atom    1   Tr[ns(na)] =   8.05017
    eigenvalues: 
  0.516  0.516  0.997  0.997  0.999
    eigenvectors:
  0.000  0.000  0.000  0.000  1.000
  0.340  0.318  0.002  0.340  0.000
  0.318  0.340  0.340  0.002  0.000
  0.289  0.053  0.521  0.137  0.000
  0.053  0.289  0.137  0.521  0.000
    occupations:
  0.999  0.000  0.000  0.000  0.000
  0.000  0.680  0.000 -0.088  0.210
  0.000  0.000  0.680  0.210  0.088
  0.000 -0.088  0.210  0.833  0.000
  0.000  0.210  0.088  0.000  0.833
atom    2   Tr[ns(na)] =   8.04709
    eigenvalues: 
  0.515  0.515  0.997  0.997  0.999
    eigenvectors:
  0.000  0.000  0.000  0.000  1.000
  0.643  0.015  0.226  0.115  0.000
  0.015  0.643  0.115  0.226  0.000
  0.020  0.322  0.475  0.183  0.000
  0.322  0.020  0.183  0.475  0.000
    occupations:
  0.999  0.000  0.000  0.000  0.000
  0.000  0.680  0.000  0.088  0.211
  0.000  0.000  0.680  0.211 -0.088
  0.000  0.088  0.211  0.832  0.000
  0.000  0.211 -0.088  0.000  0.832
atom    3   Tr[ns(na)] =   3.79290
    eigenvalues: 
  0.356  0.356  0.381  0.402  0.402
    eigenvectors:
  0.000  0.000  1.000  0.000  0.000
  0.783  0.139  0.000  0.012  0.067
  0.139  0.783  0.000  0.067  0.012
  0.012  0.066  0.000  0.780  0.141
  0.066  0.012  0.000  0.141  0.780
    occupations:
  0.381  0.000  0.000  0.000  0.000
  0.000  0.360  0.000  0.000  0.012
  0.000  0.000  0.360  0.012  0.000
  0.000  0.000  0.012  0.398  0.000
  0.000  0.012  0.000  0.000  0.398
atom    4   Tr[ns(na)] =   3.79290
    eigenvalues: 
  0.356  0.356  0.381  0.402  0.402
    eigenvectors:
  0.000  0.000  1.000  0.000  0.000
  0.783  0.139  0.000  0.012  0.067
  0.139  0.783  0.000  0.067  0.012
  0.012  0.066  0.000  0.780  0.141
  0.066  0.012  0.000  0.141  0.780
    occupations:
  0.381  0.000  0.000  0.000  0.000
  0.000  0.360  0.000  0.000  0.012
  0.000  0.000  0.360  0.012  0.000
  0.000  0.000  0.012  0.398  0.000
  0.000  0.012  0.000  0.000  0.398
atom    5   Tr[ns(na)] =   5.43419
    eigenvalues: 
  0.838  0.931  0.948
    eigenvectors:
  0.337  0.000  0.663
  0.498  0.249  0.253
  0.165  0.751  0.084
    occupations:
  0.911  0.045  0.026
  0.045  0.889 -0.024
  0.026 -0.024  0.917
atom    6   Tr[ns(na)] =   5.43419
    eigenvalues: 
  0.838  0.931  0.948
    eigenvectors:
  0.337  0.000  0.663
  0.000  1.000  0.000
  0.663  0.000  0.337
    occupations:
  0.911  0.000 -0.052
  0.000  0.931  0.000
 -0.052  0.000  0.875
atom    7   Tr[ns(na)] =   5.43419
    eigenvalues: 
  0.838  0.931  0.948
    eigenvectors:
  0.337  0.000  0.663
  0.497  0.251  0.252
  0.167  0.749  0.085
    occupations:
  0.911 -0.045  0.026
 -0.045  0.889  0.024
  0.026  0.024  0.917
atom    8   Tr[ns(na)] =   5.43419
    eigenvalues: 
  0.838  0.931  0.948
    eigenvectors:
  0.337  0.000  0.663
  0.000  1.000  0.000
  0.663  0.000  0.337
    occupations:
  0.911  0.000 -0.052
  0.000  0.931  0.000
 -0.052  0.000  0.875
atom    9   Tr[ns(na)] =   5.43419
    eigenvalues: 
  0.838  0.931  0.948
    eigenvectors:
  0.337  0.000  0.663
  0.498  0.249  0.253
  0.165  0.751  0.084
    occupations:
  0.911  0.045  0.026
  0.045  0.889 -0.024
  0.026 -0.024  0.917
atom   10   Tr[ns(na)] =   5.43419
    eigenvalues: 
  0.838  0.931  0.948
    eigenvectors:
  0.337  0.000  0.663
  0.497  0.251  0.252
  0.167  0.749  0.085
    occupations:
  0.911 -0.045  0.026
 -0.045  0.889  0.024
  0.026  0.024  0.917
N of occupied +U levels =  56.2882146
 --- exit write_ns ---
 --- in v_hubbard ---
Hubbard energy    0.4464
 -------

     total cpu time spent up to now is      202.2 secs

     End of self-consistent calculation

          k = 0.0000 0.0000 0.0000 (  2175 PWs)   bands (ev):

   -19.7930 -19.6197  -6.5509  -5.8809  -5.8809  -5.8242  -5.8242  -5.4850
    -3.9031  -3.2888  -3.2888  -3.2552  -3.0215  -3.0215   5.1648   6.1780
     6.1780   6.2267   6.6440   6.6440   7.5085   7.5085   7.7063   7.7183
     8.0480   8.0480   9.2959   9.6247   9.6247   9.9776   9.9776  10.1525
    10.4566  10.4566  10.6734  10.7094  10.7094  11.0105  11.8388  11.8388
    14.7075  14.7075  15.4319  15.4319  16.2019  16.7881

     occupation numbers 
     0.0313   0.0313   0.0313   0.0313   0.0313   0.0313   0.0313   0.0313
     0.0313   0.0313   0.0313   0.0313   0.0313   0.0313   0.0313   0.0313
     0.0313   0.0313   0.0313   0.0313   0.0313   0.0313   0.0313   0.0313
     0.0313   0.0313   0.0312   0.0312   0.0312   0.0312   0.0312   0.0312
     0.0312   0.0312   0.0311   0.0310   0.0310   0.0288   0.0023   0.0023
     0.0000   0.0000   0.0000   0.0000   0.0000   0.0000

          k =-0.2471-0.1427 0.1027 (  2181 PWs)   bands (ev):

   -19.7690 -19.6641  -6.7288  -6.3057  -5.9718  -5.8620  -5.6165  -5.4862
    -3.6704  -3.4275  -2.9515  -2.9105  -2.8791  -2.7699   5.4575   5.9443
     6.2248   6.2832   6.6021   6.6343   6.9006   7.2936   7.4377   7.5782
     7.6429   7.9167   9.3376   9.4972   9.6973   9.8468   9.8817   9.9724
    10.1939  10.3653  10.3969  10.6728  10.7878  10.8273  12.2638  12.3378
    14.2562  14.2676  15.8187  16.0723  16.9739  17.2681

     occupation numbers 
     0.1875   0.1875   0.1875   0.1875   0.1875   0.1875   0.1875   0.1875
     0.1875   0.1875   0.1875   0.1875   0.1875   0.1875   0.1875   0.1875
     0.1875   0.1875   0.1875   0.1875   0.1875   0.1875   0.1875   0.1875
     0.1875   0.1875   0.1875   0.1875   0.1875   0.1875   0.1875   0.1875
     0.1875   0.1875   0.1875   0.1866   0.1848   0.1838   0.0003   0.0001
     0.0000   0.0000   0.0000   0.0000   0.0000   0.0000

          k = 0.4942 0.2853-0.2053 (  2202 PWs)   bands (ev):

   -19.7270 -19.7270  -6.7280  -6.7160  -5.9741  -5.9727  -5.5277  -5.5250
    -3.4165  -3.4135  -2.8084  -2.8066  -2.5059  -2.5040   5.6383   5.6478
     6.3596   6.3727   6.5468   6.5609   6.8743   6.8822   7.2720   7.2842
     7.4114   7.4272   9.3229   9.3331   9.7509   9.7646  10.0106  10.0310
    10.1167  10.1343  10.3569  10.3729  10.5881  10.6077  13.2423  13.2896
    13.3258  13.3729  16.8333  16.8382  17.1284  17.1316

     occupation numbers 
     0.0938   0.0938   0.0938   0.0938   0.0938   0.0938   0.0938   0.0938
     0.0938   0.0938   0.0938   0.0938   0.0938   0.0938   0.0938   0.0938
     0.0938   0.0938   0.0938   0.0938   0.0938   0.0938   0.0938   0.0938
     0.0938   0.0938   0.0937   0.0937   0.0937   0.0937   0.0937   0.0937
     0.0937   0.0937   0.0937   0.0937   0.0936   0.0935   0.0000   0.0000
     0.0000   0.0000   0.0000   0.0000   0.0000   0.0000

          k =-0.2471 0.1427 0.2053 (  2195 PWs)   bands (ev):

   -19.7603 -19.6795  -6.8539  -6.2538  -6.0809  -5.8385  -5.6588  -5.4773
    -3.4638  -3.2794  -3.1258  -2.9164  -2.8482  -2.5583   5.5136   5.6367
     6.0972   6.2994   6.5879   6.9446   7.0320   7.2797   7.2971   7.5266
     7.7088   7.9976   8.7171   9.2863   9.6934   9.8228   9.9553   9.9582
    10.2456  10.4326  10.5736  10.6527  10.7303  10.7387  11.7770  12.6917
    13.5898  14.7266  15.9965  16.1989  17.0377  17.5387

     occupation numbers 
     0.1875   0.1875   0.1875   0.1875   0.1875   0.1875   0.1875   0.1875
     0.1875   0.1875   0.1875   0.1875   0.1875   0.1875   0.1875   0.1875
     0.1875   0.1875   0.1875   0.1875   0.1875   0.1875   0.1875   0.1875
     0.1875   0.1875   0.1875   0.1875   0.1875   0.1875   0.1875   0.1875
     0.1875   0.1874   0.1872   0.1868   0.1859   0.1858   0.0203   0.0000
     0.0000   0.0000   0.0000   0.0000   0.0000   0.0000

          k = 0.4942 0.5706-0.1027 (  2198 PWs)   bands (ev):

   -19.7348 -19.7253  -6.9561  -6.6492  -6.1332  -5.8946  -5.5185  -5.3938
    -3.3382  -3.2722  -2.8856  -2.7156  -2.5310  -2.3867   5.3853   5.7946
     5.9395   6.4375   6.4548   6.5974   6.6644   7.0375   7.2681   7.3681
     7.7989   7.9214   8.7826   9.1102   9.4446   9.6770   9.6912  10.0097
    10.2241  10.3231  10.3404  10.4590  10.6390  10.8213  12.2575  12.6967
    13.3850  14.3086  16.9064  17.1152  17.3073  18.0161

     occupation numbers 
     0.1875   0.1875   0.1875   0.1875   0.1875   0.1875   0.1875   0.1875
     0.1875   0.1875   0.1875   0.1875   0.1875   0.1875   0.1875   0.1875
     0.1875   0.1875   0.1875   0.1875   0.1875   0.1875   0.1875   0.1875
     0.1875   0.1875   0.1875   0.1875   0.1875   0.1875   0.1875   0.1875
     0.1875   0.1875   0.1875   0.1874   0.1869   0.1839   0.0004   0.0000
     0.0000   0.0000   0.0000   0.0000   0.0000   0.0000

          k = 0.2471 0.4280 0.0000 (  2203 PWs)   bands (ev):

   -19.7478 -19.7054  -6.8480  -6.6468  -6.0571  -5.9838  -5.4453  -5.3755
    -3.5796  -3.3076  -2.8065  -2.7089  -2.5821  -2.5703   5.5601   5.7402
     6.1742   6.2817   6.4954   6.5788   6.8161   6.9491   7.2401   7.3928
     7.4191   8.1755   8.8635   9.2780   9.6518   9.7087   9.8787  10.0755
    10.1916  10.2558  10.3468  10.4284  10.4924  10.8969  12.1636  13.2740
    13.3568  14.1037  16.4339  16.9964  17.4209  17.9268

     occupation numbers 
     0.1875   0.1875   0.1875   0.1875   0.1875   0.1875   0.1875   0.1875
     0.1875   0.1875   0.1875   0.1875   0.1875   0.1875   0.1875   0.1875
     0.1875   0.1875   0.1875   0.1875   0.1875   0.1875   0.1875   0.1875
     0.1875   0.1875   0.1875   0.1875   0.1875   0.1875   0.1875   0.1875
     0.1875   0.1875   0.1875   0.1874   0.1874   0.1810   0.0009   0.0000
     0.0000   0.0000   0.0000   0.0000   0.0000   0.0000

          k = 0.4942-0.2853-0.4107 (  2202 PWs)   bands (ev):

   -19.7389 -19.7272  -7.1669  -6.4521  -6.2379  -5.9736  -5.5325  -5.3024
    -3.2236  -3.1148  -3.0688  -2.6467  -2.4784  -2.2215   4.9967   5.6706
     5.7658   6.3942   6.5032   6.9390   7.0375   7.1136   7.1433   7.2527
     8.0109   8.1653   8.2977   8.6044   9.4145   9.6754  10.0303  10.0627
    10.0963  10.2307  10.3247  10.5722  10.5903  10.9317  11.7353  12.3629
    13.2883  14.7420  17.0470  17.2698  17.5202  17.6150

     occupation numbers 
     0.0938   0.0938   0.0938   0.0938   0.0938   0.0938   0.0938   0.0938
     0.0938   0.0938   0.0938   0.0938   0.0938   0.0938   0.0938   0.0938
     0.0938   0.0938   0.0938   0.0938   0.0938   0.0938   0.0938   0.0938
     0.0938   0.0938   0.0938   0.0938   0.0937   0.0937   0.0937   0.0937
     0.0937   0.0937   0.0937   0.0936   0.0936   0.0895   0.0129   0.0001
     0.0000   0.0000   0.0000   0.0000   0.0000   0.0000

          k = 0.0000 0.0000 0.3080 (  2187 PWs)   bands (ev):

   -19.7686 -19.6665  -6.6169  -5.9945  -5.9570  -5.9570  -5.8472  -5.8472
    -3.2402  -3.1661  -3.1661  -2.9770  -2.9003  -2.9003   5.5892   5.9273
     6.2290   6.2290   6.6608   6.6608   6.9334   7.4254   7.4254   7.6985
     7.6985   7.7815   9.4175   9.4175   9.4380   9.6783  10.0778  10.0778
    10.0962  10.0962  10.4528  10.7307  10.7634  10.7634  12.2352  12.2352
    14.2176  14.2176  15.9144  15.9144  16.8794  17.4821

     occupation numbers 
     0.0625   0.0625   0.0625   0.0625   0.0625   0.0625   0.0625   0.0625
     0.0625   0.0625   0.0625   0.0625   0.0625   0.0625   0.0625   0.0625
     0.0625   0.0625   0.0625   0.0625   0.0625   0.0625   0.0625   0.0625
     0.0625   0.0625   0.0625   0.0625   0.0625   0.0625   0.0625   0.0625
     0.0625   0.0625   0.0625   0.0620   0.0618   0.0618   0.0001   0.0001
     0.0000   0.0000   0.0000   0.0000   0.0000   0.0000

          k = 0.7412 0.4280 0.0000 (  2204 PWs)   bands (ev):

   -19.7469 -19.7083  -6.7334  -6.6120  -6.1447  -5.8376  -5.7037  -5.5537
    -3.2166  -3.1085  -3.0492  -2.6811  -2.6707  -2.5885   5.6540   5.8092
     6.0512   6.4285   6.4541   6.7099   6.7953   6.9433   7.2978   7.3635
     7.5367   7.9988   8.8416   9.3860   9.3935   9.6518   9.8157  10.0756
    10.2263  10.2409  10.4616  10.4730  10.5254  10.6061  12.1610  13.1938
    13.2728  14.1332  16.6858  16.7279  17.5907  17.7955

     occupation numbers 
     0.1875   0.1875   0.1875   0.1875   0.1875   0.1875   0.1875   0.1875
     0.1875   0.1875   0.1875   0.1875   0.1875   0.1875   0.1875   0.1875
     0.1875   0.1875   0.1875   0.1875   0.1875   0.1875   0.1875   0.1875
     0.1875   0.1875   0.1875   0.1875   0.1875   0.1875   0.1875   0.1875
     0.1875   0.1875   0.1874   0.1874   0.1873   0.1871   0.0010   0.0000
     0.0000   0.0000   0.0000   0.0000   0.0000   0.0000

          k = 0.4942 0.2853 0.1027 (  2211 PWs)   bands (ev):

   -19.7362 -19.7240  -6.9727  -6.5445  -6.3264  -5.7086  -5.6252  -5.3653
    -3.3532  -3.1731  -3.0552  -2.6028  -2.5685  -2.3779   5.4014   5.8459
     5.8678   6.2494   6.5083   6.7437   6.8483   6.8560   7.2511   7.2813
     7.8677   7.9570   8.7517   9.2607   9.3263   9.5889   9.8449   9.8939
    10.2892  10.3025  10.4719  10.5438  10.5951  10.6429  12.2133  12.7102
    13.4324  14.2902  16.8867  16.9359  17.5785  17.9281

     occupation numbers 
     0.1875   0.1875   0.1875   0.1875   0.1875   0.1875   0.1875   0.1875
     0.1875   0.1875   0.1875   0.1875   0.1875   0.1875   0.1875   0.1875
     0.1875   0.1875   0.1875   0.1875   0.1875   0.1875   0.1875   0.1875
     0.1875   0.1875   0.1875   0.1875   0.1875   0.1875   0.1875   0.1875
     0.1875   0.1875   0.1874   0.1873   0.1871   0.1868   0.0006   0.0000
     0.0000   0.0000   0.0000   0.0000   0.0000   0.0000

          k = 0.7412-0.4280-0.3080 (  2210 PWs)   bands (ev):

   -19.7358 -19.7263  -6.9091  -6.4561  -6.3047  -5.7974  -5.7698  -5.4988
    -3.0869  -3.0701  -2.9735  -2.7373  -2.6291  -2.4288   5.4582   5.9116
     5.9561   6.2707   6.5185   6.6292   6.8518   6.9624   7.2873   7.3335
     7.8513   7.9301   8.6951   9.1930   9.3820   9.4597   9.6326  10.0194
    10.2299  10.2659  10.3860  10.5222  10.6439  10.6777  12.1742  12.6644
    13.3817  14.2603  17.0612  17.0713  17.5465  17.9029

     occupation numbers 
     0.1875   0.1875   0.1875   0.1875   0.1875   0.1875   0.1875   0.1875
     0.1875   0.1875   0.1875   0.1875   0.1875   0.1875   0.1875   0.1875
     0.1875   0.1875   0.1875   0.1875   0.1875   0.1875   0.1875   0.1875
     0.1875   0.1875   0.1875   0.1875   0.1875   0.1875   0.1875   0.1875
     0.1875   0.1875   0.1875   0.1873   0.1868   0.1866   0.0008   0.0000
     0.0000   0.0000   0.0000   0.0000   0.0000   0.0000

          k = 0.4942-0.5706-0.2053 (  2206 PWs)   bands (ev):

   -19.7336 -19.7336  -6.8864  -6.8754  -6.0356  -6.0342  -5.4354  -5.4347
    -3.1645  -3.1642  -2.8264  -2.8257  -2.3830  -2.3804   5.6644   5.6675
     5.8756   5.8817   6.5997   6.6020   6.7989   6.8088   7.2613   7.2668
     8.1555   8.1568   8.7632   8.7661   9.4155   9.4160   9.8949   9.9023
    10.2111  10.2201  10.3562  10.3648  10.7053  10.7111  12.2169  12.2231
    13.9552  13.9669  17.4260  17.4264  17.8711  17.8735

     occupation numbers 
     0.1875   0.1875   0.1875   0.1875   0.1875   0.1875   0.1875   0.1875
     0.1875   0.1875   0.1875   0.1875   0.1875   0.1875   0.1875   0.1875
     0.1875   0.1875   0.1875   0.1875   0.1875   0.1875   0.1875   0.1875
     0.1875   0.1875   0.1875   0.1875   0.1875   0.1875   0.1875   0.1875
     0.1875   0.1875   0.1875   0.1875   0.1863   0.1862   0.0005   0.0005
     0.0000   0.0000   0.0000   0.0000   0.0000   0.0000

          k = 0.0000 0.0000-0.6160 (  2186 PWs)   bands (ev):

   -19.7290 -19.7290  -6.5177  -6.5026  -5.9522  -5.9522  -5.9497  -5.9497
    -2.9119  -2.9119  -2.9101  -2.9101  -2.7034  -2.7032   5.8554   5.8642
     6.4471   6.4471   6.4620   6.4620   6.8582   6.8697   7.3751   7.3751
     7.3879   7.3879   9.5116   9.5116   9.5225   9.5225   9.5809   9.5944
    10.2957  10.3167  10.4369  10.4369  10.4576  10.4576  13.1815  13.1815
    13.2280  13.2280  17.1172  17.1172  17.1190  17.1190

     occupation numbers 
     0.0313   0.0313   0.0313   0.0313   0.0313   0.0313   0.0313   0.0313
     0.0313   0.0313   0.0313   0.0313   0.0313   0.0313   0.0313   0.0313
     0.0313   0.0313   0.0313   0.0313   0.0313   0.0313   0.0313   0.0313
     0.0313   0.0313   0.0312   0.0312   0.0312   0.0312   0.0312   0.0312
     0.0312   0.0312   0.0312   0.0312   0.0312   0.0312   0.0000   0.0000
     0.0000   0.0000   0.0000   0.0000   0.0000   0.0000

          k = 0.4942-0.5706 0.1027 (  2198 PWs)   bands (ev):

   -19.7348 -19.7253  -6.9565  -6.6485  -6.1342  -5.8935  -5.5195  -5.3931
    -3.3390  -3.2721  -2.8857  -2.7145  -2.5316  -2.3864   5.3837   5.7970
     5.9376   6.4319   6.4610   6.5903   6.6741   7.0365   7.2701   7.3633
     7.8001   7.9236   8.7829   9.1098   9.4427   9.6732   9.6930  10.0079
    10.2298  10.3181  10.3405  10.4595  10.6458  10.8178  12.2574  12.6964
    13.3849  14.3083  16.9083  17.1124  17.3079  18.0165

     occupation numbers 
     0.1875   0.1875   0.1875   0.1875   0.1875   0.1875   0.1875   0.1875
     0.1875   0.1875   0.1875   0.1875   0.1875   0.1875   0.1875   0.1875
     0.1875   0.1875   0.1875   0.1875   0.1875   0.1875   0.1875   0.1875
     0.1875   0.1875   0.1875   0.1875   0.1875   0.1875   0.1875   0.1875
     0.1875   0.1875   0.1875   0.1874   0.1868   0.1841   0.0004   0.0000
     0.0000   0.0000   0.0000   0.0000   0.0000   0.0000

     the Fermi energy is    11.4206 ev

!    total energy              =    -537.84831984 Ry
     Harris-Foulkes estimate   =    -537.84830983 Ry
     estimated scf accuracy    <          8.6E-09 Ry

     The total energy is the sum of the following terms:

     one-electron contribution =     -32.88627996 Ry
     hartree contribution      =      83.66012181 Ry
     xc contribution           =    -199.62129189 Ry
     ewald contribution        =    -389.44315552 Ry
     Hubbard energy            =       0.44638265 Ry
     smearing contrib. (-TS)   =      -0.00409692 Ry

     convergence has been achieved in  14 iterations

     init_run     :      7.31s CPU      7.47s WALL (       1 calls)
     electrons    :    192.60s CPU    194.06s WALL (       1 calls)

     Called by init_run:
     wfcinit      :      0.00s CPU      0.00s WALL (       1 calls)
     potinit      :      0.28s CPU      0.37s WALL (       1 calls)

     Called by electrons:
     c_bands      :    125.49s CPU    125.93s WALL (      14 calls)
     sum_band     :     38.24s CPU     38.43s WALL (      14 calls)
     v_of_rho     :      3.59s CPU      3.62s WALL (      15 calls)
     v_h          :      0.19s CPU      0.19s WALL (      15 calls)
     v_xc         :      3.41s CPU      3.43s WALL (      15 calls)
     newd         :     26.28s CPU     26.34s WALL (      15 calls)
     mix_rho      :      0.36s CPU      0.36s WALL (      14 calls)

     Called by c_bands:
     init_us_2    :      1.39s CPU      1.40s WALL (     392 calls)
     cegterg      :    121.60s CPU    121.86s WALL (     196 calls)

     Called by sum_band:
     sum_band:bec :      0.15s CPU      0.15s WALL (     196 calls)
     addusdens    :     17.33s CPU     17.34s WALL (      14 calls)

     Called by *egterg:
     h_psi        :     90.88s CPU     91.08s WALL (     756 calls)
     s_psi        :      5.30s CPU      5.31s WALL (     756 calls)
     g_psi        :      0.46s CPU      0.47s WALL (     560 calls)
     cdiaghg      :      8.71s CPU      8.72s WALL (     742 calls)
     cegterg:over :      6.00s CPU      6.02s WALL (     560 calls)
     cegterg:upda :      3.89s CPU      3.88s WALL (     560 calls)
     cegterg:last :      2.76s CPU      2.77s WALL (     222 calls)

     Called by h_psi:
     h_psi:vloc   :     73.82s CPU     74.02s WALL (     756 calls)
     h_psi:vnl    :     10.83s CPU     10.85s WALL (     756 calls)
     add_vuspsi   :      5.32s CPU      5.32s WALL (     756 calls)
     vhpsi        :      5.99s CPU      6.00s WALL (     756 calls)

     General routines
     calbec       :     11.38s CPU     11.41s WALL (    1904 calls)
     fft          :      2.27s CPU      2.56s WALL (     235 calls)
     ffts         :      0.07s CPU      0.22s WALL (      29 calls)
     fftw         :     71.63s CPU     71.90s WALL (   55770 calls)
     interpolate  :      0.40s CPU      0.73s WALL (      29 calls)
     davcio       :      0.00s CPU      0.31s WALL (     406 calls)

     Parallel routines
     fft_scatter  :     17.35s CPU     17.84s WALL (   56034 calls)
     Hubbard U routines
     new_ns       :      1.10s CPU      1.25s WALL (      14 calls)
     vhpsi        :      5.99s CPU      6.00s WALL (     756 calls)

     PWSCF        :  3m20.35s CPU     3m22.22s WALL


   This run was terminated on:   5:38:32  13Nov2012            

=------------------------------------------------------------------------------=
