   JOB DONE.
=------------------------------------------------------------------------------=

     Program PWSCF v.5.0.1 starts on 13Nov2012 at  5:47:30 

     This program is part of the open-source Quantum ESPRESSO suite
     for quantum simulation of materials; please cite
         "P. Giannozzi et al., J. Phys.:Condens. Matter 21 395502 (2009);
          URL http://www.quantum-espresso.org", 
     in publications or presentations arising from this work. More details at
     http://www.quantum-espresso.org/quote.php

     Parallel version (MPI), running on     2 processors
     R & G space division:  proc/pool =    2

     Current dimensions of program PWSCF are:
     Max number of different atomic species (ntypx) = 10
     Max number of k-points (npk) =  40000
     Max angular momentum in pseudopotentials (lmaxx) =  3
     Reading input from CoLaO_U600_a15.in
               file Co.pbe-nd-rrkjus.UPF: wavefunction(s)  4S 3D renormalized
               file Co.pbe-nd-rrkjus.UPF: wavefunction(s)  4S 3D renormalized
               file O.pbe-rrkjus.UPF: wavefunction(s)  2S renormalized

     Subspace diagonalization in iterative solution of the eigenvalue problem:
     a serial algorithm will be used


     Parallelization info
     --------------------
     sticks:   dense  smooth     PW     G-vecs:    dense   smooth      PW
     Min        1112     444    131                34808     8786    1448
     Max        1113     445    132                34809     8787    1449
     Sum        2225     889    263                69617    17573    2897


     Title: 
     GGA + U, U = 6.000, alpha = 0.150                                          


     bravais-lattice index     =            5
     lattice parameter (alat)  =      10.3292  a.u.
     unit-cell volume          =     793.0599 (a.u.)^3
     number of atoms/cell      =           10
     number of atomic types    =            4
     number of electrons       =        76.00
     number of Kohn-Sham states=           46
     kinetic-energy cutoff     =      30.0000  Ry
     charge density cutoff     =     300.0000  Ry
     convergence threshold     =      1.0E-08
     mixing beta               =       0.2000
     number of iterations used =            8  plain     mixing
     Exchange-correlation      =  SLA  PW   PBE  PBE ( 1 4 3 4 0)
     EXX-fraction              =        0.00

     celldm(1)=  10.329242  celldm(2)=   0.000000  celldm(3)=   0.000000
     celldm(4)=   0.488100  celldm(5)=   0.000000  celldm(6)=   0.000000

     crystal axes: (cart. coord. in units of alat)
               a(1) = (   0.505915  -0.292090   0.811624 )  
               a(2) = (   0.000000   0.584180   0.811624 )  
               a(3) = (  -0.505915  -0.292090   0.811624 )  

     reciprocal axes: (cart. coord. in units 2 pi/alat)
               b(1) = (  0.988308 -0.570600  0.410699 )  
               b(2) = (  0.000000  1.141200  0.410699 )  
               b(3) = ( -0.988308 -0.570600  0.410699 )  


     PseudoPot. # 1 for Co read from file:
     /home/mcurnan/dft-course/Project1/example_LaCoO3/Co.pbe-nd-rrkjus.UPF
     MD5 check sum: 3e47a84addf5e975e0edeaeee2a73f59
     Pseudo is Ultrasoft + core correction, Zval =  9.0
     Generated by new atomic code, or converted to UPF format
     Using radial grid of  961 points,  6 beta functions with: 
                l(1) =   0
                l(2) =   0
                l(3) =   1
                l(4) =   1
                l(5) =   2
                l(6) =   2
     Q(r) pseudized with 0 coefficients 


     PseudoPot. # 2 for Co read from file:
     /home/mcurnan/dft-course/Project1/example_LaCoO3/Co.pbe-nd-rrkjus.UPF
     MD5 check sum: 3e47a84addf5e975e0edeaeee2a73f59
     Pseudo is Ultrasoft + core correction, Zval =  9.0
     Generated by new atomic code, or converted to UPF format
     Using radial grid of  961 points,  6 beta functions with: 
                l(1) =   0
                l(2) =   0
                l(3) =   1
                l(4) =   1
                l(5) =   2
                l(6) =   2
     Q(r) pseudized with 0 coefficients 


     PseudoPot. # 3 for La read from file:
     /home/mcurnan/dft-course/Project1/example_LaCoO3/La.pbe-nsp-van.UPF
     MD5 check sum: b2f11743f52dde65f77d1302becd7929
     Pseudo is Ultrasoft + core correction, Zval = 11.0
     Generated by new atomic code, or converted to UPF format
     Using radial grid of  907 points,  6 beta functions with: 
                l(1) =   0
                l(2) =   0
                l(3) =   1
                l(4) =   1
                l(5) =   2
                l(6) =   2
     Q(r) pseudized with  6 coefficients,  rinner =    1.200   1.200   1.200
                                                       1.200   1.200

     PseudoPot. # 4 for O  read from file:
     /home/mcurnan/dft-course/Project1/example_LaCoO3/O.pbe-rrkjus.UPF
     MD5 check sum: 390ba29e75625707450f3bd3f0eb6be9
     Pseudo is Ultrasoft, Zval =  6.0
     Generated by new atomic code, or converted to UPF format
     Using radial grid of 1269 points,  4 beta functions with: 
                l(1) =   0
                l(2) =   0
                l(3) =   1
                l(4) =   1
     Q(r) pseudized with 0 coefficients 


     atomic species   valence    mass     pseudopotential
        Co1            9.00     1.00000     Co( 1.00)
        Co2            9.00     1.00000     Co( 1.00)
        La1           11.00     1.00000     La( 1.00)
        O1             6.00     1.00000     O ( 1.00)
 -----
     simplified LDA+U calculation, Hubbard_lmax = 2
     atomic species  L   Hubbard U  Hubbard alpha
        Co1          2    6.000000    0.150000
        Co2          2    6.000000    0.000000
        La1          2    0.000000    0.000000
        O1           1    0.000000    0.000000
 -----

      6 Sym. Ops., with inversion, found


                                    s                        frac. trans.

      isym =  1     identity                                     

 cryst.   s( 1) = (     1          0          0      )
                  (     0          1          0      )
                  (     0          0          1      )

 cart.    s( 1) = (  1.0000000  0.0000000  0.0000000 )
                  (  0.0000000  1.0000000  0.0000000 )
                  (  0.0000000  0.0000000  1.0000000 )


      isym =  2     120 deg rotation - cryst. axis [0,0,1]       

 cryst.   s( 2) = (     0          1          0      )
                  (     0          0          1      )
                  (     1          0          0      )

 cart.    s( 2) = ( -0.5000000 -0.8660254  0.0000000 )
                  (  0.8660254 -0.5000000  0.0000000 )
                  (  0.0000000  0.0000000  1.0000000 )


      isym =  3     120 deg rotation - cryst. axis [0,0,-1]      

 cryst.   s( 3) = (     0          0          1      )
                  (     1          0          0      )
                  (     0          1          0      )

 cart.    s( 3) = ( -0.5000000  0.8660254  0.0000000 )
                  ( -0.8660254 -0.5000000  0.0000000 )
                  (  0.0000000  0.0000000  1.0000000 )


      isym =  4     inversion                                    

 cryst.   s( 4) = (    -1          0          0      )
                  (     0         -1          0      )
                  (     0          0         -1      )

 cart.    s( 4) = ( -1.0000000  0.0000000  0.0000000 )
                  (  0.0000000 -1.0000000  0.0000000 )
                  (  0.0000000  0.0000000 -1.0000000 )


      isym =  5     inv. 180 deg rotation - cart. axis [0,1,0]   

 cryst.   s( 5) = (     0         -1          0      )
                  (     0          0         -1      )
                  (    -1          0          0      )

 cart.    s( 5) = (  0.5000000  0.8660254  0.0000000 )
                  ( -0.8660254  0.5000000  0.0000000 )
                  (  0.0000000  0.0000000 -1.0000000 )


      isym =  6     inv. 180 deg rotation - cart. axis [1,0,0]   

 cryst.   s( 6) = (     0          0         -1      )
                  (    -1          0          0      )
                  (     0         -1          0      )

 cart.    s( 6) = (  0.5000000 -0.8660254  0.0000000 )
                  (  0.8660254  0.5000000  0.0000000 )
                  (  0.0000000  0.0000000 -1.0000000 )


     point group S_6 (-3)   
     there are  6 classes
     the character table:

       E     C3    C3^2  i     S6^5  S6   
A_g    1.00  1.00  1.00  1.00  1.00  1.00
E_g    1.00 -0.50 -0.50  1.00 -0.50 -0.50
E_g*   1.00 -0.50 -0.50  1.00 -0.50 -0.50
A_u    1.00  1.00  1.00 -1.00 -1.00 -1.00
E_u    1.00 -0.50 -0.50 -1.00  0.50  0.50
E_u*   1.00 -0.50 -0.50 -1.00  0.50  0.50
     imaginary part
A_g    0.00  0.00  0.00  0.00  0.00  0.00
E_g    0.00  0.87 -0.87  0.00  0.87 -0.87
E_g*   0.00 -0.87  0.87  0.00 -0.87  0.87
A_u    0.00  0.00  0.00  0.00  0.00  0.00
E_u    0.00  0.87 -0.87  0.00 -0.87  0.87
E_u*   0.00 -0.87  0.87  0.00  0.87 -0.87

     the symmetry operations in each class:
     E        1
     C3       2
     C3^2     3
     i        4
     S6^5     5
     S6       6

   Cartesian axes

     site n.     atom                  positions (alat units)
         1           Co1 tau(   1) = (   0.0000000   0.0000000   0.0000000  )
         2           Co2 tau(   2) = (   0.0000000   0.0000000   1.2174358  )
         3           La1 tau(   3) = (   0.0000000   0.0000000   0.6087179  )
         4           La1 tau(   4) = (   0.0000000   0.0000000   1.8261537  )
         5           O1  tau(   5) = (  -0.2839701  -0.0933228   1.0141240  )
         6           O1  tau(   6) = (   0.0611651   0.2925867   1.0141240  )
         7           O1  tau(   7) = (   0.2228050  -0.1992639   1.0141240  )
         8           O1  tau(   8) = (  -0.0611651  -0.2925867   1.4207476  )
         9           O1  tau(   9) = (   0.2839701   0.0933228   1.4207476  )
        10           O1  tau(  10) = (  -0.2228050   0.1992639   1.4207476  )

   Crystallographic axes

     site n.     atom                  positions (cryst. coord.)
         1           Co1 tau(   1) = (  0.0000000  0.0000000  0.0000000  )
         2           Co2 tau(   2) = (  0.5000000  0.5000000  0.5000000  )
         3           La1 tau(   3) = (  0.2500000  0.2500000  0.2500000  )
         4           La1 tau(   4) = (  0.7500000  0.7500000  0.7500000  )
         5           O1  tau(   5) = (  0.1891000  0.3100000  0.7504000  )
         6           O1  tau(   6) = (  0.3100000  0.7504000  0.1891000  )
         7           O1  tau(   7) = (  0.7504000  0.1891000  0.3100000  )
         8           O1  tau(   8) = (  0.6900000  0.2496000  0.8109000  )
         9           O1  tau(   9) = (  0.8109000  0.6900000  0.2496000  )
        10           O1  tau(  10) = (  0.2496000  0.8109000  0.6900000  )

     number of k points=    14  gaussian smearing, width (Ry)=  0.0300
                       cart. coord. in units 2pi/alat
        k(    1) = (   0.0000000   0.0000000   0.0000000), wk =   0.0312500
        k(    2) = (  -0.2470771  -0.1426500   0.1026748), wk =   0.1875000
        k(    3) = (   0.4941541   0.2853000  -0.2053496), wk =   0.0937500
        k(    4) = (  -0.2470771   0.1426500   0.2053496), wk =   0.1875000
        k(    5) = (   0.4941541   0.5706001  -0.1026748), wk =   0.1875000
        k(    6) = (   0.2470771   0.4279500   0.0000000), wk =   0.1875000
        k(    7) = (   0.4941541  -0.2853000  -0.4106993), wk =   0.0937500
        k(    8) = (   0.0000000   0.0000000   0.3080244), wk =   0.0625000
        k(    9) = (   0.7412312   0.4279500   0.0000000), wk =   0.1875000
        k(   10) = (   0.4941541   0.2853000   0.1026748), wk =   0.1875000
        k(   11) = (   0.7412312  -0.4279500  -0.3080244), wk =   0.1875000
        k(   12) = (   0.4941541  -0.5706001  -0.2053496), wk =   0.1875000
        k(   13) = (   0.0000000   0.0000000  -0.6160489), wk =   0.0312500
        k(   14) = (   0.4941541  -0.5706001   0.1026748), wk =   0.1875000

                       cryst. coord.
        k(    1) = (   0.0000000   0.0000000   0.0000000), wk =   0.0312500
        k(    2) = (   0.0000000   0.0000000   0.2500000), wk =   0.1875000
        k(    3) = (   0.0000000   0.0000000  -0.5000000), wk =   0.0937500
        k(    4) = (   0.0000000   0.2500000   0.2500000), wk =   0.1875000
        k(    5) = (   0.0000000   0.2500000  -0.5000000), wk =   0.1875000
        k(    6) = (   0.0000000   0.2500000  -0.2500000), wk =   0.1875000
        k(    7) = (   0.0000000  -0.5000000  -0.5000000), wk =   0.0937500
        k(    8) = (   0.2500000   0.2500000   0.2500000), wk =   0.0625000
        k(    9) = (   0.2500000   0.2500000  -0.5000000), wk =   0.1875000
        k(   10) = (   0.2500000   0.2500000  -0.2500000), wk =   0.1875000
        k(   11) = (   0.2500000  -0.5000000  -0.5000000), wk =   0.1875000
        k(   12) = (   0.2500000  -0.5000000  -0.2500000), wk =   0.1875000
        k(   13) = (  -0.5000000  -0.5000000  -0.5000000), wk =   0.0312500
        k(   14) = (   0.5000000  -0.2500000   0.0000000), wk =   0.1875000

     Dense  grid:    69617 G-vectors     FFT dimensions: (  60,  60,  60)

     Smooth grid:    17573 G-vectors     FFT dimensions: (  40,  40,  40)

     Largest allocated arrays     est. size (Mb)     dimensions
        Kohn-Sham Wavefunctions         0.78 Mb     (   1117,   46)
        Atomic wavefunctions            1.06 Mb     (   1117,   62)
        NL pseudopotentials             2.05 Mb     (   1117,  120)
        Each V/rho on FFT grid          1.65 Mb     ( 108000)
        Each G-vector array             0.27 Mb     (  34808)
        G-vector shells                 0.04 Mb     (   4682)
     Largest temporary arrays     est. size (Mb)     dimensions
        Auxiliary wavefunctions         3.14 Mb     (   1117,  184)
        Each subspace H/S matrix        0.52 Mb     ( 184, 184)
        Each <psi_i|beta_j> matrix      0.08 Mb     (    120,   46)
        Arrays for rho mixing          13.18 Mb     ( 108000,   8)

     Check: negative/imaginary core charge=   -0.000028    0.000000

     The initial density is read from file :
     /home/mcurnan/dft-course/Project1/example_LaCoO3/600/Co/alpha/CoLaO_U600.save/charge-density.dat

 --- in v_hubbard ---
Hubbard energy    0.6626
 -------
     Number of +U iterations with fixed ns =  0
     Starting occupations:
 --- enter write_ns ---
 LDA+U parameters:
U( 1)     =  6.00000000
alpha( 1) =  0.15000000
U( 2)     =  6.00000000
alpha( 2) =  0.00000000
U( 3)     =  0.00000000
alpha( 3) =  0.00000000
U( 4)     =  0.00000000
alpha( 4) =  0.00000000
atom    1   Tr[ns(na)] =   8.02206
    eigenvalues: 
  0.596  0.596  0.938  0.941  0.941
    eigenvectors:
  0.000  0.000  1.000  0.000  0.000
  0.333  0.322  0.000  0.004  0.341
  0.322  0.333  0.000  0.341  0.004
  0.289  0.056  0.000  0.515  0.140
  0.056  0.289  0.000  0.140  0.515
    occupations:
  0.938  0.000  0.000  0.000  0.000
  0.000  0.715  0.000 -0.060  0.152
  0.000  0.000  0.715  0.152  0.060
  0.000 -0.060  0.152  0.822  0.000
  0.000  0.152  0.060  0.000  0.822
atom    2   Tr[ns(na)] =   8.02145
    eigenvalues: 
  0.595  0.595  0.938  0.941  0.941
    eigenvectors:
  0.000  0.000  1.000  0.000  0.000
  0.640  0.015  0.000  0.223  0.122
  0.015  0.640  0.000  0.122  0.223
  0.017  0.329  0.000  0.470  0.185
  0.329  0.017  0.000  0.185  0.470
    occupations:
  0.938  0.000  0.000  0.000  0.000
  0.000  0.715  0.000  0.060  0.153
  0.000  0.000  0.715  0.153 -0.060
  0.000  0.060  0.153  0.822  0.000
  0.000  0.153 -0.060  0.000  0.822
atom    3   Tr[ns(na)] =   3.80284
    eigenvalues: 
  0.355  0.355  0.384  0.403  0.403
    eigenvectors:
  0.000  0.000  1.000  0.000  0.000
  0.781  0.139  0.000  0.012  0.068
  0.139  0.781  0.000  0.068  0.012
  0.013  0.067  0.000  0.780  0.141
  0.067  0.013  0.000  0.141  0.780
    occupations:
  0.384  0.000  0.000  0.000  0.000
  0.000  0.359  0.000  0.000  0.013
  0.000  0.000  0.359  0.013  0.000
  0.000  0.000  0.013  0.399  0.000
  0.000  0.013  0.000  0.000  0.399
atom    4   Tr[ns(na)] =   3.80284
    eigenvalues: 
  0.355  0.355  0.384  0.403  0.403
    eigenvectors:
  0.000  0.000  1.000  0.000  0.000
  0.782  0.139  0.000  0.012  0.068
  0.139  0.782  0.000  0.068  0.012
  0.012  0.067  0.000  0.780  0.141
  0.067  0.012  0.000  0.141  0.780
    occupations:
  0.384  0.000  0.000  0.000  0.000
  0.000  0.359  0.000  0.000  0.013
  0.000  0.000  0.359  0.013  0.000
  0.000  0.000  0.013  0.399  0.000
  0.000  0.013  0.000  0.000  0.399
atom    5   Tr[ns(na)] =   5.43357
    eigenvalues: 
  0.846  0.929  0.941
    eigenvectors:
  0.340  0.000  0.660
  0.494  0.250  0.256
  0.166  0.750  0.085
    occupations:
  0.909  0.039  0.022
  0.039  0.891 -0.022
  0.022 -0.022  0.917
atom    6   Tr[ns(na)] =   5.43357
    eigenvalues: 
  0.846  0.929  0.941
    eigenvectors:
  0.340  0.000  0.660
  0.000  1.000  0.000
  0.660  0.000  0.340
    occupations:
  0.909  0.000 -0.045
  0.000  0.929  0.000
 -0.045  0.000  0.879
atom    7   Tr[ns(na)] =   5.43357
    eigenvalues: 
  0.846  0.929  0.941
    eigenvectors:
  0.340  0.000  0.660
  0.496  0.250  0.255
  0.164  0.750  0.086
    occupations:
  0.909 -0.039  0.022
 -0.039  0.891  0.022
  0.022  0.022  0.917
atom    8   Tr[ns(na)] =   5.43357
    eigenvalues: 
  0.846  0.929  0.941
    eigenvectors:
  0.340  0.000  0.660
  0.000  1.000  0.000
  0.660  0.000  0.340
    occupations:
  0.909  0.000 -0.045
  0.000  0.929  0.000
 -0.045  0.000  0.879
atom    9   Tr[ns(na)] =   5.43357
    eigenvalues: 
  0.846  0.929  0.941
    eigenvectors:
  0.340  0.000  0.660
  0.494  0.250  0.256
  0.166  0.750  0.085
    occupations:
  0.909  0.039  0.022
  0.039  0.891 -0.022
  0.022 -0.022  0.917
atom   10   Tr[ns(na)] =   5.43357
    eigenvalues: 
  0.846  0.929  0.941
    eigenvectors:
  0.340  0.000  0.660
  0.496  0.250  0.255
  0.164  0.750  0.086
    occupations:
  0.909 -0.039  0.022
 -0.039  0.891  0.022
  0.022  0.022  0.917
N of occupied +U levels =  56.2506062
 --- exit write_ns ---
 LDA+U Projector read from file 
     Starting wfc from file

     total cpu time spent up to now is        8.7 secs

     per-process dynamical memory:    46.9 Mb

     Self-consistent Calculation

     iteration #  1     ecut=    30.00 Ry     beta=0.20
     Davidson diagonalization with overlap
     c_bands:  1 eigenvalues not converged
     c_bands:  1 eigenvalues not converged
     c_bands:  1 eigenvalues not converged
     c_bands:  1 eigenvalues not converged
     ethr =  1.00E-10,  avg # of iterations = 16.4
 --- enter write_ns ---
 LDA+U parameters:
U( 1)     =  6.00000000
alpha( 1) =  0.15000000
U( 2)     =  6.00000000
alpha( 2) =  0.00000000
U( 3)     =  0.00000000
alpha( 3) =  0.00000000
U( 4)     =  0.00000000
alpha( 4) =  0.00000000
atom    1   Tr[ns(na)] =   8.19540
    eigenvalues: 
  0.558  0.558  0.993  0.993  0.996
    eigenvectors:
  0.000  0.000  0.000  0.000  1.000
  0.330  0.325  0.004  0.342  0.000
  0.325  0.330  0.342  0.004  0.000
  0.289  0.057  0.514  0.140  0.000
  0.057  0.289  0.140  0.514  0.000
    occupations:
  0.996  0.000  0.000  0.000  0.000
  0.000  0.709  0.000 -0.075  0.192
  0.000  0.000  0.709  0.192  0.075
  0.000 -0.075  0.192  0.842  0.000
  0.000  0.192  0.075  0.000  0.842
atom    2   Tr[ns(na)] =   8.24616
    eigenvalues: 
  0.569  0.569  0.994  0.994  0.997
    eigenvectors:
  0.000  0.000  0.000  0.000  1.000
  0.636  0.018  0.223  0.123  0.000
  0.018  0.636  0.123  0.223  0.000
  0.014  0.331  0.469  0.185  0.000
  0.331  0.014  0.185  0.469  0.000
    occupations:
  0.997  0.000  0.000  0.000  0.000
  0.000  0.716  0.000  0.074  0.188
  0.000  0.000  0.716  0.188 -0.074
  0.000  0.074  0.188  0.847  0.000
  0.000  0.188 -0.074  0.000  0.847
atom    3   Tr[ns(na)] =   3.79150
    eigenvalues: 
  0.356  0.356  0.381  0.401  0.401
    eigenvectors:
  0.000  0.000  1.000  0.000  0.000
  0.775  0.141  0.000  0.013  0.071
  0.141  0.775  0.000  0.071  0.013
  0.013  0.070  0.000  0.775  0.142
  0.070  0.013  0.000  0.142  0.775
    occupations:
  0.381  0.000  0.000  0.000  0.000
  0.000  0.360  0.000  0.000  0.013
  0.000  0.000  0.360  0.013  0.000
  0.000  0.000  0.013  0.397  0.000
  0.000  0.013  0.000  0.000  0.397
atom    4   Tr[ns(na)] =   3.79150
    eigenvalues: 
  0.356  0.356  0.381  0.401  0.401
    eigenvectors:
  0.000  0.000  1.000  0.000  0.000
  0.775  0.141  0.000  0.013  0.071
  0.141  0.775  0.000  0.071  0.013
  0.013  0.070  0.000  0.775  0.142
  0.070  0.013  0.000  0.142  0.775
    occupations:
  0.381  0.000  0.000  0.000  0.000
  0.000  0.360  0.000  0.000  0.013
  0.000  0.000  0.360  0.013  0.000
  0.000  0.000  0.013  0.397  0.000
  0.000  0.013  0.000  0.000  0.397
atom    5   Tr[ns(na)] =   5.38404
    eigenvalues: 
  0.824  0.923  0.945
    eigenvectors:
  0.341  0.000  0.659
  0.501  0.243  0.257
  0.158  0.757  0.084
    occupations:
  0.904  0.050  0.028
  0.050  0.879 -0.025
  0.028 -0.025  0.909
atom    6   Tr[ns(na)] =   5.38404
    eigenvalues: 
  0.824  0.923  0.945
    eigenvectors:
  0.341  0.000  0.659
  0.000  1.000  0.000
  0.659  0.000  0.341
    occupations:
  0.904 -0.001 -0.057
 -0.001  0.923 -0.001
 -0.057 -0.001  0.865
atom    7   Tr[ns(na)] =   5.38404
    eigenvalues: 
  0.824  0.923  0.945
    eigenvectors:
  0.341  0.000  0.659
  0.488  0.258  0.255
  0.171  0.742  0.086
    occupations:
  0.904 -0.049  0.029
 -0.049  0.880  0.026
  0.029  0.026  0.908
atom    8   Tr[ns(na)] =   5.38404
    eigenvalues: 
  0.824  0.923  0.945
    eigenvectors:
  0.341  0.000  0.659
  0.000  1.000  0.000
  0.659  0.000  0.341
    occupations:
  0.904 -0.001 -0.057
 -0.001  0.923 -0.001
 -0.057 -0.001  0.865
atom    9   Tr[ns(na)] =   5.38404
    eigenvalues: 
  0.824  0.923  0.945
    eigenvectors:
  0.341  0.000  0.659
  0.501  0.243  0.257
  0.158  0.757  0.084
    occupations:
  0.904  0.050  0.028
  0.050  0.879 -0.025
  0.028 -0.025  0.909
atom   10   Tr[ns(na)] =   5.38404
    eigenvalues: 
  0.824  0.923  0.945
    eigenvectors:
  0.341  0.000  0.659
  0.488  0.258  0.255
  0.171  0.742  0.086
    occupations:
  0.904 -0.049  0.029
 -0.049  0.880  0.026
  0.029  0.026  0.908
N of occupied +U levels =  56.3288108
 --- exit write_ns ---
 --- in v_hubbard ---
Hubbard energy    0.6394
 -------

     total cpu time spent up to now is       51.4 secs

     total energy              =    -537.73818685 Ry
     Harris-Foulkes estimate   =    -537.74878246 Ry
     estimated scf accuracy    <       0.05658447 Ry

     iteration #  2     ecut=    30.00 Ry     beta=0.20
     Davidson diagonalization with overlap
     ethr =  7.45E-05,  avg # of iterations =  1.6
 --- enter write_ns ---
 LDA+U parameters:
U( 1)     =  6.00000000
alpha( 1) =  0.15000000
U( 2)     =  6.00000000
alpha( 2) =  0.00000000
U( 3)     =  0.00000000
alpha( 3) =  0.00000000
U( 4)     =  0.00000000
alpha( 4) =  0.00000000
atom    1   Tr[ns(na)] =   8.03029
    eigenvalues: 
  0.514  0.514  0.995  0.995  0.998
    eigenvectors:
  0.000  0.000  0.000  0.000  1.000
  0.333  0.322  0.003  0.341  0.000
  0.322  0.333  0.341  0.003  0.000
  0.290  0.055  0.516  0.139  0.000
  0.055  0.290  0.139  0.516  0.000
    occupations:
  0.998  0.000  0.000  0.000  0.000
  0.000  0.680  0.000 -0.085  0.212
  0.000  0.000  0.680  0.212  0.085
  0.000 -0.085  0.212  0.829  0.000
  0.000  0.212  0.085  0.000  0.829
atom    2   Tr[ns(na)] =   8.01172
    eigenvalues: 
  0.510  0.510  0.994  0.994  0.998
    eigenvectors:
  0.000  0.000  0.000  0.000  1.000
  0.639  0.017  0.224  0.121  0.000
  0.017  0.639  0.121  0.224  0.000
  0.016  0.328  0.471  0.185  0.000
  0.328  0.016  0.185  0.471  0.000
    occupations:
  0.998  0.000  0.000  0.000  0.000
  0.000  0.677  0.000  0.085  0.214
  0.000  0.000  0.677  0.214 -0.085
  0.000  0.085  0.214  0.827  0.000
  0.000  0.214 -0.085  0.000  0.827
atom    3   Tr[ns(na)] =   3.78719
    eigenvalues: 
  0.355  0.355  0.381  0.401  0.401
    eigenvectors:
  0.000  0.000  1.000  0.000  0.000
  0.780  0.140  0.000  0.012  0.068
  0.140  0.780  0.000  0.068  0.012
  0.013  0.067  0.000  0.779  0.141
  0.067  0.013  0.000  0.141  0.779
    occupations:
  0.381  0.000  0.000  0.000  0.000
  0.000  0.359  0.000  0.000  0.013
  0.000  0.000  0.359  0.013  0.000
  0.000  0.000  0.013  0.398  0.000
  0.000  0.013  0.000  0.000  0.398
atom    4   Tr[ns(na)] =   3.78719
    eigenvalues: 
  0.355  0.355  0.381  0.401  0.401
    eigenvectors:
  0.000  0.000  1.000  0.000  0.000
  0.781  0.139  0.000  0.012  0.068
  0.139  0.781  0.000  0.068  0.012
  0.013  0.067  0.000  0.779  0.141
  0.067  0.013  0.000  0.141  0.779
    occupations:
  0.381  0.000  0.000  0.000  0.000
  0.000  0.359  0.000  0.000  0.013
  0.000  0.000  0.359  0.013  0.000
  0.000  0.000  0.013  0.398  0.000
  0.000  0.013  0.000  0.000  0.398
atom    5   Tr[ns(na)] =   5.44761
    eigenvalues: 
  0.842  0.932  0.949
    eigenvectors:
  0.336  0.000  0.664
  0.497  0.252  0.252
  0.168  0.748  0.084
    occupations:
  0.913  0.044  0.025
  0.044  0.892 -0.023
  0.025 -0.023  0.918
atom    6   Tr[ns(na)] =   5.44761
    eigenvalues: 
  0.842  0.932  0.949
    eigenvectors:
  0.336  0.000  0.664
  0.000  1.000  0.000
  0.664  0.000  0.336
    occupations:
  0.913  0.000 -0.050
  0.000  0.932  0.000
 -0.050  0.000  0.878
atom    7   Tr[ns(na)] =   5.44761
    eigenvalues: 
  0.842  0.932  0.949
    eigenvectors:
  0.336  0.000  0.664
  0.500  0.248  0.252
  0.165  0.752  0.084
    occupations:
  0.913 -0.044  0.025
 -0.044  0.892  0.023
  0.025  0.023  0.919
atom    8   Tr[ns(na)] =   5.44761
    eigenvalues: 
  0.842  0.932  0.949
    eigenvectors:
  0.336  0.000  0.664
  0.000  1.000  0.000
  0.664  0.000  0.336
    occupations:
  0.913  0.000 -0.050
  0.000  0.932  0.000
 -0.050  0.000  0.878
atom    9   Tr[ns(na)] =   5.44761
    eigenvalues: 
  0.842  0.932  0.949
    eigenvectors:
  0.336  0.000  0.664
  0.497  0.252  0.252
  0.168  0.748  0.084
    occupations:
  0.913  0.044  0.025
  0.044  0.892 -0.023
  0.025 -0.023  0.918
atom   10   Tr[ns(na)] =   5.44761
    eigenvalues: 
  0.842  0.932  0.949
    eigenvectors:
  0.336  0.000  0.664
  0.500  0.248  0.252
  0.165  0.752  0.084
    occupations:
  0.913 -0.044  0.025
 -0.044  0.892  0.023
  0.025  0.023  0.919
N of occupied +U levels =  56.3020858
 --- exit write_ns ---
 --- in v_hubbard ---
Hubbard energy    0.6295
 -------

     total cpu time spent up to now is       65.7 secs

     total energy              =    -537.74970604 Ry
     Harris-Foulkes estimate   =    -537.74915819 Ry
     estimated scf accuracy    <       0.03862805 Ry

     iteration #  3     ecut=    30.00 Ry     beta=0.20
     Davidson diagonalization with overlap
     ethr =  5.08E-05,  avg # of iterations =  1.0
 --- enter write_ns ---
 LDA+U parameters:
U( 1)     =  6.00000000
alpha( 1) =  0.15000000
U( 2)     =  6.00000000
alpha( 2) =  0.00000000
U( 3)     =  0.00000000
alpha( 3) =  0.00000000
U( 4)     =  0.00000000
alpha( 4) =  0.00000000
atom    1   Tr[ns(na)] =   8.04880
    eigenvalues: 
  0.519  0.519  0.994  0.994  0.998
    eigenvectors:
  0.000  0.000  0.000  0.000  1.000
  0.334  0.322  0.003  0.341  0.000
  0.322  0.334  0.341  0.003  0.000
  0.289  0.056  0.516  0.139  0.000
  0.056  0.289  0.139  0.516  0.000
    occupations:
  0.998  0.000  0.000  0.000  0.000
  0.000  0.683  0.000 -0.084  0.210
  0.000  0.000  0.683  0.210  0.084
  0.000 -0.084  0.210  0.831  0.000
  0.000  0.210  0.084  0.000  0.831
atom    2   Tr[ns(na)] =   8.06806
    eigenvalues: 
  0.523  0.523  0.995  0.995  0.998
    eigenvectors:
  0.000  0.000  0.000  0.000  1.000
  0.639  0.017  0.224  0.120  0.000
  0.017  0.639  0.120  0.224  0.000
  0.016  0.328  0.471  0.185  0.000
  0.328  0.016  0.185  0.471  0.000
    occupations:
  0.998  0.000  0.000  0.000  0.000
  0.000  0.686  0.000  0.083  0.208
  0.000  0.000  0.686  0.208 -0.083
  0.000  0.083  0.208  0.833  0.000
  0.000  0.208 -0.083  0.000  0.833
atom    3   Tr[ns(na)] =   3.78813
    eigenvalues: 
  0.355  0.355  0.381  0.401  0.401
    eigenvectors:
  0.000  0.000  1.000  0.000  0.000
  0.781  0.139  0.000  0.012  0.068
  0.139  0.781  0.000  0.068  0.012
  0.013  0.067  0.000  0.780  0.141
  0.067  0.013  0.000  0.141  0.780
    occupations:
  0.381  0.000  0.000  0.000  0.000
  0.000  0.359  0.000  0.000  0.012
  0.000  0.000  0.359  0.012  0.000
  0.000  0.000  0.012  0.398  0.000
  0.000  0.012  0.000  0.000  0.398
atom    4   Tr[ns(na)] =   3.78813
    eigenvalues: 
  0.355  0.355  0.381  0.401  0.401
    eigenvectors:
  0.000  0.000  1.000  0.000  0.000
  0.781  0.139  0.000  0.012  0.068
  0.139  0.781  0.000  0.068  0.012
  0.013  0.067  0.000  0.779  0.141
  0.067  0.013  0.000  0.141  0.779
    occupations:
  0.381  0.000  0.000  0.000  0.000
  0.000  0.359  0.000  0.000  0.012
  0.000  0.000  0.359  0.012  0.000
  0.000  0.000  0.012  0.398  0.000
  0.000  0.012  0.000  0.000  0.398
atom    5   Tr[ns(na)] =   5.43560
    eigenvalues: 
  0.839  0.931  0.949
    eigenvectors:
  0.337  0.000  0.663
  0.501  0.246  0.253
  0.163  0.754  0.084
    occupations:
  0.912  0.045  0.026
  0.045  0.889 -0.024
  0.026 -0.024  0.917
atom    6   Tr[ns(na)] =   5.43560
    eigenvalues: 
  0.839  0.931  0.949
    eigenvectors:
  0.337  0.000  0.663
  0.000  1.000  0.000
  0.663  0.000  0.337
    occupations:
  0.912  0.000 -0.052
  0.000  0.930  0.000
 -0.052  0.000  0.876
atom    7   Tr[ns(na)] =   5.43560
    eigenvalues: 
  0.839  0.931  0.949
    eigenvectors:
  0.337  0.000  0.663
  0.494  0.254  0.252
  0.169  0.746  0.085
    occupations:
  0.912 -0.045  0.026
 -0.045  0.890  0.024
  0.026  0.024  0.917
atom    8   Tr[ns(na)] =   5.43560
    eigenvalues: 
  0.839  0.931  0.949
    eigenvectors:
  0.337  0.000  0.663
  0.000  1.000  0.000
  0.663  0.000  0.337
    occupations:
  0.912  0.000 -0.052
  0.000  0.930  0.000
 -0.052  0.000  0.876
atom    9   Tr[ns(na)] =   5.43560
    eigenvalues: 
  0.839  0.931  0.949
    eigenvectors:
  0.337  0.000  0.663
  0.501  0.246  0.253
  0.163  0.754  0.084
    occupations:
  0.912  0.045  0.026
  0.045  0.889 -0.024
  0.026 -0.024  0.917
atom   10   Tr[ns(na)] =   5.43560
    eigenvalues: 
  0.839  0.931  0.949
    eigenvectors:
  0.337  0.000  0.663
  0.494  0.254  0.252
  0.169  0.746  0.085
    occupations:
  0.912 -0.045  0.026
 -0.045  0.890  0.024
  0.026  0.024  0.917
N of occupied +U levels =  56.3067156
 --- exit write_ns ---
 --- in v_hubbard ---
Hubbard energy    0.5717
 -------

     total cpu time spent up to now is       78.7 secs

     total energy              =    -537.75721426 Ry
     Harris-Foulkes estimate   =    -537.75040268 Ry
     estimated scf accuracy    <       0.01913403 Ry

     iteration #  4     ecut=    30.00 Ry     beta=0.20
     Davidson diagonalization with overlap
     ethr =  2.52E-05,  avg # of iterations =  1.1
 --- enter write_ns ---
 LDA+U parameters:
U( 1)     =  6.00000000
alpha( 1) =  0.15000000
U( 2)     =  6.00000000
alpha( 2) =  0.00000000
U( 3)     =  0.00000000
alpha( 3) =  0.00000000
U( 4)     =  0.00000000
alpha( 4) =  0.00000000
atom    1   Tr[ns(na)] =   8.08447
    eigenvalues: 
  0.525  0.525  0.996  0.996  0.999
    eigenvectors:
  0.000  0.000  0.000  0.000  1.000
  0.338  0.320  0.003  0.340  0.000
  0.320  0.338  0.340  0.003  0.000
  0.287  0.055  0.519  0.139  0.000
  0.055  0.287  0.139  0.519  0.000
    occupations:
  0.999  0.000  0.000  0.000  0.000
  0.000  0.687  0.000 -0.084  0.207
  0.000  0.000  0.687  0.207  0.084
  0.000 -0.084  0.207  0.835  0.000
  0.000  0.207  0.084  0.000  0.835
atom    2   Tr[ns(na)] =   8.04484
    eigenvalues: 
  0.516  0.516  0.996  0.996  0.999
    eigenvectors:
  0.000  0.000  0.000  0.000  1.000
  0.640  0.017  0.223  0.119  0.000
  0.017  0.640  0.119  0.223  0.000
  0.016  0.327  0.473  0.184  0.000
  0.327  0.016  0.184  0.473  0.000
    occupations:
  0.999  0.000  0.000  0.000  0.000
  0.000  0.680  0.000  0.085  0.211
  0.000  0.000  0.680  0.211 -0.085
  0.000  0.085  0.211  0.832  0.000
  0.000  0.211 -0.085  0.000  0.832
atom    3   Tr[ns(na)] =   3.79488
    eigenvalues: 
  0.356  0.356  0.381  0.402  0.402
    eigenvectors:
  0.000  0.000  1.000  0.000  0.000
  0.783  0.138  0.000  0.011  0.067
  0.138  0.783  0.000  0.067  0.011
  0.012  0.066  0.000  0.781  0.140
  0.066  0.012  0.000  0.140  0.781
    occupations:
  0.381  0.000  0.000  0.000  0.000
  0.000  0.360  0.000  0.000  0.012
  0.000  0.000  0.360  0.012  0.000
  0.000  0.000  0.012  0.398  0.000
  0.000  0.012  0.000  0.000  0.398
atom    4   Tr[ns(na)] =   3.79488
    eigenvalues: 
  0.356  0.356  0.381  0.402  0.402
    eigenvectors:
  0.000  0.000  1.000  0.000  0.000
  0.783  0.139  0.000  0.011  0.067
  0.139  0.783  0.000  0.067  0.011
  0.012  0.066  0.000  0.781  0.141
  0.066  0.012  0.000  0.141  0.781
    occupations:
  0.381  0.000  0.000  0.000  0.000
  0.000  0.360  0.000  0.000  0.012
  0.000  0.000  0.360  0.012  0.000
  0.000  0.000  0.012  0.398  0.000
  0.000  0.012  0.000  0.000  0.398
atom    5   Tr[ns(na)] =   5.42978
    eigenvalues: 
  0.837  0.930  0.948
    eigenvectors:
  0.337  0.000  0.663
  0.493  0.255  0.252
  0.170  0.745  0.085
    occupations:
  0.911  0.045  0.027
  0.045  0.889 -0.024
  0.027 -0.024  0.916
atom    6   Tr[ns(na)] =   5.42978
    eigenvalues: 
  0.837  0.930  0.948
    eigenvectors:
  0.337  0.000  0.663
  0.000  1.000  0.000
  0.663  0.000  0.337
    occupations:
  0.911  0.000 -0.052
  0.000  0.930  0.000
 -0.052  0.000  0.874
atom    7   Tr[ns(na)] =   5.42978
    eigenvalues: 
  0.837  0.930  0.948
    eigenvectors:
  0.337  0.000  0.663
  0.502  0.245  0.253
  0.161  0.755  0.084
    occupations:
  0.911 -0.046  0.026
 -0.046  0.888  0.024
  0.026  0.024  0.916
atom    8   Tr[ns(na)] =   5.42978
    eigenvalues: 
  0.837  0.930  0.948
    eigenvectors:
  0.337  0.000  0.663
  0.000  1.000  0.000
  0.663  0.000  0.337
    occupations:
  0.911  0.000 -0.052
  0.000  0.930  0.000
 -0.052  0.000  0.874
atom    9   Tr[ns(na)] =   5.42978
    eigenvalues: 
  0.837  0.930  0.948
    eigenvectors:
  0.337  0.000  0.663
  0.493  0.255  0.252
  0.170  0.745  0.085
    occupations:
  0.911  0.045  0.027
  0.045  0.889 -0.024
  0.027 -0.024  0.916
atom   10   Tr[ns(na)] =   5.42978
    eigenvalues: 
  0.837  0.930  0.948
    eigenvectors:
  0.337  0.000  0.663
  0.502  0.245  0.253
  0.161  0.755  0.084
    occupations:
  0.911 -0.046  0.026
 -0.046  0.888  0.024
  0.026  0.024  0.916
N of occupied +U levels =  56.2977640
 --- exit write_ns ---
 --- in v_hubbard ---
Hubbard energy    0.5319
 -------

     total cpu time spent up to now is       91.5 secs

     total energy              =    -537.75875364 Ry
     Harris-Foulkes estimate   =    -537.75810455 Ry
     estimated scf accuracy    <       0.00459478 Ry

     iteration #  5     ecut=    30.00 Ry     beta=0.20
     Davidson diagonalization with overlap
     ethr =  6.05E-06,  avg # of iterations =  1.8
 --- enter write_ns ---
 LDA+U parameters:
U( 1)     =  6.00000000
alpha( 1) =  0.15000000
U( 2)     =  6.00000000
alpha( 2) =  0.00000000
U( 3)     =  0.00000000
alpha( 3) =  0.00000000
U( 4)     =  0.00000000
alpha( 4) =  0.00000000
atom    1   Tr[ns(na)] =   8.04064
    eigenvalues: 
  0.514  0.514  0.997  0.997  0.999
    eigenvectors:
  0.000  0.000  0.000  0.000  1.000
  0.339  0.319  0.003  0.339  0.000
  0.319  0.339  0.339  0.003  0.000
  0.287  0.055  0.520  0.139  0.000
  0.055  0.287  0.139  0.520  0.000
    occupations:
  0.999  0.000  0.000  0.000  0.000
  0.000  0.679  0.000 -0.087  0.212
  0.000  0.000  0.679  0.212  0.087
  0.000 -0.087  0.212  0.832  0.000
  0.000  0.212  0.087  0.000  0.832
atom    2   Tr[ns(na)] =   8.06063
    eigenvalues: 
  0.518  0.518  0.997  0.997  0.999
    eigenvectors:
  0.000  0.000  0.000  0.000  1.000
  0.642  0.017  0.224  0.118  0.000
  0.017  0.642  0.118  0.224  0.000
  0.017  0.324  0.475  0.184  0.000
  0.324  0.017  0.184  0.475  0.000
    occupations:
  0.999  0.000  0.000  0.000  0.000
  0.000  0.682  0.000  0.086  0.210
  0.000  0.000  0.682  0.210 -0.086
  0.000  0.086  0.210  0.834  0.000
  0.000  0.210 -0.086  0.000  0.834
atom    3   Tr[ns(na)] =   3.79857
    eigenvalues: 
  0.357  0.357  0.382  0.402  0.402
    eigenvectors:
  0.000  0.000  1.000  0.000  0.000
  0.784  0.138  0.000  0.011  0.066
  0.138  0.784  0.000  0.066  0.011
  0.012  0.066  0.000  0.782  0.140
  0.066  0.012  0.000  0.140  0.782
    occupations:
  0.382  0.000  0.000  0.000  0.000
  0.000  0.360  0.000  0.000  0.012
  0.000  0.000  0.360  0.012  0.000
  0.000  0.000  0.012  0.399  0.000
  0.000  0.012  0.000  0.000  0.399
atom    4   Tr[ns(na)] =   3.79857
    eigenvalues: 
  0.357  0.357  0.382  0.402  0.402
    eigenvectors:
  0.000  0.000  1.000  0.000  0.000
  0.785  0.138  0.000  0.011  0.066
  0.138  0.785  0.000  0.066  0.011
  0.012  0.066  0.000  0.782  0.141
  0.066  0.012  0.000  0.141  0.782
    occupations:
  0.382  0.000  0.000  0.000  0.000
  0.000  0.360  0.000  0.000  0.012
  0.000  0.000  0.360  0.012  0.000
  0.000  0.000  0.012  0.399  0.000
  0.000  0.012  0.000  0.000  0.399
atom    5   Tr[ns(na)] =   5.43173
    eigenvalues: 
  0.838  0.930  0.948
    eigenvectors:
  0.337  0.000  0.663
  0.501  0.246  0.253
  0.163  0.754  0.084
    occupations:
  0.911  0.045  0.026
  0.045  0.888 -0.024
  0.026 -0.024  0.917
atom    6   Tr[ns(na)] =   5.43173
    eigenvalues: 
  0.838  0.930  0.948
    eigenvectors:
  0.337  0.000  0.663
  0.000  1.000  0.000
  0.663  0.000  0.337
    occupations:
  0.911  0.000 -0.052
  0.000  0.930  0.000
 -0.052  0.000  0.875
atom    7   Tr[ns(na)] =   5.43173
    eigenvalues: 
  0.838  0.930  0.948
    eigenvectors:
  0.337  0.000  0.663
  0.494  0.254  0.252
  0.169  0.746  0.085
    occupations:
  0.911 -0.045  0.026
 -0.045  0.889  0.024
  0.026  0.024  0.916
atom    8   Tr[ns(na)] =   5.43173
    eigenvalues: 
  0.838  0.930  0.948
    eigenvectors:
  0.337  0.000  0.663
  0.000  1.000  0.000
  0.663  0.000  0.337
    occupations:
  0.911  0.000 -0.052
  0.000  0.930  0.000
 -0.052  0.000  0.875
atom    9   Tr[ns(na)] =   5.43173
    eigenvalues: 
  0.838  0.930  0.948
    eigenvectors:
  0.337  0.000  0.663
  0.501  0.246  0.253
  0.163  0.754  0.084
    occupations:
  0.911  0.045  0.026
  0.045  0.888 -0.024
  0.026 -0.024  0.917
atom   10   Tr[ns(na)] =   5.43173
    eigenvalues: 
  0.838  0.930  0.948
    eigenvectors:
  0.337  0.000  0.663
  0.494  0.254  0.252
  0.169  0.746  0.085
    occupations:
  0.911 -0.045  0.026
 -0.045  0.889  0.024
  0.026  0.024  0.916
N of occupied +U levels =  56.2887922
 --- exit write_ns ---
 --- in v_hubbard ---
Hubbard energy    0.5318
 -------

     total cpu time spent up to now is      104.8 secs

     total energy              =    -537.75927876 Ry
     Harris-Foulkes estimate   =    -537.75923457 Ry
     estimated scf accuracy    <       0.00039536 Ry

     iteration #  6     ecut=    30.00 Ry     beta=0.20
     Davidson diagonalization with overlap
     ethr =  5.20E-07,  avg # of iterations =  2.0
 --- enter write_ns ---
 LDA+U parameters:
U( 1)     =  6.00000000
alpha( 1) =  0.15000000
U( 2)     =  6.00000000
alpha( 2) =  0.00000000
U( 3)     =  0.00000000
alpha( 3) =  0.00000000
U( 4)     =  0.00000000
alpha( 4) =  0.00000000
atom    1   Tr[ns(na)] =   8.02773
    eigenvalues: 
  0.510  0.510  0.997  0.997  0.999
    eigenvectors:
  0.000  0.000  0.000  0.000  1.000
  0.339  0.319  0.003  0.339  0.000
  0.319  0.339  0.339  0.003  0.000
  0.287  0.054  0.520  0.138  0.000
  0.054  0.287  0.138  0.520  0.000
    occupations:
  0.999  0.000  0.000  0.000  0.000
  0.000  0.677  0.000 -0.088  0.213
  0.000  0.000  0.677  0.213  0.088
  0.000 -0.088  0.213  0.831  0.000
  0.000  0.213  0.088  0.000  0.831
atom    2   Tr[ns(na)] =   8.04293
    eigenvalues: 
  0.514  0.514  0.997  0.997  0.999
    eigenvectors:
  0.000  0.000  0.000  0.000  1.000
  0.642  0.017  0.224  0.117  0.000
  0.017  0.642  0.117  0.224  0.000
  0.018  0.324  0.475  0.184  0.000
  0.324  0.018  0.184  0.475  0.000
    occupations:
  0.999  0.000  0.000  0.000  0.000
  0.000  0.679  0.000  0.087  0.212
  0.000  0.000  0.679  0.212 -0.087
  0.000  0.087  0.212  0.832  0.000
  0.000  0.212 -0.087  0.000  0.832
atom    3   Tr[ns(na)] =   3.79575
    eigenvalues: 
  0.356  0.356  0.381  0.402  0.402
    eigenvectors:
  0.000  0.000  1.000  0.000  0.000
  0.783  0.138  0.000  0.011  0.067
  0.138  0.783  0.000  0.067  0.011
  0.012  0.066  0.000  0.781  0.140
  0.066  0.012  0.000  0.140  0.781
    occupations:
  0.381  0.000  0.000  0.000  0.000
  0.000  0.360  0.000  0.000  0.012
  0.000  0.000  0.360  0.012  0.000
  0.000  0.000  0.012  0.398  0.000
  0.000  0.012  0.000  0.000  0.398
atom    4   Tr[ns(na)] =   3.79575
    eigenvalues: 
  0.356  0.356  0.381  0.402  0.402
    eigenvectors:
  0.000  0.000  1.000  0.000  0.000
  0.783  0.138  0.000  0.011  0.067
  0.138  0.783  0.000  0.067  0.011
  0.012  0.066  0.000  0.781  0.140
  0.066  0.012  0.000  0.140  0.781
    occupations:
  0.381  0.000  0.000  0.000  0.000
  0.000  0.360  0.000  0.000  0.012
  0.000  0.000  0.360  0.012  0.000
  0.000  0.000  0.012  0.398  0.000
  0.000  0.012  0.000  0.000  0.398
atom    5   Tr[ns(na)] =   5.43697
    eigenvalues: 
  0.839  0.931  0.948
    eigenvectors:
  0.336  0.000  0.664
  0.500  0.247  0.253
  0.163  0.753  0.084
    occupations:
  0.912  0.045  0.026
  0.045  0.889 -0.024
  0.026 -0.024  0.917
atom    6   Tr[ns(na)] =   5.43697
    eigenvalues: 
  0.839  0.931  0.948
    eigenvectors:
  0.336  0.000  0.664
  0.000  1.000  0.000
  0.664  0.000  0.336
    occupations:
  0.912  0.000 -0.051
  0.000  0.931  0.000
 -0.051  0.000  0.876
atom    7   Tr[ns(na)] =   5.43697
    eigenvalues: 
  0.839  0.931  0.948
    eigenvectors:
  0.336  0.000  0.664
  0.495  0.253  0.252
  0.169  0.747  0.085
    occupations:
  0.912 -0.044  0.026
 -0.044  0.890  0.024
  0.026  0.024  0.917
atom    8   Tr[ns(na)] =   5.43697
    eigenvalues: 
  0.839  0.931  0.948
    eigenvectors:
  0.336  0.000  0.664
  0.000  1.000  0.000
  0.664  0.000  0.336
    occupations:
  0.912  0.000 -0.051
  0.000  0.931  0.000
 -0.051  0.000  0.876
atom    9   Tr[ns(na)] =   5.43697
    eigenvalues: 
  0.839  0.931  0.948
    eigenvectors:
  0.336  0.000  0.664
  0.500  0.247  0.253
  0.163  0.753  0.084
    occupations:
  0.912  0.045  0.026
  0.045  0.889 -0.024
  0.026 -0.024  0.917
atom   10   Tr[ns(na)] =   5.43697
    eigenvalues: 
  0.839  0.931  0.948
    eigenvectors:
  0.336  0.000  0.664
  0.495  0.253  0.252
  0.169  0.747  0.085
    occupations:
  0.912 -0.044  0.026
 -0.044  0.890  0.024
  0.026  0.024  0.917
N of occupied +U levels =  56.2839884
 --- exit write_ns ---
 --- in v_hubbard ---
Hubbard energy    0.5330
 -------

     total cpu time spent up to now is      119.2 secs

     total energy              =    -537.75945561 Ry
     Harris-Foulkes estimate   =    -537.75936362 Ry
     estimated scf accuracy    <       0.00019194 Ry

     iteration #  7     ecut=    30.00 Ry     beta=0.20
     Davidson diagonalization with overlap
     ethr =  2.53E-07,  avg # of iterations =  2.0
 --- enter write_ns ---
 LDA+U parameters:
U( 1)     =  6.00000000
alpha( 1) =  0.15000000
U( 2)     =  6.00000000
alpha( 2) =  0.00000000
U( 3)     =  0.00000000
alpha( 3) =  0.00000000
U( 4)     =  0.00000000
alpha( 4) =  0.00000000
atom    1   Tr[ns(na)] =   8.02595
    eigenvalues: 
  0.510  0.510  0.997  0.997  0.999
    eigenvectors:
  0.000  0.000  0.000  0.000  1.000
  0.339  0.319  0.002  0.339  0.000
  0.319  0.339  0.339  0.002  0.000
  0.288  0.054  0.520  0.138  0.000
  0.054  0.288  0.138  0.520  0.000
    occupations:
  0.999  0.000  0.000  0.000  0.000
  0.000  0.676  0.000 -0.088  0.213
  0.000  0.000  0.676  0.213  0.088
  0.000 -0.088  0.213  0.830  0.000
  0.000  0.213  0.088  0.000  0.830
atom    2   Tr[ns(na)] =   8.04260
    eigenvalues: 
  0.514  0.514  0.997  0.997  1.000
    eigenvectors:
  0.000  0.000  0.000  0.000  1.000
  0.642  0.016  0.225  0.117  0.000
  0.016  0.642  0.117  0.225  0.000
  0.018  0.323  0.475  0.184  0.000
  0.323  0.018  0.184  0.475  0.000
    occupations:
  1.000  0.000  0.000  0.000  0.000
  0.000  0.679  0.000  0.087  0.212
  0.000  0.000  0.679  0.212 -0.087
  0.000  0.087  0.212  0.832  0.000
  0.000  0.212 -0.087  0.000  0.832
atom    3   Tr[ns(na)] =   3.79199
    eigenvalues: 
  0.356  0.356  0.381  0.402  0.402
    eigenvectors:
  0.000  0.000  1.000  0.000  0.000
  0.782  0.139  0.000  0.012  0.068
  0.139  0.782  0.000  0.068  0.012
  0.012  0.067  0.000  0.780  0.141
  0.067  0.012  0.000  0.141  0.780
    occupations:
  0.381  0.000  0.000  0.000  0.000
  0.000  0.360  0.000  0.000  0.012
  0.000  0.000  0.360  0.012  0.000
  0.000  0.000  0.012  0.398  0.000
  0.000  0.012  0.000  0.000  0.398
atom    4   Tr[ns(na)] =   3.79199
    eigenvalues: 
  0.356  0.356  0.381  0.402  0.402
    eigenvectors:
  0.000  0.000  1.000  0.000  0.000
  0.782  0.139  0.000  0.012  0.068
  0.139  0.782  0.000  0.068  0.012
  0.012  0.067  0.000  0.780  0.141
  0.067  0.012  0.000  0.141  0.780
    occupations:
  0.381  0.000  0.000  0.000  0.000
  0.000  0.360  0.000  0.000  0.012
  0.000  0.000  0.360  0.012  0.000
  0.000  0.000  0.012  0.398  0.000
  0.000  0.012  0.000  0.000  0.398
atom    5   Tr[ns(na)] =   5.43797
    eigenvalues: 
  0.839  0.931  0.949
    eigenvectors:
  0.337  0.000  0.663
  0.500  0.247  0.253
  0.163  0.753  0.084
    occupations:
  0.912  0.045  0.026
  0.045  0.890 -0.024
  0.026 -0.024  0.918
atom    6   Tr[ns(na)] =   5.43797
    eigenvalues: 
  0.839  0.931  0.949
    eigenvectors:
  0.337  0.000  0.663
  0.000  1.000  0.000
  0.663  0.000  0.337
    occupations:
  0.912  0.000 -0.052
  0.000  0.931  0.000
 -0.052  0.000  0.876
atom    7   Tr[ns(na)] =   5.43797
    eigenvalues: 
  0.839  0.931  0.949
    eigenvectors:
  0.337  0.000  0.663
  0.495  0.253  0.252
  0.169  0.747  0.085
    occupations:
  0.912 -0.045  0.026
 -0.045  0.890  0.024
  0.026  0.024  0.917
atom    8   Tr[ns(na)] =   5.43797
    eigenvalues: 
  0.839  0.931  0.949
    eigenvectors:
  0.337  0.000  0.663
  0.000  1.000  0.000
  0.663  0.000  0.337
    occupations:
  0.912  0.000 -0.052
  0.000  0.931  0.000
 -0.052  0.000  0.876
atom    9   Tr[ns(na)] =   5.43797
    eigenvalues: 
  0.839  0.931  0.949
    eigenvectors:
  0.337  0.000  0.663
  0.500  0.247  0.253
  0.163  0.753  0.084
    occupations:
  0.912  0.045  0.026
  0.045  0.890 -0.024
  0.026 -0.024  0.918
atom   10   Tr[ns(na)] =   5.43797
    eigenvalues: 
  0.839  0.931  0.949
    eigenvectors:
  0.337  0.000  0.663
  0.495  0.253  0.252
  0.169  0.747  0.085
    occupations:
  0.912 -0.045  0.026
 -0.045  0.890  0.024
  0.026  0.024  0.917
N of occupied +U levels =  56.2803399
 --- exit write_ns ---
 --- in v_hubbard ---
Hubbard energy    0.5344
 -------

     total cpu time spent up to now is      132.7 secs

     total energy              =    -537.75952470 Ry
     Harris-Foulkes estimate   =    -537.75947013 Ry
     estimated scf accuracy    <       0.00009827 Ry

     iteration #  8     ecut=    30.00 Ry     beta=0.20
     Davidson diagonalization with overlap
     ethr =  1.29E-07,  avg # of iterations =  2.0
 --- enter write_ns ---
 LDA+U parameters:
U( 1)     =  6.00000000
alpha( 1) =  0.15000000
U( 2)     =  6.00000000
alpha( 2) =  0.00000000
U( 3)     =  0.00000000
alpha( 3) =  0.00000000
U( 4)     =  0.00000000
alpha( 4) =  0.00000000
atom    1   Tr[ns(na)] =   8.03201
    eigenvalues: 
  0.511  0.511  0.997  0.997  0.999
    eigenvectors:
  0.000  0.000  0.000  0.000  1.000
  0.340  0.318  0.002  0.339  0.000
  0.318  0.340  0.339  0.002  0.000
  0.288  0.054  0.521  0.138  0.000
  0.054  0.288  0.138  0.521  0.000
    occupations:
  0.999  0.000  0.000  0.000  0.000
  0.000  0.677  0.000 -0.088  0.213
  0.000  0.000  0.677  0.213  0.088
  0.000 -0.088  0.213  0.831  0.000
  0.000  0.213  0.088  0.000  0.831
atom    2   Tr[ns(na)] =   8.04810
    eigenvalues: 
  0.515  0.515  0.997  0.997  0.999
    eigenvectors:
  0.000  0.000  0.000  0.000  1.000
  0.642  0.016  0.226  0.116  0.000
  0.016  0.642  0.116  0.226  0.000
  0.019  0.323  0.475  0.184  0.000
  0.323  0.019  0.184  0.475  0.000
    occupations:
  0.999  0.000  0.000  0.000  0.000
  0.000  0.680  0.000  0.087  0.211
  0.000  0.000  0.680  0.211 -0.087
  0.000  0.087  0.211  0.832  0.000
  0.000  0.211 -0.087  0.000  0.832
atom    3   Tr[ns(na)] =   3.79503
    eigenvalues: 
  0.356  0.356  0.381  0.402  0.402
    eigenvectors:
  0.000  0.000  1.000  0.000  0.000
  0.783  0.139  0.000  0.012  0.067
  0.139  0.783  0.000  0.067  0.012
  0.012  0.066  0.000  0.781  0.141
  0.066  0.012  0.000  0.141  0.781
    occupations:
  0.381  0.000  0.000  0.000  0.000
  0.000  0.360  0.000  0.000  0.012
  0.000  0.000  0.360  0.012  0.000
  0.000  0.000  0.012  0.398  0.000
  0.000  0.012  0.000  0.000  0.398
atom    4   Tr[ns(na)] =   3.79503
    eigenvalues: 
  0.356  0.356  0.381  0.402  0.402
    eigenvectors:
  0.000  0.000  1.000  0.000  0.000
  0.783  0.139  0.000  0.012  0.067
  0.139  0.783  0.000  0.067  0.012
  0.012  0.066  0.000  0.781  0.141
  0.066  0.012  0.000  0.141  0.781
    occupations:
  0.381  0.000  0.000  0.000  0.000
  0.000  0.360  0.000  0.000  0.012
  0.000  0.000  0.360  0.012  0.000
  0.000  0.000  0.012  0.398  0.000
  0.000  0.012  0.000  0.000  0.398
atom    5   Tr[ns(na)] =   5.43542
    eigenvalues: 
  0.839  0.931  0.948
    eigenvectors:
  0.337  0.000  0.663
  0.500  0.247  0.253
  0.163  0.753  0.084
    occupations:
  0.911  0.045  0.026
  0.045  0.889 -0.024
  0.026 -0.024  0.917
atom    6   Tr[ns(na)] =   5.43542
    eigenvalues: 
  0.839  0.931  0.948
    eigenvectors:
  0.337  0.000  0.663
  0.000  1.000  0.000
  0.663  0.000  0.337
    occupations:
  0.911  0.000 -0.052
  0.000  0.931  0.000
 -0.052  0.000  0.876
atom    7   Tr[ns(na)] =   5.43542
    eigenvalues: 
  0.839  0.931  0.948
    eigenvectors:
  0.337  0.000  0.663
  0.495  0.253  0.252
  0.169  0.747  0.085
    occupations:
  0.911 -0.045  0.026
 -0.045  0.890  0.024
  0.026  0.024  0.917
atom    8   Tr[ns(na)] =   5.43542
    eigenvalues: 
  0.839  0.931  0.948
    eigenvectors:
  0.337  0.000  0.663
  0.000  1.000  0.000
  0.663  0.000  0.337
    occupations:
  0.911  0.000 -0.052
  0.000  0.931  0.000
 -0.052  0.000  0.876
atom    9   Tr[ns(na)] =   5.43542
    eigenvalues: 
  0.839  0.931  0.948
    eigenvectors:
  0.337  0.000  0.663
  0.500  0.247  0.253
  0.163  0.753  0.084
    occupations:
  0.911  0.045  0.026
  0.045  0.889 -0.024
  0.026 -0.024  0.917
atom   10   Tr[ns(na)] =   5.43542
    eigenvalues: 
  0.839  0.931  0.948
    eigenvectors:
  0.337  0.000  0.663
  0.495  0.253  0.252
  0.169  0.747  0.085
    occupations:
  0.911 -0.045  0.026
 -0.045  0.890  0.024
  0.026  0.024  0.917
N of occupied +U levels =  56.2827150
 --- exit write_ns ---
 --- in v_hubbard ---
Hubbard energy    0.5346
 -------

     total cpu time spent up to now is      146.6 secs

     total energy              =    -537.75958840 Ry
     Harris-Foulkes estimate   =    -537.75954363 Ry
     estimated scf accuracy    <       0.00001592 Ry

     iteration #  9     ecut=    30.00 Ry     beta=0.20
     Davidson diagonalization with overlap
     ethr =  2.10E-08,  avg # of iterations =  1.1
 --- enter write_ns ---
 LDA+U parameters:
U( 1)     =  6.00000000
alpha( 1) =  0.15000000
U( 2)     =  6.00000000
alpha( 2) =  0.00000000
U( 3)     =  0.00000000
alpha( 3) =  0.00000000
U( 4)     =  0.00000000
alpha( 4) =  0.00000000
atom    1   Tr[ns(na)] =   8.03027
    eigenvalues: 
  0.511  0.511  0.997  0.997  0.999
    eigenvectors:
  0.000  0.000  0.000  0.000  1.000
  0.340  0.319  0.002  0.339  0.000
  0.319  0.340  0.339  0.002  0.000
  0.288  0.054  0.521  0.138  0.000
  0.054  0.288  0.138  0.521  0.000
    occupations:
  0.999  0.000  0.000  0.000  0.000
  0.000  0.677  0.000 -0.088  0.213
  0.000  0.000  0.677  0.213  0.088
  0.000 -0.088  0.213  0.831  0.000
  0.000  0.213  0.088  0.000  0.831
atom    2   Tr[ns(na)] =   8.04761
    eigenvalues: 
  0.515  0.515  0.997  0.997  1.000
    eigenvectors:
  0.000  0.000  0.000  0.000  1.000
  0.643  0.016  0.226  0.116  0.000
  0.016  0.643  0.116  0.226  0.000
  0.019  0.323  0.475  0.183  0.000
  0.323  0.019  0.183  0.475  0.000
    occupations:
  1.000  0.000  0.000  0.000  0.000
  0.000  0.680  0.000  0.088  0.211
  0.000  0.000  0.680  0.211 -0.088
  0.000  0.088  0.211  0.832  0.000
  0.000  0.211 -0.088  0.000  0.832
atom    3   Tr[ns(na)] =   3.79456
    eigenvalues: 
  0.356  0.356  0.381  0.402  0.402
    eigenvectors:
  0.000  0.000  1.000  0.000  0.000
  0.783  0.138  0.000  0.012  0.067
  0.138  0.783  0.000  0.067  0.012
  0.012  0.067  0.000  0.780  0.141
  0.067  0.012  0.000  0.141  0.780
    occupations:
  0.381  0.000  0.000  0.000  0.000
  0.000  0.360  0.000  0.000  0.012
  0.000  0.000  0.360  0.012  0.000
  0.000  0.000  0.012  0.398  0.000
  0.000  0.012  0.000  0.000  0.398
atom    4   Tr[ns(na)] =   3.79456
    eigenvalues: 
  0.356  0.356  0.381  0.402  0.402
    eigenvectors:
  0.000  0.000  1.000  0.000  0.000
  0.782  0.139  0.000  0.012  0.067
  0.139  0.782  0.000  0.067  0.012
  0.012  0.067  0.000  0.780  0.141
  0.067  0.012  0.000  0.141  0.780
    occupations:
  0.381  0.000  0.000  0.000  0.000
  0.000  0.360  0.000  0.000  0.012
  0.000  0.000  0.360  0.012  0.000
  0.000  0.000  0.012  0.398  0.000
  0.000  0.012  0.000  0.000  0.398
atom    5   Tr[ns(na)] =   5.43583
    eigenvalues: 
  0.839  0.931  0.948
    eigenvectors:
  0.337  0.000  0.663
  0.500  0.247  0.253
  0.163  0.753  0.084
    occupations:
  0.911  0.045  0.026
  0.045  0.889 -0.024
  0.026 -0.024  0.917
atom    6   Tr[ns(na)] =   5.43583
    eigenvalues: 
  0.839  0.931  0.948
    eigenvectors:
  0.337  0.000  0.663
  0.000  1.000  0.000
  0.663  0.000  0.337
    occupations:
  0.911  0.000 -0.052
  0.000  0.931  0.000
 -0.052  0.000  0.876
atom    7   Tr[ns(na)] =   5.43583
    eigenvalues: 
  0.839  0.931  0.948
    eigenvectors:
  0.337  0.000  0.663
  0.494  0.253  0.252
  0.169  0.747  0.085
    occupations:
  0.911 -0.045  0.026
 -0.045  0.890  0.024
  0.026  0.024  0.917
atom    8   Tr[ns(na)] =   5.43583
    eigenvalues: 
  0.839  0.931  0.948
    eigenvectors:
  0.337  0.000  0.663
  0.000  1.000  0.000
  0.663  0.000  0.337
    occupations:
  0.911  0.000 -0.052
  0.000  0.931  0.000
 -0.052  0.000  0.876
atom    9   Tr[ns(na)] =   5.43583
    eigenvalues: 
  0.839  0.931  0.948
    eigenvectors:
  0.337  0.000  0.663
  0.500  0.247  0.253
  0.163  0.753  0.084
    occupations:
  0.911  0.045  0.026
  0.045  0.889 -0.024
  0.026 -0.024  0.917
atom   10   Tr[ns(na)] =   5.43583
    eigenvalues: 
  0.839  0.931  0.948
    eigenvectors:
  0.337  0.000  0.663
  0.494  0.253  0.252
  0.169  0.747  0.085
    occupations:
  0.911 -0.045  0.026
 -0.045  0.890  0.024
  0.026  0.024  0.917
N of occupied +U levels =  56.2819885
 --- exit write_ns ---
 --- in v_hubbard ---
Hubbard energy    0.5352
 -------

     total cpu time spent up to now is      159.8 secs

     total energy              =    -537.75962068 Ry
     Harris-Foulkes estimate   =    -537.75958944 Ry
     estimated scf accuracy    <       0.00000553 Ry

     iteration # 10     ecut=    30.00 Ry     beta=0.20
     Davidson diagonalization with overlap
     ethr =  7.28E-09,  avg # of iterations =  2.0
 --- enter write_ns ---
 LDA+U parameters:
U( 1)     =  6.00000000
alpha( 1) =  0.15000000
U( 2)     =  6.00000000
alpha( 2) =  0.00000000
U( 3)     =  0.00000000
alpha( 3) =  0.00000000
U( 4)     =  0.00000000
alpha( 4) =  0.00000000
atom    1   Tr[ns(na)] =   8.02951
    eigenvalues: 
  0.511  0.511  0.997  0.997  0.999
    eigenvectors:
  0.000  0.000  0.000  0.000  1.000
  0.340  0.318  0.002  0.340  0.000
  0.318  0.340  0.340  0.002  0.000
  0.288  0.053  0.521  0.137  0.000
  0.053  0.288  0.137  0.521  0.000
    occupations:
  0.999  0.000  0.000  0.000  0.000
  0.000  0.677  0.000 -0.089  0.213
  0.000  0.000  0.677  0.213  0.089
  0.000 -0.089  0.213  0.831  0.000
  0.000  0.213  0.089  0.000  0.831
atom    2   Tr[ns(na)] =   8.04681
    eigenvalues: 
  0.515  0.515  0.997  0.997  1.000
    eigenvectors:
  0.000  0.000  0.000  0.000  1.000
  0.643  0.015  0.226  0.115  0.000
  0.015  0.643  0.115  0.226  0.000
  0.020  0.322  0.475  0.183  0.000
  0.322  0.020  0.183  0.475  0.000
    occupations:
  1.000  0.000  0.000  0.000  0.000
  0.000  0.680  0.000  0.088  0.211
  0.000  0.000  0.680  0.211 -0.088
  0.000  0.088  0.211  0.832  0.000
  0.000  0.211 -0.088  0.000  0.832
atom    3   Tr[ns(na)] =   3.79350
    eigenvalues: 
  0.356  0.356  0.381  0.402  0.402
    eigenvectors:
  0.000  0.000  1.000  0.000  0.000
  0.782  0.138  0.000  0.012  0.067
  0.138  0.782  0.000  0.067  0.012
  0.012  0.067  0.000  0.780  0.141
  0.067  0.012  0.000  0.141  0.780
    occupations:
  0.381  0.000  0.000  0.000  0.000
  0.000  0.360  0.000  0.000  0.012
  0.000  0.000  0.360  0.012  0.000
  0.000  0.000  0.012  0.398  0.000
  0.000  0.012  0.000  0.000  0.398
atom    4   Tr[ns(na)] =   3.79350
    eigenvalues: 
  0.356  0.356  0.381  0.402  0.402
    eigenvectors:
  0.000  0.000  1.000  0.000  0.000
  0.782  0.139  0.000  0.012  0.067
  0.139  0.782  0.000  0.067  0.012
  0.012  0.067  0.000  0.780  0.141
  0.067  0.012  0.000  0.141  0.780
    occupations:
  0.381  0.000  0.000  0.000  0.000
  0.000  0.360  0.000  0.000  0.012
  0.000  0.000  0.360  0.012  0.000
  0.000  0.000  0.012  0.398  0.000
  0.000  0.012  0.000  0.000  0.398
atom    5   Tr[ns(na)] =   5.43629
    eigenvalues: 
  0.839  0.931  0.948
    eigenvectors:
  0.337  0.000  0.663
  0.500  0.247  0.253
  0.163  0.753  0.084
    occupations:
  0.912  0.045  0.026
  0.045  0.889 -0.024
  0.026 -0.024  0.917
atom    6   Tr[ns(na)] =   5.43629
    eigenvalues: 
  0.839  0.931  0.948
    eigenvectors:
  0.337  0.000  0.663
  0.000  1.000  0.000
  0.663  0.000  0.337
    occupations:
  0.912  0.000 -0.052
  0.000  0.931  0.000
 -0.052  0.000  0.876
atom    7   Tr[ns(na)] =   5.43629
    eigenvalues: 
  0.839  0.931  0.948
    eigenvectors:
  0.337  0.000  0.663
  0.494  0.253  0.252
  0.169  0.747  0.085
    occupations:
  0.912 -0.045  0.026
 -0.045  0.890  0.024
  0.026  0.024  0.917
atom    8   Tr[ns(na)] =   5.43629
    eigenvalues: 
  0.839  0.931  0.948
    eigenvectors:
  0.337  0.000  0.663
  0.000  1.000  0.000
  0.663  0.000  0.337
    occupations:
  0.912  0.000 -0.052
  0.000  0.931  0.000
 -0.052  0.000  0.876
atom    9   Tr[ns(na)] =   5.43629
    eigenvalues: 
  0.839  0.931  0.948
    eigenvectors:
  0.337  0.000  0.663
  0.500  0.247  0.253
  0.163  0.753  0.084
    occupations:
  0.912  0.045  0.026
  0.045  0.889 -0.024
  0.026 -0.024  0.917
atom   10   Tr[ns(na)] =   5.43629
    eigenvalues: 
  0.839  0.931  0.948
    eigenvectors:
  0.337  0.000  0.663
  0.494  0.253  0.252
  0.169  0.747  0.085
    occupations:
  0.912 -0.045  0.026
 -0.045  0.890  0.024
  0.026  0.024  0.917
N of occupied +U levels =  56.2810566
 --- exit write_ns ---
 --- in v_hubbard ---
Hubbard energy    0.5351
 -------

     total cpu time spent up to now is      174.6 secs

     total energy              =    -537.75964308 Ry
     Harris-Foulkes estimate   =    -537.75962249 Ry
     estimated scf accuracy    <       0.00000168 Ry

     iteration # 11     ecut=    30.00 Ry     beta=0.20
     Davidson diagonalization with overlap
     ethr =  2.21E-09,  avg # of iterations =  1.9
 --- enter write_ns ---
 LDA+U parameters:
U( 1)     =  6.00000000
alpha( 1) =  0.15000000
U( 2)     =  6.00000000
alpha( 2) =  0.00000000
U( 3)     =  0.00000000
alpha( 3) =  0.00000000
U( 4)     =  0.00000000
alpha( 4) =  0.00000000
atom    1   Tr[ns(na)] =   8.02908
    eigenvalues: 
  0.511  0.511  0.997  0.997  0.999
    eigenvectors:
  0.000  0.000  0.000  0.000  1.000
  0.341  0.318  0.002  0.340  0.000
  0.318  0.341  0.340  0.002  0.000
  0.288  0.053  0.521  0.138  0.000
  0.053  0.288  0.138  0.521  0.000
    occupations:
  0.999  0.000  0.000  0.000  0.000
  0.000  0.677  0.000 -0.089  0.213
  0.000  0.000  0.677  0.213  0.089
  0.000 -0.089  0.213  0.831  0.000
  0.000  0.213  0.089  0.000  0.831
atom    2   Tr[ns(na)] =   8.04656
    eigenvalues: 
  0.515  0.515  0.997  0.997  1.000
    eigenvectors:
  0.000  0.000  0.000  0.000  1.000
  0.643  0.015  0.227  0.115  0.000
  0.015  0.643  0.115  0.227  0.000
  0.020  0.322  0.475  0.183  0.000
  0.322  0.020  0.183  0.475  0.000
    occupations:
  1.000  0.000  0.000  0.000  0.000
  0.000  0.680  0.000  0.088  0.211
  0.000  0.000  0.680  0.211 -0.088
  0.000  0.088  0.211  0.832  0.000
  0.000  0.211 -0.088  0.000  0.832
atom    3   Tr[ns(na)] =   3.79392
    eigenvalues: 
  0.356  0.356  0.381  0.402  0.402
    eigenvectors:
  0.000  0.000  1.000  0.000  0.000
  0.783  0.138  0.000  0.012  0.067
  0.138  0.783  0.000  0.067  0.012
  0.012  0.067  0.000  0.780  0.141
  0.067  0.012  0.000  0.141  0.780
    occupations:
  0.381  0.000  0.000  0.000  0.000
  0.000  0.360  0.000  0.000  0.012
  0.000  0.000  0.360  0.012  0.000
  0.000  0.000  0.012  0.398  0.000
  0.000  0.012  0.000  0.000  0.398
atom    4   Tr[ns(na)] =   3.79392
    eigenvalues: 
  0.356  0.356  0.381  0.402  0.402
    eigenvectors:
  0.000  0.000  1.000  0.000  0.000
  0.782  0.139  0.000  0.012  0.067
  0.139  0.782  0.000  0.067  0.012
  0.012  0.067  0.000  0.780  0.141
  0.067  0.012  0.000  0.141  0.780
    occupations:
  0.381  0.000  0.000  0.000  0.000
  0.000  0.360  0.000  0.000  0.012
  0.000  0.000  0.360  0.012  0.000
  0.000  0.000  0.012  0.398  0.000
  0.000  0.012  0.000  0.000  0.398
atom    5   Tr[ns(na)] =   5.43629
    eigenvalues: 
  0.839  0.931  0.948
    eigenvectors:
  0.337  0.000  0.663
  0.500  0.247  0.253
  0.163  0.753  0.084
    occupations:
  0.912  0.045  0.026
  0.045  0.889 -0.024
  0.026 -0.024  0.917
atom    6   Tr[ns(na)] =   5.43629
    eigenvalues: 
  0.839  0.931  0.948
    eigenvectors:
  0.337  0.000  0.663
  0.000  1.000  0.000
  0.663  0.000  0.337
    occupations:
  0.912  0.000 -0.052
  0.000  0.931  0.000
 -0.052  0.000  0.876
atom    7   Tr[ns(na)] =   5.43629
    eigenvalues: 
  0.839  0.931  0.948
    eigenvectors:
  0.337  0.000  0.663
  0.495  0.253  0.252
  0.169  0.747  0.085
    occupations:
  0.912 -0.045  0.026
 -0.045  0.890  0.024
  0.026  0.024  0.917
atom    8   Tr[ns(na)] =   5.43629
    eigenvalues: 
  0.839  0.931  0.948
    eigenvectors:
  0.337  0.000  0.663
  0.000  1.000  0.000
  0.663  0.000  0.337
    occupations:
  0.912  0.000 -0.052
  0.000  0.931  0.000
 -0.052  0.000  0.876
atom    9   Tr[ns(na)] =   5.43629
    eigenvalues: 
  0.839  0.931  0.948
    eigenvectors:
  0.337  0.000  0.663
  0.500  0.247  0.253
  0.163  0.753  0.084
    occupations:
  0.912  0.045  0.026
  0.045  0.889 -0.024
  0.026 -0.024  0.917
atom   10   Tr[ns(na)] =   5.43629
    eigenvalues: 
  0.839  0.931  0.948
    eigenvectors:
  0.337  0.000  0.663
  0.495  0.253  0.252
  0.169  0.747  0.085
    occupations:
  0.912 -0.045  0.026
 -0.045  0.890  0.024
  0.026  0.024  0.917
N of occupied +U levels =  56.2812477
 --- exit write_ns ---
 --- in v_hubbard ---
Hubbard energy    0.5350
 -------

     total cpu time spent up to now is      188.2 secs

     total energy              =    -537.75965766 Ry
     Harris-Foulkes estimate   =    -537.75964341 Ry
     estimated scf accuracy    <       0.00000053 Ry

     iteration # 12     ecut=    30.00 Ry     beta=0.20
     Davidson diagonalization with overlap
     ethr =  7.03E-10,  avg # of iterations =  2.6
 --- enter write_ns ---
 LDA+U parameters:
U( 1)     =  6.00000000
alpha( 1) =  0.15000000
U( 2)     =  6.00000000
alpha( 2) =  0.00000000
U( 3)     =  0.00000000
alpha( 3) =  0.00000000
U( 4)     =  0.00000000
alpha( 4) =  0.00000000
atom    1   Tr[ns(na)] =   8.02945
    eigenvalues: 
  0.511  0.511  0.997  0.997  0.999
    eigenvectors:
  0.000  0.000  0.000  0.000  1.000
  0.341  0.318  0.002  0.340  0.000
  0.318  0.341  0.340  0.002  0.000
  0.289  0.053  0.521  0.137  0.000
  0.053  0.289  0.137  0.521  0.000
    occupations:
  0.999  0.000  0.000  0.000  0.000
  0.000  0.677  0.000 -0.089  0.213
  0.000  0.000  0.677  0.213  0.089
  0.000 -0.089  0.213  0.831  0.000
  0.000  0.213  0.089  0.000  0.831
atom    2   Tr[ns(na)] =   8.04678
    eigenvalues: 
  0.515  0.515  0.997  0.997  1.000
    eigenvectors:
  0.000  0.000  0.000  0.000  1.000
  0.644  0.015  0.227  0.115  0.000
  0.015  0.644  0.115  0.227  0.000
  0.020  0.321  0.475  0.183  0.000
  0.321  0.020  0.183  0.475  0.000
    occupations:
  1.000  0.000  0.000  0.000  0.000
  0.000  0.680  0.000  0.088  0.211
  0.000  0.000  0.680  0.211 -0.088
  0.000  0.088  0.211  0.832  0.000
  0.000  0.211 -0.088  0.000  0.832
atom    3   Tr[ns(na)] =   3.79446
    eigenvalues: 
  0.356  0.356  0.381  0.402  0.402
    eigenvectors:
  0.000  0.000  1.000  0.000  0.000
  0.782  0.139  0.000  0.012  0.067
  0.139  0.782  0.000  0.067  0.012
  0.012  0.066  0.000  0.781  0.141
  0.066  0.012  0.000  0.141  0.781
    occupations:
  0.381  0.000  0.000  0.000  0.000
  0.000  0.360  0.000  0.000  0.012
  0.000  0.000  0.360  0.012  0.000
  0.000  0.000  0.012  0.398  0.000
  0.000  0.012  0.000  0.000  0.398
atom    4   Tr[ns(na)] =   3.79446
    eigenvalues: 
  0.356  0.356  0.381  0.402  0.402
    eigenvectors:
  0.000  0.000  1.000  0.000  0.000
  0.783  0.139  0.000  0.012  0.067
  0.139  0.783  0.000  0.067  0.012
  0.012  0.067  0.000  0.780  0.141
  0.067  0.012  0.000  0.141  0.780
    occupations:
  0.381  0.000  0.000  0.000  0.000
  0.000  0.360  0.000  0.000  0.012
  0.000  0.000  0.360  0.012  0.000
  0.000  0.000  0.012  0.398  0.000
  0.000  0.012  0.000  0.000  0.398
atom    5   Tr[ns(na)] =   5.43609
    eigenvalues: 
  0.839  0.931  0.948
    eigenvectors:
  0.337  0.000  0.663
  0.500  0.247  0.253
  0.163  0.753  0.084
    occupations:
  0.911  0.045  0.026
  0.045  0.889 -0.024
  0.026 -0.024  0.917
atom    6   Tr[ns(na)] =   5.43609
    eigenvalues: 
  0.839  0.931  0.948
    eigenvectors:
  0.337  0.000  0.663
  0.000  1.000  0.000
  0.663  0.000  0.337
    occupations:
  0.911  0.000 -0.052
  0.000  0.931  0.000
 -0.052  0.000  0.876
atom    7   Tr[ns(na)] =   5.43609
    eigenvalues: 
  0.839  0.931  0.948
    eigenvectors:
  0.337  0.000  0.663
  0.495  0.253  0.252
  0.169  0.747  0.085
    occupations:
  0.911 -0.045  0.026
 -0.045  0.890  0.024
  0.026  0.024  0.917
atom    8   Tr[ns(na)] =   5.43609
    eigenvalues: 
  0.839  0.931  0.948
    eigenvectors:
  0.337  0.000  0.663
  0.000  1.000  0.000
  0.663  0.000  0.337
    occupations:
  0.911  0.000 -0.052
  0.000  0.931  0.000
 -0.052  0.000  0.876
atom    9   Tr[ns(na)] =   5.43609
    eigenvalues: 
  0.839  0.931  0.948
    eigenvectors:
  0.337  0.000  0.663
  0.500  0.247  0.253
  0.163  0.753  0.084
    occupations:
  0.911  0.045  0.026
  0.045  0.889 -0.024
  0.026 -0.024  0.917
atom   10   Tr[ns(na)] =   5.43609
    eigenvalues: 
  0.839  0.931  0.948
    eigenvectors:
  0.337  0.000  0.663
  0.495  0.253  0.252
  0.169  0.747  0.085
    occupations:
  0.911 -0.045  0.026
 -0.045  0.890  0.024
  0.026  0.024  0.917
N of occupied +U levels =  56.2816994
 --- exit write_ns ---
 --- in v_hubbard ---
Hubbard energy    0.5349
 -------

     total cpu time spent up to now is      203.7 secs

     total energy              =    -537.75966665 Ry
     Harris-Foulkes estimate   =    -537.75965815 Ry
     estimated scf accuracy    <       0.00000069 Ry

     iteration # 13     ecut=    30.00 Ry     beta=0.20
     Davidson diagonalization with overlap
     ethr =  7.03E-10,  avg # of iterations =  2.0
 --- enter write_ns ---
 LDA+U parameters:
U( 1)     =  6.00000000
alpha( 1) =  0.15000000
U( 2)     =  6.00000000
alpha( 2) =  0.00000000
U( 3)     =  0.00000000
alpha( 3) =  0.00000000
U( 4)     =  0.00000000
alpha( 4) =  0.00000000
atom    1   Tr[ns(na)] =   8.02918
    eigenvalues: 
  0.511  0.511  0.997  0.997  0.999
    eigenvectors:
  0.000  0.000  0.000  0.000  1.000
  0.341  0.318  0.002  0.340  0.000
  0.318  0.341  0.340  0.002  0.000
  0.289  0.053  0.521  0.137  0.000
  0.053  0.289  0.137  0.521  0.000
    occupations:
  0.999  0.000  0.000  0.000  0.000
  0.000  0.677  0.000 -0.089  0.213
  0.000  0.000  0.677  0.213  0.089
  0.000 -0.089  0.213  0.831  0.000
  0.000  0.213  0.089  0.000  0.831
atom    2   Tr[ns(na)] =   8.04657
    eigenvalues: 
  0.515  0.515  0.997  0.997  1.000
    eigenvectors:
  0.000  0.000  0.000  0.000  1.000
  0.644  0.014  0.227  0.115  0.000
  0.014  0.644  0.115  0.227  0.000
  0.021  0.321  0.475  0.183  0.000
  0.321  0.021  0.183  0.475  0.000
    occupations:
  1.000  0.000  0.000  0.000  0.000
  0.000  0.680  0.000  0.088  0.211
  0.000  0.000  0.680  0.211 -0.088
  0.000  0.088  0.211  0.832  0.000
  0.000  0.211 -0.088  0.000  0.832
atom    3   Tr[ns(na)] =   3.79404
    eigenvalues: 
  0.356  0.356  0.381  0.402  0.402
    eigenvectors:
  0.000  0.000  1.000  0.000  0.000
  0.783  0.138  0.000  0.012  0.067
  0.138  0.783  0.000  0.067  0.012
  0.012  0.067  0.000  0.780  0.141
  0.067  0.012  0.000  0.141  0.780
    occupations:
  0.381  0.000  0.000  0.000  0.000
  0.000  0.360  0.000  0.000  0.012
  0.000  0.000  0.360  0.012  0.000
  0.000  0.000  0.012  0.398  0.000
  0.000  0.012  0.000  0.000  0.398
atom    4   Tr[ns(na)] =   3.79404
    eigenvalues: 
  0.356  0.356  0.381  0.402  0.402
    eigenvectors:
  0.000  0.000  1.000  0.000  0.000
  0.782  0.139  0.000  0.012  0.067
  0.139  0.782  0.000  0.067  0.012
  0.012  0.067  0.000  0.780  0.141
  0.067  0.012  0.000  0.141  0.780
    occupations:
  0.381  0.000  0.000  0.000  0.000
  0.000  0.360  0.000  0.000  0.012
  0.000  0.000  0.360  0.012  0.000
  0.000  0.000  0.012  0.398  0.000
  0.000  0.012  0.000  0.000  0.398
atom    5   Tr[ns(na)] =   5.43626
    eigenvalues: 
  0.839  0.931  0.948
    eigenvectors:
  0.337  0.000  0.663
  0.500  0.247  0.253
  0.163  0.753  0.084
    occupations:
  0.912  0.045  0.026
  0.045  0.889 -0.024
  0.026 -0.024  0.917
atom    6   Tr[ns(na)] =   5.43626
    eigenvalues: 
  0.839  0.931  0.948
    eigenvectors:
  0.337  0.000  0.663
  0.000  1.000  0.000
  0.663  0.000  0.337
    occupations:
  0.912  0.000 -0.052
  0.000  0.931  0.000
 -0.052  0.000  0.876
atom    7   Tr[ns(na)] =   5.43626
    eigenvalues: 
  0.839  0.931  0.948
    eigenvectors:
  0.337  0.000  0.663
  0.495  0.253  0.252
  0.169  0.747  0.085
    occupations:
  0.912 -0.045  0.026
 -0.045  0.890  0.024
  0.026  0.024  0.917
atom    8   Tr[ns(na)] =   5.43626
    eigenvalues: 
  0.839  0.931  0.948
    eigenvectors:
  0.337  0.000  0.663
  0.000  1.000  0.000
  0.663  0.000  0.337
    occupations:
  0.912  0.000 -0.052
  0.000  0.931  0.000
 -0.052  0.000  0.876
atom    9   Tr[ns(na)] =   5.43626
    eigenvalues: 
  0.839  0.931  0.948
    eigenvectors:
  0.337  0.000  0.663
  0.500  0.247  0.253
  0.163  0.753  0.084
    occupations:
  0.912  0.045  0.026
  0.045  0.889 -0.024
  0.026 -0.024  0.917
atom   10   Tr[ns(na)] =   5.43626
    eigenvalues: 
  0.839  0.931  0.948
    eigenvectors:
  0.337  0.000  0.663
  0.495  0.253  0.252
  0.169  0.747  0.085
    occupations:
  0.912 -0.045  0.026
 -0.045  0.890  0.024
  0.026  0.024  0.917
N of occupied +U levels =  56.2813884
 --- exit write_ns ---
 --- in v_hubbard ---
Hubbard energy    0.5348
 -------

     total cpu time spent up to now is      218.5 secs

     total energy              =    -537.75967264 Ry
     Harris-Foulkes estimate   =    -537.75966676 Ry
     estimated scf accuracy    <       0.00000001 Ry

     iteration # 14     ecut=    30.00 Ry     beta=0.20
     Davidson diagonalization with overlap
     ethr =  1.66E-11,  avg # of iterations =  3.0
 --- enter write_ns ---
 LDA+U parameters:
U( 1)     =  6.00000000
alpha( 1) =  0.15000000
U( 2)     =  6.00000000
alpha( 2) =  0.00000000
U( 3)     =  0.00000000
alpha( 3) =  0.00000000
U( 4)     =  0.00000000
alpha( 4) =  0.00000000
atom    1   Tr[ns(na)] =   8.02915
    eigenvalues: 
  0.511  0.511  0.997  0.997  0.999
    eigenvectors:
  0.000  0.000  0.000  0.000  1.000
  0.341  0.318  0.002  0.340  0.000
  0.318  0.341  0.340  0.002  0.000
  0.289  0.053  0.521  0.137  0.000
  0.053  0.289  0.137  0.521  0.000
    occupations:
  0.999  0.000  0.000  0.000  0.000
  0.000  0.677  0.000 -0.089  0.213
  0.000  0.000  0.677  0.213  0.089
  0.000 -0.089  0.213  0.831  0.000
  0.000  0.213  0.089  0.000  0.831
atom    2   Tr[ns(na)] =   8.04654
    eigenvalues: 
  0.515  0.515  0.997  0.997  1.000
    eigenvectors:
  0.000  0.000  0.000  0.000  1.000
  0.644  0.015  0.227  0.115  0.000
  0.015  0.644  0.115  0.227  0.000
  0.020  0.321  0.475  0.183  0.000
  0.321  0.020  0.183  0.475  0.000
    occupations:
  1.000  0.000  0.000  0.000  0.000
  0.000  0.680  0.000  0.088  0.211
  0.000  0.000  0.680  0.211 -0.088
  0.000  0.088  0.211  0.832  0.000
  0.000  0.211 -0.088  0.000  0.832
atom    3   Tr[ns(na)] =   3.79396
    eigenvalues: 
  0.356  0.356  0.381  0.402  0.402
    eigenvectors:
  0.000  0.000  1.000  0.000  0.000
  0.783  0.138  0.000  0.012  0.067
  0.138  0.783  0.000  0.067  0.012
  0.012  0.067  0.000  0.780  0.141
  0.067  0.012  0.000  0.141  0.780
    occupations:
  0.381  0.000  0.000  0.000  0.000
  0.000  0.360  0.000  0.000  0.012
  0.000  0.000  0.360  0.012  0.000
  0.000  0.000  0.012  0.398  0.000
  0.000  0.012  0.000  0.000  0.398
atom    4   Tr[ns(na)] =   3.79396
    eigenvalues: 
  0.356  0.356  0.381  0.402  0.402
    eigenvectors:
  0.000  0.000  1.000  0.000  0.000
  0.782  0.139  0.000  0.012  0.067
  0.139  0.782  0.000  0.067  0.012
  0.012  0.067  0.000  0.780  0.141
  0.067  0.012  0.000  0.141  0.780
    occupations:
  0.381  0.000  0.000  0.000  0.000
  0.000  0.360  0.000  0.000  0.012
  0.000  0.000  0.360  0.012  0.000
  0.000  0.000  0.012  0.398  0.000
  0.000  0.012  0.000  0.000  0.398
atom    5   Tr[ns(na)] =   5.43629
    eigenvalues: 
  0.839  0.931  0.948
    eigenvectors:
  0.337  0.000  0.663
  0.500  0.247  0.253
  0.163  0.753  0.084
    occupations:
  0.912  0.045  0.026
  0.045  0.889 -0.024
  0.026 -0.024  0.917
atom    6   Tr[ns(na)] =   5.43629
    eigenvalues: 
  0.839  0.931  0.948
    eigenvectors:
  0.337  0.000  0.663
  0.000  1.000  0.000
  0.663  0.000  0.337
    occupations:
  0.912  0.000 -0.052
  0.000  0.931  0.000
 -0.052  0.000  0.876
atom    7   Tr[ns(na)] =   5.43629
    eigenvalues: 
  0.839  0.931  0.948
    eigenvectors:
  0.337  0.000  0.663
  0.495  0.253  0.252
  0.169  0.747  0.085
    occupations:
  0.912 -0.045  0.026
 -0.045  0.890  0.024
  0.026  0.024  0.917
atom    8   Tr[ns(na)] =   5.43629
    eigenvalues: 
  0.839  0.931  0.948
    eigenvectors:
  0.337  0.000  0.663
  0.000  1.000  0.000
  0.663  0.000  0.337
    occupations:
  0.912  0.000 -0.052
  0.000  0.931  0.000
 -0.052  0.000  0.876
atom    9   Tr[ns(na)] =   5.43629
    eigenvalues: 
  0.839  0.931  0.948
    eigenvectors:
  0.337  0.000  0.663
  0.500  0.247  0.253
  0.163  0.753  0.084
    occupations:
  0.912  0.045  0.026
  0.045  0.889 -0.024
  0.026 -0.024  0.917
atom   10   Tr[ns(na)] =   5.43629
    eigenvalues: 
  0.839  0.931  0.948
    eigenvectors:
  0.337  0.000  0.663
  0.495  0.253  0.252
  0.169  0.747  0.085
    occupations:
  0.912 -0.045  0.026
 -0.045  0.890  0.024
  0.026  0.024  0.917
N of occupied +U levels =  56.2813382
 --- exit write_ns ---
 --- in v_hubbard ---
Hubbard energy    0.5348
 -------

     total cpu time spent up to now is      236.0 secs

     total energy              =    -537.75967643 Ry
     Harris-Foulkes estimate   =    -537.75967264 Ry
     estimated scf accuracy    <       0.00000002 Ry

     iteration # 15     ecut=    30.00 Ry     beta=0.20
     Davidson diagonalization with overlap
     ethr =  1.66E-11,  avg # of iterations =  2.0
 --- enter write_ns ---
 LDA+U parameters:
U( 1)     =  6.00000000
alpha( 1) =  0.15000000
U( 2)     =  6.00000000
alpha( 2) =  0.00000000
U( 3)     =  0.00000000
alpha( 3) =  0.00000000
U( 4)     =  0.00000000
alpha( 4) =  0.00000000
atom    1   Tr[ns(na)] =   8.02922
    eigenvalues: 
  0.511  0.511  0.997  0.997  0.999
    eigenvectors:
  0.000  0.000  0.000  0.000  1.000
  0.341  0.317  0.002  0.340  0.000
  0.317  0.341  0.340  0.002  0.000
  0.288  0.053  0.521  0.137  0.000
  0.053  0.288  0.137  0.521  0.000
    occupations:
  0.999  0.000  0.000  0.000  0.000
  0.000  0.677  0.000 -0.089  0.213
  0.000  0.000  0.677  0.213  0.089
  0.000 -0.089  0.213  0.831  0.000
  0.000  0.213  0.089  0.000  0.831
atom    2   Tr[ns(na)] =   8.04659
    eigenvalues: 
  0.515  0.515  0.997  0.997  1.000
    eigenvectors:
  0.000  0.000  0.000  0.000  1.000
  0.643  0.015  0.227  0.115  0.000
  0.015  0.643  0.115  0.227  0.000
  0.020  0.321  0.475  0.183  0.000
  0.321  0.020  0.183  0.475  0.000
    occupations:
  1.000  0.000  0.000  0.000  0.000
  0.000  0.680  0.000  0.088  0.211
  0.000  0.000  0.680  0.211 -0.088
  0.000  0.088  0.211  0.832  0.000
  0.000  0.211 -0.088  0.000  0.832
atom    3   Tr[ns(na)] =   3.79403
    eigenvalues: 
  0.356  0.356  0.381  0.402  0.402
    eigenvectors:
  0.000  0.000  1.000  0.000  0.000
  0.783  0.138  0.000  0.012  0.067
  0.138  0.783  0.000  0.067  0.012
  0.012  0.067  0.000  0.780  0.141
  0.067  0.012  0.000  0.141  0.780
    occupations:
  0.381  0.000  0.000  0.000  0.000
  0.000  0.360  0.000  0.000  0.012
  0.000  0.000  0.360  0.012  0.000
  0.000  0.000  0.012  0.398  0.000
  0.000  0.012  0.000  0.000  0.398
atom    4   Tr[ns(na)] =   3.79403
    eigenvalues: 
  0.356  0.356  0.381  0.402  0.402
    eigenvectors:
  0.000  0.000  1.000  0.000  0.000
  0.783  0.139  0.000  0.012  0.067
  0.139  0.783  0.000  0.067  0.012
  0.012  0.067  0.000  0.780  0.141
  0.067  0.012  0.000  0.141  0.780
    occupations:
  0.381  0.000  0.000  0.000  0.000
  0.000  0.360  0.000  0.000  0.012
  0.000  0.000  0.360  0.012  0.000
  0.000  0.000  0.012  0.398  0.000
  0.000  0.012  0.000  0.000  0.398
atom    5   Tr[ns(na)] =   5.43625
    eigenvalues: 
  0.839  0.931  0.948
    eigenvectors:
  0.337  0.000  0.663
  0.500  0.247  0.253
  0.163  0.753  0.084
    occupations:
  0.912  0.045  0.026
  0.045  0.889 -0.024
  0.026 -0.024  0.917
atom    6   Tr[ns(na)] =   5.43625
    eigenvalues: 
  0.839  0.931  0.948
    eigenvectors:
  0.337  0.000  0.663
  0.000  1.000  0.000
  0.663  0.000  0.337
    occupations:
  0.912  0.000 -0.052
  0.000  0.931  0.000
 -0.052  0.000  0.876
atom    7   Tr[ns(na)] =   5.43625
    eigenvalues: 
  0.839  0.931  0.948
    eigenvectors:
  0.337  0.000  0.663
  0.495  0.253  0.252
  0.169  0.747  0.085
    occupations:
  0.912 -0.045  0.026
 -0.045  0.890  0.024
  0.026  0.024  0.917
atom    8   Tr[ns(na)] =   5.43625
    eigenvalues: 
  0.839  0.931  0.948
    eigenvectors:
  0.337  0.000  0.663
  0.000  1.000  0.000
  0.663  0.000  0.337
    occupations:
  0.912  0.000 -0.052
  0.000  0.931  0.000
 -0.052  0.000  0.876
atom    9   Tr[ns(na)] =   5.43625
    eigenvalues: 
  0.839  0.931  0.948
    eigenvectors:
  0.337  0.000  0.663
  0.500  0.247  0.253
  0.163  0.753  0.084
    occupations:
  0.912  0.045  0.026
  0.045  0.889 -0.024
  0.026 -0.024  0.917
atom   10   Tr[ns(na)] =   5.43625
    eigenvalues: 
  0.839  0.931  0.948
    eigenvectors:
  0.337  0.000  0.663
  0.495  0.253  0.252
  0.169  0.747  0.085
    occupations:
  0.912 -0.045  0.026
 -0.045  0.890  0.024
  0.026  0.024  0.917
N of occupied +U levels =  56.2813914
 --- exit write_ns ---
 --- in v_hubbard ---
Hubbard energy    0.5348
 -------

     total cpu time spent up to now is      250.7 secs

     End of self-consistent calculation

          k = 0.0000 0.0000 0.0000 (  2175 PWs)   bands (ev):

   -19.7863 -19.6130  -6.5454  -5.8591  -5.8591  -5.8174  -5.8174  -5.4781
    -3.8924  -3.2754  -3.2754  -3.2490  -3.0150  -3.0150   5.1628   6.2057
     6.2057   6.2533   6.6776   6.6776   7.5112   7.5112   7.7090   7.7395
     8.0702   8.0702   9.3035   9.6321   9.6321   9.9873   9.9873  10.1597
    10.4640  10.4640  10.6805  10.7144  10.7144  11.0078  11.8510  11.8510
    14.7068  14.7068  15.4385  15.4385  16.2059  16.7929

     occupation numbers 
     0.0313   0.0313   0.0313   0.0313   0.0313   0.0313   0.0313   0.0313
     0.0313   0.0313   0.0313   0.0313   0.0313   0.0313   0.0313   0.0313
     0.0313   0.0313   0.0313   0.0313   0.0313   0.0313   0.0313   0.0313
     0.0313   0.0313   0.0312   0.0312   0.0312   0.0312   0.0312   0.0312
     0.0312   0.0312   0.0311   0.0310   0.0310   0.0290   0.0022   0.0022
     0.0000   0.0000   0.0000   0.0000   0.0000   0.0000

          k =-0.2471-0.1427 0.1027 (  2181 PWs)   bands (ev):

   -19.7622 -19.6568  -6.7230  -6.2979  -5.9562  -5.8466  -5.6036  -5.4722
    -3.6610  -3.4191  -2.9419  -2.9021  -2.8705  -2.7628   5.4618   5.9673
     6.2511   6.3087   6.6210   6.6627   6.9194   7.3156   7.4473   7.5875
     7.6665   7.9342   9.3449   9.5042   9.7047   9.8543   9.8910   9.9809
    10.2006  10.3735  10.4059  10.6724  10.7871  10.8275  12.2748  12.3485
    14.2575  14.2692  15.8248  16.0788  16.9783  17.2729

     occupation numbers 
     0.1875   0.1875   0.1875   0.1875   0.1875   0.1875   0.1875   0.1875
     0.1875   0.1875   0.1875   0.1875   0.1875   0.1875   0.1875   0.1875
     0.1875   0.1875   0.1875   0.1875   0.1875   0.1875   0.1875   0.1875
     0.1875   0.1875   0.1875   0.1875   0.1875   0.1875   0.1875   0.1875
     0.1875   0.1875   0.1875   0.1867   0.1850   0.1840   0.0003   0.0001
     0.0000   0.0000   0.0000   0.0000   0.0000   0.0000

          k = 0.4942 0.2853-0.2053 (  2202 PWs)   bands (ev):

   -19.7203 -19.7188  -6.7228  -6.7091  -5.9674  -5.9497  -5.5210  -5.5014
    -3.4069  -3.4065  -2.7998  -2.7975  -2.4992  -2.4973   5.6519   5.6669
     6.3782   6.3983   6.5667   6.5893   6.8866   6.8928   7.2876   7.3107
     7.4306   7.4522   9.3294   9.3456   9.7572   9.7690  10.0167  10.0306
    10.1232  10.1369  10.3636  10.3803  10.5943  10.6068  13.2468  13.2962
    13.3306  13.3796  16.8390  16.8442  17.1327  17.1373

     occupation numbers 
     0.0938   0.0938   0.0938   0.0938   0.0938   0.0938   0.0938   0.0938
     0.0938   0.0938   0.0938   0.0938   0.0938   0.0938   0.0938   0.0938
     0.0938   0.0938   0.0938   0.0938   0.0938   0.0938   0.0938   0.0938
     0.0938   0.0938   0.0937   0.0937   0.0937   0.0937   0.0937   0.0937
     0.0937   0.0937   0.0937   0.0937   0.0936   0.0935   0.0000   0.0000
     0.0000   0.0000   0.0000   0.0000   0.0000   0.0000

          k =-0.2471 0.1427 0.2053 (  2195 PWs)   bands (ev):

   -19.7536 -19.6718  -6.8456  -6.2434  -6.0717  -5.8256  -5.6473  -5.4577
    -3.4552  -3.2721  -3.1166  -2.9082  -2.8398  -2.5502   5.5199   5.6631
     6.1213   6.3256   6.6206   6.9655   7.0467   7.2993   7.3056   7.5332
     7.7284   8.0194   8.7240   9.2964   9.6994   9.8302   9.9645   9.9651
    10.2534  10.4367  10.5790  10.6538  10.7341  10.7372  11.7906  12.7003
    13.5945  14.7259  16.0029  16.2052  17.0422  17.5429

     occupation numbers 
     0.1875   0.1875   0.1875   0.1875   0.1875   0.1875   0.1875   0.1875
     0.1875   0.1875   0.1875   0.1875   0.1875   0.1875   0.1875   0.1875
     0.1875   0.1875   0.1875   0.1875   0.1875   0.1875   0.1875   0.1875
     0.1875   0.1875   0.1875   0.1875   0.1875   0.1875   0.1875   0.1875
     0.1875   0.1874   0.1872   0.1868   0.1860   0.1859   0.0195   0.0000
     0.0000   0.0000   0.0000   0.0000   0.0000   0.0000

          k = 0.4942 0.5706-0.1027 (  2198 PWs)   bands (ev):

   -19.7276 -19.7173  -6.9466  -6.6421  -6.1220  -5.8820  -5.5043  -5.3759
    -3.3307  -3.2645  -2.8773  -2.7077  -2.5240  -2.3794   5.4101   5.8137
     5.9564   6.4541   6.4867   6.6077   6.6956   7.0593   7.2918   7.3750
     7.8063   7.9406   8.7898   9.1175   9.4533   9.6846   9.7006  10.0153
    10.2309  10.3252  10.3404  10.4614  10.6439  10.8231  12.2691  12.7058
    13.3903  14.3098  16.9124  17.1215  17.3131  18.0221

     occupation numbers 
     0.1875   0.1875   0.1875   0.1875   0.1875   0.1875   0.1875   0.1875
     0.1875   0.1875   0.1875   0.1875   0.1875   0.1875   0.1875   0.1875
     0.1875   0.1875   0.1875   0.1875   0.1875   0.1875   0.1875   0.1875
     0.1875   0.1875   0.1875   0.1875   0.1875   0.1875   0.1875   0.1875
     0.1875   0.1875   0.1875   0.1874   0.1869   0.1841   0.0003   0.0000
     0.0000   0.0000   0.0000   0.0000   0.0000   0.0000

          k = 0.2471 0.4280 0.0000 (  2203 PWs)   bands (ev):

   -19.7406 -19.6977  -6.8410  -6.6370  -6.0494  -5.9695  -5.4299  -5.3569
    -3.5708  -3.3004  -2.7987  -2.7016  -2.5748  -2.5619   5.5859   5.7487
     6.1963   6.3070   6.5200   6.5908   6.8383   6.9650   7.2606   7.4132
     7.4425   8.1854   8.8728   9.2858   9.6595   9.7160   9.8831  10.0816
    10.1969  10.2622  10.3483  10.4315  10.4966  10.8986  12.1758  13.2794
    13.3626  14.1056  16.4398  17.0030  17.4262  17.9329

     occupation numbers 
     0.1875   0.1875   0.1875   0.1875   0.1875   0.1875   0.1875   0.1875
     0.1875   0.1875   0.1875   0.1875   0.1875   0.1875   0.1875   0.1875
     0.1875   0.1875   0.1875   0.1875   0.1875   0.1875   0.1875   0.1875
     0.1875   0.1875   0.1875   0.1875   0.1875   0.1875   0.1875   0.1875
     0.1875   0.1875   0.1875   0.1874   0.1874   0.1812   0.0009   0.0000
     0.0000   0.0000   0.0000   0.0000   0.0000   0.0000

          k = 0.4942-0.2853-0.4107 (  2202 PWs)   bands (ev):

   -19.7302 -19.7204  -7.1547  -6.4456  -6.2314  -5.9560  -5.5257  -5.2792
    -3.2159  -3.1084  -3.0606  -2.6399  -2.4715  -2.2139   5.0290   5.6811
     5.7901   6.4197   6.5345   6.9630   7.0613   7.1401   7.1465   7.2559
     8.0323   8.1717   8.2999   8.6111   9.4216   9.6819  10.0374  10.0693
    10.1011  10.2352  10.3272  10.5779  10.5921  10.9334  11.7498  12.3746
    13.2947  14.7412  17.0530  17.2766  17.5254  17.6199

     occupation numbers 
     0.0938   0.0938   0.0938   0.0938   0.0938   0.0938   0.0938   0.0938
     0.0938   0.0938   0.0938   0.0938   0.0938   0.0938   0.0938   0.0938
     0.0938   0.0938   0.0938   0.0938   0.0938   0.0938   0.0938   0.0938
     0.0938   0.0938   0.0938   0.0938   0.0937   0.0937   0.0937   0.0937
     0.0937   0.0937   0.0937   0.0936   0.0936   0.0897   0.0124   0.0000
     0.0000   0.0000   0.0000   0.0000   0.0000   0.0000

          k = 0.0000 0.0000 0.3080 (  2187 PWs)   bands (ev):

   -19.7618 -19.6591  -6.6113  -5.9876  -5.9427  -5.9427  -5.8326  -5.8326
    -3.2321  -3.1555  -3.1555  -2.9701  -2.8921  -2.8921   5.5879   5.9551
     6.2554   6.2554   6.6901   6.6901   6.9435   7.4359   7.4359   7.7215
     7.7215   7.7951   9.4250   9.4250   9.4456   9.6846  10.0868  10.0868
    10.1041  10.1041  10.4589  10.7281  10.7637  10.7637  12.2465  12.2465
    14.2191  14.2191  15.9205  15.9205  16.8833  17.4871

     occupation numbers 
     0.0625   0.0625   0.0625   0.0625   0.0625   0.0625   0.0625   0.0625
     0.0625   0.0625   0.0625   0.0625   0.0625   0.0625   0.0625   0.0625
     0.0625   0.0625   0.0625   0.0625   0.0625   0.0625   0.0625   0.0625
     0.0625   0.0625   0.0625   0.0625   0.0625   0.0625   0.0625   0.0625
     0.0625   0.0625   0.0625   0.0620   0.0618   0.0618   0.0001   0.0001
     0.0000   0.0000   0.0000   0.0000   0.0000   0.0000

          k = 0.7412 0.4280 0.0000 (  2204 PWs)   bands (ev):

   -19.7397 -19.7006  -6.7264  -6.6021  -6.1341  -5.8272  -5.6855  -5.5384
    -3.2069  -3.1005  -3.0419  -2.6739  -2.6630  -2.5801   5.6800   5.8221
     6.0713   6.4533   6.4798   6.7227   6.8122   6.9600   7.3175   7.3862
     7.5630   8.0069   8.8500   9.3922   9.4011   9.6595   9.8239  10.0798
    10.2344  10.2452  10.4650  10.4739  10.5239  10.6106  12.1734  13.1991
    13.2793  14.1350  16.6915  16.7342  17.5952  17.8017

     occupation numbers 
     0.1875   0.1875   0.1875   0.1875   0.1875   0.1875   0.1875   0.1875
     0.1875   0.1875   0.1875   0.1875   0.1875   0.1875   0.1875   0.1875
     0.1875   0.1875   0.1875   0.1875   0.1875   0.1875   0.1875   0.1875
     0.1875   0.1875   0.1875   0.1875   0.1875   0.1875   0.1875   0.1875
     0.1875   0.1875   0.1874   0.1874   0.1873   0.1871   0.0009   0.0000
     0.0000   0.0000   0.0000   0.0000   0.0000   0.0000

          k = 0.4942 0.2853 0.1027 (  2211 PWs)   bands (ev):

   -19.7290 -19.7159  -6.9631  -6.5364  -6.3171  -5.6930  -5.6157  -5.3447
    -3.3453  -3.1659  -3.0466  -2.5960  -2.5613  -2.3702   5.4285   5.8631
     5.8814   6.2750   6.5315   6.7647   6.8654   6.8828   7.2587   7.3059
     7.8787   7.9723   8.7591   9.2676   9.3368   9.5961   9.8513   9.9015
    10.2945  10.3029  10.4737  10.5468  10.5981  10.6464  12.2252  12.7195
    13.4375  14.2913  16.8927  16.9415  17.5841  17.9342

     occupation numbers 
     0.1875   0.1875   0.1875   0.1875   0.1875   0.1875   0.1875   0.1875
     0.1875   0.1875   0.1875   0.1875   0.1875   0.1875   0.1875   0.1875
     0.1875   0.1875   0.1875   0.1875   0.1875   0.1875   0.1875   0.1875
     0.1875   0.1875   0.1875   0.1875   0.1875   0.1875   0.1875   0.1875
     0.1875   0.1875   0.1874   0.1873   0.1871   0.1869   0.0005   0.0000
     0.0000   0.0000   0.0000   0.0000   0.0000   0.0000

          k = 0.7412-0.4280-0.3080 (  2210 PWs)   bands (ev):

   -19.7286 -19.7183  -6.8989  -6.4476  -6.2953  -5.7892  -5.7541  -5.4793
    -3.0783  -3.0620  -2.9663  -2.7300  -2.6212  -2.4212   5.4866   5.9216
     5.9779   6.2975   6.5428   6.6477   6.8721   6.9856   7.2961   7.3569
     7.8616   7.9453   8.7020   9.1992   9.3918   9.4681   9.6416  10.0263
    10.2359  10.2658  10.3871  10.5245  10.6456  10.6801  12.1865  12.6740
    13.3872  14.2614  17.0673  17.0772  17.5519  17.9084

     occupation numbers 
     0.1875   0.1875   0.1875   0.1875   0.1875   0.1875   0.1875   0.1875
     0.1875   0.1875   0.1875   0.1875   0.1875   0.1875   0.1875   0.1875
     0.1875   0.1875   0.1875   0.1875   0.1875   0.1875   0.1875   0.1875
     0.1875   0.1875   0.1875   0.1875   0.1875   0.1875   0.1875   0.1875
     0.1875   0.1875   0.1875   0.1873   0.1869   0.1866   0.0008   0.0000
     0.0000   0.0000   0.0000   0.0000   0.0000   0.0000

          k = 0.4942-0.5706-0.2053 (  2206 PWs)   bands (ev):

   -19.7259 -19.7258  -6.8804  -6.8605  -6.0279  -6.0269  -5.4201  -5.4130
    -3.1577  -3.1565  -2.8191  -2.8177  -2.3760  -2.3728   5.6893   5.6934
     5.8926   5.9038   6.6182   6.6220   6.8170   6.8293   7.2838   7.2925
     8.1621   8.1637   8.7696   8.7746   9.4225   9.4240   9.9016   9.9068
    10.2169  10.2227  10.3629  10.3674  10.7096  10.7101  12.2268  12.2377
    13.9586  13.9685  17.4322  17.4329  17.8770  17.8795

     occupation numbers 
     0.1875   0.1875   0.1875   0.1875   0.1875   0.1875   0.1875   0.1875
     0.1875   0.1875   0.1875   0.1875   0.1875   0.1875   0.1875   0.1875
     0.1875   0.1875   0.1875   0.1875   0.1875   0.1875   0.1875   0.1875
     0.1875   0.1875   0.1875   0.1875   0.1875   0.1875   0.1875   0.1875
     0.1875   0.1875   0.1875   0.1875   0.1863   0.1863   0.0005   0.0005
     0.0000   0.0000   0.0000   0.0000   0.0000   0.0000

          k = 0.0000 0.0000-0.6160 (  2186 PWs)   bands (ev):

   -19.7223 -19.7208  -6.5127  -6.4956  -5.9455  -5.9455  -5.9272  -5.9272
    -2.9034  -2.9034  -2.9006  -2.9006  -2.6968  -2.6967   5.8685   5.8861
     6.4679   6.4679   6.4898   6.4898   6.8710   6.8737   7.3911   7.3911
     7.4158   7.4158   9.5184   9.5184   9.5318   9.5318   9.5876   9.6008
    10.3019  10.3136  10.4429  10.4429  10.4572  10.4572  13.1860  13.1860
    13.2357  13.2357  17.1223  17.1223  17.1248  17.1248

     occupation numbers 
     0.0313   0.0313   0.0313   0.0313   0.0313   0.0313   0.0313   0.0313
     0.0313   0.0313   0.0313   0.0313   0.0313   0.0313   0.0313   0.0313
     0.0313   0.0313   0.0313   0.0313   0.0313   0.0313   0.0313   0.0313
     0.0313   0.0313   0.0312   0.0312   0.0312   0.0312   0.0312   0.0312
     0.0312   0.0312   0.0312   0.0312   0.0312   0.0312   0.0000   0.0000
     0.0000   0.0000   0.0000   0.0000   0.0000   0.0000

          k = 0.4942-0.5706 0.1027 (  2198 PWs)   bands (ev):

   -19.7276 -19.7173  -6.9463  -6.6390  -6.1267  -5.8861  -5.5034  -5.3707
    -3.3307  -3.2646  -2.8785  -2.7074  -2.5245  -2.3784   5.4121   5.8056
     5.9577   6.4627   6.4805   6.6211   6.6825   7.0636   7.2886   7.3763
     7.8140   7.9346   8.7897   9.1190   9.4506   9.6799   9.7004  10.0145
    10.2338  10.3259  10.3405  10.4624  10.6459  10.8216  12.2688  12.7058
    13.3906  14.3091  16.9144  17.1185  17.3137  18.0219

     occupation numbers 
     0.1875   0.1875   0.1875   0.1875   0.1875   0.1875   0.1875   0.1875
     0.1875   0.1875   0.1875   0.1875   0.1875   0.1875   0.1875   0.1875
     0.1875   0.1875   0.1875   0.1875   0.1875   0.1875   0.1875   0.1875
     0.1875   0.1875   0.1875   0.1875   0.1875   0.1875   0.1875   0.1875
     0.1875   0.1875   0.1875   0.1874   0.1869   0.1841   0.0003   0.0000
     0.0000   0.0000   0.0000   0.0000   0.0000   0.0000

     the Fermi energy is    11.4271 ev

!    total energy              =    -537.75968309 Ry
     Harris-Foulkes estimate   =    -537.75967643 Ry
     estimated scf accuracy    <          8.6E-10 Ry

     The total energy is the sum of the following terms:

     one-electron contribution =     -32.86167995 Ry
     hartree contribution      =      83.63081494 Ry
     xc contribution           =    -199.61654042 Ry
     ewald contribution        =    -389.44315552 Ry
     Hubbard energy            =       0.53482747 Ry
     smearing contrib. (-TS)   =      -0.00394962 Ry

     convergence has been achieved in  15 iterations

     init_run     :      7.94s CPU      8.02s WALL (       1 calls)
     electrons    :    240.70s CPU    242.06s WALL (       1 calls)

     Called by init_run:
     wfcinit      :      0.00s CPU      0.00s WALL (       1 calls)
     potinit      :      0.33s CPU      0.35s WALL (       1 calls)

     Called by electrons:
     c_bands      :    159.41s CPU    159.96s WALL (      15 calls)
     sum_band     :     47.46s CPU     47.76s WALL (      15 calls)
     v_of_rho     :      4.14s CPU      4.15s WALL (      16 calls)
     v_h          :      0.24s CPU      0.24s WALL (      16 calls)
     v_xc         :      3.90s CPU      3.91s WALL (      16 calls)
     newd         :     31.04s CPU     31.08s WALL (      16 calls)
     mix_rho      :      0.44s CPU      0.44s WALL (      15 calls)

     Called by c_bands:
     init_us_2    :      1.63s CPU      1.62s WALL (     420 calls)
     cegterg      :    154.92s CPU    155.26s WALL (     210 calls)

     Called by sum_band:
     sum_band:bec :      0.16s CPU      0.16s WALL (     210 calls)
     addusdens    :     20.79s CPU     20.80s WALL (      15 calls)

     Called by *egterg:
     h_psi        :    118.17s CPU    118.47s WALL (     805 calls)
     s_psi        :      6.50s CPU      6.50s WALL (     805 calls)
     g_psi        :      0.52s CPU      0.53s WALL (     595 calls)
     cdiaghg      :      9.81s CPU      9.82s WALL (     791 calls)
     cegterg:over :      7.41s CPU      7.40s WALL (     595 calls)
     cegterg:upda :      4.95s CPU      4.95s WALL (     595 calls)
     cegterg:last :      3.44s CPU      3.44s WALL (     236 calls)

     Called by h_psi:
     h_psi:vloc   :     97.19s CPU     97.44s WALL (     805 calls)
     h_psi:vnl    :     13.06s CPU     13.09s WALL (     805 calls)
     add_vuspsi   :      6.50s CPU      6.53s WALL (     805 calls)
     vhpsi        :      7.64s CPU      7.65s WALL (     805 calls)

     General routines
     calbec       :     13.49s CPU     13.50s WALL (    2030 calls)
     fft          :      2.78s CPU      2.80s WALL (     251 calls)
     ffts         :      0.09s CPU      0.09s WALL (      31 calls)
     fftw         :     91.36s CPU     91.45s WALL (   60428 calls)
     interpolate  :      0.49s CPU      0.49s WALL (      31 calls)
     davcio       :      0.01s CPU      0.43s WALL (     434 calls)

     Parallel routines
     fft_scatter  :     24.32s CPU     24.55s WALL (   60710 calls)
     Hubbard U routines
     new_ns       :      1.33s CPU      1.54s WALL (      15 calls)
     vhpsi        :      7.64s CPU      7.65s WALL (     805 calls)

     PWSCF        :  4m 9.26s CPU     4m10.74s WALL


   This run was terminated on:   5:51:41  13Nov2012            

=------------------------------------------------------------------------------=
