   JOB DONE.
=------------------------------------------------------------------------------=

     Program PWSCF v.5.0.1 starts on 11Nov2012 at 14:54:37 

     This program is part of the open-source Quantum ESPRESSO suite
     for quantum simulation of materials; please cite
         "P. Giannozzi et al., J. Phys.:Condens. Matter 21 395502 (2009);
          URL http://www.quantum-espresso.org", 
     in publications or presentations arising from this work. More details at
     http://www.quantum-espresso.org/quote.php

     Parallel version (MPI), running on     2 processors
     R & G space division:  proc/pool =    2

     Current dimensions of program PWSCF are:
     Max number of different atomic species (ntypx) = 10
     Max number of k-points (npk) =  40000
     Max angular momentum in pseudopotentials (lmaxx) =  3
     Reading input from CoLaO_U100_a15.in
               file Co.pbe-nd-rrkjus.UPF: wavefunction(s)  4S 3D renormalized
               file O.pbe-rrkjus.UPF: wavefunction(s)  2S renormalized

     Subspace diagonalization in iterative solution of the eigenvalue problem:
     a serial algorithm will be used


     Parallelization info
     --------------------
     sticks:   dense  smooth     PW     G-vecs:    dense   smooth      PW
     Min        1112     444    131                34808     8786    1448
     Max        1113     445    132                34809     8787    1449
     Sum        2225     889    263                69617    17573    2897


     Title: 
     GGA + U, U = 1.000, alpha = 0.150                                          


     bravais-lattice index     =            5
     lattice parameter (alat)  =      10.3292  a.u.
     unit-cell volume          =     793.0599 (a.u.)^3
     number of atoms/cell      =           10
     number of atomic types    =            4
     number of electrons       =        76.00
     number of Kohn-Sham states=           46
     kinetic-energy cutoff     =      30.0000  Ry
     charge density cutoff     =     300.0000  Ry
     convergence threshold     =      1.0E-08
     mixing beta               =       0.2000
     number of iterations used =            8  plain     mixing
     Exchange-correlation      =  SLA  PW   PBE  PBE ( 1 4 3 4 0)
     EXX-fraction              =        0.00

     celldm(1)=  10.329242  celldm(2)=   0.000000  celldm(3)=   0.000000
     celldm(4)=   0.488100  celldm(5)=   0.000000  celldm(6)=   0.000000

     crystal axes: (cart. coord. in units of alat)
               a(1) = (   0.505915  -0.292090   0.811624 )  
               a(2) = (   0.000000   0.584180   0.811624 )  
               a(3) = (  -0.505915  -0.292090   0.811624 )  

     reciprocal axes: (cart. coord. in units 2 pi/alat)
               b(1) = (  0.988308 -0.570600  0.410699 )  
               b(2) = (  0.000000  1.141200  0.410699 )  
               b(3) = ( -0.988308 -0.570600  0.410699 )  


     PseudoPot. # 1 for Co read from file:
     /home/mcurnan/dft-course/Project1/example_LaCoO3/Co.pbe-nd-rrkjus.UPF
     MD5 check sum: 3e47a84addf5e975e0edeaeee2a73f59
     Pseudo is Ultrasoft + core correction, Zval =  9.0
     Generated by new atomic code, or converted to UPF format
     Using radial grid of  961 points,  6 beta functions with: 
                l(1) =   0
                l(2) =   0
                l(3) =   1
                l(4) =   1
                l(5) =   2
                l(6) =   2
     Q(r) pseudized with 0 coefficients 


     PseudoPot. # 2 for La read from file:
     /home/mcurnan/dft-course/Project1/example_LaCoO3/La.pbe-nsp-van.UPF
     MD5 check sum: b2f11743f52dde65f77d1302becd7929
     Pseudo is Ultrasoft + core correction, Zval = 11.0
     Generated by new atomic code, or converted to UPF format
     Using radial grid of  907 points,  6 beta functions with: 
                l(1) =   0
                l(2) =   0
                l(3) =   1
                l(4) =   1
                l(5) =   2
                l(6) =   2
     Q(r) pseudized with  6 coefficients,  rinner =    1.200   1.200   1.200
                                                       1.200   1.200

     PseudoPot. # 3 for La read from file:
     /home/mcurnan/dft-course/Project1/example_LaCoO3/La.pbe-nsp-van.UPF
     MD5 check sum: b2f11743f52dde65f77d1302becd7929
     Pseudo is Ultrasoft + core correction, Zval = 11.0
     Generated by new atomic code, or converted to UPF format
     Using radial grid of  907 points,  6 beta functions with: 
                l(1) =   0
                l(2) =   0
                l(3) =   1
                l(4) =   1
                l(5) =   2
                l(6) =   2
     Q(r) pseudized with  6 coefficients,  rinner =    1.200   1.200   1.200
                                                       1.200   1.200

     PseudoPot. # 4 for O  read from file:
     /home/mcurnan/dft-course/Project1/example_LaCoO3/O.pbe-rrkjus.UPF
     MD5 check sum: 390ba29e75625707450f3bd3f0eb6be9
     Pseudo is Ultrasoft, Zval =  6.0
     Generated by new atomic code, or converted to UPF format
     Using radial grid of 1269 points,  4 beta functions with: 
                l(1) =   0
                l(2) =   0
                l(3) =   1
                l(4) =   1
     Q(r) pseudized with 0 coefficients 


     atomic species   valence    mass     pseudopotential
        Co1            9.00     1.00000     Co( 1.00)
        La1           11.00     1.00000     La( 1.00)
        La2           11.00     1.00000     La( 1.00)
        O1             6.00     1.00000     O ( 1.00)
 -----
     simplified LDA+U calculation, Hubbard_lmax = 2
     atomic species  L   Hubbard U  Hubbard alpha
        Co1          2    1.000000    0.000000
        La1          2    0.000000    0.150000
        La2          2    0.000000    0.000000
        O1           1    0.000000    0.000000
 -----

      3 Sym. Ops. (no inversion) found


                                    s                        frac. trans.

      isym =  1     identity                                     

 cryst.   s( 1) = (     1          0          0      )
                  (     0          1          0      )
                  (     0          0          1      )

 cart.    s( 1) = (  1.0000000  0.0000000  0.0000000 )
                  (  0.0000000  1.0000000  0.0000000 )
                  (  0.0000000  0.0000000  1.0000000 )


      isym =  2     120 deg rotation - cryst. axis [0,0,1]       

 cryst.   s( 2) = (     0          1          0      )
                  (     0          0          1      )
                  (     1          0          0      )

 cart.    s( 2) = ( -0.5000000 -0.8660254  0.0000000 )
                  (  0.8660254 -0.5000000  0.0000000 )
                  (  0.0000000  0.0000000  1.0000000 )


      isym =  3     120 deg rotation - cryst. axis [0,0,-1]      

 cryst.   s( 3) = (     0          0          1      )
                  (     1          0          0      )
                  (     0          1          0      )

 cart.    s( 3) = ( -0.5000000  0.8660254  0.0000000 )
                  ( -0.8660254 -0.5000000  0.0000000 )
                  (  0.0000000  0.0000000  1.0000000 )


     point group C_3 (3)    
     there are  3 classes
     the character table:

       E     C3    C3^2 
A      1.00  1.00  1.00
E      1.00 -0.50 -0.50
E*     1.00 -0.50 -0.50
     imaginary part
A      0.00  0.00  0.00
E      0.00  0.87 -0.87
E*     0.00 -0.87  0.87

     the symmetry operations in each class:
     E        1
     C3       2
     C3^2     3

   Cartesian axes

     site n.     atom                  positions (alat units)
         1           Co1 tau(   1) = (   0.0000000   0.0000000   1.8261537  )
         2           Co1 tau(   2) = (   0.0000000   0.0000000   0.6087179  )
         3           La1 tau(   3) = (   0.0000000   0.0000000   0.0000000  )
         4           La2 tau(   4) = (   0.0000000   0.0000000   1.2174358  )
         5           O1  tau(   5) = (   0.2831100  -0.0928263   1.6236536  )
         6           O1  tau(   6) = (  -0.2219449  -0.1987674   1.6236536  )
         7           O1  tau(   7) = (  -0.0611651   0.2915936   1.6236536  )
         8           O1  tau(   8) = (   0.2228050   0.3849164   1.2170300  )
         9           O1  tau(   9) = (   0.2219449  -0.3854130   1.2170300  )
        10           O1  tau(  10) = (  -0.4447499   0.0004966   1.2170300  )

   Crystallographic axes

     site n.     atom                  positions (cryst. coord.)
         1           Co1 tau(   1) = (  0.7500000  0.7500000  0.7500000  )
         2           Co1 tau(   2) = (  0.2500000  0.2500000  0.2500000  )
         3           La1 tau(   3) = (  0.0000000  0.0000000  0.0000000  )
         4           La2 tau(   4) = (  0.5000000  0.5000000  0.5000000  )
         5           O1  tau(   5) = (  0.9996000  0.5609000  0.4400000  )
         6           O1  tau(   6) = (  0.5609000  0.4400000  0.9996000  )
         7           O1  tau(   7) = (  0.4400000  0.9996000  0.5609000  )
         8           O1  tau(   8) = (  0.5004000  0.9391000  0.0600000  )
         9           O1  tau(   9) = (  0.9391000  0.0600000  0.5004000  )
        10           O1  tau(  10) = (  0.0600000  0.5004000  0.9391000  )

     number of k points=    14  gaussian smearing, width (Ry)=  0.0300
                       cart. coord. in units 2pi/alat
        k(    1) = (   0.0000000   0.0000000   0.0000000), wk =   0.0312500
        k(    2) = (  -0.2470771  -0.1426500   0.1026748), wk =   0.1875000
        k(    3) = (   0.4941541   0.2853000  -0.2053496), wk =   0.0937500
        k(    4) = (  -0.2470771   0.1426500   0.2053496), wk =   0.1875000
        k(    5) = (   0.4941541   0.5706001  -0.1026748), wk =   0.1875000
        k(    6) = (   0.2470771   0.4279500   0.0000000), wk =   0.1875000
        k(    7) = (   0.4941541  -0.2853000  -0.4106993), wk =   0.0937500
        k(    8) = (   0.0000000   0.0000000   0.3080244), wk =   0.0625000
        k(    9) = (   0.7412312   0.4279500   0.0000000), wk =   0.1875000
        k(   10) = (   0.4941541   0.2853000   0.1026748), wk =   0.1875000
        k(   11) = (   0.7412312  -0.4279500  -0.3080244), wk =   0.1875000
        k(   12) = (   0.4941541  -0.5706001  -0.2053496), wk =   0.1875000
        k(   13) = (   0.0000000   0.0000000  -0.6160489), wk =   0.0312500
        k(   14) = (   0.4941541  -0.5706001   0.1026748), wk =   0.1875000

                       cryst. coord.
        k(    1) = (   0.0000000   0.0000000   0.0000000), wk =   0.0312500
        k(    2) = (   0.0000000   0.0000000   0.2500000), wk =   0.1875000
        k(    3) = (   0.0000000   0.0000000  -0.5000000), wk =   0.0937500
        k(    4) = (   0.0000000   0.2500000   0.2500000), wk =   0.1875000
        k(    5) = (   0.0000000   0.2500000  -0.5000000), wk =   0.1875000
        k(    6) = (   0.0000000   0.2500000  -0.2500000), wk =   0.1875000
        k(    7) = (   0.0000000  -0.5000000  -0.5000000), wk =   0.0937500
        k(    8) = (   0.2500000   0.2500000   0.2500000), wk =   0.0625000
        k(    9) = (   0.2500000   0.2500000  -0.5000000), wk =   0.1875000
        k(   10) = (   0.2500000   0.2500000  -0.2500000), wk =   0.1875000
        k(   11) = (   0.2500000  -0.5000000  -0.5000000), wk =   0.1875000
        k(   12) = (   0.2500000  -0.5000000  -0.2500000), wk =   0.1875000
        k(   13) = (  -0.5000000  -0.5000000  -0.5000000), wk =   0.0312500
        k(   14) = (   0.5000000  -0.2500000   0.0000000), wk =   0.1875000

     Dense  grid:    69617 G-vectors     FFT dimensions: (  60,  60,  60)

     Smooth grid:    17573 G-vectors     FFT dimensions: (  40,  40,  40)

     Largest allocated arrays     est. size (Mb)     dimensions
        Kohn-Sham Wavefunctions         0.78 Mb     (   1117,   46)
        Atomic wavefunctions            1.06 Mb     (   1117,   62)
        NL pseudopotentials             2.05 Mb     (   1117,  120)
        Each V/rho on FFT grid          1.65 Mb     ( 108000)
        Each G-vector array             0.27 Mb     (  34808)
        G-vector shells                 0.04 Mb     (   4682)
     Largest temporary arrays     est. size (Mb)     dimensions
        Auxiliary wavefunctions         3.14 Mb     (   1117,  184)
        Each subspace H/S matrix        0.52 Mb     ( 184, 184)
        Each <psi_i|beta_j> matrix      0.08 Mb     (    120,   46)
        Arrays for rho mixing          13.18 Mb     ( 108000,   8)

     Check: negative/imaginary core charge=   -0.000028    0.000000

     The initial density is read from file :
     /home/mcurnan/dft-course/Project1/example_LaCoO3/100/La/alpha/CoLaO_U100.save/charge-density.dat

 --- in v_hubbard ---
Hubbard energy    0.1376
 -------
     Number of +U iterations with fixed ns =  0
     Starting occupations:
 --- enter write_ns ---
 LDA+U parameters:
U( 1)     =  1.00000000
alpha( 1) =  0.00000000
U( 2)     =  0.00000000
alpha( 2) =  0.15000000
U( 3)     =  0.00000000
alpha( 3) =  0.00000000
U( 4)     =  0.00000000
alpha( 4) =  0.00000000
atom    1   Tr[ns(na)] =   8.02205
    eigenvalues: 
  0.596  0.596  0.938  0.941  0.941
    eigenvectors:
  0.000  0.000  1.000  0.000  0.000
  0.334  0.321  0.000  0.004  0.341
  0.321  0.334  0.000  0.341  0.004
  0.288  0.057  0.000  0.515  0.140
  0.057  0.288  0.000  0.140  0.515
    occupations:
  0.938  0.000  0.000  0.000  0.000
  0.000  0.715  0.000 -0.060  0.152
  0.000  0.000  0.715  0.152  0.060
  0.000 -0.060  0.152  0.822  0.000
  0.000  0.152  0.060  0.000  0.822
atom    2   Tr[ns(na)] =   8.02143
    eigenvalues: 
  0.595  0.595  0.938  0.941  0.941
    eigenvectors:
  0.000  0.000  1.000  0.000  0.000
  0.638  0.017  0.000  0.223  0.122
  0.017  0.638  0.000  0.122  0.223
  0.015  0.330  0.000  0.470  0.185
  0.330  0.015  0.000  0.185  0.470
    occupations:
  0.938  0.000  0.000  0.000  0.000
  0.000  0.715  0.000  0.060  0.153
  0.000  0.000  0.715  0.153 -0.060
  0.000  0.060  0.153  0.822  0.000
  0.000  0.153 -0.060  0.000  0.822
atom    3   Tr[ns(na)] =   3.80283
    eigenvalues: 
  0.355  0.355  0.384  0.403  0.403
    eigenvectors:
  0.000  0.000  1.000  0.000  0.000
  0.781  0.140  0.000  0.012  0.068
  0.140  0.781  0.000  0.068  0.012
  0.013  0.067  0.000  0.780  0.140
  0.067  0.013  0.000  0.140  0.780
    occupations:
  0.384  0.000  0.000  0.000  0.000
  0.000  0.359  0.000  0.000  0.013
  0.000  0.000  0.359  0.013  0.000
  0.000  0.000  0.013  0.399  0.000
  0.000  0.013  0.000  0.000  0.399
atom    4   Tr[ns(na)] =   3.80283
    eigenvalues: 
  0.355  0.355  0.384  0.403  0.403
    eigenvectors:
  0.000  0.000  1.000  0.000  0.000
  0.781  0.140  0.000  0.012  0.068
  0.140  0.781  0.000  0.068  0.012
  0.013  0.067  0.000  0.780  0.140
  0.067  0.013  0.000  0.140  0.780
    occupations:
  0.384  0.000  0.000  0.000  0.000
  0.000  0.359  0.000  0.000  0.013
  0.000  0.000  0.359  0.013  0.000
  0.000  0.000  0.013  0.399  0.000
  0.000  0.013  0.000  0.000  0.399
atom    5   Tr[ns(na)] =   5.43358
    eigenvalues: 
  0.846  0.929  0.941
    eigenvectors:
  0.340  0.000  0.660
  0.496  0.250  0.255
  0.164  0.750  0.086
    occupations:
  0.909 -0.039  0.022
 -0.039  0.891  0.022
  0.022  0.022  0.917
atom    6   Tr[ns(na)] =   5.43358
    eigenvalues: 
  0.846  0.929  0.941
    eigenvectors:
  0.340  0.000  0.660
  0.494  0.250  0.256
  0.166  0.750  0.085
    occupations:
  0.909  0.039  0.022
  0.039  0.891 -0.022
  0.022 -0.022  0.917
atom    7   Tr[ns(na)] =   5.43358
    eigenvalues: 
  0.846  0.929  0.941
    eigenvectors:
  0.340  0.000  0.660
  0.000  1.000  0.000
  0.660  0.000  0.340
    occupations:
  0.909  0.000 -0.045
  0.000  0.929  0.000
 -0.045  0.000  0.879
atom    8   Tr[ns(na)] =   5.43358
    eigenvalues: 
  0.846  0.929  0.941
    eigenvectors:
  0.340  0.000  0.660
  0.496  0.250  0.255
  0.164  0.750  0.086
    occupations:
  0.909 -0.039  0.022
 -0.039  0.891  0.022
  0.022  0.022  0.917
atom    9   Tr[ns(na)] =   5.43358
    eigenvalues: 
  0.846  0.929  0.941
    eigenvectors:
  0.340  0.000  0.660
  0.494  0.250  0.256
  0.166  0.750  0.085
    occupations:
  0.909  0.039  0.022
  0.039  0.891 -0.022
  0.022 -0.022  0.917
atom   10   Tr[ns(na)] =   5.43358
    eigenvalues: 
  0.846  0.929  0.941
    eigenvectors:
  0.340  0.000  0.660
  0.000  1.000  0.000
  0.660  0.000  0.340
    occupations:
  0.909  0.000 -0.045
  0.000  0.929  0.000
 -0.045  0.000  0.879
N of occupied +U levels =  56.2506014
 --- exit write_ns ---
 LDA+U Projector read from file 
     Starting wfc from file

     total cpu time spent up to now is        8.0 secs

     per-process dynamical memory:    47.1 Mb

     Self-consistent Calculation

     iteration #  1     ecut=    30.00 Ry     beta=0.20
     Davidson diagonalization with overlap
     c_bands:  1 eigenvalues not converged
     c_bands:  1 eigenvalues not converged
     c_bands:  1 eigenvalues not converged
     c_bands:  1 eigenvalues not converged
     c_bands:  1 eigenvalues not converged
     c_bands:  1 eigenvalues not converged
     c_bands:  1 eigenvalues not converged
     c_bands:  1 eigenvalues not converged
     c_bands:  1 eigenvalues not converged
     ethr =  1.00E-10,  avg # of iterations = 18.6
 --- enter write_ns ---
 LDA+U parameters:
U( 1)     =  1.00000000
alpha( 1) =  0.00000000
U( 2)     =  0.00000000
alpha( 2) =  0.15000000
U( 3)     =  0.00000000
alpha( 3) =  0.00000000
U( 4)     =  0.00000000
alpha( 4) =  0.00000000
atom    1   Tr[ns(na)] =   8.07794
    eigenvalues: 
  0.577  0.577  0.961  0.962  0.962
    eigenvectors:
  0.000  0.000  1.000  0.000  0.000
  0.330  0.324  0.000  0.005  0.341
  0.324  0.330  0.000  0.341  0.005
  0.287  0.059  0.000  0.513  0.142
  0.059  0.287  0.000  0.142  0.513
    occupations:
  0.961  0.000  0.000  0.000  0.000
  0.000  0.710  0.000 -0.065  0.171
  0.000  0.000  0.710  0.171  0.065
  0.000 -0.065  0.171  0.829  0.000
  0.000  0.171  0.065  0.000  0.829
atom    2   Tr[ns(na)] =   8.07476
    eigenvalues: 
  0.576  0.576  0.962  0.962  0.962
    eigenvectors:
  0.000  0.000  1.000  0.000  0.000
  0.634  0.020  0.000  0.220  0.126
  0.020  0.634  0.000  0.126  0.220
  0.012  0.334  0.000  0.469  0.185
  0.334  0.012  0.000  0.185  0.469
    occupations:
  0.962  0.000  0.000  0.000  0.000
  0.000  0.709  0.000  0.065  0.172
  0.000  0.000  0.709  0.172 -0.065
  0.000  0.065  0.172  0.829  0.000
  0.000  0.172 -0.065  0.000  0.829
atom    3   Tr[ns(na)] =   3.74516
    eigenvalues: 
  0.350  0.350  0.378  0.397  0.397
    eigenvectors:
  0.000  0.000  1.000  0.000  0.000
  0.775  0.141  0.000  0.012  0.071
  0.141  0.775  0.000  0.071  0.012
  0.013  0.070  0.000  0.776  0.141
  0.070  0.013  0.000  0.141  0.776
    occupations:
  0.378  0.000  0.000  0.000  0.000
  0.000  0.354  0.000  0.000  0.013
  0.000  0.000  0.354  0.013  0.000
  0.000  0.000  0.013  0.393  0.000
  0.000  0.013  0.000  0.000  0.393
atom    4   Tr[ns(na)] =   3.79730
    eigenvalues: 
  0.355  0.355  0.383  0.402  0.402
    eigenvectors:
  0.000  0.000  1.000  0.000  0.000
  0.780  0.140  0.000  0.012  0.069
  0.140  0.780  0.000  0.069  0.012
  0.013  0.068  0.000  0.779  0.140
  0.068  0.013  0.000  0.140  0.779
    occupations:
  0.383  0.000  0.000  0.000  0.000
  0.000  0.359  0.000  0.000  0.013
  0.000  0.000  0.359  0.013  0.000
  0.000  0.000  0.013  0.399  0.000
  0.000  0.013  0.000  0.000  0.399
atom    5   Tr[ns(na)] =   5.42491
    eigenvalues: 
  0.841  0.929  0.943
    eigenvectors:
  0.340  0.000  0.660
  0.495  0.250  0.255
  0.164  0.750  0.086
    occupations:
  0.908 -0.042  0.024
 -0.042  0.889  0.023
  0.024  0.023  0.916
atom    6   Tr[ns(na)] =   5.42491
    eigenvalues: 
  0.841  0.929  0.943
    eigenvectors:
  0.340  0.000  0.660
  0.494  0.250  0.256
  0.165  0.750  0.085
    occupations:
  0.908  0.042  0.024
  0.042  0.889 -0.023
  0.024 -0.023  0.915
atom    7   Tr[ns(na)] =   5.42491
    eigenvalues: 
  0.841  0.929  0.943
    eigenvectors:
  0.340  0.000  0.660
  0.000  1.000  0.000
  0.660  0.000  0.340
    occupations:
  0.908  0.000 -0.048
  0.000  0.929  0.000
 -0.048  0.000  0.876
atom    8   Tr[ns(na)] =   5.42468
    eigenvalues: 
  0.841  0.928  0.943
    eigenvectors:
  0.340  0.000  0.660
  0.495  0.250  0.255
  0.164  0.750  0.085
    occupations:
  0.908 -0.042  0.024
 -0.042  0.889  0.023
  0.024  0.023  0.915
atom    9   Tr[ns(na)] =   5.42468
    eigenvalues: 
  0.841  0.928  0.943
    eigenvectors:
  0.340  0.000  0.660
  0.494  0.250  0.256
  0.165  0.750  0.085
    occupations:
  0.908  0.042  0.024
  0.042  0.889 -0.023
  0.024 -0.023  0.915
atom   10   Tr[ns(na)] =   5.42468
    eigenvalues: 
  0.841  0.928  0.943
    eigenvectors:
  0.340  0.000  0.660
  0.000  1.000  0.000
  0.660  0.000  0.340
    occupations:
  0.908  0.000 -0.048
  0.000  0.928  0.000
 -0.048  0.000  0.876
N of occupied +U levels =  56.2439160
 --- exit write_ns ---
 --- in v_hubbard ---
Hubbard energy    0.1360
 -------

     total cpu time spent up to now is       43.8 secs

     total energy              =    -538.19893107 Ry
     Harris-Foulkes estimate   =    -538.19970018 Ry
     estimated scf accuracy    <       0.00397343 Ry

     iteration #  2     ecut=    30.00 Ry     beta=0.20
     Davidson diagonalization with overlap
     ethr =  5.23E-06,  avg # of iterations =  1.6
 --- enter write_ns ---
 LDA+U parameters:
U( 1)     =  1.00000000
alpha( 1) =  0.00000000
U( 2)     =  0.00000000
alpha( 2) =  0.15000000
U( 3)     =  0.00000000
alpha( 3) =  0.00000000
U( 4)     =  0.00000000
alpha( 4) =  0.00000000
atom    1   Tr[ns(na)] =   8.02971
    eigenvalues: 
  0.567  0.567  0.960  0.961  0.961
    eigenvectors:
  0.000  0.000  1.000  0.000  0.000
  0.332  0.323  0.000  0.005  0.340
  0.323  0.332  0.000  0.340  0.005
  0.286  0.058  0.000  0.514  0.141
  0.058  0.286  0.000  0.141  0.514
    occupations:
  0.960  0.000  0.000  0.000  0.000
  0.000  0.703  0.000 -0.067  0.175
  0.000  0.000  0.703  0.175  0.067
  0.000 -0.067  0.175  0.825  0.000
  0.000  0.175  0.067  0.000  0.825
atom    2   Tr[ns(na)] =   8.03781
    eigenvalues: 
  0.566  0.566  0.962  0.963  0.963
    eigenvectors:
  0.000  0.000  1.000  0.000  0.000
  0.637  0.019  0.000  0.220  0.124
  0.019  0.637  0.000  0.124  0.220
  0.013  0.332  0.000  0.470  0.185
  0.332  0.013  0.000  0.185  0.470
    occupations:
  0.962  0.000  0.000  0.000  0.000
  0.000  0.703  0.000  0.067  0.176
  0.000  0.000  0.703  0.176 -0.067
  0.000  0.067  0.176  0.826  0.000
  0.000  0.176 -0.067  0.000  0.826
atom    3   Tr[ns(na)] =   3.74884
    eigenvalues: 
  0.350  0.350  0.378  0.398  0.398
    eigenvectors:
  0.000  0.000  1.000  0.000  0.000
  0.778  0.141  0.000  0.012  0.070
  0.141  0.778  0.000  0.070  0.012
  0.013  0.069  0.000  0.777  0.141
  0.069  0.013  0.000  0.141  0.777
    occupations:
  0.378  0.000  0.000  0.000  0.000
  0.000  0.354  0.000  0.000  0.013
  0.000  0.000  0.354  0.013  0.000
  0.000  0.000  0.013  0.394  0.000
  0.000  0.013  0.000  0.000  0.394
atom    4   Tr[ns(na)] =   3.79825
    eigenvalues: 
  0.355  0.355  0.383  0.403  0.403
    eigenvectors:
  0.000  0.000  1.000  0.000  0.000
  0.781  0.139  0.000  0.012  0.068
  0.139  0.781  0.000  0.068  0.012
  0.013  0.067  0.000  0.780  0.140
  0.067  0.013  0.000  0.140  0.780
    occupations:
  0.383  0.000  0.000  0.000  0.000
  0.000  0.359  0.000  0.000  0.013
  0.000  0.000  0.359  0.013  0.000
  0.000  0.000  0.013  0.399  0.000
  0.000  0.013  0.000  0.000  0.399
atom    5   Tr[ns(na)] =   5.43743
    eigenvalues: 
  0.845  0.930  0.943
    eigenvectors:
  0.339  0.000  0.661
  0.496  0.251  0.254
  0.165  0.749  0.085
    occupations:
  0.910 -0.040  0.023
 -0.040  0.891  0.023
  0.023  0.023  0.917
atom    6   Tr[ns(na)] =   5.43743
    eigenvalues: 
  0.845  0.930  0.943
    eigenvectors:
  0.339  0.000  0.661
  0.496  0.249  0.255
  0.165  0.751  0.084
    occupations:
  0.910  0.040  0.023
  0.040  0.891 -0.023
  0.023 -0.023  0.917
atom    7   Tr[ns(na)] =   5.43743
    eigenvalues: 
  0.845  0.930  0.943
    eigenvectors:
  0.339  0.000  0.661
  0.000  1.000  0.000
  0.661  0.000  0.339
    occupations:
  0.910  0.000 -0.047
  0.000  0.930  0.000
 -0.047  0.000  0.878
atom    8   Tr[ns(na)] =   5.43735
    eigenvalues: 
  0.845  0.930  0.944
    eigenvectors:
  0.339  0.000  0.661
  0.496  0.250  0.254
  0.165  0.750  0.085
    occupations:
  0.910 -0.041  0.024
 -0.041  0.891  0.022
  0.024  0.022  0.917
atom    9   Tr[ns(na)] =   5.43735
    eigenvalues: 
  0.845  0.930  0.944
    eigenvectors:
  0.339  0.000  0.661
  0.496  0.250  0.255
  0.165  0.750  0.084
    occupations:
  0.910  0.041  0.024
  0.041  0.891 -0.022
  0.024 -0.022  0.917
atom   10   Tr[ns(na)] =   5.43735
    eigenvalues: 
  0.845  0.930  0.944
    eigenvectors:
  0.339  0.000  0.661
  0.000  1.000  0.000
  0.661  0.000  0.339
    occupations:
  0.910  0.000 -0.047
  0.000  0.930  0.000
 -0.047  0.000  0.878
N of occupied +U levels =  56.2389599
 --- exit write_ns ---
 --- in v_hubbard ---
Hubbard energy    0.1352
 -------

     total cpu time spent up to now is       55.0 secs

     total energy              =    -538.19934733 Ry
     Harris-Foulkes estimate   =    -538.19943851 Ry
     estimated scf accuracy    <       0.00206218 Ry

     iteration #  3     ecut=    30.00 Ry     beta=0.20
     Davidson diagonalization with overlap
     ethr =  2.71E-06,  avg # of iterations =  1.0
 --- enter write_ns ---
 LDA+U parameters:
U( 1)     =  1.00000000
alpha( 1) =  0.00000000
U( 2)     =  0.00000000
alpha( 2) =  0.15000000
U( 3)     =  0.00000000
alpha( 3) =  0.00000000
U( 4)     =  0.00000000
alpha( 4) =  0.00000000
atom    1   Tr[ns(na)] =   8.05536
    eigenvalues: 
  0.571  0.571  0.962  0.962  0.962
    eigenvectors:
  0.000  0.000  1.000  0.000  0.000
  0.333  0.323  0.000  0.004  0.340
  0.323  0.333  0.000  0.340  0.004
  0.287  0.058  0.000  0.515  0.141
  0.058  0.287  0.000  0.141  0.515
    occupations:
  0.962  0.000  0.000  0.000  0.000
  0.000  0.706  0.000 -0.067  0.174
  0.000  0.000  0.706  0.174  0.067
  0.000 -0.067  0.174  0.827  0.000
  0.000  0.174  0.067  0.000  0.827
atom    2   Tr[ns(na)] =   8.03468
    eigenvalues: 
  0.567  0.567  0.960  0.961  0.961
    eigenvectors:
  0.000  0.000  1.000  0.000  0.000
  0.636  0.020  0.000  0.219  0.125
  0.020  0.636  0.000  0.125  0.219
  0.012  0.333  0.000  0.470  0.185
  0.333  0.012  0.000  0.185  0.470
    occupations:
  0.960  0.000  0.000  0.000  0.000
  0.000  0.703  0.000  0.067  0.175
  0.000  0.000  0.703  0.175 -0.067
  0.000  0.067  0.175  0.826  0.000
  0.000  0.175 -0.067  0.000  0.826
atom    3   Tr[ns(na)] =   3.75128
    eigenvalues: 
  0.350  0.350  0.379  0.398  0.398
    eigenvectors:
  0.000  0.000  1.000  0.000  0.000
  0.778  0.141  0.000  0.012  0.070
  0.141  0.778  0.000  0.070  0.012
  0.013  0.069  0.000  0.778  0.141
  0.069  0.013  0.000  0.141  0.778
    occupations:
  0.379  0.000  0.000  0.000  0.000
  0.000  0.354  0.000  0.000  0.013
  0.000  0.000  0.354  0.013  0.000
  0.000  0.000  0.013  0.394  0.000
  0.000  0.013  0.000  0.000  0.394
atom    4   Tr[ns(na)] =   3.79891
    eigenvalues: 
  0.356  0.356  0.383  0.403  0.403
    eigenvectors:
  0.000  0.000  1.000  0.000  0.000
  0.781  0.139  0.000  0.012  0.068
  0.139  0.781  0.000  0.068  0.012
  0.013  0.067  0.000  0.780  0.140
  0.067  0.013  0.000  0.140  0.780
    occupations:
  0.383  0.000  0.000  0.000  0.000
  0.000  0.359  0.000  0.000  0.013
  0.000  0.000  0.359  0.013  0.000
  0.000  0.000  0.013  0.399  0.000
  0.000  0.013  0.000  0.000  0.399
atom    5   Tr[ns(na)] =   5.43364
    eigenvalues: 
  0.844  0.930  0.943
    eigenvectors:
  0.339  0.000  0.661
  0.497  0.249  0.254
  0.164  0.751  0.085
    occupations:
  0.909 -0.041  0.023
 -0.041  0.890  0.023
  0.023  0.023  0.917
atom    6   Tr[ns(na)] =   5.43364
    eigenvalues: 
  0.844  0.930  0.943
    eigenvectors:
  0.339  0.000  0.661
  0.494  0.251  0.255
  0.166  0.749  0.085
    occupations:
  0.909  0.041  0.024
  0.041  0.891 -0.023
  0.024 -0.023  0.917
atom    7   Tr[ns(na)] =   5.43364
    eigenvalues: 
  0.844  0.930  0.943
    eigenvectors:
  0.339  0.000  0.661
  0.000  1.000  0.000
  0.661  0.000  0.339
    occupations:
  0.909  0.000 -0.047
  0.000  0.930  0.000
 -0.047  0.000  0.877
atom    8   Tr[ns(na)] =   5.43362
    eigenvalues: 
  0.844  0.929  0.944
    eigenvectors:
  0.339  0.000  0.661
  0.497  0.249  0.254
  0.164  0.751  0.085
    occupations:
  0.910 -0.041  0.024
 -0.041  0.890  0.022
  0.024  0.022  0.917
atom    9   Tr[ns(na)] =   5.43362
    eigenvalues: 
  0.844  0.929  0.944
    eigenvectors:
  0.339  0.000  0.661
  0.494  0.251  0.255
  0.166  0.749  0.085
    occupations:
  0.910  0.041  0.024
  0.041  0.891 -0.022
  0.024 -0.022  0.916
atom   10   Tr[ns(na)] =   5.43362
    eigenvalues: 
  0.844  0.929  0.944
    eigenvectors:
  0.339  0.000  0.661
  0.000  1.000  0.000
  0.661  0.000  0.339
    occupations:
  0.910  0.000 -0.047
  0.000  0.929  0.000
 -0.047  0.000  0.878
N of occupied +U levels =  56.2420164
 --- exit write_ns ---
 --- in v_hubbard ---
Hubbard energy    0.1341
 -------

     total cpu time spent up to now is       66.1 secs

     total energy              =    -538.19935287 Ry
     Harris-Foulkes estimate   =    -538.19941243 Ry
     estimated scf accuracy    <       0.00127973 Ry

     iteration #  4     ecut=    30.00 Ry     beta=0.20
     Davidson diagonalization with overlap
     ethr =  1.68E-06,  avg # of iterations =  1.0
 --- enter write_ns ---
 LDA+U parameters:
U( 1)     =  1.00000000
alpha( 1) =  0.00000000
U( 2)     =  0.00000000
alpha( 2) =  0.15000000
U( 3)     =  0.00000000
alpha( 3) =  0.00000000
U( 4)     =  0.00000000
alpha( 4) =  0.00000000
atom    1   Tr[ns(na)] =   8.01113
    eigenvalues: 
  0.566  0.566  0.957  0.958  0.958
    eigenvectors:
  0.000  0.000  1.000  0.000  0.000
  0.332  0.324  0.000  0.005  0.339
  0.324  0.332  0.000  0.339  0.005
  0.285  0.059  0.000  0.514  0.142
  0.059  0.285  0.000  0.142  0.514
    occupations:
  0.957  0.000  0.000  0.000  0.000
  0.000  0.701  0.000 -0.066  0.174
  0.000  0.000  0.701  0.174  0.066
  0.000 -0.066  0.174  0.823  0.000
  0.000  0.174  0.066  0.000  0.823
atom    2   Tr[ns(na)] =   8.08029
    eigenvalues: 
  0.572  0.572  0.965  0.966  0.966
    eigenvectors:
  0.000  0.000  1.000  0.000  0.000
  0.637  0.018  0.000  0.221  0.123
  0.018  0.637  0.000  0.123  0.221
  0.014  0.331  0.000  0.471  0.185
  0.331  0.014  0.000  0.185  0.471
    occupations:
  0.965  0.000  0.000  0.000  0.000
  0.000  0.708  0.000  0.068  0.174
  0.000  0.000  0.708  0.174 -0.068
  0.000  0.068  0.174  0.830  0.000
  0.000  0.174 -0.068  0.000  0.830
atom    3   Tr[ns(na)] =   3.75373
    eigenvalues: 
  0.351  0.351  0.379  0.398  0.398
    eigenvectors:
  0.000  0.000  1.000  0.000  0.000
  0.778  0.140  0.000  0.012  0.069
  0.140  0.778  0.000  0.069  0.012
  0.013  0.069  0.000  0.778  0.141
  0.069  0.013  0.000  0.141  0.778
    occupations:
  0.379  0.000  0.000  0.000  0.000
  0.000  0.355  0.000  0.000  0.013
  0.000  0.000  0.355  0.013  0.000
  0.000  0.000  0.013  0.394  0.000
  0.000  0.013  0.000  0.000  0.394
atom    4   Tr[ns(na)] =   3.79951
    eigenvalues: 
  0.356  0.356  0.383  0.403  0.403
    eigenvectors:
  0.000  0.000  1.000  0.000  0.000
  0.782  0.139  0.000  0.012  0.067
  0.139  0.782  0.000  0.067  0.012
  0.012  0.067  0.000  0.781  0.140
  0.067  0.012  0.000  0.140  0.781
    occupations:
  0.383  0.000  0.000  0.000  0.000
  0.000  0.359  0.000  0.000  0.013
  0.000  0.000  0.359  0.013  0.000
  0.000  0.000  0.013  0.399  0.000
  0.000  0.013  0.000  0.000  0.399
atom    5   Tr[ns(na)] =   5.43303
    eigenvalues: 
  0.844  0.930  0.943
    eigenvectors:
  0.339  0.000  0.661
  0.493  0.254  0.253
  0.168  0.746  0.086
    occupations:
  0.909 -0.041  0.024
 -0.041  0.891  0.023
  0.024  0.023  0.917
atom    6   Tr[ns(na)] =   5.43303
    eigenvalues: 
  0.844  0.930  0.943
    eigenvectors:
  0.339  0.000  0.661
  0.498  0.246  0.256
  0.163  0.754  0.083
    occupations:
  0.909  0.041  0.023
  0.041  0.890 -0.023
  0.023 -0.023  0.917
atom    7   Tr[ns(na)] =   5.43303
    eigenvalues: 
  0.844  0.930  0.943
    eigenvectors:
  0.339  0.000  0.661
  0.000  1.000  0.000
  0.661  0.000  0.339
    occupations:
  0.909  0.000 -0.047
  0.000  0.930  0.000
 -0.047  0.000  0.877
atom    8   Tr[ns(na)] =   5.43301
    eigenvalues: 
  0.844  0.929  0.944
    eigenvectors:
  0.339  0.000  0.661
  0.493  0.254  0.253
  0.168  0.746  0.086
    occupations:
  0.910 -0.041  0.024
 -0.041  0.891  0.022
  0.024  0.022  0.916
atom    9   Tr[ns(na)] =   5.43301
    eigenvalues: 
  0.844  0.929  0.944
    eigenvectors:
  0.339  0.000  0.661
  0.498  0.246  0.256
  0.163  0.754  0.084
    occupations:
  0.910  0.041  0.023
  0.041  0.890 -0.022
  0.023 -0.022  0.917
atom   10   Tr[ns(na)] =   5.43301
    eigenvalues: 
  0.844  0.929  0.944
    eigenvectors:
  0.339  0.000  0.661
  0.000  1.000  0.000
  0.661  0.000  0.339
    occupations:
  0.910  0.000 -0.047
  0.000  0.929  0.000
 -0.047  0.000  0.878
N of occupied +U levels =  56.2428094
 --- exit write_ns ---
 --- in v_hubbard ---
Hubbard energy    0.1304
 -------

     total cpu time spent up to now is       77.3 secs

     total energy              =    -538.19931356 Ry
     Harris-Foulkes estimate   =    -538.19953048 Ry
     estimated scf accuracy    <       0.00328399 Ry

     iteration #  5     ecut=    30.00 Ry     beta=0.20
     Davidson diagonalization with overlap
     ethr =  1.68E-06,  avg # of iterations =  1.0
 --- enter write_ns ---
 LDA+U parameters:
U( 1)     =  1.00000000
alpha( 1) =  0.00000000
U( 2)     =  0.00000000
alpha( 2) =  0.15000000
U( 3)     =  0.00000000
alpha( 3) =  0.00000000
U( 4)     =  0.00000000
alpha( 4) =  0.00000000
atom    1   Tr[ns(na)] =   8.04643
    eigenvalues: 
  0.569  0.569  0.961  0.962  0.962
    eigenvectors:
  0.000  0.000  1.000  0.000  0.000
  0.334  0.322  0.000  0.004  0.339
  0.322  0.334  0.000  0.339  0.004
  0.285  0.058  0.000  0.515  0.141
  0.058  0.285  0.000  0.141  0.515
    occupations:
  0.961  0.000  0.000  0.000  0.000
  0.000  0.704  0.000 -0.067  0.174
  0.000  0.000  0.704  0.174  0.067
  0.000 -0.067  0.174  0.827  0.000
  0.000  0.174  0.067  0.000  0.827
atom    2   Tr[ns(na)] =   8.04438
    eigenvalues: 
  0.568  0.568  0.961  0.963  0.963
    eigenvectors:
  0.000  0.000  1.000  0.000  0.000
  0.637  0.020  0.000  0.219  0.124
  0.020  0.637  0.000  0.124  0.219
  0.012  0.331  0.000  0.472  0.185
  0.331  0.012  0.000  0.185  0.472
    occupations:
  0.961  0.000  0.000  0.000  0.000
  0.000  0.703  0.000  0.067  0.175
  0.000  0.000  0.703  0.175 -0.067
  0.000  0.067  0.175  0.827  0.000
  0.000  0.175 -0.067  0.000  0.827
atom    3   Tr[ns(na)] =   3.76003
    eigenvalues: 
  0.351  0.351  0.379  0.399  0.399
    eigenvectors:
  0.000  0.000  1.000  0.000  0.000
  0.780  0.140  0.000  0.012  0.069
  0.140  0.780  0.000  0.069  0.012
  0.013  0.068  0.000  0.779  0.141
  0.068  0.013  0.000  0.141  0.779
    occupations:
  0.379  0.000  0.000  0.000  0.000
  0.000  0.355  0.000  0.000  0.013
  0.000  0.000  0.355  0.013  0.000
  0.000  0.000  0.013  0.395  0.000
  0.000  0.013  0.000  0.000  0.395
atom    4   Tr[ns(na)] =   3.80081
    eigenvalues: 
  0.356  0.356  0.383  0.403  0.403
    eigenvectors:
  0.000  0.000  1.000  0.000  0.000
  0.783  0.139  0.000  0.011  0.067
  0.139  0.783  0.000  0.067  0.011
  0.012  0.066  0.000  0.782  0.140
  0.066  0.012  0.000  0.140  0.782
    occupations:
  0.383  0.000  0.000  0.000  0.000
  0.000  0.360  0.000  0.000  0.013
  0.000  0.000  0.360  0.013  0.000
  0.000  0.000  0.013  0.399  0.000
  0.000  0.013  0.000  0.000  0.399
atom    5   Tr[ns(na)] =   5.43230
    eigenvalues: 
  0.844  0.930  0.943
    eigenvectors:
  0.339  0.000  0.661
  0.496  0.250  0.254
  0.165  0.750  0.085
    occupations:
  0.909 -0.041  0.024
 -0.041  0.890  0.023
  0.024  0.023  0.917
atom    6   Tr[ns(na)] =   5.43230
    eigenvalues: 
  0.844  0.930  0.943
    eigenvectors:
  0.339  0.000  0.661
  0.495  0.250  0.255
  0.166  0.750  0.084
    occupations:
  0.909  0.041  0.024
  0.041  0.890 -0.023
  0.024 -0.023  0.917
atom    7   Tr[ns(na)] =   5.43230
    eigenvalues: 
  0.844  0.930  0.943
    eigenvectors:
  0.339  0.000  0.661
  0.000  1.000  0.000
  0.661  0.000  0.339
    occupations:
  0.909  0.000 -0.047
  0.000  0.930  0.000
 -0.047  0.000  0.877
atom    8   Tr[ns(na)] =   5.43221
    eigenvalues: 
  0.844  0.929  0.943
    eigenvectors:
  0.339  0.000  0.661
  0.496  0.250  0.254
  0.165  0.750  0.085
    occupations:
  0.909 -0.041  0.024
 -0.041  0.890  0.022
  0.024  0.022  0.916
atom    9   Tr[ns(na)] =   5.43221
    eigenvalues: 
  0.844  0.929  0.943
    eigenvectors:
  0.339  0.000  0.661
  0.495  0.250  0.255
  0.166  0.750  0.084
    occupations:
  0.909  0.041  0.024
  0.041  0.890 -0.022
  0.024 -0.022  0.916
atom   10   Tr[ns(na)] =   5.43221
    eigenvalues: 
  0.844  0.929  0.943
    eigenvectors:
  0.339  0.000  0.661
  0.000  1.000  0.000
  0.661  0.000  0.339
    occupations:
  0.909  0.000 -0.047
  0.000  0.929  0.000
 -0.047  0.000  0.877
N of occupied +U levels =  56.2451906
 --- exit write_ns ---
 --- in v_hubbard ---
Hubbard energy    0.1295
 -------

     total cpu time spent up to now is       90.9 secs

     total energy              =    -538.19942051 Ry
     Harris-Foulkes estimate   =    -538.19944100 Ry
     estimated scf accuracy    <       0.00005079 Ry

     iteration #  6     ecut=    30.00 Ry     beta=0.20
     Davidson diagonalization with overlap
     ethr =  6.68E-08,  avg # of iterations =  2.0
 --- enter write_ns ---
 LDA+U parameters:
U( 1)     =  1.00000000
alpha( 1) =  0.00000000
U( 2)     =  0.00000000
alpha( 2) =  0.15000000
U( 3)     =  0.00000000
alpha( 3) =  0.00000000
U( 4)     =  0.00000000
alpha( 4) =  0.00000000
atom    1   Tr[ns(na)] =   8.04329
    eigenvalues: 
  0.568  0.568  0.961  0.962  0.962
    eigenvectors:
  0.000  0.000  1.000  0.000  0.000
  0.333  0.323  0.000  0.004  0.340
  0.323  0.333  0.000  0.340  0.004
  0.286  0.058  0.000  0.515  0.141
  0.058  0.286  0.000  0.141  0.515
    occupations:
  0.961  0.000  0.000  0.000  0.000
  0.000  0.704  0.000 -0.068  0.174
  0.000  0.000  0.704  0.174  0.068
  0.000 -0.068  0.174  0.827  0.000
  0.000  0.174  0.068  0.000  0.827
atom    2   Tr[ns(na)] =   8.04265
    eigenvalues: 
  0.567  0.567  0.962  0.963  0.963
    eigenvectors:
  0.000  0.000  1.000  0.000  0.000
  0.636  0.020  0.000  0.220  0.124
  0.020  0.636  0.000  0.124  0.220
  0.013  0.331  0.000  0.471  0.185
  0.331  0.013  0.000  0.185  0.471
    occupations:
  0.962  0.000  0.000  0.000  0.000
  0.000  0.703  0.000  0.067  0.176
  0.000  0.000  0.703  0.176 -0.067
  0.000  0.067  0.176  0.827  0.000
  0.000  0.176 -0.067  0.000  0.827
atom    3   Tr[ns(na)] =   3.75708
    eigenvalues: 
  0.351  0.351  0.379  0.399  0.399
    eigenvectors:
  0.000  0.000  1.000  0.000  0.000
  0.779  0.140  0.000  0.012  0.069
  0.140  0.779  0.000  0.069  0.012
  0.013  0.068  0.000  0.778  0.141
  0.068  0.013  0.000  0.141  0.778
    occupations:
  0.379  0.000  0.000  0.000  0.000
  0.000  0.355  0.000  0.000  0.013
  0.000  0.000  0.355  0.013  0.000
  0.000  0.000  0.013  0.395  0.000
  0.000  0.013  0.000  0.000  0.395
atom    4   Tr[ns(na)] =   3.79827
    eigenvalues: 
  0.356  0.356  0.383  0.403  0.403
    eigenvectors:
  0.000  0.000  1.000  0.000  0.000
  0.782  0.139  0.000  0.011  0.067
  0.139  0.782  0.000  0.067  0.011
  0.012  0.066  0.000  0.781  0.140
  0.066  0.012  0.000  0.140  0.781
    occupations:
  0.383  0.000  0.000  0.000  0.000
  0.000  0.359  0.000  0.000  0.013
  0.000  0.000  0.359  0.013  0.000
  0.000  0.000  0.013  0.399  0.000
  0.000  0.013  0.000  0.000  0.399
atom    5   Tr[ns(na)] =   5.43361
    eigenvalues: 
  0.844  0.930  0.943
    eigenvectors:
  0.339  0.000  0.661
  0.496  0.250  0.254
  0.165  0.750  0.085
    occupations:
  0.909 -0.041  0.023
 -0.041  0.891  0.023
  0.023  0.023  0.917
atom    6   Tr[ns(na)] =   5.43361
    eigenvalues: 
  0.844  0.930  0.943
    eigenvectors:
  0.339  0.000  0.661
  0.495  0.250  0.255
  0.166  0.750  0.084
    occupations:
  0.909  0.041  0.024
  0.041  0.891 -0.023
  0.024 -0.023  0.917
atom    7   Tr[ns(na)] =   5.43361
    eigenvalues: 
  0.844  0.930  0.943
    eigenvectors:
  0.339  0.000  0.661
  0.000  1.000  0.000
  0.661  0.000  0.339
    occupations:
  0.909  0.000 -0.047
  0.000  0.930  0.000
 -0.047  0.000  0.877
atom    8   Tr[ns(na)] =   5.43364
    eigenvalues: 
  0.844  0.929  0.944
    eigenvectors:
  0.339  0.000  0.661
  0.496  0.250  0.254
  0.165  0.750  0.085
    occupations:
  0.910 -0.041  0.024
 -0.041  0.891  0.022
  0.024  0.022  0.917
atom    9   Tr[ns(na)] =   5.43364
    eigenvalues: 
  0.844  0.929  0.944
    eigenvectors:
  0.339  0.000  0.661
  0.495  0.250  0.255
  0.166  0.750  0.084
    occupations:
  0.910  0.041  0.024
  0.041  0.891 -0.022
  0.024 -0.022  0.916
atom   10   Tr[ns(na)] =   5.43364
    eigenvalues: 
  0.844  0.929  0.944
    eigenvectors:
  0.339  0.000  0.661
  0.000  1.000  0.000
  0.661  0.000  0.339
    occupations:
  0.910  0.000 -0.047
  0.000  0.929  0.000
 -0.047  0.000  0.878
N of occupied +U levels =  56.2430400
 --- exit write_ns ---
 --- in v_hubbard ---
Hubbard energy    0.1296
 -------

     total cpu time spent up to now is      109.4 secs

     total energy              =    -538.19944281 Ry
     Harris-Foulkes estimate   =    -538.19943034 Ry
     estimated scf accuracy    <       0.00001089 Ry

     iteration #  7     ecut=    30.00 Ry     beta=0.20
     Davidson diagonalization with overlap
     ethr =  1.43E-08,  avg # of iterations =  1.1
 --- enter write_ns ---
 LDA+U parameters:
U( 1)     =  1.00000000
alpha( 1) =  0.00000000
U( 2)     =  0.00000000
alpha( 2) =  0.15000000
U( 3)     =  0.00000000
alpha( 3) =  0.00000000
U( 4)     =  0.00000000
alpha( 4) =  0.00000000
atom    1   Tr[ns(na)] =   8.04487
    eigenvalues: 
  0.569  0.569  0.961  0.962  0.962
    eigenvectors:
  0.000  0.000  1.000  0.000  0.000
  0.333  0.322  0.000  0.004  0.340
  0.322  0.333  0.000  0.340  0.004
  0.286  0.058  0.000  0.515  0.141
  0.058  0.286  0.000  0.141  0.515
    occupations:
  0.961  0.000  0.000  0.000  0.000
  0.000  0.704  0.000 -0.067  0.174
  0.000  0.000  0.704  0.174  0.067
  0.000 -0.067  0.174  0.827  0.000
  0.000  0.174  0.067  0.000  0.827
atom    2   Tr[ns(na)] =   8.04416
    eigenvalues: 
  0.567  0.567  0.962  0.963  0.963
    eigenvectors:
  0.000  0.000  1.000  0.000  0.000
  0.637  0.019  0.000  0.220  0.125
  0.019  0.637  0.000  0.125  0.220
  0.013  0.331  0.000  0.471  0.185
  0.331  0.013  0.000  0.185  0.471
    occupations:
  0.962  0.000  0.000  0.000  0.000
  0.000  0.703  0.000  0.067  0.176
  0.000  0.000  0.703  0.176 -0.067
  0.000  0.067  0.176  0.827  0.000
  0.000  0.176 -0.067  0.000  0.827
atom    3   Tr[ns(na)] =   3.75710
    eigenvalues: 
  0.351  0.351  0.379  0.399  0.399
    eigenvectors:
  0.000  0.000  1.000  0.000  0.000
  0.778  0.141  0.000  0.012  0.069
  0.141  0.778  0.000  0.069  0.012
  0.013  0.068  0.000  0.778  0.141
  0.068  0.013  0.000  0.141  0.778
    occupations:
  0.379  0.000  0.000  0.000  0.000
  0.000  0.355  0.000  0.000  0.013
  0.000  0.000  0.355  0.013  0.000
  0.000  0.000  0.013  0.395  0.000
  0.000  0.013  0.000  0.000  0.395
atom    4   Tr[ns(na)] =   3.79858
    eigenvalues: 
  0.356  0.356  0.383  0.403  0.403
    eigenvectors:
  0.000  0.000  1.000  0.000  0.000
  0.782  0.139  0.000  0.011  0.067
  0.139  0.782  0.000  0.067  0.011
  0.012  0.066  0.000  0.781  0.140
  0.066  0.012  0.000  0.140  0.781
    occupations:
  0.383  0.000  0.000  0.000  0.000
  0.000  0.359  0.000  0.000  0.013
  0.000  0.000  0.359  0.013  0.000
  0.000  0.000  0.013  0.399  0.000
  0.000  0.013  0.000  0.000  0.399
atom    5   Tr[ns(na)] =   5.43313
    eigenvalues: 
  0.844  0.930  0.943
    eigenvectors:
  0.339  0.000  0.661
  0.496  0.250  0.254
  0.165  0.750  0.085
    occupations:
  0.909 -0.041  0.024
 -0.041  0.890  0.023
  0.024  0.023  0.917
atom    6   Tr[ns(na)] =   5.43313
    eigenvalues: 
  0.844  0.930  0.943
    eigenvectors:
  0.339  0.000  0.661
  0.495  0.250  0.255
  0.166  0.750  0.084
    occupations:
  0.909  0.041  0.024
  0.041  0.891 -0.023
  0.024 -0.023  0.917
atom    7   Tr[ns(na)] =   5.43313
    eigenvalues: 
  0.844  0.930  0.943
    eigenvectors:
  0.339  0.000  0.661
  0.000  1.000  0.000
  0.661  0.000  0.339
    occupations:
  0.909  0.000 -0.047
  0.000  0.930  0.000
 -0.047  0.000  0.877
atom    8   Tr[ns(na)] =   5.43310
    eigenvalues: 
  0.844  0.929  0.943
    eigenvectors:
  0.339  0.000  0.661
  0.496  0.250  0.254
  0.165  0.750  0.085
    occupations:
  0.910 -0.041  0.024
 -0.041  0.890  0.022
  0.024  0.022  0.916
atom    9   Tr[ns(na)] =   5.43310
    eigenvalues: 
  0.844  0.929  0.943
    eigenvectors:
  0.339  0.000  0.661
  0.495  0.250  0.255
  0.166  0.750  0.084
    occupations:
  0.910  0.041  0.024
  0.041  0.891 -0.022
  0.024 -0.022  0.916
atom   10   Tr[ns(na)] =   5.43310
    eigenvalues: 
  0.844  0.929  0.943
    eigenvectors:
  0.339  0.000  0.661
  0.000  1.000  0.000
  0.661  0.000  0.339
    occupations:
  0.910  0.000 -0.047
  0.000  0.929  0.000
 -0.047  0.000  0.878
N of occupied +U levels =  56.2433917
 --- exit write_ns ---
 --- in v_hubbard ---
Hubbard energy    0.1296
 -------

     total cpu time spent up to now is      123.3 secs

     total energy              =    -538.19945044 Ry
     Harris-Foulkes estimate   =    -538.19944362 Ry
     estimated scf accuracy    <       0.00000136 Ry

     iteration #  8     ecut=    30.00 Ry     beta=0.20
     Davidson diagonalization with overlap
     ethr =  1.79E-09,  avg # of iterations =  2.1
 --- enter write_ns ---
 LDA+U parameters:
U( 1)     =  1.00000000
alpha( 1) =  0.00000000
U( 2)     =  0.00000000
alpha( 2) =  0.15000000
U( 3)     =  0.00000000
alpha( 3) =  0.00000000
U( 4)     =  0.00000000
alpha( 4) =  0.00000000
atom    1   Tr[ns(na)] =   8.04526
    eigenvalues: 
  0.569  0.569  0.961  0.962  0.962
    eigenvectors:
  0.000  0.000  1.000  0.000  0.000
  0.333  0.323  0.000  0.004  0.340
  0.323  0.333  0.000  0.340  0.004
  0.286  0.058  0.000  0.515  0.141
  0.058  0.286  0.000  0.141  0.515
    occupations:
  0.961  0.000  0.000  0.000  0.000
  0.000  0.704  0.000 -0.067  0.174
  0.000  0.000  0.704  0.174  0.067
  0.000 -0.067  0.174  0.827  0.000
  0.000  0.174  0.067  0.000  0.827
atom    2   Tr[ns(na)] =   8.04453
    eigenvalues: 
  0.567  0.567  0.962  0.963  0.963
    eigenvectors:
  0.000  0.000  1.000  0.000  0.000
  0.637  0.019  0.000  0.220  0.125
  0.019  0.637  0.000  0.125  0.220
  0.013  0.331  0.000  0.471  0.185
  0.331  0.013  0.000  0.185  0.471
    occupations:
  0.962  0.000  0.000  0.000  0.000
  0.000  0.703  0.000  0.067  0.176
  0.000  0.000  0.703  0.176 -0.067
  0.000  0.067  0.176  0.827  0.000
  0.000  0.176 -0.067  0.000  0.827
atom    3   Tr[ns(na)] =   3.75684
    eigenvalues: 
  0.351  0.351  0.379  0.399  0.399
    eigenvectors:
  0.000  0.000  1.000  0.000  0.000
  0.779  0.140  0.000  0.012  0.069
  0.140  0.779  0.000  0.069  0.012
  0.013  0.068  0.000  0.778  0.141
  0.068  0.013  0.000  0.141  0.778
    occupations:
  0.379  0.000  0.000  0.000  0.000
  0.000  0.355  0.000  0.000  0.013
  0.000  0.000  0.355  0.013  0.000
  0.000  0.000  0.013  0.395  0.000
  0.000  0.013  0.000  0.000  0.395
atom    4   Tr[ns(na)] =   3.79941
    eigenvalues: 
  0.356  0.356  0.383  0.403  0.403
    eigenvectors:
  0.000  0.000  1.000  0.000  0.000
  0.783  0.139  0.000  0.011  0.067
  0.139  0.783  0.000  0.067  0.011
  0.012  0.066  0.000  0.781  0.140
  0.066  0.012  0.000  0.140  0.781
    occupations:
  0.383  0.000  0.000  0.000  0.000
  0.000  0.359  0.000  0.000  0.013
  0.000  0.000  0.359  0.013  0.000
  0.000  0.000  0.013  0.399  0.000
  0.000  0.013  0.000  0.000  0.399
atom    5   Tr[ns(na)] =   5.43295
    eigenvalues: 
  0.844  0.930  0.943
    eigenvectors:
  0.339  0.000  0.661
  0.496  0.250  0.254
  0.165  0.750  0.085
    occupations:
  0.909 -0.041  0.024
 -0.041  0.890  0.023
  0.024  0.023  0.917
atom    6   Tr[ns(na)] =   5.43295
    eigenvalues: 
  0.844  0.930  0.943
    eigenvectors:
  0.339  0.000  0.661
  0.495  0.250  0.255
  0.166  0.750  0.084
    occupations:
  0.909  0.041  0.024
  0.041  0.891 -0.023
  0.024 -0.023  0.917
atom    7   Tr[ns(na)] =   5.43295
    eigenvalues: 
  0.844  0.930  0.943
    eigenvectors:
  0.339  0.000  0.661
  0.000  1.000  0.000
  0.661  0.000  0.339
    occupations:
  0.909  0.000 -0.047
  0.000  0.930  0.000
 -0.047  0.000  0.877
atom    8   Tr[ns(na)] =   5.43289
    eigenvalues: 
  0.844  0.929  0.943
    eigenvectors:
  0.339  0.000  0.661
  0.496  0.250  0.254
  0.165  0.750  0.085
    occupations:
  0.910 -0.041  0.024
 -0.041  0.890  0.022
  0.024  0.022  0.916
atom    9   Tr[ns(na)] =   5.43289
    eigenvalues: 
  0.844  0.929  0.943
    eigenvectors:
  0.339  0.000  0.661
  0.495  0.250  0.255
  0.166  0.750  0.084
    occupations:
  0.910  0.041  0.024
  0.041  0.891 -0.022
  0.024 -0.022  0.916
atom   10   Tr[ns(na)] =   5.43289
    eigenvalues: 
  0.844  0.929  0.943
    eigenvectors:
  0.339  0.000  0.661
  0.000  1.000  0.000
  0.661  0.000  0.339
    occupations:
  0.910  0.000 -0.047
  0.000  0.929  0.000
 -0.047  0.000  0.878
N of occupied +U levels =  56.2435685
 --- exit write_ns ---
 --- in v_hubbard ---
Hubbard energy    0.1296
 -------

     total cpu time spent up to now is      140.7 secs

     total energy              =    -538.19945551 Ry
     Harris-Foulkes estimate   =    -538.19945080 Ry
     estimated scf accuracy    <       0.00000012 Ry

     iteration #  9     ecut=    30.00 Ry     beta=0.20
     Davidson diagonalization with overlap
     ethr =  1.63E-10,  avg # of iterations =  2.0
 --- enter write_ns ---
 LDA+U parameters:
U( 1)     =  1.00000000
alpha( 1) =  0.00000000
U( 2)     =  0.00000000
alpha( 2) =  0.15000000
U( 3)     =  0.00000000
alpha( 3) =  0.00000000
U( 4)     =  0.00000000
alpha( 4) =  0.00000000
atom    1   Tr[ns(na)] =   8.04519
    eigenvalues: 
  0.569  0.569  0.961  0.962  0.962
    eigenvectors:
  0.000  0.000  1.000  0.000  0.000
  0.333  0.323  0.000  0.004  0.340
  0.323  0.333  0.000  0.340  0.004
  0.286  0.058  0.000  0.515  0.141
  0.058  0.286  0.000  0.141  0.515
    occupations:
  0.961  0.000  0.000  0.000  0.000
  0.000  0.704  0.000 -0.067  0.174
  0.000  0.000  0.704  0.174  0.067
  0.000 -0.067  0.174  0.827  0.000
  0.000  0.174  0.067  0.000  0.827
atom    2   Tr[ns(na)] =   8.04450
    eigenvalues: 
  0.567  0.567  0.962  0.963  0.963
    eigenvectors:
  0.000  0.000  1.000  0.000  0.000
  0.637  0.019  0.000  0.220  0.125
  0.019  0.637  0.000  0.125  0.220
  0.013  0.331  0.000  0.471  0.185
  0.331  0.013  0.000  0.185  0.471
    occupations:
  0.962  0.000  0.000  0.000  0.000
  0.000  0.703  0.000  0.067  0.176
  0.000  0.000  0.703  0.176 -0.067
  0.000  0.067  0.176  0.827  0.000
  0.000  0.176 -0.067  0.000  0.827
atom    3   Tr[ns(na)] =   3.75678
    eigenvalues: 
  0.351  0.351  0.379  0.399  0.399
    eigenvectors:
  0.000  0.000  1.000  0.000  0.000
  0.779  0.140  0.000  0.012  0.069
  0.140  0.779  0.000  0.069  0.012
  0.013  0.068  0.000  0.778  0.141
  0.068  0.013  0.000  0.141  0.778
    occupations:
  0.379  0.000  0.000  0.000  0.000
  0.000  0.355  0.000  0.000  0.013
  0.000  0.000  0.355  0.013  0.000
  0.000  0.000  0.013  0.395  0.000
  0.000  0.013  0.000  0.000  0.395
atom    4   Tr[ns(na)] =   3.79927
    eigenvalues: 
  0.356  0.356  0.383  0.403  0.403
    eigenvectors:
  0.000  0.000  1.000  0.000  0.000
  0.782  0.139  0.000  0.011  0.067
  0.139  0.782  0.000  0.067  0.011
  0.012  0.066  0.000  0.781  0.140
  0.066  0.012  0.000  0.140  0.781
    occupations:
  0.383  0.000  0.000  0.000  0.000
  0.000  0.359  0.000  0.000  0.013
  0.000  0.000  0.359  0.013  0.000
  0.000  0.000  0.013  0.399  0.000
  0.000  0.013  0.000  0.000  0.399
atom    5   Tr[ns(na)] =   5.43298
    eigenvalues: 
  0.844  0.930  0.943
    eigenvectors:
  0.339  0.000  0.661
  0.496  0.250  0.254
  0.165  0.750  0.085
    occupations:
  0.909 -0.041  0.024
 -0.041  0.890  0.023
  0.024  0.023  0.917
atom    6   Tr[ns(na)] =   5.43298
    eigenvalues: 
  0.844  0.930  0.943
    eigenvectors:
  0.339  0.000  0.661
  0.495  0.250  0.255
  0.166  0.750  0.084
    occupations:
  0.909  0.041  0.024
  0.041  0.891 -0.023
  0.024 -0.023  0.917
atom    7   Tr[ns(na)] =   5.43298
    eigenvalues: 
  0.844  0.930  0.943
    eigenvectors:
  0.339  0.000  0.661
  0.000  1.000  0.000
  0.661  0.000  0.339
    occupations:
  0.909  0.000 -0.047
  0.000  0.930  0.000
 -0.047  0.000  0.877
atom    8   Tr[ns(na)] =   5.43294
    eigenvalues: 
  0.844  0.929  0.943
    eigenvectors:
  0.339  0.000  0.661
  0.496  0.250  0.254
  0.165  0.750  0.085
    occupations:
  0.910 -0.041  0.024
 -0.041  0.890  0.022
  0.024  0.022  0.916
atom    9   Tr[ns(na)] =   5.43294
    eigenvalues: 
  0.844  0.929  0.943
    eigenvectors:
  0.339  0.000  0.661
  0.495  0.250  0.255
  0.166  0.750  0.084
    occupations:
  0.910  0.041  0.024
  0.041  0.891 -0.022
  0.024 -0.022  0.916
atom   10   Tr[ns(na)] =   5.43294
    eigenvalues: 
  0.844  0.929  0.943
    eigenvectors:
  0.339  0.000  0.661
  0.000  1.000  0.000
  0.661  0.000  0.339
    occupations:
  0.910  0.000 -0.047
  0.000  0.929  0.000
 -0.047  0.000  0.878
N of occupied +U levels =  56.2434965
 --- exit write_ns ---
 --- in v_hubbard ---
Hubbard energy    0.1296
 -------

     total cpu time spent up to now is      155.7 secs

     total energy              =    -538.19945861 Ry
     Harris-Foulkes estimate   =    -538.19945553 Ry
     estimated scf accuracy    <       0.00000003 Ry

     iteration # 10     ecut=    30.00 Ry     beta=0.20
     Davidson diagonalization with overlap
     ethr =  4.25E-11,  avg # of iterations =  2.0
 --- enter write_ns ---
 LDA+U parameters:
U( 1)     =  1.00000000
alpha( 1) =  0.00000000
U( 2)     =  0.00000000
alpha( 2) =  0.15000000
U( 3)     =  0.00000000
alpha( 3) =  0.00000000
U( 4)     =  0.00000000
alpha( 4) =  0.00000000
atom    1   Tr[ns(na)] =   8.04515
    eigenvalues: 
  0.569  0.569  0.961  0.962  0.962
    eigenvectors:
  0.000  0.000  1.000  0.000  0.000
  0.333  0.322  0.000  0.004  0.340
  0.322  0.333  0.000  0.340  0.004
  0.286  0.058  0.000  0.515  0.141
  0.058  0.286  0.000  0.141  0.515
    occupations:
  0.961  0.000  0.000  0.000  0.000
  0.000  0.704  0.000 -0.067  0.174
  0.000  0.000  0.704  0.174  0.067
  0.000 -0.067  0.174  0.827  0.000
  0.000  0.174  0.067  0.000  0.827
atom    2   Tr[ns(na)] =   8.04443
    eigenvalues: 
  0.567  0.567  0.962  0.963  0.963
    eigenvectors:
  0.000  0.000  1.000  0.000  0.000
  0.636  0.020  0.000  0.220  0.125
  0.020  0.636  0.000  0.125  0.220
  0.013  0.332  0.000  0.471  0.185
  0.332  0.013  0.000  0.185  0.471
    occupations:
  0.962  0.000  0.000  0.000  0.000
  0.000  0.703  0.000  0.067  0.176
  0.000  0.000  0.703  0.176 -0.067
  0.000  0.067  0.176  0.827  0.000
  0.000  0.176 -0.067  0.000  0.827
atom    3   Tr[ns(na)] =   3.75678
    eigenvalues: 
  0.351  0.351  0.379  0.399  0.399
    eigenvectors:
  0.000  0.000  1.000  0.000  0.000
  0.779  0.140  0.000  0.012  0.069
  0.140  0.779  0.000  0.069  0.012
  0.013  0.068  0.000  0.778  0.141
  0.068  0.013  0.000  0.141  0.778
    occupations:
  0.379  0.000  0.000  0.000  0.000
  0.000  0.355  0.000  0.000  0.013
  0.000  0.000  0.355  0.013  0.000
  0.000  0.000  0.013  0.395  0.000
  0.000  0.013  0.000  0.000  0.395
atom    4   Tr[ns(na)] =   3.79919
    eigenvalues: 
  0.356  0.356  0.383  0.403  0.403
    eigenvectors:
  0.000  0.000  1.000  0.000  0.000
  0.782  0.139  0.000  0.011  0.067
  0.139  0.782  0.000  0.067  0.011
  0.012  0.066  0.000  0.781  0.140
  0.066  0.012  0.000  0.140  0.781
    occupations:
  0.383  0.000  0.000  0.000  0.000
  0.000  0.359  0.000  0.000  0.013
  0.000  0.000  0.359  0.013  0.000
  0.000  0.000  0.013  0.399  0.000
  0.000  0.013  0.000  0.000  0.399
atom    5   Tr[ns(na)] =   5.43300
    eigenvalues: 
  0.844  0.930  0.943
    eigenvectors:
  0.339  0.000  0.661
  0.496  0.250  0.254
  0.165  0.750  0.085
    occupations:
  0.909 -0.041  0.024
 -0.041  0.890  0.023
  0.024  0.023  0.917
atom    6   Tr[ns(na)] =   5.43300
    eigenvalues: 
  0.844  0.930  0.943
    eigenvectors:
  0.339  0.000  0.661
  0.495  0.250  0.255
  0.166  0.750  0.084
    occupations:
  0.909  0.041  0.024
  0.041  0.891 -0.023
  0.024 -0.023  0.917
atom    7   Tr[ns(na)] =   5.43300
    eigenvalues: 
  0.844  0.930  0.943
    eigenvectors:
  0.339  0.000  0.661
  0.000  1.000  0.000
  0.661  0.000  0.339
    occupations:
  0.909  0.000 -0.047
  0.000  0.930  0.000
 -0.047  0.000  0.877
atom    8   Tr[ns(na)] =   5.43297
    eigenvalues: 
  0.844  0.929  0.943
    eigenvectors:
  0.339  0.000  0.661
  0.496  0.250  0.254
  0.165  0.750  0.085
    occupations:
  0.910 -0.041  0.024
 -0.041  0.890  0.022
  0.024  0.022  0.916
atom    9   Tr[ns(na)] =   5.43297
    eigenvalues: 
  0.844  0.929  0.943
    eigenvectors:
  0.339  0.000  0.661
  0.495  0.250  0.255
  0.166  0.750  0.084
    occupations:
  0.910  0.041  0.024
  0.041  0.891 -0.022
  0.024 -0.022  0.916
atom   10   Tr[ns(na)] =   5.43297
    eigenvalues: 
  0.844  0.929  0.943
    eigenvectors:
  0.339  0.000  0.661
  0.000  1.000  0.000
  0.661  0.000  0.339
    occupations:
  0.910  0.000 -0.047
  0.000  0.929  0.000
 -0.047  0.000  0.878
N of occupied +U levels =  56.2434583
 --- exit write_ns ---
 --- in v_hubbard ---
Hubbard energy    0.1296
 -------

     total cpu time spent up to now is      172.5 secs

     End of self-consistent calculation

          k = 0.0000 0.0000 0.0000 (  2175 PWs)   bands (ev):

   -19.8282 -19.6402  -6.5243  -5.7982  -5.7982  -5.7673  -5.7673  -5.4198
    -3.7907  -3.2791  -3.2144  -3.2144  -3.0307  -3.0307   5.2129   6.9224
     6.9224   7.5412   7.5412   7.6670   7.6670   7.7181   7.7346   9.3141
     9.6376   9.6376   9.7795   9.9064   9.9064  10.3784  10.3784  10.4863
    10.4863  10.5808  10.6988  11.4474  11.4474  12.0101  12.1965  12.1965
    14.7970  14.7970  15.4876  15.4876  16.2605  16.8462

     occupation numbers 
     0.0313   0.0313   0.0313   0.0313   0.0313   0.0313   0.0313   0.0313
     0.0313   0.0313   0.0313   0.0313   0.0313   0.0313   0.0313   0.0313
     0.0313   0.0313   0.0313   0.0313   0.0313   0.0313   0.0313   0.0313
     0.0313   0.0313   0.0312   0.0312   0.0312   0.0312   0.0312   0.0312
     0.0312   0.0312   0.0312   0.0307   0.0307   0.0175   0.0097   0.0097
     0.0000   0.0000   0.0000   0.0000   0.0000   0.0000

          k =-0.2471-0.1427 0.1027 (  2181 PWs)   bands (ev):

   -19.8037 -19.6632  -6.7028  -6.2415  -5.9036  -5.8071  -5.5648  -5.4292
    -3.6012  -3.3990  -2.9434  -2.9107  -2.8525  -2.7624   5.5824   6.9049
     7.0266   7.0350   7.2335   7.5036   7.5630   7.7184   7.7264   8.5726
     8.6541   9.2622   9.6771   9.8035   9.8458  10.0443  10.3930  10.4043
    10.8067  10.8276  10.9317  11.7087  11.7638  11.8148  12.3600  12.4251
    14.3408  14.3505  15.8705  16.1225  17.0237  17.3163

     occupation numbers 
     0.1875   0.1875   0.1875   0.1875   0.1875   0.1875   0.1875   0.1875
     0.1875   0.1875   0.1875   0.1875   0.1875   0.1875   0.1875   0.1875
     0.1875   0.1875   0.1875   0.1875   0.1875   0.1875   0.1875   0.1875
     0.1875   0.1875   0.1875   0.1875   0.1875   0.1875   0.1875   0.1875
     0.1875   0.1875   0.1875   0.1657   0.1579   0.1492   0.0270   0.0185
     0.0000   0.0000   0.0000   0.0000   0.0000   0.0000

          k = 0.4942 0.2853-0.2053 (  2202 PWs)   bands (ev):

   -19.7694 -19.6958  -6.7064  -6.6622  -5.9277  -5.9169  -5.4822  -5.4756
    -3.4069  -3.3726  -2.8039  -2.7858  -2.5432  -2.4904   6.0972   6.1214
     7.2271   7.2425   7.2766   7.2947   7.5980   7.6253   7.8833   7.9175
     8.0930   8.1234   9.5353   9.5386   9.8937   9.9008  10.3021  10.3117
    11.2413  11.2477  11.3414  11.3493  11.5309  11.5389  13.3198  13.3503
    13.4059  13.4366  16.8497  16.9107  17.1475  17.2070

     occupation numbers 
     0.0938   0.0938   0.0938   0.0938   0.0938   0.0938   0.0938   0.0938
     0.0938   0.0938   0.0938   0.0938   0.0938   0.0938   0.0938   0.0938
     0.0938   0.0938   0.0938   0.0938   0.0938   0.0938   0.0938   0.0938
     0.0938   0.0938   0.0938   0.0938   0.0937   0.0937   0.0937   0.0937
     0.0935   0.0935   0.0931   0.0931   0.0905   0.0903   0.0000   0.0000
     0.0000   0.0000   0.0000   0.0000   0.0000   0.0000

          k =-0.2471 0.1427 0.2053 (  2195 PWs)   bands (ev):

   -19.7981 -19.6640  -6.8318  -6.1999  -6.0279  -5.7677  -5.6116  -5.4185
    -3.4239  -3.2753  -3.1098  -2.8947  -2.8140  -2.5680   5.6158   6.8500
     6.9200   6.9918   7.2569   7.4913   7.5177   7.7407   7.7513   8.6711
     8.8033   8.8767   9.3115   9.7856   9.9941  10.0886  10.1971  10.3095
    10.3853  11.2172  11.3212  11.3390  11.7409  11.8150  12.0842  12.7599
    13.6653  14.8121  16.0473  16.2449  17.0917  17.5735

     occupation numbers 
     0.1875   0.1875   0.1875   0.1875   0.1875   0.1875   0.1875   0.1875
     0.1875   0.1875   0.1875   0.1875   0.1875   0.1875   0.1875   0.1875
     0.1875   0.1875   0.1875   0.1875   0.1875   0.1875   0.1875   0.1875
     0.1875   0.1875   0.1875   0.1875   0.1875   0.1875   0.1875   0.1875
     0.1875   0.1871   0.1865   0.1863   0.1614   0.1492   0.0858   0.0013
     0.0000   0.0000   0.0000   0.0000   0.0000   0.0000

          k = 0.4942 0.5706-0.1027 (  2198 PWs)   bands (ev):

   -19.7726 -19.6836  -6.9287  -6.6083  -6.1005  -5.8525  -5.4643  -5.3451
    -3.3204  -3.2624  -2.8871  -2.7146  -2.5315  -2.3904   5.9443   6.2922
     6.7885   7.0233   7.2321   7.3733   7.5398   7.7476   7.8591   8.0126
     8.2917   8.8813   9.1324   9.3525   9.6611   9.8347   9.9718  10.3784
    10.8683  11.3324  11.4341  11.5056  11.6405  11.6816  12.3491  12.7668
    13.4523  14.3883  16.9477  17.1566  17.3559  18.0454

     occupation numbers 
     0.1875   0.1875   0.1875   0.1875   0.1875   0.1875   0.1875   0.1875
     0.1875   0.1875   0.1875   0.1875   0.1875   0.1875   0.1875   0.1875
     0.1875   0.1875   0.1875   0.1875   0.1875   0.1875   0.1875   0.1875
     0.1875   0.1875   0.1875   0.1875   0.1875   0.1875   0.1875   0.1875
     0.1875   0.1863   0.1845   0.1821   0.1732   0.1690   0.0287   0.0013
     0.0000   0.0000   0.0000   0.0000   0.0000   0.0000

          k = 0.2471 0.4280 0.0000 (  2203 PWs)   bands (ev):

   -19.7784 -19.6828  -6.8183  -6.5953  -6.0164  -5.9435  -5.3940  -5.3263
    -3.5251  -3.3074  -2.8072  -2.7235  -2.5702  -2.5623   5.9213   6.3435
     6.9968   7.1297   7.2359   7.3157   7.4714   7.6505   7.7300   8.0963
     8.3446   8.9559   9.3438   9.4450   9.7961   9.8106  10.0859  10.3805
    11.1820  11.2219  11.2307  11.4581  11.4863  11.7809  12.2810  13.3489
    13.4208  14.1838  16.4833  17.0340  17.4630  17.9618

     occupation numbers 
     0.1875   0.1875   0.1875   0.1875   0.1875   0.1875   0.1875   0.1875
     0.1875   0.1875   0.1875   0.1875   0.1875   0.1875   0.1875   0.1875
     0.1875   0.1875   0.1875   0.1875   0.1875   0.1875   0.1875   0.1875
     0.1875   0.1875   0.1875   0.1875   0.1875   0.1875   0.1875   0.1875
     0.1873   0.1871   0.1871   0.1838   0.1829   0.1552   0.0404   0.0000
     0.0000   0.0000   0.0000   0.0000   0.0000   0.0000

          k = 0.4942-0.2853-0.4107 (  2202 PWs)   bands (ev):

   -19.7733 -19.6736  -7.1496  -6.4374  -6.2226  -5.8901  -5.4862  -5.2562
    -3.2110  -3.1394  -3.0533  -2.6559  -2.4839  -2.2292   5.8468   6.3125
     6.3424   6.9133   7.1890   7.2977   7.7821   7.8316   8.2095   8.3389
     8.4561   8.4865   8.6233   9.4359   9.6954  10.0565  10.0953  10.3120
    10.4597  11.1720  11.3760  11.5509  11.6758  11.8045  11.9968  12.4661
    13.3520  14.8244  17.0901  17.3054  17.5660  17.6482

     occupation numbers 
     0.0938   0.0938   0.0938   0.0938   0.0938   0.0938   0.0938   0.0938
     0.0938   0.0938   0.0938   0.0938   0.0938   0.0938   0.0938   0.0938
     0.0938   0.0938   0.0938   0.0938   0.0938   0.0938   0.0938   0.0938
     0.0938   0.0938   0.0938   0.0938   0.0937   0.0937   0.0937   0.0937
     0.0937   0.0936   0.0929   0.0899   0.0848   0.0755   0.0542   0.0072
     0.0000   0.0000   0.0000   0.0000   0.0000   0.0000

          k = 0.0000 0.0000 0.3080 (  2187 PWs)   bands (ev):

   -19.8035 -19.6632  -6.5912  -5.9258  -5.8952  -5.8816  -5.7988  -5.7948
    -3.2127  -3.1341  -3.0926  -2.9787  -2.9206  -2.8841   5.6376   7.0200
     7.0240   7.1620   7.3712   7.4455   7.4461   7.7245   7.7318   8.8054
     8.8075   9.3577   9.4579   9.6603   9.6630   9.8429  10.1532  10.1580
    10.9332  10.9353  11.0321  11.7319  11.7332  11.8233  12.3373  12.3385
    14.3011  14.3050  15.9589  15.9712  16.9339  17.5247

     occupation numbers 
     0.0625   0.0625   0.0625   0.0625   0.0625   0.0625   0.0625   0.0625
     0.0625   0.0625   0.0625   0.0625   0.0625   0.0625   0.0625   0.0625
     0.0625   0.0625   0.0625   0.0625   0.0625   0.0625   0.0625   0.0625
     0.0625   0.0625   0.0625   0.0625   0.0625   0.0625   0.0625   0.0625
     0.0625   0.0625   0.0625   0.0542   0.0541   0.0492   0.0102   0.0101
     0.0000   0.0000   0.0000   0.0000   0.0000   0.0000

          k = 0.7412 0.4280 0.0000 (  2204 PWs)   bands (ev):

   -19.7781 -19.6828  -6.7026  -6.5599  -6.1096  -5.7935  -5.6430  -5.5034
    -3.1802  -3.1091  -3.0479  -2.6898  -2.6542  -2.5873   5.9605   6.5322
     7.0088   7.1763   7.2400   7.3283   7.4639   7.6076   7.8940   8.0501
     8.3775   8.8535   9.3621   9.5057   9.6245   9.7066   9.8736  10.2398
    11.1768  11.2340  11.3091  11.5201  11.5227  11.6883  12.2872  13.2726
    13.3370  14.2080  16.7319  16.7712  17.6329  17.8284

     occupation numbers 
     0.1875   0.1875   0.1875   0.1875   0.1875   0.1875   0.1875   0.1875
     0.1875   0.1875   0.1875   0.1875   0.1875   0.1875   0.1875   0.1875
     0.1875   0.1875   0.1875   0.1875   0.1875   0.1875   0.1875   0.1875
     0.1875   0.1875   0.1875   0.1875   0.1875   0.1875   0.1875   0.1875
     0.1873   0.1871   0.1866   0.1814   0.1813   0.1682   0.0392   0.0000
     0.0000   0.0000   0.0000   0.0000   0.0000   0.0000

          k = 0.4942 0.2853 0.1027 (  2211 PWs)   bands (ev):

   -19.7727 -19.6835  -6.9452  -6.5017  -6.2944  -5.6561  -5.5824  -5.3178
    -3.3314  -3.1779  -3.0376  -2.6134  -2.5634  -2.3834   5.9746   6.2627
     6.7452   7.0147   7.2553   7.2851   7.5604   7.7935   7.9030   7.9890
     8.3262   8.9878   9.1331   9.4251   9.5318   9.6905  10.0368  10.3952
    10.8842  11.3806  11.5126  11.5179  11.5788  11.5949  12.3018  12.7833
    13.4980  14.3697  16.9210  16.9859  17.6237  17.9680

     occupation numbers 
     0.1875   0.1875   0.1875   0.1875   0.1875   0.1875   0.1875   0.1875
     0.1875   0.1875   0.1875   0.1875   0.1875   0.1875   0.1875   0.1875
     0.1875   0.1875   0.1875   0.1875   0.1875   0.1875   0.1875   0.1875
     0.1875   0.1875   0.1875   0.1875   0.1875   0.1875   0.1875   0.1875
     0.1875   0.1856   0.1818   0.1815   0.1781   0.1770   0.0365   0.0011
     0.0000   0.0000   0.0000   0.0000   0.0000   0.0000

          k = 0.7412-0.4280-0.3080 (  2210 PWs)   bands (ev):

   -19.7725 -19.6835  -6.8808  -6.4094  -6.2732  -5.7588  -5.7141  -5.4473
    -3.0833  -3.0605  -2.9790  -2.7329  -2.6236  -2.4332   6.0354   6.4019
     6.8223   6.9992   7.2701   7.3036   7.5898   7.8125   7.9444   8.0210
     8.3030   8.9736   8.9931   9.5361   9.5489   9.5561   9.6814  10.2321
    10.9547  11.3974  11.4982  11.5061  11.6240  11.6633  12.2614  12.7331
    13.4465  14.3398  17.1023  17.1113  17.5939  17.9335

     occupation numbers 
     0.1875   0.1875   0.1875   0.1875   0.1875   0.1875   0.1875   0.1875
     0.1875   0.1875   0.1875   0.1875   0.1875   0.1875   0.1875   0.1875
     0.1875   0.1875   0.1875   0.1875   0.1875   0.1875   0.1875   0.1875
     0.1875   0.1875   0.1875   0.1875   0.1875   0.1875   0.1875   0.1875
     0.1875   0.1853   0.1824   0.1821   0.1747   0.1710   0.0442   0.0017
     0.0000   0.0000   0.0000   0.0000   0.0000   0.0000

          k = 0.4942-0.5706-0.2053 (  2206 PWs)   bands (ev):

   -19.7688 -19.6826  -6.8551  -6.8438  -6.0069  -5.9993  -5.3878  -5.3843
    -3.1805  -3.1570  -2.8393  -2.7982  -2.3909  -2.3849   6.1180   6.1288
     6.9230   6.9455   7.1402   7.1477   7.4328   7.4588   8.0909   8.1262
     8.8148   8.8363   9.0116   9.0152   9.5619   9.5649  10.1154  10.1171
    11.1738  11.1754  11.3917  11.3949  11.6765  11.6799  12.3249  12.3277
    14.0303  14.0390  17.4649  17.4679  17.9034  17.9088

     occupation numbers 
     0.1875   0.1875   0.1875   0.1875   0.1875   0.1875   0.1875   0.1875
     0.1875   0.1875   0.1875   0.1875   0.1875   0.1875   0.1875   0.1875
     0.1875   0.1875   0.1875   0.1875   0.1875   0.1875   0.1875   0.1875
     0.1875   0.1875   0.1875   0.1875   0.1875   0.1875   0.1875   0.1875
     0.1873   0.1873   0.1855   0.1854   0.1695   0.1692   0.0325   0.0321
     0.0000   0.0000   0.0000   0.0000   0.0000   0.0000

          k = 0.0000 0.0000-0.6160 (  2186 PWs)   bands (ev):

   -19.7692 -19.6956  -6.4936  -6.4426  -5.9197  -5.9197  -5.8814  -5.8814
    -2.9204  -2.9204  -2.8681  -2.8681  -2.7507  -2.6894   6.3197   6.3447
     7.2291   7.2291   7.2479   7.2479   7.7550   7.7824   8.0094   8.0094
     8.0453   8.0453   9.6614   9.6614   9.6686   9.6686   9.7203   9.7313
    11.3953  11.4012  11.4532  11.4532  11.4615  11.4615  13.2626  13.2626
    13.2927  13.2927  17.1292  17.1292  17.1928  17.1928

     occupation numbers 
     0.0313   0.0313   0.0313   0.0313   0.0313   0.0313   0.0313   0.0313
     0.0313   0.0313   0.0313   0.0313   0.0313   0.0313   0.0313   0.0313
     0.0313   0.0313   0.0313   0.0313   0.0313   0.0313   0.0313   0.0313
     0.0313   0.0313   0.0312   0.0312   0.0312   0.0312   0.0312   0.0312
     0.0309   0.0309   0.0307   0.0307   0.0306   0.0306   0.0000   0.0000
     0.0000   0.0000   0.0000   0.0000   0.0000   0.0000

          k = 0.4942-0.5706 0.1027 (  2198 PWs)   bands (ev):

   -19.7726 -19.6836  -6.9291  -6.6075  -6.1016  -5.8515  -5.4653  -5.3443
    -3.3211  -3.2624  -2.8873  -2.7135  -2.5322  -2.3900   5.9428   6.2947
     6.7849   7.0237   7.2376   7.3708   7.5443   7.7432   7.8411   8.0338
     8.2875   8.8871   9.1277   9.3514   9.6590   9.8359   9.9714  10.3799
    10.8678  11.3315  11.4369  11.5050  11.6421  11.6794  12.3488  12.7666
    13.4522  14.3881  16.9496  17.1538  17.3564  18.0470

     occupation numbers 
     0.1875   0.1875   0.1875   0.1875   0.1875   0.1875   0.1875   0.1875
     0.1875   0.1875   0.1875   0.1875   0.1875   0.1875   0.1875   0.1875
     0.1875   0.1875   0.1875   0.1875   0.1875   0.1875   0.1875   0.1875
     0.1875   0.1875   0.1875   0.1875   0.1875   0.1875   0.1875   0.1875
     0.1875   0.1863   0.1844   0.1821   0.1731   0.1692   0.0287   0.0013
     0.0000   0.0000   0.0000   0.0000   0.0000   0.0000

     the Fermi energy is    12.0534 ev

!    total energy              =    -538.19946418 Ry
     Harris-Foulkes estimate   =    -538.19945862 Ry
     estimated scf accuracy    <          2.6E-09 Ry

     The total energy is the sum of the following terms:

     one-electron contribution =     -32.96121364 Ry
     hartree contribution      =      83.69711314 Ry
     xc contribution           =    -199.58818428 Ry
     ewald contribution        =    -389.44315552 Ry
     Hubbard energy            =       0.12962821 Ry
     smearing contrib. (-TS)   =      -0.03365210 Ry

     convergence has been achieved in  10 iterations

     init_run     :      7.15s CPU      7.30s WALL (       1 calls)
     electrons    :    161.65s CPU    164.45s WALL (       1 calls)

     Called by init_run:
     wfcinit      :      0.00s CPU      0.00s WALL (       1 calls)
     potinit      :      0.28s CPU      0.34s WALL (       1 calls)

     Called by electrons:
     c_bands      :    106.50s CPU    107.55s WALL (      10 calls)
     sum_band     :     31.27s CPU     31.54s WALL (      10 calls)
     v_of_rho     :      2.89s CPU      3.01s WALL (      11 calls)
     v_h          :      0.16s CPU      0.16s WALL (      11 calls)
     v_xc         :      2.74s CPU      2.85s WALL (      11 calls)
     newd         :     22.06s CPU     22.22s WALL (      11 calls)
     mix_rho      :      0.29s CPU      0.30s WALL (      10 calls)

     Called by c_bands:
     init_us_2    :      1.05s CPU      1.05s WALL (     280 calls)
     cegterg      :    103.67s CPU    104.53s WALL (     140 calls)

     Called by sum_band:
     sum_band:bec :      0.12s CPU      0.11s WALL (     140 calls)
     addusdens    :     13.79s CPU     13.84s WALL (      10 calls)

     Called by *egterg:
     h_psi        :     75.22s CPU     75.97s WALL (     593 calls)
     s_psi        :      4.01s CPU      4.02s WALL (     593 calls)
     g_psi        :      0.36s CPU      0.36s WALL (     453 calls)
     cdiaghg      :      8.98s CPU      8.99s WALL (     579 calls)
     cegterg:over :      5.77s CPU      5.80s WALL (     453 calls)
     cegterg:upda :      3.42s CPU      3.42s WALL (     453 calls)
     cegterg:last :      2.17s CPU      2.18s WALL (     162 calls)

     Called by h_psi:
     h_psi:vloc   :     61.30s CPU     61.98s WALL (     593 calls)
     h_psi:vnl    :      8.61s CPU      8.63s WALL (     593 calls)
     add_vuspsi   :      4.06s CPU      4.06s WALL (     593 calls)
     vhpsi        :      5.14s CPU      5.19s WALL (     593 calls)

     General routines
     calbec       :      9.95s CPU     10.03s WALL (    1466 calls)
     fft          :      3.15s CPU      3.42s WALL (     171 calls)
     ffts         :      0.05s CPU      0.11s WALL (      21 calls)
     fftw         :     60.92s CPU     61.40s WALL (   41140 calls)
     interpolate  :      0.32s CPU      0.49s WALL (      21 calls)
     davcio       :      0.00s CPU      0.30s WALL (     294 calls)

     Parallel routines
     fft_scatter  :     21.46s CPU     22.19s WALL (   41332 calls)
     Hubbard U routines
     new_ns       :      0.97s CPU      1.08s WALL (      10 calls)
     vhpsi        :      5.14s CPU      5.19s WALL (     593 calls)

     PWSCF        :  2m49.26s CPU     2m52.49s WALL


   This run was terminated on:  14:57:29  11Nov2012            

=------------------------------------------------------------------------------=
