   JOB DONE.
=------------------------------------------------------------------------------=

     Program PWSCF v.5.0.1 starts on 11Nov2012 at 14:43:30 

     This program is part of the open-source Quantum ESPRESSO suite
     for quantum simulation of materials; please cite
         "P. Giannozzi et al., J. Phys.:Condens. Matter 21 395502 (2009);
          URL http://www.quantum-espresso.org", 
     in publications or presentations arising from this work. More details at
     http://www.quantum-espresso.org/quote.php

     Parallel version (MPI), running on     2 processors
     R & G space division:  proc/pool =    2

     Current dimensions of program PWSCF are:
     Max number of different atomic species (ntypx) = 10
     Max number of k-points (npk) =  40000
     Max angular momentum in pseudopotentials (lmaxx) =  3
     Reading input from CoLaO_U100_a-5.in
               file Co.pbe-nd-rrkjus.UPF: wavefunction(s)  4S 3D renormalized
               file O.pbe-rrkjus.UPF: wavefunction(s)  2S renormalized

     Subspace diagonalization in iterative solution of the eigenvalue problem:
     a serial algorithm will be used


     Parallelization info
     --------------------
     sticks:   dense  smooth     PW     G-vecs:    dense   smooth      PW
     Min        1112     444    131                34808     8786    1448
     Max        1113     445    132                34809     8787    1449
     Sum        2225     889    263                69617    17573    2897


     Title: 
     GGA + U, U = 1.000, alpha = -0.050                                         


     bravais-lattice index     =            5
     lattice parameter (alat)  =      10.3292  a.u.
     unit-cell volume          =     793.0599 (a.u.)^3
     number of atoms/cell      =           10
     number of atomic types    =            4
     number of electrons       =        76.00
     number of Kohn-Sham states=           46
     kinetic-energy cutoff     =      30.0000  Ry
     charge density cutoff     =     300.0000  Ry
     convergence threshold     =      1.0E-08
     mixing beta               =       0.2000
     number of iterations used =            8  plain     mixing
     Exchange-correlation      =  SLA  PW   PBE  PBE ( 1 4 3 4 0)
     EXX-fraction              =        0.00

     celldm(1)=  10.329242  celldm(2)=   0.000000  celldm(3)=   0.000000
     celldm(4)=   0.488100  celldm(5)=   0.000000  celldm(6)=   0.000000

     crystal axes: (cart. coord. in units of alat)
               a(1) = (   0.505915  -0.292090   0.811624 )  
               a(2) = (   0.000000   0.584180   0.811624 )  
               a(3) = (  -0.505915  -0.292090   0.811624 )  

     reciprocal axes: (cart. coord. in units 2 pi/alat)
               b(1) = (  0.988308 -0.570600  0.410699 )  
               b(2) = (  0.000000  1.141200  0.410699 )  
               b(3) = ( -0.988308 -0.570600  0.410699 )  


     PseudoPot. # 1 for Co read from file:
     /home/mcurnan/dft-course/Project1/example_LaCoO3/Co.pbe-nd-rrkjus.UPF
     MD5 check sum: 3e47a84addf5e975e0edeaeee2a73f59
     Pseudo is Ultrasoft + core correction, Zval =  9.0
     Generated by new atomic code, or converted to UPF format
     Using radial grid of  961 points,  6 beta functions with: 
                l(1) =   0
                l(2) =   0
                l(3) =   1
                l(4) =   1
                l(5) =   2
                l(6) =   2
     Q(r) pseudized with 0 coefficients 


     PseudoPot. # 2 for La read from file:
     /home/mcurnan/dft-course/Project1/example_LaCoO3/La.pbe-nsp-van.UPF
     MD5 check sum: b2f11743f52dde65f77d1302becd7929
     Pseudo is Ultrasoft + core correction, Zval = 11.0
     Generated by new atomic code, or converted to UPF format
     Using radial grid of  907 points,  6 beta functions with: 
                l(1) =   0
                l(2) =   0
                l(3) =   1
                l(4) =   1
                l(5) =   2
                l(6) =   2
     Q(r) pseudized with  6 coefficients,  rinner =    1.200   1.200   1.200
                                                       1.200   1.200

     PseudoPot. # 3 for La read from file:
     /home/mcurnan/dft-course/Project1/example_LaCoO3/La.pbe-nsp-van.UPF
     MD5 check sum: b2f11743f52dde65f77d1302becd7929
     Pseudo is Ultrasoft + core correction, Zval = 11.0
     Generated by new atomic code, or converted to UPF format
     Using radial grid of  907 points,  6 beta functions with: 
                l(1) =   0
                l(2) =   0
                l(3) =   1
                l(4) =   1
                l(5) =   2
                l(6) =   2
     Q(r) pseudized with  6 coefficients,  rinner =    1.200   1.200   1.200
                                                       1.200   1.200

     PseudoPot. # 4 for O  read from file:
     /home/mcurnan/dft-course/Project1/example_LaCoO3/O.pbe-rrkjus.UPF
     MD5 check sum: 390ba29e75625707450f3bd3f0eb6be9
     Pseudo is Ultrasoft, Zval =  6.0
     Generated by new atomic code, or converted to UPF format
     Using radial grid of 1269 points,  4 beta functions with: 
                l(1) =   0
                l(2) =   0
                l(3) =   1
                l(4) =   1
     Q(r) pseudized with 0 coefficients 


     atomic species   valence    mass     pseudopotential
        Co1            9.00     1.00000     Co( 1.00)
        La1           11.00     1.00000     La( 1.00)
        La2           11.00     1.00000     La( 1.00)
        O1             6.00     1.00000     O ( 1.00)
 -----
     simplified LDA+U calculation, Hubbard_lmax = 2
     atomic species  L   Hubbard U  Hubbard alpha
        Co1          2    1.000000    0.000000
        La1          2    0.000000   -0.050000
        La2          2    0.000000    0.000000
        O1           1    0.000000    0.000000
 -----

      3 Sym. Ops. (no inversion) found


                                    s                        frac. trans.

      isym =  1     identity                                     

 cryst.   s( 1) = (     1          0          0      )
                  (     0          1          0      )
                  (     0          0          1      )

 cart.    s( 1) = (  1.0000000  0.0000000  0.0000000 )
                  (  0.0000000  1.0000000  0.0000000 )
                  (  0.0000000  0.0000000  1.0000000 )


      isym =  2     120 deg rotation - cryst. axis [0,0,1]       

 cryst.   s( 2) = (     0          1          0      )
                  (     0          0          1      )
                  (     1          0          0      )

 cart.    s( 2) = ( -0.5000000 -0.8660254  0.0000000 )
                  (  0.8660254 -0.5000000  0.0000000 )
                  (  0.0000000  0.0000000  1.0000000 )


      isym =  3     120 deg rotation - cryst. axis [0,0,-1]      

 cryst.   s( 3) = (     0          0          1      )
                  (     1          0          0      )
                  (     0          1          0      )

 cart.    s( 3) = ( -0.5000000  0.8660254  0.0000000 )
                  ( -0.8660254 -0.5000000  0.0000000 )
                  (  0.0000000  0.0000000  1.0000000 )


     point group C_3 (3)    
     there are  3 classes
     the character table:

       E     C3    C3^2 
A      1.00  1.00  1.00
E      1.00 -0.50 -0.50
E*     1.00 -0.50 -0.50
     imaginary part
A      0.00  0.00  0.00
E      0.00  0.87 -0.87
E*     0.00 -0.87  0.87

     the symmetry operations in each class:
     E        1
     C3       2
     C3^2     3

   Cartesian axes

     site n.     atom                  positions (alat units)
         1           Co1 tau(   1) = (   0.0000000   0.0000000   1.8261537  )
         2           Co1 tau(   2) = (   0.0000000   0.0000000   0.6087179  )
         3           La1 tau(   3) = (   0.0000000   0.0000000   0.0000000  )
         4           La2 tau(   4) = (   0.0000000   0.0000000   1.2174358  )
         5           O1  tau(   5) = (   0.2831100  -0.0928263   1.6236536  )
         6           O1  tau(   6) = (  -0.2219449  -0.1987674   1.6236536  )
         7           O1  tau(   7) = (  -0.0611651   0.2915936   1.6236536  )
         8           O1  tau(   8) = (   0.2228050   0.3849164   1.2170300  )
         9           O1  tau(   9) = (   0.2219449  -0.3854130   1.2170300  )
        10           O1  tau(  10) = (  -0.4447499   0.0004966   1.2170300  )

   Crystallographic axes

     site n.     atom                  positions (cryst. coord.)
         1           Co1 tau(   1) = (  0.7500000  0.7500000  0.7500000  )
         2           Co1 tau(   2) = (  0.2500000  0.2500000  0.2500000  )
         3           La1 tau(   3) = (  0.0000000  0.0000000  0.0000000  )
         4           La2 tau(   4) = (  0.5000000  0.5000000  0.5000000  )
         5           O1  tau(   5) = (  0.9996000  0.5609000  0.4400000  )
         6           O1  tau(   6) = (  0.5609000  0.4400000  0.9996000  )
         7           O1  tau(   7) = (  0.4400000  0.9996000  0.5609000  )
         8           O1  tau(   8) = (  0.5004000  0.9391000  0.0600000  )
         9           O1  tau(   9) = (  0.9391000  0.0600000  0.5004000  )
        10           O1  tau(  10) = (  0.0600000  0.5004000  0.9391000  )

     number of k points=    14  gaussian smearing, width (Ry)=  0.0300
                       cart. coord. in units 2pi/alat
        k(    1) = (   0.0000000   0.0000000   0.0000000), wk =   0.0312500
        k(    2) = (  -0.2470771  -0.1426500   0.1026748), wk =   0.1875000
        k(    3) = (   0.4941541   0.2853000  -0.2053496), wk =   0.0937500
        k(    4) = (  -0.2470771   0.1426500   0.2053496), wk =   0.1875000
        k(    5) = (   0.4941541   0.5706001  -0.1026748), wk =   0.1875000
        k(    6) = (   0.2470771   0.4279500   0.0000000), wk =   0.1875000
        k(    7) = (   0.4941541  -0.2853000  -0.4106993), wk =   0.0937500
        k(    8) = (   0.0000000   0.0000000   0.3080244), wk =   0.0625000
        k(    9) = (   0.7412312   0.4279500   0.0000000), wk =   0.1875000
        k(   10) = (   0.4941541   0.2853000   0.1026748), wk =   0.1875000
        k(   11) = (   0.7412312  -0.4279500  -0.3080244), wk =   0.1875000
        k(   12) = (   0.4941541  -0.5706001  -0.2053496), wk =   0.1875000
        k(   13) = (   0.0000000   0.0000000  -0.6160489), wk =   0.0312500
        k(   14) = (   0.4941541  -0.5706001   0.1026748), wk =   0.1875000

                       cryst. coord.
        k(    1) = (   0.0000000   0.0000000   0.0000000), wk =   0.0312500
        k(    2) = (   0.0000000   0.0000000   0.2500000), wk =   0.1875000
        k(    3) = (   0.0000000   0.0000000  -0.5000000), wk =   0.0937500
        k(    4) = (   0.0000000   0.2500000   0.2500000), wk =   0.1875000
        k(    5) = (   0.0000000   0.2500000  -0.5000000), wk =   0.1875000
        k(    6) = (   0.0000000   0.2500000  -0.2500000), wk =   0.1875000
        k(    7) = (   0.0000000  -0.5000000  -0.5000000), wk =   0.0937500
        k(    8) = (   0.2500000   0.2500000   0.2500000), wk =   0.0625000
        k(    9) = (   0.2500000   0.2500000  -0.5000000), wk =   0.1875000
        k(   10) = (   0.2500000   0.2500000  -0.2500000), wk =   0.1875000
        k(   11) = (   0.2500000  -0.5000000  -0.5000000), wk =   0.1875000
        k(   12) = (   0.2500000  -0.5000000  -0.2500000), wk =   0.1875000
        k(   13) = (  -0.5000000  -0.5000000  -0.5000000), wk =   0.0312500
        k(   14) = (   0.5000000  -0.2500000   0.0000000), wk =   0.1875000

     Dense  grid:    69617 G-vectors     FFT dimensions: (  60,  60,  60)

     Smooth grid:    17573 G-vectors     FFT dimensions: (  40,  40,  40)

     Largest allocated arrays     est. size (Mb)     dimensions
        Kohn-Sham Wavefunctions         0.78 Mb     (   1117,   46)
        Atomic wavefunctions            1.06 Mb     (   1117,   62)
        NL pseudopotentials             2.05 Mb     (   1117,  120)
        Each V/rho on FFT grid          1.65 Mb     ( 108000)
        Each G-vector array             0.27 Mb     (  34808)
        G-vector shells                 0.04 Mb     (   4682)
     Largest temporary arrays     est. size (Mb)     dimensions
        Auxiliary wavefunctions         3.14 Mb     (   1117,  184)
        Each subspace H/S matrix        0.52 Mb     ( 184, 184)
        Each <psi_i|beta_j> matrix      0.08 Mb     (    120,   46)
        Arrays for rho mixing          13.18 Mb     ( 108000,   8)

     Check: negative/imaginary core charge=   -0.000028    0.000000

     The initial density is read from file :
     /home/mcurnan/dft-course/Project1/example_LaCoO3/100/La/alpha/CoLaO_U100.save/charge-density.dat

 --- in v_hubbard ---
Hubbard energy    0.0817
 -------
     Number of +U iterations with fixed ns =  0
     Starting occupations:
 --- enter write_ns ---
 LDA+U parameters:
U( 1)     =  1.00000000
alpha( 1) =  0.00000000
U( 2)     =  0.00000000
alpha( 2) = -0.05000000
U( 3)     =  0.00000000
alpha( 3) =  0.00000000
U( 4)     =  0.00000000
alpha( 4) =  0.00000000
atom    1   Tr[ns(na)] =   8.02205
    eigenvalues: 
  0.596  0.596  0.938  0.941  0.941
    eigenvectors:
  0.000  0.000  1.000  0.000  0.000
  0.334  0.321  0.000  0.004  0.341
  0.321  0.334  0.000  0.341  0.004
  0.288  0.057  0.000  0.515  0.140
  0.057  0.288  0.000  0.140  0.515
    occupations:
  0.938  0.000  0.000  0.000  0.000
  0.000  0.715  0.000 -0.060  0.152
  0.000  0.000  0.715  0.152  0.060
  0.000 -0.060  0.152  0.822  0.000
  0.000  0.152  0.060  0.000  0.822
atom    2   Tr[ns(na)] =   8.02143
    eigenvalues: 
  0.595  0.595  0.938  0.941  0.941
    eigenvectors:
  0.000  0.000  1.000  0.000  0.000
  0.638  0.017  0.000  0.223  0.122
  0.017  0.638  0.000  0.122  0.223
  0.015  0.330  0.000  0.470  0.185
  0.330  0.015  0.000  0.185  0.470
    occupations:
  0.938  0.000  0.000  0.000  0.000
  0.000  0.715  0.000  0.060  0.153
  0.000  0.000  0.715  0.153 -0.060
  0.000  0.060  0.153  0.822  0.000
  0.000  0.153 -0.060  0.000  0.822
atom    3   Tr[ns(na)] =   3.80283
    eigenvalues: 
  0.355  0.355  0.384  0.403  0.403
    eigenvectors:
  0.000  0.000  1.000  0.000  0.000
  0.781  0.140  0.000  0.012  0.068
  0.140  0.781  0.000  0.068  0.012
  0.013  0.067  0.000  0.780  0.140
  0.067  0.013  0.000  0.140  0.780
    occupations:
  0.384  0.000  0.000  0.000  0.000
  0.000  0.359  0.000  0.000  0.013
  0.000  0.000  0.359  0.013  0.000
  0.000  0.000  0.013  0.399  0.000
  0.000  0.013  0.000  0.000  0.399
atom    4   Tr[ns(na)] =   3.80283
    eigenvalues: 
  0.355  0.355  0.384  0.403  0.403
    eigenvectors:
  0.000  0.000  1.000  0.000  0.000
  0.781  0.140  0.000  0.012  0.068
  0.140  0.781  0.000  0.068  0.012
  0.013  0.067  0.000  0.780  0.140
  0.067  0.013  0.000  0.140  0.780
    occupations:
  0.384  0.000  0.000  0.000  0.000
  0.000  0.359  0.000  0.000  0.013
  0.000  0.000  0.359  0.013  0.000
  0.000  0.000  0.013  0.399  0.000
  0.000  0.013  0.000  0.000  0.399
atom    5   Tr[ns(na)] =   5.43358
    eigenvalues: 
  0.846  0.929  0.941
    eigenvectors:
  0.340  0.000  0.660
  0.496  0.250  0.255
  0.164  0.750  0.086
    occupations:
  0.909 -0.039  0.022
 -0.039  0.891  0.022
  0.022  0.022  0.917
atom    6   Tr[ns(na)] =   5.43358
    eigenvalues: 
  0.846  0.929  0.941
    eigenvectors:
  0.340  0.000  0.660
  0.494  0.250  0.256
  0.166  0.750  0.085
    occupations:
  0.909  0.039  0.022
  0.039  0.891 -0.022
  0.022 -0.022  0.917
atom    7   Tr[ns(na)] =   5.43358
    eigenvalues: 
  0.846  0.929  0.941
    eigenvectors:
  0.340  0.000  0.660
  0.000  1.000  0.000
  0.660  0.000  0.340
    occupations:
  0.909  0.000 -0.045
  0.000  0.929  0.000
 -0.045  0.000  0.879
atom    8   Tr[ns(na)] =   5.43358
    eigenvalues: 
  0.846  0.929  0.941
    eigenvectors:
  0.340  0.000  0.660
  0.496  0.250  0.255
  0.164  0.750  0.086
    occupations:
  0.909 -0.039  0.022
 -0.039  0.891  0.022
  0.022  0.022  0.917
atom    9   Tr[ns(na)] =   5.43358
    eigenvalues: 
  0.846  0.929  0.941
    eigenvectors:
  0.340  0.000  0.660
  0.494  0.250  0.256
  0.166  0.750  0.085
    occupations:
  0.909  0.039  0.022
  0.039  0.891 -0.022
  0.022 -0.022  0.917
atom   10   Tr[ns(na)] =   5.43358
    eigenvalues: 
  0.846  0.929  0.941
    eigenvectors:
  0.340  0.000  0.660
  0.000  1.000  0.000
  0.660  0.000  0.340
    occupations:
  0.909  0.000 -0.045
  0.000  0.929  0.000
 -0.045  0.000  0.879
N of occupied +U levels =  56.2506014
 --- exit write_ns ---
 LDA+U Projector read from file 
     Starting wfc from file

     total cpu time spent up to now is        9.3 secs

     per-process dynamical memory:    47.1 Mb

     Self-consistent Calculation

     iteration #  1     ecut=    30.00 Ry     beta=0.20
     Davidson diagonalization with overlap
     c_bands:  1 eigenvalues not converged
     c_bands:  1 eigenvalues not converged
     c_bands:  1 eigenvalues not converged
     c_bands:  1 eigenvalues not converged
     c_bands:  1 eigenvalues not converged
     c_bands:  1 eigenvalues not converged
     c_bands:  1 eigenvalues not converged
     c_bands:  1 eigenvalues not converged
     c_bands:  1 eigenvalues not converged
     ethr =  1.00E-10,  avg # of iterations = 17.7
 --- enter write_ns ---
 LDA+U parameters:
U( 1)     =  1.00000000
alpha( 1) =  0.00000000
U( 2)     =  0.00000000
alpha( 2) = -0.05000000
U( 3)     =  0.00000000
alpha( 3) =  0.00000000
U( 4)     =  0.00000000
alpha( 4) =  0.00000000
atom    1   Tr[ns(na)] =   8.07636
    eigenvalues: 
  0.577  0.577  0.961  0.962  0.962
    eigenvectors:
  0.000  0.000  1.000  0.000  0.000
  0.331  0.324  0.000  0.005  0.341
  0.324  0.331  0.000  0.341  0.005
  0.287  0.058  0.000  0.513  0.141
  0.058  0.287  0.000  0.141  0.513
    occupations:
  0.961  0.000  0.000  0.000  0.000
  0.000  0.710  0.000 -0.066  0.171
  0.000  0.000  0.710  0.171  0.066
  0.000 -0.066  0.171  0.829  0.000
  0.000  0.171  0.066  0.000  0.829
atom    2   Tr[ns(na)] =   8.07312
    eigenvalues: 
  0.575  0.575  0.961  0.962  0.962
    eigenvectors:
  0.000  0.000  1.000  0.000  0.000
  0.635  0.019  0.000  0.220  0.125
  0.019  0.635  0.000  0.125  0.220
  0.013  0.333  0.000  0.469  0.185
  0.333  0.013  0.000  0.185  0.469
    occupations:
  0.961  0.000  0.000  0.000  0.000
  0.000  0.709  0.000  0.065  0.172
  0.000  0.000  0.709  0.172 -0.065
  0.000  0.065  0.172  0.829  0.000
  0.000  0.172 -0.065  0.000  0.829
atom    3   Tr[ns(na)] =   3.81809
    eigenvalues: 
  0.358  0.358  0.385  0.404  0.404
    eigenvectors:
  0.000  0.000  1.000  0.000  0.000
  0.782  0.139  0.000  0.012  0.067
  0.139  0.782  0.000  0.067  0.012
  0.012  0.066  0.000  0.781  0.140
  0.066  0.012  0.000  0.140  0.781
    occupations:
  0.385  0.000  0.000  0.000  0.000
  0.000  0.361  0.000  0.000  0.013
  0.000  0.000  0.361  0.013  0.000
  0.000  0.000  0.013  0.401  0.000
  0.000  0.013  0.000  0.000  0.401
atom    4   Tr[ns(na)] =   3.80055
    eigenvalues: 
  0.356  0.356  0.383  0.403  0.403
    eigenvectors:
  0.000  0.000  1.000  0.000  0.000
  0.781  0.140  0.000  0.012  0.068
  0.140  0.781  0.000  0.068  0.012
  0.013  0.067  0.000  0.780  0.140
  0.067  0.013  0.000  0.140  0.780
    occupations:
  0.383  0.000  0.000  0.000  0.000
  0.000  0.360  0.000  0.000  0.013
  0.000  0.000  0.360  0.013  0.000
  0.000  0.000  0.013  0.399  0.000
  0.000  0.013  0.000  0.000  0.399
atom    5   Tr[ns(na)] =   5.42028
    eigenvalues: 
  0.841  0.928  0.942
    eigenvectors:
  0.341  0.000  0.659
  0.495  0.250  0.255
  0.164  0.750  0.086
    occupations:
  0.907 -0.042  0.024
 -0.042  0.888  0.023
  0.024  0.023  0.914
atom    6   Tr[ns(na)] =   5.42028
    eigenvalues: 
  0.841  0.928  0.942
    eigenvectors:
  0.341  0.000  0.659
  0.494  0.250  0.256
  0.165  0.750  0.085
    occupations:
  0.907  0.041  0.024
  0.041  0.888 -0.023
  0.024 -0.023  0.914
atom    7   Tr[ns(na)] =   5.42028
    eigenvalues: 
  0.841  0.928  0.942
    eigenvectors:
  0.341  0.000  0.659
  0.000  1.000  0.000
  0.659  0.000  0.341
    occupations:
  0.907  0.000 -0.048
  0.000  0.928  0.000
 -0.048  0.000  0.875
atom    8   Tr[ns(na)] =   5.42037
    eigenvalues: 
  0.841  0.928  0.942
    eigenvectors:
  0.341  0.000  0.659
  0.495  0.250  0.255
  0.164  0.750  0.086
    occupations:
  0.907 -0.041  0.024
 -0.041  0.888  0.023
  0.024  0.023  0.915
atom    9   Tr[ns(na)] =   5.42037
    eigenvalues: 
  0.841  0.928  0.942
    eigenvectors:
  0.341  0.000  0.659
  0.494  0.250  0.256
  0.165  0.750  0.085
    occupations:
  0.907  0.041  0.024
  0.041  0.888 -0.023
  0.024 -0.023  0.915
atom   10   Tr[ns(na)] =   5.42037
    eigenvalues: 
  0.841  0.928  0.942
    eigenvectors:
  0.341  0.000  0.659
  0.000  1.000  0.000
  0.659  0.000  0.341
    occupations:
  0.907  0.000 -0.048
  0.000  0.928  0.000
 -0.048  0.000  0.875
N of occupied +U levels =  56.2900796
 --- exit write_ns ---
 --- in v_hubbard ---
Hubbard energy    0.0802
 -------

     total cpu time spent up to now is       48.8 secs

     total energy              =    -538.25451787 Ry
     Harris-Foulkes estimate   =    -538.25528756 Ry
     estimated scf accuracy    <       0.00398829 Ry

     iteration #  2     ecut=    30.00 Ry     beta=0.20
     Davidson diagonalization with overlap
     ethr =  5.25E-06,  avg # of iterations =  1.5
 --- enter write_ns ---
 LDA+U parameters:
U( 1)     =  1.00000000
alpha( 1) =  0.00000000
U( 2)     =  0.00000000
alpha( 2) = -0.05000000
U( 3)     =  0.00000000
alpha( 3) =  0.00000000
U( 4)     =  0.00000000
alpha( 4) =  0.00000000
atom    1   Tr[ns(na)] =   8.02724
    eigenvalues: 
  0.566  0.566  0.960  0.961  0.961
    eigenvectors:
  0.000  0.000  1.000  0.000  0.000
  0.333  0.322  0.000  0.004  0.340
  0.322  0.333  0.000  0.340  0.004
  0.286  0.058  0.000  0.514  0.141
  0.058  0.286  0.000  0.141  0.514
    occupations:
  0.960  0.000  0.000  0.000  0.000
  0.000  0.702  0.000 -0.068  0.175
  0.000  0.000  0.702  0.175  0.068
  0.000 -0.068  0.175  0.825  0.000
  0.000  0.175  0.068  0.000  0.825
atom    2   Tr[ns(na)] =   8.03539
    eigenvalues: 
  0.566  0.566  0.961  0.963  0.963
    eigenvectors:
  0.000  0.000  1.000  0.000  0.000
  0.637  0.018  0.000  0.221  0.124
  0.018  0.637  0.000  0.124  0.221
  0.013  0.331  0.000  0.470  0.185
  0.331  0.013  0.000  0.185  0.470
    occupations:
  0.961  0.000  0.000  0.000  0.000
  0.000  0.702  0.000  0.068  0.176
  0.000  0.000  0.702  0.176 -0.068
  0.000  0.068  0.176  0.826  0.000
  0.000  0.176 -0.068  0.000  0.826
atom    3   Tr[ns(na)] =   3.81505
    eigenvalues: 
  0.357  0.357  0.385  0.404  0.404
    eigenvectors:
  0.000  0.000  1.000  0.000  0.000
  0.782  0.139  0.000  0.011  0.067
  0.139  0.782  0.000  0.067  0.011
  0.012  0.066  0.000  0.781  0.140
  0.066  0.012  0.000  0.140  0.781
    occupations:
  0.385  0.000  0.000  0.000  0.000
  0.000  0.361  0.000  0.000  0.013
  0.000  0.000  0.361  0.013  0.000
  0.000  0.000  0.013  0.401  0.000
  0.000  0.013  0.000  0.000  0.401
atom    4   Tr[ns(na)] =   3.79859
    eigenvalues: 
  0.355  0.355  0.383  0.403  0.403
    eigenvectors:
  0.000  0.000  1.000  0.000  0.000
  0.781  0.139  0.000  0.012  0.068
  0.139  0.781  0.000  0.068  0.012
  0.013  0.067  0.000  0.780  0.140
  0.067  0.013  0.000  0.140  0.780
    occupations:
  0.383  0.000  0.000  0.000  0.000
  0.000  0.359  0.000  0.000  0.013
  0.000  0.000  0.359  0.013  0.000
  0.000  0.000  0.013  0.399  0.000
  0.000  0.013  0.000  0.000  0.399
atom    5   Tr[ns(na)] =   5.43426
    eigenvalues: 
  0.845  0.929  0.943
    eigenvectors:
  0.339  0.000  0.661
  0.496  0.250  0.254
  0.165  0.750  0.085
    occupations:
  0.910 -0.040  0.023
 -0.040  0.891  0.022
  0.023  0.022  0.917
atom    6   Tr[ns(na)] =   5.43426
    eigenvalues: 
  0.845  0.929  0.943
    eigenvectors:
  0.339  0.000  0.661
  0.496  0.250  0.255
  0.165  0.750  0.084
    occupations:
  0.910  0.040  0.023
  0.040  0.891 -0.022
  0.023 -0.022  0.917
atom    7   Tr[ns(na)] =   5.43426
    eigenvalues: 
  0.845  0.929  0.943
    eigenvectors:
  0.339  0.000  0.661
  0.000  1.000  0.000
  0.661  0.000  0.339
    occupations:
  0.910  0.000 -0.046
  0.000  0.929  0.000
 -0.046  0.000  0.878
atom    8   Tr[ns(na)] =   5.43427
    eigenvalues: 
  0.845  0.930  0.943
    eigenvectors:
  0.339  0.000  0.661
  0.496  0.250  0.254
  0.165  0.750  0.085
    occupations:
  0.910 -0.040  0.023
 -0.040  0.891  0.022
  0.023  0.022  0.917
atom    9   Tr[ns(na)] =   5.43427
    eigenvalues: 
  0.845  0.930  0.943
    eigenvectors:
  0.339  0.000  0.661
  0.496  0.250  0.255
  0.165  0.750  0.084
    occupations:
  0.910  0.040  0.023
  0.040  0.891 -0.022
  0.023 -0.022  0.917
atom   10   Tr[ns(na)] =   5.43427
    eigenvalues: 
  0.845  0.930  0.943
    eigenvectors:
  0.339  0.000  0.661
  0.000  1.000  0.000
  0.661  0.000  0.339
    occupations:
  0.910  0.000 -0.046
  0.000  0.930  0.000
 -0.046  0.000  0.878
N of occupied +U levels =  56.2818464
 --- exit write_ns ---
 --- in v_hubbard ---
Hubbard energy    0.0795
 -------

     total cpu time spent up to now is       62.3 secs

     total energy              =    -538.25497067 Ry
     Harris-Foulkes estimate   =    -538.25505520 Ry
     estimated scf accuracy    <       0.00204355 Ry

     iteration #  3     ecut=    30.00 Ry     beta=0.20
     Davidson diagonalization with overlap
     ethr =  2.69E-06,  avg # of iterations =  1.0
 --- enter write_ns ---
 LDA+U parameters:
U( 1)     =  1.00000000
alpha( 1) =  0.00000000
U( 2)     =  0.00000000
alpha( 2) = -0.05000000
U( 3)     =  0.00000000
alpha( 3) =  0.00000000
U( 4)     =  0.00000000
alpha( 4) =  0.00000000
atom    1   Tr[ns(na)] =   8.05335
    eigenvalues: 
  0.570  0.570  0.961  0.962  0.962
    eigenvectors:
  0.000  0.000  1.000  0.000  0.000
  0.333  0.323  0.000  0.004  0.340
  0.323  0.333  0.000  0.340  0.004
  0.287  0.058  0.000  0.515  0.141
  0.058  0.287  0.000  0.141  0.515
    occupations:
  0.961  0.000  0.000  0.000  0.000
  0.000  0.705  0.000 -0.068  0.174
  0.000  0.000  0.705  0.174  0.068
  0.000 -0.068  0.174  0.827  0.000
  0.000  0.174  0.068  0.000  0.827
atom    2   Tr[ns(na)] =   8.03278
    eigenvalues: 
  0.567  0.567  0.960  0.961  0.961
    eigenvectors:
  0.000  0.000  1.000  0.000  0.000
  0.636  0.019  0.000  0.220  0.125
  0.019  0.636  0.000  0.125  0.220
  0.013  0.332  0.000  0.471  0.185
  0.332  0.013  0.000  0.185  0.471
    occupations:
  0.960  0.000  0.000  0.000  0.000
  0.000  0.703  0.000  0.067  0.175
  0.000  0.000  0.703  0.175 -0.067
  0.000  0.067  0.175  0.825  0.000
  0.000  0.175 -0.067  0.000  0.825
atom    3   Tr[ns(na)] =   3.81430
    eigenvalues: 
  0.357  0.357  0.385  0.404  0.404
    eigenvectors:
  0.000  0.000  1.000  0.000  0.000
  0.782  0.139  0.000  0.011  0.067
  0.139  0.782  0.000  0.067  0.011
  0.012  0.066  0.000  0.781  0.140
  0.066  0.012  0.000  0.140  0.781
    occupations:
  0.385  0.000  0.000  0.000  0.000
  0.000  0.361  0.000  0.000  0.013
  0.000  0.000  0.361  0.013  0.000
  0.000  0.000  0.013  0.400  0.000
  0.000  0.013  0.000  0.000  0.400
atom    4   Tr[ns(na)] =   3.79830
    eigenvalues: 
  0.355  0.355  0.383  0.403  0.403
    eigenvectors:
  0.000  0.000  1.000  0.000  0.000
  0.781  0.140  0.000  0.012  0.068
  0.140  0.781  0.000  0.068  0.012
  0.013  0.067  0.000  0.780  0.140
  0.067  0.013  0.000  0.140  0.780
    occupations:
  0.383  0.000  0.000  0.000  0.000
  0.000  0.359  0.000  0.000  0.013
  0.000  0.000  0.359  0.013  0.000
  0.000  0.000  0.013  0.399  0.000
  0.000  0.013  0.000  0.000  0.399
atom    5   Tr[ns(na)] =   5.43079
    eigenvalues: 
  0.844  0.929  0.943
    eigenvectors:
  0.339  0.000  0.661
  0.497  0.249  0.254
  0.164  0.751  0.085
    occupations:
  0.909 -0.041  0.023
 -0.041  0.890  0.022
  0.023  0.022  0.916
atom    6   Tr[ns(na)] =   5.43079
    eigenvalues: 
  0.844  0.929  0.943
    eigenvectors:
  0.339  0.000  0.661
  0.494  0.251  0.255
  0.166  0.749  0.085
    occupations:
  0.909  0.041  0.024
  0.041  0.890 -0.022
  0.024 -0.022  0.916
atom    7   Tr[ns(na)] =   5.43079
    eigenvalues: 
  0.844  0.929  0.943
    eigenvectors:
  0.339  0.000  0.661
  0.000  1.000  0.000
  0.661  0.000  0.339
    occupations:
  0.909  0.000 -0.047
  0.000  0.929  0.000
 -0.047  0.000  0.877
atom    8   Tr[ns(na)] =   5.43081
    eigenvalues: 
  0.844  0.929  0.943
    eigenvectors:
  0.339  0.000  0.661
  0.497  0.249  0.254
  0.164  0.751  0.085
    occupations:
  0.909 -0.041  0.023
 -0.041  0.890  0.022
  0.023  0.022  0.916
atom    9   Tr[ns(na)] =   5.43081
    eigenvalues: 
  0.844  0.929  0.943
    eigenvectors:
  0.339  0.000  0.661
  0.494  0.251  0.255
  0.166  0.749  0.085
    occupations:
  0.909  0.040  0.023
  0.040  0.890 -0.023
  0.023 -0.023  0.916
atom   10   Tr[ns(na)] =   5.43081
    eigenvalues: 
  0.844  0.929  0.943
    eigenvectors:
  0.339  0.000  0.661
  0.000  1.000  0.000
  0.661  0.000  0.339
    occupations:
  0.909  0.000 -0.047
  0.000  0.929  0.000
 -0.047  0.000  0.877
N of occupied +U levels =  56.2835421
 --- exit write_ns ---
 --- in v_hubbard ---
Hubbard energy    0.0785
 -------

     total cpu time spent up to now is       76.9 secs

     total energy              =    -538.25498812 Ry
     Harris-Foulkes estimate   =    -538.25503704 Ry
     estimated scf accuracy    <       0.00125582 Ry

     iteration #  4     ecut=    30.00 Ry     beta=0.20
     Davidson diagonalization with overlap
     ethr =  1.65E-06,  avg # of iterations =  1.0
 --- enter write_ns ---
 LDA+U parameters:
U( 1)     =  1.00000000
alpha( 1) =  0.00000000
U( 2)     =  0.00000000
alpha( 2) = -0.05000000
U( 3)     =  0.00000000
alpha( 3) =  0.00000000
U( 4)     =  0.00000000
alpha( 4) =  0.00000000
atom    1   Tr[ns(na)] =   8.01129
    eigenvalues: 
  0.566  0.566  0.957  0.958  0.958
    eigenvectors:
  0.000  0.000  1.000  0.000  0.000
  0.332  0.323  0.000  0.005  0.340
  0.323  0.332  0.000  0.340  0.005
  0.285  0.059  0.000  0.514  0.142
  0.059  0.285  0.000  0.142  0.514
    occupations:
  0.957  0.000  0.000  0.000  0.000
  0.000  0.701  0.000 -0.067  0.174
  0.000  0.000  0.701  0.174  0.067
  0.000 -0.067  0.174  0.823  0.000
  0.000  0.174  0.067  0.000  0.823
atom    2   Tr[ns(na)] =   8.07689
    eigenvalues: 
  0.572  0.572  0.964  0.965  0.965
    eigenvectors:
  0.000  0.000  1.000  0.000  0.000
  0.637  0.018  0.000  0.221  0.123
  0.018  0.637  0.000  0.123  0.221
  0.014  0.330  0.000  0.471  0.185
  0.330  0.014  0.000  0.185  0.471
    occupations:
  0.964  0.000  0.000  0.000  0.000
  0.000  0.707  0.000  0.068  0.174
  0.000  0.000  0.707  0.174 -0.068
  0.000  0.068  0.174  0.830  0.000
  0.000  0.174 -0.068  0.000  0.830
atom    3   Tr[ns(na)] =   3.81355
    eigenvalues: 
  0.357  0.357  0.385  0.404  0.404
    eigenvectors:
  0.000  0.000  1.000  0.000  0.000
  0.783  0.139  0.000  0.012  0.067
  0.139  0.783  0.000  0.067  0.012
  0.012  0.066  0.000  0.781  0.140
  0.066  0.012  0.000  0.140  0.781
    occupations:
  0.385  0.000  0.000  0.000  0.000
  0.000  0.361  0.000  0.000  0.013
  0.000  0.000  0.361  0.013  0.000
  0.000  0.000  0.013  0.400  0.000
  0.000  0.013  0.000  0.000  0.400
atom    4   Tr[ns(na)] =   3.79815
    eigenvalues: 
  0.355  0.355  0.383  0.403  0.403
    eigenvectors:
  0.000  0.000  1.000  0.000  0.000
  0.781  0.139  0.000  0.012  0.068
  0.139  0.781  0.000  0.068  0.012
  0.012  0.067  0.000  0.780  0.140
  0.067  0.012  0.000  0.140  0.780
    occupations:
  0.383  0.000  0.000  0.000  0.000
  0.000  0.359  0.000  0.000  0.013
  0.000  0.000  0.359  0.013  0.000
  0.000  0.000  0.013  0.399  0.000
  0.000  0.013  0.000  0.000  0.399
atom    5   Tr[ns(na)] =   5.43053
    eigenvalues: 
  0.844  0.929  0.943
    eigenvectors:
  0.340  0.000  0.660
  0.493  0.253  0.253
  0.167  0.747  0.086
    occupations:
  0.909 -0.041  0.024
 -0.041  0.890  0.022
  0.024  0.022  0.916
atom    6   Tr[ns(na)] =   5.43053
    eigenvalues: 
  0.844  0.929  0.943
    eigenvectors:
  0.340  0.000  0.660
  0.498  0.247  0.256
  0.163  0.753  0.084
    occupations:
  0.909  0.041  0.023
  0.041  0.890 -0.022
  0.023 -0.022  0.916
atom    7   Tr[ns(na)] =   5.43053
    eigenvalues: 
  0.844  0.929  0.943
    eigenvectors:
  0.340  0.000  0.660
  0.000  1.000  0.000
  0.660  0.000  0.340
    occupations:
  0.909  0.000 -0.047
  0.000  0.929  0.000
 -0.047  0.000  0.877
atom    8   Tr[ns(na)] =   5.43054
    eigenvalues: 
  0.844  0.929  0.942
    eigenvectors:
  0.340  0.000  0.660
  0.493  0.254  0.253
  0.167  0.746  0.086
    occupations:
  0.909 -0.040  0.024
 -0.040  0.890  0.023
  0.024  0.023  0.916
atom    9   Tr[ns(na)] =   5.43054
    eigenvalues: 
  0.844  0.929  0.942
    eigenvectors:
  0.340  0.000  0.660
  0.498  0.247  0.256
  0.163  0.753  0.084
    occupations:
  0.909  0.041  0.023
  0.041  0.890 -0.022
  0.023 -0.022  0.916
atom   10   Tr[ns(na)] =   5.43054
    eigenvalues: 
  0.844  0.929  0.942
    eigenvectors:
  0.340  0.000  0.660
  0.000  1.000  0.000
  0.660  0.000  0.340
    occupations:
  0.909  0.000 -0.047
  0.000  0.929  0.000
 -0.047  0.000  0.877
N of occupied +U levels =  56.2830907
 --- exit write_ns ---
 --- in v_hubbard ---
Hubbard energy    0.0746
 -------

     total cpu time spent up to now is       91.8 secs

     total energy              =    -538.25495336 Ry
     Harris-Foulkes estimate   =    -538.25514892 Ry
     estimated scf accuracy    <       0.00302817 Ry

     iteration #  5     ecut=    30.00 Ry     beta=0.20
     Davidson diagonalization with overlap
     ethr =  1.65E-06,  avg # of iterations =  1.0
 --- enter write_ns ---
 LDA+U parameters:
U( 1)     =  1.00000000
alpha( 1) =  0.00000000
U( 2)     =  0.00000000
alpha( 2) = -0.05000000
U( 3)     =  0.00000000
alpha( 3) =  0.00000000
U( 4)     =  0.00000000
alpha( 4) =  0.00000000
atom    1   Tr[ns(na)] =   8.04601
    eigenvalues: 
  0.569  0.569  0.961  0.962  0.962
    eigenvectors:
  0.000  0.000  1.000  0.000  0.000
  0.334  0.322  0.000  0.004  0.339
  0.322  0.334  0.000  0.339  0.004
  0.285  0.058  0.000  0.515  0.141
  0.058  0.285  0.000  0.141  0.515
    occupations:
  0.961  0.000  0.000  0.000  0.000
  0.000  0.704  0.000 -0.067  0.174
  0.000  0.000  0.704  0.174  0.067
  0.000 -0.067  0.174  0.827  0.000
  0.000  0.174  0.067  0.000  0.827
atom    2   Tr[ns(na)] =   8.04422
    eigenvalues: 
  0.568  0.568  0.961  0.963  0.963
    eigenvectors:
  0.000  0.000  1.000  0.000  0.000
  0.637  0.019  0.000  0.219  0.124
  0.019  0.637  0.000  0.124  0.219
  0.013  0.331  0.000  0.472  0.185
  0.331  0.013  0.000  0.185  0.472
    occupations:
  0.961  0.000  0.000  0.000  0.000
  0.000  0.703  0.000  0.067  0.175
  0.000  0.000  0.703  0.175 -0.067
  0.000  0.067  0.175  0.827  0.000
  0.000  0.175 -0.067  0.000  0.827
atom    3   Tr[ns(na)] =   3.81172
    eigenvalues: 
  0.357  0.357  0.384  0.404  0.404
    eigenvectors:
  0.000  0.000  1.000  0.000  0.000
  0.782  0.139  0.000  0.011  0.067
  0.139  0.782  0.000  0.067  0.011
  0.012  0.066  0.000  0.781  0.140
  0.066  0.012  0.000  0.140  0.781
    occupations:
  0.384  0.000  0.000  0.000  0.000
  0.000  0.361  0.000  0.000  0.013
  0.000  0.000  0.361  0.013  0.000
  0.000  0.000  0.013  0.400  0.000
  0.000  0.013  0.000  0.000  0.400
atom    4   Tr[ns(na)] =   3.79819
    eigenvalues: 
  0.355  0.355  0.383  0.403  0.403
    eigenvectors:
  0.000  0.000  1.000  0.000  0.000
  0.781  0.140  0.000  0.012  0.068
  0.140  0.781  0.000  0.068  0.012
  0.012  0.067  0.000  0.781  0.140
  0.067  0.012  0.000  0.140  0.781
    occupations:
  0.383  0.000  0.000  0.000  0.000
  0.000  0.359  0.000  0.000  0.013
  0.000  0.000  0.359  0.013  0.000
  0.000  0.000  0.013  0.399  0.000
  0.000  0.013  0.000  0.000  0.399
atom    5   Tr[ns(na)] =   5.43036
    eigenvalues: 
  0.844  0.929  0.943
    eigenvectors:
  0.339  0.000  0.661
  0.496  0.250  0.254
  0.165  0.750  0.085
    occupations:
  0.909 -0.041  0.023
 -0.041  0.890  0.022
  0.023  0.022  0.916
atom    6   Tr[ns(na)] =   5.43036
    eigenvalues: 
  0.844  0.929  0.943
    eigenvectors:
  0.339  0.000  0.661
  0.495  0.250  0.255
  0.166  0.750  0.084
    occupations:
  0.909  0.041  0.023
  0.041  0.890 -0.022
  0.023 -0.022  0.916
atom    7   Tr[ns(na)] =   5.43036
    eigenvalues: 
  0.844  0.929  0.943
    eigenvectors:
  0.339  0.000  0.661
  0.000  1.000  0.000
  0.661  0.000  0.339
    occupations:
  0.909  0.000 -0.047
  0.000  0.929  0.000
 -0.047  0.000  0.877
atom    8   Tr[ns(na)] =   5.43036
    eigenvalues: 
  0.844  0.929  0.942
    eigenvectors:
  0.339  0.000  0.661
  0.496  0.250  0.254
  0.165  0.750  0.085
    occupations:
  0.909 -0.041  0.023
 -0.041  0.890  0.023
  0.023  0.023  0.916
atom    9   Tr[ns(na)] =   5.43036
    eigenvalues: 
  0.844  0.929  0.942
    eigenvectors:
  0.339  0.000  0.661
  0.495  0.250  0.255
  0.166  0.750  0.084
    occupations:
  0.909  0.041  0.023
  0.041  0.890 -0.023
  0.023 -0.023  0.916
atom   10   Tr[ns(na)] =   5.43036
    eigenvalues: 
  0.844  0.929  0.942
    eigenvectors:
  0.339  0.000  0.661
  0.000  1.000  0.000
  0.661  0.000  0.339
    occupations:
  0.909  0.000 -0.047
  0.000  0.929  0.000
 -0.047  0.000  0.877
N of occupied +U levels =  56.2823085
 --- exit write_ns ---
 --- in v_hubbard ---
Hubbard energy    0.0742
 -------

     total cpu time spent up to now is      105.8 secs

     total energy              =    -538.25506292 Ry
     Harris-Foulkes estimate   =    -538.25505968 Ry
     estimated scf accuracy    <       0.00001441 Ry

     iteration #  6     ecut=    30.00 Ry     beta=0.20
     Davidson diagonalization with overlap
     ethr =  1.90E-08,  avg # of iterations =  2.1
 --- enter write_ns ---
 LDA+U parameters:
U( 1)     =  1.00000000
alpha( 1) =  0.00000000
U( 2)     =  0.00000000
alpha( 2) = -0.05000000
U( 3)     =  0.00000000
alpha( 3) =  0.00000000
U( 4)     =  0.00000000
alpha( 4) =  0.00000000
atom    1   Tr[ns(na)] =   8.04326
    eigenvalues: 
  0.568  0.568  0.961  0.962  0.962
    eigenvectors:
  0.000  0.000  1.000  0.000  0.000
  0.334  0.322  0.000  0.004  0.340
  0.322  0.334  0.000  0.340  0.004
  0.286  0.058  0.000  0.515  0.141
  0.058  0.286  0.000  0.141  0.515
    occupations:
  0.961  0.000  0.000  0.000  0.000
  0.000  0.704  0.000 -0.068  0.174
  0.000  0.000  0.704  0.174  0.068
  0.000 -0.068  0.174  0.827  0.000
  0.000  0.174  0.068  0.000  0.827
atom    2   Tr[ns(na)] =   8.04216
    eigenvalues: 
  0.567  0.567  0.961  0.963  0.963
    eigenvectors:
  0.000  0.000  1.000  0.000  0.000
  0.637  0.019  0.000  0.220  0.124
  0.019  0.637  0.000  0.124  0.220
  0.013  0.331  0.000  0.471  0.185
  0.331  0.013  0.000  0.185  0.471
    occupations:
  0.961  0.000  0.000  0.000  0.000
  0.000  0.703  0.000  0.067  0.176
  0.000  0.000  0.703  0.176 -0.067
  0.000  0.067  0.176  0.827  0.000
  0.000  0.176 -0.067  0.000  0.827
atom    3   Tr[ns(na)] =   3.81204
    eigenvalues: 
  0.357  0.357  0.384  0.404  0.404
    eigenvectors:
  0.000  0.000  1.000  0.000  0.000
  0.783  0.139  0.000  0.011  0.067
  0.139  0.783  0.000  0.067  0.011
  0.012  0.066  0.000  0.782  0.140
  0.066  0.012  0.000  0.140  0.782
    occupations:
  0.384  0.000  0.000  0.000  0.000
  0.000  0.361  0.000  0.000  0.013
  0.000  0.000  0.361  0.013  0.000
  0.000  0.000  0.013  0.400  0.000
  0.000  0.013  0.000  0.000  0.400
atom    4   Tr[ns(na)] =   3.79848
    eigenvalues: 
  0.355  0.355  0.383  0.403  0.403
    eigenvectors:
  0.000  0.000  1.000  0.000  0.000
  0.782  0.139  0.000  0.012  0.067
  0.139  0.782  0.000  0.067  0.012
  0.012  0.066  0.000  0.781  0.140
  0.066  0.012  0.000  0.140  0.781
    occupations:
  0.383  0.000  0.000  0.000  0.000
  0.000  0.359  0.000  0.000  0.013
  0.000  0.000  0.359  0.013  0.000
  0.000  0.000  0.013  0.399  0.000
  0.000  0.013  0.000  0.000  0.399
atom    5   Tr[ns(na)] =   5.43102
    eigenvalues: 
  0.844  0.929  0.943
    eigenvectors:
  0.339  0.000  0.661
  0.496  0.250  0.254
  0.165  0.750  0.085
    occupations:
  0.909 -0.041  0.023
 -0.041  0.890  0.022
  0.023  0.022  0.916
atom    6   Tr[ns(na)] =   5.43102
    eigenvalues: 
  0.844  0.929  0.943
    eigenvectors:
  0.339  0.000  0.661
  0.495  0.250  0.255
  0.166  0.750  0.084
    occupations:
  0.909  0.041  0.023
  0.041  0.890 -0.022
  0.023 -0.022  0.916
atom    7   Tr[ns(na)] =   5.43102
    eigenvalues: 
  0.844  0.929  0.943
    eigenvectors:
  0.339  0.000  0.661
  0.000  1.000  0.000
  0.661  0.000  0.339
    occupations:
  0.909  0.000 -0.047
  0.000  0.929  0.000
 -0.047  0.000  0.877
atom    8   Tr[ns(na)] =   5.43105
    eigenvalues: 
  0.844  0.929  0.943
    eigenvectors:
  0.339  0.000  0.661
  0.496  0.250  0.254
  0.165  0.750  0.085
    occupations:
  0.909 -0.041  0.023
 -0.041  0.890  0.022
  0.023  0.022  0.916
atom    9   Tr[ns(na)] =   5.43105
    eigenvalues: 
  0.844  0.929  0.943
    eigenvectors:
  0.339  0.000  0.661
  0.495  0.250  0.255
  0.166  0.750  0.084
    occupations:
  0.909  0.040  0.023
  0.040  0.890 -0.023
  0.023 -0.023  0.916
atom   10   Tr[ns(na)] =   5.43105
    eigenvalues: 
  0.844  0.929  0.943
    eigenvectors:
  0.339  0.000  0.661
  0.000  1.000  0.000
  0.661  0.000  0.339
    occupations:
  0.909  0.000 -0.047
  0.000  0.929  0.000
 -0.047  0.000  0.877
N of occupied +U levels =  56.2821639
 --- exit write_ns ---
 --- in v_hubbard ---
Hubbard energy    0.0743
 -------

     total cpu time spent up to now is      120.8 secs

     total energy              =    -538.25507670 Ry
     Harris-Foulkes estimate   =    -538.25506556 Ry
     estimated scf accuracy    <       0.00000370 Ry

     iteration #  7     ecut=    30.00 Ry     beta=0.20
     Davidson diagonalization with overlap
     ethr =  4.87E-09,  avg # of iterations =  2.0
 --- enter write_ns ---
 LDA+U parameters:
U( 1)     =  1.00000000
alpha( 1) =  0.00000000
U( 2)     =  0.00000000
alpha( 2) = -0.05000000
U( 3)     =  0.00000000
alpha( 3) =  0.00000000
U( 4)     =  0.00000000
alpha( 4) =  0.00000000
atom    1   Tr[ns(na)] =   8.04389
    eigenvalues: 
  0.569  0.569  0.961  0.962  0.962
    eigenvectors:
  0.000  0.000  1.000  0.000  0.000
  0.334  0.322  0.000  0.004  0.340
  0.322  0.334  0.000  0.340  0.004
  0.286  0.058  0.000  0.515  0.141
  0.058  0.286  0.000  0.141  0.515
    occupations:
  0.961  0.000  0.000  0.000  0.000
  0.000  0.704  0.000 -0.068  0.174
  0.000  0.000  0.704  0.174  0.068
  0.000 -0.068  0.174  0.827  0.000
  0.000  0.174  0.068  0.000  0.827
atom    2   Tr[ns(na)] =   8.04354
    eigenvalues: 
  0.567  0.567  0.961  0.963  0.963
    eigenvectors:
  0.000  0.000  1.000  0.000  0.000
  0.637  0.019  0.000  0.220  0.124
  0.019  0.637  0.000  0.124  0.220
  0.013  0.331  0.000  0.471  0.185
  0.331  0.013  0.000  0.185  0.471
    occupations:
  0.961  0.000  0.000  0.000  0.000
  0.000  0.703  0.000  0.067  0.176
  0.000  0.000  0.703  0.176 -0.067
  0.000  0.067  0.176  0.827  0.000
  0.000  0.176 -0.067  0.000  0.827
atom    3   Tr[ns(na)] =   3.81273
    eigenvalues: 
  0.357  0.357  0.384  0.404  0.404
    eigenvectors:
  0.000  0.000  1.000  0.000  0.000
  0.783  0.139  0.000  0.011  0.067
  0.139  0.783  0.000  0.067  0.011
  0.012  0.066  0.000  0.782  0.140
  0.066  0.012  0.000  0.140  0.782
    occupations:
  0.384  0.000  0.000  0.000  0.000
  0.000  0.361  0.000  0.000  0.013
  0.000  0.000  0.361  0.013  0.000
  0.000  0.000  0.013  0.400  0.000
  0.000  0.013  0.000  0.000  0.400
atom    4   Tr[ns(na)] =   3.79871
    eigenvalues: 
  0.356  0.356  0.383  0.403  0.403
    eigenvectors:
  0.000  0.000  1.000  0.000  0.000
  0.782  0.139  0.000  0.011  0.067
  0.139  0.782  0.000  0.067  0.011
  0.012  0.066  0.000  0.781  0.140
  0.066  0.012  0.000  0.140  0.781
    occupations:
  0.383  0.000  0.000  0.000  0.000
  0.000  0.359  0.000  0.000  0.013
  0.000  0.000  0.359  0.013  0.000
  0.000  0.000  0.013  0.399  0.000
  0.000  0.013  0.000  0.000  0.399
atom    5   Tr[ns(na)] =   5.43063
    eigenvalues: 
  0.844  0.929  0.943
    eigenvectors:
  0.340  0.000  0.660
  0.496  0.250  0.254
  0.165  0.750  0.085
    occupations:
  0.909 -0.041  0.023
 -0.041  0.890  0.022
  0.023  0.022  0.916
atom    6   Tr[ns(na)] =   5.43063
    eigenvalues: 
  0.844  0.929  0.943
    eigenvectors:
  0.340  0.000  0.660
  0.495  0.250  0.255
  0.166  0.750  0.084
    occupations:
  0.909  0.041  0.023
  0.041  0.890 -0.022
  0.023 -0.022  0.916
atom    7   Tr[ns(na)] =   5.43063
    eigenvalues: 
  0.844  0.929  0.943
    eigenvectors:
  0.340  0.000  0.660
  0.000  1.000  0.000
  0.660  0.000  0.340
    occupations:
  0.909  0.000 -0.047
  0.000  0.929  0.000
 -0.047  0.000  0.877
atom    8   Tr[ns(na)] =   5.43064
    eigenvalues: 
  0.844  0.929  0.942
    eigenvectors:
  0.340  0.000  0.660
  0.496  0.250  0.254
  0.165  0.750  0.085
    occupations:
  0.909 -0.041  0.023
 -0.041  0.890  0.022
  0.023  0.022  0.916
atom    9   Tr[ns(na)] =   5.43064
    eigenvalues: 
  0.844  0.929  0.942
    eigenvectors:
  0.340  0.000  0.660
  0.495  0.250  0.255
  0.166  0.750  0.084
    occupations:
  0.909  0.041  0.023
  0.041  0.890 -0.023
  0.023 -0.023  0.916
atom   10   Tr[ns(na)] =   5.43064
    eigenvalues: 
  0.844  0.929  0.942
    eigenvectors:
  0.340  0.000  0.660
  0.000  1.000  0.000
  0.660  0.000  0.340
    occupations:
  0.909  0.000 -0.047
  0.000  0.929  0.000
 -0.047  0.000  0.877
N of occupied +U levels =  56.2826539
 --- exit write_ns ---
 --- in v_hubbard ---
Hubbard energy    0.0743
 -------

     total cpu time spent up to now is      135.0 secs

     total energy              =    -538.25508465 Ry
     Harris-Foulkes estimate   =    -538.25507738 Ry
     estimated scf accuracy    <       0.00000045 Ry

     iteration #  8     ecut=    30.00 Ry     beta=0.20
     Davidson diagonalization with overlap
     ethr =  5.86E-10,  avg # of iterations =  2.0
 --- enter write_ns ---
 LDA+U parameters:
U( 1)     =  1.00000000
alpha( 1) =  0.00000000
U( 2)     =  0.00000000
alpha( 2) = -0.05000000
U( 3)     =  0.00000000
alpha( 3) =  0.00000000
U( 4)     =  0.00000000
alpha( 4) =  0.00000000
atom    1   Tr[ns(na)] =   8.04415
    eigenvalues: 
  0.569  0.569  0.961  0.962  0.962
    eigenvectors:
  0.000  0.000  1.000  0.000  0.000
  0.334  0.322  0.000  0.004  0.340
  0.322  0.334  0.000  0.340  0.004
  0.286  0.058  0.000  0.515  0.141
  0.058  0.286  0.000  0.141  0.515
    occupations:
  0.961  0.000  0.000  0.000  0.000
  0.000  0.704  0.000 -0.068  0.174
  0.000  0.000  0.704  0.174  0.068
  0.000 -0.068  0.174  0.827  0.000
  0.000  0.174  0.068  0.000  0.827
atom    2   Tr[ns(na)] =   8.04310
    eigenvalues: 
  0.567  0.567  0.961  0.963  0.963
    eigenvectors:
  0.000  0.000  1.000  0.000  0.000
  0.637  0.019  0.000  0.220  0.124
  0.019  0.637  0.000  0.124  0.220
  0.013  0.331  0.000  0.471  0.185
  0.331  0.013  0.000  0.185  0.471
    occupations:
  0.961  0.000  0.000  0.000  0.000
  0.000  0.703  0.000  0.067  0.176
  0.000  0.000  0.703  0.176 -0.067
  0.000  0.067  0.176  0.827  0.000
  0.000  0.176 -0.067  0.000  0.827
atom    3   Tr[ns(na)] =   3.81261
    eigenvalues: 
  0.357  0.357  0.384  0.404  0.404
    eigenvectors:
  0.000  0.000  1.000  0.000  0.000
  0.783  0.139  0.000  0.011  0.067
  0.139  0.783  0.000  0.067  0.011
  0.012  0.066  0.000  0.782  0.140
  0.066  0.012  0.000  0.140  0.782
    occupations:
  0.384  0.000  0.000  0.000  0.000
  0.000  0.361  0.000  0.000  0.013
  0.000  0.000  0.361  0.013  0.000
  0.000  0.000  0.013  0.400  0.000
  0.000  0.013  0.000  0.000  0.400
atom    4   Tr[ns(na)] =   3.79851
    eigenvalues: 
  0.356  0.356  0.383  0.403  0.403
    eigenvectors:
  0.000  0.000  1.000  0.000  0.000
  0.781  0.140  0.000  0.012  0.067
  0.140  0.781  0.000  0.067  0.012
  0.012  0.066  0.000  0.781  0.140
  0.066  0.012  0.000  0.140  0.781
    occupations:
  0.383  0.000  0.000  0.000  0.000
  0.000  0.359  0.000  0.000  0.013
  0.000  0.000  0.359  0.013  0.000
  0.000  0.000  0.013  0.399  0.000
  0.000  0.013  0.000  0.000  0.399
atom    5   Tr[ns(na)] =   5.43069
    eigenvalues: 
  0.844  0.929  0.943
    eigenvectors:
  0.340  0.000  0.660
  0.496  0.250  0.254
  0.165  0.750  0.085
    occupations:
  0.909 -0.041  0.023
 -0.041  0.890  0.022
  0.023  0.022  0.916
atom    6   Tr[ns(na)] =   5.43069
    eigenvalues: 
  0.844  0.929  0.943
    eigenvectors:
  0.340  0.000  0.660
  0.495  0.250  0.255
  0.166  0.750  0.084
    occupations:
  0.909  0.041  0.023
  0.041  0.890 -0.022
  0.023 -0.022  0.916
atom    7   Tr[ns(na)] =   5.43069
    eigenvalues: 
  0.844  0.929  0.943
    eigenvectors:
  0.340  0.000  0.660
  0.000  1.000  0.000
  0.660  0.000  0.340
    occupations:
  0.909  0.000 -0.047
  0.000  0.929  0.000
 -0.047  0.000  0.877
atom    8   Tr[ns(na)] =   5.43070
    eigenvalues: 
  0.844  0.929  0.942
    eigenvectors:
  0.340  0.000  0.660
  0.496  0.250  0.254
  0.165  0.750  0.085
    occupations:
  0.909 -0.041  0.023
 -0.041  0.890  0.022
  0.023  0.022  0.916
atom    9   Tr[ns(na)] =   5.43070
    eigenvalues: 
  0.844  0.929  0.942
    eigenvectors:
  0.340  0.000  0.660
  0.495  0.250  0.255
  0.166  0.750  0.084
    occupations:
  0.909  0.041  0.023
  0.041  0.890 -0.023
  0.023 -0.023  0.916
atom   10   Tr[ns(na)] =   5.43070
    eigenvalues: 
  0.844  0.929  0.942
    eigenvectors:
  0.340  0.000  0.660
  0.000  1.000  0.000
  0.660  0.000  0.340
    occupations:
  0.909  0.000 -0.047
  0.000  0.929  0.000
 -0.047  0.000  0.877
N of occupied +U levels =  56.2825319
 --- exit write_ns ---
 --- in v_hubbard ---
Hubbard energy    0.0742
 -------

     total cpu time spent up to now is      149.4 secs

     total energy              =    -538.25508934 Ry
     Harris-Foulkes estimate   =    -538.25508470 Ry
     estimated scf accuracy    <       0.00000011 Ry

     iteration #  9     ecut=    30.00 Ry     beta=0.20
     Davidson diagonalization with overlap
     ethr =  1.48E-10,  avg # of iterations =  2.0
 --- enter write_ns ---
 LDA+U parameters:
U( 1)     =  1.00000000
alpha( 1) =  0.00000000
U( 2)     =  0.00000000
alpha( 2) = -0.05000000
U( 3)     =  0.00000000
alpha( 3) =  0.00000000
U( 4)     =  0.00000000
alpha( 4) =  0.00000000
atom    1   Tr[ns(na)] =   8.04382
    eigenvalues: 
  0.569  0.569  0.961  0.962  0.962
    eigenvectors:
  0.000  0.000  1.000  0.000  0.000
  0.333  0.322  0.000  0.004  0.340
  0.322  0.333  0.000  0.340  0.004
  0.286  0.058  0.000  0.515  0.141
  0.058  0.286  0.000  0.141  0.515
    occupations:
  0.961  0.000  0.000  0.000  0.000
  0.000  0.704  0.000 -0.068  0.174
  0.000  0.000  0.704  0.174  0.068
  0.000 -0.068  0.174  0.827  0.000
  0.000  0.174  0.068  0.000  0.827
atom    2   Tr[ns(na)] =   8.04318
    eigenvalues: 
  0.567  0.567  0.961  0.963  0.963
    eigenvectors:
  0.000  0.000  1.000  0.000  0.000
  0.637  0.019  0.000  0.220  0.124
  0.019  0.637  0.000  0.124  0.220
  0.013  0.331  0.000  0.471  0.185
  0.331  0.013  0.000  0.185  0.471
    occupations:
  0.961  0.000  0.000  0.000  0.000
  0.000  0.703  0.000  0.067  0.176
  0.000  0.000  0.703  0.176 -0.067
  0.000  0.067  0.176  0.827  0.000
  0.000  0.176 -0.067  0.000  0.827
atom    3   Tr[ns(na)] =   3.81263
    eigenvalues: 
  0.357  0.357  0.384  0.404  0.404
    eigenvectors:
  0.000  0.000  1.000  0.000  0.000
  0.783  0.139  0.000  0.011  0.067
  0.139  0.783  0.000  0.067  0.011
  0.012  0.066  0.000  0.782  0.140
  0.066  0.012  0.000  0.140  0.782
    occupations:
  0.384  0.000  0.000  0.000  0.000
  0.000  0.361  0.000  0.000  0.013
  0.000  0.000  0.361  0.013  0.000
  0.000  0.000  0.013  0.400  0.000
  0.000  0.013  0.000  0.000  0.400
atom    4   Tr[ns(na)] =   3.79845
    eigenvalues: 
  0.355  0.355  0.383  0.403  0.403
    eigenvectors:
  0.000  0.000  1.000  0.000  0.000
  0.782  0.139  0.000  0.012  0.067
  0.139  0.782  0.000  0.067  0.012
  0.012  0.066  0.000  0.781  0.140
  0.066  0.012  0.000  0.140  0.781
    occupations:
  0.383  0.000  0.000  0.000  0.000
  0.000  0.359  0.000  0.000  0.013
  0.000  0.000  0.359  0.013  0.000
  0.000  0.000  0.013  0.399  0.000
  0.000  0.013  0.000  0.000  0.399
atom    5   Tr[ns(na)] =   5.43073
    eigenvalues: 
  0.844  0.929  0.943
    eigenvectors:
  0.340  0.000  0.660
  0.496  0.250  0.254
  0.165  0.750  0.085
    occupations:
  0.909 -0.041  0.023
 -0.041  0.890  0.022
  0.023  0.022  0.916
atom    6   Tr[ns(na)] =   5.43073
    eigenvalues: 
  0.844  0.929  0.943
    eigenvectors:
  0.340  0.000  0.660
  0.495  0.250  0.255
  0.166  0.750  0.084
    occupations:
  0.909  0.041  0.023
  0.041  0.890 -0.022
  0.023 -0.022  0.916
atom    7   Tr[ns(na)] =   5.43073
    eigenvalues: 
  0.844  0.929  0.943
    eigenvectors:
  0.340  0.000  0.660
  0.000  1.000  0.000
  0.660  0.000  0.340
    occupations:
  0.909  0.000 -0.047
  0.000  0.929  0.000
 -0.047  0.000  0.877
atom    8   Tr[ns(na)] =   5.43075
    eigenvalues: 
  0.844  0.929  0.942
    eigenvectors:
  0.340  0.000  0.660
  0.496  0.250  0.254
  0.165  0.750  0.085
    occupations:
  0.909 -0.041  0.023
 -0.041  0.890  0.022
  0.023  0.022  0.916
atom    9   Tr[ns(na)] =   5.43075
    eigenvalues: 
  0.844  0.929  0.942
    eigenvectors:
  0.340  0.000  0.660
  0.495  0.250  0.255
  0.166  0.750  0.084
    occupations:
  0.909  0.041  0.023
  0.041  0.890 -0.023
  0.023 -0.023  0.916
atom   10   Tr[ns(na)] =   5.43075
    eigenvalues: 
  0.844  0.929  0.942
    eigenvectors:
  0.340  0.000  0.660
  0.000  1.000  0.000
  0.660  0.000  0.340
    occupations:
  0.909  0.000 -0.047
  0.000  0.929  0.000
 -0.047  0.000  0.877
N of occupied +U levels =  56.2825041
 --- exit write_ns ---
 --- in v_hubbard ---
Hubbard energy    0.0742
 -------

     total cpu time spent up to now is      163.6 secs

     total energy              =    -538.25509252 Ry
     Harris-Foulkes estimate   =    -538.25508935 Ry
     estimated scf accuracy    <       0.00000001 Ry

     iteration # 10     ecut=    30.00 Ry     beta=0.20
     Davidson diagonalization with overlap
     ethr =  1.68E-11,  avg # of iterations =  2.1
 --- enter write_ns ---
 LDA+U parameters:
U( 1)     =  1.00000000
alpha( 1) =  0.00000000
U( 2)     =  0.00000000
alpha( 2) = -0.05000000
U( 3)     =  0.00000000
alpha( 3) =  0.00000000
U( 4)     =  0.00000000
alpha( 4) =  0.00000000
atom    1   Tr[ns(na)] =   8.04389
    eigenvalues: 
  0.569  0.569  0.961  0.962  0.962
    eigenvectors:
  0.000  0.000  1.000  0.000  0.000
  0.334  0.322  0.000  0.004  0.340
  0.322  0.334  0.000  0.340  0.004
  0.286  0.058  0.000  0.515  0.141
  0.058  0.286  0.000  0.141  0.515
    occupations:
  0.961  0.000  0.000  0.000  0.000
  0.000  0.704  0.000 -0.068  0.174
  0.000  0.000  0.704  0.174  0.068
  0.000 -0.068  0.174  0.827  0.000
  0.000  0.174  0.068  0.000  0.827
atom    2   Tr[ns(na)] =   8.04315
    eigenvalues: 
  0.567  0.567  0.961  0.963  0.963
    eigenvectors:
  0.000  0.000  1.000  0.000  0.000
  0.637  0.019  0.000  0.220  0.124
  0.019  0.637  0.000  0.124  0.220
  0.013  0.331  0.000  0.471  0.185
  0.331  0.013  0.000  0.185  0.471
    occupations:
  0.961  0.000  0.000  0.000  0.000
  0.000  0.703  0.000  0.067  0.176
  0.000  0.000  0.703  0.176 -0.067
  0.000  0.067  0.176  0.827  0.000
  0.000  0.176 -0.067  0.000  0.827
atom    3   Tr[ns(na)] =   3.81262
    eigenvalues: 
  0.357  0.357  0.384  0.404  0.404
    eigenvectors:
  0.000  0.000  1.000  0.000  0.000
  0.783  0.139  0.000  0.011  0.067
  0.139  0.783  0.000  0.067  0.011
  0.012  0.066  0.000  0.782  0.140
  0.066  0.012  0.000  0.140  0.782
    occupations:
  0.384  0.000  0.000  0.000  0.000
  0.000  0.361  0.000  0.000  0.013
  0.000  0.000  0.361  0.013  0.000
  0.000  0.000  0.013  0.400  0.000
  0.000  0.013  0.000  0.000  0.400
atom    4   Tr[ns(na)] =   3.79848
    eigenvalues: 
  0.356  0.356  0.383  0.403  0.403
    eigenvectors:
  0.000  0.000  1.000  0.000  0.000
  0.782  0.139  0.000  0.012  0.067
  0.139  0.782  0.000  0.067  0.012
  0.012  0.067  0.000  0.781  0.140
  0.067  0.012  0.000  0.140  0.781
    occupations:
  0.383  0.000  0.000  0.000  0.000
  0.000  0.359  0.000  0.000  0.013
  0.000  0.000  0.359  0.013  0.000
  0.000  0.000  0.013  0.399  0.000
  0.000  0.013  0.000  0.000  0.399
atom    5   Tr[ns(na)] =   5.43072
    eigenvalues: 
  0.844  0.929  0.943
    eigenvectors:
  0.340  0.000  0.660
  0.496  0.250  0.254
  0.165  0.750  0.085
    occupations:
  0.909 -0.041  0.023
 -0.041  0.890  0.022
  0.023  0.022  0.916
atom    6   Tr[ns(na)] =   5.43072
    eigenvalues: 
  0.844  0.929  0.943
    eigenvectors:
  0.340  0.000  0.660
  0.495  0.250  0.255
  0.166  0.750  0.084
    occupations:
  0.909  0.041  0.023
  0.041  0.890 -0.022
  0.023 -0.022  0.916
atom    7   Tr[ns(na)] =   5.43072
    eigenvalues: 
  0.844  0.929  0.943
    eigenvectors:
  0.340  0.000  0.660
  0.000  1.000  0.000
  0.660  0.000  0.340
    occupations:
  0.909  0.000 -0.047
  0.000  0.929  0.000
 -0.047  0.000  0.877
atom    8   Tr[ns(na)] =   5.43074
    eigenvalues: 
  0.844  0.929  0.942
    eigenvectors:
  0.340  0.000  0.660
  0.496  0.250  0.254
  0.165  0.750  0.085
    occupations:
  0.909 -0.041  0.023
 -0.041  0.890  0.022
  0.023  0.022  0.916
atom    9   Tr[ns(na)] =   5.43074
    eigenvalues: 
  0.844  0.929  0.942
    eigenvectors:
  0.340  0.000  0.660
  0.495  0.250  0.255
  0.166  0.750  0.084
    occupations:
  0.909  0.041  0.023
  0.041  0.890 -0.023
  0.023 -0.023  0.916
atom   10   Tr[ns(na)] =   5.43074
    eigenvalues: 
  0.844  0.929  0.942
    eigenvectors:
  0.340  0.000  0.660
  0.000  1.000  0.000
  0.660  0.000  0.340
    occupations:
  0.909  0.000 -0.047
  0.000  0.929  0.000
 -0.047  0.000  0.877
N of occupied +U levels =  56.2825157
 --- exit write_ns ---
 --- in v_hubbard ---
Hubbard energy    0.0742
 -------

     total cpu time spent up to now is      181.3 secs

     End of self-consistent calculation

          k = 0.0000 0.0000 0.0000 (  2175 PWs)   bands (ev):

   -19.7926 -19.6174  -6.5487  -5.8369  -5.8369  -5.8302  -5.8302  -5.4972
    -3.7650  -3.2555  -3.2042  -3.2042  -3.0208  -3.0208   5.1897   6.8943
     6.8943   7.5160   7.5160   7.6459   7.6459   7.7011   7.7119   9.2921
     9.6144   9.6144   9.7489   9.8680   9.8680  10.3496  10.3496  10.4586
    10.4586  10.5555  10.6721  11.4197  11.4197  11.9848  12.1696  12.1696
    14.7667  14.7667  15.4061  15.4061  16.1743  16.7646

     occupation numbers 
     0.0313   0.0313   0.0313   0.0313   0.0313   0.0313   0.0313   0.0313
     0.0313   0.0313   0.0313   0.0313   0.0313   0.0313   0.0313   0.0313
     0.0313   0.0313   0.0313   0.0313   0.0313   0.0313   0.0313   0.0313
     0.0313   0.0313   0.0312   0.0312   0.0312   0.0312   0.0312   0.0312
     0.0312   0.0312   0.0312   0.0307   0.0307   0.0174   0.0096   0.0096
     0.0000   0.0000   0.0000   0.0000   0.0000   0.0000

          k =-0.2471-0.1427 0.1027 (  2181 PWs)   bands (ev):

   -19.7656 -19.6430  -6.7286  -6.2981  -5.9432  -5.8535  -5.6185  -5.4863
    -3.5789  -3.3824  -2.9249  -2.8982  -2.8420  -2.7528   5.5494   6.8690
     6.9961   7.0062   7.2056   7.4794   7.5363   7.6918   7.7009   8.5359
     8.6172   9.2373   9.6524   9.7736   9.8148  10.0132  10.3640  10.3757
    10.7783  10.7994  10.9052  11.6814  11.7364  11.7877  12.3319  12.3971
    14.3105  14.3184  15.7961  16.0513  16.9542  17.2495

     occupation numbers 
     0.1875   0.1875   0.1875   0.1875   0.1875   0.1875   0.1875   0.1875
     0.1875   0.1875   0.1875   0.1875   0.1875   0.1875   0.1875   0.1875
     0.1875   0.1875   0.1875   0.1875   0.1875   0.1875   0.1875   0.1875
     0.1875   0.1875   0.1875   0.1875   0.1875   0.1875   0.1875   0.1875
     0.1875   0.1875   0.1875   0.1656   0.1577   0.1490   0.0270   0.0185
     0.0000   0.0000   0.0000   0.0000   0.0000   0.0000

          k = 0.4942 0.2853-0.2053 (  2202 PWs)   bands (ev):

   -19.7161 -19.6914  -6.7361  -6.7172  -5.9642  -5.9602  -5.5273  -5.5235
    -3.3769  -3.3651  -2.7849  -2.7786  -2.5106  -2.4926   6.0592   6.0678
     7.1918   7.2066   7.2489   7.2671   7.5685   7.5946   7.8522   7.8778
     8.0637   8.0924   9.5048   9.5079   9.8657   9.8727  10.2721  10.2817
    11.2141  11.2193  11.3136  11.3201  11.5026  11.5106  13.2911  13.3216
    13.3768  13.4075  16.8098  16.8306  17.1088  17.1287

     occupation numbers 
     0.0938   0.0938   0.0938   0.0938   0.0938   0.0938   0.0938   0.0938
     0.0938   0.0938   0.0938   0.0938   0.0938   0.0938   0.0938   0.0938
     0.0938   0.0938   0.0938   0.0938   0.0938   0.0938   0.0938   0.0938
     0.0938   0.0938   0.0938   0.0938   0.0937   0.0937   0.0937   0.0937
     0.0935   0.0935   0.0931   0.0931   0.0905   0.0902   0.0000   0.0000
     0.0000   0.0000   0.0000   0.0000   0.0000   0.0000

          k =-0.2471 0.1427 0.2053 (  2195 PWs)   bands (ev):

   -19.7614 -19.6476  -6.8530  -6.2342  -6.0702  -5.8421  -5.6627  -5.4606
    -3.4014  -3.2536  -3.0933  -2.8838  -2.8085  -2.5548   5.5783   6.8198
     6.8924   6.9574   7.2224   7.4609   7.4830   7.7135   7.7255   8.6318
     8.7770   8.8367   9.2879   9.7540   9.9660  10.0611  10.1675  10.2796
    10.3590  11.1900  11.2944  11.3123  11.7134  11.7871  12.0557  12.7322
    13.6328  14.7825  15.9718  16.1753  17.0161  17.5246

     occupation numbers 
     0.1875   0.1875   0.1875   0.1875   0.1875   0.1875   0.1875   0.1875
     0.1875   0.1875   0.1875   0.1875   0.1875   0.1875   0.1875   0.1875
     0.1875   0.1875   0.1875   0.1875   0.1875   0.1875   0.1875   0.1875
     0.1875   0.1875   0.1875   0.1875   0.1875   0.1875   0.1875   0.1875
     0.1875   0.1871   0.1864   0.1862   0.1612   0.1491   0.0858   0.0013
     0.0000   0.0000   0.0000   0.0000   0.0000   0.0000

          k = 0.4942 0.5706-0.1027 (  2198 PWs)   bands (ev):

   -19.7273 -19.6814  -6.9576  -6.6520  -6.1315  -5.8975  -5.5176  -5.3833
    -3.2939  -3.2439  -2.8696  -2.7013  -2.5218  -2.3790   5.8953   6.2511
     6.7448   6.9947   7.1988   7.3314   7.5047   7.7161   7.8201   7.9699
     8.2645   8.8524   9.0985   9.3226   9.6346   9.8060   9.9423  10.3510
    10.8412  11.3037  11.4061  11.4776  11.6104  11.6539  12.3204  12.7368
    13.4239  14.3591  16.8877  17.0991  17.2947  18.0003

     occupation numbers 
     0.1875   0.1875   0.1875   0.1875   0.1875   0.1875   0.1875   0.1875
     0.1875   0.1875   0.1875   0.1875   0.1875   0.1875   0.1875   0.1875
     0.1875   0.1875   0.1875   0.1875   0.1875   0.1875   0.1875   0.1875
     0.1875   0.1875   0.1875   0.1875   0.1875   0.1875   0.1875   0.1875
     0.1875   0.1863   0.1845   0.1821   0.1734   0.1689   0.0287   0.0013
     0.0000   0.0000   0.0000   0.0000   0.0000   0.0000

          k = 0.2471 0.4280 0.0000 (  2203 PWs)   bands (ev):

   -19.7348 -19.6734  -6.8500  -6.6454  -6.0545  -5.9828  -5.4428  -5.3715
    -3.5036  -3.2846  -2.7945  -2.7041  -2.5607  -2.5523   5.8783   6.2973
     6.9638   7.1023   7.1976   7.2891   7.4365   7.6104   7.6952   8.0691
     8.3086   8.9233   9.3177   9.4146   9.7623   9.7811  10.0570  10.3543
    11.1549  11.1916  11.2013  11.4318  11.4585  11.7523  12.2528  13.3190
    13.3923  14.1540  16.4189  16.9768  17.4056  17.9121

     occupation numbers 
     0.1875   0.1875   0.1875   0.1875   0.1875   0.1875   0.1875   0.1875
     0.1875   0.1875   0.1875   0.1875   0.1875   0.1875   0.1875   0.1875
     0.1875   0.1875   0.1875   0.1875   0.1875   0.1875   0.1875   0.1875
     0.1875   0.1875   0.1875   0.1875   0.1875   0.1875   0.1875   0.1875
     0.1873   0.1871   0.1871   0.1838   0.1828   0.1552   0.0403   0.0000
     0.0000   0.0000   0.0000   0.0000   0.0000   0.0000

          k = 0.4942-0.2853-0.4107 (  2202 PWs)   bands (ev):

   -19.7336 -19.6764  -7.1651  -6.4543  -6.2394  -5.9814  -5.5385  -5.2880
    -3.1820  -3.1150  -3.0351  -2.6450  -2.4758  -2.2166   5.7932   6.2815
     6.2883   6.8864   7.1409   7.2492   7.7377   7.7921   8.1453   8.3109
     8.4339   8.4645   8.5953   9.4114   9.6701  10.0288  10.0649  10.2867
    10.4317  11.1447  11.3478  11.5225  11.6455  11.7780  11.9667  12.4350
    13.3245  14.7952  17.0233  17.2491  17.5000  17.5987

     occupation numbers 
     0.0938   0.0938   0.0938   0.0938   0.0938   0.0938   0.0938   0.0938
     0.0938   0.0938   0.0938   0.0938   0.0938   0.0938   0.0938   0.0938
     0.0938   0.0938   0.0938   0.0938   0.0938   0.0938   0.0938   0.0938
     0.0938   0.0938   0.0938   0.0938   0.0937   0.0937   0.0937   0.0937
     0.0937   0.0936   0.0929   0.0899   0.0849   0.0754   0.0544   0.0073
     0.0000   0.0000   0.0000   0.0000   0.0000   0.0000

          k = 0.0000 0.0000 0.3080 (  2187 PWs)   bands (ev):

   -19.7654 -19.6431  -6.6165  -5.9910  -5.9331  -5.9299  -5.8450  -5.8449
    -3.1938  -3.1117  -3.0974  -2.9595  -2.8962  -2.8836   5.6057   6.9915
     6.9928   7.1322   7.3487   7.4158   7.4159   7.7010   7.7034   8.7731
     8.7738   9.3329   9.4358   9.6263   9.6272   9.8151  10.1236  10.1252
    10.9071  10.9077  11.0064  11.7046  11.7050  11.7979  12.3084  12.3088
    14.2707  14.2720  15.8887  15.8928  16.8596  17.4629

     occupation numbers 
     0.0625   0.0625   0.0625   0.0625   0.0625   0.0625   0.0625   0.0625
     0.0625   0.0625   0.0625   0.0625   0.0625   0.0625   0.0625   0.0625
     0.0625   0.0625   0.0625   0.0625   0.0625   0.0625   0.0625   0.0625
     0.0625   0.0625   0.0625   0.0625   0.0625   0.0625   0.0625   0.0625
     0.0625   0.0625   0.0625   0.0542   0.0541   0.0490   0.0102   0.0102
     0.0000   0.0000   0.0000   0.0000   0.0000   0.0000

          k = 0.7412 0.4280 0.0000 (  2204 PWs)   bands (ev):

   -19.7345 -19.6736  -6.7358  -6.6087  -6.1493  -5.8350  -5.6800  -5.5519
    -3.1639  -3.0826  -3.0375  -2.6715  -2.6473  -2.5779   5.9183   6.4918
     6.9769   7.1475   7.2031   7.3024   7.4257   7.5657   7.8617   8.0228
     8.3431   8.8214   9.3355   9.4770   9.5890   9.6766   9.8427  10.2146
    11.1506  11.2045  11.2795  11.4928  11.4946  11.6603  12.2580  13.2427
    13.3077  14.1785  16.6721  16.7067  17.5761  17.7815

     occupation numbers 
     0.1875   0.1875   0.1875   0.1875   0.1875   0.1875   0.1875   0.1875
     0.1875   0.1875   0.1875   0.1875   0.1875   0.1875   0.1875   0.1875
     0.1875   0.1875   0.1875   0.1875   0.1875   0.1875   0.1875   0.1875
     0.1875   0.1875   0.1875   0.1875   0.1875   0.1875   0.1875   0.1875
     0.1873   0.1871   0.1866   0.1814   0.1813   0.1682   0.0393   0.0000
     0.0000   0.0000   0.0000   0.0000   0.0000   0.0000

          k = 0.4942 0.2853 0.1027 (  2211 PWs)   bands (ev):

   -19.7274 -19.6813  -6.9737  -6.5503  -6.3244  -5.7023  -5.6285  -5.3583
    -3.3072  -3.1572  -3.0219  -2.5977  -2.5547  -2.3719   5.9266   6.2206
     6.7004   6.9878   7.2110   7.2506   7.5268   7.7603   7.8684   7.9465
     8.2997   8.9591   9.0981   9.3929   9.5069   9.6631  10.0061  10.3679
    10.8570  11.3533  11.4842  11.4893  11.5480  11.5674  12.2735  12.7525
    13.4698  14.3406  16.8683  16.9195  17.5666  17.9122

     occupation numbers 
     0.1875   0.1875   0.1875   0.1875   0.1875   0.1875   0.1875   0.1875
     0.1875   0.1875   0.1875   0.1875   0.1875   0.1875   0.1875   0.1875
     0.1875   0.1875   0.1875   0.1875   0.1875   0.1875   0.1875   0.1875
     0.1875   0.1875   0.1875   0.1875   0.1875   0.1875   0.1875   0.1875
     0.1875   0.1856   0.1818   0.1816   0.1783   0.1769   0.0365   0.0011
     0.0000   0.0000   0.0000   0.0000   0.0000   0.0000

          k = 0.7412-0.4280-0.3080 (  2210 PWs)   bands (ev):

   -19.7272 -19.6814  -6.9101  -6.4582  -6.3020  -5.8019  -5.7647  -5.4839
    -3.0616  -3.0439  -2.9556  -2.7227  -2.6157  -2.4222   5.9883   6.3653
     6.7796   6.9706   7.2341   7.2609   7.5533   7.7807   7.9110   7.9764
     8.2761   8.9460   8.9582   9.5077   9.5228   9.5255   9.6510  10.2043
    10.9280  11.3692  11.4705  11.4776  11.5956  11.6349  12.2314  12.7023
    13.4179  14.3101  17.0444  17.0514  17.5351  17.8867

     occupation numbers 
     0.1875   0.1875   0.1875   0.1875   0.1875   0.1875   0.1875   0.1875
     0.1875   0.1875   0.1875   0.1875   0.1875   0.1875   0.1875   0.1875
     0.1875   0.1875   0.1875   0.1875   0.1875   0.1875   0.1875   0.1875
     0.1875   0.1875   0.1875   0.1875   0.1875   0.1875   0.1875   0.1875
     0.1875   0.1853   0.1824   0.1821   0.1747   0.1710   0.0445   0.0018
     0.0000   0.0000   0.0000   0.0000   0.0000   0.0000

          k = 0.4942-0.5706-0.2053 (  2206 PWs)   bands (ev):

   -19.7190 -19.6901  -6.8908  -6.8790  -6.0402  -6.0374  -5.4291  -5.4277
    -3.1473  -3.1392  -2.8129  -2.7990  -2.3792  -2.3759   6.0721   6.0831
     6.8858   6.8938   7.1056   7.1122   7.3992   7.4080   8.0576   8.0929
     8.7850   8.7922   8.9846   8.9865   9.5344   9.5374  10.0896  10.0904
    11.1460  11.1467  11.3638  11.3657  11.6481  11.6496  12.2954  12.2979
    14.0017  14.0104  17.4129  17.4142  17.8540  17.8567

     occupation numbers 
     0.1875   0.1875   0.1875   0.1875   0.1875   0.1875   0.1875   0.1875
     0.1875   0.1875   0.1875   0.1875   0.1875   0.1875   0.1875   0.1875
     0.1875   0.1875   0.1875   0.1875   0.1875   0.1875   0.1875   0.1875
     0.1875   0.1875   0.1875   0.1875   0.1875   0.1875   0.1875   0.1875
     0.1873   0.1873   0.1854   0.1854   0.1695   0.1694   0.0327   0.0323
     0.0000   0.0000   0.0000   0.0000   0.0000   0.0000

          k = 0.0000 0.0000-0.6160 (  2186 PWs)   bands (ev):

   -19.7160 -19.6912  -6.5244  -6.5017  -5.9481  -5.9481  -5.9349  -5.9349
    -2.8915  -2.8915  -2.8736  -2.8736  -2.7119  -2.6912   6.2865   6.2960
     7.1966   7.1966   7.2142   7.2142   7.7326   7.7599   7.9788   7.9788
     8.0078   8.0078   9.6286   9.6286   9.6353   9.6353   9.6965   9.7071
    11.3700  11.3758  11.4249  11.4249  11.4323  11.4323  13.2321  13.2321
    13.2618  13.2618  17.0923  17.0923  17.1134  17.1134

     occupation numbers 
     0.0313   0.0313   0.0313   0.0313   0.0313   0.0313   0.0313   0.0313
     0.0313   0.0313   0.0313   0.0313   0.0313   0.0313   0.0313   0.0313
     0.0313   0.0313   0.0313   0.0313   0.0313   0.0313   0.0313   0.0313
     0.0313   0.0313   0.0313   0.0313   0.0312   0.0312   0.0312   0.0312
     0.0309   0.0309   0.0307   0.0307   0.0306   0.0306   0.0000   0.0000
     0.0000   0.0000   0.0000   0.0000   0.0000   0.0000

          k = 0.4942-0.5706 0.1027 (  2198 PWs)   bands (ev):

   -19.7273 -19.6814  -6.9581  -6.6511  -6.1327  -5.8965  -5.5186  -5.3825
    -3.2947  -3.2438  -2.8698  -2.7002  -2.5224  -2.3786   5.8937   6.2537
     6.7412   6.9953   7.2045   7.3286   7.5094   7.7117   7.8015   7.9916
     8.2603   8.8583   9.0939   9.3213   9.6326   9.8070   9.9419  10.3525
    10.8406  11.3029  11.4089  11.4771  11.6121  11.6517  12.3201  12.7366
    13.4238  14.3588  16.8896  17.0963  17.2953  18.0003

     occupation numbers 
     0.1875   0.1875   0.1875   0.1875   0.1875   0.1875   0.1875   0.1875
     0.1875   0.1875   0.1875   0.1875   0.1875   0.1875   0.1875   0.1875
     0.1875   0.1875   0.1875   0.1875   0.1875   0.1875   0.1875   0.1875
     0.1875   0.1875   0.1875   0.1875   0.1875   0.1875   0.1875   0.1875
     0.1875   0.1863   0.1844   0.1821   0.1732   0.1691   0.0287   0.0013
     0.0000   0.0000   0.0000   0.0000   0.0000   0.0000

     the Fermi energy is    12.0250 ev

!    total energy              =    -538.25509816 Ry
     Harris-Foulkes estimate   =    -538.25509252 Ry
     estimated scf accuracy    <          1.2E-09 Ry

     The total energy is the sum of the following terms:

     one-electron contribution =     -32.89965985 Ry
     hartree contribution      =      83.62173021 Ry
     xc contribution           =    -199.57456387 Ry
     ewald contribution        =    -389.44315552 Ry
     Hubbard energy            =       0.07424889 Ry
     smearing contrib. (-TS)   =      -0.03369801 Ry

     convergence has been achieved in  10 iterations

     init_run     :      7.39s CPU      8.05s WALL (       1 calls)
     electrons    :    168.48s CPU    172.01s WALL (       1 calls)

     Called by init_run:
     wfcinit      :      0.00s CPU      0.00s WALL (       1 calls)
     potinit      :      0.29s CPU      0.72s WALL (       1 calls)

     Called by electrons:
     c_bands      :    110.05s CPU    111.96s WALL (      10 calls)
     sum_band     :     34.50s CPU     35.02s WALL (      10 calls)
     v_of_rho     :      2.94s CPU      3.01s WALL (      11 calls)
     v_h          :      0.16s CPU      0.17s WALL (      11 calls)
     v_xc         :      2.77s CPU      2.85s WALL (      11 calls)
     newd         :     22.27s CPU     22.41s WALL (      11 calls)
     mix_rho      :      0.29s CPU      0.30s WALL (      10 calls)

     Called by c_bands:
     init_us_2    :      1.03s CPU      1.04s WALL (     280 calls)
     cegterg      :    107.25s CPU    108.76s WALL (     140 calls)

     Called by sum_band:
     sum_band:bec :      0.10s CPU      0.10s WALL (     140 calls)
     addusdens    :     13.71s CPU     13.73s WALL (      10 calls)

     Called by *egterg:
     h_psi        :     79.25s CPU     80.69s WALL (     593 calls)
     s_psi        :      3.95s CPU      3.95s WALL (     593 calls)
     g_psi        :      0.33s CPU      0.33s WALL (     453 calls)
     cdiaghg      :      9.42s CPU      9.40s WALL (     579 calls)
     cegterg:over :      5.87s CPU      5.92s WALL (     453 calls)
     cegterg:upda :      3.24s CPU      3.26s WALL (     453 calls)
     cegterg:last :      1.90s CPU      1.90s WALL (     154 calls)

     Called by h_psi:
     h_psi:vloc   :     65.70s CPU     66.72s WALL (     593 calls)
     h_psi:vnl    :      8.45s CPU      8.70s WALL (     593 calls)
     add_vuspsi   :      3.97s CPU      4.02s WALL (     593 calls)
     vhpsi        :      4.96s CPU      5.11s WALL (     593 calls)

     General routines
     calbec       :      9.74s CPU     10.15s WALL (    1466 calls)
     fft          :      2.70s CPU      2.77s WALL (     171 calls)
     ffts         :      0.06s CPU      0.06s WALL (      21 calls)
     fftw         :     67.45s CPU     68.54s WALL (   39138 calls)
     interpolate  :      0.35s CPU      0.35s WALL (      21 calls)
     davcio       :      0.01s CPU      0.31s WALL (     294 calls)

     Parallel routines
     fft_scatter  :     27.88s CPU     28.89s WALL (   39330 calls)
     Hubbard U routines
     new_ns       :      1.05s CPU      1.20s WALL (      10 calls)
     vhpsi        :      4.96s CPU      5.11s WALL (     593 calls)

     PWSCF        :  2m56.34s CPU     3m 1.36s WALL


   This run was terminated on:  14:46:31  11Nov2012            

=------------------------------------------------------------------------------=
