   JOB DONE.
=------------------------------------------------------------------------------=

     Program PWSCF v.5.0.1 starts on 11Nov2012 at 14:37:15 

     This program is part of the open-source Quantum ESPRESSO suite
     for quantum simulation of materials; please cite
         "P. Giannozzi et al., J. Phys.:Condens. Matter 21 395502 (2009);
          URL http://www.quantum-espresso.org", 
     in publications or presentations arising from this work. More details at
     http://www.quantum-espresso.org/quote.php

     Parallel version (MPI), running on     2 processors
     R & G space division:  proc/pool =    2

     Current dimensions of program PWSCF are:
     Max number of different atomic species (ntypx) = 10
     Max number of k-points (npk) =  40000
     Max angular momentum in pseudopotentials (lmaxx) =  3
     Reading input from CoLaO_U100_a-15.in
               file Co.pbe-nd-rrkjus.UPF: wavefunction(s)  4S 3D renormalized
               file O.pbe-rrkjus.UPF: wavefunction(s)  2S renormalized

     Subspace diagonalization in iterative solution of the eigenvalue problem:
     a serial algorithm will be used


     Parallelization info
     --------------------
     sticks:   dense  smooth     PW     G-vecs:    dense   smooth      PW
     Min        1112     444    131                34808     8786    1448
     Max        1113     445    132                34809     8787    1449
     Sum        2225     889    263                69617    17573    2897


     Title: 
     GGA + U, U = 1.000, alpha = -0.150                                         


     bravais-lattice index     =            5
     lattice parameter (alat)  =      10.3292  a.u.
     unit-cell volume          =     793.0599 (a.u.)^3
     number of atoms/cell      =           10
     number of atomic types    =            4
     number of electrons       =        76.00
     number of Kohn-Sham states=           46
     kinetic-energy cutoff     =      30.0000  Ry
     charge density cutoff     =     300.0000  Ry
     convergence threshold     =      1.0E-08
     mixing beta               =       0.2000
     number of iterations used =            8  plain     mixing
     Exchange-correlation      =  SLA  PW   PBE  PBE ( 1 4 3 4 0)
     EXX-fraction              =        0.00

     celldm(1)=  10.329242  celldm(2)=   0.000000  celldm(3)=   0.000000
     celldm(4)=   0.488100  celldm(5)=   0.000000  celldm(6)=   0.000000

     crystal axes: (cart. coord. in units of alat)
               a(1) = (   0.505915  -0.292090   0.811624 )  
               a(2) = (   0.000000   0.584180   0.811624 )  
               a(3) = (  -0.505915  -0.292090   0.811624 )  

     reciprocal axes: (cart. coord. in units 2 pi/alat)
               b(1) = (  0.988308 -0.570600  0.410699 )  
               b(2) = (  0.000000  1.141200  0.410699 )  
               b(3) = ( -0.988308 -0.570600  0.410699 )  


     PseudoPot. # 1 for Co read from file:
     /home/mcurnan/dft-course/Project1/example_LaCoO3/Co.pbe-nd-rrkjus.UPF
     MD5 check sum: 3e47a84addf5e975e0edeaeee2a73f59
     Pseudo is Ultrasoft + core correction, Zval =  9.0
     Generated by new atomic code, or converted to UPF format
     Using radial grid of  961 points,  6 beta functions with: 
                l(1) =   0
                l(2) =   0
                l(3) =   1
                l(4) =   1
                l(5) =   2
                l(6) =   2
     Q(r) pseudized with 0 coefficients 


     PseudoPot. # 2 for La read from file:
     /home/mcurnan/dft-course/Project1/example_LaCoO3/La.pbe-nsp-van.UPF
     MD5 check sum: b2f11743f52dde65f77d1302becd7929
     Pseudo is Ultrasoft + core correction, Zval = 11.0
     Generated by new atomic code, or converted to UPF format
     Using radial grid of  907 points,  6 beta functions with: 
                l(1) =   0
                l(2) =   0
                l(3) =   1
                l(4) =   1
                l(5) =   2
                l(6) =   2
     Q(r) pseudized with  6 coefficients,  rinner =    1.200   1.200   1.200
                                                       1.200   1.200

     PseudoPot. # 3 for La read from file:
     /home/mcurnan/dft-course/Project1/example_LaCoO3/La.pbe-nsp-van.UPF
     MD5 check sum: b2f11743f52dde65f77d1302becd7929
     Pseudo is Ultrasoft + core correction, Zval = 11.0
     Generated by new atomic code, or converted to UPF format
     Using radial grid of  907 points,  6 beta functions with: 
                l(1) =   0
                l(2) =   0
                l(3) =   1
                l(4) =   1
                l(5) =   2
                l(6) =   2
     Q(r) pseudized with  6 coefficients,  rinner =    1.200   1.200   1.200
                                                       1.200   1.200

     PseudoPot. # 4 for O  read from file:
     /home/mcurnan/dft-course/Project1/example_LaCoO3/O.pbe-rrkjus.UPF
     MD5 check sum: 390ba29e75625707450f3bd3f0eb6be9
     Pseudo is Ultrasoft, Zval =  6.0
     Generated by new atomic code, or converted to UPF format
     Using radial grid of 1269 points,  4 beta functions with: 
                l(1) =   0
                l(2) =   0
                l(3) =   1
                l(4) =   1
     Q(r) pseudized with 0 coefficients 


     atomic species   valence    mass     pseudopotential
        Co1            9.00     1.00000     Co( 1.00)
        La1           11.00     1.00000     La( 1.00)
        La2           11.00     1.00000     La( 1.00)
        O1             6.00     1.00000     O ( 1.00)
 -----
     simplified LDA+U calculation, Hubbard_lmax = 2
     atomic species  L   Hubbard U  Hubbard alpha
        Co1          2    1.000000    0.000000
        La1          2    0.000000   -0.150000
        La2          2    0.000000    0.000000
        O1           1    0.000000    0.000000
 -----

      3 Sym. Ops. (no inversion) found


                                    s                        frac. trans.

      isym =  1     identity                                     

 cryst.   s( 1) = (     1          0          0      )
                  (     0          1          0      )
                  (     0          0          1      )

 cart.    s( 1) = (  1.0000000  0.0000000  0.0000000 )
                  (  0.0000000  1.0000000  0.0000000 )
                  (  0.0000000  0.0000000  1.0000000 )


      isym =  2     120 deg rotation - cryst. axis [0,0,1]       

 cryst.   s( 2) = (     0          1          0      )
                  (     0          0          1      )
                  (     1          0          0      )

 cart.    s( 2) = ( -0.5000000 -0.8660254  0.0000000 )
                  (  0.8660254 -0.5000000  0.0000000 )
                  (  0.0000000  0.0000000  1.0000000 )


      isym =  3     120 deg rotation - cryst. axis [0,0,-1]      

 cryst.   s( 3) = (     0          0          1      )
                  (     1          0          0      )
                  (     0          1          0      )

 cart.    s( 3) = ( -0.5000000  0.8660254  0.0000000 )
                  ( -0.8660254 -0.5000000  0.0000000 )
                  (  0.0000000  0.0000000  1.0000000 )


     point group C_3 (3)    
     there are  3 classes
     the character table:

       E     C3    C3^2 
A      1.00  1.00  1.00
E      1.00 -0.50 -0.50
E*     1.00 -0.50 -0.50
     imaginary part
A      0.00  0.00  0.00
E      0.00  0.87 -0.87
E*     0.00 -0.87  0.87

     the symmetry operations in each class:
     E        1
     C3       2
     C3^2     3

   Cartesian axes

     site n.     atom                  positions (alat units)
         1           Co1 tau(   1) = (   0.0000000   0.0000000   1.8261537  )
         2           Co1 tau(   2) = (   0.0000000   0.0000000   0.6087179  )
         3           La1 tau(   3) = (   0.0000000   0.0000000   0.0000000  )
         4           La2 tau(   4) = (   0.0000000   0.0000000   1.2174358  )
         5           O1  tau(   5) = (   0.2831100  -0.0928263   1.6236536  )
         6           O1  tau(   6) = (  -0.2219449  -0.1987674   1.6236536  )
         7           O1  tau(   7) = (  -0.0611651   0.2915936   1.6236536  )
         8           O1  tau(   8) = (   0.2228050   0.3849164   1.2170300  )
         9           O1  tau(   9) = (   0.2219449  -0.3854130   1.2170300  )
        10           O1  tau(  10) = (  -0.4447499   0.0004966   1.2170300  )

   Crystallographic axes

     site n.     atom                  positions (cryst. coord.)
         1           Co1 tau(   1) = (  0.7500000  0.7500000  0.7500000  )
         2           Co1 tau(   2) = (  0.2500000  0.2500000  0.2500000  )
         3           La1 tau(   3) = (  0.0000000  0.0000000  0.0000000  )
         4           La2 tau(   4) = (  0.5000000  0.5000000  0.5000000  )
         5           O1  tau(   5) = (  0.9996000  0.5609000  0.4400000  )
         6           O1  tau(   6) = (  0.5609000  0.4400000  0.9996000  )
         7           O1  tau(   7) = (  0.4400000  0.9996000  0.5609000  )
         8           O1  tau(   8) = (  0.5004000  0.9391000  0.0600000  )
         9           O1  tau(   9) = (  0.9391000  0.0600000  0.5004000  )
        10           O1  tau(  10) = (  0.0600000  0.5004000  0.9391000  )

     number of k points=    14  gaussian smearing, width (Ry)=  0.0300
                       cart. coord. in units 2pi/alat
        k(    1) = (   0.0000000   0.0000000   0.0000000), wk =   0.0312500
        k(    2) = (  -0.2470771  -0.1426500   0.1026748), wk =   0.1875000
        k(    3) = (   0.4941541   0.2853000  -0.2053496), wk =   0.0937500
        k(    4) = (  -0.2470771   0.1426500   0.2053496), wk =   0.1875000
        k(    5) = (   0.4941541   0.5706001  -0.1026748), wk =   0.1875000
        k(    6) = (   0.2470771   0.4279500   0.0000000), wk =   0.1875000
        k(    7) = (   0.4941541  -0.2853000  -0.4106993), wk =   0.0937500
        k(    8) = (   0.0000000   0.0000000   0.3080244), wk =   0.0625000
        k(    9) = (   0.7412312   0.4279500   0.0000000), wk =   0.1875000
        k(   10) = (   0.4941541   0.2853000   0.1026748), wk =   0.1875000
        k(   11) = (   0.7412312  -0.4279500  -0.3080244), wk =   0.1875000
        k(   12) = (   0.4941541  -0.5706001  -0.2053496), wk =   0.1875000
        k(   13) = (   0.0000000   0.0000000  -0.6160489), wk =   0.0312500
        k(   14) = (   0.4941541  -0.5706001   0.1026748), wk =   0.1875000

                       cryst. coord.
        k(    1) = (   0.0000000   0.0000000   0.0000000), wk =   0.0312500
        k(    2) = (   0.0000000   0.0000000   0.2500000), wk =   0.1875000
        k(    3) = (   0.0000000   0.0000000  -0.5000000), wk =   0.0937500
        k(    4) = (   0.0000000   0.2500000   0.2500000), wk =   0.1875000
        k(    5) = (   0.0000000   0.2500000  -0.5000000), wk =   0.1875000
        k(    6) = (   0.0000000   0.2500000  -0.2500000), wk =   0.1875000
        k(    7) = (   0.0000000  -0.5000000  -0.5000000), wk =   0.0937500
        k(    8) = (   0.2500000   0.2500000   0.2500000), wk =   0.0625000
        k(    9) = (   0.2500000   0.2500000  -0.5000000), wk =   0.1875000
        k(   10) = (   0.2500000   0.2500000  -0.2500000), wk =   0.1875000
        k(   11) = (   0.2500000  -0.5000000  -0.5000000), wk =   0.1875000
        k(   12) = (   0.2500000  -0.5000000  -0.2500000), wk =   0.1875000
        k(   13) = (  -0.5000000  -0.5000000  -0.5000000), wk =   0.0312500
        k(   14) = (   0.5000000  -0.2500000   0.0000000), wk =   0.1875000

     Dense  grid:    69617 G-vectors     FFT dimensions: (  60,  60,  60)

     Smooth grid:    17573 G-vectors     FFT dimensions: (  40,  40,  40)

     Largest allocated arrays     est. size (Mb)     dimensions
        Kohn-Sham Wavefunctions         0.78 Mb     (   1117,   46)
        Atomic wavefunctions            1.06 Mb     (   1117,   62)
        NL pseudopotentials             2.05 Mb     (   1117,  120)
        Each V/rho on FFT grid          1.65 Mb     ( 108000)
        Each G-vector array             0.27 Mb     (  34808)
        G-vector shells                 0.04 Mb     (   4682)
     Largest temporary arrays     est. size (Mb)     dimensions
        Auxiliary wavefunctions         3.14 Mb     (   1117,  184)
        Each subspace H/S matrix        0.52 Mb     ( 184, 184)
        Each <psi_i|beta_j> matrix      0.08 Mb     (    120,   46)
        Arrays for rho mixing          13.18 Mb     ( 108000,   8)

     Check: negative/imaginary core charge=   -0.000028    0.000000

     The initial density is read from file :
     /home/mcurnan/dft-course/Project1/example_LaCoO3/100/La/alpha/CoLaO_U100.save/charge-density.dat

 --- in v_hubbard ---
Hubbard energy    0.0538
 -------
     Number of +U iterations with fixed ns =  0
     Starting occupations:
 --- enter write_ns ---
 LDA+U parameters:
U( 1)     =  1.00000000
alpha( 1) =  0.00000000
U( 2)     =  0.00000000
alpha( 2) = -0.15000000
U( 3)     =  0.00000000
alpha( 3) =  0.00000000
U( 4)     =  0.00000000
alpha( 4) =  0.00000000
atom    1   Tr[ns(na)] =   8.02205
    eigenvalues: 
  0.596  0.596  0.938  0.941  0.941
    eigenvectors:
  0.000  0.000  1.000  0.000  0.000
  0.334  0.321  0.000  0.004  0.341
  0.321  0.334  0.000  0.341  0.004
  0.288  0.057  0.000  0.515  0.140
  0.057  0.288  0.000  0.140  0.515
    occupations:
  0.938  0.000  0.000  0.000  0.000
  0.000  0.715  0.000 -0.060  0.152
  0.000  0.000  0.715  0.152  0.060
  0.000 -0.060  0.152  0.822  0.000
  0.000  0.152  0.060  0.000  0.822
atom    2   Tr[ns(na)] =   8.02143
    eigenvalues: 
  0.595  0.595  0.938  0.941  0.941
    eigenvectors:
  0.000  0.000  1.000  0.000  0.000
  0.638  0.017  0.000  0.223  0.122
  0.017  0.638  0.000  0.122  0.223
  0.015  0.330  0.000  0.470  0.185
  0.330  0.015  0.000  0.185  0.470
    occupations:
  0.938  0.000  0.000  0.000  0.000
  0.000  0.715  0.000  0.060  0.153
  0.000  0.000  0.715  0.153 -0.060
  0.000  0.060  0.153  0.822  0.000
  0.000  0.153 -0.060  0.000  0.822
atom    3   Tr[ns(na)] =   3.80283
    eigenvalues: 
  0.355  0.355  0.384  0.403  0.403
    eigenvectors:
  0.000  0.000  1.000  0.000  0.000
  0.781  0.140  0.000  0.012  0.068
  0.140  0.781  0.000  0.068  0.012
  0.013  0.067  0.000  0.780  0.140
  0.067  0.013  0.000  0.140  0.780
    occupations:
  0.384  0.000  0.000  0.000  0.000
  0.000  0.359  0.000  0.000  0.013
  0.000  0.000  0.359  0.013  0.000
  0.000  0.000  0.013  0.399  0.000
  0.000  0.013  0.000  0.000  0.399
atom    4   Tr[ns(na)] =   3.80283
    eigenvalues: 
  0.355  0.355  0.384  0.403  0.403
    eigenvectors:
  0.000  0.000  1.000  0.000  0.000
  0.781  0.140  0.000  0.012  0.068
  0.140  0.781  0.000  0.068  0.012
  0.013  0.067  0.000  0.780  0.140
  0.067  0.013  0.000  0.140  0.780
    occupations:
  0.384  0.000  0.000  0.000  0.000
  0.000  0.359  0.000  0.000  0.013
  0.000  0.000  0.359  0.013  0.000
  0.000  0.000  0.013  0.399  0.000
  0.000  0.013  0.000  0.000  0.399
atom    5   Tr[ns(na)] =   5.43358
    eigenvalues: 
  0.846  0.929  0.941
    eigenvectors:
  0.340  0.000  0.660
  0.496  0.250  0.255
  0.164  0.750  0.086
    occupations:
  0.909 -0.039  0.022
 -0.039  0.891  0.022
  0.022  0.022  0.917
atom    6   Tr[ns(na)] =   5.43358
    eigenvalues: 
  0.846  0.929  0.941
    eigenvectors:
  0.340  0.000  0.660
  0.494  0.250  0.256
  0.166  0.750  0.085
    occupations:
  0.909  0.039  0.022
  0.039  0.891 -0.022
  0.022 -0.022  0.917
atom    7   Tr[ns(na)] =   5.43358
    eigenvalues: 
  0.846  0.929  0.941
    eigenvectors:
  0.340  0.000  0.660
  0.000  1.000  0.000
  0.660  0.000  0.340
    occupations:
  0.909  0.000 -0.045
  0.000  0.929  0.000
 -0.045  0.000  0.879
atom    8   Tr[ns(na)] =   5.43358
    eigenvalues: 
  0.846  0.929  0.941
    eigenvectors:
  0.340  0.000  0.660
  0.496  0.250  0.255
  0.164  0.750  0.086
    occupations:
  0.909 -0.039  0.022
 -0.039  0.891  0.022
  0.022  0.022  0.917
atom    9   Tr[ns(na)] =   5.43358
    eigenvalues: 
  0.846  0.929  0.941
    eigenvectors:
  0.340  0.000  0.660
  0.494  0.250  0.256
  0.166  0.750  0.085
    occupations:
  0.909  0.039  0.022
  0.039  0.891 -0.022
  0.022 -0.022  0.917
atom   10   Tr[ns(na)] =   5.43358
    eigenvalues: 
  0.846  0.929  0.941
    eigenvectors:
  0.340  0.000  0.660
  0.000  1.000  0.000
  0.660  0.000  0.340
    occupations:
  0.909  0.000 -0.045
  0.000  0.929  0.000
 -0.045  0.000  0.879
N of occupied +U levels =  56.2506014
 --- exit write_ns ---
 LDA+U Projector read from file 
     Starting wfc from file

     total cpu time spent up to now is        8.0 secs

     per-process dynamical memory:    47.1 Mb

     Self-consistent Calculation

     iteration #  1     ecut=    30.00 Ry     beta=0.20
     Davidson diagonalization with overlap
     c_bands:  1 eigenvalues not converged
     c_bands:  1 eigenvalues not converged
     c_bands:  1 eigenvalues not converged
     c_bands:  1 eigenvalues not converged
     c_bands:  1 eigenvalues not converged
     c_bands:  1 eigenvalues not converged
     c_bands:  1 eigenvalues not converged
     c_bands:  1 eigenvalues not converged
     c_bands:  1 eigenvalues not converged
     ethr =  1.00E-10,  avg # of iterations = 18.1
 --- enter write_ns ---
 LDA+U parameters:
U( 1)     =  1.00000000
alpha( 1) =  0.00000000
U( 2)     =  0.00000000
alpha( 2) = -0.15000000
U( 3)     =  0.00000000
alpha( 3) =  0.00000000
U( 4)     =  0.00000000
alpha( 4) =  0.00000000
atom    1   Tr[ns(na)] =   8.07557
    eigenvalues: 
  0.577  0.577  0.961  0.962  0.962
    eigenvectors:
  0.000  0.000  1.000  0.000  0.000
  0.331  0.323  0.000  0.005  0.341
  0.323  0.331  0.000  0.341  0.005
  0.287  0.058  0.000  0.513  0.141
  0.058  0.287  0.000  0.141  0.513
    occupations:
  0.961  0.000  0.000  0.000  0.000
  0.000  0.710  0.000 -0.066  0.171
  0.000  0.000  0.710  0.171  0.066
  0.000 -0.066  0.171  0.829  0.000
  0.000  0.171  0.066  0.000  0.829
atom    2   Tr[ns(na)] =   8.07229
    eigenvalues: 
  0.575  0.575  0.961  0.962  0.962
    eigenvectors:
  0.000  0.000  1.000  0.000  0.000
  0.636  0.019  0.000  0.220  0.125
  0.019  0.636  0.000  0.125  0.220
  0.013  0.333  0.000  0.469  0.185
  0.333  0.013  0.000  0.185  0.469
    occupations:
  0.961  0.000  0.000  0.000  0.000
  0.000  0.709  0.000  0.066  0.172
  0.000  0.000  0.709  0.172 -0.066
  0.000  0.066  0.172  0.828  0.000
  0.000  0.172 -0.066  0.000  0.828
atom    3   Tr[ns(na)] =   3.85502
    eigenvalues: 
  0.362  0.362  0.388  0.408  0.408
    eigenvectors:
  0.000  0.000  1.000  0.000  0.000
  0.785  0.138  0.000  0.011  0.066
  0.138  0.785  0.000  0.066  0.011
  0.012  0.065  0.000  0.784  0.140
  0.065  0.012  0.000  0.140  0.784
    occupations:
  0.388  0.000  0.000  0.000  0.000
  0.000  0.365  0.000  0.000  0.012
  0.000  0.000  0.365  0.012  0.000
  0.000  0.000  0.012  0.404  0.000
  0.000  0.012  0.000  0.000  0.404
atom    4   Tr[ns(na)] =   3.80216
    eigenvalues: 
  0.356  0.356  0.383  0.403  0.403
    eigenvectors:
  0.000  0.000  1.000  0.000  0.000
  0.781  0.139  0.000  0.012  0.068
  0.139  0.781  0.000  0.068  0.012
  0.013  0.067  0.000  0.780  0.140
  0.067  0.013  0.000  0.140  0.780
    occupations:
  0.383  0.000  0.000  0.000  0.000
  0.000  0.360  0.000  0.000  0.013
  0.000  0.000  0.360  0.013  0.000
  0.000  0.000  0.013  0.399  0.000
  0.000  0.013  0.000  0.000  0.399
atom    5   Tr[ns(na)] =   5.41786
    eigenvalues: 
  0.841  0.927  0.941
    eigenvectors:
  0.341  0.000  0.659
  0.495  0.250  0.255
  0.164  0.750  0.086
    occupations:
  0.907 -0.041  0.024
 -0.041  0.888  0.022
  0.024  0.022  0.914
atom    6   Tr[ns(na)] =   5.41786
    eigenvalues: 
  0.841  0.927  0.941
    eigenvectors:
  0.341  0.000  0.659
  0.494  0.250  0.256
  0.165  0.750  0.085
    occupations:
  0.907  0.041  0.024
  0.041  0.888 -0.022
  0.024 -0.022  0.914
atom    7   Tr[ns(na)] =   5.41786
    eigenvalues: 
  0.841  0.927  0.941
    eigenvectors:
  0.341  0.000  0.659
  0.000  1.000  0.000
  0.659  0.000  0.341
    occupations:
  0.907  0.000 -0.048
  0.000  0.927  0.000
 -0.048  0.000  0.875
atom    8   Tr[ns(na)] =   5.41812
    eigenvalues: 
  0.841  0.928  0.941
    eigenvectors:
  0.341  0.000  0.659
  0.495  0.250  0.255
  0.164  0.750  0.086
    occupations:
  0.907 -0.041  0.024
 -0.041  0.888  0.023
  0.024  0.023  0.914
atom    9   Tr[ns(na)] =   5.41812
    eigenvalues: 
  0.841  0.928  0.941
    eigenvectors:
  0.341  0.000  0.659
  0.494  0.250  0.256
  0.165  0.750  0.085
    occupations:
  0.907  0.041  0.024
  0.041  0.888 -0.023
  0.024 -0.023  0.914
atom   10   Tr[ns(na)] =   5.41812
    eigenvalues: 
  0.841  0.928  0.941
    eigenvectors:
  0.341  0.000  0.659
  0.000  1.000  0.000
  0.659  0.000  0.341
    occupations:
  0.907  0.000 -0.048
  0.000  0.928  0.000
 -0.048  0.000  0.875
N of occupied +U levels =  56.3130056
 --- exit write_ns ---
 --- in v_hubbard ---
Hubbard energy    0.0522
 -------

     total cpu time spent up to now is       46.9 secs

     total energy              =    -538.28262914 Ry
     Harris-Foulkes estimate   =    -538.28348554 Ry
     estimated scf accuracy    <       0.00428081 Ry

     iteration #  2     ecut=    30.00 Ry     beta=0.20
     Davidson diagonalization with overlap
     ethr =  5.63E-06,  avg # of iterations =  1.2
 --- enter write_ns ---
 LDA+U parameters:
U( 1)     =  1.00000000
alpha( 1) =  0.00000000
U( 2)     =  0.00000000
alpha( 2) = -0.15000000
U( 3)     =  0.00000000
alpha( 3) =  0.00000000
U( 4)     =  0.00000000
alpha( 4) =  0.00000000
atom    1   Tr[ns(na)] =   8.02597
    eigenvalues: 
  0.566  0.566  0.960  0.961  0.961
    eigenvectors:
  0.000  0.000  1.000  0.000  0.000
  0.333  0.322  0.000  0.004  0.340
  0.322  0.333  0.000  0.340  0.004
  0.287  0.058  0.000  0.514  0.141
  0.058  0.287  0.000  0.141  0.514
    occupations:
  0.960  0.000  0.000  0.000  0.000
  0.000  0.702  0.000 -0.068  0.175
  0.000  0.000  0.702  0.175  0.068
  0.000 -0.068  0.175  0.825  0.000
  0.000  0.175  0.068  0.000  0.825
atom    2   Tr[ns(na)] =   8.03415
    eigenvalues: 
  0.565  0.565  0.961  0.962  0.962
    eigenvectors:
  0.000  0.000  1.000  0.000  0.000
  0.637  0.018  0.000  0.221  0.124
  0.018  0.637  0.000  0.124  0.221
  0.014  0.331  0.000  0.470  0.185
  0.331  0.014  0.000  0.185  0.470
    occupations:
  0.961  0.000  0.000  0.000  0.000
  0.000  0.702  0.000  0.068  0.176
  0.000  0.000  0.702  0.176 -0.068
  0.000  0.068  0.176  0.826  0.000
  0.000  0.176 -0.068  0.000  0.826
atom    3   Tr[ns(na)] =   3.84791
    eigenvalues: 
  0.361  0.361  0.388  0.407  0.407
    eigenvectors:
  0.000  0.000  1.000  0.000  0.000
  0.785  0.138  0.000  0.011  0.066
  0.138  0.785  0.000  0.066  0.011
  0.012  0.065  0.000  0.783  0.140
  0.065  0.012  0.000  0.140  0.783
    occupations:
  0.388  0.000  0.000  0.000  0.000
  0.000  0.364  0.000  0.000  0.012
  0.000  0.000  0.364  0.012  0.000
  0.000  0.000  0.012  0.404  0.000
  0.000  0.012  0.000  0.000  0.404
atom    4   Tr[ns(na)] =   3.79871
    eigenvalues: 
  0.355  0.355  0.383  0.403  0.403
    eigenvectors:
  0.000  0.000  1.000  0.000  0.000
  0.781  0.139  0.000  0.012  0.068
  0.139  0.781  0.000  0.068  0.012
  0.013  0.067  0.000  0.780  0.140
  0.067  0.013  0.000  0.140  0.780
    occupations:
  0.383  0.000  0.000  0.000  0.000
  0.000  0.359  0.000  0.000  0.013
  0.000  0.000  0.359  0.013  0.000
  0.000  0.000  0.013  0.399  0.000
  0.000  0.013  0.000  0.000  0.399
atom    5   Tr[ns(na)] =   5.43266
    eigenvalues: 
  0.845  0.929  0.943
    eigenvectors:
  0.339  0.000  0.661
  0.496  0.250  0.254
  0.165  0.750  0.085
    occupations:
  0.909 -0.040  0.023
 -0.040  0.891  0.022
  0.023  0.022  0.916
atom    6   Tr[ns(na)] =   5.43266
    eigenvalues: 
  0.845  0.929  0.943
    eigenvectors:
  0.339  0.000  0.661
  0.495  0.250  0.255
  0.165  0.750  0.084
    occupations:
  0.909  0.040  0.023
  0.040  0.891 -0.022
  0.023 -0.022  0.916
atom    7   Tr[ns(na)] =   5.43266
    eigenvalues: 
  0.845  0.929  0.943
    eigenvectors:
  0.339  0.000  0.661
  0.000  1.000  0.000
  0.661  0.000  0.339
    occupations:
  0.909  0.000 -0.046
  0.000  0.929  0.000
 -0.046  0.000  0.878
atom    8   Tr[ns(na)] =   5.43272
    eigenvalues: 
  0.845  0.930  0.942
    eigenvectors:
  0.339  0.000  0.661
  0.496  0.251  0.254
  0.165  0.749  0.085
    occupations:
  0.909 -0.040  0.023
 -0.040  0.891  0.022
  0.023  0.022  0.917
atom    9   Tr[ns(na)] =   5.43272
    eigenvalues: 
  0.845  0.930  0.942
    eigenvectors:
  0.339  0.000  0.661
  0.495  0.249  0.255
  0.165  0.751  0.084
    occupations:
  0.909  0.040  0.023
  0.040  0.891 -0.022
  0.023 -0.022  0.917
atom   10   Tr[ns(na)] =   5.43272
    eigenvalues: 
  0.845  0.930  0.942
    eigenvectors:
  0.339  0.000  0.661
  0.000  1.000  0.000
  0.661  0.000  0.339
    occupations:
  0.909  0.000 -0.046
  0.000  0.930  0.000
 -0.046  0.000  0.878
N of occupied +U levels =  56.3028803
 --- exit write_ns ---
 --- in v_hubbard ---
Hubbard energy    0.0514
 -------

     total cpu time spent up to now is       58.7 secs

     total energy              =    -538.28309594 Ry
     Harris-Foulkes estimate   =    -538.28319570 Ry
     estimated scf accuracy    <       0.00211246 Ry

     iteration #  3     ecut=    30.00 Ry     beta=0.20
     Davidson diagonalization with overlap
     ethr =  2.78E-06,  avg # of iterations =  1.0
 --- enter write_ns ---
 LDA+U parameters:
U( 1)     =  1.00000000
alpha( 1) =  0.00000000
U( 2)     =  0.00000000
alpha( 2) = -0.15000000
U( 3)     =  0.00000000
alpha( 3) =  0.00000000
U( 4)     =  0.00000000
alpha( 4) =  0.00000000
atom    1   Tr[ns(na)] =   8.05289
    eigenvalues: 
  0.570  0.570  0.961  0.962  0.962
    eigenvectors:
  0.000  0.000  1.000  0.000  0.000
  0.333  0.322  0.000  0.004  0.340
  0.322  0.333  0.000  0.340  0.004
  0.287  0.058  0.000  0.515  0.141
  0.058  0.287  0.000  0.141  0.515
    occupations:
  0.961  0.000  0.000  0.000  0.000
  0.000  0.705  0.000 -0.068  0.174
  0.000  0.000  0.705  0.174  0.068
  0.000 -0.068  0.174  0.827  0.000
  0.000  0.174  0.068  0.000  0.827
atom    2   Tr[ns(na)] =   8.03180
    eigenvalues: 
  0.567  0.567  0.960  0.961  0.961
    eigenvectors:
  0.000  0.000  1.000  0.000  0.000
  0.636  0.019  0.000  0.220  0.125
  0.019  0.636  0.000  0.125  0.220
  0.013  0.332  0.000  0.470  0.185
  0.332  0.013  0.000  0.185  0.470
    occupations:
  0.960  0.000  0.000  0.000  0.000
  0.000  0.703  0.000  0.067  0.175
  0.000  0.000  0.703  0.175 -0.067
  0.000  0.067  0.175  0.825  0.000
  0.000  0.175 -0.067  0.000  0.825
atom    3   Tr[ns(na)] =   3.84583
    eigenvalues: 
  0.361  0.361  0.388  0.407  0.407
    eigenvectors:
  0.000  0.000  1.000  0.000  0.000
  0.784  0.138  0.000  0.011  0.066
  0.138  0.784  0.000  0.066  0.011
  0.012  0.065  0.000  0.783  0.140
  0.065  0.012  0.000  0.140  0.783
    occupations:
  0.388  0.000  0.000  0.000  0.000
  0.000  0.364  0.000  0.000  0.012
  0.000  0.000  0.364  0.012  0.000
  0.000  0.000  0.012  0.404  0.000
  0.000  0.012  0.000  0.000  0.404
atom    4   Tr[ns(na)] =   3.79798
    eigenvalues: 
  0.355  0.355  0.383  0.403  0.403
    eigenvectors:
  0.000  0.000  1.000  0.000  0.000
  0.781  0.140  0.000  0.012  0.068
  0.140  0.781  0.000  0.068  0.012
  0.013  0.067  0.000  0.780  0.141
  0.067  0.013  0.000  0.141  0.780
    occupations:
  0.383  0.000  0.000  0.000  0.000
  0.000  0.359  0.000  0.000  0.013
  0.000  0.000  0.359  0.013  0.000
  0.000  0.000  0.013  0.399  0.000
  0.000  0.013  0.000  0.000  0.399
atom    5   Tr[ns(na)] =   5.42923
    eigenvalues: 
  0.844  0.928  0.942
    eigenvectors:
  0.340  0.000  0.660
  0.497  0.249  0.254
  0.164  0.751  0.085
    occupations:
  0.909 -0.041  0.023
 -0.041  0.890  0.022
  0.023  0.022  0.916
atom    6   Tr[ns(na)] =   5.42923
    eigenvalues: 
  0.844  0.928  0.942
    eigenvectors:
  0.340  0.000  0.660
  0.494  0.251  0.255
  0.166  0.749  0.085
    occupations:
  0.909  0.040  0.023
  0.040  0.890 -0.022
  0.023 -0.022  0.916
atom    7   Tr[ns(na)] =   5.42923
    eigenvalues: 
  0.844  0.928  0.942
    eigenvectors:
  0.340  0.000  0.660
  0.000  1.000  0.000
  0.660  0.000  0.340
    occupations:
  0.909  0.000 -0.047
  0.000  0.928  0.000
 -0.047  0.000  0.877
atom    8   Tr[ns(na)] =   5.42928
    eigenvalues: 
  0.844  0.929  0.942
    eigenvectors:
  0.340  0.000  0.660
  0.497  0.249  0.254
  0.164  0.751  0.085
    occupations:
  0.909 -0.040  0.023
 -0.040  0.890  0.022
  0.023  0.022  0.916
atom    9   Tr[ns(na)] =   5.42928
    eigenvalues: 
  0.844  0.929  0.942
    eigenvectors:
  0.340  0.000  0.660
  0.494  0.251  0.255
  0.166  0.749  0.085
    occupations:
  0.909  0.040  0.023
  0.040  0.890 -0.023
  0.023 -0.023  0.916
atom   10   Tr[ns(na)] =   5.42928
    eigenvalues: 
  0.844  0.929  0.942
    eigenvectors:
  0.340  0.000  0.660
  0.000  1.000  0.000
  0.660  0.000  0.340
    occupations:
  0.909  0.000 -0.047
  0.000  0.929  0.000
 -0.047  0.000  0.877
N of occupied +U levels =  56.3040416
 --- exit write_ns ---
 --- in v_hubbard ---
Hubbard energy    0.0503
 -------

     total cpu time spent up to now is       71.4 secs

     total energy              =    -538.28310881 Ry
     Harris-Foulkes estimate   =    -538.28316901 Ry
     estimated scf accuracy    <       0.00128124 Ry

     iteration #  4     ecut=    30.00 Ry     beta=0.20
     Davidson diagonalization with overlap
     ethr =  1.69E-06,  avg # of iterations =  1.0
 --- enter write_ns ---
 LDA+U parameters:
U( 1)     =  1.00000000
alpha( 1) =  0.00000000
U( 2)     =  0.00000000
alpha( 2) = -0.15000000
U( 3)     =  0.00000000
alpha( 3) =  0.00000000
U( 4)     =  0.00000000
alpha( 4) =  0.00000000
atom    1   Tr[ns(na)] =   8.00846
    eigenvalues: 
  0.566  0.566  0.956  0.958  0.958
    eigenvectors:
  0.000  0.000  1.000  0.000  0.000
  0.332  0.323  0.000  0.005  0.340
  0.323  0.332  0.000  0.340  0.005
  0.285  0.059  0.000  0.514  0.142
  0.059  0.285  0.000  0.142  0.514
    occupations:
  0.956  0.000  0.000  0.000  0.000
  0.000  0.701  0.000 -0.067  0.174
  0.000  0.000  0.701  0.174  0.067
  0.000 -0.067  0.174  0.823  0.000
  0.000  0.174  0.067  0.000  0.823
atom    2   Tr[ns(na)] =   8.07846
    eigenvalues: 
  0.572  0.572  0.965  0.966  0.966
    eigenvectors:
  0.000  0.000  1.000  0.000  0.000
  0.638  0.018  0.000  0.222  0.123
  0.018  0.638  0.000  0.123  0.222
  0.014  0.330  0.000  0.471  0.185
  0.330  0.014  0.000  0.185  0.471
    occupations:
  0.965  0.000  0.000  0.000  0.000
  0.000  0.707  0.000  0.068  0.174
  0.000  0.000  0.707  0.174 -0.068
  0.000  0.068  0.174  0.830  0.000
  0.000  0.174 -0.068  0.000  0.830
atom    3   Tr[ns(na)] =   3.84341
    eigenvalues: 
  0.360  0.360  0.387  0.407  0.407
    eigenvectors:
  0.000  0.000  1.000  0.000  0.000
  0.785  0.138  0.000  0.011  0.066
  0.138  0.785  0.000  0.066  0.011
  0.012  0.065  0.000  0.783  0.140
  0.065  0.012  0.000  0.140  0.783
    occupations:
  0.387  0.000  0.000  0.000  0.000
  0.000  0.364  0.000  0.000  0.012
  0.000  0.000  0.364  0.012  0.000
  0.000  0.000  0.012  0.403  0.000
  0.000  0.012  0.000  0.000  0.403
atom    4   Tr[ns(na)] =   3.79746
    eigenvalues: 
  0.355  0.355  0.383  0.403  0.403
    eigenvectors:
  0.000  0.000  1.000  0.000  0.000
  0.781  0.139  0.000  0.012  0.068
  0.139  0.781  0.000  0.068  0.012
  0.012  0.067  0.000  0.780  0.140
  0.067  0.012  0.000  0.140  0.780
    occupations:
  0.383  0.000  0.000  0.000  0.000
  0.000  0.359  0.000  0.000  0.013
  0.000  0.000  0.359  0.013  0.000
  0.000  0.000  0.013  0.399  0.000
  0.000  0.013  0.000  0.000  0.399
atom    5   Tr[ns(na)] =   5.42919
    eigenvalues: 
  0.844  0.928  0.942
    eigenvectors:
  0.340  0.000  0.660
  0.493  0.254  0.254
  0.168  0.746  0.086
    occupations:
  0.909 -0.040  0.024
 -0.040  0.890  0.022
  0.024  0.022  0.915
atom    6   Tr[ns(na)] =   5.42919
    eigenvalues: 
  0.844  0.928  0.942
    eigenvectors:
  0.340  0.000  0.660
  0.498  0.246  0.256
  0.163  0.754  0.084
    occupations:
  0.909  0.041  0.023
  0.041  0.890 -0.022
  0.023 -0.022  0.916
atom    7   Tr[ns(na)] =   5.42919
    eigenvalues: 
  0.844  0.928  0.942
    eigenvectors:
  0.340  0.000  0.660
  0.000  1.000  0.000
  0.660  0.000  0.340
    occupations:
  0.909  0.000 -0.047
  0.000  0.928  0.000
 -0.047  0.000  0.877
atom    8   Tr[ns(na)] =   5.42921
    eigenvalues: 
  0.844  0.929  0.942
    eigenvectors:
  0.340  0.000  0.660
  0.493  0.254  0.253
  0.168  0.746  0.086
    occupations:
  0.909 -0.040  0.023
 -0.040  0.890  0.023
  0.023  0.023  0.916
atom    9   Tr[ns(na)] =   5.42921
    eigenvalues: 
  0.844  0.929  0.942
    eigenvectors:
  0.340  0.000  0.660
  0.498  0.246  0.256
  0.163  0.754  0.084
    occupations:
  0.909  0.040  0.023
  0.040  0.890 -0.022
  0.023 -0.022  0.916
atom   10   Tr[ns(na)] =   5.42921
    eigenvalues: 
  0.844  0.929  0.942
    eigenvectors:
  0.340  0.000  0.660
  0.000  1.000  0.000
  0.660  0.000  0.340
    occupations:
  0.909  0.000 -0.047
  0.000  0.929  0.000
 -0.047  0.000  0.877
N of occupied +U levels =  56.3029845
 --- exit write_ns ---
 --- in v_hubbard ---
Hubbard energy    0.0469
 -------

     total cpu time spent up to now is       83.7 secs

     total energy              =    -538.28307366 Ry
     Harris-Foulkes estimate   =    -538.28329018 Ry
     estimated scf accuracy    <       0.00333804 Ry

     iteration #  5     ecut=    30.00 Ry     beta=0.20
     Davidson diagonalization with overlap
     ethr =  1.69E-06,  avg # of iterations =  1.3
 --- enter write_ns ---
 LDA+U parameters:
U( 1)     =  1.00000000
alpha( 1) =  0.00000000
U( 2)     =  0.00000000
alpha( 2) = -0.15000000
U( 3)     =  0.00000000
alpha( 3) =  0.00000000
U( 4)     =  0.00000000
alpha( 4) =  0.00000000
atom    1   Tr[ns(na)] =   8.04550
    eigenvalues: 
  0.569  0.569  0.960  0.962  0.962
    eigenvectors:
  0.000  0.000  1.000  0.000  0.000
  0.334  0.322  0.000  0.004  0.339
  0.322  0.334  0.000  0.339  0.004
  0.285  0.058  0.000  0.515  0.141
  0.058  0.285  0.000  0.141  0.515
    occupations:
  0.960  0.000  0.000  0.000  0.000
  0.000  0.704  0.000 -0.068  0.174
  0.000  0.000  0.704  0.174  0.068
  0.000 -0.068  0.174  0.827  0.000
  0.000  0.174  0.068  0.000  0.827
atom    2   Tr[ns(na)] =   8.04334
    eigenvalues: 
  0.568  0.568  0.961  0.963  0.963
    eigenvectors:
  0.000  0.000  1.000  0.000  0.000
  0.637  0.020  0.000  0.219  0.124
  0.020  0.637  0.000  0.124  0.219
  0.013  0.331  0.000  0.471  0.185
  0.331  0.013  0.000  0.185  0.471
    occupations:
  0.961  0.000  0.000  0.000  0.000
  0.000  0.703  0.000  0.067  0.175
  0.000  0.000  0.703  0.175 -0.067
  0.000  0.067  0.175  0.827  0.000
  0.000  0.175 -0.067  0.000  0.827
atom    3   Tr[ns(na)] =   3.83748
    eigenvalues: 
  0.360  0.360  0.387  0.406  0.406
    eigenvectors:
  0.000  0.000  1.000  0.000  0.000
  0.784  0.139  0.000  0.011  0.066
  0.139  0.784  0.000  0.066  0.011
  0.012  0.065  0.000  0.783  0.140
  0.065  0.012  0.000  0.140  0.783
    occupations:
  0.387  0.000  0.000  0.000  0.000
  0.000  0.363  0.000  0.000  0.012
  0.000  0.000  0.363  0.012  0.000
  0.000  0.000  0.012  0.403  0.000
  0.000  0.012  0.000  0.000  0.403
atom    4   Tr[ns(na)] =   3.79682
    eigenvalues: 
  0.355  0.355  0.383  0.402  0.402
    eigenvectors:
  0.000  0.000  1.000  0.000  0.000
  0.781  0.140  0.000  0.012  0.068
  0.140  0.781  0.000  0.068  0.012
  0.013  0.067  0.000  0.780  0.140
  0.067  0.013  0.000  0.140  0.780
    occupations:
  0.383  0.000  0.000  0.000  0.000
  0.000  0.359  0.000  0.000  0.013
  0.000  0.000  0.359  0.013  0.000
  0.000  0.000  0.013  0.399  0.000
  0.000  0.013  0.000  0.000  0.399
atom    5   Tr[ns(na)] =   5.42958
    eigenvalues: 
  0.844  0.929  0.943
    eigenvectors:
  0.340  0.000  0.660
  0.496  0.250  0.254
  0.165  0.750  0.085
    occupations:
  0.909 -0.041  0.023
 -0.041  0.890  0.022
  0.023  0.022  0.916
atom    6   Tr[ns(na)] =   5.42958
    eigenvalues: 
  0.844  0.929  0.943
    eigenvectors:
  0.340  0.000  0.660
  0.495  0.250  0.255
  0.166  0.750  0.084
    occupations:
  0.909  0.041  0.023
  0.041  0.890 -0.022
  0.023 -0.022  0.916
atom    7   Tr[ns(na)] =   5.42958
    eigenvalues: 
  0.844  0.929  0.943
    eigenvectors:
  0.340  0.000  0.660
  0.000  1.000  0.000
  0.660  0.000  0.340
    occupations:
  0.909  0.000 -0.047
  0.000  0.929  0.000
 -0.047  0.000  0.877
atom    8   Tr[ns(na)] =   5.42957
    eigenvalues: 
  0.844  0.929  0.942
    eigenvectors:
  0.340  0.000  0.660
  0.496  0.250  0.254
  0.165  0.750  0.085
    occupations:
  0.909 -0.040  0.023
 -0.040  0.890  0.023
  0.023  0.023  0.916
atom    9   Tr[ns(na)] =   5.42957
    eigenvalues: 
  0.844  0.929  0.942
    eigenvectors:
  0.340  0.000  0.660
  0.495  0.250  0.255
  0.166  0.750  0.084
    occupations:
  0.909  0.040  0.023
  0.040  0.890 -0.023
  0.023 -0.023  0.916
atom   10   Tr[ns(na)] =   5.42957
    eigenvalues: 
  0.844  0.929  0.942
    eigenvectors:
  0.340  0.000  0.660
  0.000  1.000  0.000
  0.660  0.000  0.340
    occupations:
  0.909  0.000 -0.047
  0.000  0.929  0.000
 -0.047  0.000  0.877
N of occupied +U levels =  56.3006114
 --- exit write_ns ---
 --- in v_hubbard ---
Hubbard energy    0.0459
 -------

     total cpu time spent up to now is       95.6 secs

     total energy              =    -538.28318454 Ry
     Harris-Foulkes estimate   =    -538.28320107 Ry
     estimated scf accuracy    <       0.00004972 Ry

     iteration #  6     ecut=    30.00 Ry     beta=0.20
     Davidson diagonalization with overlap
     ethr =  6.54E-08,  avg # of iterations =  2.0
 --- enter write_ns ---
 LDA+U parameters:
U( 1)     =  1.00000000
alpha( 1) =  0.00000000
U( 2)     =  0.00000000
alpha( 2) = -0.15000000
U( 3)     =  0.00000000
alpha( 3) =  0.00000000
U( 4)     =  0.00000000
alpha( 4) =  0.00000000
atom    1   Tr[ns(na)] =   8.04184
    eigenvalues: 
  0.568  0.568  0.961  0.962  0.962
    eigenvectors:
  0.000  0.000  1.000  0.000  0.000
  0.334  0.322  0.000  0.004  0.340
  0.322  0.334  0.000  0.340  0.004
  0.286  0.058  0.000  0.515  0.141
  0.058  0.286  0.000  0.141  0.515
    occupations:
  0.961  0.000  0.000  0.000  0.000
  0.000  0.704  0.000 -0.068  0.174
  0.000  0.000  0.704  0.174  0.068
  0.000 -0.068  0.174  0.827  0.000
  0.000  0.174  0.068  0.000  0.827
atom    2   Tr[ns(na)] =   8.04086
    eigenvalues: 
  0.567  0.567  0.961  0.963  0.963
    eigenvectors:
  0.000  0.000  1.000  0.000  0.000
  0.637  0.019  0.000  0.220  0.124
  0.019  0.637  0.000  0.124  0.220
  0.013  0.331  0.000  0.471  0.185
  0.331  0.013  0.000  0.185  0.471
    occupations:
  0.961  0.000  0.000  0.000  0.000
  0.000  0.703  0.000  0.067  0.176
  0.000  0.000  0.703  0.176 -0.067
  0.000  0.067  0.176  0.827  0.000
  0.000  0.176 -0.067  0.000  0.827
atom    3   Tr[ns(na)] =   3.83934
    eigenvalues: 
  0.360  0.360  0.387  0.406  0.406
    eigenvectors:
  0.000  0.000  1.000  0.000  0.000
  0.785  0.138  0.000  0.011  0.066
  0.138  0.785  0.000  0.066  0.011
  0.012  0.065  0.000  0.783  0.140
  0.065  0.012  0.000  0.140  0.783
    occupations:
  0.387  0.000  0.000  0.000  0.000
  0.000  0.364  0.000  0.000  0.012
  0.000  0.000  0.364  0.012  0.000
  0.000  0.000  0.012  0.403  0.000
  0.000  0.012  0.000  0.000  0.403
atom    4   Tr[ns(na)] =   3.79832
    eigenvalues: 
  0.355  0.355  0.383  0.403  0.403
    eigenvectors:
  0.000  0.000  1.000  0.000  0.000
  0.782  0.139  0.000  0.012  0.068
  0.139  0.782  0.000  0.068  0.012
  0.012  0.067  0.000  0.781  0.140
  0.067  0.012  0.000  0.140  0.781
    occupations:
  0.383  0.000  0.000  0.000  0.000
  0.000  0.359  0.000  0.000  0.013
  0.000  0.000  0.359  0.013  0.000
  0.000  0.000  0.013  0.399  0.000
  0.000  0.013  0.000  0.000  0.399
atom    5   Tr[ns(na)] =   5.43011
    eigenvalues: 
  0.844  0.929  0.942
    eigenvectors:
  0.340  0.000  0.660
  0.496  0.250  0.254
  0.165  0.750  0.085
    occupations:
  0.909 -0.040  0.023
 -0.040  0.890  0.022
  0.023  0.022  0.916
atom    6   Tr[ns(na)] =   5.43011
    eigenvalues: 
  0.844  0.929  0.942
    eigenvectors:
  0.340  0.000  0.660
  0.495  0.250  0.255
  0.166  0.750  0.084
    occupations:
  0.909  0.040  0.023
  0.040  0.890 -0.022
  0.023 -0.022  0.916
atom    7   Tr[ns(na)] =   5.43011
    eigenvalues: 
  0.844  0.929  0.942
    eigenvectors:
  0.340  0.000  0.660
  0.000  1.000  0.000
  0.660  0.000  0.340
    occupations:
  0.909  0.000 -0.047
  0.000  0.929  0.000
 -0.047  0.000  0.877
atom    8   Tr[ns(na)] =   5.43019
    eigenvalues: 
  0.844  0.929  0.942
    eigenvectors:
  0.340  0.000  0.660
  0.496  0.250  0.254
  0.165  0.750  0.085
    occupations:
  0.909 -0.040  0.023
 -0.040  0.890  0.023
  0.023  0.023  0.916
atom    9   Tr[ns(na)] =   5.43019
    eigenvalues: 
  0.844  0.929  0.942
    eigenvectors:
  0.340  0.000  0.660
  0.495  0.250  0.255
  0.166  0.750  0.084
    occupations:
  0.909  0.040  0.023
  0.040  0.890 -0.023
  0.023 -0.023  0.916
atom   10   Tr[ns(na)] =   5.43019
    eigenvalues: 
  0.844  0.929  0.942
    eigenvectors:
  0.340  0.000  0.660
  0.000  1.000  0.000
  0.660  0.000  0.340
    occupations:
  0.909  0.000 -0.047
  0.000  0.929  0.000
 -0.047  0.000  0.877
N of occupied +U levels =  56.3012626
 --- exit write_ns ---
 --- in v_hubbard ---
Hubbard energy    0.0460
 -------

     total cpu time spent up to now is      109.2 secs

     total energy              =    -538.28320129 Ry
     Harris-Foulkes estimate   =    -538.28319072 Ry
     estimated scf accuracy    <       0.00000923 Ry

     iteration #  7     ecut=    30.00 Ry     beta=0.20
     Davidson diagonalization with overlap
     ethr =  1.22E-08,  avg # of iterations =  2.0
 --- enter write_ns ---
 LDA+U parameters:
U( 1)     =  1.00000000
alpha( 1) =  0.00000000
U( 2)     =  0.00000000
alpha( 2) = -0.15000000
U( 3)     =  0.00000000
alpha( 3) =  0.00000000
U( 4)     =  0.00000000
alpha( 4) =  0.00000000
atom    1   Tr[ns(na)] =   8.04366
    eigenvalues: 
  0.569  0.569  0.961  0.962  0.962
    eigenvectors:
  0.000  0.000  1.000  0.000  0.000
  0.334  0.322  0.000  0.004  0.340
  0.322  0.334  0.000  0.340  0.004
  0.286  0.058  0.000  0.515  0.141
  0.058  0.286  0.000  0.141  0.515
    occupations:
  0.961  0.000  0.000  0.000  0.000
  0.000  0.704  0.000 -0.068  0.174
  0.000  0.000  0.704  0.174  0.068
  0.000 -0.068  0.174  0.827  0.000
  0.000  0.174  0.068  0.000  0.827
atom    2   Tr[ns(na)] =   8.04295
    eigenvalues: 
  0.567  0.567  0.961  0.963  0.963
    eigenvectors:
  0.000  0.000  1.000  0.000  0.000
  0.637  0.019  0.000  0.220  0.124
  0.019  0.637  0.000  0.124  0.220
  0.013  0.331  0.000  0.471  0.185
  0.331  0.013  0.000  0.185  0.471
    occupations:
  0.961  0.000  0.000  0.000  0.000
  0.000  0.703  0.000  0.067  0.175
  0.000  0.000  0.703  0.175 -0.067
  0.000  0.067  0.175  0.827  0.000
  0.000  0.175 -0.067  0.000  0.827
atom    3   Tr[ns(na)] =   3.84049
    eigenvalues: 
  0.360  0.360  0.387  0.407  0.407
    eigenvectors:
  0.000  0.000  1.000  0.000  0.000
  0.785  0.138  0.000  0.011  0.066
  0.138  0.785  0.000  0.066  0.011
  0.012  0.065  0.000  0.784  0.140
  0.065  0.012  0.000  0.140  0.784
    occupations:
  0.387  0.000  0.000  0.000  0.000
  0.000  0.364  0.000  0.000  0.012
  0.000  0.000  0.364  0.012  0.000
  0.000  0.000  0.012  0.403  0.000
  0.000  0.012  0.000  0.000  0.403
atom    4   Tr[ns(na)] =   3.79864
    eigenvalues: 
  0.355  0.355  0.383  0.403  0.403
    eigenvectors:
  0.000  0.000  1.000  0.000  0.000
  0.782  0.139  0.000  0.012  0.068
  0.139  0.782  0.000  0.068  0.012
  0.012  0.067  0.000  0.781  0.140
  0.067  0.012  0.000  0.140  0.781
    occupations:
  0.383  0.000  0.000  0.000  0.000
  0.000  0.359  0.000  0.000  0.013
  0.000  0.000  0.359  0.013  0.000
  0.000  0.000  0.013  0.399  0.000
  0.000  0.013  0.000  0.000  0.399
atom    5   Tr[ns(na)] =   5.42935
    eigenvalues: 
  0.844  0.929  0.942
    eigenvectors:
  0.340  0.000  0.660
  0.496  0.250  0.254
  0.165  0.750  0.085
    occupations:
  0.909 -0.041  0.023
 -0.041  0.890  0.022
  0.023  0.022  0.916
atom    6   Tr[ns(na)] =   5.42935
    eigenvalues: 
  0.844  0.929  0.942
    eigenvectors:
  0.340  0.000  0.660
  0.495  0.250  0.255
  0.166  0.750  0.084
    occupations:
  0.909  0.040  0.023
  0.040  0.890 -0.022
  0.023 -0.022  0.916
atom    7   Tr[ns(na)] =   5.42935
    eigenvalues: 
  0.844  0.929  0.942
    eigenvectors:
  0.340  0.000  0.660
  0.000  1.000  0.000
  0.660  0.000  0.340
    occupations:
  0.909  0.000 -0.047
  0.000  0.929  0.000
 -0.047  0.000  0.877
atom    8   Tr[ns(na)] =   5.42941
    eigenvalues: 
  0.844  0.929  0.942
    eigenvectors:
  0.340  0.000  0.660
  0.496  0.250  0.254
  0.165  0.750  0.085
    occupations:
  0.909 -0.040  0.023
 -0.040  0.890  0.023
  0.023  0.023  0.916
atom    9   Tr[ns(na)] =   5.42941
    eigenvalues: 
  0.844  0.929  0.942
    eigenvectors:
  0.340  0.000  0.660
  0.495  0.250  0.255
  0.166  0.750  0.084
    occupations:
  0.909  0.040  0.023
  0.040  0.890 -0.023
  0.023 -0.023  0.916
atom   10   Tr[ns(na)] =   5.42941
    eigenvalues: 
  0.844  0.929  0.942
    eigenvectors:
  0.340  0.000  0.660
  0.000  1.000  0.000
  0.660  0.000  0.340
    occupations:
  0.909  0.000 -0.047
  0.000  0.929  0.000
 -0.047  0.000  0.877
N of occupied +U levels =  56.3020157
 --- exit write_ns ---
 --- in v_hubbard ---
Hubbard energy    0.0460
 -------

     total cpu time spent up to now is      123.8 secs

     total energy              =    -538.28320936 Ry
     Harris-Foulkes estimate   =    -538.28320299 Ry
     estimated scf accuracy    <       0.00000116 Ry

     iteration #  8     ecut=    30.00 Ry     beta=0.20
     Davidson diagonalization with overlap
     ethr =  1.53E-09,  avg # of iterations =  2.0
 --- enter write_ns ---
 LDA+U parameters:
U( 1)     =  1.00000000
alpha( 1) =  0.00000000
U( 2)     =  0.00000000
alpha( 2) = -0.15000000
U( 3)     =  0.00000000
alpha( 3) =  0.00000000
U( 4)     =  0.00000000
alpha( 4) =  0.00000000
atom    1   Tr[ns(na)] =   8.04334
    eigenvalues: 
  0.569  0.569  0.961  0.962  0.962
    eigenvectors:
  0.000  0.000  1.000  0.000  0.000
  0.334  0.322  0.000  0.004  0.340
  0.322  0.334  0.000  0.340  0.004
  0.286  0.058  0.000  0.515  0.141
  0.058  0.286  0.000  0.141  0.515
    occupations:
  0.961  0.000  0.000  0.000  0.000
  0.000  0.704  0.000 -0.068  0.174
  0.000  0.000  0.704  0.174  0.068
  0.000 -0.068  0.174  0.827  0.000
  0.000  0.174  0.068  0.000  0.827
atom    2   Tr[ns(na)] =   8.04256
    eigenvalues: 
  0.567  0.567  0.961  0.963  0.963
    eigenvectors:
  0.000  0.000  1.000  0.000  0.000
  0.637  0.019  0.000  0.220  0.124
  0.019  0.637  0.000  0.124  0.220
  0.013  0.331  0.000  0.471  0.185
  0.331  0.013  0.000  0.185  0.471
    occupations:
  0.961  0.000  0.000  0.000  0.000
  0.000  0.703  0.000  0.067  0.176
  0.000  0.000  0.703  0.176 -0.067
  0.000  0.067  0.176  0.827  0.000
  0.000  0.176 -0.067  0.000  0.827
atom    3   Tr[ns(na)] =   3.84037
    eigenvalues: 
  0.360  0.360  0.387  0.407  0.407
    eigenvectors:
  0.000  0.000  1.000  0.000  0.000
  0.785  0.138  0.000  0.011  0.066
  0.138  0.785  0.000  0.066  0.011
  0.012  0.065  0.000  0.783  0.140
  0.065  0.012  0.000  0.140  0.783
    occupations:
  0.387  0.000  0.000  0.000  0.000
  0.000  0.364  0.000  0.000  0.012
  0.000  0.000  0.364  0.012  0.000
  0.000  0.000  0.012  0.403  0.000
  0.000  0.012  0.000  0.000  0.403
atom    4   Tr[ns(na)] =   3.79796
    eigenvalues: 
  0.355  0.355  0.383  0.403  0.403
    eigenvectors:
  0.000  0.000  1.000  0.000  0.000
  0.782  0.139  0.000  0.012  0.068
  0.139  0.782  0.000  0.068  0.012
  0.012  0.067  0.000  0.781  0.140
  0.067  0.012  0.000  0.140  0.781
    occupations:
  0.383  0.000  0.000  0.000  0.000
  0.000  0.359  0.000  0.000  0.013
  0.000  0.000  0.359  0.013  0.000
  0.000  0.000  0.013  0.399  0.000
  0.000  0.013  0.000  0.000  0.399
atom    5   Tr[ns(na)] =   5.42957
    eigenvalues: 
  0.844  0.929  0.942
    eigenvectors:
  0.340  0.000  0.660
  0.496  0.250  0.254
  0.165  0.750  0.085
    occupations:
  0.909 -0.041  0.023
 -0.041  0.890  0.022
  0.023  0.022  0.916
atom    6   Tr[ns(na)] =   5.42957
    eigenvalues: 
  0.844  0.929  0.942
    eigenvectors:
  0.340  0.000  0.660
  0.495  0.250  0.255
  0.166  0.750  0.084
    occupations:
  0.909  0.040  0.023
  0.040  0.890 -0.022
  0.023 -0.022  0.916
atom    7   Tr[ns(na)] =   5.42957
    eigenvalues: 
  0.844  0.929  0.942
    eigenvectors:
  0.340  0.000  0.660
  0.000  1.000  0.000
  0.660  0.000  0.340
    occupations:
  0.909  0.000 -0.047
  0.000  0.929  0.000
 -0.047  0.000  0.877
atom    8   Tr[ns(na)] =   5.42959
    eigenvalues: 
  0.844  0.929  0.942
    eigenvectors:
  0.340  0.000  0.660
  0.496  0.250  0.254
  0.165  0.750  0.085
    occupations:
  0.909 -0.040  0.023
 -0.040  0.890  0.023
  0.023  0.023  0.916
atom    9   Tr[ns(na)] =   5.42959
    eigenvalues: 
  0.844  0.929  0.942
    eigenvectors:
  0.340  0.000  0.660
  0.495  0.250  0.255
  0.166  0.750  0.084
    occupations:
  0.909  0.040  0.023
  0.040  0.890 -0.023
  0.023 -0.023  0.916
atom   10   Tr[ns(na)] =   5.42959
    eigenvalues: 
  0.844  0.929  0.942
    eigenvectors:
  0.340  0.000  0.660
  0.000  1.000  0.000
  0.660  0.000  0.340
    occupations:
  0.909  0.000 -0.047
  0.000  0.929  0.000
 -0.047  0.000  0.877
N of occupied +U levels =  56.3017259
 --- exit write_ns ---
 --- in v_hubbard ---
Hubbard energy    0.0459
 -------

     total cpu time spent up to now is      139.9 secs

     total energy              =    -538.28321417 Ry
     Harris-Foulkes estimate   =    -538.28320959 Ry
     estimated scf accuracy    <       0.00000010 Ry

     iteration #  9     ecut=    30.00 Ry     beta=0.20
     Davidson diagonalization with overlap
     ethr =  1.29E-10,  avg # of iterations =  2.3
 --- enter write_ns ---
 LDA+U parameters:
U( 1)     =  1.00000000
alpha( 1) =  0.00000000
U( 2)     =  0.00000000
alpha( 2) = -0.15000000
U( 3)     =  0.00000000
alpha( 3) =  0.00000000
U( 4)     =  0.00000000
alpha( 4) =  0.00000000
atom    1   Tr[ns(na)] =   8.04324
    eigenvalues: 
  0.568  0.568  0.961  0.962  0.962
    eigenvectors:
  0.000  0.000  1.000  0.000  0.000
  0.334  0.322  0.000  0.004  0.340
  0.322  0.334  0.000  0.340  0.004
  0.286  0.058  0.000  0.515  0.141
  0.058  0.286  0.000  0.141  0.515
    occupations:
  0.961  0.000  0.000  0.000  0.000
  0.000  0.704  0.000 -0.068  0.174
  0.000  0.000  0.704  0.174  0.068
  0.000 -0.068  0.174  0.827  0.000
  0.000  0.174  0.068  0.000  0.827
atom    2   Tr[ns(na)] =   8.04253
    eigenvalues: 
  0.567  0.567  0.961  0.963  0.963
    eigenvectors:
  0.000  0.000  1.000  0.000  0.000
  0.637  0.019  0.000  0.220  0.124
  0.019  0.637  0.000  0.124  0.220
  0.013  0.331  0.000  0.471  0.185
  0.331  0.013  0.000  0.185  0.471
    occupations:
  0.961  0.000  0.000  0.000  0.000
  0.000  0.703  0.000  0.067  0.176
  0.000  0.000  0.703  0.176 -0.067
  0.000  0.067  0.176  0.827  0.000
  0.000  0.176 -0.067  0.000  0.827
atom    3   Tr[ns(na)] =   3.84063
    eigenvalues: 
  0.360  0.360  0.387  0.407  0.407
    eigenvectors:
  0.000  0.000  1.000  0.000  0.000
  0.785  0.138  0.000  0.011  0.066
  0.138  0.785  0.000  0.066  0.011
  0.012  0.065  0.000  0.784  0.140
  0.065  0.012  0.000  0.140  0.784
    occupations:
  0.387  0.000  0.000  0.000  0.000
  0.000  0.364  0.000  0.000  0.012
  0.000  0.000  0.364  0.012  0.000
  0.000  0.000  0.012  0.403  0.000
  0.000  0.012  0.000  0.000  0.403
atom    4   Tr[ns(na)] =   3.79813
    eigenvalues: 
  0.355  0.355  0.383  0.403  0.403
    eigenvectors:
  0.000  0.000  1.000  0.000  0.000
  0.781  0.139  0.000  0.012  0.068
  0.139  0.781  0.000  0.068  0.012
  0.012  0.067  0.000  0.781  0.140
  0.067  0.012  0.000  0.140  0.781
    occupations:
  0.383  0.000  0.000  0.000  0.000
  0.000  0.359  0.000  0.000  0.013
  0.000  0.000  0.359  0.013  0.000
  0.000  0.000  0.013  0.399  0.000
  0.000  0.013  0.000  0.000  0.399
atom    5   Tr[ns(na)] =   5.42953
    eigenvalues: 
  0.844  0.929  0.942
    eigenvectors:
  0.340  0.000  0.660
  0.496  0.250  0.254
  0.165  0.750  0.085
    occupations:
  0.909 -0.041  0.023
 -0.041  0.890  0.022
  0.023  0.022  0.916
atom    6   Tr[ns(na)] =   5.42953
    eigenvalues: 
  0.844  0.929  0.942
    eigenvectors:
  0.340  0.000  0.660
  0.495  0.250  0.255
  0.166  0.750  0.084
    occupations:
  0.909  0.040  0.023
  0.040  0.890 -0.022
  0.023 -0.022  0.916
atom    7   Tr[ns(na)] =   5.42953
    eigenvalues: 
  0.844  0.929  0.942
    eigenvectors:
  0.340  0.000  0.660
  0.000  1.000  0.000
  0.660  0.000  0.340
    occupations:
  0.909  0.000 -0.047
  0.000  0.929  0.000
 -0.047  0.000  0.877
atom    8   Tr[ns(na)] =   5.42958
    eigenvalues: 
  0.844  0.929  0.942
    eigenvectors:
  0.340  0.000  0.660
  0.496  0.250  0.254
  0.165  0.750  0.085
    occupations:
  0.909 -0.040  0.023
 -0.040  0.890  0.023
  0.023  0.023  0.916
atom    9   Tr[ns(na)] =   5.42958
    eigenvalues: 
  0.844  0.929  0.942
    eigenvectors:
  0.340  0.000  0.660
  0.495  0.250  0.255
  0.166  0.750  0.084
    occupations:
  0.909  0.040  0.023
  0.040  0.890 -0.023
  0.023 -0.023  0.916
atom   10   Tr[ns(na)] =   5.42958
    eigenvalues: 
  0.844  0.929  0.942
    eigenvectors:
  0.340  0.000  0.660
  0.000  1.000  0.000
  0.660  0.000  0.340
    occupations:
  0.909  0.000 -0.047
  0.000  0.929  0.000
 -0.047  0.000  0.877
N of occupied +U levels =  56.3018492
 --- exit write_ns ---
 --- in v_hubbard ---
Hubbard energy    0.0459
 -------

     total cpu time spent up to now is      156.7 secs

     total energy              =    -538.28321740 Ry
     Harris-Foulkes estimate   =    -538.28321420 Ry
     estimated scf accuracy    <       0.00000003 Ry

     iteration # 10     ecut=    30.00 Ry     beta=0.20
     Davidson diagonalization with overlap
     ethr =  3.69E-11,  avg # of iterations =  2.0
 --- enter write_ns ---
 LDA+U parameters:
U( 1)     =  1.00000000
alpha( 1) =  0.00000000
U( 2)     =  0.00000000
alpha( 2) = -0.15000000
U( 3)     =  0.00000000
alpha( 3) =  0.00000000
U( 4)     =  0.00000000
alpha( 4) =  0.00000000
atom    1   Tr[ns(na)] =   8.04329
    eigenvalues: 
  0.569  0.569  0.961  0.962  0.962
    eigenvectors:
  0.000  0.000  1.000  0.000  0.000
  0.334  0.322  0.000  0.004  0.340
  0.322  0.334  0.000  0.340  0.004
  0.286  0.058  0.000  0.515  0.141
  0.058  0.286  0.000  0.141  0.515
    occupations:
  0.961  0.000  0.000  0.000  0.000
  0.000  0.704  0.000 -0.068  0.174
  0.000  0.000  0.704  0.174  0.068
  0.000 -0.068  0.174  0.827  0.000
  0.000  0.174  0.068  0.000  0.827
atom    2   Tr[ns(na)] =   8.04251
    eigenvalues: 
  0.567  0.567  0.961  0.963  0.963
    eigenvectors:
  0.000  0.000  1.000  0.000  0.000
  0.637  0.019  0.000  0.220  0.124
  0.019  0.637  0.000  0.124  0.220
  0.013  0.331  0.000  0.471  0.185
  0.331  0.013  0.000  0.185  0.471
    occupations:
  0.961  0.000  0.000  0.000  0.000
  0.000  0.703  0.000  0.067  0.176
  0.000  0.000  0.703  0.176 -0.067
  0.000  0.067  0.176  0.827  0.000
  0.000  0.176 -0.067  0.000  0.827
atom    3   Tr[ns(na)] =   3.84052
    eigenvalues: 
  0.360  0.360  0.387  0.407  0.407
    eigenvectors:
  0.000  0.000  1.000  0.000  0.000
  0.785  0.138  0.000  0.011  0.066
  0.138  0.785  0.000  0.066  0.011
  0.012  0.065  0.000  0.784  0.140
  0.065  0.012  0.000  0.140  0.784
    occupations:
  0.387  0.000  0.000  0.000  0.000
  0.000  0.364  0.000  0.000  0.012
  0.000  0.000  0.364  0.012  0.000
  0.000  0.000  0.012  0.403  0.000
  0.000  0.012  0.000  0.000  0.403
atom    4   Tr[ns(na)] =   3.79810
    eigenvalues: 
  0.355  0.355  0.383  0.403  0.403
    eigenvectors:
  0.000  0.000  1.000  0.000  0.000
  0.781  0.139  0.000  0.012  0.068
  0.139  0.781  0.000  0.068  0.012
  0.012  0.067  0.000  0.780  0.140
  0.067  0.012  0.000  0.140  0.780
    occupations:
  0.383  0.000  0.000  0.000  0.000
  0.000  0.359  0.000  0.000  0.013
  0.000  0.000  0.359  0.013  0.000
  0.000  0.000  0.013  0.399  0.000
  0.000  0.013  0.000  0.000  0.399
atom    5   Tr[ns(na)] =   5.42954
    eigenvalues: 
  0.844  0.929  0.942
    eigenvectors:
  0.340  0.000  0.660
  0.496  0.250  0.254
  0.165  0.750  0.085
    occupations:
  0.909 -0.041  0.023
 -0.041  0.890  0.022
  0.023  0.022  0.916
atom    6   Tr[ns(na)] =   5.42954
    eigenvalues: 
  0.844  0.929  0.942
    eigenvectors:
  0.340  0.000  0.660
  0.495  0.250  0.255
  0.166  0.750  0.084
    occupations:
  0.909  0.040  0.023
  0.040  0.890 -0.022
  0.023 -0.022  0.916
atom    7   Tr[ns(na)] =   5.42954
    eigenvalues: 
  0.844  0.929  0.942
    eigenvectors:
  0.340  0.000  0.660
  0.000  1.000  0.000
  0.660  0.000  0.340
    occupations:
  0.909  0.000 -0.047
  0.000  0.929  0.000
 -0.047  0.000  0.877
atom    8   Tr[ns(na)] =   5.42958
    eigenvalues: 
  0.844  0.929  0.942
    eigenvectors:
  0.340  0.000  0.660
  0.496  0.250  0.254
  0.165  0.750  0.085
    occupations:
  0.909 -0.040  0.023
 -0.040  0.890  0.023
  0.023  0.023  0.916
atom    9   Tr[ns(na)] =   5.42958
    eigenvalues: 
  0.844  0.929  0.942
    eigenvectors:
  0.340  0.000  0.660
  0.495  0.250  0.255
  0.166  0.750  0.084
    occupations:
  0.909  0.040  0.023
  0.040  0.890 -0.023
  0.023 -0.023  0.916
atom   10   Tr[ns(na)] =   5.42958
    eigenvalues: 
  0.844  0.929  0.942
    eigenvectors:
  0.340  0.000  0.660
  0.000  1.000  0.000
  0.660  0.000  0.340
    occupations:
  0.909  0.000 -0.047
  0.000  0.929  0.000
 -0.047  0.000  0.877
N of occupied +U levels =  56.3018076
 --- exit write_ns ---
 --- in v_hubbard ---
Hubbard energy    0.0459
 -------

     total cpu time spent up to now is      171.7 secs

     End of self-consistent calculation

          k = 0.0000 0.0000 0.0000 (  2175 PWs)   bands (ev):

   -19.7848 -19.5955  -6.5610  -5.8723  -5.8723  -5.8467  -5.8467  -5.5362
    -3.7548  -3.2406  -3.2044  -3.2044  -3.0097  -3.0097   5.1780   6.8801
     6.8801   7.5030   7.5030   7.6355   7.6355   7.6906   7.7024   9.2810
     9.6027   9.6027   9.7334   9.8484   9.8484  10.3350  10.3350  10.4446
    10.4446  10.5428  10.6585  11.4057  11.4057  11.9720  12.1559  12.1559
    14.7513  14.7513  15.3654  15.3654  16.1306  16.7230

     occupation numbers 
     0.0313   0.0313   0.0313   0.0313   0.0313   0.0313   0.0313   0.0313
     0.0313   0.0313   0.0313   0.0313   0.0313   0.0313   0.0313   0.0313
     0.0313   0.0313   0.0313   0.0313   0.0313   0.0313   0.0313   0.0313
     0.0313   0.0313   0.0312   0.0312   0.0312   0.0312   0.0312   0.0312
     0.0312   0.0312   0.0312   0.0307   0.0307   0.0173   0.0096   0.0096
     0.0000   0.0000   0.0000   0.0000   0.0000   0.0000

          k =-0.2471-0.1427 0.1027 (  2181 PWs)   bands (ev):

   -19.7604 -19.6187  -6.7422  -6.3268  -5.9643  -5.8772  -5.6454  -5.5148
    -3.5713  -3.3728  -2.9211  -2.8887  -2.8399  -2.7384   5.5326   6.8508
     6.9805   6.9917   7.1915   7.4671   7.5227   7.6780   7.6883   8.5174
     8.5987   9.2248   9.6398   9.7586   9.7991   9.9975  10.3493  10.3614
    10.7639  10.7852  10.8918  11.6676  11.7226  11.7740  12.3176  12.3829
    14.2950  14.3021  15.7585  16.0154  16.9192  17.2162

     occupation numbers 
     0.1875   0.1875   0.1875   0.1875   0.1875   0.1875   0.1875   0.1875
     0.1875   0.1875   0.1875   0.1875   0.1875   0.1875   0.1875   0.1875
     0.1875   0.1875   0.1875   0.1875   0.1875   0.1875   0.1875   0.1875
     0.1875   0.1875   0.1875   0.1875   0.1875   0.1875   0.1875   0.1875
     0.1875   0.1875   0.1875   0.1655   0.1577   0.1488   0.0269   0.0185
     0.0000   0.0000   0.0000   0.0000   0.0000   0.0000

          k = 0.4942 0.2853-0.2053 (  2202 PWs)   bands (ev):

   -19.7264 -19.6519  -6.7705  -6.7261  -5.9886  -5.9783  -5.5513  -5.5448
    -3.3799  -3.3457  -2.7831  -2.7648  -2.5201  -2.4662   6.0282   6.0525
     7.1732   7.1886   7.2349   7.2532   7.5526   7.5799   7.8299   7.8642
     8.0480   8.0784   9.4895   9.4925   9.8516   9.8586  10.2570  10.2667
    11.1994  11.2058  11.2985  11.3063  11.4884  11.4964  13.2766  13.3071
    13.3621  13.3927  16.7597  16.8201  17.0609  17.1196

     occupation numbers 
     0.0938   0.0938   0.0938   0.0938   0.0938   0.0938   0.0938   0.0938
     0.0938   0.0938   0.0938   0.0938   0.0938   0.0938   0.0938   0.0938
     0.0938   0.0938   0.0938   0.0938   0.0938   0.0938   0.0938   0.0938
     0.0938   0.0938   0.0938   0.0938   0.0937   0.0937   0.0937   0.0937
     0.0935   0.0935   0.0931   0.0931   0.0905   0.0902   0.0000   0.0000
     0.0000   0.0000   0.0000   0.0000   0.0000   0.0000

          k =-0.2471 0.1427 0.2053 (  2195 PWs)   bands (ev):

   -19.7594 -19.6226  -6.8639  -6.2520  -6.0925  -5.8797  -5.6886  -5.4816
    -3.3946  -3.2404  -3.0883  -2.8774  -2.8016  -2.5459   5.5592   6.8039
     6.8784   6.9404   7.2049   7.4455   7.4654   7.6998   7.7125   8.6113
     8.7638   8.8172   9.2760   9.7381   9.9518  10.0471  10.1525  10.2646
    10.3457  11.1763  11.2808  11.2989  11.6996  11.7730  12.0413  12.7182
    13.6164  14.7674  15.9334  16.1409  16.9770  17.5011

     occupation numbers 
     0.1875   0.1875   0.1875   0.1875   0.1875   0.1875   0.1875   0.1875
     0.1875   0.1875   0.1875   0.1875   0.1875   0.1875   0.1875   0.1875
     0.1875   0.1875   0.1875   0.1875   0.1875   0.1875   0.1875   0.1875
     0.1875   0.1875   0.1875   0.1875   0.1875   0.1875   0.1875   0.1875
     0.1875   0.1871   0.1864   0.1862   0.1611   0.1490   0.0858   0.0013
     0.0000   0.0000   0.0000   0.0000   0.0000   0.0000

          k = 0.4942 0.5706-0.1027 (  2198 PWs)   bands (ev):

   -19.7379 -19.6467  -6.9727  -6.6745  -6.1475  -5.9204  -5.5443  -5.4024
    -3.2875  -3.2304  -2.8622  -2.6939  -2.5148  -2.3705   5.8704   6.2302
     6.7224   6.9802   7.1820   7.3100   7.4872   7.7004   7.8001   7.9489
     8.2508   8.8379   9.0816   9.3075   9.6212   9.7915   9.9274  10.3372
    10.8275  11.2892  11.3920  11.4635  11.5953  11.6399  12.3059  12.7216
    13.4096  14.3443  16.8547  17.0703  17.2671  17.9678

     occupation numbers 
     0.1875   0.1875   0.1875   0.1875   0.1875   0.1875   0.1875   0.1875
     0.1875   0.1875   0.1875   0.1875   0.1875   0.1875   0.1875   0.1875
     0.1875   0.1875   0.1875   0.1875   0.1875   0.1875   0.1875   0.1875
     0.1875   0.1875   0.1875   0.1875   0.1875   0.1875   0.1875   0.1875
     0.1875   0.1863   0.1845   0.1821   0.1734   0.1688   0.0287   0.0013
     0.0000   0.0000   0.0000   0.0000   0.0000   0.0000

          k = 0.2471 0.4280 0.0000 (  2203 PWs)   bands (ev):

   -19.7390 -19.6424  -6.8665  -6.6712  -6.0740  -6.0029  -5.4675  -5.3940
    -3.4956  -3.2725  -2.7871  -2.7014  -2.5484  -2.5450   5.8564   6.2740
     6.9467   7.0884   7.1782   7.2755   7.4190   7.5906   7.6776   8.0555
     8.2904   8.9069   9.3045   9.3993   9.7453   9.7662  10.0424  10.3411
    11.1412  11.1764  11.1865  11.4184  11.4444  11.7379  12.2385  13.3038
    13.3778  14.1389  16.3858  16.9474  17.3782  17.8853

     occupation numbers 
     0.1875   0.1875   0.1875   0.1875   0.1875   0.1875   0.1875   0.1875
     0.1875   0.1875   0.1875   0.1875   0.1875   0.1875   0.1875   0.1875
     0.1875   0.1875   0.1875   0.1875   0.1875   0.1875   0.1875   0.1875
     0.1875   0.1875   0.1875   0.1875   0.1875   0.1875   0.1875   0.1875
     0.1873   0.1871   0.1871   0.1837   0.1828   0.1552   0.0403   0.0000
     0.0000   0.0000   0.0000   0.0000   0.0000   0.0000

          k = 0.4942-0.2853-0.4107 (  2202 PWs)   bands (ev):

   -19.7479 -19.6434  -7.1731  -6.4631  -6.2481  -6.0278  -5.5650  -5.3038
    -3.1723  -3.1005  -3.0274  -2.6378  -2.4696  -2.2086   5.7661   6.2608
     6.2657   6.8727   7.1164   7.2240   7.7161   7.7726   8.1126   8.2970
     8.4226   8.4534   8.5813   9.3991   9.6574  10.0149  10.0496  10.2739
    10.4175  11.1308  11.3336  11.5082  11.6302  11.7646  11.9515  12.4193
    13.3106  14.7804  16.9886  17.2210  17.4582  17.5834

     occupation numbers 
     0.0938   0.0938   0.0938   0.0938   0.0938   0.0938   0.0938   0.0938
     0.0938   0.0938   0.0938   0.0938   0.0938   0.0938   0.0938   0.0938
     0.0938   0.0938   0.0938   0.0938   0.0938   0.0938   0.0938   0.0938
     0.0938   0.0938   0.0938   0.0938   0.0937   0.0937   0.0937   0.0937
     0.0937   0.0936   0.0929   0.0899   0.0850   0.0753   0.0545   0.0074
     0.0000   0.0000   0.0000   0.0000   0.0000   0.0000

          k = 0.0000 0.0000 0.3080 (  2187 PWs)   bands (ev):

   -19.7602 -19.6187  -6.6297  -6.0238  -5.9598  -5.9528  -5.8683  -5.8654
    -3.1893  -3.1232  -3.0807  -2.9444  -2.8998  -2.8625   5.5895   6.9750
     6.9791   7.1172   7.3374   7.4003   7.4007   7.6855   7.6929   8.7557
     8.7580   9.3203   9.4245   9.6078   9.6106   9.8010  10.1063  10.1111
    10.8928  10.8948  10.9934  11.6901  11.6914  11.7851  12.2932  12.2944
    14.2533  14.2573  15.8473  15.8594  16.8219  17.4288

     occupation numbers 
     0.0625   0.0625   0.0625   0.0625   0.0625   0.0625   0.0625   0.0625
     0.0625   0.0625   0.0625   0.0625   0.0625   0.0625   0.0625   0.0625
     0.0625   0.0625   0.0625   0.0625   0.0625   0.0625   0.0625   0.0625
     0.0625   0.0625   0.0625   0.0625   0.0625   0.0625   0.0625   0.0625
     0.0625   0.0625   0.0625   0.0542   0.0541   0.0489   0.0102   0.0102
     0.0000   0.0000   0.0000   0.0000   0.0000   0.0000

          k = 0.7412 0.4280 0.0000 (  2204 PWs)   bands (ev):

   -19.7388 -19.6425  -6.7533  -6.6338  -6.1695  -5.8573  -5.6973  -5.5765
    -3.1575  -3.0811  -3.0223  -2.6723  -2.6322  -2.5693   5.8968   6.4713
     6.9603   7.1325   7.1847   7.2892   7.4066   7.5448   7.8453   8.0092
     8.3257   8.8053   9.3220   9.4624   9.5713   9.6614   9.8271  10.2019
    11.1373  11.1896  11.2646  11.4784  11.4810  11.6461  12.2432  13.2276
    13.2928  14.1635  16.6367  16.6786  17.5481  17.7591

     occupation numbers 
     0.1875   0.1875   0.1875   0.1875   0.1875   0.1875   0.1875   0.1875
     0.1875   0.1875   0.1875   0.1875   0.1875   0.1875   0.1875   0.1875
     0.1875   0.1875   0.1875   0.1875   0.1875   0.1875   0.1875   0.1875
     0.1875   0.1875   0.1875   0.1875   0.1875   0.1875   0.1875   0.1875
     0.1873   0.1871   0.1866   0.1814   0.1813   0.1681   0.0394   0.0000
     0.0000   0.0000   0.0000   0.0000   0.0000   0.0000

          k = 0.4942 0.2853 0.1027 (  2211 PWs)   bands (ev):

   -19.7379 -19.6466  -6.9885  -6.5754  -6.3399  -5.7275  -5.6499  -5.3785
    -3.2985  -3.1472  -3.0129  -2.5939  -2.5449  -2.3632   5.9022   6.1992
     6.6774   6.9742   7.1869   7.2345   7.5099   7.7437   7.8502   7.9260
     8.2863   8.9446   9.0807   9.3767   9.4943   9.6494   9.9907  10.3541
    10.8433  11.3395  11.4694  11.4751  11.5325  11.5535  12.2592  12.7369
    13.4555  14.3259  16.8318  16.8956  17.5385  17.8808

     occupation numbers 
     0.1875   0.1875   0.1875   0.1875   0.1875   0.1875   0.1875   0.1875
     0.1875   0.1875   0.1875   0.1875   0.1875   0.1875   0.1875   0.1875
     0.1875   0.1875   0.1875   0.1875   0.1875   0.1875   0.1875   0.1875
     0.1875   0.1875   0.1875   0.1875   0.1875   0.1875   0.1875   0.1875
     0.1875   0.1856   0.1818   0.1815   0.1784   0.1769   0.0365   0.0011
     0.0000   0.0000   0.0000   0.0000   0.0000   0.0000

          k = 0.7412-0.4280-0.3080 (  2210 PWs)   bands (ev):

   -19.7378 -19.6466  -6.9254  -6.4837  -6.3171  -5.8255  -5.7882  -5.5023
    -3.0524  -3.0384  -2.9467  -2.7135  -2.6086  -2.4146   5.9645   6.3467
     6.7578   6.9561   7.2140   7.2410   7.5351   7.7647   7.8933   7.9546
     8.2626   8.9319   8.9409   9.4933   9.5064   9.5136   9.6357  10.1902
    10.9145  11.3549  11.4565  11.4632  11.5812  11.6207  12.2162  12.6867
    13.4035  14.2951  17.0144  17.0198  17.5079  17.8515

     occupation numbers 
     0.1875   0.1875   0.1875   0.1875   0.1875   0.1875   0.1875   0.1875
     0.1875   0.1875   0.1875   0.1875   0.1875   0.1875   0.1875   0.1875
     0.1875   0.1875   0.1875   0.1875   0.1875   0.1875   0.1875   0.1875
     0.1875   0.1875   0.1875   0.1875   0.1875   0.1875   0.1875   0.1875
     0.1875   0.1853   0.1824   0.1821   0.1747   0.1709   0.0447   0.0018
     0.0000   0.0000   0.0000   0.0000   0.0000   0.0000

          k = 0.4942-0.5706-0.2053 (  2206 PWs)   bands (ev):

   -19.7374 -19.6501  -6.9093  -6.8973  -6.0606  -6.0535  -5.4515  -5.4478
    -3.1441  -3.1198  -2.8202  -2.7783  -2.3735  -2.3673   6.0486   6.0599
     6.8555   6.8785   7.0879   7.0946   7.3697   7.3953   8.0409   8.0762
     8.7592   8.7808   8.9697   8.9733   9.5206   9.5236  10.0759  10.0776
    11.1313  11.1328  11.3487  11.3519  11.6324  11.6357  12.2803  12.2831
    13.9871  13.9959  17.3832  17.3872  17.8300  17.8344

     occupation numbers 
     0.1875   0.1875   0.1875   0.1875   0.1875   0.1875   0.1875   0.1875
     0.1875   0.1875   0.1875   0.1875   0.1875   0.1875   0.1875   0.1875
     0.1875   0.1875   0.1875   0.1875   0.1875   0.1875   0.1875   0.1875
     0.1875   0.1875   0.1875   0.1875   0.1875   0.1875   0.1875   0.1875
     0.1873   0.1873   0.1855   0.1854   0.1697   0.1693   0.0328   0.0324
     0.0000   0.0000   0.0000   0.0000   0.0000   0.0000

          k = 0.0000 0.0000-0.6160 (  2186 PWs)   bands (ev):

   -19.7262 -19.6518  -6.5616  -6.5102  -5.9818  -5.9818  -5.9431  -5.9431
    -2.9033  -2.9033  -2.8495  -2.8495  -2.7232  -2.6608   6.2580   6.2831
     7.1790   7.1790   7.1981   7.1981   7.7211   7.7487   7.9582   7.9582
     7.9940   7.9940   9.6119   9.6119   9.6189   9.6189   9.6842   9.6951
    11.3571  11.3630  11.4099  11.4099  11.4182  11.4182  13.2164  13.2164
    13.2464  13.2464  17.0426  17.0426  17.1053  17.1053

     occupation numbers 
     0.0313   0.0313   0.0313   0.0313   0.0313   0.0313   0.0313   0.0313
     0.0313   0.0313   0.0313   0.0313   0.0313   0.0313   0.0313   0.0313
     0.0313   0.0313   0.0313   0.0313   0.0313   0.0313   0.0313   0.0313
     0.0313   0.0313   0.0313   0.0313   0.0312   0.0312   0.0312   0.0312
     0.0309   0.0309   0.0307   0.0307   0.0306   0.0306   0.0000   0.0000
     0.0000   0.0000   0.0000   0.0000   0.0000   0.0000

          k = 0.4942-0.5706 0.1027 (  2198 PWs)   bands (ev):

   -19.7379 -19.6467  -6.9732  -6.6735  -6.1488  -5.9195  -5.5452  -5.4016
    -3.2882  -3.2304  -2.8624  -2.6929  -2.5155  -2.3701   5.8688   6.2328
     6.7187   6.9809   7.1878   7.3070   7.4919   7.6960   7.7812   7.9708
     8.2466   8.8438   9.0770   9.3062   9.6193   9.7925   9.9271  10.3387
    10.8269  11.2884  11.3948  11.4629  11.5969  11.6377  12.3055  12.7213
    13.4094  14.3440  16.8565  17.0675  17.2676  17.9684

     occupation numbers 
     0.1875   0.1875   0.1875   0.1875   0.1875   0.1875   0.1875   0.1875
     0.1875   0.1875   0.1875   0.1875   0.1875   0.1875   0.1875   0.1875
     0.1875   0.1875   0.1875   0.1875   0.1875   0.1875   0.1875   0.1875
     0.1875   0.1875   0.1875   0.1875   0.1875   0.1875   0.1875   0.1875
     0.1875   0.1863   0.1844   0.1821   0.1733   0.1691   0.0288   0.0013
     0.0000   0.0000   0.0000   0.0000   0.0000   0.0000

     the Fermi energy is    12.0106 ev

!    total energy              =    -538.28322301 Ry
     Harris-Foulkes estimate   =    -538.28321740 Ry
     estimated scf accuracy    <          3.0E-09 Ry

     The total energy is the sum of the following terms:

     one-electron contribution =     -32.86864425 Ry
     hartree contribution      =      83.58417197 Ry
     xc contribution           =    -199.56781672 Ry
     ewald contribution        =    -389.44315552 Ry
     Hubbard energy            =       0.04594475 Ry
     smearing contrib. (-TS)   =      -0.03372323 Ry

     convergence has been achieved in  10 iterations

     init_run     :      7.28s CPU      7.49s WALL (       1 calls)
     electrons    :    160.06s CPU    163.68s WALL (       1 calls)

     Called by init_run:
     wfcinit      :      0.00s CPU      0.00s WALL (       1 calls)
     potinit      :      0.27s CPU      0.33s WALL (       1 calls)

     Called by electrons:
     c_bands      :    106.04s CPU    107.52s WALL (      10 calls)
     sum_band     :     30.24s CPU     30.80s WALL (      10 calls)
     v_of_rho     :      2.94s CPU      2.96s WALL (      11 calls)
     v_h          :      0.15s CPU      0.15s WALL (      11 calls)
     v_xc         :      2.78s CPU      2.80s WALL (      11 calls)
     newd         :     22.10s CPU     22.16s WALL (      11 calls)
     mix_rho      :      0.28s CPU      0.28s WALL (      10 calls)

     Called by c_bands:
     init_us_2    :      1.13s CPU      1.12s WALL (     280 calls)
     cegterg      :    103.03s CPU    104.26s WALL (     140 calls)

     Called by sum_band:
     sum_band:bec :      0.10s CPU      0.10s WALL (     140 calls)
     addusdens    :     13.73s CPU     13.77s WALL (      10 calls)

     Called by *egterg:
     h_psi        :     72.90s CPU     73.82s WALL (     601 calls)
     s_psi        :      4.40s CPU      4.40s WALL (     601 calls)
     g_psi        :      0.36s CPU      0.37s WALL (     461 calls)
     cdiaghg      :     10.09s CPU     10.26s WALL (     587 calls)
     cegterg:over :      5.77s CPU      5.81s WALL (     461 calls)
     cegterg:upda :      3.92s CPU      3.96s WALL (     461 calls)
     cegterg:last :      2.36s CPU      2.37s WALL (     161 calls)

     Called by h_psi:
     h_psi:vloc   :     58.32s CPU     59.07s WALL (     601 calls)
     h_psi:vnl    :      9.26s CPU      9.29s WALL (     601 calls)
     add_vuspsi   :      4.51s CPU      4.53s WALL (     601 calls)
     vhpsi        :      5.10s CPU      5.26s WALL (     601 calls)

     General routines
     calbec       :      9.79s CPU     10.17s WALL (    1482 calls)
     fft          :      1.97s CPU      2.01s WALL (     171 calls)
     ffts         :      0.06s CPU      0.16s WALL (      21 calls)
     fftw         :     56.28s CPU     57.15s WALL (   41142 calls)
     interpolate  :      0.35s CPU      0.48s WALL (      21 calls)
     davcio       :      0.00s CPU      0.39s WALL (     294 calls)

     Parallel routines
     fft_scatter  :     16.39s CPU     17.08s WALL (   41334 calls)
     Hubbard U routines
     new_ns       :      0.91s CPU      1.32s WALL (      10 calls)
     vhpsi        :      5.10s CPU      5.26s WALL (     601 calls)

     PWSCF        :  2m47.83s CPU     2m52.05s WALL


   This run was terminated on:  14:40: 7  11Nov2012            

=------------------------------------------------------------------------------=
