   JOB DONE.
=------------------------------------------------------------------------------=

     Program PWSCF v.5.0.1 starts on 11Nov2012 at 14:52: 2 

     This program is part of the open-source Quantum ESPRESSO suite
     for quantum simulation of materials; please cite
         "P. Giannozzi et al., J. Phys.:Condens. Matter 21 395502 (2009);
          URL http://www.quantum-espresso.org", 
     in publications or presentations arising from this work. More details at
     http://www.quantum-espresso.org/quote.php

     Parallel version (MPI), running on     2 processors
     R & G space division:  proc/pool =    2

     Current dimensions of program PWSCF are:
     Max number of different atomic species (ntypx) = 10
     Max number of k-points (npk) =  40000
     Max angular momentum in pseudopotentials (lmaxx) =  3
     Reading input from CoLaO_U100_a10.in
               file Co.pbe-nd-rrkjus.UPF: wavefunction(s)  4S 3D renormalized
               file O.pbe-rrkjus.UPF: wavefunction(s)  2S renormalized

     Subspace diagonalization in iterative solution of the eigenvalue problem:
     a serial algorithm will be used


     Parallelization info
     --------------------
     sticks:   dense  smooth     PW     G-vecs:    dense   smooth      PW
     Min        1112     444    131                34808     8786    1448
     Max        1113     445    132                34809     8787    1449
     Sum        2225     889    263                69617    17573    2897


     Title: 
     GGA + U, U = 1.000, alpha = 0.100                                          


     bravais-lattice index     =            5
     lattice parameter (alat)  =      10.3292  a.u.
     unit-cell volume          =     793.0599 (a.u.)^3
     number of atoms/cell      =           10
     number of atomic types    =            4
     number of electrons       =        76.00
     number of Kohn-Sham states=           46
     kinetic-energy cutoff     =      30.0000  Ry
     charge density cutoff     =     300.0000  Ry
     convergence threshold     =      1.0E-08
     mixing beta               =       0.2000
     number of iterations used =            8  plain     mixing
     Exchange-correlation      =  SLA  PW   PBE  PBE ( 1 4 3 4 0)
     EXX-fraction              =        0.00

     celldm(1)=  10.329242  celldm(2)=   0.000000  celldm(3)=   0.000000
     celldm(4)=   0.488100  celldm(5)=   0.000000  celldm(6)=   0.000000

     crystal axes: (cart. coord. in units of alat)
               a(1) = (   0.505915  -0.292090   0.811624 )  
               a(2) = (   0.000000   0.584180   0.811624 )  
               a(3) = (  -0.505915  -0.292090   0.811624 )  

     reciprocal axes: (cart. coord. in units 2 pi/alat)
               b(1) = (  0.988308 -0.570600  0.410699 )  
               b(2) = (  0.000000  1.141200  0.410699 )  
               b(3) = ( -0.988308 -0.570600  0.410699 )  


     PseudoPot. # 1 for Co read from file:
     /home/mcurnan/dft-course/Project1/example_LaCoO3/Co.pbe-nd-rrkjus.UPF
     MD5 check sum: 3e47a84addf5e975e0edeaeee2a73f59
     Pseudo is Ultrasoft + core correction, Zval =  9.0
     Generated by new atomic code, or converted to UPF format
     Using radial grid of  961 points,  6 beta functions with: 
                l(1) =   0
                l(2) =   0
                l(3) =   1
                l(4) =   1
                l(5) =   2
                l(6) =   2
     Q(r) pseudized with 0 coefficients 


     PseudoPot. # 2 for La read from file:
     /home/mcurnan/dft-course/Project1/example_LaCoO3/La.pbe-nsp-van.UPF
     MD5 check sum: b2f11743f52dde65f77d1302becd7929
     Pseudo is Ultrasoft + core correction, Zval = 11.0
     Generated by new atomic code, or converted to UPF format
     Using radial grid of  907 points,  6 beta functions with: 
                l(1) =   0
                l(2) =   0
                l(3) =   1
                l(4) =   1
                l(5) =   2
                l(6) =   2
     Q(r) pseudized with  6 coefficients,  rinner =    1.200   1.200   1.200
                                                       1.200   1.200

     PseudoPot. # 3 for La read from file:
     /home/mcurnan/dft-course/Project1/example_LaCoO3/La.pbe-nsp-van.UPF
     MD5 check sum: b2f11743f52dde65f77d1302becd7929
     Pseudo is Ultrasoft + core correction, Zval = 11.0
     Generated by new atomic code, or converted to UPF format
     Using radial grid of  907 points,  6 beta functions with: 
                l(1) =   0
                l(2) =   0
                l(3) =   1
                l(4) =   1
                l(5) =   2
                l(6) =   2
     Q(r) pseudized with  6 coefficients,  rinner =    1.200   1.200   1.200
                                                       1.200   1.200

     PseudoPot. # 4 for O  read from file:
     /home/mcurnan/dft-course/Project1/example_LaCoO3/O.pbe-rrkjus.UPF
     MD5 check sum: 390ba29e75625707450f3bd3f0eb6be9
     Pseudo is Ultrasoft, Zval =  6.0
     Generated by new atomic code, or converted to UPF format
     Using radial grid of 1269 points,  4 beta functions with: 
                l(1) =   0
                l(2) =   0
                l(3) =   1
                l(4) =   1
     Q(r) pseudized with 0 coefficients 


     atomic species   valence    mass     pseudopotential
        Co1            9.00     1.00000     Co( 1.00)
        La1           11.00     1.00000     La( 1.00)
        La2           11.00     1.00000     La( 1.00)
        O1             6.00     1.00000     O ( 1.00)
 -----
     simplified LDA+U calculation, Hubbard_lmax = 2
     atomic species  L   Hubbard U  Hubbard alpha
        Co1          2    1.000000    0.000000
        La1          2    0.000000    0.100000
        La2          2    0.000000    0.000000
        O1           1    0.000000    0.000000
 -----

      3 Sym. Ops. (no inversion) found


                                    s                        frac. trans.

      isym =  1     identity                                     

 cryst.   s( 1) = (     1          0          0      )
                  (     0          1          0      )
                  (     0          0          1      )

 cart.    s( 1) = (  1.0000000  0.0000000  0.0000000 )
                  (  0.0000000  1.0000000  0.0000000 )
                  (  0.0000000  0.0000000  1.0000000 )


      isym =  2     120 deg rotation - cryst. axis [0,0,1]       

 cryst.   s( 2) = (     0          1          0      )
                  (     0          0          1      )
                  (     1          0          0      )

 cart.    s( 2) = ( -0.5000000 -0.8660254  0.0000000 )
                  (  0.8660254 -0.5000000  0.0000000 )
                  (  0.0000000  0.0000000  1.0000000 )


      isym =  3     120 deg rotation - cryst. axis [0,0,-1]      

 cryst.   s( 3) = (     0          0          1      )
                  (     1          0          0      )
                  (     0          1          0      )

 cart.    s( 3) = ( -0.5000000  0.8660254  0.0000000 )
                  ( -0.8660254 -0.5000000  0.0000000 )
                  (  0.0000000  0.0000000  1.0000000 )


     point group C_3 (3)    
     there are  3 classes
     the character table:

       E     C3    C3^2 
A      1.00  1.00  1.00
E      1.00 -0.50 -0.50
E*     1.00 -0.50 -0.50
     imaginary part
A      0.00  0.00  0.00
E      0.00  0.87 -0.87
E*     0.00 -0.87  0.87

     the symmetry operations in each class:
     E        1
     C3       2
     C3^2     3

   Cartesian axes

     site n.     atom                  positions (alat units)
         1           Co1 tau(   1) = (   0.0000000   0.0000000   1.8261537  )
         2           Co1 tau(   2) = (   0.0000000   0.0000000   0.6087179  )
         3           La1 tau(   3) = (   0.0000000   0.0000000   0.0000000  )
         4           La2 tau(   4) = (   0.0000000   0.0000000   1.2174358  )
         5           O1  tau(   5) = (   0.2831100  -0.0928263   1.6236536  )
         6           O1  tau(   6) = (  -0.2219449  -0.1987674   1.6236536  )
         7           O1  tau(   7) = (  -0.0611651   0.2915936   1.6236536  )
         8           O1  tau(   8) = (   0.2228050   0.3849164   1.2170300  )
         9           O1  tau(   9) = (   0.2219449  -0.3854130   1.2170300  )
        10           O1  tau(  10) = (  -0.4447499   0.0004966   1.2170300  )

   Crystallographic axes

     site n.     atom                  positions (cryst. coord.)
         1           Co1 tau(   1) = (  0.7500000  0.7500000  0.7500000  )
         2           Co1 tau(   2) = (  0.2500000  0.2500000  0.2500000  )
         3           La1 tau(   3) = (  0.0000000  0.0000000  0.0000000  )
         4           La2 tau(   4) = (  0.5000000  0.5000000  0.5000000  )
         5           O1  tau(   5) = (  0.9996000  0.5609000  0.4400000  )
         6           O1  tau(   6) = (  0.5609000  0.4400000  0.9996000  )
         7           O1  tau(   7) = (  0.4400000  0.9996000  0.5609000  )
         8           O1  tau(   8) = (  0.5004000  0.9391000  0.0600000  )
         9           O1  tau(   9) = (  0.9391000  0.0600000  0.5004000  )
        10           O1  tau(  10) = (  0.0600000  0.5004000  0.9391000  )

     number of k points=    14  gaussian smearing, width (Ry)=  0.0300
                       cart. coord. in units 2pi/alat
        k(    1) = (   0.0000000   0.0000000   0.0000000), wk =   0.0312500
        k(    2) = (  -0.2470771  -0.1426500   0.1026748), wk =   0.1875000
        k(    3) = (   0.4941541   0.2853000  -0.2053496), wk =   0.0937500
        k(    4) = (  -0.2470771   0.1426500   0.2053496), wk =   0.1875000
        k(    5) = (   0.4941541   0.5706001  -0.1026748), wk =   0.1875000
        k(    6) = (   0.2470771   0.4279500   0.0000000), wk =   0.1875000
        k(    7) = (   0.4941541  -0.2853000  -0.4106993), wk =   0.0937500
        k(    8) = (   0.0000000   0.0000000   0.3080244), wk =   0.0625000
        k(    9) = (   0.7412312   0.4279500   0.0000000), wk =   0.1875000
        k(   10) = (   0.4941541   0.2853000   0.1026748), wk =   0.1875000
        k(   11) = (   0.7412312  -0.4279500  -0.3080244), wk =   0.1875000
        k(   12) = (   0.4941541  -0.5706001  -0.2053496), wk =   0.1875000
        k(   13) = (   0.0000000   0.0000000  -0.6160489), wk =   0.0312500
        k(   14) = (   0.4941541  -0.5706001   0.1026748), wk =   0.1875000

                       cryst. coord.
        k(    1) = (   0.0000000   0.0000000   0.0000000), wk =   0.0312500
        k(    2) = (   0.0000000   0.0000000   0.2500000), wk =   0.1875000
        k(    3) = (   0.0000000   0.0000000  -0.5000000), wk =   0.0937500
        k(    4) = (   0.0000000   0.2500000   0.2500000), wk =   0.1875000
        k(    5) = (   0.0000000   0.2500000  -0.5000000), wk =   0.1875000
        k(    6) = (   0.0000000   0.2500000  -0.2500000), wk =   0.1875000
        k(    7) = (   0.0000000  -0.5000000  -0.5000000), wk =   0.0937500
        k(    8) = (   0.2500000   0.2500000   0.2500000), wk =   0.0625000
        k(    9) = (   0.2500000   0.2500000  -0.5000000), wk =   0.1875000
        k(   10) = (   0.2500000   0.2500000  -0.2500000), wk =   0.1875000
        k(   11) = (   0.2500000  -0.5000000  -0.5000000), wk =   0.1875000
        k(   12) = (   0.2500000  -0.5000000  -0.2500000), wk =   0.1875000
        k(   13) = (  -0.5000000  -0.5000000  -0.5000000), wk =   0.0312500
        k(   14) = (   0.5000000  -0.2500000   0.0000000), wk =   0.1875000

     Dense  grid:    69617 G-vectors     FFT dimensions: (  60,  60,  60)

     Smooth grid:    17573 G-vectors     FFT dimensions: (  40,  40,  40)

     Largest allocated arrays     est. size (Mb)     dimensions
        Kohn-Sham Wavefunctions         0.78 Mb     (   1117,   46)
        Atomic wavefunctions            1.06 Mb     (   1117,   62)
        NL pseudopotentials             2.05 Mb     (   1117,  120)
        Each V/rho on FFT grid          1.65 Mb     ( 108000)
        Each G-vector array             0.27 Mb     (  34808)
        G-vector shells                 0.04 Mb     (   4682)
     Largest temporary arrays     est. size (Mb)     dimensions
        Auxiliary wavefunctions         3.14 Mb     (   1117,  184)
        Each subspace H/S matrix        0.52 Mb     ( 184, 184)
        Each <psi_i|beta_j> matrix      0.08 Mb     (    120,   46)
        Arrays for rho mixing          13.18 Mb     ( 108000,   8)

     Check: negative/imaginary core charge=   -0.000028    0.000000

     The initial density is read from file :
     /home/mcurnan/dft-course/Project1/example_LaCoO3/100/La/alpha/CoLaO_U100.save/charge-density.dat

 --- in v_hubbard ---
Hubbard energy    0.1236
 -------
     Number of +U iterations with fixed ns =  0
     Starting occupations:
 --- enter write_ns ---
 LDA+U parameters:
U( 1)     =  1.00000000
alpha( 1) =  0.00000000
U( 2)     =  0.00000000
alpha( 2) =  0.10000000
U( 3)     =  0.00000000
alpha( 3) =  0.00000000
U( 4)     =  0.00000000
alpha( 4) =  0.00000000
atom    1   Tr[ns(na)] =   8.02205
    eigenvalues: 
  0.596  0.596  0.938  0.941  0.941
    eigenvectors:
  0.000  0.000  1.000  0.000  0.000
  0.334  0.321  0.000  0.004  0.341
  0.321  0.334  0.000  0.341  0.004
  0.288  0.057  0.000  0.515  0.140
  0.057  0.288  0.000  0.140  0.515
    occupations:
  0.938  0.000  0.000  0.000  0.000
  0.000  0.715  0.000 -0.060  0.152
  0.000  0.000  0.715  0.152  0.060
  0.000 -0.060  0.152  0.822  0.000
  0.000  0.152  0.060  0.000  0.822
atom    2   Tr[ns(na)] =   8.02143
    eigenvalues: 
  0.595  0.595  0.938  0.941  0.941
    eigenvectors:
  0.000  0.000  1.000  0.000  0.000
  0.638  0.017  0.000  0.223  0.122
  0.017  0.638  0.000  0.122  0.223
  0.015  0.330  0.000  0.470  0.185
  0.330  0.015  0.000  0.185  0.470
    occupations:
  0.938  0.000  0.000  0.000  0.000
  0.000  0.715  0.000  0.060  0.153
  0.000  0.000  0.715  0.153 -0.060
  0.000  0.060  0.153  0.822  0.000
  0.000  0.153 -0.060  0.000  0.822
atom    3   Tr[ns(na)] =   3.80283
    eigenvalues: 
  0.355  0.355  0.384  0.403  0.403
    eigenvectors:
  0.000  0.000  1.000  0.000  0.000
  0.781  0.140  0.000  0.012  0.068
  0.140  0.781  0.000  0.068  0.012
  0.013  0.067  0.000  0.780  0.140
  0.067  0.013  0.000  0.140  0.780
    occupations:
  0.384  0.000  0.000  0.000  0.000
  0.000  0.359  0.000  0.000  0.013
  0.000  0.000  0.359  0.013  0.000
  0.000  0.000  0.013  0.399  0.000
  0.000  0.013  0.000  0.000  0.399
atom    4   Tr[ns(na)] =   3.80283
    eigenvalues: 
  0.355  0.355  0.384  0.403  0.403
    eigenvectors:
  0.000  0.000  1.000  0.000  0.000
  0.781  0.140  0.000  0.012  0.068
  0.140  0.781  0.000  0.068  0.012
  0.013  0.067  0.000  0.780  0.140
  0.067  0.013  0.000  0.140  0.780
    occupations:
  0.384  0.000  0.000  0.000  0.000
  0.000  0.359  0.000  0.000  0.013
  0.000  0.000  0.359  0.013  0.000
  0.000  0.000  0.013  0.399  0.000
  0.000  0.013  0.000  0.000  0.399
atom    5   Tr[ns(na)] =   5.43358
    eigenvalues: 
  0.846  0.929  0.941
    eigenvectors:
  0.340  0.000  0.660
  0.496  0.250  0.255
  0.164  0.750  0.086
    occupations:
  0.909 -0.039  0.022
 -0.039  0.891  0.022
  0.022  0.022  0.917
atom    6   Tr[ns(na)] =   5.43358
    eigenvalues: 
  0.846  0.929  0.941
    eigenvectors:
  0.340  0.000  0.660
  0.494  0.250  0.256
  0.166  0.750  0.085
    occupations:
  0.909  0.039  0.022
  0.039  0.891 -0.022
  0.022 -0.022  0.917
atom    7   Tr[ns(na)] =   5.43358
    eigenvalues: 
  0.846  0.929  0.941
    eigenvectors:
  0.340  0.000  0.660
  0.000  1.000  0.000
  0.660  0.000  0.340
    occupations:
  0.909  0.000 -0.045
  0.000  0.929  0.000
 -0.045  0.000  0.879
atom    8   Tr[ns(na)] =   5.43358
    eigenvalues: 
  0.846  0.929  0.941
    eigenvectors:
  0.340  0.000  0.660
  0.496  0.250  0.255
  0.164  0.750  0.086
    occupations:
  0.909 -0.039  0.022
 -0.039  0.891  0.022
  0.022  0.022  0.917
atom    9   Tr[ns(na)] =   5.43358
    eigenvalues: 
  0.846  0.929  0.941
    eigenvectors:
  0.340  0.000  0.660
  0.494  0.250  0.256
  0.166  0.750  0.085
    occupations:
  0.909  0.039  0.022
  0.039  0.891 -0.022
  0.022 -0.022  0.917
atom   10   Tr[ns(na)] =   5.43358
    eigenvalues: 
  0.846  0.929  0.941
    eigenvectors:
  0.340  0.000  0.660
  0.000  1.000  0.000
  0.660  0.000  0.340
    occupations:
  0.909  0.000 -0.045
  0.000  0.929  0.000
 -0.045  0.000  0.879
N of occupied +U levels =  56.2506014
 --- exit write_ns ---
 LDA+U Projector read from file 
     Starting wfc from file

     total cpu time spent up to now is        7.8 secs

     per-process dynamical memory:    47.1 Mb

     Self-consistent Calculation

     iteration #  1     ecut=    30.00 Ry     beta=0.20
     Davidson diagonalization with overlap
     c_bands:  1 eigenvalues not converged
     c_bands:  1 eigenvalues not converged
     c_bands:  1 eigenvalues not converged
     c_bands:  1 eigenvalues not converged
     c_bands:  1 eigenvalues not converged
     c_bands:  1 eigenvalues not converged
     c_bands:  1 eigenvalues not converged
     c_bands:  1 eigenvalues not converged
     c_bands:  1 eigenvalues not converged
     c_bands:  1 eigenvalues not converged
     ethr =  1.00E-10,  avg # of iterations = 18.3
 --- enter write_ns ---
 LDA+U parameters:
U( 1)     =  1.00000000
alpha( 1) =  0.00000000
U( 2)     =  0.00000000
alpha( 2) =  0.10000000
U( 3)     =  0.00000000
alpha( 3) =  0.00000000
U( 4)     =  0.00000000
alpha( 4) =  0.00000000
atom    1   Tr[ns(na)] =   8.07755
    eigenvalues: 
  0.577  0.577  0.961  0.962  0.962
    eigenvectors:
  0.000  0.000  1.000  0.000  0.000
  0.331  0.324  0.000  0.005  0.341
  0.324  0.331  0.000  0.341  0.005
  0.287  0.059  0.000  0.513  0.141
  0.059  0.287  0.000  0.141  0.513
    occupations:
  0.961  0.000  0.000  0.000  0.000
  0.000  0.710  0.000 -0.065  0.171
  0.000  0.000  0.710  0.171  0.065
  0.000 -0.065  0.171  0.829  0.000
  0.000  0.171  0.065  0.000  0.829
atom    2   Tr[ns(na)] =   8.07435
    eigenvalues: 
  0.576  0.576  0.961  0.962  0.962
    eigenvectors:
  0.000  0.000  1.000  0.000  0.000
  0.635  0.020  0.000  0.220  0.126
  0.020  0.635  0.000  0.126  0.220
  0.012  0.333  0.000  0.469  0.185
  0.333  0.012  0.000  0.185  0.469
    occupations:
  0.961  0.000  0.000  0.000  0.000
  0.000  0.709  0.000  0.065  0.172
  0.000  0.000  0.709  0.172 -0.065
  0.000  0.065  0.172  0.829  0.000
  0.000  0.172 -0.065  0.000  0.829
atom    3   Tr[ns(na)] =   3.76328
    eigenvalues: 
  0.352  0.352  0.380  0.399  0.399
    eigenvectors:
  0.000  0.000  1.000  0.000  0.000
  0.777  0.141  0.000  0.012  0.070
  0.141  0.777  0.000  0.070  0.012
  0.013  0.069  0.000  0.777  0.141
  0.069  0.013  0.000  0.141  0.777
    occupations:
  0.380  0.000  0.000  0.000  0.000
  0.000  0.356  0.000  0.000  0.013
  0.000  0.000  0.356  0.013  0.000
  0.000  0.000  0.013  0.395  0.000
  0.000  0.013  0.000  0.000  0.395
atom    4   Tr[ns(na)] =   3.79812
    eigenvalues: 
  0.355  0.355  0.383  0.402  0.402
    eigenvectors:
  0.000  0.000  1.000  0.000  0.000
  0.780  0.140  0.000  0.012  0.069
  0.140  0.780  0.000  0.069  0.012
  0.013  0.068  0.000  0.779  0.140
  0.068  0.013  0.000  0.140  0.779
    occupations:
  0.383  0.000  0.000  0.000  0.000
  0.000  0.359  0.000  0.000  0.013
  0.000  0.000  0.359  0.013  0.000
  0.000  0.000  0.013  0.399  0.000
  0.000  0.013  0.000  0.000  0.399
atom    5   Tr[ns(na)] =   5.42378
    eigenvalues: 
  0.841  0.929  0.942
    eigenvectors:
  0.340  0.000  0.660
  0.495  0.250  0.255
  0.164  0.750  0.086
    occupations:
  0.908 -0.042  0.024
 -0.042  0.889  0.023
  0.024  0.023  0.915
atom    6   Tr[ns(na)] =   5.42378
    eigenvalues: 
  0.841  0.929  0.942
    eigenvectors:
  0.340  0.000  0.660
  0.494  0.250  0.256
  0.165  0.750  0.085
    occupations:
  0.908  0.042  0.024
  0.042  0.889 -0.023
  0.024 -0.023  0.915
atom    7   Tr[ns(na)] =   5.42378
    eigenvalues: 
  0.841  0.929  0.942
    eigenvectors:
  0.340  0.000  0.660
  0.000  1.000  0.000
  0.660  0.000  0.340
    occupations:
  0.908  0.000 -0.048
  0.000  0.929  0.000
 -0.048  0.000  0.875
atom    8   Tr[ns(na)] =   5.42362
    eigenvalues: 
  0.841  0.928  0.943
    eigenvectors:
  0.340  0.000  0.660
  0.495  0.250  0.255
  0.164  0.750  0.086
    occupations:
  0.908 -0.042  0.024
 -0.042  0.889  0.023
  0.024  0.023  0.915
atom    9   Tr[ns(na)] =   5.42362
    eigenvalues: 
  0.841  0.928  0.943
    eigenvectors:
  0.340  0.000  0.660
  0.494  0.250  0.256
  0.165  0.750  0.085
    occupations:
  0.908  0.042  0.024
  0.042  0.889 -0.023
  0.024 -0.023  0.915
atom   10   Tr[ns(na)] =   5.42362
    eigenvalues: 
  0.841  0.928  0.943
    eigenvectors:
  0.340  0.000  0.660
  0.000  1.000  0.000
  0.660  0.000  0.340
    occupations:
  0.908  0.000 -0.048
  0.000  0.928  0.000
 -0.048  0.000  0.876
N of occupied +U levels =  56.2554938
 --- exit write_ns ---
 --- in v_hubbard ---
Hubbard energy    0.1221
 -------

     total cpu time spent up to now is       42.1 secs

     total energy              =    -538.21274813 Ry
     Harris-Foulkes estimate   =    -538.21349666 Ry
     estimated scf accuracy    <       0.00390873 Ry

     iteration #  2     ecut=    30.00 Ry     beta=0.20
     Davidson diagonalization with overlap
     ethr =  5.14E-06,  avg # of iterations =  1.6
 --- enter write_ns ---
 LDA+U parameters:
U( 1)     =  1.00000000
alpha( 1) =  0.00000000
U( 2)     =  0.00000000
alpha( 2) =  0.10000000
U( 3)     =  0.00000000
alpha( 3) =  0.00000000
U( 4)     =  0.00000000
alpha( 4) =  0.00000000
atom    1   Tr[ns(na)] =   8.02912
    eigenvalues: 
  0.566  0.566  0.960  0.961  0.961
    eigenvectors:
  0.000  0.000  1.000  0.000  0.000
  0.333  0.323  0.000  0.004  0.340
  0.323  0.333  0.000  0.340  0.004
  0.286  0.058  0.000  0.514  0.141
  0.058  0.286  0.000  0.141  0.514
    occupations:
  0.960  0.000  0.000  0.000  0.000
  0.000  0.702  0.000 -0.068  0.175
  0.000  0.000  0.702  0.175  0.068
  0.000 -0.068  0.175  0.825  0.000
  0.000  0.175  0.068  0.000  0.825
atom    2   Tr[ns(na)] =   8.03723
    eigenvalues: 
  0.566  0.566  0.962  0.963  0.963
    eigenvectors:
  0.000  0.000  1.000  0.000  0.000
  0.637  0.019  0.000  0.220  0.124
  0.019  0.637  0.000  0.124  0.220
  0.013  0.332  0.000  0.470  0.185
  0.332  0.013  0.000  0.185  0.470
    occupations:
  0.962  0.000  0.000  0.000  0.000
  0.000  0.703  0.000  0.068  0.176
  0.000  0.000  0.703  0.176 -0.068
  0.000  0.068  0.176  0.826  0.000
  0.000  0.176 -0.068  0.000  0.826
atom    3   Tr[ns(na)] =   3.76536
    eigenvalues: 
  0.352  0.352  0.380  0.399  0.399
    eigenvectors:
  0.000  0.000  1.000  0.000  0.000
  0.779  0.140  0.000  0.012  0.069
  0.140  0.779  0.000  0.069  0.012
  0.013  0.068  0.000  0.778  0.141
  0.068  0.013  0.000  0.141  0.778
    occupations:
  0.380  0.000  0.000  0.000  0.000
  0.000  0.356  0.000  0.000  0.013
  0.000  0.000  0.356  0.013  0.000
  0.000  0.000  0.013  0.396  0.000
  0.000  0.013  0.000  0.000  0.396
atom    4   Tr[ns(na)] =   3.79831
    eigenvalues: 
  0.355  0.355  0.383  0.403  0.403
    eigenvectors:
  0.000  0.000  1.000  0.000  0.000
  0.781  0.139  0.000  0.012  0.068
  0.139  0.781  0.000  0.068  0.012
  0.013  0.067  0.000  0.780  0.140
  0.067  0.013  0.000  0.140  0.780
    occupations:
  0.383  0.000  0.000  0.000  0.000
  0.000  0.359  0.000  0.000  0.013
  0.000  0.000  0.359  0.013  0.000
  0.000  0.000  0.013  0.399  0.000
  0.000  0.013  0.000  0.000  0.399
atom    5   Tr[ns(na)] =   5.43665
    eigenvalues: 
  0.845  0.930  0.943
    eigenvectors:
  0.339  0.000  0.661
  0.496  0.250  0.254
  0.165  0.750  0.085
    occupations:
  0.910 -0.040  0.023
 -0.040  0.891  0.023
  0.023  0.023  0.917
atom    6   Tr[ns(na)] =   5.43665
    eigenvalues: 
  0.845  0.930  0.943
    eigenvectors:
  0.339  0.000  0.661
  0.496  0.250  0.255
  0.165  0.750  0.084
    occupations:
  0.910  0.040  0.023
  0.040  0.891 -0.023
  0.023 -0.023  0.917
atom    7   Tr[ns(na)] =   5.43665
    eigenvalues: 
  0.845  0.930  0.943
    eigenvectors:
  0.339  0.000  0.661
  0.000  1.000  0.000
  0.661  0.000  0.339
    occupations:
  0.910  0.000 -0.047
  0.000  0.930  0.000
 -0.047  0.000  0.878
atom    8   Tr[ns(na)] =   5.43659
    eigenvalues: 
  0.845  0.930  0.944
    eigenvectors:
  0.339  0.000  0.661
  0.496  0.250  0.254
  0.165  0.750  0.085
    occupations:
  0.910 -0.041  0.023
 -0.041  0.891  0.022
  0.023  0.022  0.917
atom    9   Tr[ns(na)] =   5.43659
    eigenvalues: 
  0.845  0.930  0.944
    eigenvectors:
  0.339  0.000  0.661
  0.496  0.250  0.255
  0.165  0.750  0.084
    occupations:
  0.910  0.041  0.023
  0.041  0.891 -0.022
  0.023 -0.022  0.917
atom   10   Tr[ns(na)] =   5.43659
    eigenvalues: 
  0.845  0.930  0.944
    eigenvectors:
  0.339  0.000  0.661
  0.000  1.000  0.000
  0.661  0.000  0.339
    occupations:
  0.910  0.000 -0.047
  0.000  0.930  0.000
 -0.047  0.000  0.878
N of occupied +U levels =  56.2497527
 --- exit write_ns ---
 --- in v_hubbard ---
Hubbard energy    0.1213
 -------

     total cpu time spent up to now is       53.3 secs

     total energy              =    -538.21317511 Ry
     Harris-Foulkes estimate   =    -538.21326001 Ry
     estimated scf accuracy    <       0.00203795 Ry

     iteration #  3     ecut=    30.00 Ry     beta=0.20
     Davidson diagonalization with overlap
     ethr =  2.68E-06,  avg # of iterations =  1.0
 --- enter write_ns ---
 LDA+U parameters:
U( 1)     =  1.00000000
alpha( 1) =  0.00000000
U( 2)     =  0.00000000
alpha( 2) =  0.10000000
U( 3)     =  0.00000000
alpha( 3) =  0.00000000
U( 4)     =  0.00000000
alpha( 4) =  0.00000000
atom    1   Tr[ns(na)] =   8.05475
    eigenvalues: 
  0.571  0.571  0.962  0.962  0.962
    eigenvectors:
  0.000  0.000  1.000  0.000  0.000
  0.333  0.323  0.000  0.004  0.340
  0.323  0.333  0.000  0.340  0.004
  0.287  0.058  0.000  0.514  0.141
  0.058  0.287  0.000  0.141  0.514
    occupations:
  0.962  0.000  0.000  0.000  0.000
  0.000  0.706  0.000 -0.067  0.174
  0.000  0.000  0.706  0.174  0.067
  0.000 -0.067  0.174  0.827  0.000
  0.000  0.174  0.067  0.000  0.827
atom    2   Tr[ns(na)] =   8.03421
    eigenvalues: 
  0.567  0.567  0.960  0.961  0.961
    eigenvectors:
  0.000  0.000  1.000  0.000  0.000
  0.636  0.020  0.000  0.219  0.125
  0.020  0.636  0.000  0.125  0.219
  0.012  0.332  0.000  0.470  0.185
  0.332  0.012  0.000  0.185  0.470
    occupations:
  0.960  0.000  0.000  0.000  0.000
  0.000  0.703  0.000  0.067  0.175
  0.000  0.000  0.703  0.175 -0.067
  0.000  0.067  0.175  0.826  0.000
  0.000  0.175 -0.067  0.000  0.826
atom    3   Tr[ns(na)] =   3.76688
    eigenvalues: 
  0.352  0.352  0.380  0.400  0.400
    eigenvectors:
  0.000  0.000  1.000  0.000  0.000
  0.779  0.140  0.000  0.012  0.069
  0.140  0.779  0.000  0.069  0.012
  0.013  0.068  0.000  0.778  0.141
  0.068  0.013  0.000  0.141  0.778
    occupations:
  0.380  0.000  0.000  0.000  0.000
  0.000  0.356  0.000  0.000  0.013
  0.000  0.000  0.356  0.013  0.000
  0.000  0.000  0.013  0.396  0.000
  0.000  0.013  0.000  0.000  0.396
atom    4   Tr[ns(na)] =   3.79873
    eigenvalues: 
  0.356  0.356  0.383  0.403  0.403
    eigenvectors:
  0.000  0.000  1.000  0.000  0.000
  0.781  0.139  0.000  0.012  0.068
  0.139  0.781  0.000  0.068  0.012
  0.013  0.067  0.000  0.780  0.140
  0.067  0.013  0.000  0.140  0.780
    occupations:
  0.383  0.000  0.000  0.000  0.000
  0.000  0.359  0.000  0.000  0.013
  0.000  0.000  0.359  0.013  0.000
  0.000  0.000  0.013  0.399  0.000
  0.000  0.013  0.000  0.000  0.399
atom    5   Tr[ns(na)] =   5.43298
    eigenvalues: 
  0.844  0.930  0.943
    eigenvectors:
  0.339  0.000  0.661
  0.497  0.249  0.254
  0.164  0.751  0.085
    occupations:
  0.909 -0.041  0.023
 -0.041  0.890  0.023
  0.023  0.023  0.917
atom    6   Tr[ns(na)] =   5.43298
    eigenvalues: 
  0.844  0.930  0.943
    eigenvectors:
  0.339  0.000  0.661
  0.494  0.251  0.255
  0.166  0.749  0.085
    occupations:
  0.909  0.041  0.024
  0.041  0.891 -0.023
  0.024 -0.023  0.917
atom    7   Tr[ns(na)] =   5.43298
    eigenvalues: 
  0.844  0.930  0.943
    eigenvectors:
  0.339  0.000  0.661
  0.000  1.000  0.000
  0.661  0.000  0.339
    occupations:
  0.909  0.000 -0.047
  0.000  0.930  0.000
 -0.047  0.000  0.877
atom    8   Tr[ns(na)] =   5.43296
    eigenvalues: 
  0.844  0.929  0.943
    eigenvectors:
  0.339  0.000  0.661
  0.497  0.249  0.254
  0.164  0.751  0.085
    occupations:
  0.910 -0.041  0.024
 -0.041  0.890  0.022
  0.024  0.022  0.916
atom    9   Tr[ns(na)] =   5.43296
    eigenvalues: 
  0.844  0.929  0.943
    eigenvectors:
  0.339  0.000  0.661
  0.494  0.251  0.255
  0.166  0.749  0.085
    occupations:
  0.910  0.041  0.024
  0.041  0.891 -0.022
  0.024 -0.022  0.916
atom   10   Tr[ns(na)] =   5.43296
    eigenvalues: 
  0.844  0.929  0.943
    eigenvectors:
  0.339  0.000  0.661
  0.000  1.000  0.000
  0.661  0.000  0.339
    occupations:
  0.910  0.000 -0.047
  0.000  0.929  0.000
 -0.047  0.000  0.878
N of occupied +U levels =  56.2524077
 --- exit write_ns ---
 --- in v_hubbard ---
Hubbard energy    0.1203
 -------

     total cpu time spent up to now is       64.3 secs

     total energy              =    -538.21318566 Ry
     Harris-Foulkes estimate   =    -538.21323864 Ry
     estimated scf accuracy    <       0.00126588 Ry

     iteration #  4     ecut=    30.00 Ry     beta=0.20
     Davidson diagonalization with overlap
     ethr =  1.67E-06,  avg # of iterations =  1.0
 --- enter write_ns ---
 LDA+U parameters:
U( 1)     =  1.00000000
alpha( 1) =  0.00000000
U( 2)     =  0.00000000
alpha( 2) =  0.10000000
U( 3)     =  0.00000000
alpha( 3) =  0.00000000
U( 4)     =  0.00000000
alpha( 4) =  0.00000000
atom    1   Tr[ns(na)] =   8.01194
    eigenvalues: 
  0.566  0.566  0.957  0.958  0.958
    eigenvectors:
  0.000  0.000  1.000  0.000  0.000
  0.332  0.324  0.000  0.005  0.339
  0.324  0.332  0.000  0.339  0.005
  0.285  0.059  0.000  0.514  0.142
  0.059  0.285  0.000  0.142  0.514
    occupations:
  0.957  0.000  0.000  0.000  0.000
  0.000  0.701  0.000 -0.066  0.174
  0.000  0.000  0.701  0.174  0.066
  0.000 -0.066  0.174  0.823  0.000
  0.000  0.174  0.066  0.000  0.823
atom    2   Tr[ns(na)] =   8.07860
    eigenvalues: 
  0.572  0.572  0.965  0.965  0.965
    eigenvectors:
  0.000  0.000  1.000  0.000  0.000
  0.637  0.018  0.000  0.221  0.123
  0.018  0.637  0.000  0.123  0.221
  0.014  0.330  0.000  0.471  0.185
  0.330  0.014  0.000  0.185  0.471
    occupations:
  0.965  0.000  0.000  0.000  0.000
  0.000  0.707  0.000  0.068  0.174
  0.000  0.000  0.707  0.174 -0.068
  0.000  0.068  0.174  0.830  0.000
  0.000  0.174 -0.068  0.000  0.830
atom    3   Tr[ns(na)] =   3.76855
    eigenvalues: 
  0.352  0.352  0.380  0.400  0.400
    eigenvectors:
  0.000  0.000  1.000  0.000  0.000
  0.779  0.140  0.000  0.012  0.069
  0.140  0.779  0.000  0.069  0.012
  0.013  0.068  0.000  0.779  0.141
  0.068  0.013  0.000  0.141  0.779
    occupations:
  0.380  0.000  0.000  0.000  0.000
  0.000  0.356  0.000  0.000  0.013
  0.000  0.000  0.356  0.013  0.000
  0.000  0.000  0.013  0.396  0.000
  0.000  0.013  0.000  0.000  0.396
atom    4   Tr[ns(na)] =   3.79917
    eigenvalues: 
  0.356  0.356  0.383  0.403  0.403
    eigenvectors:
  0.000  0.000  1.000  0.000  0.000
  0.782  0.139  0.000  0.012  0.067
  0.139  0.782  0.000  0.067  0.012
  0.012  0.067  0.000  0.781  0.140
  0.067  0.012  0.000  0.140  0.781
    occupations:
  0.383  0.000  0.000  0.000  0.000
  0.000  0.359  0.000  0.000  0.013
  0.000  0.000  0.359  0.013  0.000
  0.000  0.000  0.013  0.399  0.000
  0.000  0.013  0.000  0.000  0.399
atom    5   Tr[ns(na)] =   5.43245
    eigenvalues: 
  0.844  0.930  0.943
    eigenvectors:
  0.339  0.000  0.661
  0.493  0.254  0.253
  0.167  0.746  0.086
    occupations:
  0.909 -0.041  0.024
 -0.041  0.891  0.023
  0.024  0.023  0.916
atom    6   Tr[ns(na)] =   5.43245
    eigenvalues: 
  0.844  0.930  0.943
    eigenvectors:
  0.339  0.000  0.661
  0.498  0.246  0.256
  0.163  0.754  0.084
    occupations:
  0.909  0.041  0.023
  0.041  0.890 -0.023
  0.023 -0.023  0.917
atom    7   Tr[ns(na)] =   5.43245
    eigenvalues: 
  0.844  0.930  0.943
    eigenvectors:
  0.339  0.000  0.661
  0.000  1.000  0.000
  0.661  0.000  0.339
    occupations:
  0.909  0.000 -0.047
  0.000  0.930  0.000
 -0.047  0.000  0.877
atom    8   Tr[ns(na)] =   5.43243
    eigenvalues: 
  0.844  0.929  0.943
    eigenvectors:
  0.339  0.000  0.661
  0.493  0.253  0.253
  0.167  0.747  0.086
    occupations:
  0.909 -0.041  0.024
 -0.041  0.891  0.023
  0.024  0.023  0.916
atom    9   Tr[ns(na)] =   5.43243
    eigenvalues: 
  0.844  0.929  0.943
    eigenvectors:
  0.339  0.000  0.661
  0.498  0.247  0.256
  0.163  0.753  0.084
    occupations:
  0.909  0.041  0.023
  0.041  0.890 -0.022
  0.023 -0.022  0.916
atom   10   Tr[ns(na)] =   5.43243
    eigenvalues: 
  0.844  0.929  0.943
    eigenvectors:
  0.339  0.000  0.661
  0.000  1.000  0.000
  0.661  0.000  0.339
    occupations:
  0.909  0.000 -0.047
  0.000  0.929  0.000
 -0.047  0.000  0.877
N of occupied +U levels =  56.2528891
 --- exit write_ns ---
 --- in v_hubbard ---
Hubbard energy    0.1164
 -------

     total cpu time spent up to now is       74.8 secs

     total energy              =    -538.21314859 Ry
     Harris-Foulkes estimate   =    -538.21335180 Ry
     estimated scf accuracy    <       0.00310674 Ry

     iteration #  5     ecut=    30.00 Ry     beta=0.20
     Davidson diagonalization with overlap
     ethr =  1.67E-06,  avg # of iterations =  1.0
 --- enter write_ns ---
 LDA+U parameters:
U( 1)     =  1.00000000
alpha( 1) =  0.00000000
U( 2)     =  0.00000000
alpha( 2) =  0.10000000
U( 3)     =  0.00000000
alpha( 3) =  0.00000000
U( 4)     =  0.00000000
alpha( 4) =  0.00000000
atom    1   Tr[ns(na)] =   8.04622
    eigenvalues: 
  0.569  0.569  0.961  0.962  0.962
    eigenvectors:
  0.000  0.000  1.000  0.000  0.000
  0.334  0.322  0.000  0.004  0.339
  0.322  0.334  0.000  0.339  0.004
  0.285  0.058  0.000  0.515  0.141
  0.058  0.285  0.000  0.141  0.515
    occupations:
  0.961  0.000  0.000  0.000  0.000
  0.000  0.704  0.000 -0.067  0.174
  0.000  0.000  0.704  0.174  0.067
  0.000 -0.067  0.174  0.827  0.000
  0.000  0.174  0.067  0.000  0.827
atom    2   Tr[ns(na)] =   8.04453
    eigenvalues: 
  0.568  0.568  0.961  0.963  0.963
    eigenvectors:
  0.000  0.000  1.000  0.000  0.000
  0.637  0.020  0.000  0.219  0.124
  0.020  0.637  0.000  0.124  0.219
  0.012  0.331  0.000  0.472  0.185
  0.331  0.012  0.000  0.185  0.472
    occupations:
  0.961  0.000  0.000  0.000  0.000
  0.000  0.703  0.000  0.067  0.175
  0.000  0.000  0.703  0.175 -0.067
  0.000  0.067  0.175  0.827  0.000
  0.000  0.175 -0.067  0.000  0.827
atom    3   Tr[ns(na)] =   3.77343
    eigenvalues: 
  0.353  0.353  0.381  0.400  0.400
    eigenvectors:
  0.000  0.000  1.000  0.000  0.000
  0.781  0.139  0.000  0.012  0.068
  0.139  0.781  0.000  0.068  0.012
  0.013  0.067  0.000  0.780  0.141
  0.067  0.013  0.000  0.141  0.780
    occupations:
  0.381  0.000  0.000  0.000  0.000
  0.000  0.357  0.000  0.000  0.013
  0.000  0.000  0.357  0.013  0.000
  0.000  0.000  0.013  0.396  0.000
  0.000  0.013  0.000  0.000  0.396
atom    4   Tr[ns(na)] =   3.80033
    eigenvalues: 
  0.356  0.356  0.383  0.403  0.403
    eigenvectors:
  0.000  0.000  1.000  0.000  0.000
  0.783  0.139  0.000  0.011  0.067
  0.139  0.783  0.000  0.067  0.011
  0.012  0.066  0.000  0.782  0.140
  0.066  0.012  0.000  0.140  0.782
    occupations:
  0.383  0.000  0.000  0.000  0.000
  0.000  0.359  0.000  0.000  0.013
  0.000  0.000  0.359  0.013  0.000
  0.000  0.000  0.013  0.399  0.000
  0.000  0.013  0.000  0.000  0.399
atom    5   Tr[ns(na)] =   5.43174
    eigenvalues: 
  0.844  0.930  0.943
    eigenvectors:
  0.339  0.000  0.661
  0.496  0.250  0.254
  0.165  0.750  0.085
    occupations:
  0.909 -0.041  0.023
 -0.041  0.890  0.023
  0.023  0.023  0.917
atom    6   Tr[ns(na)] =   5.43174
    eigenvalues: 
  0.844  0.930  0.943
    eigenvectors:
  0.339  0.000  0.661
  0.495  0.250  0.255
  0.166  0.750  0.084
    occupations:
  0.909  0.041  0.024
  0.041  0.890 -0.023
  0.024 -0.023  0.916
atom    7   Tr[ns(na)] =   5.43174
    eigenvalues: 
  0.844  0.930  0.943
    eigenvectors:
  0.339  0.000  0.661
  0.000  1.000  0.000
  0.661  0.000  0.339
    occupations:
  0.909  0.000 -0.047
  0.000  0.930  0.000
 -0.047  0.000  0.877
atom    8   Tr[ns(na)] =   5.43167
    eigenvalues: 
  0.844  0.929  0.943
    eigenvectors:
  0.339  0.000  0.661
  0.496  0.250  0.254
  0.165  0.750  0.085
    occupations:
  0.909 -0.041  0.024
 -0.041  0.890  0.022
  0.024  0.022  0.916
atom    9   Tr[ns(na)] =   5.43167
    eigenvalues: 
  0.844  0.929  0.943
    eigenvectors:
  0.339  0.000  0.661
  0.495  0.250  0.255
  0.166  0.750  0.084
    occupations:
  0.909  0.041  0.024
  0.041  0.890 -0.023
  0.024 -0.023  0.916
atom   10   Tr[ns(na)] =   5.43167
    eigenvalues: 
  0.844  0.929  0.943
    eigenvectors:
  0.339  0.000  0.661
  0.000  1.000  0.000
  0.661  0.000  0.339
    occupations:
  0.909  0.000 -0.047
  0.000  0.929  0.000
 -0.047  0.000  0.877
N of occupied +U levels =  56.2547489
 --- exit write_ns ---
 --- in v_hubbard ---
Hubbard energy    0.1158
 -------

     total cpu time spent up to now is       85.5 secs

     total energy              =    -538.21325310 Ry
     Harris-Foulkes estimate   =    -538.21326357 Ry
     estimated scf accuracy    <       0.00002980 Ry

     iteration #  6     ecut=    30.00 Ry     beta=0.20
     Davidson diagonalization with overlap
     ethr =  3.92E-08,  avg # of iterations =  2.1
 --- enter write_ns ---
 LDA+U parameters:
U( 1)     =  1.00000000
alpha( 1) =  0.00000000
U( 2)     =  0.00000000
alpha( 2) =  0.10000000
U( 3)     =  0.00000000
alpha( 3) =  0.00000000
U( 4)     =  0.00000000
alpha( 4) =  0.00000000
atom    1   Tr[ns(na)] =   8.04278
    eigenvalues: 
  0.568  0.568  0.961  0.962  0.962
    eigenvectors:
  0.000  0.000  1.000  0.000  0.000
  0.334  0.322  0.000  0.004  0.340
  0.322  0.334  0.000  0.340  0.004
  0.286  0.058  0.000  0.515  0.141
  0.058  0.286  0.000  0.141  0.515
    occupations:
  0.961  0.000  0.000  0.000  0.000
  0.000  0.704  0.000 -0.068  0.174
  0.000  0.000  0.704  0.174  0.068
  0.000 -0.068  0.174  0.827  0.000
  0.000  0.174  0.068  0.000  0.827
atom    2   Tr[ns(na)] =   8.04213
    eigenvalues: 
  0.567  0.567  0.962  0.963  0.963
    eigenvectors:
  0.000  0.000  1.000  0.000  0.000
  0.637  0.019  0.000  0.220  0.124
  0.019  0.637  0.000  0.124  0.220
  0.013  0.331  0.000  0.471  0.185
  0.331  0.013  0.000  0.185  0.471
    occupations:
  0.962  0.000  0.000  0.000  0.000
  0.000  0.703  0.000  0.067  0.176
  0.000  0.000  0.703  0.176 -0.067
  0.000  0.067  0.176  0.827  0.000
  0.000  0.176 -0.067  0.000  0.827
atom    3   Tr[ns(na)] =   3.77076
    eigenvalues: 
  0.353  0.353  0.380  0.400  0.400
    eigenvectors:
  0.000  0.000  1.000  0.000  0.000
  0.780  0.140  0.000  0.012  0.068
  0.140  0.780  0.000  0.068  0.012
  0.013  0.067  0.000  0.779  0.140
  0.067  0.013  0.000  0.140  0.779
    occupations:
  0.380  0.000  0.000  0.000  0.000
  0.000  0.356  0.000  0.000  0.013
  0.000  0.000  0.356  0.013  0.000
  0.000  0.000  0.013  0.396  0.000
  0.000  0.013  0.000  0.000  0.396
atom    4   Tr[ns(na)] =   3.79827
    eigenvalues: 
  0.356  0.356  0.383  0.403  0.403
    eigenvectors:
  0.000  0.000  1.000  0.000  0.000
  0.782  0.139  0.000  0.011  0.067
  0.139  0.782  0.000  0.067  0.011
  0.012  0.066  0.000  0.781  0.140
  0.066  0.012  0.000  0.140  0.781
    occupations:
  0.383  0.000  0.000  0.000  0.000
  0.000  0.359  0.000  0.000  0.013
  0.000  0.000  0.359  0.013  0.000
  0.000  0.000  0.013  0.399  0.000
  0.000  0.013  0.000  0.000  0.399
atom    5   Tr[ns(na)] =   5.43313
    eigenvalues: 
  0.844  0.930  0.943
    eigenvectors:
  0.339  0.000  0.661
  0.496  0.250  0.254
  0.165  0.750  0.085
    occupations:
  0.909 -0.041  0.023
 -0.041  0.891  0.023
  0.023  0.023  0.917
atom    6   Tr[ns(na)] =   5.43313
    eigenvalues: 
  0.844  0.930  0.943
    eigenvectors:
  0.339  0.000  0.661
  0.495  0.250  0.255
  0.166  0.750  0.084
    occupations:
  0.909  0.041  0.023
  0.041  0.891 -0.023
  0.023 -0.023  0.917
atom    7   Tr[ns(na)] =   5.43313
    eigenvalues: 
  0.844  0.930  0.943
    eigenvectors:
  0.339  0.000  0.661
  0.000  1.000  0.000
  0.661  0.000  0.339
    occupations:
  0.909  0.000 -0.047
  0.000  0.930  0.000
 -0.047  0.000  0.877
atom    8   Tr[ns(na)] =   5.43315
    eigenvalues: 
  0.844  0.929  0.943
    eigenvectors:
  0.339  0.000  0.661
  0.496  0.250  0.254
  0.165  0.750  0.085
    occupations:
  0.910 -0.041  0.024
 -0.041  0.891  0.022
  0.024  0.022  0.917
atom    9   Tr[ns(na)] =   5.43315
    eigenvalues: 
  0.844  0.929  0.943
    eigenvectors:
  0.339  0.000  0.661
  0.495  0.250  0.255
  0.166  0.750  0.084
    occupations:
  0.910  0.041  0.024
  0.041  0.891 -0.022
  0.024 -0.022  0.916
atom   10   Tr[ns(na)] =   5.43315
    eigenvalues: 
  0.844  0.929  0.943
    eigenvectors:
  0.339  0.000  0.661
  0.000  1.000  0.000
  0.661  0.000  0.339
    occupations:
  0.910  0.000 -0.047
  0.000  0.929  0.000
 -0.047  0.000  0.878
N of occupied +U levels =  56.2527815
 --- exit write_ns ---
 --- in v_hubbard ---
Hubbard energy    0.1159
 -------

     total cpu time spent up to now is       98.3 secs

     total energy              =    -538.21327380 Ry
     Harris-Foulkes estimate   =    -538.21326153 Ry
     estimated scf accuracy    <       0.00001218 Ry

     iteration #  7     ecut=    30.00 Ry     beta=0.20
     Davidson diagonalization with overlap
     ethr =  1.60E-08,  avg # of iterations =  1.0
 --- enter write_ns ---
 LDA+U parameters:
U( 1)     =  1.00000000
alpha( 1) =  0.00000000
U( 2)     =  0.00000000
alpha( 2) =  0.10000000
U( 3)     =  0.00000000
alpha( 3) =  0.00000000
U( 4)     =  0.00000000
alpha( 4) =  0.00000000
atom    1   Tr[ns(na)] =   8.04457
    eigenvalues: 
  0.569  0.569  0.961  0.962  0.962
    eigenvectors:
  0.000  0.000  1.000  0.000  0.000
  0.334  0.322  0.000  0.004  0.340
  0.322  0.334  0.000  0.340  0.004
  0.286  0.058  0.000  0.515  0.141
  0.058  0.286  0.000  0.141  0.515
    occupations:
  0.961  0.000  0.000  0.000  0.000
  0.000  0.704  0.000 -0.067  0.174
  0.000  0.000  0.704  0.174  0.067
  0.000 -0.067  0.174  0.827  0.000
  0.000  0.174  0.067  0.000  0.827
atom    2   Tr[ns(na)] =   8.04386
    eigenvalues: 
  0.567  0.567  0.962  0.963  0.963
    eigenvectors:
  0.000  0.000  1.000  0.000  0.000
  0.637  0.019  0.000  0.220  0.124
  0.019  0.637  0.000  0.124  0.220
  0.013  0.331  0.000  0.471  0.185
  0.331  0.013  0.000  0.185  0.471
    occupations:
  0.962  0.000  0.000  0.000  0.000
  0.000  0.703  0.000  0.067  0.176
  0.000  0.000  0.703  0.176 -0.067
  0.000  0.067  0.176  0.827  0.000
  0.000  0.176 -0.067  0.000  0.827
atom    3   Tr[ns(na)] =   3.77084
    eigenvalues: 
  0.353  0.353  0.380  0.400  0.400
    eigenvectors:
  0.000  0.000  1.000  0.000  0.000
  0.780  0.140  0.000  0.012  0.068
  0.140  0.780  0.000  0.068  0.012
  0.013  0.068  0.000  0.779  0.141
  0.068  0.013  0.000  0.141  0.779
    occupations:
  0.380  0.000  0.000  0.000  0.000
  0.000  0.356  0.000  0.000  0.013
  0.000  0.000  0.356  0.013  0.000
  0.000  0.000  0.013  0.396  0.000
  0.000  0.013  0.000  0.000  0.396
atom    4   Tr[ns(na)] =   3.79854
    eigenvalues: 
  0.356  0.356  0.383  0.403  0.403
    eigenvectors:
  0.000  0.000  1.000  0.000  0.000
  0.782  0.139  0.000  0.011  0.067
  0.139  0.782  0.000  0.067  0.011
  0.012  0.066  0.000  0.781  0.140
  0.066  0.012  0.000  0.140  0.781
    occupations:
  0.383  0.000  0.000  0.000  0.000
  0.000  0.359  0.000  0.000  0.013
  0.000  0.000  0.359  0.013  0.000
  0.000  0.000  0.013  0.399  0.000
  0.000  0.013  0.000  0.000  0.399
atom    5   Tr[ns(na)] =   5.43257
    eigenvalues: 
  0.844  0.930  0.943
    eigenvectors:
  0.339  0.000  0.661
  0.496  0.250  0.254
  0.165  0.750  0.085
    occupations:
  0.909 -0.041  0.023
 -0.041  0.890  0.023
  0.023  0.023  0.917
atom    6   Tr[ns(na)] =   5.43257
    eigenvalues: 
  0.844  0.930  0.943
    eigenvectors:
  0.339  0.000  0.661
  0.495  0.250  0.255
  0.166  0.750  0.084
    occupations:
  0.909  0.041  0.024
  0.041  0.890 -0.023
  0.024 -0.023  0.917
atom    7   Tr[ns(na)] =   5.43257
    eigenvalues: 
  0.844  0.930  0.943
    eigenvectors:
  0.339  0.000  0.661
  0.000  1.000  0.000
  0.661  0.000  0.339
    occupations:
  0.909  0.000 -0.047
  0.000  0.930  0.000
 -0.047  0.000  0.877
atom    8   Tr[ns(na)] =   5.43255
    eigenvalues: 
  0.844  0.929  0.943
    eigenvectors:
  0.339  0.000  0.661
  0.496  0.250  0.254
  0.165  0.750  0.085
    occupations:
  0.909 -0.041  0.024
 -0.041  0.890  0.022
  0.024  0.022  0.916
atom    9   Tr[ns(na)] =   5.43255
    eigenvalues: 
  0.844  0.929  0.943
    eigenvectors:
  0.339  0.000  0.661
  0.495  0.250  0.255
  0.166  0.750  0.084
    occupations:
  0.909  0.041  0.024
  0.041  0.890 -0.022
  0.024 -0.022  0.916
atom   10   Tr[ns(na)] =   5.43255
    eigenvalues: 
  0.844  0.929  0.943
    eigenvectors:
  0.339  0.000  0.661
  0.000  1.000  0.000
  0.661  0.000  0.339
    occupations:
  0.909  0.000 -0.047
  0.000  0.929  0.000
 -0.047  0.000  0.877
N of occupied +U levels =  56.2531727
 --- exit write_ns ---
 --- in v_hubbard ---
Hubbard energy    0.1159
 -------

     total cpu time spent up to now is      109.1 secs

     total energy              =    -538.21328207 Ry
     Harris-Foulkes estimate   =    -538.21327478 Ry
     estimated scf accuracy    <       0.00000093 Ry

     iteration #  8     ecut=    30.00 Ry     beta=0.20
     Davidson diagonalization with overlap
     ethr =  1.22E-09,  avg # of iterations =  2.1
 --- enter write_ns ---
 LDA+U parameters:
U( 1)     =  1.00000000
alpha( 1) =  0.00000000
U( 2)     =  0.00000000
alpha( 2) =  0.10000000
U( 3)     =  0.00000000
alpha( 3) =  0.00000000
U( 4)     =  0.00000000
alpha( 4) =  0.00000000
atom    1   Tr[ns(na)] =   8.04492
    eigenvalues: 
  0.569  0.569  0.961  0.962  0.962
    eigenvectors:
  0.000  0.000  1.000  0.000  0.000
  0.334  0.322  0.000  0.004  0.340
  0.322  0.334  0.000  0.340  0.004
  0.286  0.059  0.000  0.515  0.141
  0.059  0.286  0.000  0.141  0.515
    occupations:
  0.961  0.000  0.000  0.000  0.000
  0.000  0.704  0.000 -0.067  0.174
  0.000  0.000  0.704  0.174  0.067
  0.000 -0.067  0.174  0.827  0.000
  0.000  0.174  0.067  0.000  0.827
atom    2   Tr[ns(na)] =   8.04420
    eigenvalues: 
  0.567  0.567  0.962  0.963  0.963
    eigenvectors:
  0.000  0.000  1.000  0.000  0.000
  0.636  0.019  0.000  0.220  0.125
  0.019  0.636  0.000  0.125  0.220
  0.013  0.331  0.000  0.471  0.185
  0.331  0.013  0.000  0.185  0.471
    occupations:
  0.962  0.000  0.000  0.000  0.000
  0.000  0.703  0.000  0.067  0.176
  0.000  0.000  0.703  0.176 -0.067
  0.000  0.067  0.176  0.827  0.000
  0.000  0.176 -0.067  0.000  0.827
atom    3   Tr[ns(na)] =   3.77081
    eigenvalues: 
  0.353  0.353  0.380  0.400  0.400
    eigenvectors:
  0.000  0.000  1.000  0.000  0.000
  0.780  0.140  0.000  0.012  0.069
  0.140  0.780  0.000  0.069  0.012
  0.013  0.068  0.000  0.779  0.141
  0.068  0.013  0.000  0.141  0.779
    occupations:
  0.380  0.000  0.000  0.000  0.000
  0.000  0.356  0.000  0.000  0.013
  0.000  0.000  0.356  0.013  0.000
  0.000  0.000  0.013  0.396  0.000
  0.000  0.013  0.000  0.000  0.396
atom    4   Tr[ns(na)] =   3.79919
    eigenvalues: 
  0.356  0.356  0.383  0.403  0.403
    eigenvectors:
  0.000  0.000  1.000  0.000  0.000
  0.782  0.139  0.000  0.011  0.067
  0.139  0.782  0.000  0.067  0.011
  0.012  0.066  0.000  0.781  0.140
  0.066  0.012  0.000  0.140  0.781
    occupations:
  0.383  0.000  0.000  0.000  0.000
  0.000  0.359  0.000  0.000  0.013
  0.000  0.000  0.359  0.013  0.000
  0.000  0.000  0.013  0.399  0.000
  0.000  0.013  0.000  0.000  0.399
atom    5   Tr[ns(na)] =   5.43240
    eigenvalues: 
  0.844  0.930  0.943
    eigenvectors:
  0.339  0.000  0.661
  0.496  0.250  0.254
  0.165  0.750  0.085
    occupations:
  0.909 -0.041  0.023
 -0.041  0.890  0.023
  0.023  0.023  0.917
atom    6   Tr[ns(na)] =   5.43240
    eigenvalues: 
  0.844  0.930  0.943
    eigenvectors:
  0.339  0.000  0.661
  0.495  0.250  0.255
  0.166  0.750  0.084
    occupations:
  0.909  0.041  0.024
  0.041  0.890 -0.023
  0.024 -0.023  0.917
atom    7   Tr[ns(na)] =   5.43240
    eigenvalues: 
  0.844  0.930  0.943
    eigenvectors:
  0.339  0.000  0.661
  0.000  1.000  0.000
  0.661  0.000  0.339
    occupations:
  0.909  0.000 -0.047
  0.000  0.930  0.000
 -0.047  0.000  0.877
atom    8   Tr[ns(na)] =   5.43236
    eigenvalues: 
  0.844  0.929  0.943
    eigenvectors:
  0.339  0.000  0.661
  0.496  0.250  0.254
  0.165  0.750  0.085
    occupations:
  0.909 -0.041  0.024
 -0.041  0.890  0.022
  0.024  0.022  0.916
atom    9   Tr[ns(na)] =   5.43236
    eigenvalues: 
  0.844  0.929  0.943
    eigenvectors:
  0.339  0.000  0.661
  0.495  0.250  0.255
  0.166  0.750  0.084
    occupations:
  0.909  0.041  0.024
  0.041  0.890 -0.022
  0.024 -0.022  0.916
atom   10   Tr[ns(na)] =   5.43236
    eigenvalues: 
  0.844  0.929  0.943
    eigenvectors:
  0.339  0.000  0.661
  0.000  1.000  0.000
  0.661  0.000  0.339
    occupations:
  0.909  0.000 -0.047
  0.000  0.929  0.000
 -0.047  0.000  0.877
N of occupied +U levels =  56.2533736
 --- exit write_ns ---
 --- in v_hubbard ---
Hubbard energy    0.1159
 -------

     total cpu time spent up to now is      123.2 secs

     total energy              =    -538.21328708 Ry
     Harris-Foulkes estimate   =    -538.21328232 Ry
     estimated scf accuracy    <       0.00000008 Ry

     iteration #  9     ecut=    30.00 Ry     beta=0.20
     Davidson diagonalization with overlap
     ethr =  1.09E-10,  avg # of iterations =  1.9
 --- enter write_ns ---
 LDA+U parameters:
U( 1)     =  1.00000000
alpha( 1) =  0.00000000
U( 2)     =  0.00000000
alpha( 2) =  0.10000000
U( 3)     =  0.00000000
alpha( 3) =  0.00000000
U( 4)     =  0.00000000
alpha( 4) =  0.00000000
atom    1   Tr[ns(na)] =   8.04489
    eigenvalues: 
  0.569  0.569  0.961  0.962  0.962
    eigenvectors:
  0.000  0.000  1.000  0.000  0.000
  0.333  0.322  0.000  0.004  0.340
  0.322  0.333  0.000  0.340  0.004
  0.286  0.058  0.000  0.515  0.141
  0.058  0.286  0.000  0.141  0.515
    occupations:
  0.961  0.000  0.000  0.000  0.000
  0.000  0.704  0.000 -0.067  0.174
  0.000  0.000  0.704  0.174  0.067
  0.000 -0.067  0.174  0.827  0.000
  0.000  0.174  0.067  0.000  0.827
atom    2   Tr[ns(na)] =   8.04419
    eigenvalues: 
  0.567  0.567  0.962  0.963  0.963
    eigenvectors:
  0.000  0.000  1.000  0.000  0.000
  0.637  0.019  0.000  0.220  0.124
  0.019  0.637  0.000  0.124  0.220
  0.013  0.331  0.000  0.471  0.185
  0.331  0.013  0.000  0.185  0.471
    occupations:
  0.962  0.000  0.000  0.000  0.000
  0.000  0.703  0.000  0.067  0.176
  0.000  0.000  0.703  0.176 -0.067
  0.000  0.067  0.176  0.827  0.000
  0.000  0.176 -0.067  0.000  0.827
atom    3   Tr[ns(na)] =   3.77075
    eigenvalues: 
  0.353  0.353  0.380  0.400  0.400
    eigenvectors:
  0.000  0.000  1.000  0.000  0.000
  0.780  0.140  0.000  0.012  0.069
  0.140  0.780  0.000  0.069  0.012
  0.013  0.068  0.000  0.779  0.141
  0.068  0.013  0.000  0.141  0.779
    occupations:
  0.380  0.000  0.000  0.000  0.000
  0.000  0.356  0.000  0.000  0.013
  0.000  0.000  0.356  0.013  0.000
  0.000  0.000  0.013  0.396  0.000
  0.000  0.013  0.000  0.000  0.396
atom    4   Tr[ns(na)] =   3.79911
    eigenvalues: 
  0.356  0.356  0.383  0.403  0.403
    eigenvectors:
  0.000  0.000  1.000  0.000  0.000
  0.782  0.139  0.000  0.011  0.067
  0.139  0.782  0.000  0.067  0.011
  0.012  0.066  0.000  0.781  0.140
  0.066  0.012  0.000  0.140  0.781
    occupations:
  0.383  0.000  0.000  0.000  0.000
  0.000  0.359  0.000  0.000  0.013
  0.000  0.000  0.359  0.013  0.000
  0.000  0.000  0.013  0.399  0.000
  0.000  0.013  0.000  0.000  0.399
atom    5   Tr[ns(na)] =   5.43241
    eigenvalues: 
  0.844  0.930  0.943
    eigenvectors:
  0.339  0.000  0.661
  0.496  0.250  0.254
  0.165  0.750  0.085
    occupations:
  0.909 -0.041  0.023
 -0.041  0.890  0.023
  0.023  0.023  0.917
atom    6   Tr[ns(na)] =   5.43241
    eigenvalues: 
  0.844  0.930  0.943
    eigenvectors:
  0.339  0.000  0.661
  0.495  0.250  0.255
  0.166  0.750  0.084
    occupations:
  0.909  0.041  0.024
  0.041  0.890 -0.023
  0.024 -0.023  0.917
atom    7   Tr[ns(na)] =   5.43241
    eigenvalues: 
  0.844  0.930  0.943
    eigenvectors:
  0.339  0.000  0.661
  0.000  1.000  0.000
  0.661  0.000  0.339
    occupations:
  0.909  0.000 -0.047
  0.000  0.930  0.000
 -0.047  0.000  0.877
atom    8   Tr[ns(na)] =   5.43238
    eigenvalues: 
  0.844  0.929  0.943
    eigenvectors:
  0.339  0.000  0.661
  0.496  0.250  0.254
  0.165  0.750  0.085
    occupations:
  0.909 -0.041  0.024
 -0.041  0.890  0.022
  0.024  0.022  0.916
atom    9   Tr[ns(na)] =   5.43238
    eigenvalues: 
  0.844  0.929  0.943
    eigenvectors:
  0.339  0.000  0.661
  0.495  0.250  0.255
  0.166  0.750  0.084
    occupations:
  0.909  0.041  0.024
  0.041  0.890 -0.022
  0.024 -0.022  0.916
atom   10   Tr[ns(na)] =   5.43238
    eigenvalues: 
  0.844  0.929  0.943
    eigenvectors:
  0.339  0.000  0.661
  0.000  1.000  0.000
  0.661  0.000  0.339
    occupations:
  0.909  0.000 -0.047
  0.000  0.929  0.000
 -0.047  0.000  0.877
N of occupied +U levels =  56.2533231
 --- exit write_ns ---
 --- in v_hubbard ---
Hubbard energy    0.1159
 -------

     total cpu time spent up to now is      135.3 secs

     total energy              =    -538.21329016 Ry
     Harris-Foulkes estimate   =    -538.21328709 Ry
     estimated scf accuracy    <       0.00000003 Ry

     iteration # 10     ecut=    30.00 Ry     beta=0.20
     Davidson diagonalization with overlap
     ethr =  3.76E-11,  avg # of iterations =  2.0
 --- enter write_ns ---
 LDA+U parameters:
U( 1)     =  1.00000000
alpha( 1) =  0.00000000
U( 2)     =  0.00000000
alpha( 2) =  0.10000000
U( 3)     =  0.00000000
alpha( 3) =  0.00000000
U( 4)     =  0.00000000
alpha( 4) =  0.00000000
atom    1   Tr[ns(na)] =   8.04483
    eigenvalues: 
  0.569  0.569  0.961  0.962  0.962
    eigenvectors:
  0.000  0.000  1.000  0.000  0.000
  0.334  0.322  0.000  0.004  0.340
  0.322  0.334  0.000  0.340  0.004
  0.286  0.058  0.000  0.515  0.141
  0.058  0.286  0.000  0.141  0.515
    occupations:
  0.961  0.000  0.000  0.000  0.000
  0.000  0.704  0.000 -0.067  0.174
  0.000  0.000  0.704  0.174  0.067
  0.000 -0.067  0.174  0.827  0.000
  0.000  0.174  0.067  0.000  0.827
atom    2   Tr[ns(na)] =   8.04411
    eigenvalues: 
  0.567  0.567  0.962  0.963  0.963
    eigenvectors:
  0.000  0.000  1.000  0.000  0.000
  0.637  0.019  0.000  0.220  0.124
  0.019  0.637  0.000  0.124  0.220
  0.013  0.331  0.000  0.471  0.185
  0.331  0.013  0.000  0.185  0.471
    occupations:
  0.962  0.000  0.000  0.000  0.000
  0.000  0.703  0.000  0.067  0.176
  0.000  0.000  0.703  0.176 -0.067
  0.000  0.067  0.176  0.827  0.000
  0.000  0.176 -0.067  0.000  0.827
atom    3   Tr[ns(na)] =   3.77072
    eigenvalues: 
  0.353  0.353  0.380  0.400  0.400
    eigenvectors:
  0.000  0.000  1.000  0.000  0.000
  0.780  0.140  0.000  0.012  0.069
  0.140  0.780  0.000  0.069  0.012
  0.013  0.068  0.000  0.779  0.140
  0.068  0.013  0.000  0.140  0.779
    occupations:
  0.380  0.000  0.000  0.000  0.000
  0.000  0.356  0.000  0.000  0.013
  0.000  0.000  0.356  0.013  0.000
  0.000  0.000  0.013  0.396  0.000
  0.000  0.013  0.000  0.000  0.396
atom    4   Tr[ns(na)] =   3.79900
    eigenvalues: 
  0.356  0.356  0.383  0.403  0.403
    eigenvectors:
  0.000  0.000  1.000  0.000  0.000
  0.782  0.139  0.000  0.011  0.067
  0.139  0.782  0.000  0.067  0.011
  0.012  0.066  0.000  0.781  0.140
  0.066  0.012  0.000  0.140  0.781
    occupations:
  0.383  0.000  0.000  0.000  0.000
  0.000  0.359  0.000  0.000  0.013
  0.000  0.000  0.359  0.013  0.000
  0.000  0.000  0.013  0.399  0.000
  0.000  0.013  0.000  0.000  0.399
atom    5   Tr[ns(na)] =   5.43244
    eigenvalues: 
  0.844  0.930  0.943
    eigenvectors:
  0.339  0.000  0.661
  0.496  0.250  0.254
  0.165  0.750  0.085
    occupations:
  0.909 -0.041  0.023
 -0.041  0.890  0.023
  0.023  0.023  0.917
atom    6   Tr[ns(na)] =   5.43244
    eigenvalues: 
  0.844  0.930  0.943
    eigenvectors:
  0.339  0.000  0.661
  0.495  0.250  0.255
  0.166  0.750  0.084
    occupations:
  0.909  0.041  0.024
  0.041  0.890 -0.023
  0.024 -0.023  0.917
atom    7   Tr[ns(na)] =   5.43244
    eigenvalues: 
  0.844  0.930  0.943
    eigenvectors:
  0.339  0.000  0.661
  0.000  1.000  0.000
  0.661  0.000  0.339
    occupations:
  0.909  0.000 -0.047
  0.000  0.930  0.000
 -0.047  0.000  0.877
atom    8   Tr[ns(na)] =   5.43242
    eigenvalues: 
  0.844  0.929  0.943
    eigenvectors:
  0.339  0.000  0.661
  0.496  0.250  0.254
  0.165  0.750  0.085
    occupations:
  0.909 -0.041  0.024
 -0.041  0.890  0.022
  0.024  0.022  0.916
atom    9   Tr[ns(na)] =   5.43242
    eigenvalues: 
  0.844  0.929  0.943
    eigenvectors:
  0.339  0.000  0.661
  0.495  0.250  0.255
  0.166  0.750  0.084
    occupations:
  0.909  0.041  0.024
  0.041  0.890 -0.022
  0.024 -0.022  0.916
atom   10   Tr[ns(na)] =   5.43242
    eigenvalues: 
  0.844  0.929  0.943
    eigenvectors:
  0.339  0.000  0.661
  0.000  1.000  0.000
  0.661  0.000  0.339
    occupations:
  0.909  0.000 -0.047
  0.000  0.929  0.000
 -0.047  0.000  0.877
N of occupied +U levels =  56.2532671
 --- exit write_ns ---
 --- in v_hubbard ---
Hubbard energy    0.1159
 -------

     total cpu time spent up to now is      148.7 secs

     End of self-consistent calculation

          k = 0.0000 0.0000 0.0000 (  2175 PWs)   bands (ev):

   -19.8168 -19.6369  -6.5304  -5.8061  -5.8061  -5.7846  -5.7846  -5.4391
    -3.7835  -3.2739  -3.2105  -3.2105  -3.0297  -3.0297   5.2071   6.9154
     6.9154   7.5349   7.5349   7.6616   7.6616   7.7142   7.7286   9.3086
     9.6318   9.6318   9.7719   9.8968   9.8968  10.3712  10.3712  10.4794
    10.4794  10.5744  10.6921  11.4405  11.4405  12.0038  12.1898  12.1898
    14.7894  14.7894  15.4672  15.4672  16.2391  16.8260

     occupation numbers 
     0.0313   0.0313   0.0313   0.0313   0.0313   0.0313   0.0313   0.0313
     0.0313   0.0313   0.0313   0.0313   0.0313   0.0313   0.0313   0.0313
     0.0313   0.0313   0.0313   0.0313   0.0313   0.0313   0.0313   0.0313
     0.0313   0.0313   0.0312   0.0312   0.0312   0.0312   0.0312   0.0312
     0.0312   0.0312   0.0312   0.0307   0.0307   0.0175   0.0097   0.0097
     0.0000   0.0000   0.0000   0.0000   0.0000   0.0000

          k =-0.2471-0.1427 0.1027 (  2181 PWs)   bands (ev):

   -19.7909 -19.6614  -6.7091  -6.2555  -5.9132  -5.8187  -5.5783  -5.4435
    -3.5947  -3.3952  -2.9376  -2.9081  -2.8491  -2.7623   5.5742   6.8960
     7.0190   7.0278   7.2265   7.4975   7.5563   7.7118   7.7200   8.5635
     8.6449   9.2560   9.6709   9.7960   9.8380  10.0365  10.3858  10.3971
    10.7996  10.8205  10.9251  11.7018  11.7569  11.8080  12.3530  12.4181
    14.3332  14.3425  15.8520  16.1048  17.0064  17.2996

     occupation numbers 
     0.1875   0.1875   0.1875   0.1875   0.1875   0.1875   0.1875   0.1875
     0.1875   0.1875   0.1875   0.1875   0.1875   0.1875   0.1875   0.1875
     0.1875   0.1875   0.1875   0.1875   0.1875   0.1875   0.1875   0.1875
     0.1875   0.1875   0.1875   0.1875   0.1875   0.1875   0.1875   0.1875
     0.1875   0.1875   0.1875   0.1657   0.1579   0.1492   0.0270   0.0185
     0.0000   0.0000   0.0000   0.0000   0.0000   0.0000

          k = 0.4942 0.2853-0.2053 (  2202 PWs)   bands (ev):

   -19.7500 -19.7008  -6.7102  -6.6794  -5.9356  -5.9284  -5.4932  -5.4882
    -3.3962  -3.3732  -2.7979  -2.7857  -2.5309  -2.4955   6.0897   6.1061
     7.2184   7.2335   7.2696   7.2878   7.5909   7.6174   7.8770   7.9061
     8.0859   8.1153   9.5277   9.5309   9.8867   9.8938  10.2946  10.3042
    11.2347  11.2404  11.3347  11.3418  11.5238  11.5318  13.3126  13.3431
    13.3986  13.4293  16.8449  16.8857  17.1426  17.1823

     occupation numbers 
     0.0938   0.0938   0.0938   0.0938   0.0938   0.0938   0.0938   0.0938
     0.0938   0.0938   0.0938   0.0938   0.0938   0.0938   0.0938   0.0938
     0.0938   0.0938   0.0938   0.0938   0.0938   0.0938   0.0938   0.0938
     0.0938   0.0938   0.0938   0.0938   0.0937   0.0937   0.0937   0.0937
     0.0935   0.0935   0.0931   0.0931   0.0905   0.0903   0.0000   0.0000
     0.0000   0.0000   0.0000   0.0000   0.0000   0.0000

          k =-0.2471 0.1427 0.2053 (  2195 PWs)   bands (ev):

   -19.7850 -19.6638  -6.8371  -6.2083  -6.0383  -5.7862  -5.6243  -5.4291
    -3.4171  -3.2704  -3.1049  -2.8922  -2.8136  -2.5652   5.6065   6.8426
     6.9131   6.9831   7.2483   7.4837   7.5091   7.7339   7.7449   8.6614
     8.7967   8.8666   9.3056   9.7777   9.9871  10.0817  10.1897  10.3020
    10.3787  11.2104  11.3144  11.3323  11.7340  11.8080  12.0771  12.7530
    13.6572  14.8047  16.0286  16.2274  17.0732  17.5610

     occupation numbers 
     0.1875   0.1875   0.1875   0.1875   0.1875   0.1875   0.1875   0.1875
     0.1875   0.1875   0.1875   0.1875   0.1875   0.1875   0.1875   0.1875
     0.1875   0.1875   0.1875   0.1875   0.1875   0.1875   0.1875   0.1875
     0.1875   0.1875   0.1875   0.1875   0.1875   0.1875   0.1875   0.1875
     0.1875   0.1871   0.1864   0.1862   0.1613   0.1492   0.0858   0.0013
     0.0000   0.0000   0.0000   0.0000   0.0000   0.0000

          k = 0.4942 0.5706-0.1027 (  2198 PWs)   bands (ev):

   -19.7547 -19.6897  -6.9358  -6.6191  -6.1082  -5.8637  -5.4777  -5.3547
    -3.3122  -3.2587  -2.8824  -2.7114  -2.5296  -2.3882   5.9321   6.2820
     6.7777   7.0161   7.2238   7.3629   7.5309   7.7397   7.8494   8.0018
     8.2849   8.8740   9.1239   9.3450   9.6545   9.8275   9.9644  10.3715
    10.8615  11.3252  11.4271  11.4986  11.6330  11.6747  12.3419  12.7593
    13.4452  14.3810  16.9335  17.1423  17.3399  18.0370

     occupation numbers 
     0.1875   0.1875   0.1875   0.1875   0.1875   0.1875   0.1875   0.1875
     0.1875   0.1875   0.1875   0.1875   0.1875   0.1875   0.1875   0.1875
     0.1875   0.1875   0.1875   0.1875   0.1875   0.1875   0.1875   0.1875
     0.1875   0.1875   0.1875   0.1875   0.1875   0.1875   0.1875   0.1875
     0.1875   0.1863   0.1845   0.1821   0.1732   0.1689   0.0287   0.0013
     0.0000   0.0000   0.0000   0.0000   0.0000   0.0000

          k = 0.2471 0.4280 0.0000 (  2203 PWs)   bands (ev):

   -19.7620 -19.6860  -6.8261  -6.6077  -6.0258  -5.9533  -5.4062  -5.3377
    -3.5190  -3.3018  -2.8042  -2.7169  -2.5696  -2.5603   5.9106   6.3320
     6.9887   7.1228   7.2263   7.3090   7.4626   7.6404   7.7214   8.0895
     8.3356   8.9477   9.3373   9.4374   9.7876   9.8032  10.0787  10.3739
    11.1752  11.2143  11.2234  11.4515  11.4793  11.7737  12.2739  13.3414
    13.4137  14.1763  16.4675  17.0199  17.4484  17.9511

     occupation numbers 
     0.1875   0.1875   0.1875   0.1875   0.1875   0.1875   0.1875   0.1875
     0.1875   0.1875   0.1875   0.1875   0.1875   0.1875   0.1875   0.1875
     0.1875   0.1875   0.1875   0.1875   0.1875   0.1875   0.1875   0.1875
     0.1875   0.1875   0.1875   0.1875   0.1875   0.1875   0.1875   0.1875
     0.1873   0.1871   0.1871   0.1838   0.1829   0.1552   0.0403   0.0000
     0.0000   0.0000   0.0000   0.0000   0.0000   0.0000

          k = 0.4942-0.2853-0.4107 (  2202 PWs)   bands (ev):

   -19.7561 -19.6815  -7.1535  -6.4416  -6.2268  -5.9128  -5.4992  -5.2642
    -3.2026  -3.1337  -3.0484  -2.6536  -2.4824  -2.2264   5.8334   6.3048
     6.3290   6.9065   7.1771   7.2857   7.7708   7.8216   8.1936   8.3318
     8.4506   8.4810   8.6163   9.4298   9.6890  10.0495  10.0877  10.3057
    10.4527  11.1652  11.3690  11.5437  11.6682  11.7979  11.9893  12.4583
    13.3451  14.8171  17.0738  17.2913  17.5527  17.6325

     occupation numbers 
     0.0938   0.0938   0.0938   0.0938   0.0938   0.0938   0.0938   0.0938
     0.0938   0.0938   0.0938   0.0938   0.0938   0.0938   0.0938   0.0938
     0.0938   0.0938   0.0938   0.0938   0.0938   0.0938   0.0938   0.0938
     0.0938   0.0938   0.0938   0.0938   0.0937   0.0937   0.0937   0.0937
     0.0937   0.0936   0.0929   0.0899   0.0848   0.0755   0.0542   0.0072
     0.0000   0.0000   0.0000   0.0000   0.0000   0.0000

          k = 0.0000 0.0000 0.3080 (  2187 PWs)   bands (ev):

   -19.7906 -19.6615  -6.5974  -5.9421  -5.9027  -5.8943  -5.8103  -5.8083
    -3.2067  -3.1247  -3.0967  -2.9752  -2.9122  -2.8875   5.6297   7.0132
     7.0159   7.1545   7.3656   7.4382   7.4385   7.7192   7.7241   8.7975
     8.7989   9.3515   9.4524   9.6520   9.6538   9.8359  10.1462  10.1494
    10.9268  10.9282  11.0256  11.7252  11.7261  11.8169  12.3302  12.3310
    14.2939  14.2965  15.9425  15.9507  16.9155  17.5099

     occupation numbers 
     0.0625   0.0625   0.0625   0.0625   0.0625   0.0625   0.0625   0.0625
     0.0625   0.0625   0.0625   0.0625   0.0625   0.0625   0.0625   0.0625
     0.0625   0.0625   0.0625   0.0625   0.0625   0.0625   0.0625   0.0625
     0.0625   0.0625   0.0625   0.0625   0.0625   0.0625   0.0625   0.0625
     0.0625   0.0625   0.0625   0.0542   0.0542   0.0492   0.0102   0.0101
     0.0000   0.0000   0.0000   0.0000   0.0000   0.0000

          k = 0.7412 0.4280 0.0000 (  2204 PWs)   bands (ev):

   -19.7617 -19.6861  -6.7107  -6.5720  -6.1195  -5.8035  -5.6526  -5.5155
    -3.1756  -3.1001  -3.0472  -2.6830  -2.6550  -2.5859   5.9500   6.5221
     7.0009   7.1692   7.2307   7.3218   7.4543   7.5971   7.8859   8.0432
     8.3689   8.8454   9.3555   9.4986   9.6156   9.6991   9.8658  10.2335
    11.1702  11.2266  11.3017  11.5134  11.5155  11.6812  12.2799  13.2651
    13.3297  14.2006  16.7183  16.7540  17.6186  17.8165

     occupation numbers 
     0.1875   0.1875   0.1875   0.1875   0.1875   0.1875   0.1875   0.1875
     0.1875   0.1875   0.1875   0.1875   0.1875   0.1875   0.1875   0.1875
     0.1875   0.1875   0.1875   0.1875   0.1875   0.1875   0.1875   0.1875
     0.1875   0.1875   0.1875   0.1875   0.1875   0.1875   0.1875   0.1875
     0.1873   0.1871   0.1866   0.1814   0.1813   0.1682   0.0392   0.0000
     0.0000   0.0000   0.0000   0.0000   0.0000   0.0000

          k = 0.4942 0.2853 0.1027 (  2211 PWs)   bands (ev):

   -19.7548 -19.6895  -6.9522  -6.5137  -6.3018  -5.6671  -5.5944  -5.3280
    -3.3245  -3.1727  -3.0339  -2.6086  -2.5624  -2.3812   5.9626   6.2522
     6.7341   7.0080   7.2448   7.2760   7.5519   7.7851   7.8945   7.9782
     8.3196   8.9806   9.1243   9.4171   9.5255   9.6836  10.0291  10.3883
    10.8774  11.3738  11.5056  11.5107  11.5711  11.5880  12.2947  12.7756
    13.4909  14.3624  16.9102  16.9671  17.6093  17.9556

     occupation numbers 
     0.1875   0.1875   0.1875   0.1875   0.1875   0.1875   0.1875   0.1875
     0.1875   0.1875   0.1875   0.1875   0.1875   0.1875   0.1875   0.1875
     0.1875   0.1875   0.1875   0.1875   0.1875   0.1875   0.1875   0.1875
     0.1875   0.1875   0.1875   0.1875   0.1875   0.1875   0.1875   0.1875
     0.1875   0.1856   0.1818   0.1815   0.1782   0.1770   0.0365   0.0011
     0.0000   0.0000   0.0000   0.0000   0.0000   0.0000

          k = 0.7412-0.4280-0.3080 (  2210 PWs)   bands (ev):

   -19.7546 -19.6896  -6.8880  -6.4213  -6.2803  -5.7692  -5.7272  -5.4565
    -3.0774  -3.0556  -2.9725  -2.7312  -2.6223  -2.4309   6.0236   6.3928
     6.8117   6.9920   7.2615   7.2926   7.5806   7.8045   7.9362   8.0097
     8.2962   8.9667   8.9843   9.5290   9.5429   9.5478   9.6738  10.2251
    10.9480  11.3904  11.4913  11.4990  11.6169  11.6561  12.2539  12.7254
    13.4393  14.3324  17.0880  17.0968  17.5786  17.9251

     occupation numbers 
     0.1875   0.1875   0.1875   0.1875   0.1875   0.1875   0.1875   0.1875
     0.1875   0.1875   0.1875   0.1875   0.1875   0.1875   0.1875   0.1875
     0.1875   0.1875   0.1875   0.1875   0.1875   0.1875   0.1875   0.1875
     0.1875   0.1875   0.1875   0.1875   0.1875   0.1875   0.1875   0.1875
     0.1875   0.1853   0.1824   0.1821   0.1747   0.1710   0.0442   0.0017
     0.0000   0.0000   0.0000   0.0000   0.0000   0.0000

          k = 0.4942-0.5706-0.2053 (  2206 PWs)   bands (ev):

   -19.7492 -19.6916  -6.8639  -6.8524  -6.0145  -6.0094  -5.3979  -5.3954
    -3.1699  -3.1541  -2.8294  -2.8019  -2.3880  -2.3835   6.1066   6.1174
     6.9157   6.9309   7.1316   7.1387   7.4266   7.4439   8.0826   8.1179
     8.8091   8.8235   9.0051   9.0078   9.5550   9.5580  10.1090  10.1103
    11.1670  11.1681  11.3849  11.3874  11.6697  11.6720  12.3176  12.3202
    14.0231  14.0318  17.4526  17.4547  17.8909  17.8948

     occupation numbers 
     0.1875   0.1875   0.1875   0.1875   0.1875   0.1875   0.1875   0.1875
     0.1875   0.1875   0.1875   0.1875   0.1875   0.1875   0.1875   0.1875
     0.1875   0.1875   0.1875   0.1875   0.1875   0.1875   0.1875   0.1875
     0.1875   0.1875   0.1875   0.1875   0.1875   0.1875   0.1875   0.1875
     0.1873   0.1873   0.1854   0.1854   0.1695   0.1692   0.0326   0.0321
     0.0000   0.0000   0.0000   0.0000   0.0000   0.0000

          k = 0.0000 0.0000-0.6160 (  2186 PWs)   bands (ev):

   -19.7497 -19.7006  -6.4973  -6.4613  -5.9236  -5.9236  -5.8978  -5.8978
    -2.9089  -2.9089  -2.8739  -2.8739  -2.7359  -2.6949   6.3134   6.3305
     7.2212   7.2212   7.2393   7.2393   7.7495   7.7768   8.0030   8.0030
     8.0347   8.0347   9.6533   9.6533   9.6602   9.6602   9.7144   9.7251
    11.3890  11.3948  11.4462  11.4462  11.4541  11.4541  13.2550  13.2550
    13.2849  13.2849  17.1253  17.1253  17.1676  17.1676

     occupation numbers 
     0.0313   0.0313   0.0313   0.0313   0.0313   0.0313   0.0313   0.0313
     0.0313   0.0313   0.0313   0.0313   0.0313   0.0313   0.0313   0.0313
     0.0313   0.0313   0.0313   0.0313   0.0313   0.0313   0.0313   0.0313
     0.0313   0.0313   0.0312   0.0312   0.0312   0.0312   0.0312   0.0312
     0.0309   0.0309   0.0307   0.0307   0.0306   0.0306   0.0000   0.0000
     0.0000   0.0000   0.0000   0.0000   0.0000   0.0000

          k = 0.4942-0.5706 0.1027 (  2198 PWs)   bands (ev):

   -19.7547 -19.6897  -6.9362  -6.6182  -6.1093  -5.8627  -5.4787  -5.3539
    -3.3129  -3.2586  -2.8825  -2.7103  -2.5302  -2.3878   5.9305   6.2845
     6.7741   7.0166   7.2294   7.3603   7.5355   7.7353   7.8313   8.0232
     8.2807   8.8799   9.1193   9.3439   9.6524   9.8286   9.9640  10.3730
    10.8610  11.3244  11.4299  11.4980  11.6346  11.6725  12.3416  12.7591
    13.4451  14.3807  16.9354  17.1395  17.3404  18.0381

     occupation numbers 
     0.1875   0.1875   0.1875   0.1875   0.1875   0.1875   0.1875   0.1875
     0.1875   0.1875   0.1875   0.1875   0.1875   0.1875   0.1875   0.1875
     0.1875   0.1875   0.1875   0.1875   0.1875   0.1875   0.1875   0.1875
     0.1875   0.1875   0.1875   0.1875   0.1875   0.1875   0.1875   0.1875
     0.1875   0.1863   0.1844   0.1821   0.1731   0.1692   0.0287   0.0013
     0.0000   0.0000   0.0000   0.0000   0.0000   0.0000

     the Fermi energy is    12.0463 ev

!    total energy              =    -538.21329572 Ry
     Harris-Foulkes estimate   =    -538.21329017 Ry
     estimated scf accuracy    <          2.6E-09 Ry

     The total energy is the sum of the following terms:

     one-electron contribution =     -32.94615337 Ry
     hartree contribution      =      83.67857490 Ry
     xc contribution           =    -199.58483531 Ry
     ewald contribution        =    -389.44315552 Ry
     Hubbard energy            =       0.11593700 Ry
     smearing contrib. (-TS)   =      -0.03366341 Ry

     convergence has been achieved in  10 iterations

     init_run     :      7.10s CPU      7.26s WALL (       1 calls)
     electrons    :    139.19s CPU    140.91s WALL (       1 calls)

     Called by init_run:
     wfcinit      :      0.00s CPU      0.00s WALL (       1 calls)
     potinit      :      0.27s CPU      0.33s WALL (       1 calls)

     Called by electrons:
     c_bands      :     93.16s CPU     93.55s WALL (      10 calls)
     sum_band     :     26.77s CPU     26.95s WALL (      10 calls)
     v_of_rho     :      2.57s CPU      2.58s WALL (      11 calls)
     v_h          :      0.13s CPU      0.13s WALL (      11 calls)
     v_xc         :      2.44s CPU      2.45s WALL (      11 calls)
     newd         :     17.90s CPU     17.91s WALL (      11 calls)
     mix_rho      :      0.23s CPU      0.23s WALL (      10 calls)

     Called by c_bands:
     init_us_2    :      0.97s CPU      0.98s WALL (     280 calls)
     cegterg      :     90.46s CPU     90.66s WALL (     140 calls)

     Called by sum_band:
     sum_band:bec :      0.11s CPU      0.10s WALL (     140 calls)
     addusdens    :     12.20s CPU     12.20s WALL (      10 calls)

     Called by *egterg:
     h_psi        :     64.54s CPU     64.73s WALL (     588 calls)
     s_psi        :      3.75s CPU      3.75s WALL (     588 calls)
     g_psi        :      0.35s CPU      0.35s WALL (     448 calls)
     cdiaghg      :      9.44s CPU      9.46s WALL (     574 calls)
     cegterg:over :      4.74s CPU      4.74s WALL (     448 calls)
     cegterg:upda :      3.15s CPU      3.15s WALL (     448 calls)
     cegterg:last :      1.96s CPU      1.96s WALL (     159 calls)

     Called by h_psi:
     h_psi:vloc   :     52.41s CPU     52.60s WALL (     588 calls)
     h_psi:vnl    :      7.72s CPU      7.73s WALL (     588 calls)
     add_vuspsi   :      3.75s CPU      3.75s WALL (     588 calls)
     vhpsi        :      4.29s CPU      4.27s WALL (     588 calls)

     General routines
     calbec       :      8.19s CPU      8.20s WALL (    1456 calls)
     fft          :      1.60s CPU      1.61s WALL (     171 calls)
     ffts         :      0.05s CPU      0.05s WALL (      21 calls)
     fftw         :     51.71s CPU     51.81s WALL (   40682 calls)
     interpolate  :      0.27s CPU      0.27s WALL (      21 calls)
     davcio       :      0.00s CPU      0.33s WALL (     294 calls)

     Parallel routines
     fft_scatter  :     11.75s CPU     11.94s WALL (   40874 calls)
     Hubbard U routines
     new_ns       :      0.79s CPU      0.93s WALL (      10 calls)
     vhpsi        :      4.29s CPU      4.27s WALL (     588 calls)

     PWSCF        :  2m26.73s CPU     2m28.73s WALL


   This run was terminated on:  14:54:31  11Nov2012            

=------------------------------------------------------------------------------=
