   JOB DONE.
=------------------------------------------------------------------------------=

     Program PWSCF v.5.0.1 starts on 11Nov2012 at 15:43:35 

     This program is part of the open-source Quantum ESPRESSO suite
     for quantum simulation of materials; please cite
         "P. Giannozzi et al., J. Phys.:Condens. Matter 21 395502 (2009);
          URL http://www.quantum-espresso.org", 
     in publications or presentations arising from this work. More details at
     http://www.quantum-espresso.org/quote.php

     Parallel version (MPI), running on     2 processors
     R & G space division:  proc/pool =    2

     Current dimensions of program PWSCF are:
     Max number of different atomic species (ntypx) = 10
     Max number of k-points (npk) =  40000
     Max angular momentum in pseudopotentials (lmaxx) =  3
     Reading input from CoLaO_U400_a15.in
               file Co.pbe-nd-rrkjus.UPF: wavefunction(s)  4S 3D renormalized
               file O.pbe-rrkjus.UPF: wavefunction(s)  2S renormalized
               file O.pbe-rrkjus.UPF: wavefunction(s)  2S renormalized

     Subspace diagonalization in iterative solution of the eigenvalue problem:
     a serial algorithm will be used


     Parallelization info
     --------------------
     sticks:   dense  smooth     PW     G-vecs:    dense   smooth      PW
     Min        1112     444    131                34808     8786    1448
     Max        1113     445    132                34809     8787    1449
     Sum        2225     889    263                69617    17573    2897


     Title: 
     GGA + U, U = 4.000, alpha = 0.150                                          


     bravais-lattice index     =            5
     lattice parameter (alat)  =      10.3292  a.u.
     unit-cell volume          =     793.0599 (a.u.)^3
     number of atoms/cell      =           10
     number of atomic types    =            4
     number of electrons       =        76.00
     number of Kohn-Sham states=           46
     kinetic-energy cutoff     =      30.0000  Ry
     charge density cutoff     =     300.0000  Ry
     convergence threshold     =      1.0E-08
     mixing beta               =       0.2000
     number of iterations used =            8  plain     mixing
     Exchange-correlation      =  SLA  PW   PBE  PBE ( 1 4 3 4 0)
     EXX-fraction              =        0.00

     celldm(1)=  10.329242  celldm(2)=   0.000000  celldm(3)=   0.000000
     celldm(4)=   0.488100  celldm(5)=   0.000000  celldm(6)=   0.000000

     crystal axes: (cart. coord. in units of alat)
               a(1) = (   0.505915  -0.292090   0.811624 )  
               a(2) = (   0.000000   0.584180   0.811624 )  
               a(3) = (  -0.505915  -0.292090   0.811624 )  

     reciprocal axes: (cart. coord. in units 2 pi/alat)
               b(1) = (  0.988308 -0.570600  0.410699 )  
               b(2) = (  0.000000  1.141200  0.410699 )  
               b(3) = ( -0.988308 -0.570600  0.410699 )  


     PseudoPot. # 1 for Co read from file:
     /home/mcurnan/dft-course/Project1/example_LaCoO3/Co.pbe-nd-rrkjus.UPF
     MD5 check sum: 3e47a84addf5e975e0edeaeee2a73f59
     Pseudo is Ultrasoft + core correction, Zval =  9.0
     Generated by new atomic code, or converted to UPF format
     Using radial grid of  961 points,  6 beta functions with: 
                l(1) =   0
                l(2) =   0
                l(3) =   1
                l(4) =   1
                l(5) =   2
                l(6) =   2
     Q(r) pseudized with 0 coefficients 


     PseudoPot. # 2 for La read from file:
     /home/mcurnan/dft-course/Project1/example_LaCoO3/La.pbe-nsp-van.UPF
     MD5 check sum: b2f11743f52dde65f77d1302becd7929
     Pseudo is Ultrasoft + core correction, Zval = 11.0
     Generated by new atomic code, or converted to UPF format
     Using radial grid of  907 points,  6 beta functions with: 
                l(1) =   0
                l(2) =   0
                l(3) =   1
                l(4) =   1
                l(5) =   2
                l(6) =   2
     Q(r) pseudized with  6 coefficients,  rinner =    1.200   1.200   1.200
                                                       1.200   1.200

     PseudoPot. # 3 for O  read from file:
     /home/mcurnan/dft-course/Project1/example_LaCoO3/O.pbe-rrkjus.UPF
     MD5 check sum: 390ba29e75625707450f3bd3f0eb6be9
     Pseudo is Ultrasoft, Zval =  6.0
     Generated by new atomic code, or converted to UPF format
     Using radial grid of 1269 points,  4 beta functions with: 
                l(1) =   0
                l(2) =   0
                l(3) =   1
                l(4) =   1
     Q(r) pseudized with 0 coefficients 


     PseudoPot. # 4 for O  read from file:
     /home/mcurnan/dft-course/Project1/example_LaCoO3/O.pbe-rrkjus.UPF
     MD5 check sum: 390ba29e75625707450f3bd3f0eb6be9
     Pseudo is Ultrasoft, Zval =  6.0
     Generated by new atomic code, or converted to UPF format
     Using radial grid of 1269 points,  4 beta functions with: 
                l(1) =   0
                l(2) =   0
                l(3) =   1
                l(4) =   1
     Q(r) pseudized with 0 coefficients 


     atomic species   valence    mass     pseudopotential
        Co1            9.00     1.00000     Co( 1.00)
        La1           11.00     1.00000     La( 1.00)
        O1             6.00     1.00000     O ( 1.00)
        O2             6.00     1.00000     O ( 1.00)
 -----
     simplified LDA+U calculation, Hubbard_lmax = 2
     atomic species  L   Hubbard U  Hubbard alpha
        Co1          2    4.000000    0.000000
        La1          2    0.000000    0.000000
        O1           1    0.000000    0.150000
        O2           1    0.000000    0.000000
 -----

     No symmetry found


                                    s                        frac. trans.

      isym =  1     identity                                     

 cryst.   s( 1) = (     1          0          0      )
                  (     0          1          0      )
                  (     0          0          1      )

 cart.    s( 1) = (  1.0000000  0.0000000  0.0000000 )
                  (  0.0000000  1.0000000  0.0000000 )
                  (  0.0000000  0.0000000  1.0000000 )


     point group C_1 (1)    
     there are  1 classes
     the character table:

       E    
A      1.00

     the symmetry operations in each class:
     E        1

   Cartesian axes

     site n.     atom                  positions (alat units)
         1           Co1 tau(   1) = (   0.2228050  -0.1992639   1.0141240  )
         2           Co1 tau(   2) = (  -0.2831100   0.0928263   1.4199360  )
         3           La1 tau(   3) = (  -0.2831100   0.0928263   0.8112181  )
         4           La1 tau(   4) = (   0.2228050   0.3849164   1.2170300  )
         5           O1  tau(   5) = (   0.0000000   0.0000000   0.0000000  )
         6           O2  tau(   6) = (   0.0008601   0.1861491   1.6232478  )
         7           O2  tau(   7) = (   0.1616398   0.0923297   0.8116239  )
         8           O2  tau(   8) = (  -0.0603051  -0.1064377   1.2166242  )
         9           O2  tau(   9) = (   0.4447499  -0.0004966   1.2166242  )
        10           O2  tau(  10) = (  -0.2219449   0.3854130   1.2166242  )

   Crystallographic axes

     site n.     atom                  positions (cryst. coord.)
         1           Co1 tau(   1) = (  0.7504000  0.1891000  0.3100000  )
         2           Co1 tau(   2) = (  0.2504000  0.6891000  0.8100000  )
         3           La1 tau(   3) = (  0.0004000  0.4391000  0.5600000  )
         4           La1 tau(   4) = (  0.5004000  0.9391000  0.0600000  )
         5           O1  tau(   5) = (  0.0000000  0.0000000  0.0000000  )
         6           O2  tau(   6) = (  0.5613000  0.8791000  0.5596000  )
         7           O2  tau(   7) = (  0.4404000  0.4387000  0.1209000  )
         8           O2  tau(   8) = (  0.5008000  0.3782000  0.6200000  )
         9           O2  tau(   9) = (  0.9395000  0.4991000  0.0604000  )
        10           O2  tau(  10) = (  0.0604000  0.9395000  0.4991000  )

     number of k points=    36  gaussian smearing, width (Ry)=  0.0300
                       cart. coord. in units 2pi/alat
        k(    1) = (   0.0000000   0.0000000   0.0000000), wk =   0.0312500
        k(    2) = (  -0.2470771  -0.1426500   0.1026748), wk =   0.0625000
        k(    3) = (   0.4941541   0.2853000  -0.2053496), wk =   0.0312500
        k(    4) = (  -0.2470771   0.1426500   0.2053496), wk =   0.0625000
        k(    5) = (   0.4941541   0.5706001  -0.1026748), wk =   0.0625000
        k(    6) = (   0.2470771   0.4279500   0.0000000), wk =   0.0625000
        k(    7) = (   0.4941541  -0.2853000  -0.4106993), wk =   0.0312500
        k(    8) = (   0.0000000   0.0000000   0.3080244), wk =   0.0625000
        k(    9) = (   0.7412312   0.4279500   0.0000000), wk =   0.0625000
        k(   10) = (   0.4941541   0.2853000   0.1026748), wk =   0.0625000
        k(   11) = (   0.7412312  -0.4279500  -0.3080244), wk =   0.0625000
        k(   12) = (   0.4941541  -0.5706001  -0.2053496), wk =   0.0625000
        k(   13) = (   0.0000000   0.0000000  -0.6160489), wk =   0.0312500
        k(   14) = (  -0.2470771   0.1426500  -0.1026748), wk =   0.0625000
        k(   15) = (   0.0000000   0.2853000   0.1026748), wk =   0.0625000
        k(   16) = (   0.4941541  -0.2853000   0.2053496), wk =   0.0312500
        k(   17) = (   0.0000000  -0.5706001  -0.2053496), wk =   0.0312500
        k(   18) = (  -0.2470771  -0.1426500  -0.2053496), wk =   0.0625000
        k(   19) = (   0.0000000  -0.2853000   0.2053496), wk =   0.0625000
        k(   20) = (   0.4941541  -0.5706001   0.1026748), wk =   0.0625000
        k(   21) = (  -0.7412312   0.1426500  -0.1026748), wk =   0.0625000
        k(   22) = (   0.2470771  -0.7132501  -0.1026748), wk =   0.0625000
        k(   23) = (  -0.7412312  -0.1426500   0.1026748), wk =   0.0625000
        k(   24) = (   0.2470771   0.7132501   0.1026748), wk =   0.0625000
        k(   25) = (   0.2470771  -0.4279500   0.0000000), wk =   0.0625000
        k(   26) = (  -0.4941541   0.0000000   0.0000000), wk =   0.0625000
        k(   27) = (   0.4941541   0.2853000   0.4106993), wk =   0.0312500
        k(   28) = (   0.0000000   0.5706001  -0.4106993), wk =   0.0312500
        k(   29) = (   0.7412312  -0.4279500   0.0000000), wk =   0.0625000
        k(   30) = (   0.0000000  -0.8559001   0.0000000), wk =   0.0625000
        k(   31) = (   0.4941541  -0.2853000  -0.1026748), wk =   0.0625000
        k(   32) = (   0.0000000  -0.5706001   0.1026748), wk =   0.0625000
        k(   33) = (   0.7412312   0.4279500   0.3080244), wk =   0.0625000
        k(   34) = (   0.0000000   0.8559001  -0.3080244), wk =   0.0625000
        k(   35) = (   0.2470771   0.7132501  -0.2053496), wk =   0.0625000
        k(   36) = (  -0.7412312  -0.1426500  -0.2053496), wk =   0.0625000

                       cryst. coord.
        k(    1) = (   0.0000000   0.0000000   0.0000000), wk =   0.0312500
        k(    2) = (   0.0000000   0.0000000   0.2500000), wk =   0.0625000
        k(    3) = (   0.0000000   0.0000000  -0.5000000), wk =   0.0312500
        k(    4) = (   0.0000000   0.2500000   0.2500000), wk =   0.0625000
        k(    5) = (   0.0000000   0.2500000  -0.5000000), wk =   0.0625000
        k(    6) = (   0.0000000   0.2500000  -0.2500000), wk =   0.0625000
        k(    7) = (   0.0000000  -0.5000000  -0.5000000), wk =   0.0312500
        k(    8) = (   0.2500000   0.2500000   0.2500000), wk =   0.0625000
        k(    9) = (   0.2500000   0.2500000  -0.5000000), wk =   0.0625000
        k(   10) = (   0.2500000   0.2500000  -0.2500000), wk =   0.0625000
        k(   11) = (   0.2500000  -0.5000000  -0.5000000), wk =   0.0625000
        k(   12) = (   0.2500000  -0.5000000  -0.2500000), wk =   0.0625000
        k(   13) = (  -0.5000000  -0.5000000  -0.5000000), wk =   0.0312500
        k(   14) = (  -0.2500000   0.0000000   0.0000000), wk =   0.0625000
        k(   15) = (   0.0000000   0.2500000   0.0000000), wk =   0.0625000
        k(   16) = (   0.5000000   0.0000000   0.0000000), wk =   0.0312500
        k(   17) = (   0.0000000  -0.5000000   0.0000000), wk =   0.0312500
        k(   18) = (  -0.2500000  -0.2500000   0.0000000), wk =   0.0625000
        k(   19) = (   0.2500000   0.0000000   0.2500000), wk =   0.0625000
        k(   20) = (   0.5000000  -0.2500000   0.0000000), wk =   0.0625000
        k(   21) = (  -0.5000000   0.0000000   0.2500000), wk =   0.0625000
        k(   22) = (   0.2500000  -0.5000000   0.0000000), wk =   0.0625000
        k(   23) = (  -0.2500000   0.0000000   0.5000000), wk =   0.0625000
        k(   24) = (   0.0000000   0.5000000  -0.2500000), wk =   0.0625000
        k(   25) = (   0.2500000  -0.2500000   0.0000000), wk =   0.0625000
        k(   26) = (  -0.2500000   0.0000000   0.2500000), wk =   0.0625000
        k(   27) = (   0.5000000   0.5000000   0.0000000), wk =   0.0312500
        k(   28) = (  -0.5000000   0.0000000  -0.5000000), wk =   0.0312500
        k(   29) = (   0.5000000  -0.2500000  -0.2500000), wk =   0.0625000
        k(   30) = (   0.2500000  -0.5000000   0.2500000), wk =   0.0625000
        k(   31) = (   0.2500000  -0.2500000  -0.2500000), wk =   0.0625000
        k(   32) = (   0.2500000  -0.2500000   0.2500000), wk =   0.0625000
        k(   33) = (   0.5000000   0.5000000  -0.2500000), wk =   0.0625000
        k(   34) = (  -0.5000000   0.2500000  -0.5000000), wk =   0.0625000
        k(   35) = (  -0.2500000   0.2500000  -0.5000000), wk =   0.0625000
        k(   36) = (  -0.5000000  -0.2500000   0.2500000), wk =   0.0625000

     Dense  grid:    69617 G-vectors     FFT dimensions: (  60,  60,  60)

     Smooth grid:    17573 G-vectors     FFT dimensions: (  40,  40,  40)

     Largest allocated arrays     est. size (Mb)     dimensions
        Kohn-Sham Wavefunctions         0.79 Mb     (   1119,   46)
        Atomic wavefunctions            1.06 Mb     (   1119,   62)
        NL pseudopotentials             2.05 Mb     (   1119,  120)
        Each V/rho on FFT grid          1.65 Mb     ( 108000)
        Each G-vector array             0.27 Mb     (  34808)
        G-vector shells                 0.04 Mb     (   4682)
     Largest temporary arrays     est. size (Mb)     dimensions
        Auxiliary wavefunctions         3.14 Mb     (   1119,  184)
        Each subspace H/S matrix        0.52 Mb     ( 184, 184)
        Each <psi_i|beta_j> matrix      0.08 Mb     (    120,   46)
        Arrays for rho mixing          13.18 Mb     ( 108000,   8)

     Check: negative/imaginary core charge=   -0.000028    0.000000

     The initial density is read from file :
     /home/mcurnan/dft-course/Project1/example_LaCoO3/400/O/alpha/CoLaO_U400.save/charge-density.dat

 --- in v_hubbard ---
Hubbard energy    0.4427
 -------
     Number of +U iterations with fixed ns =  0
     Starting occupations:
 --- enter write_ns ---
 LDA+U parameters:
U( 1)     =  4.00000000
alpha( 1) =  0.00000000
U( 2)     =  0.00000000
alpha( 2) =  0.00000000
U( 3)     =  0.00000000
alpha( 3) =  0.15000000
U( 4)     =  0.00000000
alpha( 4) =  0.00000000
atom    1   Tr[ns(na)] =   8.02205
    eigenvalues: 
  0.596  0.596  0.938  0.941  0.941
    eigenvectors:
  0.000  0.000  1.000  0.000  0.000
  0.057  0.598  0.000  0.178  0.167
  0.598  0.057  0.000  0.167  0.178
  0.210  0.135  0.000  0.095  0.560
  0.135  0.210  0.000  0.560  0.095
    occupations:
  0.938  0.000  0.000  0.000  0.000
  0.000  0.715  0.000 -0.060  0.152
  0.000  0.000  0.715  0.152  0.060
  0.000 -0.060  0.152  0.822  0.000
  0.000  0.152  0.060  0.000  0.822
atom    2   Tr[ns(na)] =   8.02142
    eigenvalues: 
  0.595  0.595  0.938  0.941  0.941
    eigenvectors:
  0.000  0.000  1.000  0.000  0.000
  0.332  0.323  0.000  0.023  0.322
  0.323  0.332  0.000  0.322  0.023
  0.288  0.057  0.000  0.647  0.008
  0.057  0.288  0.000  0.008  0.647
    occupations:
  0.938  0.000  0.000  0.000  0.000
  0.000  0.715  0.000  0.060  0.153
  0.000  0.000  0.715  0.153 -0.060
  0.000  0.060  0.153  0.822  0.000
  0.000  0.153 -0.060  0.000  0.822
atom    3   Tr[ns(na)] =   3.80282
    eigenvalues: 
  0.355  0.355  0.384  0.403  0.403
    eigenvectors:
  0.000  0.000  1.000  0.000  0.000
  0.065  0.856  0.000  0.058  0.021
  0.856  0.065  0.000  0.021  0.058
  0.073  0.006  0.000  0.250  0.670
  0.006  0.073  0.000  0.670  0.250
    occupations:
  0.384  0.000  0.000  0.000  0.000
  0.000  0.359  0.000  0.000  0.013
  0.000  0.000  0.359  0.013  0.000
  0.000  0.000  0.013  0.399  0.000
  0.000  0.013  0.000  0.000  0.399
atom    4   Tr[ns(na)] =   3.80282
    eigenvalues: 
  0.355  0.355  0.384  0.403  0.403
    eigenvectors:
  0.000  0.000  1.000  0.000  0.000
  0.729  0.192  0.000  0.048  0.032
  0.192  0.729  0.000  0.032  0.048
  0.017  0.062  0.000  0.359  0.562
  0.062  0.017  0.000  0.562  0.359
    occupations:
  0.384  0.000  0.000  0.000  0.000
  0.000  0.359  0.000  0.000  0.013
  0.000  0.000  0.359  0.013  0.000
  0.000  0.000  0.013  0.399  0.000
  0.000  0.013  0.000  0.000  0.399
atom    5   Tr[ns(na)] =   5.43357
    eigenvalues: 
  0.846  0.929  0.941
    eigenvectors:
  0.340  0.000  0.660
  0.496  0.250  0.255
  0.164  0.750  0.086
    occupations:
  0.909 -0.039  0.022
 -0.039  0.891  0.022
  0.022  0.022  0.917
atom    6   Tr[ns(na)] =   5.43358
    eigenvalues: 
  0.846  0.929  0.941
    eigenvectors:
  0.340  0.000  0.660
  0.494  0.250  0.256
  0.166  0.750  0.085
    occupations:
  0.909  0.039  0.022
  0.039  0.891 -0.022
  0.022 -0.022  0.917
atom    7   Tr[ns(na)] =   5.43358
    eigenvalues: 
  0.846  0.929  0.941
    eigenvectors:
  0.340  0.000  0.660
  0.000  1.000  0.000
  0.660  0.000  0.340
    occupations:
  0.909  0.000 -0.045
  0.000  0.929  0.000
 -0.045  0.000  0.879
atom    8   Tr[ns(na)] =   5.43357
    eigenvalues: 
  0.846  0.929  0.941
    eigenvectors:
  0.340  0.000  0.660
  0.496  0.250  0.255
  0.164  0.750  0.086
    occupations:
  0.909 -0.039  0.022
 -0.039  0.891  0.022
  0.022  0.022  0.917
atom    9   Tr[ns(na)] =   5.43358
    eigenvalues: 
  0.846  0.929  0.941
    eigenvectors:
  0.340  0.000  0.660
  0.494  0.250  0.256
  0.166  0.750  0.085
    occupations:
  0.909  0.039  0.022
  0.039  0.891 -0.022
  0.022 -0.022  0.917
atom   10   Tr[ns(na)] =   5.43358
    eigenvalues: 
  0.846  0.929  0.941
    eigenvectors:
  0.340  0.000  0.660
  0.000  1.000  0.000
  0.660  0.000  0.340
    occupations:
  0.909  0.000 -0.045
  0.000  0.929  0.000
 -0.045  0.000  0.879
N of occupied +U levels =  56.2505796
 --- exit write_ns ---
 LDA+U Projector read from file 
     Starting wfc from file

     total cpu time spent up to now is        7.4 secs

     per-process dynamical memory:    62.8 Mb

     Self-consistent Calculation

     iteration #  1     ecut=    30.00 Ry     beta=0.20
     Davidson diagonalization with overlap
     c_bands:  1 eigenvalues not converged
     c_bands:  1 eigenvalues not converged
     c_bands:  1 eigenvalues not converged
     c_bands:  1 eigenvalues not converged
     c_bands:  1 eigenvalues not converged
     c_bands:  1 eigenvalues not converged
     c_bands:  1 eigenvalues not converged
     c_bands:  1 eigenvalues not converged
     c_bands:  1 eigenvalues not converged
     c_bands:  1 eigenvalues not converged
     c_bands:  1 eigenvalues not converged
     c_bands:  1 eigenvalues not converged
     c_bands:  1 eigenvalues not converged
     c_bands:  1 eigenvalues not converged
     c_bands:  1 eigenvalues not converged
     c_bands:  1 eigenvalues not converged
     c_bands:  1 eigenvalues not converged
     c_bands:  1 eigenvalues not converged
     c_bands:  1 eigenvalues not converged
     c_bands:  1 eigenvalues not converged
     c_bands:  1 eigenvalues not converged
     ethr =  1.00E-10,  avg # of iterations = 18.1
 --- enter write_ns ---
 LDA+U parameters:
U( 1)     =  4.00000000
alpha( 1) =  0.00000000
U( 2)     =  0.00000000
alpha( 2) =  0.00000000
U( 3)     =  0.00000000
alpha( 3) =  0.15000000
U( 4)     =  0.00000000
alpha( 4) =  0.00000000
atom    1   Tr[ns(na)] =   8.19589
    eigenvalues: 
  0.565  0.568  0.987  0.988  0.990
    eigenvectors:
  0.000  0.000  0.004  0.015  0.981
  0.099  0.555  0.226  0.115  0.005
  0.556  0.099  0.119  0.225  0.001
  0.179  0.167  0.043  0.605  0.007
  0.167  0.179  0.608  0.040  0.006
    occupations:
  0.990  0.000  0.000  0.000  0.000
  0.000  0.713 -0.001 -0.072  0.187
  0.000 -0.001  0.711  0.187  0.073
  0.000 -0.072  0.187  0.842 -0.001
  0.000  0.187  0.073 -0.001  0.842
atom    2   Tr[ns(na)] =   8.18749
    eigenvalues: 
  0.562  0.565  0.988  0.988  0.991
    eigenvectors:
  0.000  0.000  0.005  0.016  0.980
  0.238  0.417  0.003  0.338  0.005
  0.416  0.237  0.342  0.002  0.002
  0.319  0.027  0.604  0.049  0.001
  0.027  0.319  0.047  0.595  0.012
    occupations:
  0.991  0.000  0.000  0.000  0.000
  0.000  0.710 -0.001  0.072  0.188
  0.000 -0.001  0.710  0.189 -0.071
  0.000  0.072  0.189  0.841  0.000
  0.000  0.188 -0.071  0.000  0.842
atom    3   Tr[ns(na)] =   3.79723
    eigenvalues: 
  0.356  0.357  0.382  0.402  0.402
    eigenvectors:
  0.000  0.000  1.000  0.000  0.000
  0.691  0.230  0.000  0.019  0.060
  0.230  0.690  0.000  0.061  0.019
  0.020  0.060  0.000  0.693  0.227
  0.059  0.021  0.000  0.226  0.694
    occupations:
  0.382  0.000  0.000  0.000  0.000
  0.000  0.360  0.000  0.000  0.012
  0.000  0.000  0.360  0.012  0.000
  0.000  0.000  0.012  0.398  0.000
  0.000  0.012  0.000  0.000  0.398
atom    4   Tr[ns(na)] =   3.79711
    eigenvalues: 
  0.356  0.357  0.382  0.402  0.402
    eigenvectors:
  0.000  0.000  1.000  0.000  0.000
  0.232  0.682  0.000  0.020  0.066
  0.686  0.231  0.000  0.062  0.021
  0.060  0.023  0.000  0.685  0.231
  0.021  0.065  0.000  0.233  0.681
    occupations:
  0.382  0.000  0.000  0.000  0.000
  0.000  0.360  0.000  0.000  0.013
  0.000  0.000  0.360  0.013  0.000
  0.000  0.000  0.013  0.398  0.000
  0.000  0.013  0.000  0.000  0.398
atom    5   Tr[ns(na)] =   5.36701
    eigenvalues: 
  0.822  0.920  0.941
    eigenvectors:
  0.342  0.000  0.658
  0.494  0.250  0.256
  0.164  0.750  0.086
    occupations:
  0.900 -0.049  0.028
 -0.049  0.877  0.025
  0.028  0.025  0.906
atom    6   Tr[ns(na)] =   5.39542
    eigenvalues: 
  0.829  0.925  0.944
    eigenvectors:
  0.341  0.000  0.659
  0.494  0.251  0.255
  0.165  0.749  0.086
    occupations:
  0.905  0.047  0.027
  0.047  0.882 -0.025
  0.027 -0.025  0.910
atom    7   Tr[ns(na)] =   5.39543
    eigenvalues: 
  0.829  0.925  0.944
    eigenvectors:
  0.341  0.000  0.659
  0.000  1.000  0.000
  0.659  0.000  0.341
    occupations:
  0.905  0.000 -0.055
  0.000  0.925  0.000
 -0.055  0.000  0.868
atom    8   Tr[ns(na)] =   5.39535
    eigenvalues: 
  0.829  0.925  0.944
    eigenvectors:
  0.341  0.000  0.659
  0.495  0.250  0.255
  0.164  0.750  0.086
    occupations:
  0.905 -0.047  0.027
 -0.047  0.882  0.024
  0.027  0.024  0.911
atom    9   Tr[ns(na)] =   5.39534
    eigenvalues: 
  0.829  0.925  0.944
    eigenvectors:
  0.341  0.000  0.659
  0.494  0.251  0.255
  0.165  0.749  0.086
    occupations:
  0.905  0.047  0.027
  0.047  0.882 -0.025
  0.027 -0.025  0.911
atom   10   Tr[ns(na)] =   5.39535
    eigenvalues: 
  0.829  0.925  0.944
    eigenvectors:
  0.341  0.000  0.659
  0.000  1.000  0.000
  0.659  0.000  0.341
    occupations:
  0.905  0.000 -0.055
  0.000  0.925  0.000
 -0.055  0.000  0.868
N of occupied +U levels =  56.3216302
 --- exit write_ns ---
 --- in v_hubbard ---
Hubbard energy    0.4286
 -------

     total cpu time spent up to now is       99.4 secs

     total energy              =    -537.92641714 Ry
     Harris-Foulkes estimate   =    -537.93457820 Ry
     estimated scf accuracy    <       0.03948830 Ry

     iteration #  2     ecut=    30.00 Ry     beta=0.20
     Davidson diagonalization with overlap
     ethr =  5.20E-05,  avg # of iterations =  2.0
 --- enter write_ns ---
 LDA+U parameters:
U( 1)     =  4.00000000
alpha( 1) =  0.00000000
U( 2)     =  0.00000000
alpha( 2) =  0.00000000
U( 3)     =  0.00000000
alpha( 3) =  0.15000000
U( 4)     =  0.00000000
alpha( 4) =  0.00000000
atom    1   Tr[ns(na)] =   8.02519
    eigenvalues: 
  0.521  0.523  0.988  0.989  0.992
    eigenvectors:
  0.000  0.000  0.000  0.002  0.998
  0.099  0.556  0.140  0.205  0.001
  0.556  0.100  0.205  0.139  0.000
  0.176  0.169  0.154  0.501  0.001
  0.169  0.176  0.501  0.153  0.001
    occupations:
  0.992  0.000  0.000  0.000  0.000
  0.000  0.683  0.000 -0.081  0.206
  0.000  0.000  0.682  0.206  0.082
  0.000 -0.081  0.206  0.828  0.000
  0.000  0.206  0.082  0.000  0.828
atom    2   Tr[ns(na)] =   8.02927
    eigenvalues: 
  0.521  0.522  0.989  0.990  0.992
    eigenvectors:
  0.000  0.000  0.000  0.001  0.998
  0.238  0.417  0.039  0.305  0.000
  0.417  0.238  0.306  0.039  0.000
  0.319  0.025  0.655  0.001  0.000
  0.025  0.319  0.001  0.654  0.001
    occupations:
  0.992  0.000  0.000  0.000  0.000
  0.000  0.683 -0.001  0.081  0.207
  0.000 -0.001  0.683  0.207 -0.081
  0.000  0.081  0.207  0.828  0.000
  0.000  0.207 -0.081  0.000  0.829
atom    3   Tr[ns(na)] =   3.79245
    eigenvalues: 
  0.355  0.356  0.381  0.402  0.402
    eigenvectors:
  0.000  0.000  1.000  0.000  0.000
  0.699  0.222  0.000  0.027  0.052
  0.222  0.699  0.000  0.052  0.027
  0.020  0.059  0.000  0.604  0.317
  0.059  0.020  0.000  0.317  0.604
    occupations:
  0.381  0.000  0.000  0.000  0.000
  0.000  0.359  0.000  0.000  0.012
  0.000  0.000  0.359  0.012  0.000
  0.000  0.000  0.012  0.398  0.000
  0.000  0.012  0.000  0.000  0.398
atom    4   Tr[ns(na)] =   3.79256
    eigenvalues: 
  0.356  0.356  0.382  0.402  0.402
    eigenvectors:
  0.000  0.000  1.000  0.000  0.000
  0.257  0.662  0.000  0.021  0.060
  0.663  0.257  0.000  0.059  0.021
  0.056  0.023  0.000  0.675  0.245
  0.023  0.058  0.000  0.246  0.674
    occupations:
  0.382  0.000  0.000  0.000  0.000
  0.000  0.359  0.000  0.000  0.013
  0.000  0.000  0.359  0.012  0.000
  0.000  0.000  0.012  0.398  0.000
  0.000  0.013  0.000  0.000  0.398
atom    5   Tr[ns(na)] =   5.43661
    eigenvalues: 
  0.841  0.930  0.947
    eigenvectors:
  0.337  0.000  0.663
  0.497  0.252  0.252
  0.167  0.748  0.085
    occupations:
  0.911 -0.043  0.025
 -0.043  0.890  0.023
  0.025  0.023  0.917
atom    6   Tr[ns(na)] =   5.44463
    eigenvalues: 
  0.843  0.931  0.948
    eigenvectors:
  0.337  0.000  0.663
  0.498  0.249  0.252
  0.165  0.751  0.084
    occupations:
  0.913  0.043  0.025
  0.043  0.892 -0.023
  0.025 -0.023  0.918
atom    7   Tr[ns(na)] =   5.44464
    eigenvalues: 
  0.843  0.931  0.948
    eigenvectors:
  0.337  0.000  0.663
  0.000  1.000  0.000
  0.663  0.000  0.337
    occupations:
  0.913  0.000 -0.049
  0.000  0.931  0.000
 -0.049  0.000  0.878
atom    8   Tr[ns(na)] =   5.44348
    eigenvalues: 
  0.843  0.931  0.948
    eigenvectors:
  0.336  0.000  0.664
  0.497  0.252  0.252
  0.167  0.748  0.085
    occupations:
  0.912 -0.043  0.025
 -0.043  0.891  0.023
  0.025  0.023  0.918
atom    9   Tr[ns(na)] =   5.44486
    eigenvalues: 
  0.843  0.931  0.948
    eigenvectors:
  0.336  0.000  0.664
  0.499  0.249  0.252
  0.165  0.751  0.084
    occupations:
  0.913  0.043  0.025
  0.043  0.892 -0.023
  0.025 -0.023  0.918
atom   10   Tr[ns(na)] =   5.44486
    eigenvalues: 
  0.843  0.931  0.948
    eigenvectors:
  0.336  0.000  0.664
  0.000  1.000  0.000
  0.664  0.000  0.336
    occupations:
  0.913  0.000 -0.049
  0.000  0.931  0.000
 -0.049  0.000  0.878
N of occupied +U levels =  56.2985480
 --- exit write_ns ---
 --- in v_hubbard ---
Hubbard energy    0.4223
 -------

     total cpu time spent up to now is      127.4 secs

     total energy              =    -537.93378859 Ry
     Harris-Foulkes estimate   =    -537.93385417 Ry
     estimated scf accuracy    <       0.02393120 Ry

     iteration #  3     ecut=    30.00 Ry     beta=0.20
     Davidson diagonalization with overlap
     ethr =  3.15E-05,  avg # of iterations =  1.0
 --- enter write_ns ---
 LDA+U parameters:
U( 1)     =  4.00000000
alpha( 1) =  0.00000000
U( 2)     =  0.00000000
alpha( 2) =  0.00000000
U( 3)     =  0.00000000
alpha( 3) =  0.15000000
U( 4)     =  0.00000000
alpha( 4) =  0.00000000
atom    1   Tr[ns(na)] =   8.06615
    eigenvalues: 
  0.531  0.532  0.989  0.989  0.992
    eigenvectors:
  0.000  0.000  0.000  0.002  0.998
  0.100  0.556  0.149  0.195  0.001
  0.556  0.100  0.195  0.149  0.000
  0.175  0.169  0.139  0.516  0.001
  0.169  0.176  0.517  0.138  0.001
    occupations:
  0.992  0.000  0.000  0.000  0.000
  0.000  0.689  0.000 -0.079  0.202
  0.000  0.000  0.689  0.202  0.080
  0.000 -0.079  0.202  0.832  0.000
  0.000  0.202  0.080  0.000  0.831
atom    2   Tr[ns(na)] =   8.06150
    eigenvalues: 
  0.529  0.530  0.990  0.990  0.992
    eigenvectors:
  0.000  0.000  0.000  0.002  0.998
  0.238  0.418  0.033  0.310  0.001
  0.418  0.237  0.311  0.033  0.000
  0.319  0.025  0.654  0.002  0.000
  0.025  0.319  0.002  0.653  0.001
    occupations:
  0.992  0.000  0.000  0.000  0.000
  0.000  0.688 -0.001  0.080  0.203
  0.000 -0.001  0.688  0.204 -0.079
  0.000  0.080  0.204  0.831  0.000
  0.000  0.203 -0.079  0.000  0.832
atom    3   Tr[ns(na)] =   3.79274
    eigenvalues: 
  0.356  0.356  0.381  0.402  0.402
    eigenvectors:
  0.000  0.000  1.000  0.000  0.000
  0.697  0.224  0.000  0.021  0.058
  0.224  0.697  0.000  0.058  0.021
  0.020  0.059  0.000  0.675  0.246
  0.059  0.020  0.000  0.246  0.675
    occupations:
  0.381  0.000  0.000  0.000  0.000
  0.000  0.359  0.000  0.000  0.012
  0.000  0.000  0.359  0.012  0.000
  0.000  0.000  0.012  0.398  0.000
  0.000  0.012  0.000  0.000  0.398
atom    4   Tr[ns(na)] =   3.79278
    eigenvalues: 
  0.356  0.356  0.382  0.402  0.402
    eigenvectors:
  0.000  0.000  1.000  0.000  0.000
  0.259  0.661  0.000  0.019  0.061
  0.662  0.259  0.000  0.060  0.020
  0.056  0.023  0.000  0.691  0.229
  0.023  0.057  0.000  0.230  0.690
    occupations:
  0.382  0.000  0.000  0.000  0.000
  0.000  0.359  0.000  0.000  0.012
  0.000  0.000  0.359  0.012  0.000
  0.000  0.000  0.012  0.398  0.000
  0.000  0.012  0.000  0.000  0.398
atom    5   Tr[ns(na)] =   5.42427
    eigenvalues: 
  0.837  0.929  0.946
    eigenvectors:
  0.338  0.000  0.662
  0.497  0.251  0.253
  0.166  0.749  0.085
    occupations:
  0.910 -0.045  0.026
 -0.045  0.888  0.024
  0.026  0.024  0.915
atom    6   Tr[ns(na)] =   5.43337
    eigenvalues: 
  0.840  0.930  0.947
    eigenvectors:
  0.338  0.000  0.662
  0.496  0.251  0.253
  0.166  0.749  0.085
    occupations:
  0.911  0.044  0.025
  0.044  0.889 -0.023
  0.025 -0.023  0.916
atom    7   Tr[ns(na)] =   5.43337
    eigenvalues: 
  0.840  0.930  0.947
    eigenvectors:
  0.338  0.000  0.662
  0.000  1.000  0.000
  0.662  0.000  0.338
    occupations:
  0.911  0.000 -0.051
  0.000  0.930  0.000
 -0.051  0.000  0.876
atom    8   Tr[ns(na)] =   5.43240
    eigenvalues: 
  0.839  0.930  0.947
    eigenvectors:
  0.337  0.000  0.663
  0.497  0.251  0.253
  0.166  0.749  0.085
    occupations:
  0.911 -0.044  0.025
 -0.044  0.889  0.023
  0.025  0.023  0.916
atom    9   Tr[ns(na)] =   5.43351
    eigenvalues: 
  0.840  0.930  0.947
    eigenvectors:
  0.337  0.000  0.663
  0.498  0.250  0.253
  0.165  0.750  0.084
    occupations:
  0.911  0.044  0.025
  0.044  0.889 -0.023
  0.025 -0.023  0.916
atom   10   Tr[ns(na)] =   5.43351
    eigenvalues: 
  0.840  0.930  0.947
    eigenvectors:
  0.337  0.000  0.663
  0.000  1.000  0.000
  0.663  0.000  0.337
    occupations:
  0.911  0.000 -0.051
  0.000  0.930  0.000
 -0.051  0.000  0.876
N of occupied +U levels =  56.3036208
 --- exit write_ns ---
 --- in v_hubbard ---
Hubbard energy    0.3705
 -------

     total cpu time spent up to now is      149.8 secs

     total energy              =    -537.93771279 Ry
     Harris-Foulkes estimate   =    -537.93429937 Ry
     estimated scf accuracy    <       0.01129214 Ry

     iteration #  4     ecut=    30.00 Ry     beta=0.20
     Davidson diagonalization with overlap
     ethr =  1.49E-05,  avg # of iterations =  1.1
 --- enter write_ns ---
 LDA+U parameters:
U( 1)     =  4.00000000
alpha( 1) =  0.00000000
U( 2)     =  0.00000000
alpha( 2) =  0.00000000
U( 3)     =  0.00000000
alpha( 3) =  0.15000000
U( 4)     =  0.00000000
alpha( 4) =  0.00000000
atom    1   Tr[ns(na)] =   8.05543
    eigenvalues: 
  0.525  0.527  0.991  0.991  0.994
    eigenvectors:
  0.000  0.000  0.000  0.002  0.997
  0.101  0.558  0.153  0.188  0.001
  0.558  0.101  0.189  0.152  0.000
  0.173  0.168  0.132  0.526  0.001
  0.168  0.174  0.527  0.131  0.001
    occupations:
  0.994  0.000  0.000  0.000  0.000
  0.000  0.685  0.000 -0.080  0.205
  0.000  0.000  0.684  0.205  0.081
  0.000 -0.080  0.205  0.832  0.000
  0.000  0.205  0.081  0.000  0.832
atom    2   Tr[ns(na)] =   8.08559
    eigenvalues: 
  0.530  0.532  0.993  0.993  0.995
    eigenvectors:
  0.000  0.000  0.000  0.002  0.998
  0.240  0.419  0.029  0.312  0.000
  0.419  0.239  0.312  0.029  0.000
  0.317  0.025  0.654  0.004  0.000
  0.024  0.317  0.004  0.653  0.001
    occupations:
  0.995  0.000  0.000  0.000  0.000
  0.000  0.689 -0.001  0.081  0.203
  0.000 -0.001  0.689  0.204 -0.080
  0.000  0.081  0.204  0.835  0.000
  0.000  0.203 -0.080  0.000  0.835
atom    3   Tr[ns(na)] =   3.79772
    eigenvalues: 
  0.356  0.357  0.382  0.402  0.402
    eigenvectors:
  0.000  0.000  1.000  0.000  0.000
  0.693  0.230  0.000  0.015  0.062
  0.230  0.693  0.000  0.062  0.015
  0.020  0.058  0.000  0.738  0.184
  0.057  0.020  0.000  0.184  0.739
    occupations:
  0.382  0.000  0.000  0.000  0.000
  0.000  0.360  0.000  0.000  0.012
  0.000  0.000  0.360  0.012  0.000
  0.000  0.000  0.012  0.399  0.000
  0.000  0.012  0.000  0.000  0.399
atom    4   Tr[ns(na)] =   3.79772
    eigenvalues: 
  0.357  0.357  0.382  0.402  0.402
    eigenvectors:
  0.000  0.000  1.000  0.000  0.000
  0.242  0.679  0.000  0.017  0.062
  0.680  0.242  0.000  0.060  0.018
  0.057  0.021  0.000  0.711  0.211
  0.021  0.058  0.000  0.212  0.709
    occupations:
  0.382  0.000  0.000  0.000  0.000
  0.000  0.360  0.000  0.000  0.012
  0.000  0.000  0.360  0.012  0.000
  0.000  0.000  0.012  0.398  0.000
  0.000  0.012  0.000  0.000  0.398
atom    5   Tr[ns(na)] =   5.41777
    eigenvalues: 
  0.835  0.928  0.946
    eigenvectors:
  0.338  0.000  0.662
  0.492  0.255  0.252
  0.170  0.745  0.086
    occupations:
  0.908 -0.045  0.026
 -0.045  0.887  0.024
  0.026  0.024  0.914
atom    6   Tr[ns(na)] =   5.42851
    eigenvalues: 
  0.838  0.929  0.947
    eigenvectors:
  0.338  0.000  0.662
  0.500  0.246  0.253
  0.162  0.754  0.084
    occupations:
  0.910  0.045  0.025
  0.045  0.888 -0.023
  0.025 -0.023  0.916
atom    7   Tr[ns(na)] =   5.42852
    eigenvalues: 
  0.838  0.929  0.947
    eigenvectors:
  0.338  0.000  0.662
  0.000  1.000  0.000
  0.662  0.000  0.338
    occupations:
  0.910  0.000 -0.051
  0.000  0.929  0.000
 -0.051  0.000  0.875
atom    8   Tr[ns(na)] =   5.42873
    eigenvalues: 
  0.838  0.929  0.947
    eigenvectors:
  0.337  0.000  0.663
  0.493  0.255  0.252
  0.170  0.745  0.085
    occupations:
  0.910 -0.044  0.026
 -0.044  0.889  0.024
  0.026  0.024  0.915
atom    9   Tr[ns(na)] =   5.42835
    eigenvalues: 
  0.838  0.929  0.947
    eigenvectors:
  0.337  0.000  0.663
  0.501  0.245  0.253
  0.161  0.755  0.084
    occupations:
  0.910  0.045  0.025
  0.045  0.888 -0.023
  0.025 -0.023  0.916
atom   10   Tr[ns(na)] =   5.42834
    eigenvalues: 
  0.838  0.929  0.947
    eigenvectors:
  0.337  0.000  0.663
  0.000  1.000  0.000
  0.663  0.000  0.337
    occupations:
  0.910  0.000 -0.051
  0.000  0.929  0.000
 -0.051  0.000  0.875
N of occupied +U levels =  56.2966808
 --- exit write_ns ---
 --- in v_hubbard ---
Hubbard energy    0.3649
 -------

     total cpu time spent up to now is      173.4 secs

     total energy              =    -537.93841770 Ry
     Harris-Foulkes estimate   =    -537.93846996 Ry
     estimated scf accuracy    <       0.00120421 Ry

     iteration #  5     ecut=    30.00 Ry     beta=0.20
     Davidson diagonalization with overlap
     ethr =  1.58E-06,  avg # of iterations =  2.0
 --- enter write_ns ---
 LDA+U parameters:
U( 1)     =  4.00000000
alpha( 1) =  0.00000000
U( 2)     =  0.00000000
alpha( 2) =  0.00000000
U( 3)     =  0.00000000
alpha( 3) =  0.15000000
U( 4)     =  0.00000000
alpha( 4) =  0.00000000
atom    1   Tr[ns(na)] =   8.06604
    eigenvalues: 
  0.526  0.528  0.992  0.992  0.995
    eigenvectors:
  0.000  0.000  0.000  0.002  0.998
  0.100  0.558  0.157  0.184  0.001
  0.559  0.100  0.184  0.157  0.000
  0.173  0.168  0.123  0.535  0.001
  0.169  0.173  0.536  0.122  0.001
    occupations:
  0.995  0.000  0.000  0.000  0.000
  0.000  0.686  0.000 -0.081  0.205
  0.000  0.000  0.685  0.205  0.082
  0.000 -0.081  0.205  0.833  0.000
  0.000  0.205  0.082  0.000  0.833
atom    2   Tr[ns(na)] =   8.05799
    eigenvalues: 
  0.524  0.526  0.992  0.992  0.995
    eigenvectors:
  0.000  0.000  0.000  0.002  0.998
  0.239  0.420  0.029  0.312  0.000
  0.420  0.239  0.312  0.029  0.000
  0.317  0.025  0.654  0.004  0.000
  0.024  0.317  0.004  0.653  0.001
    occupations:
  0.995  0.000  0.000  0.000  0.000
  0.000  0.684 -0.001  0.082  0.206
  0.000 -0.001  0.684  0.207 -0.081
  0.000  0.082  0.207  0.832  0.000
  0.000  0.206 -0.081  0.000  0.833
atom    3   Tr[ns(na)] =   3.79812
    eigenvalues: 
  0.356  0.357  0.382  0.402  0.402
    eigenvectors:
  0.000  0.000  1.000  0.000  0.000
  0.693  0.230  0.000  0.016  0.061
  0.230  0.693  0.000  0.062  0.016
  0.020  0.058  0.000  0.726  0.197
  0.057  0.020  0.000  0.197  0.726
    occupations:
  0.382  0.000  0.000  0.000  0.000
  0.000  0.360  0.000  0.000  0.012
  0.000  0.000  0.360  0.012  0.000
  0.000  0.000  0.012  0.399  0.000
  0.000  0.012  0.000  0.000  0.399
atom    4   Tr[ns(na)] =   3.79808
    eigenvalues: 
  0.357  0.357  0.382  0.402  0.402
    eigenvectors:
  0.000  0.000  1.000  0.000  0.000
  0.243  0.678  0.000  0.018  0.061
  0.679  0.243  0.000  0.059  0.019
  0.057  0.022  0.000  0.697  0.225
  0.021  0.058  0.000  0.225  0.696
    occupations:
  0.382  0.000  0.000  0.000  0.000
  0.000  0.360  0.000  0.000  0.012
  0.000  0.000  0.360  0.012  0.000
  0.000  0.000  0.012  0.398  0.000
  0.000  0.012  0.000  0.000  0.398
atom    5   Tr[ns(na)] =   5.42056
    eigenvalues: 
  0.836  0.928  0.946
    eigenvectors:
  0.337  0.000  0.663
  0.497  0.250  0.253
  0.165  0.750  0.085
    occupations:
  0.909 -0.045  0.026
 -0.045  0.887  0.024
  0.026  0.024  0.914
atom    6   Tr[ns(na)] =   5.43069
    eigenvalues: 
  0.839  0.930  0.947
    eigenvectors:
  0.337  0.000  0.663
  0.496  0.251  0.252
  0.166  0.749  0.085
    occupations:
  0.910  0.044  0.026
  0.044  0.889 -0.024
  0.026 -0.024  0.916
atom    7   Tr[ns(na)] =   5.43069
    eigenvalues: 
  0.839  0.930  0.947
    eigenvectors:
  0.337  0.000  0.663
  0.000  1.000  0.000
  0.663  0.000  0.337
    occupations:
  0.910  0.000 -0.051
  0.000  0.930  0.000
 -0.051  0.000  0.875
atom    8   Tr[ns(na)] =   5.43055
    eigenvalues: 
  0.839  0.930  0.947
    eigenvectors:
  0.337  0.000  0.663
  0.497  0.250  0.252
  0.166  0.750  0.085
    occupations:
  0.910 -0.044  0.026
 -0.044  0.889  0.024
  0.026  0.024  0.916
atom    9   Tr[ns(na)] =   5.43063
    eigenvalues: 
  0.839  0.930  0.947
    eigenvectors:
  0.337  0.000  0.663
  0.497  0.250  0.252
  0.166  0.750  0.085
    occupations:
  0.910  0.044  0.026
  0.044  0.889 -0.024
  0.026 -0.024  0.916
atom   10   Tr[ns(na)] =   5.43063
    eigenvalues: 
  0.839  0.930  0.947
    eigenvectors:
  0.337  0.000  0.663
  0.000  1.000  0.000
  0.663  0.000  0.337
    occupations:
  0.910  0.000 -0.051
  0.000  0.930  0.000
 -0.051  0.000  0.875
N of occupied +U levels =  56.2939713
 --- exit write_ns ---
 --- in v_hubbard ---
Hubbard energy    0.3636
 -------

     total cpu time spent up to now is      199.2 secs

     total energy              =    -537.93861458 Ry
     Harris-Foulkes estimate   =    -537.93855142 Ry
     estimated scf accuracy    <       0.00020979 Ry

     iteration #  6     ecut=    30.00 Ry     beta=0.20
     Davidson diagonalization with overlap
     ethr =  2.76E-07,  avg # of iterations =  1.3
 --- enter write_ns ---
 LDA+U parameters:
U( 1)     =  4.00000000
alpha( 1) =  0.00000000
U( 2)     =  0.00000000
alpha( 2) =  0.00000000
U( 3)     =  0.00000000
alpha( 3) =  0.15000000
U( 4)     =  0.00000000
alpha( 4) =  0.00000000
atom    1   Tr[ns(na)] =   8.05499
    eigenvalues: 
  0.524  0.525  0.992  0.992  0.995
    eigenvectors:
  0.000  0.000  0.000  0.002  0.998
  0.100  0.559  0.154  0.187  0.001
  0.559  0.100  0.187  0.154  0.000
  0.173  0.168  0.127  0.531  0.001
  0.169  0.173  0.531  0.127  0.001
    occupations:
  0.995  0.000  0.000  0.000  0.000
  0.000  0.685  0.000 -0.082  0.206
  0.000  0.000  0.684  0.206  0.082
  0.000 -0.082  0.206  0.832  0.000
  0.000  0.206  0.082  0.000  0.832
atom    2   Tr[ns(na)] =   8.05310
    eigenvalues: 
  0.522  0.524  0.992  0.993  0.995
    eigenvectors:
  0.000  0.000  0.000  0.002  0.998
  0.239  0.419  0.030  0.310  0.000
  0.419  0.239  0.311  0.030  0.000
  0.317  0.024  0.655  0.004  0.000
  0.024  0.317  0.003  0.654  0.001
    occupations:
  0.995  0.000  0.000  0.000  0.000
  0.000  0.683 -0.001  0.082  0.207
  0.000 -0.001  0.683  0.207 -0.081
  0.000  0.082  0.207  0.832  0.000
  0.000  0.207 -0.081  0.000  0.833
atom    3   Tr[ns(na)] =   3.79724
    eigenvalues: 
  0.356  0.357  0.382  0.402  0.402
    eigenvectors:
  0.000  0.000  1.000  0.000  0.000
  0.692  0.231  0.000  0.018  0.060
  0.231  0.692  0.000  0.060  0.018
  0.020  0.058  0.000  0.702  0.220
  0.058  0.020  0.000  0.220  0.702
    occupations:
  0.382  0.000  0.000  0.000  0.000
  0.000  0.360  0.000  0.000  0.012
  0.000  0.000  0.360  0.012  0.000
  0.000  0.000  0.012  0.399  0.000
  0.000  0.012  0.000  0.000  0.399
atom    4   Tr[ns(na)] =   3.79720
    eigenvalues: 
  0.356  0.356  0.382  0.402  0.402
    eigenvectors:
  0.000  0.000  1.000  0.000  0.000
  0.242  0.679  0.000  0.019  0.060
  0.681  0.241  0.000  0.059  0.019
  0.057  0.021  0.000  0.690  0.232
  0.021  0.058  0.000  0.232  0.689
    occupations:
  0.382  0.000  0.000  0.000  0.000
  0.000  0.360  0.000  0.000  0.012
  0.000  0.000  0.360  0.012  0.000
  0.000  0.000  0.012  0.398  0.000
  0.000  0.012  0.000  0.000  0.398
atom    5   Tr[ns(na)] =   5.42376
    eigenvalues: 
  0.837  0.929  0.946
    eigenvectors:
  0.337  0.000  0.663
  0.496  0.251  0.252
  0.166  0.749  0.085
    occupations:
  0.909 -0.045  0.026
 -0.045  0.888  0.024
  0.026  0.024  0.915
atom    6   Tr[ns(na)] =   5.43318
    eigenvalues: 
  0.839  0.930  0.947
    eigenvectors:
  0.337  0.000  0.663
  0.497  0.250  0.253
  0.166  0.750  0.085
    occupations:
  0.911  0.044  0.025
  0.044  0.889 -0.023
  0.025 -0.023  0.916
atom    7   Tr[ns(na)] =   5.43318
    eigenvalues: 
  0.839  0.930  0.947
    eigenvectors:
  0.337  0.000  0.663
  0.000  1.000  0.000
  0.663  0.000  0.337
    occupations:
  0.911  0.000 -0.051
  0.000  0.930  0.000
 -0.051  0.000  0.876
atom    8   Tr[ns(na)] =   5.43260
    eigenvalues: 
  0.839  0.930  0.947
    eigenvectors:
  0.337  0.000  0.663
  0.497  0.251  0.252
  0.166  0.749  0.085
    occupations:
  0.911 -0.044  0.025
 -0.044  0.889  0.024
  0.025  0.024  0.916
atom    9   Tr[ns(na)] =   5.43325
    eigenvalues: 
  0.839  0.930  0.947
    eigenvectors:
  0.337  0.000  0.663
  0.498  0.249  0.252
  0.165  0.751  0.084
    occupations:
  0.911  0.044  0.025
  0.044  0.889 -0.023
  0.025 -0.023  0.917
atom   10   Tr[ns(na)] =   5.43325
    eigenvalues: 
  0.839  0.930  0.947
    eigenvectors:
  0.337  0.000  0.663
  0.000  1.000  0.000
  0.663  0.000  0.337
    occupations:
  0.911  0.000 -0.051
  0.000  0.930  0.000
 -0.051  0.000  0.876
N of occupied +U levels =  56.2917632
 --- exit write_ns ---
 --- in v_hubbard ---
Hubbard energy    0.3643
 -------

     total cpu time spent up to now is      223.3 secs

     total energy              =    -537.93869509 Ry
     Harris-Foulkes estimate   =    -537.93863619 Ry
     estimated scf accuracy    <       0.00005476 Ry

     iteration #  7     ecut=    30.00 Ry     beta=0.20
     Davidson diagonalization with overlap
     ethr =  7.21E-08,  avg # of iterations =  2.0
 --- enter write_ns ---
 LDA+U parameters:
U( 1)     =  4.00000000
alpha( 1) =  0.00000000
U( 2)     =  0.00000000
alpha( 2) =  0.00000000
U( 3)     =  0.00000000
alpha( 3) =  0.15000000
U( 4)     =  0.00000000
alpha( 4) =  0.00000000
atom    1   Tr[ns(na)] =   8.05391
    eigenvalues: 
  0.523  0.525  0.992  0.992  0.995
    eigenvectors:
  0.000  0.000  0.000  0.002  0.998
  0.099  0.559  0.150  0.191  0.001
  0.559  0.099  0.192  0.150  0.000
  0.173  0.168  0.133  0.524  0.001
  0.169  0.174  0.524  0.133  0.001
    occupations:
  0.995  0.000  0.000  0.000  0.000
  0.000  0.685  0.000 -0.082  0.206
  0.000  0.000  0.684  0.206  0.083
  0.000 -0.082  0.206  0.832  0.000
  0.000  0.206  0.083  0.000  0.832
atom    2   Tr[ns(na)] =   8.05127
    eigenvalues: 
  0.522  0.524  0.992  0.993  0.995
    eigenvectors:
  0.000  0.000  0.000  0.002  0.998
  0.240  0.419  0.034  0.307  0.000
  0.419  0.239  0.308  0.034  0.000
  0.317  0.025  0.656  0.002  0.000
  0.024  0.317  0.002  0.655  0.001
    occupations:
  0.995  0.000  0.000  0.000  0.000
  0.000  0.683 -0.001  0.082  0.207
  0.000 -0.001  0.683  0.207 -0.082
  0.000  0.082  0.207  0.832  0.000
  0.000  0.207 -0.082  0.000  0.832
atom    3   Tr[ns(na)] =   3.79421
    eigenvalues: 
  0.356  0.356  0.381  0.402  0.402
    eigenvectors:
  0.000  0.000  1.000  0.000  0.000
  0.691  0.231  0.000  0.014  0.064
  0.231  0.691  0.000  0.064  0.014
  0.020  0.058  0.000  0.749  0.173
  0.058  0.020  0.000  0.173  0.748
    occupations:
  0.381  0.000  0.000  0.000  0.000
  0.000  0.360  0.000  0.000  0.012
  0.000  0.000  0.360  0.012  0.000
  0.000  0.000  0.012  0.398  0.000
  0.000  0.012  0.000  0.000  0.398
atom    4   Tr[ns(na)] =   3.79417
    eigenvalues: 
  0.356  0.356  0.381  0.402  0.402
    eigenvectors:
  0.000  0.000  1.000  0.000  0.000
  0.254  0.666  0.000  0.019  0.061
  0.668  0.253  0.000  0.059  0.020
  0.056  0.023  0.000  0.690  0.231
  0.022  0.057  0.000  0.232  0.689
    occupations:
  0.381  0.000  0.000  0.000  0.000
  0.000  0.360  0.000  0.000  0.012
  0.000  0.000  0.360  0.012  0.000
  0.000  0.000  0.012  0.398  0.000
  0.000  0.012  0.000  0.000  0.398
atom    5   Tr[ns(na)] =   5.42483
    eigenvalues: 
  0.837  0.929  0.947
    eigenvectors:
  0.338  0.000  0.662
  0.496  0.251  0.253
  0.166  0.749  0.085
    occupations:
  0.910 -0.045  0.026
 -0.045  0.888  0.024
  0.026  0.024  0.915
atom    6   Tr[ns(na)] =   5.43429
    eigenvalues: 
  0.840  0.930  0.947
    eigenvectors:
  0.338  0.000  0.662
  0.497  0.250  0.253
  0.166  0.750  0.085
    occupations:
  0.911  0.044  0.025
  0.044  0.890 -0.023
  0.025 -0.023  0.917
atom    7   Tr[ns(na)] =   5.43429
    eigenvalues: 
  0.840  0.930  0.947
    eigenvectors:
  0.338  0.000  0.662
  0.000  1.000  0.000
  0.662  0.000  0.338
    occupations:
  0.911  0.000 -0.051
  0.000  0.930  0.000
 -0.051  0.000  0.876
atom    8   Tr[ns(na)] =   5.43338
    eigenvalues: 
  0.840  0.930  0.947
    eigenvectors:
  0.337  0.000  0.663
  0.497  0.251  0.252
  0.166  0.749  0.085
    occupations:
  0.911 -0.044  0.025
 -0.044  0.889  0.023
  0.025  0.023  0.916
atom    9   Tr[ns(na)] =   5.43439
    eigenvalues: 
  0.840  0.930  0.947
    eigenvectors:
  0.337  0.000  0.663
  0.498  0.250  0.253
  0.165  0.750  0.085
    occupations:
  0.911  0.044  0.025
  0.044  0.889 -0.023
  0.025 -0.023  0.917
atom   10   Tr[ns(na)] =   5.43439
    eigenvalues: 
  0.840  0.930  0.947
    eigenvectors:
  0.337  0.000  0.663
  0.000  1.000  0.000
  0.663  0.000  0.337
    occupations:
  0.911  0.000 -0.051
  0.000  0.930  0.000
 -0.051  0.000  0.876
N of occupied +U levels =  56.2891295
 --- exit write_ns ---
 --- in v_hubbard ---
Hubbard energy    0.3644
 -------

     total cpu time spent up to now is      250.2 secs

     total energy              =    -537.93876187 Ry
     Harris-Foulkes estimate   =    -537.93870407 Ry
     estimated scf accuracy    <       0.00001426 Ry

     iteration #  8     ecut=    30.00 Ry     beta=0.20
     Davidson diagonalization with overlap
     ethr =  1.88E-08,  avg # of iterations =  1.0
 --- enter write_ns ---
 LDA+U parameters:
U( 1)     =  4.00000000
alpha( 1) =  0.00000000
U( 2)     =  0.00000000
alpha( 2) =  0.00000000
U( 3)     =  0.00000000
alpha( 3) =  0.15000000
U( 4)     =  0.00000000
alpha( 4) =  0.00000000
atom    1   Tr[ns(na)] =   8.05493
    eigenvalues: 
  0.524  0.525  0.992  0.992  0.995
    eigenvectors:
  0.000  0.000  0.000  0.002  0.998
  0.099  0.559  0.150  0.191  0.001
  0.559  0.099  0.192  0.150  0.000
  0.173  0.168  0.133  0.524  0.001
  0.169  0.173  0.525  0.133  0.001
    occupations:
  0.995  0.000  0.000  0.000  0.000
  0.000  0.685  0.000 -0.082  0.206
  0.000  0.000  0.684  0.206  0.083
  0.000 -0.082  0.206  0.832  0.000
  0.000  0.206  0.083  0.000  0.832
atom    2   Tr[ns(na)] =   8.05238
    eigenvalues: 
  0.522  0.524  0.992  0.993  0.995
    eigenvectors:
  0.000  0.000  0.000  0.002  0.998
  0.240  0.419  0.034  0.307  0.000
  0.418  0.240  0.308  0.034  0.000
  0.317  0.025  0.656  0.002  0.000
  0.024  0.317  0.002  0.655  0.001
    occupations:
  0.995  0.000  0.000  0.000  0.000
  0.000  0.683 -0.001  0.082  0.207
  0.000 -0.001  0.683  0.207 -0.082
  0.000  0.082  0.207  0.832  0.000
  0.000  0.207 -0.082  0.000  0.832
atom    3   Tr[ns(na)] =   3.79503
    eigenvalues: 
  0.356  0.356  0.381  0.402  0.402
    eigenvectors:
  0.000  0.000  1.000  0.000  0.000
  0.691  0.231  0.000  0.014  0.064
  0.231  0.691  0.000  0.064  0.014
  0.020  0.058  0.000  0.751  0.171
  0.058  0.020  0.000  0.171  0.751
    occupations:
  0.381  0.000  0.000  0.000  0.000
  0.000  0.360  0.000  0.000  0.012
  0.000  0.000  0.360  0.012  0.000
  0.000  0.000  0.012  0.398  0.000
  0.000  0.012  0.000  0.000  0.398
atom    4   Tr[ns(na)] =   3.79499
    eigenvalues: 
  0.356  0.356  0.382  0.402  0.402
    eigenvectors:
  0.000  0.000  1.000  0.000  0.000
  0.249  0.672  0.000  0.019  0.060
  0.673  0.248  0.000  0.059  0.020
  0.057  0.022  0.000  0.689  0.232
  0.022  0.058  0.000  0.232  0.688
    occupations:
  0.382  0.000  0.000  0.000  0.000
  0.000  0.360  0.000  0.000  0.012
  0.000  0.000  0.360  0.012  0.000
  0.000  0.000  0.012  0.398  0.000
  0.000  0.012  0.000  0.000  0.398
atom    5   Tr[ns(na)] =   5.42430
    eigenvalues: 
  0.837  0.929  0.946
    eigenvectors:
  0.338  0.000  0.662
  0.496  0.251  0.253
  0.166  0.749  0.085
    occupations:
  0.910 -0.045  0.026
 -0.045  0.888  0.024
  0.026  0.024  0.915
atom    6   Tr[ns(na)] =   5.43375
    eigenvalues: 
  0.840  0.930  0.947
    eigenvectors:
  0.338  0.000  0.662
  0.497  0.250  0.253
  0.166  0.750  0.085
    occupations:
  0.911  0.044  0.025
  0.044  0.889 -0.023
  0.025 -0.023  0.917
atom    7   Tr[ns(na)] =   5.43375
    eigenvalues: 
  0.840  0.930  0.947
    eigenvectors:
  0.338  0.000  0.662
  0.000  1.000  0.000
  0.662  0.000  0.338
    occupations:
  0.911  0.000 -0.051
  0.000  0.930  0.000
 -0.051  0.000  0.876
atom    8   Tr[ns(na)] =   5.43304
    eigenvalues: 
  0.839  0.930  0.947
    eigenvectors:
  0.337  0.000  0.663
  0.497  0.251  0.252
  0.166  0.749  0.085
    occupations:
  0.911 -0.044  0.025
 -0.044  0.889  0.023
  0.025  0.023  0.916
atom    9   Tr[ns(na)] =   5.43383
    eigenvalues: 
  0.840  0.930  0.947
    eigenvectors:
  0.337  0.000  0.663
  0.498  0.250  0.253
  0.165  0.750  0.085
    occupations:
  0.911  0.044  0.025
  0.044  0.889 -0.023
  0.025 -0.023  0.917
atom   10   Tr[ns(na)] =   5.43383
    eigenvalues: 
  0.840  0.930  0.947
    eigenvectors:
  0.337  0.000  0.663
  0.000  1.000  0.000
  0.663  0.000  0.337
    occupations:
  0.911  0.000 -0.051
  0.000  0.930  0.000
 -0.051  0.000  0.876
N of occupied +U levels =  56.2898279
 --- exit write_ns ---
 --- in v_hubbard ---
Hubbard energy    0.3648
 -------

     total cpu time spent up to now is      272.6 secs

     total energy              =    -537.93879856 Ry
     Harris-Foulkes estimate   =    -537.93876283 Ry
     estimated scf accuracy    <       0.00000351 Ry

     iteration #  9     ecut=    30.00 Ry     beta=0.20
     Davidson diagonalization with overlap
     ethr =  4.61E-09,  avg # of iterations =  2.0
 --- enter write_ns ---
 LDA+U parameters:
U( 1)     =  4.00000000
alpha( 1) =  0.00000000
U( 2)     =  0.00000000
alpha( 2) =  0.00000000
U( 3)     =  0.00000000
alpha( 3) =  0.15000000
U( 4)     =  0.00000000
alpha( 4) =  0.00000000
atom    1   Tr[ns(na)] =   8.05493
    eigenvalues: 
  0.523  0.525  0.992  0.992  0.995
    eigenvectors:
  0.000  0.000  0.000  0.002  0.998
  0.099  0.559  0.150  0.192  0.001
  0.559  0.099  0.192  0.149  0.000
  0.173  0.168  0.134  0.524  0.001
  0.169  0.173  0.524  0.134  0.001
    occupations:
  0.995  0.000  0.000  0.000  0.000
  0.000  0.685  0.000 -0.082  0.206
  0.000  0.000  0.684  0.206  0.083
  0.000 -0.082  0.206  0.832  0.000
  0.000  0.206  0.083  0.000  0.832
atom    2   Tr[ns(na)] =   8.05234
    eigenvalues: 
  0.522  0.524  0.992  0.993  0.995
    eigenvectors:
  0.000  0.000  0.000  0.002  0.998
  0.240  0.418  0.034  0.307  0.000
  0.418  0.240  0.308  0.034  0.000
  0.317  0.024  0.656  0.002  0.000
  0.024  0.317  0.002  0.655  0.001
    occupations:
  0.995  0.000  0.000  0.000  0.000
  0.000  0.683 -0.001  0.082  0.207
  0.000 -0.001  0.683  0.207 -0.082
  0.000  0.082  0.207  0.832  0.000
  0.000  0.207 -0.082  0.000  0.832
atom    3   Tr[ns(na)] =   3.79573
    eigenvalues: 
  0.356  0.356  0.382  0.402  0.402
    eigenvectors:
  0.000  0.000  1.000  0.000  0.000
  0.692  0.230  0.000  0.015  0.063
  0.230  0.692  0.000  0.063  0.015
  0.020  0.058  0.000  0.740  0.181
  0.058  0.020  0.000  0.181  0.740
    occupations:
  0.382  0.000  0.000  0.000  0.000
  0.000  0.360  0.000  0.000  0.012
  0.000  0.000  0.360  0.012  0.000
  0.000  0.000  0.012  0.398  0.000
  0.000  0.012  0.000  0.000  0.398
atom    4   Tr[ns(na)] =   3.79569
    eigenvalues: 
  0.356  0.356  0.382  0.402  0.402
    eigenvectors:
  0.000  0.000  1.000  0.000  0.000
  0.252  0.668  0.000  0.019  0.060
  0.670  0.252  0.000  0.059  0.020
  0.056  0.023  0.000  0.689  0.233
  0.022  0.058  0.000  0.233  0.687
    occupations:
  0.382  0.000  0.000  0.000  0.000
  0.000  0.360  0.000  0.000  0.012
  0.000  0.000  0.360  0.012  0.000
  0.000  0.000  0.012  0.398  0.000
  0.000  0.012  0.000  0.000  0.398
atom    5   Tr[ns(na)] =   5.42409
    eigenvalues: 
  0.837  0.929  0.946
    eigenvectors:
  0.338  0.000  0.662
  0.496  0.251  0.253
  0.166  0.749  0.085
    occupations:
  0.909 -0.045  0.026
 -0.045  0.888  0.024
  0.026  0.024  0.915
atom    6   Tr[ns(na)] =   5.43357
    eigenvalues: 
  0.840  0.930  0.947
    eigenvectors:
  0.338  0.000  0.662
  0.497  0.250  0.253
  0.166  0.750  0.085
    occupations:
  0.911  0.044  0.025
  0.044  0.889 -0.023
  0.025 -0.023  0.916
atom    7   Tr[ns(na)] =   5.43357
    eigenvalues: 
  0.840  0.930  0.947
    eigenvectors:
  0.338  0.000  0.662
  0.000  1.000  0.000
  0.662  0.000  0.338
    occupations:
  0.911  0.000 -0.051
  0.000  0.930  0.000
 -0.051  0.000  0.876
atom    8   Tr[ns(na)] =   5.43292
    eigenvalues: 
  0.839  0.930  0.947
    eigenvectors:
  0.337  0.000  0.663
  0.497  0.251  0.252
  0.166  0.749  0.085
    occupations:
  0.911 -0.044  0.025
 -0.044  0.889  0.023
  0.025  0.023  0.916
atom    9   Tr[ns(na)] =   5.43364
    eigenvalues: 
  0.840  0.930  0.947
    eigenvectors:
  0.337  0.000  0.663
  0.498  0.250  0.253
  0.165  0.750  0.085
    occupations:
  0.911  0.044  0.025
  0.044  0.889 -0.023
  0.025 -0.023  0.917
atom   10   Tr[ns(na)] =   5.43363
    eigenvalues: 
  0.840  0.930  0.947
    eigenvectors:
  0.337  0.000  0.663
  0.000  1.000  0.000
  0.663  0.000  0.337
    occupations:
  0.911  0.000 -0.051
  0.000  0.930  0.000
 -0.051  0.000  0.876
N of occupied +U levels =  56.2901063
 --- exit write_ns ---
 --- in v_hubbard ---
Hubbard energy    0.3649
 -------

     total cpu time spent up to now is      299.4 secs

     total energy              =    -537.93882380 Ry
     Harris-Foulkes estimate   =    -537.93879904 Ry
     estimated scf accuracy    <       0.00000072 Ry

     iteration # 10     ecut=    30.00 Ry     beta=0.20
     Davidson diagonalization with overlap
     ethr =  9.53E-10,  avg # of iterations =  2.0
 --- enter write_ns ---
 LDA+U parameters:
U( 1)     =  4.00000000
alpha( 1) =  0.00000000
U( 2)     =  0.00000000
alpha( 2) =  0.00000000
U( 3)     =  0.00000000
alpha( 3) =  0.15000000
U( 4)     =  0.00000000
alpha( 4) =  0.00000000
atom    1   Tr[ns(na)] =   8.05540
    eigenvalues: 
  0.524  0.525  0.992  0.992  0.995
    eigenvectors:
  0.000  0.000  0.000  0.002  0.998
  0.099  0.559  0.150  0.191  0.001
  0.559  0.099  0.192  0.150  0.000
  0.173  0.168  0.133  0.524  0.001
  0.169  0.173  0.524  0.133  0.001
    occupations:
  0.995  0.000  0.000  0.000  0.000
  0.000  0.685  0.000 -0.082  0.206
  0.000  0.000  0.684  0.206  0.083
  0.000 -0.082  0.206  0.832  0.000
  0.000  0.206  0.083  0.000  0.832
atom    2   Tr[ns(na)] =   8.05292
    eigenvalues: 
  0.522  0.524  0.992  0.993  0.995
    eigenvectors:
  0.000  0.000  0.000  0.002  0.998
  0.240  0.418  0.034  0.307  0.000
  0.418  0.240  0.308  0.034  0.000
  0.317  0.024  0.656  0.002  0.000
  0.024  0.317  0.002  0.655  0.001
    occupations:
  0.995  0.000  0.000  0.000  0.000
  0.000  0.684 -0.001  0.082  0.207
  0.000 -0.001  0.683  0.207 -0.082
  0.000  0.082  0.207  0.832  0.000
  0.000  0.207 -0.082  0.000  0.832
atom    3   Tr[ns(na)] =   3.79556
    eigenvalues: 
  0.356  0.356  0.381  0.402  0.402
    eigenvectors:
  0.000  0.000  1.000  0.000  0.000
  0.692  0.230  0.000  0.015  0.063
  0.230  0.692  0.000  0.063  0.015
  0.020  0.058  0.000  0.733  0.189
  0.058  0.020  0.000  0.189  0.733
    occupations:
  0.381  0.000  0.000  0.000  0.000
  0.000  0.360  0.000  0.000  0.012
  0.000  0.000  0.360  0.012  0.000
  0.000  0.000  0.012  0.398  0.000
  0.000  0.012  0.000  0.000  0.398
atom    4   Tr[ns(na)] =   3.79552
    eigenvalues: 
  0.356  0.356  0.382  0.402  0.402
    eigenvectors:
  0.000  0.000  1.000  0.000  0.000
  0.253  0.668  0.000  0.019  0.060
  0.669  0.252  0.000  0.059  0.020
  0.056  0.023  0.000  0.688  0.233
  0.022  0.058  0.000  0.233  0.687
    occupations:
  0.382  0.000  0.000  0.000  0.000
  0.000  0.360  0.000  0.000  0.012
  0.000  0.000  0.360  0.012  0.000
  0.000  0.000  0.012  0.398  0.000
  0.000  0.012  0.000  0.000  0.398
atom    5   Tr[ns(na)] =   5.42395
    eigenvalues: 
  0.837  0.929  0.946
    eigenvectors:
  0.338  0.000  0.662
  0.496  0.251  0.253
  0.166  0.749  0.085
    occupations:
  0.909 -0.045  0.026
 -0.045  0.888  0.024
  0.026  0.024  0.915
atom    6   Tr[ns(na)] =   5.43345
    eigenvalues: 
  0.839  0.930  0.947
    eigenvectors:
  0.338  0.000  0.662
  0.497  0.250  0.253
  0.166  0.750  0.085
    occupations:
  0.911  0.044  0.025
  0.044  0.889 -0.023
  0.025 -0.023  0.916
atom    7   Tr[ns(na)] =   5.43345
    eigenvalues: 
  0.839  0.930  0.947
    eigenvectors:
  0.338  0.000  0.662
  0.000  1.000  0.000
  0.662  0.000  0.338
    occupations:
  0.911  0.000 -0.051
  0.000  0.930  0.000
 -0.051  0.000  0.876
atom    8   Tr[ns(na)] =   5.43275
    eigenvalues: 
  0.839  0.930  0.947
    eigenvectors:
  0.337  0.000  0.663
  0.497  0.251  0.252
  0.166  0.749  0.085
    occupations:
  0.911 -0.044  0.025
 -0.044  0.889  0.023
  0.025  0.023  0.916
atom    9   Tr[ns(na)] =   5.43352
    eigenvalues: 
  0.840  0.930  0.947
    eigenvectors:
  0.337  0.000  0.663
  0.498  0.250  0.253
  0.165  0.750  0.085
    occupations:
  0.911  0.044  0.025
  0.044  0.889 -0.023
  0.025 -0.023  0.917
atom   10   Tr[ns(na)] =   5.43352
    eigenvalues: 
  0.840  0.930  0.947
    eigenvectors:
  0.337  0.000  0.663
  0.000  1.000  0.000
  0.663  0.000  0.337
    occupations:
  0.911  0.000 -0.051
  0.000  0.930  0.000
 -0.051  0.000  0.876
N of occupied +U levels =  56.2900464
 --- exit write_ns ---
 --- in v_hubbard ---
Hubbard energy    0.3651
 -------

     total cpu time spent up to now is      326.4 secs

     total energy              =    -537.93883913 Ry
     Harris-Foulkes estimate   =    -537.93882393 Ry
     estimated scf accuracy    <       0.00000060 Ry

     iteration # 11     ecut=    30.00 Ry     beta=0.20
     Davidson diagonalization with overlap
     ethr =  7.86E-10,  avg # of iterations =  1.0
 --- enter write_ns ---
 LDA+U parameters:
U( 1)     =  4.00000000
alpha( 1) =  0.00000000
U( 2)     =  0.00000000
alpha( 2) =  0.00000000
U( 3)     =  0.00000000
alpha( 3) =  0.15000000
U( 4)     =  0.00000000
alpha( 4) =  0.00000000
atom    1   Tr[ns(na)] =   8.05489
    eigenvalues: 
  0.523  0.525  0.992  0.992  0.995
    eigenvectors:
  0.000  0.000  0.000  0.002  0.998
  0.099  0.559  0.150  0.192  0.001
  0.559  0.099  0.192  0.149  0.000
  0.173  0.169  0.134  0.524  0.001
  0.169  0.173  0.524  0.133  0.001
    occupations:
  0.995  0.000  0.000  0.000  0.000
  0.000  0.685  0.000 -0.082  0.206
  0.000  0.000  0.684  0.206  0.083
  0.000 -0.082  0.206  0.832  0.000
  0.000  0.206  0.083  0.000  0.832
atom    2   Tr[ns(na)] =   8.05230
    eigenvalues: 
  0.522  0.524  0.992  0.993  0.995
    eigenvectors:
  0.000  0.000  0.000  0.002  0.998
  0.240  0.418  0.034  0.307  0.000
  0.418  0.240  0.308  0.034  0.000
  0.317  0.024  0.656  0.002  0.000
  0.024  0.317  0.002  0.655  0.001
    occupations:
  0.995  0.000  0.000  0.000  0.000
  0.000  0.683 -0.001  0.083  0.207
  0.000 -0.001  0.683  0.207 -0.082
  0.000  0.083  0.207  0.832  0.000
  0.000  0.207 -0.082  0.000  0.832
atom    3   Tr[ns(na)] =   3.79554
    eigenvalues: 
  0.356  0.356  0.381  0.402  0.402
    eigenvectors:
  0.000  0.000  1.000  0.000  0.000
  0.692  0.230  0.000  0.015  0.063
  0.230  0.692  0.000  0.063  0.015
  0.020  0.058  0.000  0.733  0.189
  0.058  0.020  0.000  0.189  0.733
    occupations:
  0.381  0.000  0.000  0.000  0.000
  0.000  0.360  0.000  0.000  0.012
  0.000  0.000  0.360  0.012  0.000
  0.000  0.000  0.012  0.398  0.000
  0.000  0.012  0.000  0.000  0.398
atom    4   Tr[ns(na)] =   3.79550
    eigenvalues: 
  0.356  0.356  0.382  0.402  0.402
    eigenvectors:
  0.000  0.000  1.000  0.000  0.000
  0.252  0.669  0.000  0.019  0.060
  0.670  0.251  0.000  0.059  0.020
  0.056  0.022  0.000  0.689  0.232
  0.022  0.058  0.000  0.233  0.687
    occupations:
  0.382  0.000  0.000  0.000  0.000
  0.000  0.360  0.000  0.000  0.012
  0.000  0.000  0.360  0.012  0.000
  0.000  0.000  0.012  0.398  0.000
  0.000  0.012  0.000  0.000  0.398
atom    5   Tr[ns(na)] =   5.42413
    eigenvalues: 
  0.837  0.929  0.946
    eigenvectors:
  0.338  0.000  0.662
  0.496  0.251  0.253
  0.166  0.749  0.085
    occupations:
  0.909 -0.045  0.026
 -0.045  0.888  0.024
  0.026  0.024  0.915
atom    6   Tr[ns(na)] =   5.43362
    eigenvalues: 
  0.840  0.930  0.947
    eigenvectors:
  0.338  0.000  0.662
  0.497  0.250  0.253
  0.166  0.750  0.085
    occupations:
  0.911  0.044  0.025
  0.044  0.889 -0.023
  0.025 -0.023  0.917
atom    7   Tr[ns(na)] =   5.43362
    eigenvalues: 
  0.840  0.930  0.947
    eigenvectors:
  0.338  0.000  0.662
  0.000  1.000  0.000
  0.662  0.000  0.338
    occupations:
  0.911  0.000 -0.051
  0.000  0.930  0.000
 -0.051  0.000  0.876
atom    8   Tr[ns(na)] =   5.43293
    eigenvalues: 
  0.839  0.930  0.947
    eigenvectors:
  0.337  0.000  0.663
  0.497  0.251  0.252
  0.166  0.749  0.085
    occupations:
  0.911 -0.044  0.025
 -0.044  0.889  0.023
  0.025  0.023  0.916
atom    9   Tr[ns(na)] =   5.43369
    eigenvalues: 
  0.840  0.930  0.947
    eigenvectors:
  0.337  0.000  0.663
  0.498  0.250  0.252
  0.165  0.750  0.085
    occupations:
  0.911  0.044  0.025
  0.044  0.889 -0.023
  0.025 -0.023  0.917
atom   10   Tr[ns(na)] =   5.43369
    eigenvalues: 
  0.840  0.930  0.947
    eigenvectors:
  0.337  0.000  0.663
  0.000  1.000  0.000
  0.663  0.000  0.337
    occupations:
  0.911  0.000 -0.051
  0.000  0.930  0.000
 -0.051  0.000  0.876
N of occupied +U levels =  56.2899124
 --- exit write_ns ---
 --- in v_hubbard ---
Hubbard energy    0.3651
 -------

     total cpu time spent up to now is      350.0 secs

     total energy              =    -537.93884954 Ry
     Harris-Foulkes estimate   =    -537.93883925 Ry
     estimated scf accuracy    <       0.00000010 Ry

     iteration # 12     ecut=    30.00 Ry     beta=0.20
     Davidson diagonalization with overlap
     ethr =  1.29E-10,  avg # of iterations =  1.0
 --- enter write_ns ---
 LDA+U parameters:
U( 1)     =  4.00000000
alpha( 1) =  0.00000000
U( 2)     =  0.00000000
alpha( 2) =  0.00000000
U( 3)     =  0.00000000
alpha( 3) =  0.15000000
U( 4)     =  0.00000000
alpha( 4) =  0.00000000
atom    1   Tr[ns(na)] =   8.05502
    eigenvalues: 
  0.524  0.525  0.992  0.992  0.995
    eigenvectors:
  0.000  0.000  0.000  0.002  0.998
  0.099  0.559  0.149  0.192  0.001
  0.559  0.099  0.193  0.149  0.000
  0.173  0.169  0.134  0.524  0.001
  0.169  0.173  0.524  0.133  0.001
    occupations:
  0.995  0.000  0.000  0.000  0.000
  0.000  0.685  0.000 -0.082  0.206
  0.000  0.000  0.684  0.206  0.083
  0.000 -0.082  0.206  0.832  0.000
  0.000  0.206  0.083  0.000  0.832
atom    2   Tr[ns(na)] =   8.05246
    eigenvalues: 
  0.522  0.524  0.992  0.993  0.995
    eigenvectors:
  0.000  0.000  0.000  0.002  0.998
  0.240  0.418  0.034  0.307  0.000
  0.418  0.240  0.308  0.034  0.000
  0.317  0.024  0.656  0.002  0.000
  0.024  0.317  0.002  0.655  0.001
    occupations:
  0.995  0.000  0.000  0.000  0.000
  0.000  0.683 -0.001  0.083  0.207
  0.000 -0.001  0.683  0.207 -0.082
  0.000  0.083  0.207  0.832  0.000
  0.000  0.207 -0.082  0.000  0.832
atom    3   Tr[ns(na)] =   3.79559
    eigenvalues: 
  0.356  0.356  0.381  0.402  0.402
    eigenvectors:
  0.000  0.000  1.000  0.000  0.000
  0.692  0.230  0.000  0.015  0.063
  0.230  0.692  0.000  0.063  0.015
  0.020  0.058  0.000  0.735  0.187
  0.058  0.020  0.000  0.187  0.735
    occupations:
  0.381  0.000  0.000  0.000  0.000
  0.000  0.360  0.000  0.000  0.012
  0.000  0.000  0.360  0.012  0.000
  0.000  0.000  0.012  0.398  0.000
  0.000  0.012  0.000  0.000  0.398
atom    4   Tr[ns(na)] =   3.79555
    eigenvalues: 
  0.356  0.356  0.382  0.402  0.402
    eigenvectors:
  0.000  0.000  1.000  0.000  0.000
  0.252  0.669  0.000  0.019  0.060
  0.670  0.251  0.000  0.059  0.020
  0.056  0.022  0.000  0.689  0.232
  0.022  0.058  0.000  0.233  0.688
    occupations:
  0.382  0.000  0.000  0.000  0.000
  0.000  0.360  0.000  0.000  0.012
  0.000  0.000  0.360  0.012  0.000
  0.000  0.000  0.012  0.398  0.000
  0.000  0.012  0.000  0.000  0.398
atom    5   Tr[ns(na)] =   5.42408
    eigenvalues: 
  0.837  0.929  0.946
    eigenvectors:
  0.338  0.000  0.662
  0.496  0.251  0.253
  0.166  0.749  0.085
    occupations:
  0.909 -0.045  0.026
 -0.045  0.888  0.024
  0.026  0.024  0.915
atom    6   Tr[ns(na)] =   5.43356
    eigenvalues: 
  0.840  0.930  0.947
    eigenvectors:
  0.338  0.000  0.662
  0.497  0.250  0.253
  0.166  0.750  0.085
    occupations:
  0.911  0.044  0.025
  0.044  0.889 -0.023
  0.025 -0.023  0.917
atom    7   Tr[ns(na)] =   5.43356
    eigenvalues: 
  0.840  0.930  0.947
    eigenvectors:
  0.338  0.000  0.662
  0.000  1.000  0.000
  0.662  0.000  0.338
    occupations:
  0.911  0.000 -0.051
  0.000  0.930  0.000
 -0.051  0.000  0.876
atom    8   Tr[ns(na)] =   5.43288
    eigenvalues: 
  0.839  0.930  0.947
    eigenvectors:
  0.337  0.000  0.663
  0.497  0.251  0.252
  0.166  0.749  0.085
    occupations:
  0.911 -0.044  0.025
 -0.044  0.889  0.024
  0.025  0.024  0.916
atom    9   Tr[ns(na)] =   5.43363
    eigenvalues: 
  0.840  0.930  0.947
    eigenvectors:
  0.337  0.000  0.663
  0.498  0.250  0.252
  0.165  0.750  0.085
    occupations:
  0.911  0.044  0.025
  0.044  0.889 -0.023
  0.025 -0.023  0.917
atom   10   Tr[ns(na)] =   5.43363
    eigenvalues: 
  0.840  0.930  0.947
    eigenvectors:
  0.337  0.000  0.663
  0.000  1.000  0.000
  0.663  0.000  0.337
    occupations:
  0.911  0.000 -0.051
  0.000  0.930  0.000
 -0.051  0.000  0.876
N of occupied +U levels =  56.2899693
 --- exit write_ns ---
 --- in v_hubbard ---
Hubbard energy    0.3651
 -------

     total cpu time spent up to now is      372.2 secs

     total energy              =    -537.93885617 Ry
     Harris-Foulkes estimate   =    -537.93884955 Ry
     estimated scf accuracy    <       0.00000005 Ry

     iteration # 13     ecut=    30.00 Ry     beta=0.20
     Davidson diagonalization with overlap
     ethr =  6.58E-11,  avg # of iterations =  1.1
 --- enter write_ns ---
 LDA+U parameters:
U( 1)     =  4.00000000
alpha( 1) =  0.00000000
U( 2)     =  0.00000000
alpha( 2) =  0.00000000
U( 3)     =  0.00000000
alpha( 3) =  0.15000000
U( 4)     =  0.00000000
alpha( 4) =  0.00000000
atom    1   Tr[ns(na)] =   8.05500
    eigenvalues: 
  0.524  0.525  0.992  0.992  0.995
    eigenvectors:
  0.000  0.000  0.000  0.002  0.998
  0.099  0.559  0.149  0.193  0.001
  0.559  0.099  0.193  0.149  0.000
  0.173  0.169  0.135  0.523  0.001
  0.169  0.173  0.523  0.134  0.001
    occupations:
  0.995  0.000  0.000  0.000  0.000
  0.000  0.685  0.000 -0.082  0.206
  0.000  0.000  0.684  0.206  0.083
  0.000 -0.082  0.206  0.832  0.000
  0.000  0.206  0.083  0.000  0.832
atom    2   Tr[ns(na)] =   8.05244
    eigenvalues: 
  0.522  0.524  0.992  0.993  0.995
    eigenvectors:
  0.000  0.000  0.000  0.002  0.998
  0.240  0.418  0.035  0.307  0.000
  0.418  0.240  0.307  0.034  0.000
  0.318  0.024  0.656  0.002  0.000
  0.024  0.317  0.002  0.655  0.001
    occupations:
  0.995  0.000  0.000  0.000  0.000
  0.000  0.683 -0.001  0.083  0.207
  0.000 -0.001  0.683  0.207 -0.082
  0.000  0.083  0.207  0.832  0.000
  0.000  0.207 -0.082  0.000  0.832
atom    3   Tr[ns(na)] =   3.79561
    eigenvalues: 
  0.356  0.356  0.381  0.402  0.402
    eigenvectors:
  0.000  0.000  1.000  0.000  0.000
  0.692  0.230  0.000  0.015  0.063
  0.230  0.692  0.000  0.063  0.015
  0.020  0.058  0.000  0.737  0.185
  0.058  0.020  0.000  0.185  0.737
    occupations:
  0.381  0.000  0.000  0.000  0.000
  0.000  0.360  0.000  0.000  0.012
  0.000  0.000  0.360  0.012  0.000
  0.000  0.000  0.012  0.398  0.000
  0.000  0.012  0.000  0.000  0.398
atom    4   Tr[ns(na)] =   3.79557
    eigenvalues: 
  0.356  0.356  0.382  0.402  0.402
    eigenvectors:
  0.000  0.000  1.000  0.000  0.000
  0.252  0.668  0.000  0.019  0.060
  0.670  0.252  0.000  0.059  0.020
  0.056  0.022  0.000  0.689  0.232
  0.022  0.058  0.000  0.233  0.688
    occupations:
  0.382  0.000  0.000  0.000  0.000
  0.000  0.360  0.000  0.000  0.012
  0.000  0.000  0.360  0.012  0.000
  0.000  0.000  0.012  0.398  0.000
  0.000  0.012  0.000  0.000  0.398
atom    5   Tr[ns(na)] =   5.42408
    eigenvalues: 
  0.837  0.929  0.946
    eigenvectors:
  0.338  0.000  0.662
  0.496  0.251  0.253
  0.166  0.749  0.085
    occupations:
  0.909 -0.045  0.026
 -0.045  0.888  0.024
  0.026  0.024  0.915
atom    6   Tr[ns(na)] =   5.43356
    eigenvalues: 
  0.840  0.930  0.947
    eigenvectors:
  0.338  0.000  0.662
  0.497  0.250  0.253
  0.166  0.750  0.085
    occupations:
  0.911  0.044  0.025
  0.044  0.889 -0.023
  0.025 -0.023  0.917
atom    7   Tr[ns(na)] =   5.43357
    eigenvalues: 
  0.840  0.930  0.947
    eigenvectors:
  0.338  0.000  0.662
  0.000  1.000  0.000
  0.662  0.000  0.338
    occupations:
  0.911  0.000 -0.051
  0.000  0.930  0.000
 -0.051  0.000  0.876
atom    8   Tr[ns(na)] =   5.43289
    eigenvalues: 
  0.839  0.930  0.947
    eigenvectors:
  0.337  0.000  0.663
  0.497  0.251  0.252
  0.166  0.749  0.085
    occupations:
  0.911 -0.044  0.025
 -0.044  0.889  0.024
  0.025  0.024  0.916
atom    9   Tr[ns(na)] =   5.43364
    eigenvalues: 
  0.840  0.930  0.947
    eigenvectors:
  0.337  0.000  0.663
  0.498  0.250  0.252
  0.165  0.750  0.085
    occupations:
  0.911  0.044  0.025
  0.044  0.889 -0.023
  0.025 -0.023  0.917
atom   10   Tr[ns(na)] =   5.43364
    eigenvalues: 
  0.840  0.930  0.947
    eigenvectors:
  0.337  0.000  0.663
  0.000  1.000  0.000
  0.663  0.000  0.337
    occupations:
  0.911  0.000 -0.051
  0.000  0.930  0.000
 -0.051  0.000  0.876
N of occupied +U levels =  56.2899854
 --- exit write_ns ---
 --- in v_hubbard ---
Hubbard energy    0.3651
 -------

     total cpu time spent up to now is      395.1 secs

     End of self-consistent calculation

          k = 0.0000 0.0000 0.0000 (  2175 PWs)   bands (ev):

   -19.7924 -19.6188  -6.5579  -5.8851  -5.8542  -5.8316  -5.8200  -5.4912
    -3.8358  -3.2534  -3.2496  -3.2467  -3.0200  -3.0191   5.2034   6.7649
     6.7700   6.9035   6.9091   6.9184   7.5226   7.5395   7.7290   8.6831
     8.8878   8.8892   9.3099   9.6307   9.6443  10.0114  10.0165  10.2092
    10.4680  10.4726  10.6867  10.9866  10.9908  11.3485  11.9207  11.9231
    14.7363  14.7397  15.4291  15.4314  16.2001  16.7847

     occupation numbers 
     0.0313   0.0313   0.0313   0.0313   0.0313   0.0313   0.0313   0.0313
     0.0313   0.0313   0.0313   0.0313   0.0313   0.0313   0.0313   0.0313
     0.0313   0.0313   0.0313   0.0313   0.0313   0.0313   0.0313   0.0313
     0.0313   0.0313   0.0312   0.0312   0.0312   0.0312   0.0312   0.0312
     0.0312   0.0312   0.0312   0.0308   0.0308   0.0257   0.0045   0.0045
     0.0000   0.0000   0.0000   0.0000   0.0000   0.0000

          k =-0.2471-0.1427 0.1027 (  2181 PWs)   bands (ev):

   -19.7664 -19.6550  -6.7349  -6.3035  -5.9648  -5.8601  -5.6220  -5.4903
    -3.6245  -3.4037  -2.9390  -2.9051  -2.8616  -2.7622   5.5469   6.5425
     6.8006   6.8680   6.8713   6.9555   7.0021   7.4838   7.6052   8.0093
     8.0942   8.5451   9.5300   9.6498   9.7268   9.9518  10.0685  10.1172
    10.3318  10.3958  10.4244  11.0125  11.1166  11.1315  12.2950  12.3665
    14.2857  14.2946  15.8183  16.0706  16.9734  17.2669

     occupation numbers 
     0.0625   0.0625   0.0625   0.0625   0.0625   0.0625   0.0625   0.0625
     0.0625   0.0625   0.0625   0.0625   0.0625   0.0625   0.0625   0.0625
     0.0625   0.0625   0.0625   0.0625   0.0625   0.0625   0.0625   0.0625
     0.0625   0.0625   0.0625   0.0625   0.0625   0.0625   0.0625   0.0625
     0.0625   0.0625   0.0625   0.0613   0.0599   0.0596   0.0006   0.0003
     0.0000   0.0000   0.0000   0.0000   0.0000   0.0000

          k = 0.4942 0.2853-0.2053 (  2202 PWs)   bands (ev):

   -19.7170 -19.7151  -6.7405  -6.7128  -5.9837  -5.9612  -5.5416  -5.5206
    -3.3957  -3.3889  -2.7979  -2.7950  -2.5076  -2.5016   5.9166   5.9451
     6.8608   6.8774   7.0833   7.1156   7.2674   7.2986   7.3842   7.3908
     7.5676   7.5849   9.4123   9.4193   9.8473   9.8623  10.2508  10.2657
    10.3831  10.4107  10.5845  10.6040  10.8700  10.8979  13.2690  13.3130
    13.3538  13.3940  16.8343  16.8376  17.1294  17.1328

     occupation numbers 
     0.0313   0.0313   0.0313   0.0313   0.0313   0.0313   0.0313   0.0313
     0.0313   0.0313   0.0313   0.0313   0.0313   0.0313   0.0313   0.0313
     0.0313   0.0313   0.0313   0.0313   0.0313   0.0313   0.0313   0.0313
     0.0313   0.0313   0.0312   0.0312   0.0312   0.0312   0.0312   0.0312
     0.0312   0.0312   0.0312   0.0312   0.0311   0.0310   0.0000   0.0000
     0.0000   0.0000   0.0000   0.0000   0.0000   0.0000

          k =-0.2471 0.1427 0.2053 (  2195 PWs)   bands (ev):

   -19.7598 -19.6661  -6.8507  -6.2462  -6.0712  -5.8631  -5.6720  -5.4665
    -3.4322  -3.2655  -3.1086  -2.8990  -2.8284  -2.5564   5.5691   6.2552
     6.6081   6.7814   6.9596   7.2101   7.2418   7.4040   7.4825   8.0594
     8.1297   8.7456   8.8539   9.2992   9.8096   9.8848  10.0144  10.0480
    10.2657  10.6869  10.7926  10.8626  11.0278  11.0933  11.8489  12.7195
    13.6153  14.7543  15.9951  16.1963  17.0343  17.5382

     occupation numbers 
     0.0625   0.0625   0.0625   0.0625   0.0625   0.0625   0.0625   0.0625
     0.0625   0.0625   0.0625   0.0625   0.0625   0.0625   0.0625   0.0625
     0.0625   0.0625   0.0625   0.0625   0.0625   0.0625   0.0625   0.0625
     0.0625   0.0625   0.0625   0.0625   0.0625   0.0625   0.0625   0.0625
     0.0625   0.0625   0.0624   0.0622   0.0612   0.0603   0.0130   0.0000
     0.0000   0.0000   0.0000   0.0000   0.0000   0.0000

          k = 0.4942 0.5706-0.1027 (  2198 PWs)   bands (ev):

   -19.7285 -19.7074  -6.9506  -6.6554  -6.1264  -5.9189  -5.5310  -5.3858
    -3.3148  -3.2573  -2.8795  -2.7076  -2.5270  -2.3823   5.7859   6.0842
     6.2364   6.8134   7.0095   7.0533   7.1494   7.3956   7.4289   7.4641
     7.9734   8.3963   8.9024   9.2130   9.5230   9.7737   9.8203  10.1950
    10.3170  10.6088  10.6925  10.7730  10.9281  11.0857  12.2874  12.7210
    13.4125  14.3345  16.9049  17.1143  17.3078  18.0160

     occupation numbers 
     0.0625   0.0625   0.0625   0.0625   0.0625   0.0625   0.0625   0.0625
     0.0625   0.0625   0.0625   0.0625   0.0625   0.0625   0.0625   0.0625
     0.0625   0.0625   0.0625   0.0625   0.0625   0.0625   0.0625   0.0625
     0.0625   0.0625   0.0625   0.0625   0.0625   0.0625   0.0625   0.0625
     0.0625   0.0625   0.0625   0.0624   0.0620   0.0604   0.0006   0.0000
     0.0000   0.0000   0.0000   0.0000   0.0000   0.0000

          k = 0.2471 0.4280 0.0000 (  2203 PWs)   bands (ev):

   -19.7396 -19.6918  -6.8581  -6.6374  -6.0790  -5.9762  -5.4414  -5.3859
    -3.5397  -3.2951  -2.7991  -2.7120  -2.5747  -2.5609   5.8585   6.0622
     6.5510   6.8646   6.9085   6.9691   7.2380   7.2912   7.3553   7.5827
     7.7175   8.6471   8.9178   9.3681   9.7294   9.7525  10.0276  10.3272
    10.3881  10.4538  10.6803  10.7221  10.7303  11.1699  12.1988  13.2986
    13.3782  14.1341  16.4355  16.9928  17.4188  17.9270

     occupation numbers 
     0.0625   0.0625   0.0625   0.0625   0.0625   0.0625   0.0625   0.0625
     0.0625   0.0625   0.0625   0.0625   0.0625   0.0625   0.0625   0.0625
     0.0625   0.0625   0.0625   0.0625   0.0625   0.0625   0.0625   0.0625
     0.0625   0.0625   0.0625   0.0625   0.0625   0.0625   0.0625   0.0625
     0.0625   0.0625   0.0625   0.0624   0.0624   0.0586   0.0013   0.0000
     0.0000   0.0000   0.0000   0.0000   0.0000   0.0000

          k = 0.4942-0.2853-0.4107 (  2202 PWs)   bands (ev):

   -19.7266 -19.7130  -7.1597  -6.4529  -6.2309  -6.0030  -5.5526  -5.2935
    -3.2026  -3.1134  -3.0514  -2.6434  -2.4764  -2.2184   5.6093   5.7502
     6.1076   6.7611   7.0484   7.1513   7.2589   7.3108   7.7024   7.7141
     8.1783   8.3413   8.6045   8.9137   9.4496   9.6944  10.0462  10.0708
    10.3867  10.4890  10.6730  10.8130  10.9363  11.2152  11.7991  12.3944
    13.3161  14.7689  17.0435  17.2672  17.5174  17.6121

     occupation numbers 
     0.0313   0.0313   0.0313   0.0313   0.0313   0.0313   0.0313   0.0313
     0.0313   0.0313   0.0313   0.0313   0.0313   0.0313   0.0313   0.0313
     0.0313   0.0313   0.0313   0.0313   0.0313   0.0313   0.0313   0.0313
     0.0313   0.0313   0.0313   0.0313   0.0312   0.0312   0.0312   0.0312
     0.0312   0.0312   0.0312   0.0312   0.0310   0.0286   0.0082   0.0001
     0.0000   0.0000   0.0000   0.0000   0.0000   0.0000

          k = 0.0000 0.0000 0.3080 (  2187 PWs)   bands (ev):

   -19.7661 -19.6564  -6.6233  -6.0016  -5.9552  -5.9377  -5.8563  -5.8400
    -3.2174  -3.1378  -3.1341  -2.9687  -2.8970  -2.8940   5.6231   6.5990
[...]
     0.0625   0.0625   0.0625   0.0625   0.0625   0.0625   0.0625   0.0625
     0.0625   0.0625   0.0625   0.0625   0.0625   0.0625   0.0625   0.0625
     0.0625   0.0625   0.0624   0.0623   0.0612   0.0602   0.0130   0.0000
     0.0000   0.0000   0.0000   0.0000   0.0000   0.0000

          k = 0.4942-0.5706 0.1027 (  2198 PWs)   bands (ev):

   -19.7273 -19.7067  -6.9663  -6.6500  -6.1410  -5.8893  -5.5216  -5.4000
    -3.3169  -3.2578  -2.8774  -2.7108  -2.5290  -2.3856   5.7998   6.0912
     6.2321   6.8229   7.0075   7.0591   7.1529   7.3956   7.4294   7.4673
     7.9502   8.4042   8.8941   9.2072   9.5290   9.7657   9.8215  10.1965
    10.3273  10.5932  10.7046  10.7817  10.9320  11.0647  12.2881  12.7220
    13.4074  14.3368  16.9068  17.1143  17.3092  18.0167

     occupation numbers 
     0.0625   0.0625   0.0625   0.0625   0.0625   0.0625   0.0625   0.0625
     0.0625   0.0625   0.0625   0.0625   0.0625   0.0625   0.0625   0.0625
     0.0625   0.0625   0.0625   0.0625   0.0625   0.0625   0.0625   0.0625
     0.0625   0.0625   0.0625   0.0625   0.0625   0.0625   0.0625   0.0625
     0.0625   0.0625   0.0624   0.0624   0.0619   0.0607   0.0006   0.0000
     0.0000   0.0000   0.0000   0.0000   0.0000   0.0000

          k =-0.7412 0.1427-0.1027 (  2198 PWs)   bands (ev):

   -19.7273 -19.7067  -6.9659  -6.6508  -6.1400  -5.8904  -5.5206  -5.4006
    -3.3162  -3.2579  -2.8773  -2.7118  -2.5283  -2.3860   5.8031   6.0830
     6.2387   6.8206   7.0112   7.0593   7.1420   7.4057   7.4370   7.4611
     7.9454   8.4023   8.8956   9.2076   9.5315   9.7661   9.8214  10.1971
    10.3247  10.5995  10.7001  10.7834  10.9231  11.0700  12.2882  12.7223
    13.4076  14.3371  16.9049  17.1172  17.3086  18.0163

     occupation numbers 
     0.0625   0.0625   0.0625   0.0625   0.0625   0.0625   0.0625   0.0625
     0.0625   0.0625   0.0625   0.0625   0.0625   0.0625   0.0625   0.0625
     0.0625   0.0625   0.0625   0.0625   0.0625   0.0625   0.0625   0.0625
     0.0625   0.0625   0.0625   0.0625   0.0625   0.0625   0.0625   0.0625
     0.0625   0.0625   0.0625   0.0624   0.0620   0.0607   0.0006   0.0000
     0.0000   0.0000   0.0000   0.0000   0.0000   0.0000

          k = 0.2471-0.7133-0.1027 (  2198 PWs)   bands (ev):

   -19.7273 -19.7067  -6.9663  -6.6501  -6.1415  -5.8889  -5.5194  -5.4024
    -3.3160  -3.2577  -2.8778  -2.7104  -2.5286  -2.3864   5.8026   6.0824
     6.2369   6.8212   7.0162   7.0501   7.1487   7.4114   7.4312   7.4589
     7.9467   8.4035   8.8995   9.2059   9.5255   9.7727   9.8164  10.1991
    10.3266  10.6036  10.6941  10.7707  10.9339  11.0720  12.2881  12.7224
    13.4076  14.3371  16.9071  17.1139  17.3085  18.0148

     occupation numbers 
     0.0625   0.0625   0.0625   0.0625   0.0625   0.0625   0.0625   0.0625
     0.0625   0.0625   0.0625   0.0625   0.0625   0.0625   0.0625   0.0625
     0.0625   0.0625   0.0625   0.0625   0.0625   0.0625   0.0625   0.0625
     0.0625   0.0625   0.0625   0.0625   0.0625   0.0625   0.0625   0.0625
     0.0625   0.0625   0.0625   0.0624   0.0619   0.0606   0.0006   0.0000
     0.0000   0.0000   0.0000   0.0000   0.0000   0.0000

          k =-0.7412-0.1427 0.1027 (  2198 PWs)   bands (ev):

   -19.7273 -19.7067  -6.9667  -6.6493  -6.1424  -5.8878  -5.5204  -5.4018
    -3.3168  -3.2576  -2.8780  -2.7094  -2.5291  -2.3861   5.7993   6.0905
     6.2303   6.8239   7.0120   7.0500   7.1598   7.3991   7.4242   7.4668
     7.9515   8.4052   8.8979   9.2057   9.5231   9.7723   9.8165  10.1983
    10.3293  10.5974  10.6986  10.7693  10.9425  11.0667  12.2879  12.7221
    13.4075  14.3368  16.9089  17.1110  17.3090  18.0154

     occupation numbers 
     0.0625   0.0625   0.0625   0.0625   0.0625   0.0625   0.0625   0.0625
     0.0625   0.0625   0.0625   0.0625   0.0625   0.0625   0.0625   0.0625
     0.0625   0.0625   0.0625   0.0625   0.0625   0.0625   0.0625   0.0625
     0.0625   0.0625   0.0625   0.0625   0.0625   0.0625   0.0625   0.0625
     0.0625   0.0625   0.0625   0.0624   0.0619   0.0607   0.0006   0.0000
     0.0000   0.0000   0.0000   0.0000   0.0000   0.0000

          k = 0.2471 0.7133 0.1027 (  2198 PWs)   bands (ev):

   -19.7285 -19.7074  -6.9510  -6.6546  -6.1275  -5.9177  -5.5320  -5.3852
    -3.3155  -3.2572  -2.8796  -2.7066  -2.5276  -2.3819   5.7828   6.0917
     6.2304   6.8161   7.0063   7.0520   7.1608   7.3854   7.4196   7.4720
     7.9781   8.3981   8.9008   9.2128   9.5205   9.7730   9.8205  10.1944
    10.3197  10.6024  10.6967  10.7715  10.9370  11.0806  12.2873  12.7207
    13.4124  14.3342  16.9067  17.1114  17.3084  18.0162

     occupation numbers 
     0.0625   0.0625   0.0625   0.0625   0.0625   0.0625   0.0625   0.0625
     0.0625   0.0625   0.0625   0.0625   0.0625   0.0625   0.0625   0.0625
     0.0625   0.0625   0.0625   0.0625   0.0625   0.0625   0.0625   0.0625
     0.0625   0.0625   0.0625   0.0625   0.0625   0.0625   0.0625   0.0625
     0.0625   0.0625   0.0625   0.0624   0.0619   0.0605   0.0006   0.0000
     0.0000   0.0000   0.0000   0.0000   0.0000   0.0000

          k = 0.2471-0.4280 0.0000 (  2203 PWs)   bands (ev):

   -19.7398 -19.6916  -6.8511  -6.6518  -6.0490  -5.9929  -5.4570  -5.3761
    -3.5420  -3.2951  -2.8022  -2.7053  -2.5731  -2.5637   5.8427   6.0634
     6.5524   6.8649   6.9189   6.9682   7.2488   7.3028   7.3435   7.5942
     7.7272   8.6326   8.9001   9.3417   9.7338   9.7623  10.0280  10.3328
    10.3934  10.4602  10.6842  10.7220  10.7377  11.1551  12.2002  13.3005
    13.3805  14.1299  16.4346  16.9957  17.4220  17.9270

     occupation numbers 
     0.0625   0.0625   0.0625   0.0625   0.0625   0.0625   0.0625   0.0625
     0.0625   0.0625   0.0625   0.0625   0.0625   0.0625   0.0625   0.0625
     0.0625   0.0625   0.0625   0.0625   0.0625   0.0625   0.0625   0.0625
     0.0625   0.0625   0.0625   0.0625   0.0625   0.0625   0.0625   0.0625
     0.0625   0.0625   0.0625   0.0624   0.0624   0.0590   0.0013   0.0000
     0.0000   0.0000   0.0000   0.0000   0.0000   0.0000

          k =-0.4942 0.0000 0.0000 (  2203 PWs)   bands (ev):

   -19.7398 -19.6916  -6.8511  -6.6519  -6.0489  -5.9929  -5.4570  -5.3761
    -3.5420  -3.2951  -2.8022  -2.7053  -2.5728  -2.5640   5.8427   6.0634
     6.5525   6.8640   6.9194   6.9678   7.2496   7.3033   7.3437   7.5936
     7.7270   8.6326   8.9001   9.3416   9.7349   9.7611  10.0282  10.3336
    10.3924  10.4599  10.6830  10.7227  10.7387  11.1550  12.2002  13.3005
    13.3806  14.1299  16.4346  16.9957  17.4220  17.9263

     occupation numbers 
     0.0625   0.0625   0.0625   0.0625   0.0625   0.0625   0.0625   0.0625
     0.0625   0.0625   0.0625   0.0625   0.0625   0.0625   0.0625   0.0625
     0.0625   0.0625   0.0625   0.0625   0.0625   0.0625   0.0625   0.0625
     0.0625   0.0625   0.0625   0.0625   0.0625   0.0625   0.0625   0.0625
     0.0625   0.0625   0.0625   0.0624   0.0624   0.0590   0.0013   0.0000
     0.0000   0.0000   0.0000   0.0000   0.0000   0.0000

          k = 0.4942 0.2853 0.4107 (  2202 PWs)   bands (ev):

   -19.7244 -19.7115  -7.1773  -6.4595  -6.2478  -5.9655  -5.5314  -5.3116
    -3.2037  -3.1147  -3.0520  -2.6495  -2.4800  -2.2232   5.6293   5.7741
     6.0848   6.7672   7.0595   7.1715   7.2814   7.3132   7.6858   7.6977
     8.1800   8.3084   8.6306   8.9156   9.4187   9.6877  10.0431  10.0805
    10.3969  10.4928  10.6669  10.8208  10.9360  11.1985  11.7991  12.3966
    13.3100  14.7715  17.0452  17.2682  17.5209  17.6148

     occupation numbers 
     0.0313   0.0313   0.0313   0.0313   0.0313   0.0313   0.0313   0.0313
     0.0313   0.0313   0.0313   0.0313   0.0313   0.0313   0.0313   0.0313
     0.0313   0.0313   0.0313   0.0313   0.0313   0.0313   0.0313   0.0313
     0.0313   0.0313   0.0313   0.0313   0.0312   0.0312   0.0312   0.0312
     0.0312   0.0312   0.0312   0.0312   0.0310   0.0289   0.0082   0.0001
     0.0000   0.0000   0.0000   0.0000   0.0000   0.0000

          k = 0.0000 0.5706-0.4107 (  2202 PWs)   bands (ev):

   -19.7244 -19.7115  -7.1773  -6.4597  -6.2477  -5.9655  -5.5315  -5.3116
    -3.2037  -3.1147  -3.0520  -2.6495  -2.4800  -2.2232   5.6293   5.7741
     6.0849   6.7672   7.0591   7.1715   7.2814   7.3135   7.6860   7.6974
     8.1803   8.3080   8.6307   8.9156   9.4188   9.6877  10.0433  10.0803
    10.3967  10.4930  10.6677  10.8192  10.9368  11.1985  11.7991  12.3966
    13.3100  14.7715  17.0452  17.2682  17.5209  17.6148

     occupation numbers 
     0.0313   0.0313   0.0313   0.0313   0.0313   0.0313   0.0313   0.0313
     0.0313   0.0313   0.0313   0.0313   0.0313   0.0313   0.0313   0.0313
     0.0313   0.0313   0.0313   0.0313   0.0313   0.0313   0.0313   0.0313
     0.0313   0.0313   0.0313   0.0313   0.0312   0.0312   0.0312   0.0312
     0.0312   0.0312   0.0312   0.0312   0.0310   0.0289   0.0082   0.0001
     0.0000   0.0000   0.0000   0.0000   0.0000   0.0000

          k = 0.7412-0.4280 0.0000 (  2204 PWs)   bands (ev):

   -19.7389 -19.6935  -6.7440  -6.6024  -6.1553  -5.8449  -5.7022  -5.5478
    -3.1890  -3.0958  -3.0436  -2.6799  -2.6620  -2.5829   5.9000   6.3299
     6.3877   6.8994   6.9689   7.1036   7.1589   7.2789   7.3899   7.5274
     7.8485   8.4939   8.9156   9.4597   9.5056   9.6781   9.8378  10.2216
    10.4119  10.5559  10.6965  10.8007  10.8657  10.9267  12.1978  13.2195
    13.2941  14.1619  16.6887  16.7251  17.5899  17.7950

     occupation numbers 
     0.0625   0.0625   0.0625   0.0625   0.0625   0.0625   0.0625   0.0625
     0.0625   0.0625   0.0625   0.0625   0.0625   0.0625   0.0625   0.0625
     0.0625   0.0625   0.0625   0.0625   0.0625   0.0625   0.0625   0.0625
     0.0625   0.0625   0.0625   0.0625   0.0625   0.0625   0.0625   0.0625
     0.0625   0.0625   0.0625   0.0623   0.0622   0.0620   0.0014   0.0000
     0.0000   0.0000   0.0000   0.0000   0.0000   0.0000

          k = 0.0000-0.8559 0.0000 (  2204 PWs)   bands (ev):

   -19.7390 -19.6934  -6.7373  -6.6152  -6.1473  -5.8386  -5.6970  -5.5621
    -3.1910  -3.0955  -3.0437  -2.6753  -2.6599  -2.5864   5.8806   6.3159
     6.3995   6.9085   6.9781   7.1013   7.1702   7.2792   7.3927   7.5402
     7.8564   8.4822   8.8910   9.4390   9.5087   9.6838   9.8384  10.2277
    10.4193  10.5619  10.7011  10.8086  10.8606  10.9162  12.1988  13.2212
    13.2965  14.1578  16.6864  16.7266  17.5920  17.7955

     occupation numbers 
     0.0625   0.0625   0.0625   0.0625   0.0625   0.0625   0.0625   0.0625
     0.0625   0.0625   0.0625   0.0625   0.0625   0.0625   0.0625   0.0625
     0.0625   0.0625   0.0625   0.0625   0.0625   0.0625   0.0625   0.0625
     0.0625   0.0625   0.0625   0.0625   0.0625   0.0625   0.0625   0.0625
     0.0625   0.0625   0.0625   0.0623   0.0622   0.0620   0.0013   0.0000
     0.0000   0.0000   0.0000   0.0000   0.0000   0.0000

          k = 0.4942-0.2853-0.1027 (  2211 PWs)   bands (ev):

   -19.7294 -19.7065  -6.9674  -6.5518  -6.3270  -5.7226  -5.6363  -5.3605
    -3.3298  -3.1646  -3.0385  -2.5997  -2.5633  -2.3744   5.8208   6.1153
     6.1401   6.7668   7.0434   7.0521   7.2387   7.2756   7.4408   7.4809
     8.0135   8.4350   8.8900   9.3544   9.3725   9.6649   9.9701  10.0717
    10.3930  10.6614  10.7975  10.8361  10.8766  10.9107  12.2429  12.7349
    13.4594  14.3160  16.8859  16.9358  17.5801  17.9274

     occupation numbers 
     0.0625   0.0625   0.0625   0.0625   0.0625   0.0625   0.0625   0.0625
     0.0625   0.0625   0.0625   0.0625   0.0625   0.0625   0.0625   0.0625
     0.0625   0.0625   0.0625   0.0625   0.0625   0.0625   0.0625   0.0625
     0.0625   0.0625   0.0625   0.0625   0.0625   0.0625   0.0625   0.0625
     0.0625   0.0625   0.0624   0.0623   0.0622   0.0620   0.0009   0.0000
     0.0000   0.0000   0.0000   0.0000   0.0000   0.0000

          k = 0.0000-0.5706 0.1027 (  2211 PWs)   bands (ev):

   -19.7282 -19.7058  -6.9821  -6.5475  -6.3290  -5.7078  -5.6256  -5.3743
    -3.3300  -3.1648  -3.0390  -2.6025  -2.5635  -2.3784   5.8365   6.0977
     6.1581   6.7654   7.0456   7.0606   7.2410   7.2870   7.4369   7.4815
     7.9878   8.4446   8.8838   9.3663   9.3799   9.6376   9.9624  10.0805
    10.4055  10.6619  10.8008  10.8315  10.8738  10.9026  12.2435  12.7362
    13.4545  14.3186  16.8867  16.9355  17.5793  17.9279

     occupation numbers 
     0.0625   0.0625   0.0625   0.0625   0.0625   0.0625   0.0625   0.0625
     0.0625   0.0625   0.0625   0.0625   0.0625   0.0625   0.0625   0.0625
     0.0625   0.0625   0.0625   0.0625   0.0625   0.0625   0.0625   0.0625
     0.0625   0.0625   0.0625   0.0625   0.0625   0.0625   0.0625   0.0625
     0.0625   0.0625   0.0623   0.0623   0.0622   0.0621   0.0009   0.0000
     0.0000   0.0000   0.0000   0.0000   0.0000   0.0000

          k = 0.7412 0.4280 0.3080 (  2210 PWs)   bands (ev):

   -19.7278 -19.7072  -6.9190  -6.4576  -6.3077  -5.7975  -5.7668  -5.5046
    -3.0733  -3.0576  -2.9647  -2.7328  -2.6247  -2.4285   5.9300   6.1732
     6.2371   6.7554   6.9859   7.0940   7.2985   7.3350   7.4417   7.5236
     7.9611   8.4497   8.7860   9.3073   9.4582   9.4912   9.6513  10.1316
    10.3753  10.6527  10.7505  10.8212  10.9476  10.9548  12.2032  12.6894
    13.4036  14.2886  17.0609  17.0707  17.5474  17.9032

     occupation numbers 
     0.0625   0.0625   0.0625   0.0625   0.0625   0.0625   0.0625   0.0625
     0.0625   0.0625   0.0625   0.0625   0.0625   0.0625   0.0625   0.0625
     0.0625   0.0625   0.0625   0.0625   0.0625   0.0625   0.0625   0.0625
     0.0625   0.0625   0.0625   0.0625   0.0625   0.0625   0.0625   0.0625
     0.0625   0.0625   0.0624   0.0623   0.0618   0.0618   0.0013   0.0000
     0.0000   0.0000   0.0000   0.0000   0.0000   0.0000

          k = 0.0000 0.8559-0.3080 (  2210 PWs)   bands (ev):

   -19.7278 -19.7072  -6.9190  -6.4575  -6.3078  -5.7974  -5.7669  -5.5047
    -3.0733  -3.0575  -2.9648  -2.7328  -2.6247  -2.4285   5.9301   6.1730
     6.2372   6.7553   6.9862   7.0933   7.2987   7.3352   7.4430   7.5222
     7.9612   8.4499   8.7860   9.3071   9.4581   9.4913   9.6513  10.1318
    10.3752  10.6532  10.7490  10.8223  10.9474  10.9549  12.2032  12.6894
    13.4036  14.2886  17.0610  17.0706  17.5474  17.9032

     occupation numbers 
     0.0625   0.0625   0.0625   0.0625   0.0625   0.0625   0.0625   0.0625
     0.0625   0.0625   0.0625   0.0625   0.0625   0.0625   0.0625   0.0625
     0.0625   0.0625   0.0625   0.0625   0.0625   0.0625   0.0625   0.0625
     0.0625   0.0625   0.0625   0.0625   0.0625   0.0625   0.0625   0.0625
     0.0625   0.0625   0.0624   0.0623   0.0618   0.0618   0.0013   0.0000
     0.0000   0.0000   0.0000   0.0000   0.0000   0.0000

          k = 0.2471 0.7133-0.2053 (  2206 PWs)   bands (ev):

   -19.7196 -19.7191  -6.8914  -6.8730  -6.0608  -6.0285  -5.4473  -5.4274
    -3.1536  -3.1531  -2.8200  -2.8149  -2.3816  -2.3784   5.9887   6.0143
     6.3009   6.3153   6.9475   6.9482   7.2546   7.2599   7.4498   7.4738
     8.4946   8.5157   8.7971   8.8214   9.4860   9.4997  10.0097  10.0193
    10.4778  10.4813  10.6547  10.6728  10.9997  11.0174  12.2505  12.2557
    13.9815  13.9931  17.4258  17.4288  17.8700  17.8711

     occupation numbers 
     0.0625   0.0625   0.0625   0.0625   0.0625   0.0625   0.0625   0.0625
     0.0625   0.0625   0.0625   0.0625   0.0625   0.0625   0.0625   0.0625
     0.0625   0.0625   0.0625   0.0625   0.0625   0.0625   0.0625   0.0625
     0.0625   0.0625   0.0625   0.0625   0.0625   0.0625   0.0625   0.0625
     0.0625   0.0625   0.0625   0.0625   0.0615   0.0613   0.0009   0.0008
     0.0000   0.0000   0.0000   0.0000   0.0000   0.0000

          k =-0.7412-0.1427-0.2053 (  2206 PWs)   bands (ev):

   -19.7184 -19.7183  -6.9089  -6.8742  -6.0315  -6.0298  -5.4589  -5.4268
    -3.1554  -3.1534  -2.8161  -2.8149  -2.3915  -2.3778   5.9859   6.0093
     6.3123   6.3176   6.9480   6.9862   7.2652   7.2711   7.4457   7.4636
     8.4941   8.4963   8.7927   8.7966   9.4792   9.4807  10.0260  10.0326
    10.4873  10.4938  10.6561  10.6649  10.9973  11.0039  12.2511  12.2578
    13.9803  13.9923  17.4260  17.4268  17.8711  17.8737

     occupation numbers 
     0.0625   0.0625   0.0625   0.0625   0.0625   0.0625   0.0625   0.0625
     0.0625   0.0625   0.0625   0.0625   0.0625   0.0625   0.0625   0.0625
     0.0625   0.0625   0.0625   0.0625   0.0625   0.0625   0.0625   0.0625
     0.0625   0.0625   0.0625   0.0625   0.0625   0.0625   0.0625   0.0625
     0.0625   0.0625   0.0625   0.0625   0.0615   0.0614   0.0009   0.0008
     0.0000   0.0000   0.0000   0.0000   0.0000   0.0000

     the Fermi energy is    11.6145 ev

!    total energy              =    -537.93886781 Ry
     Harris-Foulkes estimate   =    -537.93885619 Ry
     estimated scf accuracy    <          4.1E-09 Ry

     The total energy is the sum of the following terms:

     one-electron contribution =     -32.89456817 Ry
     hartree contribution      =      83.65578271 Ry
     xc contribution           =    -199.61354878 Ry
     ewald contribution        =    -389.44315552 Ry
     Hubbard energy            =       0.36506076 Ry
     smearing contrib. (-TS)   =      -0.00843882 Ry

     convergence has been achieved in  13 iterations

     init_run     :      6.78s CPU      6.90s WALL (       1 calls)
     electrons    :    385.48s CPU    387.70s WALL (       1 calls)

     Called by init_run:
     wfcinit      :      0.00s CPU      0.00s WALL (       1 calls)
     potinit      :      0.27s CPU      0.32s WALL (       1 calls)

     Called by electrons:
     c_bands      :    296.75s CPU    297.68s WALL (      13 calls)
     sum_band     :     64.53s CPU     64.98s WALL (      13 calls)
     v_of_rho     :      3.37s CPU      3.39s WALL (      14 calls)
     v_h          :      0.18s CPU      0.18s WALL (      14 calls)
     v_xc         :      3.20s CPU      3.21s WALL (      14 calls)
     newd         :     21.69s CPU     21.70s WALL (      14 calls)
     mix_rho      :      0.35s CPU      0.35s WALL (      13 calls)

     Called by c_bands:
     init_us_2    :      3.21s CPU      3.21s WALL (     936 calls)
     cegterg      :    287.54s CPU    287.95s WALL (     468 calls)

     Called by sum_band:
     sum_band:bec :      0.35s CPU      0.35s WALL (     468 calls)
     addusdens    :     14.71s CPU     14.71s WALL (      13 calls)

     Called by *egterg:
     h_psi        :    215.45s CPU    215.82s WALL (    1754 calls)
     s_psi        :     12.35s CPU     12.35s WALL (    1754 calls)
     g_psi        :      1.08s CPU      1.08s WALL (    1286 calls)
     cdiaghg      :     19.98s CPU     19.97s WALL (    1718 calls)
     cegterg:over :     14.13s CPU     14.14s WALL (    1286 calls)
     cegterg:upda :      9.08s CPU      9.09s WALL (    1286 calls)
     cegterg:last :      7.20s CPU      7.20s WALL (     538 calls)

     Called by h_psi:
     h_psi:vloc   :    175.32s CPU    175.65s WALL (    1754 calls)
     h_psi:vnl    :     25.54s CPU     25.55s WALL (    1754 calls)
     add_vuspsi   :     12.44s CPU     12.44s WALL (    1754 calls)
     vhpsi        :     14.09s CPU     14.11s WALL (    1754 calls)

     General routines
     calbec       :     27.23s CPU     27.27s WALL (    4444 calls)
     fft          :      2.18s CPU      2.19s WALL (     219 calls)
     ffts         :      0.07s CPU      0.07s WALL (      27 calls)
     fftw         :    172.70s CPU    172.80s WALL (  129722 calls)
     interpolate  :      0.37s CPU      0.37s WALL (      27 calls)
     davcio       :      0.01s CPU      0.87s WALL (     972 calls)

     Parallel routines
     fft_scatter  :     38.86s CPU     39.32s WALL (  129968 calls)
     Hubbard U routines
     new_ns       :      2.70s CPU      3.07s WALL (      13 calls)
     vhpsi        :     14.09s CPU     14.11s WALL (    1754 calls)

     PWSCF        :  6m32.69s CPU     6m35.13s WALL


   This run was terminated on:  15:50:10  11Nov2012            

=------------------------------------------------------------------------------=
