   JOB DONE.
=------------------------------------------------------------------------------=

     Program PWSCF v.5.0.1 starts on 11Nov2012 at 15:20:26 

     This program is part of the open-source Quantum ESPRESSO suite
     for quantum simulation of materials; please cite
         "P. Giannozzi et al., J. Phys.:Condens. Matter 21 395502 (2009);
          URL http://www.quantum-espresso.org", 
     in publications or presentations arising from this work. More details at
     http://www.quantum-espresso.org/quote.php

     Parallel version (MPI), running on     2 processors
     R & G space division:  proc/pool =    2

     Current dimensions of program PWSCF are:
     Max number of different atomic species (ntypx) = 10
     Max number of k-points (npk) =  40000
     Max angular momentum in pseudopotentials (lmaxx) =  3
     Reading input from CoLaO_U400_a0.in
               file Co.pbe-nd-rrkjus.UPF: wavefunction(s)  4S 3D renormalized
               file O.pbe-rrkjus.UPF: wavefunction(s)  2S renormalized
               file O.pbe-rrkjus.UPF: wavefunction(s)  2S renormalized

     Subspace diagonalization in iterative solution of the eigenvalue problem:
     a serial algorithm will be used


     Parallelization info
     --------------------
     sticks:   dense  smooth     PW     G-vecs:    dense   smooth      PW
     Min        1112     444    131                34808     8786    1448
     Max        1113     445    132                34809     8787    1449
     Sum        2225     889    263                69617    17573    2897


     Title: 
     GGA + U, U = 4.000, alpha = 1D-40                                          


     bravais-lattice index     =            5
     lattice parameter (alat)  =      10.3292  a.u.
     unit-cell volume          =     793.0599 (a.u.)^3
     number of atoms/cell      =           10
     number of atomic types    =            4
     number of electrons       =        76.00
     number of Kohn-Sham states=           46
     kinetic-energy cutoff     =      30.0000  Ry
     charge density cutoff     =     300.0000  Ry
     convergence threshold     =      1.0E-08
     mixing beta               =       0.2000
     number of iterations used =            8  plain     mixing
     Exchange-correlation      =  SLA  PW   PBE  PBE ( 1 4 3 4 0)
     EXX-fraction              =        0.00

     celldm(1)=  10.329242  celldm(2)=   0.000000  celldm(3)=   0.000000
     celldm(4)=   0.488100  celldm(5)=   0.000000  celldm(6)=   0.000000

     crystal axes: (cart. coord. in units of alat)
               a(1) = (   0.505915  -0.292090   0.811624 )  
               a(2) = (   0.000000   0.584180   0.811624 )  
               a(3) = (  -0.505915  -0.292090   0.811624 )  

     reciprocal axes: (cart. coord. in units 2 pi/alat)
               b(1) = (  0.988308 -0.570600  0.410699 )  
               b(2) = (  0.000000  1.141200  0.410699 )  
               b(3) = ( -0.988308 -0.570600  0.410699 )  


     PseudoPot. # 1 for Co read from file:
     /home/mcurnan/dft-course/Project1/example_LaCoO3/Co.pbe-nd-rrkjus.UPF
     MD5 check sum: 3e47a84addf5e975e0edeaeee2a73f59
     Pseudo is Ultrasoft + core correction, Zval =  9.0
     Generated by new atomic code, or converted to UPF format
     Using radial grid of  961 points,  6 beta functions with: 
                l(1) =   0
                l(2) =   0
                l(3) =   1
                l(4) =   1
                l(5) =   2
                l(6) =   2
     Q(r) pseudized with 0 coefficients 


     PseudoPot. # 2 for La read from file:
     /home/mcurnan/dft-course/Project1/example_LaCoO3/La.pbe-nsp-van.UPF
     MD5 check sum: b2f11743f52dde65f77d1302becd7929
     Pseudo is Ultrasoft + core correction, Zval = 11.0
     Generated by new atomic code, or converted to UPF format
     Using radial grid of  907 points,  6 beta functions with: 
                l(1) =   0
                l(2) =   0
                l(3) =   1
                l(4) =   1
                l(5) =   2
                l(6) =   2
     Q(r) pseudized with  6 coefficients,  rinner =    1.200   1.200   1.200
                                                       1.200   1.200

     PseudoPot. # 3 for O  read from file:
     /home/mcurnan/dft-course/Project1/example_LaCoO3/O.pbe-rrkjus.UPF
     MD5 check sum: 390ba29e75625707450f3bd3f0eb6be9
     Pseudo is Ultrasoft, Zval =  6.0
     Generated by new atomic code, or converted to UPF format
     Using radial grid of 1269 points,  4 beta functions with: 
                l(1) =   0
                l(2) =   0
                l(3) =   1
                l(4) =   1
     Q(r) pseudized with 0 coefficients 


     PseudoPot. # 4 for O  read from file:
     /home/mcurnan/dft-course/Project1/example_LaCoO3/O.pbe-rrkjus.UPF
     MD5 check sum: 390ba29e75625707450f3bd3f0eb6be9
     Pseudo is Ultrasoft, Zval =  6.0
     Generated by new atomic code, or converted to UPF format
     Using radial grid of 1269 points,  4 beta functions with: 
                l(1) =   0
                l(2) =   0
                l(3) =   1
                l(4) =   1
     Q(r) pseudized with 0 coefficients 


     atomic species   valence    mass     pseudopotential
        Co1            9.00     1.00000     Co( 1.00)
        La1           11.00     1.00000     La( 1.00)
        O1             6.00     1.00000     O ( 1.00)
        O2             6.00     1.00000     O ( 1.00)
 -----
     simplified LDA+U calculation, Hubbard_lmax = 2
     atomic species  L   Hubbard U  Hubbard alpha
        Co1          2    4.000000    0.000000
        La1          2    0.000000    0.000000
        O1           1    0.000000    0.000000
        O2           1    0.000000    0.000000
 -----

     No symmetry found


                                    s                        frac. trans.

      isym =  1     identity                                     

 cryst.   s( 1) = (     1          0          0      )
                  (     0          1          0      )
                  (     0          0          1      )

 cart.    s( 1) = (  1.0000000  0.0000000  0.0000000 )
                  (  0.0000000  1.0000000  0.0000000 )
                  (  0.0000000  0.0000000  1.0000000 )


     point group C_1 (1)    
     there are  1 classes
     the character table:

       E    
A      1.00

     the symmetry operations in each class:
     E        1

   Cartesian axes

     site n.     atom                  positions (alat units)
         1           Co1 tau(   1) = (   0.2228050  -0.1992639   1.0141240  )
         2           Co1 tau(   2) = (  -0.2831100   0.0928263   1.4199360  )
         3           La1 tau(   3) = (  -0.2831100   0.0928263   0.8112181  )
         4           La1 tau(   4) = (   0.2228050   0.3849164   1.2170300  )
         5           O1  tau(   5) = (   0.0000000   0.0000000   0.0000000  )
         6           O2  tau(   6) = (   0.0008601   0.1861491   1.6232478  )
         7           O2  tau(   7) = (   0.1616398   0.0923297   0.8116239  )
         8           O2  tau(   8) = (  -0.0603051  -0.1064377   1.2166242  )
         9           O2  tau(   9) = (   0.4447499  -0.0004966   1.2166242  )
        10           O2  tau(  10) = (  -0.2219449   0.3854130   1.2166242  )

   Crystallographic axes

     site n.     atom                  positions (cryst. coord.)
         1           Co1 tau(   1) = (  0.7504000  0.1891000  0.3100000  )
         2           Co1 tau(   2) = (  0.2504000  0.6891000  0.8100000  )
         3           La1 tau(   3) = (  0.0004000  0.4391000  0.5600000  )
         4           La1 tau(   4) = (  0.5004000  0.9391000  0.0600000  )
         5           O1  tau(   5) = (  0.0000000  0.0000000  0.0000000  )
         6           O2  tau(   6) = (  0.5613000  0.8791000  0.5596000  )
         7           O2  tau(   7) = (  0.4404000  0.4387000  0.1209000  )
         8           O2  tau(   8) = (  0.5008000  0.3782000  0.6200000  )
         9           O2  tau(   9) = (  0.9395000  0.4991000  0.0604000  )
        10           O2  tau(  10) = (  0.0604000  0.9395000  0.4991000  )

     number of k points=    36  gaussian smearing, width (Ry)=  0.0300
                       cart. coord. in units 2pi/alat
        k(    1) = (   0.0000000   0.0000000   0.0000000), wk =   0.0312500
        k(    2) = (  -0.2470771  -0.1426500   0.1026748), wk =   0.0625000
        k(    3) = (   0.4941541   0.2853000  -0.2053496), wk =   0.0312500
        k(    4) = (  -0.2470771   0.1426500   0.2053496), wk =   0.0625000
        k(    5) = (   0.4941541   0.5706001  -0.1026748), wk =   0.0625000
        k(    6) = (   0.2470771   0.4279500   0.0000000), wk =   0.0625000
        k(    7) = (   0.4941541  -0.2853000  -0.4106993), wk =   0.0312500
        k(    8) = (   0.0000000   0.0000000   0.3080244), wk =   0.0625000
        k(    9) = (   0.7412312   0.4279500   0.0000000), wk =   0.0625000
        k(   10) = (   0.4941541   0.2853000   0.1026748), wk =   0.0625000
        k(   11) = (   0.7412312  -0.4279500  -0.3080244), wk =   0.0625000
        k(   12) = (   0.4941541  -0.5706001  -0.2053496), wk =   0.0625000
        k(   13) = (   0.0000000   0.0000000  -0.6160489), wk =   0.0312500
        k(   14) = (  -0.2470771   0.1426500  -0.1026748), wk =   0.0625000
        k(   15) = (   0.0000000   0.2853000   0.1026748), wk =   0.0625000
        k(   16) = (   0.4941541  -0.2853000   0.2053496), wk =   0.0312500
        k(   17) = (   0.0000000  -0.5706001  -0.2053496), wk =   0.0312500
        k(   18) = (  -0.2470771  -0.1426500  -0.2053496), wk =   0.0625000
        k(   19) = (   0.0000000  -0.2853000   0.2053496), wk =   0.0625000
        k(   20) = (   0.4941541  -0.5706001   0.1026748), wk =   0.0625000
        k(   21) = (  -0.7412312   0.1426500  -0.1026748), wk =   0.0625000
        k(   22) = (   0.2470771  -0.7132501  -0.1026748), wk =   0.0625000
        k(   23) = (  -0.7412312  -0.1426500   0.1026748), wk =   0.0625000
        k(   24) = (   0.2470771   0.7132501   0.1026748), wk =   0.0625000
        k(   25) = (   0.2470771  -0.4279500   0.0000000), wk =   0.0625000
        k(   26) = (  -0.4941541   0.0000000   0.0000000), wk =   0.0625000
        k(   27) = (   0.4941541   0.2853000   0.4106993), wk =   0.0312500
        k(   28) = (   0.0000000   0.5706001  -0.4106993), wk =   0.0312500
        k(   29) = (   0.7412312  -0.4279500   0.0000000), wk =   0.0625000
        k(   30) = (   0.0000000  -0.8559001   0.0000000), wk =   0.0625000
        k(   31) = (   0.4941541  -0.2853000  -0.1026748), wk =   0.0625000
        k(   32) = (   0.0000000  -0.5706001   0.1026748), wk =   0.0625000
        k(   33) = (   0.7412312   0.4279500   0.3080244), wk =   0.0625000
        k(   34) = (   0.0000000   0.8559001  -0.3080244), wk =   0.0625000
        k(   35) = (   0.2470771   0.7132501  -0.2053496), wk =   0.0625000
        k(   36) = (  -0.7412312  -0.1426500  -0.2053496), wk =   0.0625000

                       cryst. coord.
        k(    1) = (   0.0000000   0.0000000   0.0000000), wk =   0.0312500
        k(    2) = (   0.0000000   0.0000000   0.2500000), wk =   0.0625000
        k(    3) = (   0.0000000   0.0000000  -0.5000000), wk =   0.0312500
        k(    4) = (   0.0000000   0.2500000   0.2500000), wk =   0.0625000
        k(    5) = (   0.0000000   0.2500000  -0.5000000), wk =   0.0625000
        k(    6) = (   0.0000000   0.2500000  -0.2500000), wk =   0.0625000
        k(    7) = (   0.0000000  -0.5000000  -0.5000000), wk =   0.0312500
        k(    8) = (   0.2500000   0.2500000   0.2500000), wk =   0.0625000
        k(    9) = (   0.2500000   0.2500000  -0.5000000), wk =   0.0625000
        k(   10) = (   0.2500000   0.2500000  -0.2500000), wk =   0.0625000
        k(   11) = (   0.2500000  -0.5000000  -0.5000000), wk =   0.0625000
        k(   12) = (   0.2500000  -0.5000000  -0.2500000), wk =   0.0625000
        k(   13) = (  -0.5000000  -0.5000000  -0.5000000), wk =   0.0312500
        k(   14) = (  -0.2500000   0.0000000   0.0000000), wk =   0.0625000
        k(   15) = (   0.0000000   0.2500000   0.0000000), wk =   0.0625000
        k(   16) = (   0.5000000   0.0000000   0.0000000), wk =   0.0312500
        k(   17) = (   0.0000000  -0.5000000   0.0000000), wk =   0.0312500
        k(   18) = (  -0.2500000  -0.2500000   0.0000000), wk =   0.0625000
        k(   19) = (   0.2500000   0.0000000   0.2500000), wk =   0.0625000
        k(   20) = (   0.5000000  -0.2500000   0.0000000), wk =   0.0625000
        k(   21) = (  -0.5000000   0.0000000   0.2500000), wk =   0.0625000
        k(   22) = (   0.2500000  -0.5000000   0.0000000), wk =   0.0625000
        k(   23) = (  -0.2500000   0.0000000   0.5000000), wk =   0.0625000
        k(   24) = (   0.0000000   0.5000000  -0.2500000), wk =   0.0625000
        k(   25) = (   0.2500000  -0.2500000   0.0000000), wk =   0.0625000
        k(   26) = (  -0.2500000   0.0000000   0.2500000), wk =   0.0625000
        k(   27) = (   0.5000000   0.5000000   0.0000000), wk =   0.0312500
        k(   28) = (  -0.5000000   0.0000000  -0.5000000), wk =   0.0312500
        k(   29) = (   0.5000000  -0.2500000  -0.2500000), wk =   0.0625000
        k(   30) = (   0.2500000  -0.5000000   0.2500000), wk =   0.0625000
        k(   31) = (   0.2500000  -0.2500000  -0.2500000), wk =   0.0625000
        k(   32) = (   0.2500000  -0.2500000   0.2500000), wk =   0.0625000
        k(   33) = (   0.5000000   0.5000000  -0.2500000), wk =   0.0625000
        k(   34) = (  -0.5000000   0.2500000  -0.5000000), wk =   0.0625000
        k(   35) = (  -0.2500000   0.2500000  -0.5000000), wk =   0.0625000
        k(   36) = (  -0.5000000  -0.2500000   0.2500000), wk =   0.0625000

     Dense  grid:    69617 G-vectors     FFT dimensions: (  60,  60,  60)

     Smooth grid:    17573 G-vectors     FFT dimensions: (  40,  40,  40)

     Largest allocated arrays     est. size (Mb)     dimensions
        Kohn-Sham Wavefunctions         0.79 Mb     (   1119,   46)
        Atomic wavefunctions            1.06 Mb     (   1119,   62)
        NL pseudopotentials             2.05 Mb     (   1119,  120)
        Each V/rho on FFT grid          1.65 Mb     ( 108000)
        Each G-vector array             0.27 Mb     (  34808)
        G-vector shells                 0.04 Mb     (   4682)
     Largest temporary arrays     est. size (Mb)     dimensions
        Auxiliary wavefunctions         3.14 Mb     (   1119,  184)
        Each subspace H/S matrix        0.52 Mb     ( 184, 184)
        Each <psi_i|beta_j> matrix      0.08 Mb     (    120,   46)
        Arrays for rho mixing          13.18 Mb     ( 108000,   8)

     Check: negative/imaginary core charge=   -0.000028    0.000000

     The initial density is read from file :
     /home/mcurnan/dft-course/Project1/example_LaCoO3/400/O/alpha/CoLaO_U400.save/charge-density.dat

 --- in v_hubbard ---
Hubbard energy    0.3828
 -------
     Number of +U iterations with fixed ns =  0
     Starting occupations:
 --- enter write_ns ---
 LDA+U parameters:
U( 1)     =  4.00000000
alpha( 1) =  0.00000000
U( 2)     =  0.00000000
alpha( 2) =  0.00000000
U( 3)     =  0.00000000
alpha( 3) =  0.00000000
U( 4)     =  0.00000000
alpha( 4) =  0.00000000
atom    1   Tr[ns(na)] =   8.02205
    eigenvalues: 
  0.596  0.596  0.938  0.941  0.941
    eigenvectors:
  0.000  0.000  1.000  0.000  0.000
  0.057  0.598  0.000  0.178  0.167
  0.598  0.057  0.000  0.167  0.178
  0.210  0.135  0.000  0.095  0.560
  0.135  0.210  0.000  0.560  0.095
    occupations:
  0.938  0.000  0.000  0.000  0.000
  0.000  0.715  0.000 -0.060  0.152
  0.000  0.000  0.715  0.152  0.060
  0.000 -0.060  0.152  0.822  0.000
  0.000  0.152  0.060  0.000  0.822
atom    2   Tr[ns(na)] =   8.02142
    eigenvalues: 
  0.595  0.595  0.938  0.941  0.941
    eigenvectors:
  0.000  0.000  1.000  0.000  0.000
  0.332  0.323  0.000  0.023  0.322
  0.323  0.332  0.000  0.322  0.023
  0.288  0.057  0.000  0.647  0.008
  0.057  0.288  0.000  0.008  0.647
    occupations:
  0.938  0.000  0.000  0.000  0.000
  0.000  0.715  0.000  0.060  0.153
  0.000  0.000  0.715  0.153 -0.060
  0.000  0.060  0.153  0.822  0.000
  0.000  0.153 -0.060  0.000  0.822
atom    3   Tr[ns(na)] =   3.80282
    eigenvalues: 
  0.355  0.355  0.384  0.403  0.403
    eigenvectors:
  0.000  0.000  1.000  0.000  0.000
  0.065  0.856  0.000  0.058  0.021
  0.856  0.065  0.000  0.021  0.058
  0.073  0.006  0.000  0.250  0.670
  0.006  0.073  0.000  0.670  0.250
    occupations:
  0.384  0.000  0.000  0.000  0.000
  0.000  0.359  0.000  0.000  0.013
  0.000  0.000  0.359  0.013  0.000
  0.000  0.000  0.013  0.399  0.000
  0.000  0.013  0.000  0.000  0.399
atom    4   Tr[ns(na)] =   3.80282
    eigenvalues: 
  0.355  0.355  0.384  0.403  0.403
    eigenvectors:
  0.000  0.000  1.000  0.000  0.000
  0.729  0.192  0.000  0.048  0.032
  0.192  0.729  0.000  0.032  0.048
  0.017  0.062  0.000  0.359  0.562
  0.062  0.017  0.000  0.562  0.359
    occupations:
  0.384  0.000  0.000  0.000  0.000
  0.000  0.359  0.000  0.000  0.013
  0.000  0.000  0.359  0.013  0.000
  0.000  0.000  0.013  0.399  0.000
  0.000  0.013  0.000  0.000  0.399
atom    5   Tr[ns(na)] =   5.43357
    eigenvalues: 
  0.846  0.929  0.941
    eigenvectors:
  0.340  0.000  0.660
  0.496  0.250  0.255
  0.164  0.750  0.086
    occupations:
  0.909 -0.039  0.022
 -0.039  0.891  0.022
  0.022  0.022  0.917
atom    6   Tr[ns(na)] =   5.43358
    eigenvalues: 
  0.846  0.929  0.941
    eigenvectors:
  0.340  0.000  0.660
  0.494  0.250  0.256
  0.166  0.750  0.085
    occupations:
  0.909  0.039  0.022
  0.039  0.891 -0.022
  0.022 -0.022  0.917
atom    7   Tr[ns(na)] =   5.43358
    eigenvalues: 
  0.846  0.929  0.941
    eigenvectors:
  0.340  0.000  0.660
  0.000  1.000  0.000
  0.660  0.000  0.340
    occupations:
  0.909  0.000 -0.045
  0.000  0.929  0.000
 -0.045  0.000  0.879
atom    8   Tr[ns(na)] =   5.43357
    eigenvalues: 
  0.846  0.929  0.941
    eigenvectors:
  0.340  0.000  0.660
  0.496  0.250  0.255
  0.164  0.750  0.086
    occupations:
  0.909 -0.039  0.022
 -0.039  0.891  0.022
  0.022  0.022  0.917
atom    9   Tr[ns(na)] =   5.43358
    eigenvalues: 
  0.846  0.929  0.941
    eigenvectors:
  0.340  0.000  0.660
  0.494  0.250  0.256
  0.166  0.750  0.085
    occupations:
  0.909  0.039  0.022
  0.039  0.891 -0.022
  0.022 -0.022  0.917
atom   10   Tr[ns(na)] =   5.43358
    eigenvalues: 
  0.846  0.929  0.941
    eigenvectors:
  0.340  0.000  0.660
  0.000  1.000  0.000
  0.660  0.000  0.340
    occupations:
  0.909  0.000 -0.045
  0.000  0.929  0.000
 -0.045  0.000  0.879
N of occupied +U levels =  56.2505796
 --- exit write_ns ---
 LDA+U Projector read from file 
     Starting wfc from file

     total cpu time spent up to now is        7.7 secs

     per-process dynamical memory:    62.8 Mb

     Self-consistent Calculation

     iteration #  1     ecut=    30.00 Ry     beta=0.20
     Davidson diagonalization with overlap
     c_bands:  1 eigenvalues not converged
     c_bands:  1 eigenvalues not converged
     c_bands:  1 eigenvalues not converged
     c_bands:  1 eigenvalues not converged
     c_bands:  1 eigenvalues not converged
     c_bands:  1 eigenvalues not converged
     c_bands:  1 eigenvalues not converged
     c_bands:  1 eigenvalues not converged
     c_bands:  1 eigenvalues not converged
     c_bands:  1 eigenvalues not converged
     c_bands:  1 eigenvalues not converged
     c_bands:  1 eigenvalues not converged
     c_bands:  1 eigenvalues not converged
     c_bands:  1 eigenvalues not converged
     c_bands:  1 eigenvalues not converged
     c_bands:  1 eigenvalues not converged
     c_bands:  1 eigenvalues not converged
     c_bands:  1 eigenvalues not converged
     c_bands:  1 eigenvalues not converged
     c_bands:  1 eigenvalues not converged
     c_bands:  1 eigenvalues not converged
     ethr =  1.00E-10,  avg # of iterations = 17.4
 --- enter write_ns ---
 LDA+U parameters:
U( 1)     =  4.00000000
alpha( 1) =  0.00000000
U( 2)     =  0.00000000
alpha( 2) =  0.00000000
U( 3)     =  0.00000000
alpha( 3) =  0.00000000
U( 4)     =  0.00000000
alpha( 4) =  0.00000000
atom    1   Tr[ns(na)] =   8.18780
    eigenvalues: 
  0.564  0.564  0.988  0.988  0.991
    eigenvectors:
  0.000  0.000  0.000  0.000  1.000
  0.010  0.644  0.169  0.177  0.000
  0.644  0.010  0.177  0.169  0.000
  0.268  0.078  0.112  0.542  0.000
  0.078  0.268  0.542  0.112  0.000
    occupations:
  0.991  0.000  0.000  0.000  0.000
  0.000  0.711  0.000 -0.073  0.188
  0.000  0.000  0.711  0.188  0.073
  0.000 -0.073  0.188  0.841  0.000
  0.000  0.188  0.073  0.000  0.841
atom    2   Tr[ns(na)] =   8.17926
    eigenvalues: 
  0.561  0.561  0.988  0.988  0.991
    eigenvectors:
  0.000  0.000  0.000  0.000  1.000
  0.363  0.291  0.003  0.343  0.000
  0.291  0.363  0.343  0.003  0.000
  0.273  0.072  0.606  0.048  0.000
  0.072  0.273  0.048  0.606  0.000
    occupations:
  0.991  0.000  0.000  0.000  0.000
  0.000  0.709  0.000  0.072  0.190
  0.000  0.000  0.709  0.190 -0.072
  0.000  0.072  0.190  0.840  0.000
  0.000  0.190 -0.072  0.000  0.840
atom    3   Tr[ns(na)] =   3.79379
    eigenvalues: 
  0.356  0.356  0.382  0.402  0.402
    eigenvectors:
  0.000  0.000  1.000  0.000  0.000
  0.039  0.879  0.000  0.050  0.032
  0.879  0.039  0.000  0.032  0.050
  0.079  0.004  0.000  0.368  0.550
  0.004  0.079  0.000  0.550  0.368
    occupations:
  0.382  0.000  0.000  0.000  0.000
  0.000  0.360  0.000  0.000  0.013
  0.000  0.000  0.360  0.013  0.000
  0.000  0.000  0.013  0.398  0.000
  0.000  0.013  0.000  0.000  0.398
atom    4   Tr[ns(na)] =   3.79378
    eigenvalues: 
  0.356  0.356  0.382  0.402  0.402
    eigenvectors:
  0.000  0.000  1.000  0.000  0.000
  0.712  0.205  0.000  0.072  0.011
  0.205  0.712  0.000  0.011  0.072
  0.019  0.063  0.000  0.123  0.794
  0.063  0.019  0.000  0.794  0.123
    occupations:
  0.382  0.000  0.000  0.000  0.000
  0.000  0.360  0.000  0.000  0.013
  0.000  0.000  0.360  0.013  0.000
  0.000  0.000  0.013  0.398  0.000
  0.000  0.013  0.000  0.000  0.398
atom    5   Tr[ns(na)] =   5.39410
    eigenvalues: 
  0.828  0.924  0.944
    eigenvectors:
  0.341  0.000  0.659
  0.495  0.250  0.255
  0.165  0.750  0.086
    occupations:
  0.905 -0.048  0.027
 -0.048  0.882  0.024
  0.027  0.024  0.910
atom    6   Tr[ns(na)] =   5.39411
    eigenvalues: 
  0.828  0.924  0.944
    eigenvectors:
  0.341  0.000  0.659
  0.494  0.250  0.256
  0.165  0.750  0.085
    occupations:
  0.905  0.047  0.027
  0.047  0.882 -0.025
  0.027 -0.025  0.910
atom    7   Tr[ns(na)] =   5.39411
    eigenvalues: 
  0.828  0.924  0.944
    eigenvectors:
  0.341  0.000  0.659
  0.000  1.000  0.000
  0.659  0.000  0.341
    occupations:
  0.905  0.000 -0.055
  0.000  0.924  0.000
 -0.055  0.000  0.868
atom    8   Tr[ns(na)] =   5.39410
    eigenvalues: 
  0.828  0.924  0.944
    eigenvectors:
  0.341  0.000  0.659
  0.495  0.250  0.255
  0.165  0.750  0.086
    occupations:
  0.905 -0.048  0.027
 -0.048  0.882  0.024
  0.027  0.024  0.910
atom    9   Tr[ns(na)] =   5.39411
    eigenvalues: 
  0.828  0.924  0.944
    eigenvectors:
  0.341  0.000  0.659
  0.494  0.250  0.256
  0.165  0.750  0.085
    occupations:
  0.905  0.047  0.027
  0.047  0.882 -0.025
  0.027 -0.025  0.910
atom   10   Tr[ns(na)] =   5.39411
    eigenvalues: 
  0.828  0.924  0.944
    eigenvectors:
  0.341  0.000  0.659
  0.000  1.000  0.000
  0.659  0.000  0.341
    occupations:
  0.905  0.000 -0.055
  0.000  0.924  0.000
 -0.055  0.000  0.868
N of occupied +U levels =  56.3192650
 --- exit write_ns ---
 --- in v_hubbard ---
Hubbard energy    0.3689
 -------

     total cpu time spent up to now is      113.8 secs

     total energy              =    -537.98705797 Ry
     Harris-Foulkes estimate   =    -537.99390027 Ry
     estimated scf accuracy    <       0.03610259 Ry

     iteration #  2     ecut=    30.00 Ry     beta=0.20
     Davidson diagonalization with overlap
     ethr =  4.75E-05,  avg # of iterations =  1.9
 --- enter write_ns ---
 LDA+U parameters:
U( 1)     =  4.00000000
alpha( 1) =  0.00000000
U( 2)     =  0.00000000
alpha( 2) =  0.00000000
U( 3)     =  0.00000000
alpha( 3) =  0.00000000
U( 4)     =  0.00000000
alpha( 4) =  0.00000000
atom    1   Tr[ns(na)] =   8.02668
    eigenvalues: 
  0.522  0.522  0.989  0.989  0.992
    eigenvectors:
  0.000  0.000  0.000  0.000  1.000
  0.040  0.616  0.055  0.289  0.000
  0.616  0.040  0.289  0.055  0.000
  0.227  0.117  0.654  0.001  0.000
  0.117  0.227  0.001  0.654  0.000
    occupations:
  0.992  0.000  0.000  0.000  0.000
  0.000  0.683  0.000 -0.081  0.206
  0.000  0.000  0.683  0.206  0.081
  0.000 -0.081  0.206  0.828  0.000
  0.000  0.206  0.081  0.000  0.828
atom    2   Tr[ns(na)] =   8.03102
    eigenvalues: 
  0.522  0.522  0.990  0.990  0.992
    eigenvectors:
  0.000  0.000  0.000  0.000  1.000
  0.448  0.207  0.062  0.282  0.000
  0.207  0.448  0.282  0.062  0.000
  0.234  0.110  0.653  0.003  0.000
  0.110  0.234  0.003  0.653  0.000
    occupations:
  0.992  0.000  0.000  0.000  0.000
  0.000  0.683  0.000  0.081  0.207
  0.000  0.000  0.683  0.207 -0.081
  0.000  0.081  0.207  0.828  0.000
  0.000  0.207 -0.081  0.000  0.828
atom    3   Tr[ns(na)] =   3.79033
    eigenvalues: 
  0.355  0.355  0.381  0.402  0.402
    eigenvectors:
  0.000  0.000  1.000  0.000  0.000
  0.069  0.851  0.000  0.078  0.002
  0.851  0.069  0.000  0.002  0.078
  0.074  0.006  0.000  0.022  0.898
  0.006  0.074  0.000  0.898  0.022
    occupations:
  0.381  0.000  0.000  0.000  0.000
  0.000  0.359  0.000  0.000  0.013
  0.000  0.000  0.359  0.013  0.000
  0.000  0.000  0.013  0.398  0.000
  0.000  0.013  0.000  0.000  0.398
atom    4   Tr[ns(na)] =   3.79034
    eigenvalues: 
  0.355  0.355  0.381  0.402  0.402
    eigenvectors:
  0.000  0.000  1.000  0.000  0.000
  0.428  0.492  0.000  0.079  0.001
  0.492  0.428  0.000  0.001  0.079
  0.043  0.037  0.000  0.016  0.904
  0.036  0.043  0.000  0.904  0.016
    occupations:
  0.381  0.000  0.000  0.000  0.000
  0.000  0.359  0.000  0.000  0.013
  0.000  0.000  0.359  0.013  0.000
  0.000  0.000  0.013  0.398  0.000
  0.000  0.013  0.000  0.000  0.398
atom    5   Tr[ns(na)] =   5.44320
    eigenvalues: 
  0.843  0.931  0.948
    eigenvectors:
  0.336  0.000  0.664
  0.497  0.252  0.252
  0.167  0.748  0.085
    occupations:
  0.912 -0.043  0.025
 -0.043  0.891  0.023
  0.025  0.023  0.918
atom    6   Tr[ns(na)] =   5.44321
    eigenvalues: 
  0.843  0.931  0.948
    eigenvectors:
  0.337  0.000  0.663
  0.499  0.248  0.253
  0.165  0.752  0.084
    occupations:
  0.912  0.043  0.025
  0.043  0.891 -0.023
  0.025 -0.023  0.918
atom    7   Tr[ns(na)] =   5.44321
    eigenvalues: 
  0.843  0.931  0.948
    eigenvectors:
  0.337  0.000  0.663
  0.000  1.000  0.000
  0.663  0.000  0.337
    occupations:
  0.912  0.000 -0.050
  0.000  0.931  0.000
 -0.050  0.000  0.878
atom    8   Tr[ns(na)] =   5.44320
    eigenvalues: 
  0.843  0.931  0.948
    eigenvectors:
  0.336  0.000  0.664
  0.497  0.252  0.252
  0.167  0.748  0.085
    occupations:
  0.912 -0.043  0.025
 -0.043  0.891  0.023
  0.025  0.023  0.918
atom    9   Tr[ns(na)] =   5.44321
    eigenvalues: 
  0.843  0.931  0.948
    eigenvectors:
  0.337  0.000  0.663
  0.499  0.248  0.253
  0.165  0.752  0.083
    occupations:
  0.912  0.043  0.025
  0.043  0.891 -0.023
  0.025 -0.023  0.918
atom   10   Tr[ns(na)] =   5.44321
    eigenvalues: 
  0.843  0.931  0.948
    eigenvectors:
  0.337  0.000  0.663
  0.000  1.000  0.000
  0.663  0.000  0.337
    occupations:
  0.912  0.000 -0.050
  0.000  0.931  0.000
 -0.050  0.000  0.878
N of occupied +U levels =  56.2976202
 --- exit write_ns ---
 --- in v_hubbard ---
Hubbard energy    0.3626
 -------

     total cpu time spent up to now is      147.3 secs

     total energy              =    -537.99367934 Ry
     Harris-Foulkes estimate   =    -537.99354688 Ry
     estimated scf accuracy    <       0.02272812 Ry

     iteration #  3     ecut=    30.00 Ry     beta=0.20
     Davidson diagonalization with overlap
     ethr =  2.99E-05,  avg # of iterations =  1.0
 --- enter write_ns ---
 LDA+U parameters:
U( 1)     =  4.00000000
alpha( 1) =  0.00000000
U( 2)     =  0.00000000
alpha( 2) =  0.00000000
U( 3)     =  0.00000000
alpha( 3) =  0.00000000
U( 4)     =  0.00000000
alpha( 4) =  0.00000000
atom    1   Tr[ns(na)] =   8.06443
    eigenvalues: 
  0.531  0.531  0.989  0.989  0.992
    eigenvectors:
  0.000  0.000  0.000  0.000  1.000
  0.025  0.631  0.059  0.285  0.000
  0.631  0.025  0.285  0.059  0.000
  0.243  0.101  0.316  0.340  0.000
  0.101  0.243  0.340  0.316  0.000
    occupations:
  0.992  0.000  0.000  0.000  0.000
  0.000  0.689  0.000 -0.080  0.203
  0.000  0.000  0.689  0.203  0.080
  0.000 -0.080  0.203  0.831  0.000
  0.000  0.203  0.080  0.000  0.831
atom    2   Tr[ns(na)] =   8.05971
    eigenvalues: 
  0.529  0.529  0.990  0.990  0.992
    eigenvectors:
  0.000  0.000  0.000  0.000  1.000
  0.414  0.241  0.023  0.321  0.000
  0.241  0.414  0.321  0.023  0.000
  0.251  0.093  0.648  0.008  0.000
  0.093  0.251  0.008  0.648  0.000
    occupations:
  0.992  0.000  0.000  0.000  0.000
  0.000  0.688  0.000  0.079  0.204
  0.000  0.000  0.688  0.204 -0.079
  0.000  0.079  0.204  0.831  0.000
  0.000  0.204 -0.079  0.000  0.831
atom    3   Tr[ns(na)] =   3.79072
    eigenvalues: 
  0.356  0.356  0.381  0.401  0.401
    eigenvectors:
  0.000  0.000  1.000  0.000  0.000
  0.002  0.918  0.000  0.079  0.001
  0.918  0.002  0.000  0.001  0.079
  0.080  0.000  0.000  0.014  0.906
  0.000  0.080  0.000  0.906  0.014
    occupations:
  0.381  0.000  0.000  0.000  0.000
  0.000  0.359  0.000  0.000  0.012
  0.000  0.000  0.359  0.012  0.000
  0.000  0.000  0.012  0.398  0.000
  0.000  0.012  0.000  0.000  0.398
atom    4   Tr[ns(na)] =   3.79072
    eigenvalues: 
  0.356  0.356  0.381  0.401  0.401
    eigenvectors:
  0.000  0.000  1.000  0.000  0.000
  0.606  0.314  0.000  0.080  0.000
  0.314  0.606  0.000  0.000  0.080
  0.028  0.052  0.000  0.002  0.918
  0.052  0.028  0.000  0.918  0.002
    occupations:
  0.381  0.000  0.000  0.000  0.000
  0.000  0.359  0.000  0.000  0.012
  0.000  0.000  0.359  0.012  0.000
  0.000  0.000  0.012  0.398  0.000
  0.000  0.012  0.000  0.000  0.398
atom    5   Tr[ns(na)] =   5.43277
    eigenvalues: 
  0.839  0.930  0.947
    eigenvectors:
  0.337  0.000  0.663
  0.497  0.251  0.253
  0.166  0.749  0.085
    occupations:
  0.911 -0.044  0.025
 -0.044  0.889  0.023
  0.025  0.023  0.916
atom    6   Tr[ns(na)] =   5.43278
    eigenvalues: 
  0.839  0.930  0.947
    eigenvectors:
  0.337  0.000  0.663
  0.497  0.249  0.254
  0.166  0.751  0.084
    occupations:
  0.911  0.044  0.025
  0.044  0.889 -0.023
  0.025 -0.023  0.916
atom    7   Tr[ns(na)] =   5.43278
    eigenvalues: 
  0.839  0.930  0.947
    eigenvectors:
  0.337  0.000  0.663
  0.000  1.000  0.000
  0.663  0.000  0.337
    occupations:
  0.911  0.000 -0.051
  0.000  0.930  0.000
 -0.051  0.000  0.876
atom    8   Tr[ns(na)] =   5.43277
    eigenvalues: 
  0.839  0.930  0.947
    eigenvectors:
  0.337  0.000  0.663
  0.497  0.251  0.253
  0.166  0.749  0.085
    occupations:
  0.911 -0.044  0.025
 -0.044  0.889  0.023
  0.025  0.023  0.916
atom    9   Tr[ns(na)] =   5.43277
    eigenvalues: 
  0.839  0.930  0.947
    eigenvectors:
  0.337  0.000  0.663
  0.497  0.249  0.254
  0.166  0.751  0.084
    occupations:
  0.911  0.044  0.025
  0.044  0.889 -0.023
  0.025 -0.023  0.916
atom   10   Tr[ns(na)] =   5.43277
    eigenvalues: 
  0.839  0.930  0.947
    eigenvectors:
  0.337  0.000  0.663
  0.000  1.000  0.000
  0.663  0.000  0.337
    occupations:
  0.911  0.000 -0.051
  0.000  0.930  0.000
 -0.051  0.000  0.876
N of occupied +U levels =  56.3022225
 --- exit write_ns ---
 --- in v_hubbard ---
Hubbard energy    0.3084
 -------

     total cpu time spent up to now is      176.7 secs

     total energy              =    -537.99752194 Ry
     Harris-Foulkes estimate   =    -537.99411935 Ry
     estimated scf accuracy    <       0.01132878 Ry

     iteration #  4     ecut=    30.00 Ry     beta=0.20
     Davidson diagonalization with overlap
     ethr =  1.49E-05,  avg # of iterations =  1.2
 --- enter write_ns ---
 LDA+U parameters:
U( 1)     =  4.00000000
alpha( 1) =  0.00000000
U( 2)     =  0.00000000
alpha( 2) =  0.00000000
U( 3)     =  0.00000000
alpha( 3) =  0.00000000
U( 4)     =  0.00000000
alpha( 4) =  0.00000000
atom    1   Tr[ns(na)] =   8.05086
    eigenvalues: 
  0.525  0.525  0.991  0.991  0.994
    eigenvectors:
  0.000  0.000  0.000  0.000  1.000
  0.027  0.632  0.176  0.165  0.000
  0.632  0.027  0.165  0.176  0.000
  0.239  0.102  0.097  0.562  0.000
  0.102  0.239  0.562  0.097  0.000
    occupations:
  0.994  0.000  0.000  0.000  0.000
  0.000  0.684  0.000 -0.081  0.206
  0.000  0.000  0.684  0.206  0.081
  0.000 -0.081  0.206  0.832  0.000
  0.000  0.206  0.081  0.000  0.832
atom    2   Tr[ns(na)] =   8.08402
    eigenvalues: 
  0.531  0.531  0.993  0.993  0.995
    eigenvectors:
  0.000  0.000  0.000  0.000  1.000
  0.375  0.283  0.033  0.309  0.000
  0.283  0.375  0.309  0.033  0.000
  0.269  0.072  0.391  0.268  0.000
  0.072  0.269  0.268  0.391  0.000
    occupations:
  0.995  0.000  0.000  0.000  0.000
  0.000  0.688  0.000  0.081  0.204
  0.000  0.000  0.688  0.204 -0.081
  0.000  0.081  0.204  0.835  0.000
  0.000  0.204 -0.081  0.000  0.835
atom    3   Tr[ns(na)] =   3.79675
    eigenvalues: 
  0.356  0.356  0.382  0.402  0.402
    eigenvectors:
  0.000  0.000  1.000  0.000  0.000
  0.340  0.582  0.000  0.000  0.078
  0.582  0.340  0.000  0.078  0.000
  0.049  0.029  0.000  0.916  0.006
  0.029  0.049  0.000  0.006  0.916
    occupations:
  0.382  0.000  0.000  0.000  0.000
  0.000  0.360  0.000  0.000  0.012
  0.000  0.000  0.360  0.012  0.000
  0.000  0.000  0.012  0.398  0.000
  0.000  0.012  0.000  0.000  0.398
atom    4   Tr[ns(na)] =   3.79675
    eigenvalues: 
  0.356  0.356  0.382  0.402  0.402
    eigenvectors:
  0.000  0.000  1.000  0.000  0.000
  0.921  0.001  0.000  0.001  0.077
  0.001  0.921  0.000  0.077  0.001
  0.000  0.078  0.000  0.912  0.010
  0.078  0.000  0.000  0.010  0.912
    occupations:
  0.382  0.000  0.000  0.000  0.000
  0.000  0.360  0.000  0.000  0.012
  0.000  0.000  0.360  0.012  0.000
  0.000  0.000  0.012  0.398  0.000
  0.000  0.012  0.000  0.000  0.398
atom    5   Tr[ns(na)] =   5.42782
    eigenvalues: 
  0.838  0.929  0.947
    eigenvectors:
  0.337  0.000  0.663
  0.493  0.256  0.252
  0.170  0.744  0.086
    occupations:
  0.910 -0.044  0.026
 -0.044  0.889  0.024
  0.026  0.024  0.915
atom    6   Tr[ns(na)] =   5.42783
    eigenvalues: 
  0.838  0.929  0.947
    eigenvectors:
  0.337  0.000  0.663
  0.501  0.244  0.254
  0.161  0.756  0.083
    occupations:
  0.910  0.045  0.025
  0.045  0.888 -0.023
  0.025 -0.023  0.916
atom    7   Tr[ns(na)] =   5.42783
    eigenvalues: 
  0.838  0.929  0.947
    eigenvectors:
  0.337  0.000  0.663
  0.000  1.000  0.000
  0.663  0.000  0.337
    occupations:
  0.910  0.000 -0.051
  0.000  0.929  0.000
 -0.051  0.000  0.875
atom    8   Tr[ns(na)] =   5.42782
    eigenvalues: 
  0.838  0.929  0.947
    eigenvectors:
  0.337  0.000  0.663
  0.493  0.256  0.252
  0.170  0.744  0.086
    occupations:
  0.910 -0.044  0.026
 -0.044  0.889  0.024
  0.026  0.024  0.915
atom    9   Tr[ns(na)] =   5.42783
    eigenvalues: 
  0.838  0.929  0.947
    eigenvectors:
  0.337  0.000  0.663
  0.501  0.244  0.254
  0.161  0.756  0.083
    occupations:
  0.910  0.045  0.025
  0.045  0.888 -0.023
  0.025 -0.023  0.916
atom   10   Tr[ns(na)] =   5.42783
    eigenvalues: 
  0.838  0.929  0.947
    eigenvectors:
  0.337  0.000  0.663
  0.000  1.000  0.000
  0.663  0.000  0.337
    occupations:
  0.910  0.000 -0.051
  0.000  0.929  0.000
 -0.051  0.000  0.875
N of occupied +U levels =  56.2953402
 --- exit write_ns ---
 --- in v_hubbard ---
Hubbard energy    0.3043
 -------

     total cpu time spent up to now is      201.3 secs

     total energy              =    -537.99827622 Ry
     Harris-Foulkes estimate   =    -537.99832598 Ry
     estimated scf accuracy    <       0.00130375 Ry

     iteration #  5     ecut=    30.00 Ry     beta=0.20
     Davidson diagonalization with overlap
     ethr =  1.72E-06,  avg # of iterations =  1.9
 --- enter write_ns ---
 LDA+U parameters:
U( 1)     =  4.00000000
alpha( 1) =  0.00000000
U( 2)     =  0.00000000
alpha( 2) =  0.00000000
U( 3)     =  0.00000000
alpha( 3) =  0.00000000
U( 4)     =  0.00000000
alpha( 4) =  0.00000000
atom    1   Tr[ns(na)] =   8.06177
    eigenvalues: 
  0.526  0.526  0.992  0.992  0.995
    eigenvectors:
  0.000  0.000  0.000  0.000  1.000
  0.024  0.635  0.177  0.164  0.000
  0.635  0.024  0.164  0.177  0.000
  0.242  0.100  0.094  0.564  0.000
  0.100  0.242  0.564  0.094  0.000
    occupations:
  0.995  0.000  0.000  0.000  0.000
  0.000  0.685  0.000 -0.082  0.205
  0.000  0.000  0.685  0.205  0.082
  0.000 -0.082  0.205  0.833  0.000
  0.000  0.205  0.082  0.000  0.833
atom    2   Tr[ns(na)] =   8.05874
    eigenvalues: 
  0.525  0.525  0.992  0.992  0.995
    eigenvectors:
  0.000  0.000  0.000  0.000  1.000
  0.396  0.262  0.000  0.341  0.000
  0.262  0.396  0.341  0.000  0.000
  0.259  0.082  0.560  0.099  0.000
  0.082  0.259  0.099  0.560  0.000
    occupations:
  0.995  0.000  0.000  0.000  0.000
  0.000  0.684  0.000  0.081  0.206
  0.000  0.000  0.684  0.206 -0.081
  0.000  0.081  0.206  0.833  0.000
  0.000  0.206 -0.081  0.000  0.833
atom    3   Tr[ns(na)] =   3.79715
    eigenvalues: 
  0.356  0.356  0.382  0.402  0.402
    eigenvectors:
  0.000  0.000  1.000  0.000  0.000
  0.105  0.817  0.000  0.000  0.078
  0.817  0.105  0.000  0.078  0.000
  0.069  0.009  0.000  0.918  0.004
  0.009  0.069  0.000  0.004  0.918
    occupations:
  0.382  0.000  0.000  0.000  0.000
  0.000  0.360  0.000  0.000  0.012
  0.000  0.000  0.360  0.012  0.000
  0.000  0.000  0.012  0.398  0.000
  0.000  0.012  0.000  0.000  0.398
atom    4   Tr[ns(na)] =   3.79715
    eigenvalues: 
  0.356  0.356  0.382  0.402  0.402
    eigenvectors:
  0.000  0.000  1.000  0.000  0.000
  0.840  0.082  0.000  0.003  0.075
  0.082  0.840  0.000  0.075  0.003
  0.007  0.071  0.000  0.882  0.039
  0.071  0.007  0.000  0.039  0.882
    occupations:
  0.382  0.000  0.000  0.000  0.000
  0.000  0.360  0.000  0.000  0.012
  0.000  0.000  0.360  0.012  0.000
  0.000  0.000  0.012  0.398  0.000
  0.000  0.012  0.000  0.000  0.398
atom    5   Tr[ns(na)] =   5.42971
    eigenvalues: 
  0.838  0.930  0.947
    eigenvectors:
  0.337  0.000  0.663
  0.497  0.251  0.252
  0.166  0.749  0.085
    occupations:
  0.910 -0.044  0.026
 -0.044  0.889  0.024
  0.026  0.024  0.916
atom    6   Tr[ns(na)] =   5.42973
    eigenvalues: 
  0.838  0.930  0.947
    eigenvectors:
  0.337  0.000  0.663
  0.497  0.249  0.253
  0.165  0.751  0.084
    occupations:
  0.910  0.044  0.026
  0.044  0.889 -0.024
  0.026 -0.024  0.916
atom    7   Tr[ns(na)] =   5.42973
    eigenvalues: 
  0.838  0.930  0.947
    eigenvectors:
  0.337  0.000  0.663
  0.000  1.000  0.000
  0.663  0.000  0.337
    occupations:
  0.910  0.000 -0.051
  0.000  0.930  0.000
 -0.051  0.000  0.875
atom    8   Tr[ns(na)] =   5.42972
    eigenvalues: 
  0.838  0.930  0.947
    eigenvectors:
  0.337  0.000  0.663
  0.497  0.251  0.252
  0.166  0.749  0.085
    occupations:
  0.910 -0.044  0.026
 -0.044  0.889  0.024
  0.026  0.024  0.916
atom    9   Tr[ns(na)] =   5.42973
    eigenvalues: 
  0.838  0.930  0.947
    eigenvectors:
  0.337  0.000  0.663
  0.497  0.249  0.253
  0.165  0.751  0.084
    occupations:
  0.910  0.044  0.026
  0.044  0.889 -0.024
  0.026 -0.024  0.916
atom   10   Tr[ns(na)] =   5.42973
    eigenvalues: 
  0.838  0.930  0.947
    eigenvectors:
  0.337  0.000  0.663
  0.000  1.000  0.000
  0.663  0.000  0.337
    occupations:
  0.910  0.000 -0.051
  0.000  0.930  0.000
 -0.051  0.000  0.875
N of occupied +U levels =  56.2931575
 --- exit write_ns ---
 --- in v_hubbard ---
Hubbard energy    0.3039
 -------

     total cpu time spent up to now is      229.5 secs

     total energy              =    -537.99846098 Ry
     Harris-Foulkes estimate   =    -537.99839275 Ry
     estimated scf accuracy    <       0.00021509 Ry

     iteration #  6     ecut=    30.00 Ry     beta=0.20
     Davidson diagonalization with overlap
     ethr =  2.83E-07,  avg # of iterations =  1.2
 --- enter write_ns ---
 LDA+U parameters:
U( 1)     =  4.00000000
alpha( 1) =  0.00000000
U( 2)     =  0.00000000
alpha( 2) =  0.00000000
U( 3)     =  0.00000000
alpha( 3) =  0.00000000
U( 4)     =  0.00000000
alpha( 4) =  0.00000000
atom    1   Tr[ns(na)] =   8.05264
    eigenvalues: 
  0.524  0.524  0.992  0.992  0.995
    eigenvectors:
  0.000  0.000  0.000  0.000  1.000
  0.023  0.636  0.197  0.144  0.000
  0.636  0.023  0.144  0.197  0.000
  0.243  0.098  0.069  0.590  0.000
  0.098  0.243  0.590  0.069  0.000
    occupations:
  0.995  0.000  0.000  0.000  0.000
  0.000  0.684  0.000 -0.082  0.206
  0.000  0.000  0.684  0.206  0.082
  0.000 -0.082  0.206  0.832  0.000
  0.000  0.206  0.082  0.000  0.832
atom    2   Tr[ns(na)] =   8.05088
    eigenvalues: 
  0.523  0.523  0.993  0.993  0.995
    eigenvectors:
  0.000  0.000  0.000  0.000  1.000
  0.411  0.247  0.001  0.341  0.000
  0.247  0.411  0.341  0.001  0.000
  0.253  0.089  0.587  0.072  0.000
  0.089  0.253  0.072  0.587  0.000
    occupations:
  0.995  0.000  0.000  0.000  0.000
  0.000  0.683  0.000  0.082  0.207
  0.000  0.000  0.683  0.207 -0.082
  0.000  0.082  0.207  0.832  0.000
  0.000  0.207 -0.082  0.000  0.832
atom    3   Tr[ns(na)] =   3.79589
    eigenvalues: 
  0.356  0.356  0.382  0.402  0.402
    eigenvectors:
  0.000  0.000  1.000  0.000  0.000
  0.003  0.919  0.000  0.071  0.007
  0.919  0.003  0.000  0.007  0.071
  0.078  0.000  0.000  0.088  0.834
  0.000  0.078  0.000  0.834  0.088
    occupations:
  0.382  0.000  0.000  0.000  0.000
  0.000  0.360  0.000  0.000  0.012
  0.000  0.000  0.360  0.012  0.000
  0.000  0.000  0.012  0.398  0.000
  0.000  0.012  0.000  0.000  0.398
atom    4   Tr[ns(na)] =   3.79589
    eigenvalues: 
  0.356  0.356  0.382  0.402  0.402
    eigenvectors:
  0.000  0.000  1.000  0.000  0.000
  0.692  0.229  0.000  0.077  0.002
  0.229  0.692  0.000  0.002  0.077
  0.020  0.058  0.000  0.024  0.898
  0.058  0.020  0.000  0.898  0.024
    occupations:
  0.382  0.000  0.000  0.000  0.000
  0.000  0.360  0.000  0.000  0.012
  0.000  0.000  0.360  0.012  0.000
  0.000  0.000  0.012  0.398  0.000
  0.000  0.012  0.000  0.000  0.398
atom    5   Tr[ns(na)] =   5.43257
    eigenvalues: 
  0.839  0.930  0.947
    eigenvectors:
  0.337  0.000  0.663
  0.497  0.251  0.252
  0.166  0.749  0.085
    occupations:
  0.911 -0.044  0.026
 -0.044  0.889  0.024
  0.026  0.024  0.916
atom    6   Tr[ns(na)] =   5.43258
    eigenvalues: 
  0.839  0.930  0.947
    eigenvectors:
  0.337  0.000  0.663
  0.498  0.249  0.253
  0.165  0.751  0.084
    occupations:
  0.911  0.044  0.025
  0.044  0.889 -0.023
  0.025 -0.023  0.916
atom    7   Tr[ns(na)] =   5.43258
    eigenvalues: 
  0.839  0.930  0.947
    eigenvectors:
  0.337  0.000  0.663
  0.000  1.000  0.000
  0.663  0.000  0.337
    occupations:
  0.911  0.000 -0.051
  0.000  0.930  0.000
 -0.051  0.000  0.876
atom    8   Tr[ns(na)] =   5.43257
    eigenvalues: 
  0.839  0.930  0.947
    eigenvectors:
  0.337  0.000  0.663
  0.497  0.251  0.252
  0.166  0.749  0.085
    occupations:
  0.911 -0.044  0.026
 -0.044  0.889  0.024
  0.026  0.024  0.916
atom    9   Tr[ns(na)] =   5.43258
    eigenvalues: 
  0.839  0.930  0.947
    eigenvectors:
  0.337  0.000  0.663
  0.498  0.249  0.253
  0.165  0.751  0.084
    occupations:
  0.911  0.044  0.025
  0.044  0.889 -0.023
  0.025 -0.023  0.916
atom   10   Tr[ns(na)] =   5.43257
    eigenvalues: 
  0.839  0.930  0.947
    eigenvectors:
  0.337  0.000  0.663
  0.000  1.000  0.000
  0.663  0.000  0.337
    occupations:
  0.911  0.000 -0.051
  0.000  0.930  0.000
 -0.051  0.000  0.876
N of occupied +U levels =  56.2907458
 --- exit write_ns ---
 --- in v_hubbard ---
Hubbard energy    0.3044
 -------

     total cpu time spent up to now is      256.4 secs

     total energy              =    -537.99853982 Ry
     Harris-Foulkes estimate   =    -537.99848359 Ry
     estimated scf accuracy    <       0.00005742 Ry

     iteration #  7     ecut=    30.00 Ry     beta=0.20
     Davidson diagonalization with overlap
     ethr =  7.55E-08,  avg # of iterations =  2.2
 --- enter write_ns ---
 LDA+U parameters:
U( 1)     =  4.00000000
alpha( 1) =  0.00000000
U( 2)     =  0.00000000
alpha( 2) =  0.00000000
U( 3)     =  0.00000000
alpha( 3) =  0.00000000
U( 4)     =  0.00000000
alpha( 4) =  0.00000000
atom    1   Tr[ns(na)] =   8.05043
    eigenvalues: 
  0.523  0.523  0.992  0.992  0.995
    eigenvectors:
  0.000  0.000  0.000  0.000  1.000
  0.016  0.642  0.178  0.164  0.000
  0.642  0.016  0.164  0.178  0.000
  0.252  0.090  0.093  0.565  0.000
  0.090  0.252  0.565  0.093  0.000
    occupations:
  0.995  0.000  0.000  0.000  0.000
  0.000  0.683  0.000 -0.082  0.207
  0.000  0.000  0.683  0.207  0.082
  0.000 -0.082  0.207  0.832  0.000
  0.000  0.207  0.082  0.000  0.832
atom    2   Tr[ns(na)] =   8.04735
    eigenvalues: 
  0.522  0.522  0.993  0.993  0.995
    eigenvectors:
  0.000  0.000  0.000  0.000  1.000
  0.377  0.281  0.006  0.336  0.000
  0.281  0.377  0.336  0.006  0.000
  0.269  0.073  0.619  0.039  0.000
  0.073  0.269  0.039  0.619  0.000
    occupations:
  0.995  0.000  0.000  0.000  0.000
  0.000  0.683  0.000  0.082  0.208
  0.000  0.000  0.683  0.208 -0.082
  0.000  0.082  0.208  0.832  0.000
  0.000  0.208 -0.082  0.000  0.832
atom    3   Tr[ns(na)] =   3.79171
    eigenvalues: 
  0.356  0.356  0.381  0.401  0.401
    eigenvectors:
  0.000  0.000  1.000  0.000  0.000
  0.026  0.895  0.000  0.070  0.010
  0.895  0.026  0.000  0.010  0.070
  0.077  0.002  0.000  0.118  0.803
  0.002  0.077  0.000  0.803  0.118
    occupations:
  0.381  0.000  0.000  0.000  0.000
  0.000  0.359  0.000  0.000  0.012
  0.000  0.000  0.359  0.012  0.000
  0.000  0.000  0.012  0.398  0.000
  0.000  0.012  0.000  0.000  0.398
atom    4   Tr[ns(na)] =   3.79170
    eigenvalues: 
  0.356  0.356  0.381  0.401  0.401
    eigenvectors:
  0.000  0.000  1.000  0.000  0.000
  0.730  0.191  0.000  0.056  0.023
  0.191  0.729  0.000  0.023  0.056
  0.017  0.062  0.000  0.262  0.659
  0.062  0.017  0.000  0.659  0.262
    occupations:
  0.381  0.000  0.000  0.000  0.000
  0.000  0.359  0.000  0.000  0.012
  0.000  0.000  0.359  0.012  0.000
  0.000  0.000  0.012  0.398  0.000
  0.000  0.012  0.000  0.000  0.398
atom    5   Tr[ns(na)] =   5.43432
    eigenvalues: 
  0.840  0.930  0.947
    eigenvectors:
  0.337  0.000  0.663
  0.497  0.251  0.252
  0.166  0.749  0.085
    occupations:
  0.911 -0.044  0.026
 -0.044  0.890  0.023
  0.026  0.023  0.917
atom    6   Tr[ns(na)] =   5.43433
    eigenvalues: 
  0.840  0.930  0.947
    eigenvectors:
  0.337  0.000  0.663
  0.497  0.249  0.254
  0.165  0.751  0.084
    occupations:
  0.911  0.044  0.025
  0.044  0.889 -0.023
  0.025 -0.023  0.917
atom    7   Tr[ns(na)] =   5.43434
    eigenvalues: 
  0.840  0.930  0.947
    eigenvectors:
  0.337  0.000  0.663
  0.000  1.000  0.000
  0.663  0.000  0.337
    occupations:
  0.911  0.000 -0.051
  0.000  0.930  0.000
 -0.051  0.000  0.876
atom    8   Tr[ns(na)] =   5.43433
    eigenvalues: 
  0.840  0.930  0.947
    eigenvectors:
  0.337  0.000  0.663
  0.497  0.251  0.252
  0.166  0.749  0.085
    occupations:
  0.911 -0.044  0.026
 -0.044  0.890  0.023
  0.026  0.023  0.917
atom    9   Tr[ns(na)] =   5.43433
    eigenvalues: 
  0.840  0.930  0.947
    eigenvectors:
  0.337  0.000  0.663
  0.497  0.249  0.254
  0.165  0.751  0.084
    occupations:
  0.911  0.044  0.025
  0.044  0.889 -0.023
  0.025 -0.023  0.917
atom   10   Tr[ns(na)] =   5.43433
    eigenvalues: 
  0.840  0.930  0.947
    eigenvectors:
  0.337  0.000  0.663
  0.000  1.000  0.000
  0.663  0.000  0.337
    occupations:
  0.911  0.000 -0.051
  0.000  0.930  0.000
 -0.051  0.000  0.876
N of occupied +U levels =  56.2871634
 --- exit write_ns ---
 --- in v_hubbard ---
Hubbard energy    0.3045
 -------

     total cpu time spent up to now is      288.8 secs

     total energy              =    -537.99860909 Ry
     Harris-Foulkes estimate   =    -537.99855454 Ry
     estimated scf accuracy    <       0.00004312 Ry

     iteration #  8     ecut=    30.00 Ry     beta=0.20
     Davidson diagonalization with overlap
     ethr =  5.67E-08,  avg # of iterations =  1.0
 --- enter write_ns ---
 LDA+U parameters:
U( 1)     =  4.00000000
alpha( 1) =  0.00000000
U( 2)     =  0.00000000
alpha( 2) =  0.00000000
U( 3)     =  0.00000000
alpha( 3) =  0.00000000
U( 4)     =  0.00000000
alpha( 4) =  0.00000000
atom    1   Tr[ns(na)] =   8.05156
    eigenvalues: 
  0.523  0.523  0.992  0.992  0.995
    eigenvectors:
  0.000  0.000  0.000  0.000  1.000
  0.018  0.640  0.183  0.159  0.000
  0.640  0.018  0.159  0.183  0.000
  0.249  0.093  0.086  0.572  0.000
  0.093  0.249  0.572  0.086  0.000
    occupations:
  0.995  0.000  0.000  0.000  0.000
  0.000  0.684  0.000 -0.082  0.206
  0.000  0.000  0.684  0.206  0.082
  0.000 -0.082  0.206  0.832  0.000
  0.000  0.206  0.082  0.000  0.832
atom    2   Tr[ns(na)] =   8.04909
    eigenvalues: 
  0.522  0.522  0.993  0.993  0.995
    eigenvectors:
  0.000  0.000  0.000  0.000  1.000
  0.406  0.252  0.007  0.335  0.000
  0.252  0.406  0.335  0.007  0.000
  0.256  0.086  0.623  0.036  0.000
  0.086  0.256  0.036  0.623  0.000
    occupations:
  0.995  0.000  0.000  0.000  0.000
  0.000  0.683  0.000  0.082  0.207
  0.000  0.000  0.683  0.207 -0.082
  0.000  0.082  0.207  0.832  0.000
  0.000  0.207 -0.082  0.000  0.832
atom    3   Tr[ns(na)] =   3.79305
    eigenvalues: 
  0.356  0.356  0.381  0.402  0.402
    eigenvectors:
  0.000  0.000  1.000  0.000  0.000
  0.091  0.830  0.000  0.000  0.079
  0.830  0.091  0.000  0.079  0.000
  0.071  0.008  0.000  0.920  0.001
  0.008  0.071  0.000  0.001  0.920
    occupations:
  0.381  0.000  0.000  0.000  0.000
  0.000  0.360  0.000  0.000  0.012
  0.000  0.000  0.360  0.012  0.000
  0.000  0.000  0.012  0.398  0.000
  0.000  0.012  0.000  0.000  0.398
atom    4   Tr[ns(na)] =   3.79305
    eigenvalues: 
  0.356  0.356  0.381  0.402  0.402
    eigenvectors:
  0.000  0.000  1.000  0.000  0.000
  0.792  0.129  0.000  0.008  0.071
  0.129  0.792  0.000  0.071  0.008
  0.012  0.067  0.000  0.820  0.101
  0.067  0.012  0.000  0.101  0.820
    occupations:
  0.381  0.000  0.000  0.000  0.000
  0.000  0.360  0.000  0.000  0.012
  0.000  0.000  0.360  0.012  0.000
  0.000  0.000  0.012  0.398  0.000
  0.000  0.012  0.000  0.000  0.398
atom    5   Tr[ns(na)] =   5.43358
    eigenvalues: 
  0.839  0.930  0.947
    eigenvectors:
  0.337  0.000  0.663
  0.497  0.251  0.252
  0.166  0.749  0.085
    occupations:
  0.911 -0.044  0.026
 -0.044  0.889  0.023
  0.026  0.023  0.916
atom    6   Tr[ns(na)] =   5.43359
    eigenvalues: 
  0.839  0.930  0.947
    eigenvectors:
  0.337  0.000  0.663
  0.497  0.249  0.254
  0.165  0.751  0.084
    occupations:
  0.911  0.044  0.025
  0.044  0.889 -0.023
  0.025 -0.023  0.917
atom    7   Tr[ns(na)] =   5.43359
    eigenvalues: 
  0.839  0.930  0.947
    eigenvectors:
  0.337  0.000  0.663
  0.000  1.000  0.000
  0.663  0.000  0.337
    occupations:
  0.911  0.000 -0.051
  0.000  0.930  0.000
 -0.051  0.000  0.876
atom    8   Tr[ns(na)] =   5.43358
    eigenvalues: 
  0.839  0.930  0.947
    eigenvectors:
  0.337  0.000  0.663
  0.497  0.251  0.252
  0.166  0.749  0.085
    occupations:
  0.911 -0.044  0.026
 -0.044  0.889  0.023
  0.026  0.023  0.916
atom    9   Tr[ns(na)] =   5.43359
    eigenvalues: 
  0.839  0.930  0.947
    eigenvectors:
  0.337  0.000  0.663
  0.497  0.249  0.254
  0.165  0.751  0.084
    occupations:
  0.911  0.044  0.025
  0.044  0.889 -0.023
  0.025 -0.023  0.917
atom   10   Tr[ns(na)] =   5.43359
    eigenvalues: 
  0.839  0.930  0.947
    eigenvectors:
  0.337  0.000  0.663
  0.000  1.000  0.000
  0.663  0.000  0.337
    occupations:
  0.911  0.000 -0.051
  0.000  0.930  0.000
 -0.051  0.000  0.876
N of occupied +U levels =  56.2882630
 --- exit write_ns ---
 --- in v_hubbard ---
Hubbard energy    0.3050
 -------

     total cpu time spent up to now is      315.3 secs

     total energy              =    -537.99864581 Ry
     Harris-Foulkes estimate   =    -537.99861116 Ry
     estimated scf accuracy    <       0.00001220 Ry

     iteration #  9     ecut=    30.00 Ry     beta=0.20
     Davidson diagonalization with overlap
     ethr =  1.60E-08,  avg # of iterations =  2.0
 --- enter write_ns ---
 LDA+U parameters:
U( 1)     =  4.00000000
alpha( 1) =  0.00000000
U( 2)     =  0.00000000
alpha( 2) =  0.00000000
U( 3)     =  0.00000000
alpha( 3) =  0.00000000
U( 4)     =  0.00000000
alpha( 4) =  0.00000000
atom    1   Tr[ns(na)] =   8.05316
    eigenvalues: 
  0.524  0.524  0.992  0.992  0.995
    eigenvectors:
  0.000  0.000  0.000  0.000  1.000
  0.020  0.638  0.183  0.159  0.000
  0.638  0.020  0.159  0.183  0.000
  0.246  0.095  0.086  0.572  0.000
  0.095  0.246  0.572  0.086  0.000
    occupations:
  0.995  0.000  0.000  0.000  0.000
  0.000  0.684  0.000 -0.082  0.206
  0.000  0.000  0.684  0.206  0.082
  0.000 -0.082  0.206  0.832  0.000
  0.000  0.206  0.082  0.000  0.832
atom    2   Tr[ns(na)] =   8.05068
    eigenvalues: 
  0.522  0.522  0.993  0.993  0.995
    eigenvectors:
  0.000  0.000  0.000  0.000  1.000
  0.410  0.249  0.009  0.333  0.000
  0.249  0.410  0.333  0.009  0.000
  0.254  0.088  0.628  0.030  0.000
  0.088  0.254  0.030  0.628  0.000
    occupations:
  0.995  0.000  0.000  0.000  0.000
  0.000  0.683  0.000  0.082  0.207
  0.000  0.000  0.683  0.207 -0.082
  0.000  0.082  0.207  0.832  0.000
  0.000  0.207 -0.082  0.000  0.832
atom    3   Tr[ns(na)] =   3.79450
    eigenvalues: 
  0.356  0.356  0.381  0.402  0.402
    eigenvectors:
  0.000  0.000  1.000  0.000  0.000
  0.061  0.860  0.000  0.048  0.030
  0.860  0.061  0.000  0.030  0.048
  0.073  0.006  0.000  0.364  0.557
  0.006  0.073  0.000  0.557  0.364
    occupations:
  0.381  0.000  0.000  0.000  0.000
  0.000  0.360  0.000  0.000  0.012
  0.000  0.000  0.360  0.012  0.000
  0.000  0.000  0.012  0.398  0.000
  0.000  0.012  0.000  0.000  0.398
atom    4   Tr[ns(na)] =   3.79450
    eigenvalues: 
  0.356  0.356  0.381  0.402  0.402
    eigenvectors:
  0.000  0.000  1.000  0.000  0.000
  0.715  0.206  0.000  0.058  0.021
  0.206  0.715  0.000  0.021  0.058
  0.018  0.061  0.000  0.242  0.679
  0.061  0.018  0.000  0.679  0.242
    occupations:
  0.381  0.000  0.000  0.000  0.000
  0.000  0.360  0.000  0.000  0.012
  0.000  0.000  0.360  0.012  0.000
  0.000  0.000  0.012  0.398  0.000
  0.000  0.012  0.000  0.000  0.398
atom    5   Tr[ns(na)] =   5.43273
    eigenvalues: 
  0.839  0.930  0.947
    eigenvectors:
  0.337  0.000  0.663
  0.497  0.251  0.252
  0.166  0.749  0.085
    occupations:
  0.911 -0.044  0.026
 -0.044  0.889  0.024
  0.026  0.024  0.916
atom    6   Tr[ns(na)] =   5.43274
    eigenvalues: 
  0.839  0.930  0.947
    eigenvectors:
  0.337  0.000  0.663
  0.497  0.249  0.254
  0.165  0.751  0.084
    occupations:
  0.911  0.044  0.025
  0.044  0.889 -0.023
  0.025 -0.023  0.916
atom    7   Tr[ns(na)] =   5.43274
    eigenvalues: 
  0.839  0.930  0.947
    eigenvectors:
  0.337  0.000  0.663
  0.000  1.000  0.000
  0.663  0.000  0.337
    occupations:
  0.911  0.000 -0.051
  0.000  0.930  0.000
 -0.051  0.000  0.876
atom    8   Tr[ns(na)] =   5.43273
    eigenvalues: 
  0.839  0.930  0.947
    eigenvectors:
  0.337  0.000  0.663
  0.497  0.251  0.252
  0.166  0.749  0.085
    occupations:
  0.911 -0.044  0.026
 -0.044  0.889  0.024
  0.026  0.024  0.916
atom    9   Tr[ns(na)] =   5.43274
    eigenvalues: 
  0.839  0.930  0.947
    eigenvectors:
  0.337  0.000  0.663
  0.497  0.249  0.254
  0.165  0.751  0.084
    occupations:
  0.911  0.044  0.025
  0.044  0.889 -0.023
  0.025 -0.023  0.916
atom   10   Tr[ns(na)] =   5.43273
    eigenvalues: 
  0.839  0.930  0.947
    eigenvectors:
  0.337  0.000  0.663
  0.000  1.000  0.000
  0.663  0.000  0.337
    occupations:
  0.911  0.000 -0.051
  0.000  0.930  0.000
 -0.051  0.000  0.876
N of occupied +U levels =  56.2892483
 --- exit write_ns ---
 --- in v_hubbard ---
Hubbard energy    0.3051
 -------

     total cpu time spent up to now is      347.1 secs

     total energy              =    -537.99867215 Ry
     Harris-Foulkes estimate   =    -537.99864789 Ry
     estimated scf accuracy    <       0.00000169 Ry

     iteration # 10     ecut=    30.00 Ry     beta=0.20
     Davidson diagonalization with overlap
     ethr =  2.22E-09,  avg # of iterations =  1.7
 --- enter write_ns ---
 LDA+U parameters:
U( 1)     =  4.00000000
alpha( 1) =  0.00000000
U( 2)     =  0.00000000
alpha( 2) =  0.00000000
U( 3)     =  0.00000000
alpha( 3) =  0.00000000
U( 4)     =  0.00000000
alpha( 4) =  0.00000000
atom    1   Tr[ns(na)] =   8.05344
    eigenvalues: 
  0.524  0.524  0.992  0.992  0.995
    eigenvectors:
  0.000  0.000  0.000  0.000  1.000
  0.018  0.640  0.180  0.162  0.000
  0.640  0.018  0.162  0.180  0.000
  0.249  0.093  0.090  0.568  0.000
  0.093  0.249  0.568  0.090  0.000
    occupations:
  0.995  0.000  0.000  0.000  0.000
  0.000  0.684  0.000 -0.082  0.206
  0.000  0.000  0.684  0.206  0.082
  0.000 -0.082  0.206  0.832  0.000
  0.000  0.206  0.082  0.000  0.832
atom    2   Tr[ns(na)] =   8.05099
    eigenvalues: 
  0.523  0.523  0.993  0.993  0.995
    eigenvectors:
  0.000  0.000  0.000  0.000  1.000
  0.392  0.266  0.007  0.335  0.000
  0.266  0.392  0.335  0.007  0.000
  0.262  0.080  0.622  0.036  0.000
  0.080  0.262  0.037  0.622  0.000
    occupations:
  0.995  0.000  0.000  0.000  0.000
  0.000  0.683  0.000  0.082  0.207
  0.000  0.000  0.683  0.207 -0.082
  0.000  0.082  0.207  0.832  0.000
  0.000  0.207 -0.082  0.000  0.832
atom    3   Tr[ns(na)] =   3.79416
    eigenvalues: 
  0.356  0.356  0.381  0.402  0.402
    eigenvectors:
  0.000  0.000  1.000  0.000  0.000
  0.048  0.873  0.000  0.062  0.017
  0.873  0.048  0.000  0.017  0.062
  0.075  0.004  0.000  0.204  0.717
  0.004  0.075  0.000  0.717  0.204
    occupations:
  0.381  0.000  0.000  0.000  0.000
  0.000  0.360  0.000  0.000  0.012
  0.000  0.000  0.360  0.012  0.000
  0.000  0.000  0.012  0.398  0.000
  0.000  0.012  0.000  0.000  0.398
atom    4   Tr[ns(na)] =   3.79416
    eigenvalues: 
  0.356  0.356  0.381  0.402  0.402
    eigenvectors:
  0.000  0.000  1.000  0.000  0.000
  0.707  0.214  0.000  0.074  0.005
  0.214  0.707  0.000  0.005  0.074
  0.019  0.060  0.000  0.055  0.866
  0.060  0.019  0.000  0.866  0.055
    occupations:
  0.381  0.000  0.000  0.000  0.000
  0.000  0.360  0.000  0.000  0.012
  0.000  0.000  0.360  0.012  0.000
  0.000  0.000  0.012  0.398  0.000
  0.000  0.012  0.000  0.000  0.398
atom    5   Tr[ns(na)] =   5.43271
    eigenvalues: 
  0.839  0.930  0.947
    eigenvectors:
  0.337  0.000  0.663
  0.497  0.251  0.252
  0.166  0.749  0.085
    occupations:
  0.911 -0.044  0.026
 -0.044  0.889  0.024
  0.026  0.024  0.916
atom    6   Tr[ns(na)] =   5.43272
    eigenvalues: 
  0.839  0.930  0.947
    eigenvectors:
  0.337  0.000  0.663
  0.497  0.249  0.254
  0.165  0.751  0.084
    occupations:
  0.911  0.044  0.025
  0.044  0.889 -0.023
  0.025 -0.023  0.916
atom    7   Tr[ns(na)] =   5.43272
    eigenvalues: 
  0.839  0.930  0.947
    eigenvectors:
  0.337  0.000  0.663
  0.000  1.000  0.000
  0.663  0.000  0.337
    occupations:
  0.911  0.000 -0.051
  0.000  0.930  0.000
 -0.051  0.000  0.876
atom    8   Tr[ns(na)] =   5.43271
    eigenvalues: 
  0.839  0.930  0.947
    eigenvectors:
  0.337  0.000  0.663
  0.497  0.251  0.252
  0.166  0.749  0.085
    occupations:
  0.911 -0.044  0.026
 -0.044  0.889  0.024
  0.026  0.024  0.916
atom    9   Tr[ns(na)] =   5.43272
    eigenvalues: 
  0.839  0.930  0.947
    eigenvectors:
  0.337  0.000  0.663
  0.497  0.249  0.254
  0.165  0.751  0.084
    occupations:
  0.911  0.044  0.025
  0.044  0.889 -0.023
  0.025 -0.023  0.916
atom   10   Tr[ns(na)] =   5.43272
    eigenvalues: 
  0.839  0.930  0.947
    eigenvectors:
  0.337  0.000  0.663
  0.000  1.000  0.000
  0.663  0.000  0.337
    occupations:
  0.911  0.000 -0.051
  0.000  0.930  0.000
 -0.051  0.000  0.876
N of occupied +U levels =  56.2890509
 --- exit write_ns ---
 --- in v_hubbard ---
Hubbard energy    0.3053
 -------

     total cpu time spent up to now is      374.1 secs

     total energy              =    -537.99868714 Ry
     Harris-Foulkes estimate   =    -537.99867229 Ry
     estimated scf accuracy    <       0.00000101 Ry

     iteration # 11     ecut=    30.00 Ry     beta=0.20
     Davidson diagonalization with overlap
     ethr =  1.33E-09,  avg # of iterations =  2.0
 --- enter write_ns ---
 LDA+U parameters:
U( 1)     =  4.00000000
alpha( 1) =  0.00000000
U( 2)     =  0.00000000
alpha( 2) =  0.00000000
U( 3)     =  0.00000000
alpha( 3) =  0.00000000
U( 4)     =  0.00000000
alpha( 4) =  0.00000000
atom    1   Tr[ns(na)] =   8.05284
    eigenvalues: 
  0.524  0.524  0.992  0.992  0.995
    eigenvectors:
  0.000  0.000  0.000  0.000  1.000
  0.018  0.641  0.179  0.163  0.000
  0.641  0.018  0.163  0.179  0.000
  0.250  0.092  0.091  0.567  0.000
  0.092  0.250  0.567  0.091  0.000
    occupations:
  0.995  0.000  0.000  0.000  0.000
  0.000  0.684  0.000 -0.083  0.206
  0.000  0.000  0.684  0.206  0.083
  0.000 -0.083  0.206  0.832  0.000
  0.000  0.206  0.083  0.000  0.832
atom    2   Tr[ns(na)] =   8.05016
    eigenvalues: 
  0.522  0.522  0.993  0.993  0.995
    eigenvectors:
  0.000  0.000  0.000  0.000  1.000
  0.380  0.278  0.007  0.335  0.000
  0.278  0.380  0.335  0.007  0.000
  0.268  0.074  0.623  0.035  0.000
  0.074  0.268  0.035  0.623  0.000
    occupations:
  0.995  0.000  0.000  0.000  0.000
  0.000  0.683  0.000  0.082  0.207
  0.000  0.000  0.683  0.207 -0.082
  0.000  0.082  0.207  0.832  0.000
  0.000  0.207 -0.082  0.000  0.832
atom    3   Tr[ns(na)] =   3.79362
    eigenvalues: 
  0.356  0.356  0.381  0.402  0.402
    eigenvectors:
  0.000  0.000  1.000  0.000  0.000
  0.047  0.874  0.000  0.054  0.025
  0.874  0.047  0.000  0.025  0.054
  0.075  0.004  0.000  0.301  0.620
  0.004  0.075  0.000  0.620  0.301
    occupations:
  0.381  0.000  0.000  0.000  0.000
  0.000  0.360  0.000  0.000  0.012
  0.000  0.000  0.360  0.012  0.000
  0.000  0.000  0.012  0.398  0.000
  0.000  0.012  0.000  0.000  0.398
atom    4   Tr[ns(na)] =   3.79362
    eigenvalues: 
  0.356  0.356  0.381  0.402  0.402
    eigenvectors:
  0.000  0.000  1.000  0.000  0.000
  0.721  0.200  0.000  0.050  0.029
  0.200  0.721  0.000  0.029  0.050
  0.018  0.061  0.000  0.330  0.591
  0.061  0.018  0.000  0.591  0.330
    occupations:
  0.381  0.000  0.000  0.000  0.000
  0.000  0.360  0.000  0.000  0.012
  0.000  0.000  0.360  0.012  0.000
  0.000  0.000  0.012  0.398  0.000
  0.000  0.012  0.000  0.000  0.398
atom    5   Tr[ns(na)] =   5.43304
    eigenvalues: 
  0.839  0.930  0.947
    eigenvectors:
  0.337  0.000  0.663
  0.497  0.251  0.252
  0.166  0.749  0.085
    occupations:
  0.911 -0.044  0.026
 -0.044  0.889  0.024
  0.026  0.024  0.916
atom    6   Tr[ns(na)] =   5.43306
    eigenvalues: 
  0.839  0.930  0.947
    eigenvectors:
  0.337  0.000  0.663
  0.497  0.249  0.254
  0.165  0.751  0.084
    occupations:
  0.911  0.044  0.025
  0.044  0.889 -0.023
  0.025 -0.023  0.916
atom    7   Tr[ns(na)] =   5.43306
    eigenvalues: 
  0.839  0.930  0.947
    eigenvectors:
  0.337  0.000  0.663
  0.000  1.000  0.000
  0.663  0.000  0.337
    occupations:
  0.911  0.000 -0.051
  0.000  0.930  0.000
 -0.051  0.000  0.876
atom    8   Tr[ns(na)] =   5.43305
    eigenvalues: 
  0.839  0.930  0.947
    eigenvectors:
  0.337  0.000  0.663
  0.497  0.251  0.252
  0.166  0.749  0.085
    occupations:
  0.911 -0.044  0.026
 -0.044  0.889  0.024
  0.026  0.024  0.916
atom    9   Tr[ns(na)] =   5.43305
    eigenvalues: 
  0.839  0.930  0.947
    eigenvectors:
  0.337  0.000  0.663
  0.497  0.249  0.254
  0.165  0.751  0.084
    occupations:
  0.911  0.044  0.025
  0.044  0.889 -0.023
  0.025 -0.023  0.916
atom   10   Tr[ns(na)] =   5.43305
    eigenvalues: 
  0.839  0.930  0.947
    eigenvectors:
  0.337  0.000  0.663
  0.000  1.000  0.000
  0.663  0.000  0.337
    occupations:
  0.911  0.000 -0.051
  0.000  0.930  0.000
 -0.051  0.000  0.876
N of occupied +U levels =  56.2885502
 --- exit write_ns ---
 --- in v_hubbard ---
Hubbard energy    0.3053
 -------

     total cpu time spent up to now is      404.7 secs

     total energy              =    -537.99869777 Ry
     Harris-Foulkes estimate   =    -537.99868747 Ry
     estimated scf accuracy    <       0.00000034 Ry

     iteration # 12     ecut=    30.00 Ry     beta=0.20
     Davidson diagonalization with overlap
     ethr =  4.49E-10,  avg # of iterations =  2.0
 --- enter write_ns ---
 LDA+U parameters:
U( 1)     =  4.00000000
alpha( 1) =  0.00000000
U( 2)     =  0.00000000
alpha( 2) =  0.00000000
U( 3)     =  0.00000000
alpha( 3) =  0.00000000
U( 4)     =  0.00000000
alpha( 4) =  0.00000000
atom    1   Tr[ns(na)] =   8.05302
    eigenvalues: 
  0.524  0.524  0.992  0.992  0.995
    eigenvectors:
  0.000  0.000  0.000  0.000  1.000
  0.018  0.640  0.180  0.161  0.000
  0.640  0.018  0.161  0.180  0.000
  0.249  0.093  0.089  0.569  0.000
  0.093  0.249  0.569  0.089  0.000
    occupations:
  0.995  0.000  0.000  0.000  0.000
  0.000  0.684  0.000 -0.083  0.206
  0.000  0.000  0.684  0.206  0.083
  0.000 -0.083  0.206  0.832  0.000
  0.000  0.206  0.083  0.000  0.832
atom    2   Tr[ns(na)] =   8.05046
    eigenvalues: 
  0.522  0.522  0.993  0.993  0.995
    eigenvectors:
  0.000  0.000  0.000  0.000  1.000
  0.388  0.271  0.008  0.334  0.000
  0.271  0.388  0.334  0.008  0.000
  0.264  0.077  0.624  0.034  0.000
  0.077  0.264  0.034  0.624  0.000
    occupations:
  0.995  0.000  0.000  0.000  0.000
  0.000  0.683  0.000  0.082  0.207
  0.000  0.000  0.683  0.207 -0.082
  0.000  0.082  0.207  0.832  0.000
  0.000  0.207 -0.082  0.000  0.832
atom    3   Tr[ns(na)] =   3.79382
    eigenvalues: 
  0.356  0.356  0.381  0.402  0.402
    eigenvectors:
  0.000  0.000  1.000  0.000  0.000
  0.056  0.865  0.000  0.045  0.034
  0.865  0.056  0.000  0.034  0.045
  0.074  0.005  0.000  0.403  0.518
  0.005  0.074  0.000  0.518  0.403
    occupations:
  0.381  0.000  0.000  0.000  0.000
  0.000  0.360  0.000  0.000  0.012
  0.000  0.000  0.360  0.012  0.000
  0.000  0.000  0.012  0.398  0.000
  0.000  0.012  0.000  0.000  0.398
atom    4   Tr[ns(na)] =   3.79382
    eigenvalues: 
  0.356  0.356  0.381  0.402  0.402
    eigenvectors:
  0.000  0.000  1.000  0.000  0.000
  0.725  0.197  0.000  0.039  0.040
  0.197  0.725  0.000  0.040  0.039
  0.017  0.062  0.000  0.462  0.459
  0.062  0.017  0.000  0.459  0.462
    occupations:
  0.381  0.000  0.000  0.000  0.000
  0.000  0.360  0.000  0.000  0.012
  0.000  0.000  0.360  0.012  0.000
  0.000  0.000  0.012  0.398  0.000
  0.000  0.012  0.000  0.000  0.398
atom    5   Tr[ns(na)] =   5.43293
    eigenvalues: 
  0.839  0.930  0.947
    eigenvectors:
  0.337  0.000  0.663
  0.497  0.251  0.252
  0.166  0.749  0.085
    occupations:
  0.911 -0.044  0.026
 -0.044  0.889  0.024
  0.026  0.024  0.916
atom    6   Tr[ns(na)] =   5.43294
    eigenvalues: 
  0.839  0.930  0.947
    eigenvectors:
  0.337  0.000  0.663
  0.497  0.249  0.254
  0.165  0.751  0.084
    occupations:
  0.911  0.044  0.025
  0.044  0.889 -0.023
  0.025 -0.023  0.916
atom    7   Tr[ns(na)] =   5.43294
    eigenvalues: 
  0.839  0.930  0.947
    eigenvectors:
  0.337  0.000  0.663
  0.000  1.000  0.000
  0.663  0.000  0.337
    occupations:
  0.911  0.000 -0.051
  0.000  0.930  0.000
 -0.051  0.000  0.876
atom    8   Tr[ns(na)] =   5.43293
    eigenvalues: 
  0.839  0.930  0.947
    eigenvectors:
  0.337  0.000  0.663
  0.497  0.251  0.252
  0.166  0.749  0.085
    occupations:
  0.911 -0.044  0.026
 -0.044  0.889  0.024
  0.026  0.024  0.916
atom    9   Tr[ns(na)] =   5.43294
    eigenvalues: 
  0.839  0.930  0.947
    eigenvectors:
  0.337  0.000  0.663
  0.497  0.249  0.254
  0.165  0.751  0.084
    occupations:
  0.911  0.044  0.025
  0.044  0.889 -0.023
  0.025 -0.023  0.916
atom   10   Tr[ns(na)] =   5.43294
    eigenvalues: 
  0.839  0.930  0.947
    eigenvectors:
  0.337  0.000  0.663
  0.000  1.000  0.000
  0.663  0.000  0.337
    occupations:
  0.911  0.000 -0.051
  0.000  0.930  0.000
 -0.051  0.000  0.876
N of occupied +U levels =  56.2887172
 --- exit write_ns ---
 --- in v_hubbard ---
Hubbard energy    0.3052
 -------

     total cpu time spent up to now is      430.5 secs

     total energy              =    -537.99870442 Ry
     Harris-Foulkes estimate   =    -537.99869781 Ry
     estimated scf accuracy    <       0.00000006 Ry

     iteration # 13     ecut=    30.00 Ry     beta=0.20
     Davidson diagonalization with overlap
     ethr =  8.10E-11,  avg # of iterations =  2.2
 --- enter write_ns ---
 LDA+U parameters:
U( 1)     =  4.00000000
alpha( 1) =  0.00000000
U( 2)     =  0.00000000
alpha( 2) =  0.00000000
U( 3)     =  0.00000000
alpha( 3) =  0.00000000
U( 4)     =  0.00000000
alpha( 4) =  0.00000000
atom    1   Tr[ns(na)] =   8.05299
    eigenvalues: 
  0.524  0.524  0.992  0.992  0.995
    eigenvectors:
  0.000  0.000  0.000  0.000  1.000
  0.020  0.639  0.182  0.160  0.000
  0.639  0.020  0.160  0.182  0.000
  0.247  0.095  0.087  0.571  0.000
  0.095  0.247  0.571  0.087  0.000
    occupations:
  0.995  0.000  0.000  0.000  0.000
  0.000  0.684  0.000 -0.083  0.206
  0.000  0.000  0.684  0.206  0.083
  0.000 -0.083  0.206  0.832  0.000
  0.000  0.206  0.083  0.000  0.832
atom    2   Tr[ns(na)] =   8.05045
    eigenvalues: 
  0.522  0.522  0.993  0.993  0.995
    eigenvectors:
  0.000  0.000  0.000  0.000  1.000
  0.390  0.268  0.009  0.333  0.000
  0.268  0.390  0.333  0.009  0.000
  0.263  0.079  0.627  0.031  0.000
  0.079  0.263  0.031  0.627  0.000
    occupations:
  0.995  0.000  0.000  0.000  0.000
  0.000  0.683  0.000  0.082  0.207
  0.000  0.000  0.683  0.207 -0.082
  0.000  0.082  0.207  0.832  0.000
  0.000  0.207 -0.082  0.000  0.832
atom    3   Tr[ns(na)] =   3.79399
    eigenvalues: 
  0.356  0.356  0.381  0.402  0.402
    eigenvectors:
  0.000  0.000  1.000  0.000  0.000
  0.055  0.866  0.000  0.055  0.024
  0.866  0.055  0.000  0.024  0.055
  0.074  0.005  0.000  0.286  0.635
  0.005  0.074  0.000  0.635  0.286
    occupations:
  0.381  0.000  0.000  0.000  0.000
  0.000  0.360  0.000  0.000  0.012
  0.000  0.000  0.360  0.012  0.000
  0.000  0.000  0.012  0.398  0.000
  0.000  0.012  0.000  0.000  0.398
atom    4   Tr[ns(na)] =   3.79398
    eigenvalues: 
  0.356  0.356  0.381  0.402  0.402
    eigenvectors:
  0.000  0.000  1.000  0.000  0.000
  0.722  0.199  0.000  0.055  0.024
  0.199  0.722  0.000  0.024  0.055
  0.018  0.061  0.000  0.267  0.654
  0.061  0.018  0.000  0.654  0.267
    occupations:
  0.381  0.000  0.000  0.000  0.000
  0.000  0.360  0.000  0.000  0.012
  0.000  0.000  0.360  0.012  0.000
  0.000  0.000  0.012  0.398  0.000
  0.000  0.012  0.000  0.000  0.398
atom    5   Tr[ns(na)] =   5.43289
    eigenvalues: 
  0.839  0.930  0.947
    eigenvectors:
  0.337  0.000  0.663
  0.497  0.251  0.252
  0.166  0.749  0.085
    occupations:
  0.911 -0.044  0.026
 -0.044  0.889  0.024
  0.026  0.024  0.916
atom    6   Tr[ns(na)] =   5.43291
    eigenvalues: 
  0.839  0.930  0.947
    eigenvectors:
  0.337  0.000  0.663
  0.497  0.249  0.254
  0.165  0.751  0.084
    occupations:
  0.911  0.044  0.025
  0.044  0.889 -0.023
  0.025 -0.023  0.916
atom    7   Tr[ns(na)] =   5.43291
    eigenvalues: 
  0.839  0.930  0.947
    eigenvectors:
  0.337  0.000  0.663
  0.000  1.000  0.000
  0.663  0.000  0.337
    occupations:
  0.911  0.000 -0.051
  0.000  0.930  0.000
 -0.051  0.000  0.876
atom    8   Tr[ns(na)] =   5.43290
    eigenvalues: 
  0.839  0.930  0.947
    eigenvectors:
  0.337  0.000  0.663
  0.497  0.251  0.252
  0.166  0.749  0.085
    occupations:
  0.911 -0.044  0.026
 -0.044  0.889  0.024
  0.026  0.024  0.916
atom    9   Tr[ns(na)] =   5.43290
    eigenvalues: 
  0.839  0.930  0.947
    eigenvectors:
  0.337  0.000  0.663
  0.497  0.249  0.254
  0.165  0.751  0.084
    occupations:
  0.911  0.044  0.025
  0.044  0.889 -0.023
  0.025 -0.023  0.916
atom   10   Tr[ns(na)] =   5.43290
    eigenvalues: 
  0.839  0.930  0.947
    eigenvectors:
  0.337  0.000  0.663
  0.000  1.000  0.000
  0.663  0.000  0.337
    occupations:
  0.911  0.000 -0.051
  0.000  0.930  0.000
 -0.051  0.000  0.876
N of occupied +U levels =  56.2888342
 --- exit write_ns ---
 --- in v_hubbard ---
Hubbard energy    0.3052
 -------

     total cpu time spent up to now is      460.2 secs

     total energy              =    -537.99870862 Ry
     Harris-Foulkes estimate   =    -537.99870445 Ry
     estimated scf accuracy    <       0.00000003 Ry

     iteration # 14     ecut=    30.00 Ry     beta=0.20
     Davidson diagonalization with overlap
     ethr =  3.85E-11,  avg # of iterations =  1.0
 --- enter write_ns ---
 LDA+U parameters:
U( 1)     =  4.00000000
alpha( 1) =  0.00000000
U( 2)     =  0.00000000
alpha( 2) =  0.00000000
U( 3)     =  0.00000000
alpha( 3) =  0.00000000
U( 4)     =  0.00000000
alpha( 4) =  0.00000000
atom    1   Tr[ns(na)] =   8.05301
    eigenvalues: 
  0.524  0.524  0.992  0.992  0.995
    eigenvectors:
  0.000  0.000  0.000  0.000  1.000
  0.019  0.639  0.181  0.161  0.000
  0.639  0.019  0.161  0.181  0.000
  0.248  0.094  0.088  0.570  0.000
  0.094  0.248  0.570  0.088  0.000
    occupations:
  0.995  0.000  0.000  0.000  0.000
  0.000  0.684  0.000 -0.083  0.206
  0.000  0.000  0.684  0.206  0.083
  0.000 -0.083  0.206  0.832  0.000
  0.000  0.206  0.083  0.000  0.832
atom    2   Tr[ns(na)] =   8.05045
    eigenvalues: 
  0.522  0.522  0.993  0.993  0.995
    eigenvectors:
  0.000  0.000  0.000  0.000  1.000
  0.389  0.269  0.008  0.333  0.000
  0.269  0.389  0.333  0.008  0.000
  0.264  0.078  0.627  0.032  0.000
  0.078  0.264  0.032  0.627  0.000
    occupations:
  0.995  0.000  0.000  0.000  0.000
  0.000  0.683  0.000  0.082  0.207
  0.000  0.000  0.683  0.207 -0.082
  0.000  0.082  0.207  0.832  0.000
  0.000  0.207 -0.082  0.000  0.832
atom    3   Tr[ns(na)] =   3.79396
    eigenvalues: 
  0.356  0.356  0.381  0.402  0.402
    eigenvectors:
  0.000  0.000  1.000  0.000  0.000
  0.053  0.868  0.000  0.056  0.023
  0.868  0.053  0.000  0.023  0.056
  0.074  0.005  0.000  0.276  0.645
  0.005  0.074  0.000  0.645  0.276
    occupations:
  0.381  0.000  0.000  0.000  0.000
  0.000  0.360  0.000  0.000  0.012
  0.000  0.000  0.360  0.012  0.000
  0.000  0.000  0.012  0.398  0.000
  0.000  0.012  0.000  0.000  0.398
atom    4   Tr[ns(na)] =   3.79396
    eigenvalues: 
  0.356  0.356  0.381  0.402  0.402
    eigenvectors:
  0.000  0.000  1.000  0.000  0.000
  0.720  0.201  0.000  0.059  0.020
  0.201  0.720  0.000  0.020  0.059
  0.018  0.061  0.000  0.227  0.694
  0.061  0.018  0.000  0.694  0.227
    occupations:
  0.381  0.000  0.000  0.000  0.000
  0.000  0.360  0.000  0.000  0.012
  0.000  0.000  0.360  0.012  0.000
  0.000  0.000  0.012  0.398  0.000
  0.000  0.012  0.000  0.000  0.398
atom    5   Tr[ns(na)] =   5.43290
    eigenvalues: 
  0.839  0.930  0.947
    eigenvectors:
  0.337  0.000  0.663
  0.497  0.251  0.252
  0.166  0.749  0.085
    occupations:
  0.911 -0.044  0.026
 -0.044  0.889  0.024
  0.026  0.024  0.916
atom    6   Tr[ns(na)] =   5.43291
    eigenvalues: 
  0.839  0.930  0.947
    eigenvectors:
  0.337  0.000  0.663
  0.497  0.249  0.254
  0.165  0.751  0.084
    occupations:
  0.911  0.044  0.025
  0.044  0.889 -0.023
  0.025 -0.023  0.916
atom    7   Tr[ns(na)] =   5.43291
    eigenvalues: 
  0.839  0.930  0.947
    eigenvectors:
  0.337  0.000  0.663
  0.000  1.000  0.000
  0.663  0.000  0.337
    occupations:
  0.911  0.000 -0.051
  0.000  0.930  0.000
 -0.051  0.000  0.876
atom    8   Tr[ns(na)] =   5.43290
    eigenvalues: 
  0.839  0.930  0.947
    eigenvectors:
  0.337  0.000  0.663
  0.497  0.251  0.252
  0.166  0.749  0.085
    occupations:
  0.911 -0.044  0.026
 -0.044  0.889  0.024
  0.026  0.024  0.916
atom    9   Tr[ns(na)] =   5.43291
    eigenvalues: 
  0.839  0.930  0.947
    eigenvectors:
  0.337  0.000  0.663
  0.497  0.249  0.254
  0.165  0.751  0.084
    occupations:
  0.911  0.044  0.025
  0.044  0.889 -0.023
  0.025 -0.023  0.916
atom   10   Tr[ns(na)] =   5.43291
    eigenvalues: 
  0.839  0.930  0.947
    eigenvectors:
  0.337  0.000  0.663
  0.000  1.000  0.000
  0.663  0.000  0.337
    occupations:
  0.911  0.000 -0.051
  0.000  0.930  0.000
 -0.051  0.000  0.876
N of occupied +U levels =  56.2888171
 --- exit write_ns ---
 --- in v_hubbard ---
Hubbard energy    0.3052
 -------

     total cpu time spent up to now is      487.1 secs

     total energy              =    -537.99871131 Ry
     Harris-Foulkes estimate   =    -537.99870862 Ry
     estimated scf accuracy    <       0.00000002 Ry

     iteration # 15     ecut=    30.00 Ry     beta=0.20
     Davidson diagonalization with overlap
     ethr =  2.13E-11,  avg # of iterations =  2.0
 --- enter write_ns ---
 LDA+U parameters:
U( 1)     =  4.00000000
alpha( 1) =  0.00000000
U( 2)     =  0.00000000
alpha( 2) =  0.00000000
U( 3)     =  0.00000000
alpha( 3) =  0.00000000
U( 4)     =  0.00000000
alpha( 4) =  0.00000000
atom    1   Tr[ns(na)] =   8.05299
    eigenvalues: 
  0.524  0.524  0.992  0.992  0.995
    eigenvectors:
  0.000  0.000  0.000  0.000  1.000
  0.019  0.640  0.180  0.162  0.000
  0.640  0.019  0.162  0.180  0.000
  0.248  0.093  0.089  0.569  0.000
  0.093  0.248  0.569  0.089  0.000
    occupations:
  0.995  0.000  0.000  0.000  0.000
  0.000  0.684  0.000 -0.083  0.206
  0.000  0.000  0.684  0.206  0.083
  0.000 -0.083  0.206  0.832  0.000
  0.000  0.206  0.083  0.000  0.832
atom    2   Tr[ns(na)] =   8.05043
    eigenvalues: 
  0.522  0.522  0.993  0.993  0.995
    eigenvectors:
  0.000  0.000  0.000  0.000  1.000
  0.387  0.271  0.008  0.334  0.000
  0.271  0.387  0.334  0.008  0.000
  0.265  0.077  0.626  0.032  0.000
  0.077  0.265  0.032  0.626  0.000
    occupations:
  0.995  0.000  0.000  0.000  0.000
  0.000  0.683  0.000  0.082  0.207
  0.000  0.000  0.683  0.207 -0.082
  0.000  0.082  0.207  0.832  0.000
  0.000  0.207 -0.082  0.000  0.832
atom    3   Tr[ns(na)] =   3.79389
    eigenvalues: 
  0.356  0.356  0.381  0.402  0.402
    eigenvectors:
  0.000  0.000  1.000  0.000  0.000
  0.052  0.869  0.000  0.054  0.025
  0.869  0.052  0.000  0.025  0.054
  0.074  0.005  0.000  0.299  0.622
  0.005  0.074  0.000  0.622  0.299
    occupations:
  0.381  0.000  0.000  0.000  0.000
  0.000  0.360  0.000  0.000  0.012
  0.000  0.000  0.360  0.012  0.000
  0.000  0.000  0.012  0.398  0.000
  0.000  0.012  0.000  0.000  0.398
atom    4   Tr[ns(na)] =   3.79389
    eigenvalues: 
  0.356  0.356  0.381  0.402  0.402
    eigenvectors:
  0.000  0.000  1.000  0.000  0.000
  0.721  0.200  0.000  0.054  0.025
  0.200  0.721  0.000  0.025  0.054
  0.018  0.061  0.000  0.278  0.643
  0.061  0.018  0.000  0.643  0.278
    occupations:
  0.381  0.000  0.000  0.000  0.000
  0.000  0.360  0.000  0.000  0.012
  0.000  0.000  0.360  0.012  0.000
  0.000  0.000  0.012  0.398  0.000
  0.000  0.012  0.000  0.000  0.398
atom    5   Tr[ns(na)] =   5.43292
    eigenvalues: 
  0.839  0.930  0.947
    eigenvectors:
  0.337  0.000  0.663
  0.497  0.251  0.252
  0.166  0.749  0.085
    occupations:
  0.911 -0.044  0.026
 -0.044  0.889  0.024
  0.026  0.024  0.916
atom    6   Tr[ns(na)] =   5.43293
    eigenvalues: 
  0.839  0.930  0.947
    eigenvectors:
  0.337  0.000  0.663
[...]
     0.0625   0.0625   0.0625   0.0625   0.0625   0.0625   0.0625   0.0625
     0.0625   0.0625   0.0625   0.0625   0.0625   0.0625   0.0625   0.0625
     0.0625   0.0625   0.0624   0.0622   0.0612   0.0603   0.0129   0.0000
     0.0000   0.0000   0.0000   0.0000   0.0000   0.0000

          k = 0.4942-0.5706 0.1027 (  2198 PWs)   bands (ev):

   -19.7315 -19.7108  -6.9574  -6.6479  -6.1333  -5.8936  -5.5188  -5.3906
    -3.3202  -3.2610  -2.8808  -2.7105  -2.5301  -2.3857   5.7725   6.0716
     6.2110   6.8057   6.9922   7.0374   7.1414   7.3765   7.4074   7.4528
     7.9429   8.3884   8.8821   9.1929   9.5087   9.7553   9.8043  10.1823
    10.3106  10.5842  10.6862  10.7605  10.9232  11.0566  12.2771  12.7110
    13.3982  14.3249  16.9070  17.1115  17.3082  18.0154

     occupation numbers 
     0.0625   0.0625   0.0625   0.0625   0.0625   0.0625   0.0625   0.0625
     0.0625   0.0625   0.0625   0.0625   0.0625   0.0625   0.0625   0.0625
     0.0625   0.0625   0.0625   0.0625   0.0625   0.0625   0.0625   0.0625
     0.0625   0.0625   0.0625   0.0625   0.0625   0.0625   0.0625   0.0625
     0.0625   0.0625   0.0625   0.0624   0.0619   0.0607   0.0006   0.0000
     0.0000   0.0000   0.0000   0.0000   0.0000   0.0000

          k =-0.7412 0.1427-0.1027 (  2198 PWs)   bands (ev):

   -19.7315 -19.7108  -6.9569  -6.6487  -6.1323  -5.8947  -5.5178  -5.3913
    -3.3195  -3.2611  -2.8806  -2.7115  -2.5295  -2.3860   5.7757   6.0636
     6.2174   6.8032   6.9959   7.0379   7.1303   7.3871   7.4161   7.4450
     7.9381   8.3866   8.8837   9.1932   9.5111   9.7557   9.8042  10.1830
    10.3079  10.5906  10.6817  10.7620  10.9144  11.0619  12.2772  12.7113
    13.3983  14.3252  16.9052  17.1143  17.3076  18.0150

     occupation numbers 
     0.0625   0.0625   0.0625   0.0625   0.0625   0.0625   0.0625   0.0625
     0.0625   0.0625   0.0625   0.0625   0.0625   0.0625   0.0625   0.0625
     0.0625   0.0625   0.0625   0.0625   0.0625   0.0625   0.0625   0.0625
     0.0625   0.0625   0.0625   0.0625   0.0625   0.0625   0.0625   0.0625
     0.0625   0.0625   0.0625   0.0624   0.0620   0.0606   0.0006   0.0000
     0.0000   0.0000   0.0000   0.0000   0.0000   0.0000

          k = 0.2471-0.7133-0.1027 (  2198 PWs)   bands (ev):

   -19.7315 -19.7108  -6.9569  -6.6487  -6.1323  -5.8947  -5.5178  -5.3913
    -3.3195  -3.2611  -2.8806  -2.7115  -2.5295  -2.3860   5.7757   6.0636
     6.2174   6.8032   6.9959   7.0379   7.1303   7.3871   7.4161   7.4450
     7.9381   8.3866   8.8837   9.1932   9.5111   9.7557   9.8042  10.1830
    10.3079  10.5906  10.6817  10.7620  10.9144  11.0619  12.2772  12.7113
    13.3983  14.3252  16.9052  17.1143  17.3076  18.0150

     occupation numbers 
     0.0625   0.0625   0.0625   0.0625   0.0625   0.0625   0.0625   0.0625
     0.0625   0.0625   0.0625   0.0625   0.0625   0.0625   0.0625   0.0625
     0.0625   0.0625   0.0625   0.0625   0.0625   0.0625   0.0625   0.0625
     0.0625   0.0625   0.0625   0.0625   0.0625   0.0625   0.0625   0.0625
     0.0625   0.0625   0.0625   0.0624   0.0620   0.0606   0.0006   0.0000
     0.0000   0.0000   0.0000   0.0000   0.0000   0.0000

          k =-0.7412-0.1427 0.1027 (  2198 PWs)   bands (ev):

   -19.7315 -19.7108  -6.9574  -6.6479  -6.1333  -5.8936  -5.5188  -5.3907
    -3.3202  -3.2610  -2.8808  -2.7105  -2.5301  -2.3857   5.7725   6.0716
     6.2110   6.8057   6.9922   7.0374   7.1414   7.3764   7.4074   7.4528
     7.9430   8.3884   8.8821   9.1929   9.5086   9.7553   9.8043  10.1823
    10.3106  10.5842  10.6862  10.7605  10.9233  11.0566  12.2771  12.7110
    13.3982  14.3249  16.9070  17.1115  17.3082  18.0154

     occupation numbers 
     0.0625   0.0625   0.0625   0.0625   0.0625   0.0625   0.0625   0.0625
     0.0625   0.0625   0.0625   0.0625   0.0625   0.0625   0.0625   0.0625
     0.0625   0.0625   0.0625   0.0625   0.0625   0.0625   0.0625   0.0625
     0.0625   0.0625   0.0625   0.0625   0.0625   0.0625   0.0625   0.0625
     0.0625   0.0625   0.0625   0.0624   0.0619   0.0607   0.0006   0.0000
     0.0000   0.0000   0.0000   0.0000   0.0000   0.0000

          k = 0.2471 0.7133 0.1027 (  2198 PWs)   bands (ev):

   -19.7315 -19.7108  -6.9573  -6.6479  -6.1332  -5.8938  -5.5189  -5.3905
    -3.3202  -3.2610  -2.8808  -2.7105  -2.5301  -2.3856   5.7725   6.0716
     6.2110   6.8057   6.9922   7.0374   7.1414   7.3765   7.4074   7.4528
     7.9430   8.3884   8.8821   9.1929   9.5086   9.7553   9.8043  10.1824
    10.3106  10.5842  10.6862  10.7605  10.9233  11.0566  12.2771  12.7110
    13.3982  14.3249  16.9070  17.1115  17.3081  18.0154

     occupation numbers 
     0.0625   0.0625   0.0625   0.0625   0.0625   0.0625   0.0625   0.0625
     0.0625   0.0625   0.0625   0.0625   0.0625   0.0625   0.0625   0.0625
     0.0625   0.0625   0.0625   0.0625   0.0625   0.0625   0.0625   0.0625
     0.0625   0.0625   0.0625   0.0625   0.0625   0.0625   0.0625   0.0625
     0.0625   0.0625   0.0625   0.0624   0.0619   0.0607   0.0006   0.0000
     0.0000   0.0000   0.0000   0.0000   0.0000   0.0000

          k = 0.2471-0.4280 0.0000 (  2203 PWs)   bands (ev):

   -19.7433 -19.6954  -6.8486  -6.6440  -6.0549  -5.9832  -5.4446  -5.3750
    -3.5462  -3.2989  -2.8034  -2.7090  -2.5751  -2.5648   5.8256   6.0426
     6.5325   6.8485   6.8994   6.9521   7.2310   7.2816   7.3288   7.5742
     7.7098   8.6237   8.8902   9.3345   9.7196   9.7421  10.0129  10.3169
    10.3774  10.4443  10.6688  10.7091  10.7205  11.1459  12.1891  13.2891
    13.3687  14.1203  16.4341  16.9942  17.4204  17.9261

     occupation numbers 
     0.0625   0.0625   0.0625   0.0625   0.0625   0.0625   0.0625   0.0625
     0.0625   0.0625   0.0625   0.0625   0.0625   0.0625   0.0625   0.0625
     0.0625   0.0625   0.0625   0.0625   0.0625   0.0625   0.0625   0.0625
     0.0625   0.0625   0.0625   0.0625   0.0625   0.0625   0.0625   0.0625
     0.0625   0.0625   0.0625   0.0624   0.0624   0.0589   0.0013   0.0000
     0.0000   0.0000   0.0000   0.0000   0.0000   0.0000

          k =-0.4942 0.0000 0.0000 (  2203 PWs)   bands (ev):

   -19.7433 -19.6954  -6.8486  -6.6440  -6.0549  -5.9832  -5.4446  -5.3750
    -3.5462  -3.2989  -2.8034  -2.7090  -2.5751  -2.5648   5.8256   6.0426
     6.5325   6.8485   6.8994   6.9521   7.2310   7.2816   7.3288   7.5742
     7.7098   8.6237   8.8902   9.3345   9.7196   9.7421  10.0129  10.3169
    10.3774  10.4443  10.6688  10.7091  10.7205  11.1459  12.1891  13.2891
    13.3687  14.1203  16.4341  16.9942  17.4204  17.9259

     occupation numbers 
     0.0625   0.0625   0.0625   0.0625   0.0625   0.0625   0.0625   0.0625
     0.0625   0.0625   0.0625   0.0625   0.0625   0.0625   0.0625   0.0625
     0.0625   0.0625   0.0625   0.0625   0.0625   0.0625   0.0625   0.0625
     0.0625   0.0625   0.0625   0.0625   0.0625   0.0625   0.0625   0.0625
     0.0625   0.0625   0.0625   0.0624   0.0624   0.0589   0.0013   0.0000
     0.0000   0.0000   0.0000   0.0000   0.0000   0.0000

          k = 0.4942 0.2853 0.4107 (  2202 PWs)   bands (ev):

   -19.7291 -19.7160  -7.1679  -6.4537  -6.2395  -5.9724  -5.5337  -5.2995
    -3.2065  -3.1169  -3.0553  -2.6485  -2.4801  -2.2222   5.6028   5.7444
     6.0745   6.7514   7.0415   7.1438   7.2532   7.2978   7.6776   7.6894
     8.1627   8.3005   8.6016   8.9042   9.4123   9.6736  10.0287  10.0621
    10.3794  10.4791  10.6561  10.8041  10.9225  11.1901  11.7886  12.3854
    13.3011  14.7595  17.0446  17.2669  17.5194  17.6129

     occupation numbers 
     0.0313   0.0313   0.0313   0.0313   0.0313   0.0313   0.0313   0.0313
     0.0313   0.0313   0.0313   0.0313   0.0313   0.0313   0.0313   0.0313
     0.0313   0.0313   0.0313   0.0313   0.0313   0.0313   0.0313   0.0313
     0.0313   0.0313   0.0313   0.0313   0.0312   0.0312   0.0312   0.0312
     0.0312   0.0312   0.0312   0.0312   0.0310   0.0288   0.0081   0.0001
     0.0000   0.0000   0.0000   0.0000   0.0000   0.0000

          k = 0.0000 0.5706-0.4107 (  2202 PWs)   bands (ev):

   -19.7291 -19.7160  -7.1679  -6.4537  -6.2395  -5.9724  -5.5337  -5.2995
    -3.2065  -3.1169  -3.0553  -2.6485  -2.4801  -2.2222   5.6028   5.7444
     6.0745   6.7514   7.0415   7.1438   7.2532   7.2978   7.6776   7.6894
     8.1627   8.3005   8.6016   8.9042   9.4123   9.6736  10.0287  10.0621
    10.3794  10.4791  10.6561  10.8041  10.9225  11.1901  11.7886  12.3854
    13.3011  14.7595  17.0446  17.2669  17.5194  17.6129

     occupation numbers 
     0.0313   0.0313   0.0313   0.0313   0.0313   0.0313   0.0313   0.0313
     0.0313   0.0313   0.0313   0.0313   0.0313   0.0313   0.0313   0.0313
     0.0313   0.0313   0.0313   0.0313   0.0313   0.0313   0.0313   0.0313
     0.0313   0.0313   0.0313   0.0313   0.0312   0.0312   0.0312   0.0312
     0.0312   0.0312   0.0312   0.0312   0.0310   0.0288   0.0081   0.0001
     0.0000   0.0000   0.0000   0.0000   0.0000   0.0000

          k = 0.7412-0.4280 0.0000 (  2204 PWs)   bands (ev):

   -19.7426 -19.6972  -6.7343  -6.6083  -6.1458  -5.8359  -5.6945  -5.5528
    -3.1940  -3.0987  -3.0460  -2.6784  -2.6628  -2.5868   5.8650   6.3035
     6.3739   6.8893   6.9586   7.0866   7.1505   7.2612   7.3749   7.5194
     7.8399   8.4720   8.8830   9.4311   9.4921   9.6662   9.8229  10.2104
    10.4030  10.5462  10.6857  10.7921  10.8488  10.9056  12.1879  13.2099
    13.2847  14.1482  16.6864  16.7257  17.5907  17.7945

     occupation numbers 
     0.0625   0.0625   0.0625   0.0625   0.0625   0.0625   0.0625   0.0625
     0.0625   0.0625   0.0625   0.0625   0.0625   0.0625   0.0625   0.0625
     0.0625   0.0625   0.0625   0.0625   0.0625   0.0625   0.0625   0.0625
     0.0625   0.0625   0.0625   0.0625   0.0625   0.0625   0.0625   0.0625
     0.0625   0.0625   0.0625   0.0623   0.0622   0.0620   0.0013   0.0000
     0.0000   0.0000   0.0000   0.0000   0.0000   0.0000

          k = 0.0000-0.8559 0.0000 (  2204 PWs)   bands (ev):

   -19.7426 -19.6972  -6.7342  -6.6084  -6.1457  -5.8359  -5.6944  -5.5530
    -3.1940  -3.0987  -3.0460  -2.6783  -2.6627  -2.5868   5.8650   6.3035
     6.3739   6.8893   6.9586   7.0866   7.1505   7.2612   7.3749   7.5194
     7.8399   8.4720   8.8830   9.4310   9.4921   9.6662   9.8229  10.2104
    10.4030  10.5462  10.6857  10.7921  10.8488  10.9056  12.1879  13.2099
    13.2847  14.1482  16.6864  16.7257  17.5907  17.7945

     occupation numbers 
     0.0625   0.0625   0.0625   0.0625   0.0625   0.0625   0.0625   0.0625
     0.0625   0.0625   0.0625   0.0625   0.0625   0.0625   0.0625   0.0625
     0.0625   0.0625   0.0625   0.0625   0.0625   0.0625   0.0625   0.0625
     0.0625   0.0625   0.0625   0.0625   0.0625   0.0625   0.0625   0.0625
     0.0625   0.0625   0.0625   0.0623   0.0622   0.0620   0.0013   0.0000
     0.0000   0.0000   0.0000   0.0000   0.0000   0.0000

          k = 0.4942-0.2853-0.1027 (  2211 PWs)   bands (ev):

   -19.7324 -19.7099  -6.9732  -6.5450  -6.3252  -5.7055  -5.6263  -5.3641
    -3.3337  -3.1676  -3.0422  -2.6028  -2.5650  -2.3781   5.8097   6.0834
     6.1330   6.7499   7.0333   7.0373   7.2241   7.2641   7.4224   7.4657
     7.9798   8.4273   8.8707   9.3479   9.3600   9.6307   9.9502  10.0636
    10.3869  10.6482  10.7858  10.8208  10.8603  10.8906  12.2327  12.7252
    13.4452  14.3067  16.8857  16.9351  17.5788  17.9271

     occupation numbers 
     0.0625   0.0625   0.0625   0.0625   0.0625   0.0625   0.0625   0.0625
     0.0625   0.0625   0.0625   0.0625   0.0625   0.0625   0.0625   0.0625
     0.0625   0.0625   0.0625   0.0625   0.0625   0.0625   0.0625   0.0625
     0.0625   0.0625   0.0625   0.0625   0.0625   0.0625   0.0625   0.0625
     0.0625   0.0625   0.0624   0.0623   0.0622   0.0621   0.0009   0.0000
     0.0000   0.0000   0.0000   0.0000   0.0000   0.0000

          k = 0.0000-0.5706 0.1027 (  2211 PWs)   bands (ev):

   -19.7324 -19.7099  -6.9733  -6.5449  -6.3252  -5.7055  -5.6262  -5.3642
    -3.3337  -3.1676  -3.0422  -2.6028  -2.5650  -2.3782   5.8097   6.0834
     6.1330   6.7499   7.0333   7.0373   7.2241   7.2641   7.4224   7.4657
     7.9797   8.4273   8.8707   9.3480   9.3600   9.6307   9.9501  10.0636
    10.3869  10.6482  10.7858  10.8208  10.8603  10.8906  12.2327  12.7252
    13.4452  14.3067  16.8857  16.9351  17.5788  17.9271

     occupation numbers 
     0.0625   0.0625   0.0625   0.0625   0.0625   0.0625   0.0625   0.0625
     0.0625   0.0625   0.0625   0.0625   0.0625   0.0625   0.0625   0.0625
     0.0625   0.0625   0.0625   0.0625   0.0625   0.0625   0.0625   0.0625
     0.0625   0.0625   0.0625   0.0625   0.0625   0.0625   0.0625   0.0625
     0.0625   0.0625   0.0624   0.0623   0.0622   0.0621   0.0009   0.0000
     0.0000   0.0000   0.0000   0.0000   0.0000   0.0000

          k = 0.7412 0.4280 0.3080 (  2210 PWs)   bands (ev):

   -19.7320 -19.7113  -6.9098  -6.4550  -6.3034  -5.7984  -5.7670  -5.4942
    -3.0762  -3.0609  -2.9673  -2.7329  -2.6257  -2.4285   5.9025   6.1482
     6.2253   6.7401   6.9650   7.0764   7.2842   7.3121   7.4287   7.5045
     7.9540   8.4331   8.7725   9.2893   9.4414   9.4795   9.6370  10.1155
    10.3581  10.6402  10.7362  10.8063  10.9367  10.9426  12.1927  12.6784
    13.3942  14.2767  17.0600  17.0697  17.5471  17.9024

     occupation numbers 
     0.0625   0.0625   0.0625   0.0625   0.0625   0.0625   0.0625   0.0625
     0.0625   0.0625   0.0625   0.0625   0.0625   0.0625   0.0625   0.0625
     0.0625   0.0625   0.0625   0.0625   0.0625   0.0625   0.0625   0.0625
     0.0625   0.0625   0.0625   0.0625   0.0625   0.0625   0.0625   0.0625
     0.0625   0.0625   0.0624   0.0623   0.0618   0.0618   0.0013   0.0000
     0.0000   0.0000   0.0000   0.0000   0.0000   0.0000

          k = 0.0000 0.8559-0.3080 (  2210 PWs)   bands (ev):

   -19.7320 -19.7113  -6.9098  -6.4550  -6.3034  -5.7984  -5.7670  -5.4942
    -3.0762  -3.0609  -2.9673  -2.7329  -2.6257  -2.4285   5.9025   6.1482
     6.2253   6.7401   6.9650   7.0764   7.2842   7.3121   7.4287   7.5045
     7.9540   8.4331   8.7725   9.2893   9.4414   9.4794   9.6370  10.1155
    10.3581  10.6402  10.7362  10.8063  10.9367  10.9426  12.1927  12.6784
    13.3942  14.2767  17.0600  17.0697  17.5471  17.9024

     occupation numbers 
     0.0625   0.0625   0.0625   0.0625   0.0625   0.0625   0.0625   0.0625
     0.0625   0.0625   0.0625   0.0625   0.0625   0.0625   0.0625   0.0625
     0.0625   0.0625   0.0625   0.0625   0.0625   0.0625   0.0625   0.0625
     0.0625   0.0625   0.0625   0.0625   0.0625   0.0625   0.0625   0.0625
     0.0625   0.0625   0.0624   0.0623   0.0618   0.0618   0.0013   0.0000
     0.0000   0.0000   0.0000   0.0000   0.0000   0.0000

          k = 0.2471 0.7133-0.2053 (  2206 PWs)   bands (ev):

   -19.7230 -19.7230  -6.8876  -6.8764  -6.0367  -6.0353  -5.4339  -5.4332
    -3.1568  -3.1564  -2.8193  -2.8186  -2.3839  -2.3812   5.9745   5.9856
     6.2909   6.2935   6.9364   6.9371   7.2435   7.2455   7.4354   7.4540
     8.4856   8.4873   8.7856   8.7894   9.4719   9.4730  10.0027  10.0061
    10.4664  10.4726  10.6450  10.6537  10.9888  10.9955  12.2405  12.2456
    13.9705  13.9813  17.4259  17.4263  17.8695  17.8718

     occupation numbers 
     0.0625   0.0625   0.0625   0.0625   0.0625   0.0625   0.0625   0.0625
     0.0625   0.0625   0.0625   0.0625   0.0625   0.0625   0.0625   0.0625
     0.0625   0.0625   0.0625   0.0625   0.0625   0.0625   0.0625   0.0625
     0.0625   0.0625   0.0625   0.0625   0.0625   0.0625   0.0625   0.0625
     0.0625   0.0625   0.0625   0.0625   0.0614   0.0614   0.0008   0.0008
     0.0000   0.0000   0.0000   0.0000   0.0000   0.0000

          k =-0.7412-0.1427-0.2053 (  2206 PWs)   bands (ev):

   -19.7230 -19.7230  -6.8877  -6.8765  -6.0365  -6.0351  -5.4339  -5.4333
    -3.1568  -3.1564  -2.8193  -2.8185  -2.3839  -2.3813   5.9745   5.9856
     6.2909   6.2935   6.9364   6.9371   7.2435   7.2456   7.4354   7.4540
     8.4856   8.4873   8.7856   8.7894   9.4719   9.4730  10.0027  10.0061
    10.4664  10.4726  10.6450  10.6537  10.9888  10.9955  12.2405  12.2456
    13.9705  13.9813  17.4259  17.4263  17.8695  17.8718

     occupation numbers 
     0.0625   0.0625   0.0625   0.0625   0.0625   0.0625   0.0625   0.0625
     0.0625   0.0625   0.0625   0.0625   0.0625   0.0625   0.0625   0.0625
     0.0625   0.0625   0.0625   0.0625   0.0625   0.0625   0.0625   0.0625
     0.0625   0.0625   0.0625   0.0625   0.0625   0.0625   0.0625   0.0625
     0.0625   0.0625   0.0625   0.0625   0.0614   0.0614   0.0008   0.0008
     0.0000   0.0000   0.0000   0.0000   0.0000   0.0000

     the Fermi energy is    11.6018 ev

!    total energy              =    -537.99871610 Ry
     Harris-Foulkes estimate   =    -537.99871131 Ry
     estimated scf accuracy    <          3.4E-10 Ry

     The total energy is the sum of the following terms:

     one-electron contribution =     -32.89888101 Ry
     hartree contribution      =      83.66155251 Ry
     xc contribution           =    -199.61509728 Ry
     ewald contribution        =    -389.44315552 Ry
     Hubbard energy            =       0.30522408 Ry
     smearing contrib. (-TS)   =      -0.00835888 Ry

     convergence has been achieved in  15 iterations

     init_run     :      7.11s CPU      7.24s WALL (       1 calls)
     electrons    :    508.57s CPU    512.21s WALL (       1 calls)

     Called by init_run:
     wfcinit      :      0.00s CPU      0.00s WALL (       1 calls)
     potinit      :      0.30s CPU      0.33s WALL (       1 calls)

     Called by electrons:
     c_bands      :    390.97s CPU    392.25s WALL (      15 calls)
     sum_band     :     87.15s CPU     87.82s WALL (      15 calls)
     v_of_rho     :      4.08s CPU      4.10s WALL (      16 calls)
     v_h          :      0.24s CPU      0.24s WALL (      16 calls)
     v_xc         :      3.84s CPU      3.86s WALL (      16 calls)
     newd         :     27.16s CPU     27.19s WALL (      16 calls)
     mix_rho      :      0.49s CPU      0.49s WALL (      15 calls)

     Called by c_bands:
     init_us_2    :      4.15s CPU      4.15s WALL (    1080 calls)
     cegterg      :    379.37s CPU    379.91s WALL (     540 calls)

     Called by sum_band:
     sum_band:bec :      0.42s CPU      0.42s WALL (     540 calls)
     addusdens    :     18.39s CPU     18.39s WALL (      15 calls)

     Called by *egterg:
     h_psi        :    288.89s CPU    289.39s WALL (    2001 calls)
     s_psi        :     16.03s CPU     16.04s WALL (    2001 calls)
     g_psi        :      1.27s CPU      1.29s WALL (    1461 calls)
     cdiaghg      :     23.17s CPU     23.17s WALL (    1965 calls)
     cegterg:over :     18.24s CPU     18.24s WALL (    1461 calls)
     cegterg:upda :     11.84s CPU     11.83s WALL (    1461 calls)
     cegterg:last :      8.90s CPU      8.90s WALL (     606 calls)

     Called by h_psi:
     h_psi:vloc   :    236.08s CPU    236.51s WALL (    2001 calls)
     h_psi:vnl    :     33.05s CPU     33.10s WALL (    2001 calls)
     add_vuspsi   :     16.28s CPU     16.31s WALL (    2001 calls)
     vhpsi        :     19.02s CPU     19.03s WALL (    2001 calls)

     General routines
     calbec       :     35.00s CPU     35.06s WALL (    5082 calls)
     fft          :      2.82s CPU      2.82s WALL (     251 calls)
     ffts         :      0.09s CPU      0.09s WALL (      31 calls)
     fftw         :    222.88s CPU    222.99s WALL (  151216 calls)
     interpolate  :      0.53s CPU      0.53s WALL (      31 calls)
     davcio       :      0.02s CPU      1.27s WALL (    1116 calls)

     Parallel routines
     fft_scatter  :     57.04s CPU     57.31s WALL (  151498 calls)
     Hubbard U routines
     new_ns       :      3.49s CPU      4.02s WALL (      15 calls)
     vhpsi        :     19.02s CPU     19.03s WALL (    2001 calls)

     PWSCF        :  8m36.10s CPU     8m40.29s WALL


   This run was terminated on:  15:29: 6  11Nov2012            

=------------------------------------------------------------------------------=
