   JOB DONE.
=------------------------------------------------------------------------------=

     Program PWSCF v.5.0.1 starts on 11Nov2012 at 14:54:52 

     This program is part of the open-source Quantum ESPRESSO suite
     for quantum simulation of materials; please cite
         "P. Giannozzi et al., J. Phys.:Condens. Matter 21 395502 (2009);
          URL http://www.quantum-espresso.org", 
     in publications or presentations arising from this work. More details at
     http://www.quantum-espresso.org/quote.php

     Parallel version (MPI), running on     2 processors
     R & G space division:  proc/pool =    2

     Current dimensions of program PWSCF are:
     Max number of different atomic species (ntypx) = 10
     Max number of k-points (npk) =  40000
     Max angular momentum in pseudopotentials (lmaxx) =  3
     Reading input from CoLaO_U400_a-15.in
               file Co.pbe-nd-rrkjus.UPF: wavefunction(s)  4S 3D renormalized
               file O.pbe-rrkjus.UPF: wavefunction(s)  2S renormalized
               file O.pbe-rrkjus.UPF: wavefunction(s)  2S renormalized

     Subspace diagonalization in iterative solution of the eigenvalue problem:
     a serial algorithm will be used


     Parallelization info
     --------------------
     sticks:   dense  smooth     PW     G-vecs:    dense   smooth      PW
     Min        1112     444    131                34808     8786    1448
     Max        1113     445    132                34809     8787    1449
     Sum        2225     889    263                69617    17573    2897


     Title: 
     GGA + U, U = 4.000, alpha = -0.150                                         


     bravais-lattice index     =            5
     lattice parameter (alat)  =      10.3292  a.u.
     unit-cell volume          =     793.0599 (a.u.)^3
     number of atoms/cell      =           10
     number of atomic types    =            4
     number of electrons       =        76.00
     number of Kohn-Sham states=           46
     kinetic-energy cutoff     =      30.0000  Ry
     charge density cutoff     =     300.0000  Ry
     convergence threshold     =      1.0E-08
     mixing beta               =       0.2000
     number of iterations used =            8  plain     mixing
     Exchange-correlation      =  SLA  PW   PBE  PBE ( 1 4 3 4 0)
     EXX-fraction              =        0.00

     celldm(1)=  10.329242  celldm(2)=   0.000000  celldm(3)=   0.000000
     celldm(4)=   0.488100  celldm(5)=   0.000000  celldm(6)=   0.000000

     crystal axes: (cart. coord. in units of alat)
               a(1) = (   0.505915  -0.292090   0.811624 )  
               a(2) = (   0.000000   0.584180   0.811624 )  
               a(3) = (  -0.505915  -0.292090   0.811624 )  

     reciprocal axes: (cart. coord. in units 2 pi/alat)
               b(1) = (  0.988308 -0.570600  0.410699 )  
               b(2) = (  0.000000  1.141200  0.410699 )  
               b(3) = ( -0.988308 -0.570600  0.410699 )  


     PseudoPot. # 1 for Co read from file:
     /home/mcurnan/dft-course/Project1/example_LaCoO3/Co.pbe-nd-rrkjus.UPF
     MD5 check sum: 3e47a84addf5e975e0edeaeee2a73f59
     Pseudo is Ultrasoft + core correction, Zval =  9.0
     Generated by new atomic code, or converted to UPF format
     Using radial grid of  961 points,  6 beta functions with: 
                l(1) =   0
                l(2) =   0
                l(3) =   1
                l(4) =   1
                l(5) =   2
                l(6) =   2
     Q(r) pseudized with 0 coefficients 


     PseudoPot. # 2 for La read from file:
     /home/mcurnan/dft-course/Project1/example_LaCoO3/La.pbe-nsp-van.UPF
     MD5 check sum: b2f11743f52dde65f77d1302becd7929
     Pseudo is Ultrasoft + core correction, Zval = 11.0
     Generated by new atomic code, or converted to UPF format
     Using radial grid of  907 points,  6 beta functions with: 
                l(1) =   0
                l(2) =   0
                l(3) =   1
                l(4) =   1
                l(5) =   2
                l(6) =   2
     Q(r) pseudized with  6 coefficients,  rinner =    1.200   1.200   1.200
                                                       1.200   1.200

     PseudoPot. # 3 for O  read from file:
     /home/mcurnan/dft-course/Project1/example_LaCoO3/O.pbe-rrkjus.UPF
     MD5 check sum: 390ba29e75625707450f3bd3f0eb6be9
     Pseudo is Ultrasoft, Zval =  6.0
     Generated by new atomic code, or converted to UPF format
     Using radial grid of 1269 points,  4 beta functions with: 
                l(1) =   0
                l(2) =   0
                l(3) =   1
                l(4) =   1
     Q(r) pseudized with 0 coefficients 


     PseudoPot. # 4 for O  read from file:
     /home/mcurnan/dft-course/Project1/example_LaCoO3/O.pbe-rrkjus.UPF
     MD5 check sum: 390ba29e75625707450f3bd3f0eb6be9
     Pseudo is Ultrasoft, Zval =  6.0
     Generated by new atomic code, or converted to UPF format
     Using radial grid of 1269 points,  4 beta functions with: 
                l(1) =   0
                l(2) =   0
                l(3) =   1
                l(4) =   1
     Q(r) pseudized with 0 coefficients 


     atomic species   valence    mass     pseudopotential
        Co1            9.00     1.00000     Co( 1.00)
        La1           11.00     1.00000     La( 1.00)
        O1             6.00     1.00000     O ( 1.00)
        O2             6.00     1.00000     O ( 1.00)
 -----
     simplified LDA+U calculation, Hubbard_lmax = 2
     atomic species  L   Hubbard U  Hubbard alpha
        Co1          2    4.000000    0.000000
        La1          2    0.000000    0.000000
        O1           1    0.000000   -0.150000
        O2           1    0.000000    0.000000
 -----

     No symmetry found


                                    s                        frac. trans.

      isym =  1     identity                                     

 cryst.   s( 1) = (     1          0          0      )
                  (     0          1          0      )
                  (     0          0          1      )

 cart.    s( 1) = (  1.0000000  0.0000000  0.0000000 )
                  (  0.0000000  1.0000000  0.0000000 )
                  (  0.0000000  0.0000000  1.0000000 )


     point group C_1 (1)    
     there are  1 classes
     the character table:

       E    
A      1.00

     the symmetry operations in each class:
     E        1

   Cartesian axes

     site n.     atom                  positions (alat units)
         1           Co1 tau(   1) = (   0.2228050  -0.1992639   1.0141240  )
         2           Co1 tau(   2) = (  -0.2831100   0.0928263   1.4199360  )
         3           La1 tau(   3) = (  -0.2831100   0.0928263   0.8112181  )
         4           La1 tau(   4) = (   0.2228050   0.3849164   1.2170300  )
         5           O1  tau(   5) = (   0.0000000   0.0000000   0.0000000  )
         6           O2  tau(   6) = (   0.0008601   0.1861491   1.6232478  )
         7           O2  tau(   7) = (   0.1616398   0.0923297   0.8116239  )
         8           O2  tau(   8) = (  -0.0603051  -0.1064377   1.2166242  )
         9           O2  tau(   9) = (   0.4447499  -0.0004966   1.2166242  )
        10           O2  tau(  10) = (  -0.2219449   0.3854130   1.2166242  )

   Crystallographic axes

     site n.     atom                  positions (cryst. coord.)
         1           Co1 tau(   1) = (  0.7504000  0.1891000  0.3100000  )
         2           Co1 tau(   2) = (  0.2504000  0.6891000  0.8100000  )
         3           La1 tau(   3) = (  0.0004000  0.4391000  0.5600000  )
         4           La1 tau(   4) = (  0.5004000  0.9391000  0.0600000  )
         5           O1  tau(   5) = (  0.0000000  0.0000000  0.0000000  )
         6           O2  tau(   6) = (  0.5613000  0.8791000  0.5596000  )
         7           O2  tau(   7) = (  0.4404000  0.4387000  0.1209000  )
         8           O2  tau(   8) = (  0.5008000  0.3782000  0.6200000  )
         9           O2  tau(   9) = (  0.9395000  0.4991000  0.0604000  )
        10           O2  tau(  10) = (  0.0604000  0.9395000  0.4991000  )

     number of k points=    36  gaussian smearing, width (Ry)=  0.0300
                       cart. coord. in units 2pi/alat
        k(    1) = (   0.0000000   0.0000000   0.0000000), wk =   0.0312500
        k(    2) = (  -0.2470771  -0.1426500   0.1026748), wk =   0.0625000
        k(    3) = (   0.4941541   0.2853000  -0.2053496), wk =   0.0312500
        k(    4) = (  -0.2470771   0.1426500   0.2053496), wk =   0.0625000
        k(    5) = (   0.4941541   0.5706001  -0.1026748), wk =   0.0625000
        k(    6) = (   0.2470771   0.4279500   0.0000000), wk =   0.0625000
        k(    7) = (   0.4941541  -0.2853000  -0.4106993), wk =   0.0312500
        k(    8) = (   0.0000000   0.0000000   0.3080244), wk =   0.0625000
        k(    9) = (   0.7412312   0.4279500   0.0000000), wk =   0.0625000
        k(   10) = (   0.4941541   0.2853000   0.1026748), wk =   0.0625000
        k(   11) = (   0.7412312  -0.4279500  -0.3080244), wk =   0.0625000
        k(   12) = (   0.4941541  -0.5706001  -0.2053496), wk =   0.0625000
        k(   13) = (   0.0000000   0.0000000  -0.6160489), wk =   0.0312500
        k(   14) = (  -0.2470771   0.1426500  -0.1026748), wk =   0.0625000
        k(   15) = (   0.0000000   0.2853000   0.1026748), wk =   0.0625000
        k(   16) = (   0.4941541  -0.2853000   0.2053496), wk =   0.0312500
        k(   17) = (   0.0000000  -0.5706001  -0.2053496), wk =   0.0312500
        k(   18) = (  -0.2470771  -0.1426500  -0.2053496), wk =   0.0625000
        k(   19) = (   0.0000000  -0.2853000   0.2053496), wk =   0.0625000
        k(   20) = (   0.4941541  -0.5706001   0.1026748), wk =   0.0625000
        k(   21) = (  -0.7412312   0.1426500  -0.1026748), wk =   0.0625000
        k(   22) = (   0.2470771  -0.7132501  -0.1026748), wk =   0.0625000
        k(   23) = (  -0.7412312  -0.1426500   0.1026748), wk =   0.0625000
        k(   24) = (   0.2470771   0.7132501   0.1026748), wk =   0.0625000
        k(   25) = (   0.2470771  -0.4279500   0.0000000), wk =   0.0625000
        k(   26) = (  -0.4941541   0.0000000   0.0000000), wk =   0.0625000
        k(   27) = (   0.4941541   0.2853000   0.4106993), wk =   0.0312500
        k(   28) = (   0.0000000   0.5706001  -0.4106993), wk =   0.0312500
        k(   29) = (   0.7412312  -0.4279500   0.0000000), wk =   0.0625000
        k(   30) = (   0.0000000  -0.8559001   0.0000000), wk =   0.0625000
        k(   31) = (   0.4941541  -0.2853000  -0.1026748), wk =   0.0625000
        k(   32) = (   0.0000000  -0.5706001   0.1026748), wk =   0.0625000
        k(   33) = (   0.7412312   0.4279500   0.3080244), wk =   0.0625000
        k(   34) = (   0.0000000   0.8559001  -0.3080244), wk =   0.0625000
        k(   35) = (   0.2470771   0.7132501  -0.2053496), wk =   0.0625000
        k(   36) = (  -0.7412312  -0.1426500  -0.2053496), wk =   0.0625000

                       cryst. coord.
        k(    1) = (   0.0000000   0.0000000   0.0000000), wk =   0.0312500
        k(    2) = (   0.0000000   0.0000000   0.2500000), wk =   0.0625000
        k(    3) = (   0.0000000   0.0000000  -0.5000000), wk =   0.0312500
        k(    4) = (   0.0000000   0.2500000   0.2500000), wk =   0.0625000
        k(    5) = (   0.0000000   0.2500000  -0.5000000), wk =   0.0625000
        k(    6) = (   0.0000000   0.2500000  -0.2500000), wk =   0.0625000
        k(    7) = (   0.0000000  -0.5000000  -0.5000000), wk =   0.0312500
        k(    8) = (   0.2500000   0.2500000   0.2500000), wk =   0.0625000
        k(    9) = (   0.2500000   0.2500000  -0.5000000), wk =   0.0625000
        k(   10) = (   0.2500000   0.2500000  -0.2500000), wk =   0.0625000
        k(   11) = (   0.2500000  -0.5000000  -0.5000000), wk =   0.0625000
        k(   12) = (   0.2500000  -0.5000000  -0.2500000), wk =   0.0625000
        k(   13) = (  -0.5000000  -0.5000000  -0.5000000), wk =   0.0312500
        k(   14) = (  -0.2500000   0.0000000   0.0000000), wk =   0.0625000
        k(   15) = (   0.0000000   0.2500000   0.0000000), wk =   0.0625000
        k(   16) = (   0.5000000   0.0000000   0.0000000), wk =   0.0312500
        k(   17) = (   0.0000000  -0.5000000   0.0000000), wk =   0.0312500
        k(   18) = (  -0.2500000  -0.2500000   0.0000000), wk =   0.0625000
        k(   19) = (   0.2500000   0.0000000   0.2500000), wk =   0.0625000
        k(   20) = (   0.5000000  -0.2500000   0.0000000), wk =   0.0625000
        k(   21) = (  -0.5000000   0.0000000   0.2500000), wk =   0.0625000
        k(   22) = (   0.2500000  -0.5000000   0.0000000), wk =   0.0625000
        k(   23) = (  -0.2500000   0.0000000   0.5000000), wk =   0.0625000
        k(   24) = (   0.0000000   0.5000000  -0.2500000), wk =   0.0625000
        k(   25) = (   0.2500000  -0.2500000   0.0000000), wk =   0.0625000
        k(   26) = (  -0.2500000   0.0000000   0.2500000), wk =   0.0625000
        k(   27) = (   0.5000000   0.5000000   0.0000000), wk =   0.0312500
        k(   28) = (  -0.5000000   0.0000000  -0.5000000), wk =   0.0312500
        k(   29) = (   0.5000000  -0.2500000  -0.2500000), wk =   0.0625000
        k(   30) = (   0.2500000  -0.5000000   0.2500000), wk =   0.0625000
        k(   31) = (   0.2500000  -0.2500000  -0.2500000), wk =   0.0625000
        k(   32) = (   0.2500000  -0.2500000   0.2500000), wk =   0.0625000
        k(   33) = (   0.5000000   0.5000000  -0.2500000), wk =   0.0625000
        k(   34) = (  -0.5000000   0.2500000  -0.5000000), wk =   0.0625000
        k(   35) = (  -0.2500000   0.2500000  -0.5000000), wk =   0.0625000
        k(   36) = (  -0.5000000  -0.2500000   0.2500000), wk =   0.0625000

     Dense  grid:    69617 G-vectors     FFT dimensions: (  60,  60,  60)

     Smooth grid:    17573 G-vectors     FFT dimensions: (  40,  40,  40)

     Largest allocated arrays     est. size (Mb)     dimensions
        Kohn-Sham Wavefunctions         0.79 Mb     (   1119,   46)
        Atomic wavefunctions            1.06 Mb     (   1119,   62)
        NL pseudopotentials             2.05 Mb     (   1119,  120)
        Each V/rho on FFT grid          1.65 Mb     ( 108000)
        Each G-vector array             0.27 Mb     (  34808)
        G-vector shells                 0.04 Mb     (   4682)
     Largest temporary arrays     est. size (Mb)     dimensions
        Auxiliary wavefunctions         3.14 Mb     (   1119,  184)
        Each subspace H/S matrix        0.52 Mb     ( 184, 184)
        Each <psi_i|beta_j> matrix      0.08 Mb     (    120,   46)
        Arrays for rho mixing          13.18 Mb     ( 108000,   8)

     Check: negative/imaginary core charge=   -0.000028    0.000000

     The initial density is read from file :
     /home/mcurnan/dft-course/Project1/example_LaCoO3/400/O/alpha/CoLaO_U400.save/charge-density.dat

 --- in v_hubbard ---
Hubbard energy    0.3229
 -------
     Number of +U iterations with fixed ns =  0
     Starting occupations:
 --- enter write_ns ---
 LDA+U parameters:
U( 1)     =  4.00000000
alpha( 1) =  0.00000000
U( 2)     =  0.00000000
alpha( 2) =  0.00000000
U( 3)     =  0.00000000
alpha( 3) = -0.15000000
U( 4)     =  0.00000000
alpha( 4) =  0.00000000
atom    1   Tr[ns(na)] =   8.02205
    eigenvalues: 
  0.596  0.596  0.938  0.941  0.941
    eigenvectors:
  0.000  0.000  1.000  0.000  0.000
  0.057  0.598  0.000  0.178  0.167
  0.598  0.057  0.000  0.167  0.178
  0.210  0.135  0.000  0.095  0.560
  0.135  0.210  0.000  0.560  0.095
    occupations:
  0.938  0.000  0.000  0.000  0.000
  0.000  0.715  0.000 -0.060  0.152
  0.000  0.000  0.715  0.152  0.060
  0.000 -0.060  0.152  0.822  0.000
  0.000  0.152  0.060  0.000  0.822
atom    2   Tr[ns(na)] =   8.02142
    eigenvalues: 
  0.595  0.595  0.938  0.941  0.941
    eigenvectors:
  0.000  0.000  1.000  0.000  0.000
  0.332  0.323  0.000  0.023  0.322
  0.323  0.332  0.000  0.322  0.023
  0.288  0.057  0.000  0.647  0.008
  0.057  0.288  0.000  0.008  0.647
    occupations:
  0.938  0.000  0.000  0.000  0.000
  0.000  0.715  0.000  0.060  0.153
  0.000  0.000  0.715  0.153 -0.060
  0.000  0.060  0.153  0.822  0.000
  0.000  0.153 -0.060  0.000  0.822
atom    3   Tr[ns(na)] =   3.80282
    eigenvalues: 
  0.355  0.355  0.384  0.403  0.403
    eigenvectors:
  0.000  0.000  1.000  0.000  0.000
  0.065  0.856  0.000  0.058  0.021
  0.856  0.065  0.000  0.021  0.058
  0.073  0.006  0.000  0.250  0.670
  0.006  0.073  0.000  0.670  0.250
    occupations:
  0.384  0.000  0.000  0.000  0.000
  0.000  0.359  0.000  0.000  0.013
  0.000  0.000  0.359  0.013  0.000
  0.000  0.000  0.013  0.399  0.000
  0.000  0.013  0.000  0.000  0.399
atom    4   Tr[ns(na)] =   3.80282
    eigenvalues: 
  0.355  0.355  0.384  0.403  0.403
    eigenvectors:
  0.000  0.000  1.000  0.000  0.000
  0.729  0.192  0.000  0.048  0.032
  0.192  0.729  0.000  0.032  0.048
  0.017  0.062  0.000  0.359  0.562
  0.062  0.017  0.000  0.562  0.359
    occupations:
  0.384  0.000  0.000  0.000  0.000
  0.000  0.359  0.000  0.000  0.013
  0.000  0.000  0.359  0.013  0.000
  0.000  0.000  0.013  0.399  0.000
  0.000  0.013  0.000  0.000  0.399
atom    5   Tr[ns(na)] =   5.43357
    eigenvalues: 
  0.846  0.929  0.941
    eigenvectors:
  0.340  0.000  0.660
  0.496  0.250  0.255
  0.164  0.750  0.086
    occupations:
  0.909 -0.039  0.022
 -0.039  0.891  0.022
  0.022  0.022  0.917
atom    6   Tr[ns(na)] =   5.43358
    eigenvalues: 
  0.846  0.929  0.941
    eigenvectors:
  0.340  0.000  0.660
  0.494  0.250  0.256
  0.166  0.750  0.085
    occupations:
  0.909  0.039  0.022
  0.039  0.891 -0.022
  0.022 -0.022  0.917
atom    7   Tr[ns(na)] =   5.43358
    eigenvalues: 
  0.846  0.929  0.941
    eigenvectors:
  0.340  0.000  0.660
  0.000  1.000  0.000
  0.660  0.000  0.340
    occupations:
  0.909  0.000 -0.045
  0.000  0.929  0.000
 -0.045  0.000  0.879
atom    8   Tr[ns(na)] =   5.43357
    eigenvalues: 
  0.846  0.929  0.941
    eigenvectors:
  0.340  0.000  0.660
  0.496  0.250  0.255
  0.164  0.750  0.086
    occupations:
  0.909 -0.039  0.022
 -0.039  0.891  0.022
  0.022  0.022  0.917
atom    9   Tr[ns(na)] =   5.43358
    eigenvalues: 
  0.846  0.929  0.941
    eigenvectors:
  0.340  0.000  0.660
  0.494  0.250  0.256
  0.166  0.750  0.085
    occupations:
  0.909  0.039  0.022
  0.039  0.891 -0.022
  0.022 -0.022  0.917
atom   10   Tr[ns(na)] =   5.43358
    eigenvalues: 
  0.846  0.929  0.941
    eigenvectors:
  0.340  0.000  0.660
  0.000  1.000  0.000
  0.660  0.000  0.340
    occupations:
  0.909  0.000 -0.045
  0.000  0.929  0.000
 -0.045  0.000  0.879
N of occupied +U levels =  56.2505796
 --- exit write_ns ---
 LDA+U Projector read from file 
     Starting wfc from file

     total cpu time spent up to now is        7.7 secs

     per-process dynamical memory:    62.8 Mb

     Self-consistent Calculation

     iteration #  1     ecut=    30.00 Ry     beta=0.20
     Davidson diagonalization with overlap
     c_bands:  1 eigenvalues not converged
     c_bands:  1 eigenvalues not converged
     c_bands:  1 eigenvalues not converged
     c_bands:  1 eigenvalues not converged
     c_bands:  1 eigenvalues not converged
     c_bands:  1 eigenvalues not converged
     c_bands:  1 eigenvalues not converged
     c_bands:  1 eigenvalues not converged
     c_bands:  1 eigenvalues not converged
     c_bands:  1 eigenvalues not converged
     c_bands:  1 eigenvalues not converged
     c_bands:  1 eigenvalues not converged
     c_bands:  1 eigenvalues not converged
     c_bands:  1 eigenvalues not converged
     c_bands:  1 eigenvalues not converged
     c_bands:  1 eigenvalues not converged
     c_bands:  1 eigenvalues not converged
     c_bands:  1 eigenvalues not converged
     c_bands:  1 eigenvalues not converged
     c_bands:  1 eigenvalues not converged
     c_bands:  1 eigenvalues not converged
     c_bands:  1 eigenvalues not converged
     c_bands:  1 eigenvalues not converged
     c_bands:  1 eigenvalues not converged
     c_bands:  1 eigenvalues not converged
     c_bands:  1 eigenvalues not converged
     c_bands:  1 eigenvalues not converged
     ethr =  1.00E-10,  avg # of iterations = 18.3
 --- enter write_ns ---
 LDA+U parameters:
U( 1)     =  4.00000000
alpha( 1) =  0.00000000
U( 2)     =  0.00000000
alpha( 2) =  0.00000000
U( 3)     =  0.00000000
alpha( 3) = -0.15000000
U( 4)     =  0.00000000
alpha( 4) =  0.00000000
atom    1   Tr[ns(na)] =   8.18048
    eigenvalues: 
  0.561  0.564  0.988  0.988  0.991
    eigenvectors:
  0.000  0.000  0.011  0.001  0.987
  0.555  0.099  0.180  0.162  0.004
  0.099  0.555  0.162  0.183  0.001
  0.167  0.179  0.528  0.121  0.004
  0.178  0.167  0.118  0.532  0.004
    occupations:
  0.991  0.000  0.000  0.000  0.000
  0.000  0.709  0.001 -0.074  0.189
  0.000  0.001  0.710  0.189  0.072
  0.000 -0.074  0.189  0.840  0.001
  0.000  0.189  0.072  0.001  0.841
atom    2   Tr[ns(na)] =   8.17180
    eigenvalues: 
  0.558  0.561  0.988  0.988  0.991
    eigenvectors:
  0.000  0.000  0.012  0.002  0.987
  0.417  0.237  0.315  0.028  0.003
  0.238  0.417  0.027  0.317  0.002
  0.027  0.319  0.004  0.650  0.001
  0.319  0.027  0.642  0.004  0.008
    occupations:
  0.991  0.000  0.000  0.000  0.000
  0.000  0.708  0.001  0.072  0.191
  0.000  0.001  0.708  0.190 -0.073
  0.000  0.072  0.190  0.840  0.000
  0.000  0.191 -0.073  0.000  0.839
atom    3   Tr[ns(na)] =   3.79036
    eigenvalues: 
  0.355  0.356  0.381  0.401  0.401
    eigenvectors:
  0.000  0.000  1.000  0.000  0.000
  0.228  0.686  0.000  0.065  0.020
  0.687  0.228  0.000  0.020  0.064
  0.063  0.022  0.000  0.225  0.690
  0.022  0.064  0.000  0.689  0.226
    occupations:
  0.381  0.000  0.000  0.000  0.000
  0.000  0.360  0.000  0.000  0.013
  0.000  0.000  0.359  0.013  0.000
  0.000  0.000  0.013  0.397  0.000
  0.000  0.013  0.000  0.000  0.397
atom    4   Tr[ns(na)] =   3.79053
    eigenvalues: 
  0.355  0.356  0.381  0.401  0.402
    eigenvectors:
  0.000  0.000  1.000  0.000  0.000
  0.689  0.231  0.000  0.059  0.020
  0.233  0.685  0.000  0.019  0.063
  0.020  0.062  0.000  0.234  0.684
  0.058  0.022  0.000  0.688  0.232
    occupations:
  0.381  0.000  0.000  0.000  0.000
  0.000  0.359  0.000  0.000  0.012
  0.000  0.000  0.359  0.013  0.000
  0.000  0.000  0.013  0.398  0.000
  0.000  0.012  0.000  0.000  0.398
atom    5   Tr[ns(na)] =   5.41867
    eigenvalues: 
  0.834  0.928  0.947
    eigenvectors:
  0.340  0.000  0.660
  0.496  0.250  0.254
  0.165  0.750  0.085
    occupations:
  0.909 -0.046  0.027
 -0.046  0.886  0.024
  0.027  0.024  0.914
atom    6   Tr[ns(na)] =   5.39295
    eigenvalues: 
  0.828  0.924  0.944
    eigenvectors:
  0.341  0.000  0.659
  0.494  0.248  0.257
  0.165  0.752  0.084
    occupations:
  0.904  0.048  0.027
  0.048  0.882 -0.025
  0.027 -0.025  0.910
atom    7   Tr[ns(na)] =   5.39296
    eigenvalues: 
  0.828  0.924  0.944
    eigenvectors:
  0.341  0.000  0.659
  0.000  1.000  0.000
  0.659  0.000  0.341
    occupations:
  0.904  0.000 -0.055
  0.000  0.924  0.000
 -0.055  0.000  0.868
atom    8   Tr[ns(na)] =   5.39292
    eigenvalues: 
  0.828  0.924  0.944
    eigenvectors:
  0.341  0.000  0.659
  0.495  0.250  0.255
  0.165  0.750  0.086
    occupations:
  0.905 -0.048  0.028
 -0.048  0.882  0.025
  0.028  0.025  0.910
atom    9   Tr[ns(na)] =   5.39301
    eigenvalues: 
  0.828  0.924  0.944
    eigenvectors:
  0.341  0.000  0.659
  0.494  0.249  0.257
  0.165  0.751  0.084
    occupations:
  0.905  0.047  0.027
  0.047  0.882 -0.025
  0.027 -0.025  0.910
atom   10   Tr[ns(na)] =   5.39301
    eigenvalues: 
  0.828  0.924  0.944
    eigenvectors:
  0.341  0.000  0.659
  0.000  1.000  0.000
  0.659  0.000  0.341
    occupations:
  0.905  0.000 -0.055
  0.000  0.924  0.000
 -0.055  0.000  0.868
N of occupied +U levels =  56.3166897
 --- exit write_ns ---
 --- in v_hubbard ---
Hubbard energy    0.3091
 -------

     total cpu time spent up to now is      100.0 secs

     total energy              =    -538.04752783 Ry
     Harris-Foulkes estimate   =    -538.05350663 Ry
     estimated scf accuracy    <       0.03406099 Ry

     iteration #  2     ecut=    30.00 Ry     beta=0.20
     Davidson diagonalization with overlap
     ethr =  4.48E-05,  avg # of iterations =  1.4
 --- enter write_ns ---
 LDA+U parameters:
U( 1)     =  4.00000000
alpha( 1) =  0.00000000
U( 2)     =  0.00000000
alpha( 2) =  0.00000000
U( 3)     =  0.00000000
alpha( 3) = -0.15000000
U( 4)     =  0.00000000
alpha( 4) =  0.00000000
atom    1   Tr[ns(na)] =   8.02739
    eigenvalues: 
  0.522  0.523  0.989  0.989  0.992
    eigenvectors:
  0.000  0.000  0.002  0.000  0.998
  0.556  0.100  0.197  0.147  0.001
  0.100  0.556  0.147  0.198  0.000
  0.169  0.176  0.512  0.142  0.001
  0.176  0.169  0.142  0.513  0.001
    occupations:
  0.992  0.000  0.000  0.000  0.000
  0.000  0.683  0.000 -0.081  0.206
  0.000  0.000  0.684  0.206  0.081
  0.000 -0.081  0.206  0.828  0.000
  0.000  0.206  0.081  0.000  0.828
atom    2   Tr[ns(na)] =   8.03193
    eigenvalues: 
  0.521  0.523  0.990  0.990  0.993
    eigenvectors:
  0.000  0.000  0.002  0.000  0.998
  0.418  0.237  0.309  0.035  0.000
  0.238  0.418  0.035  0.310  0.000
  0.025  0.319  0.002  0.654  0.000
  0.320  0.025  0.653  0.002  0.001
    occupations:
  0.992  0.000  0.000  0.000  0.000
  0.000  0.683  0.001  0.081  0.207
  0.000  0.001  0.683  0.207 -0.081
  0.000  0.081  0.207  0.829  0.000
  0.000  0.207 -0.081  0.000  0.828
atom    3   Tr[ns(na)] =   3.78772
    eigenvalues: 
  0.355  0.355  0.381  0.401  0.401
    eigenvectors:
  0.000  0.000  1.000  0.000  0.000
  0.226  0.693  0.000  0.064  0.017
  0.693  0.226  0.000  0.017  0.064
  0.060  0.021  0.000  0.199  0.720
  0.020  0.060  0.000  0.720  0.199
    occupations:
  0.381  0.000  0.000  0.000  0.000
  0.000  0.359  0.000  0.000  0.013
  0.000  0.000  0.359  0.013  0.000
  0.000  0.000  0.013  0.398  0.000
  0.000  0.013  0.000  0.000  0.397
atom    4   Tr[ns(na)] =   3.78794
    eigenvalues: 
  0.355  0.355  0.381  0.401  0.402
    eigenvectors:
  0.000  0.000  1.000  0.000  0.000
  0.682  0.239  0.000  0.061  0.018
  0.239  0.680  0.000  0.018  0.062
  0.021  0.059  0.000  0.217  0.703
  0.057  0.022  0.000  0.705  0.216
    occupations:
  0.381  0.000  0.000  0.000  0.000
  0.000  0.359  0.000  0.000  0.013
  0.000  0.000  0.359  0.013  0.000
  0.000  0.000  0.013  0.398  0.000
  0.000  0.013  0.000  0.000  0.398
atom    5   Tr[ns(na)] =   5.45112
    eigenvalues: 
  0.845  0.932  0.949
    eigenvectors:
  0.336  0.000  0.664
  0.497  0.252  0.252
  0.167  0.748  0.085
    occupations:
  0.914 -0.042  0.025
 -0.042  0.893  0.023
  0.025  0.023  0.919
atom    6   Tr[ns(na)] =   5.44188
    eigenvalues: 
  0.842  0.931  0.948
    eigenvectors:
  0.336  0.000  0.664
  0.499  0.247  0.254
  0.164  0.753  0.083
    occupations:
  0.912  0.043  0.025
  0.043  0.891 -0.023
  0.025 -0.023  0.918
atom    7   Tr[ns(na)] =   5.44187
    eigenvalues: 
  0.842  0.931  0.948
    eigenvectors:
  0.336  0.000  0.664
  0.000  1.000  0.000
  0.664  0.000  0.336
    occupations:
  0.912  0.000 -0.050
  0.000  0.931  0.000
 -0.050  0.000  0.878
atom    8   Tr[ns(na)] =   5.44301
    eigenvalues: 
  0.842  0.931  0.948
    eigenvectors:
  0.337  0.000  0.663
  0.497  0.252  0.252
  0.167  0.748  0.085
    occupations:
  0.912 -0.043  0.025
 -0.043  0.891  0.023
  0.025  0.023  0.918
atom    9   Tr[ns(na)] =   5.44166
    eigenvalues: 
  0.842  0.931  0.948
    eigenvectors:
  0.337  0.000  0.663
  0.498  0.248  0.254
  0.165  0.752  0.083
    occupations:
  0.912  0.043  0.025
  0.043  0.891 -0.023
  0.025 -0.023  0.918
atom   10   Tr[ns(na)] =   5.44166
    eigenvalues: 
  0.842  0.931  0.948
    eigenvectors:
  0.337  0.000  0.663
  0.000  1.000  0.000
  0.663  0.000  0.337
    occupations:
  0.912  0.000 -0.050
  0.000  0.931  0.000
 -0.050  0.000  0.878
N of occupied +U levels =  56.2961800
 --- exit write_ns ---
 --- in v_hubbard ---
Hubbard energy    0.3027
 -------

     total cpu time spent up to now is      124.4 secs

     total energy              =    -538.05364195 Ry
     Harris-Foulkes estimate   =    -538.05337122 Ry
     estimated scf accuracy    <       0.02189795 Ry

     iteration #  3     ecut=    30.00 Ry     beta=0.20
     Davidson diagonalization with overlap
     ethr =  2.88E-05,  avg # of iterations =  1.0
 --- enter write_ns ---
 LDA+U parameters:
U( 1)     =  4.00000000
alpha( 1) =  0.00000000
U( 2)     =  0.00000000
alpha( 2) =  0.00000000
U( 3)     =  0.00000000
alpha( 3) = -0.15000000
U( 4)     =  0.00000000
alpha( 4) =  0.00000000
atom    1   Tr[ns(na)] =   8.06275
    eigenvalues: 
  0.530  0.531  0.989  0.989  0.992
    eigenvectors:
  0.000  0.000  0.002  0.000  0.998
  0.556  0.100  0.196  0.148  0.001
  0.100  0.556  0.148  0.196  0.000
  0.169  0.176  0.514  0.141  0.001
  0.175  0.169  0.140  0.515  0.001
    occupations:
  0.992  0.000  0.000  0.000  0.000
  0.000  0.688  0.000 -0.080  0.203
  0.000  0.000  0.689  0.203  0.079
  0.000 -0.080  0.203  0.831  0.000
  0.000  0.203  0.079  0.000  0.831
atom    2   Tr[ns(na)] =   8.05829
    eigenvalues: 
  0.528  0.529  0.990  0.990  0.993
    eigenvectors:
  0.000  0.000  0.002  0.000  0.998
  0.419  0.237  0.308  0.036  0.000
  0.237  0.419  0.035  0.308  0.000
  0.025  0.319  0.001  0.655  0.000
  0.319  0.025  0.653  0.001  0.001
    occupations:
  0.993  0.000  0.000  0.000  0.000
  0.000  0.687  0.001  0.079  0.204
  0.000  0.001  0.687  0.204 -0.080
  0.000  0.079  0.204  0.831  0.000
  0.000  0.204 -0.080  0.000  0.831
atom    3   Tr[ns(na)] =   3.78853
    eigenvalues: 
  0.355  0.355  0.381  0.401  0.401
    eigenvectors:
  0.000  0.000  1.000  0.000  0.000
  0.227  0.692  0.000  0.064  0.017
  0.692  0.227  0.000  0.017  0.064
  0.060  0.021  0.000  0.199  0.720
  0.021  0.060  0.000  0.720  0.199
    occupations:
  0.381  0.000  0.000  0.000  0.000
  0.000  0.359  0.000  0.000  0.012
  0.000  0.000  0.359  0.013  0.000
  0.000  0.000  0.013  0.398  0.000
  0.000  0.012  0.000  0.000  0.398
atom    4   Tr[ns(na)] =   3.78864
    eigenvalues: 
  0.355  0.355  0.381  0.401  0.401
    eigenvectors:
  0.000  0.000  1.000  0.000  0.000
  0.683  0.238  0.000  0.060  0.019
  0.239  0.681  0.000  0.018  0.062
  0.021  0.059  0.000  0.224  0.696
  0.058  0.021  0.000  0.698  0.223
    occupations:
  0.381  0.000  0.000  0.000  0.000
  0.000  0.359  0.000  0.000  0.012
  0.000  0.000  0.359  0.013  0.000
  0.000  0.000  0.013  0.398  0.000
  0.000  0.012  0.000  0.000  0.398
atom    5   Tr[ns(na)] =   5.44130
    eigenvalues: 
  0.842  0.931  0.948
    eigenvectors:
  0.337  0.000  0.663
  0.497  0.251  0.252
  0.166  0.749  0.085
    occupations:
  0.912 -0.044  0.025
 -0.044  0.891  0.023
  0.025  0.023  0.918
atom    6   Tr[ns(na)] =   5.43209
    eigenvalues: 
  0.839  0.930  0.947
    eigenvectors:
  0.337  0.000  0.663
  0.498  0.248  0.254
  0.165  0.752  0.083
    occupations:
  0.911  0.044  0.025
  0.044  0.889 -0.023
  0.025 -0.023  0.916
atom    7   Tr[ns(na)] =   5.43209
    eigenvalues: 
  0.839  0.930  0.947
    eigenvectors:
  0.337  0.000  0.663
  0.000  1.000  0.000
  0.663  0.000  0.337
    occupations:
  0.911  0.000 -0.051
  0.000  0.930  0.000
 -0.051  0.000  0.876
atom    8   Tr[ns(na)] =   5.43307
    eigenvalues: 
  0.839  0.930  0.947
    eigenvectors:
  0.337  0.000  0.663
  0.497  0.251  0.252
  0.166  0.749  0.085
    occupations:
  0.911 -0.044  0.026
 -0.044  0.889  0.023
  0.026  0.023  0.916
atom    9   Tr[ns(na)] =   5.43195
    eigenvalues: 
  0.839  0.930  0.947
    eigenvectors:
  0.338  0.000  0.662
  0.496  0.249  0.255
  0.166  0.751  0.083
    occupations:
  0.911  0.044  0.026
  0.044  0.889 -0.023
  0.026 -0.023  0.916
atom   10   Tr[ns(na)] =   5.43195
    eigenvalues: 
  0.839  0.930  0.947
    eigenvectors:
  0.338  0.000  0.662
  0.000  1.000  0.000
  0.662  0.000  0.338
    occupations:
  0.911  0.000 -0.051
  0.000  0.930  0.000
 -0.051  0.000  0.876
N of occupied +U levels =  56.3006595
 --- exit write_ns ---
 --- in v_hubbard ---
Hubbard energy    0.2513
 -------

     total cpu time spent up to now is      151.0 secs

     total energy              =    -538.05753728 Ry
     Harris-Foulkes estimate   =    -538.05403853 Ry
     estimated scf accuracy    <       0.01133132 Ry

     iteration #  4     ecut=    30.00 Ry     beta=0.20
     Davidson diagonalization with overlap
     ethr =  1.49E-05,  avg # of iterations =  1.1
 --- enter write_ns ---
 LDA+U parameters:
U( 1)     =  4.00000000
alpha( 1) =  0.00000000
U( 2)     =  0.00000000
alpha( 2) =  0.00000000
U( 3)     =  0.00000000
alpha( 3) = -0.15000000
U( 4)     =  0.00000000
alpha( 4) =  0.00000000
atom    1   Tr[ns(na)] =   8.04874
    eigenvalues: 
  0.523  0.525  0.991  0.991  0.994
    eigenvectors:
  0.000  0.000  0.002  0.000  0.998
  0.558  0.101  0.202  0.139  0.001
  0.100  0.558  0.139  0.202  0.000
  0.168  0.174  0.505  0.153  0.001
  0.174  0.168  0.153  0.505  0.001
    occupations:
  0.994  0.000  0.000  0.000  0.000
  0.000  0.683  0.000 -0.082  0.206
  0.000  0.000  0.684  0.206  0.081
  0.000 -0.082  0.206  0.832  0.000
  0.000  0.206  0.081  0.000  0.832
atom    2   Tr[ns(na)] =   8.07903
    eigenvalues: 
  0.529  0.530  0.993  0.993  0.995
    eigenvectors:
  0.000  0.000  0.001  0.000  0.998
  0.419  0.240  0.301  0.040  0.000
  0.240  0.419  0.040  0.301  0.000
  0.024  0.317  0.000  0.658  0.000
  0.317  0.024  0.657  0.000  0.001
    occupations:
  0.995  0.000  0.000  0.000  0.000
  0.000  0.688  0.001  0.081  0.204
  0.000  0.001  0.688  0.204 -0.081
  0.000  0.081  0.204  0.835  0.000
  0.000  0.204 -0.081  0.000  0.834
atom    3   Tr[ns(na)] =   3.79506
    eigenvalues: 
  0.356  0.356  0.382  0.402  0.402
    eigenvectors:
  0.000  0.000  1.000  0.000  0.000
  0.231  0.690  0.000  0.059  0.020
  0.690  0.231  0.000  0.020  0.059
  0.058  0.020  0.000  0.236  0.686
  0.020  0.059  0.000  0.685  0.236
    occupations:
  0.382  0.000  0.000  0.000  0.000
  0.000  0.360  0.000  0.000  0.012
  0.000  0.000  0.360  0.012  0.000
  0.000  0.000  0.012  0.398  0.000
  0.000  0.012  0.000  0.000  0.398
atom    4   Tr[ns(na)] =   3.79512
    eigenvalues: 
  0.356  0.356  0.381  0.402  0.402
    eigenvectors:
  0.000  0.000  1.000  0.000  0.000
  0.690  0.233  0.000  0.057  0.021
  0.233  0.689  0.000  0.020  0.058
  0.020  0.058  0.000  0.248  0.674
  0.057  0.020  0.000  0.675  0.248
    occupations:
  0.381  0.000  0.000  0.000  0.000
  0.000  0.360  0.000  0.000  0.012
  0.000  0.000  0.360  0.012  0.000
  0.000  0.000  0.012  0.398  0.000
  0.000  0.012  0.000  0.000  0.398
atom    5   Tr[ns(na)] =   5.43771
    eigenvalues: 
  0.841  0.931  0.948
    eigenvectors:
  0.337  0.000  0.663
  0.493  0.255  0.252
  0.170  0.745  0.085
    occupations:
  0.912 -0.044  0.026
 -0.044  0.890  0.024
  0.026  0.024  0.917
atom    6   Tr[ns(na)] =   5.42775
    eigenvalues: 
  0.838  0.929  0.947
    eigenvectors:
  0.337  0.000  0.663
  0.501  0.243  0.255
  0.161  0.757  0.082
    occupations:
  0.910  0.045  0.025
  0.045  0.888 -0.024
  0.025 -0.024  0.916
atom    7   Tr[ns(na)] =   5.42775
    eigenvalues: 
  0.838  0.929  0.947
    eigenvectors:
  0.337  0.000  0.663
  0.000  1.000  0.000
  0.663  0.000  0.337
    occupations:
  0.910  0.000 -0.051
  0.000  0.929  0.000
 -0.051  0.000  0.875
atom    8   Tr[ns(na)] =   5.42745
    eigenvalues: 
  0.838  0.929  0.947
    eigenvectors:
  0.337  0.000  0.663
  0.493  0.255  0.252
  0.170  0.745  0.086
    occupations:
  0.910 -0.045  0.026
 -0.045  0.889  0.024
  0.026  0.024  0.915
atom    9   Tr[ns(na)] =   5.42787
    eigenvalues: 
  0.838  0.929  0.947
    eigenvectors:
  0.338  0.000  0.662
  0.501  0.244  0.255
  0.162  0.756  0.082
    occupations:
  0.910  0.045  0.025
  0.045  0.888 -0.024
  0.025 -0.024  0.916
atom   10   Tr[ns(na)] =   5.42788
    eigenvalues: 
  0.838  0.929  0.947
    eigenvectors:
  0.338  0.000  0.662
  0.000  1.000  0.000
  0.662  0.000  0.338
    occupations:
  0.910  0.000 -0.052
  0.000  0.929  0.000
 -0.052  0.000  0.875
N of occupied +U levels =  56.2943691
 --- exit write_ns ---
 --- in v_hubbard ---
Hubbard energy    0.2455
 -------

     total cpu time spent up to now is      179.6 secs

     total energy              =    -538.05821229 Ry
     Harris-Foulkes estimate   =    -538.05824773 Ry
     estimated scf accuracy    <       0.00111959 Ry

     iteration #  5     ecut=    30.00 Ry     beta=0.20
     Davidson diagonalization with overlap
     ethr =  1.47E-06,  avg # of iterations =  2.0
 --- enter write_ns ---
 LDA+U parameters:
U( 1)     =  4.00000000
alpha( 1) =  0.00000000
U( 2)     =  0.00000000
alpha( 2) =  0.00000000
U( 3)     =  0.00000000
alpha( 3) = -0.15000000
U( 4)     =  0.00000000
alpha( 4) =  0.00000000
atom    1   Tr[ns(na)] =   8.06084
    eigenvalues: 
  0.525  0.527  0.992  0.992  0.995
    eigenvectors:
  0.000  0.000  0.002  0.000  0.998
  0.559  0.100  0.200  0.141  0.000
  0.100  0.559  0.141  0.200  0.000
  0.168  0.173  0.510  0.148  0.001
  0.173  0.168  0.148  0.511  0.001
    occupations:
  0.995  0.000  0.000  0.000  0.000
  0.000  0.684  0.000 -0.082  0.205
  0.000  0.000  0.685  0.205  0.081
  0.000 -0.082  0.205  0.833  0.000
  0.000  0.205  0.081  0.000  0.833
atom    2   Tr[ns(na)] =   8.05205
    eigenvalues: 
  0.522  0.524  0.992  0.992  0.995
    eigenvectors:
  0.000  0.000  0.002  0.000  0.998
  0.419  0.239  0.300  0.041  0.000
  0.239  0.420  0.041  0.300  0.000
  0.024  0.317  0.000  0.659  0.000
  0.317  0.025  0.657  0.000  0.001
    occupations:
  0.995  0.000  0.000  0.000  0.000
  0.000  0.683  0.001  0.081  0.207
  0.000  0.001  0.683  0.207 -0.082
  0.000  0.081  0.207  0.833  0.000
  0.000  0.207 -0.082  0.000  0.832
atom    3   Tr[ns(na)] =   3.79549
    eigenvalues: 
  0.356  0.356  0.382  0.402  0.402
    eigenvectors:
  0.000  0.000  1.000  0.000  0.000
  0.230  0.691  0.000  0.057  0.022
  0.691  0.230  0.000  0.022  0.057
  0.059  0.020  0.000  0.263  0.658
  0.020  0.059  0.000  0.658  0.263
    occupations:
  0.382  0.000  0.000  0.000  0.000
  0.000  0.360  0.000  0.000  0.012
  0.000  0.000  0.360  0.012  0.000
  0.000  0.000  0.012  0.398  0.000
  0.000  0.012  0.000  0.000  0.398
atom    4   Tr[ns(na)] =   3.79554
    eigenvalues: 
  0.356  0.356  0.382  0.402  0.402
    eigenvectors:
  0.000  0.000  1.000  0.000  0.000
  0.688  0.235  0.000  0.056  0.021
  0.235  0.687  0.000  0.020  0.058
  0.020  0.058  0.000  0.253  0.669
  0.057  0.021  0.000  0.670  0.253
    occupations:
  0.382  0.000  0.000  0.000  0.000
  0.000  0.360  0.000  0.000  0.012
  0.000  0.000  0.360  0.012  0.000
  0.000  0.000  0.012  0.398  0.000
  0.000  0.012  0.000  0.000  0.398
atom    5   Tr[ns(na)] =   5.43927
    eigenvalues: 
  0.841  0.931  0.948
    eigenvectors:
  0.337  0.000  0.663
  0.498  0.250  0.252
  0.166  0.750  0.085
    occupations:
  0.912 -0.044  0.025
 -0.044  0.890  0.023
  0.025  0.023  0.917
atom    6   Tr[ns(na)] =   5.42971
    eigenvalues: 
  0.838  0.930  0.947
    eigenvectors:
  0.337  0.000  0.663
  0.497  0.248  0.254
  0.166  0.752  0.083
    occupations:
  0.910  0.044  0.026
  0.044  0.889 -0.024
  0.026 -0.024  0.916
atom    7   Tr[ns(na)] =   5.42971
    eigenvalues: 
  0.838  0.930  0.947
    eigenvectors:
  0.337  0.000  0.663
  0.000  1.000  0.000
  0.663  0.000  0.337
    occupations:
  0.910  0.000 -0.051
  0.000  0.930  0.000
 -0.051  0.000  0.875
atom    8   Tr[ns(na)] =   5.42978
    eigenvalues: 
  0.838  0.930  0.947
    eigenvectors:
  0.337  0.000  0.663
  0.497  0.250  0.252
  0.165  0.750  0.085
    occupations:
  0.910 -0.044  0.026
 -0.044  0.889  0.024
  0.026  0.024  0.916
atom    9   Tr[ns(na)] =   5.42974
    eigenvalues: 
  0.838  0.930  0.947
    eigenvectors:
  0.337  0.000  0.663
  0.496  0.249  0.254
  0.166  0.751  0.083
    occupations:
  0.910  0.044  0.026
  0.044  0.889 -0.024
  0.026 -0.024  0.916
atom   10   Tr[ns(na)] =   5.42974
    eigenvalues: 
  0.838  0.930  0.947
    eigenvectors:
  0.337  0.000  0.663
  0.000  1.000  0.000
  0.663  0.000  0.337
    occupations:
  0.910  0.000 -0.051
  0.000  0.930  0.000
 -0.051  0.000  0.875
N of occupied +U levels =  56.2918546
 --- exit write_ns ---
 --- in v_hubbard ---
Hubbard energy    0.2439
 -------

     total cpu time spent up to now is      211.7 secs

     total energy              =    -538.05840670 Ry
     Harris-Foulkes estimate   =    -538.05833806 Ry
     estimated scf accuracy    <       0.00018574 Ry

     iteration #  6     ecut=    30.00 Ry     beta=0.20
     Davidson diagonalization with overlap
     ethr =  2.44E-07,  avg # of iterations =  1.3
 --- enter write_ns ---
 LDA+U parameters:
U( 1)     =  4.00000000
alpha( 1) =  0.00000000
U( 2)     =  0.00000000
alpha( 2) =  0.00000000
U( 3)     =  0.00000000
alpha( 3) = -0.15000000
U( 4)     =  0.00000000
alpha( 4) =  0.00000000
atom    1   Tr[ns(na)] =   8.05036
    eigenvalues: 
  0.522  0.524  0.992  0.992  0.995
    eigenvectors:
  0.000  0.000  0.002  0.000  0.998
  0.559  0.100  0.202  0.138  0.000
  0.100  0.559  0.139  0.203  0.000
  0.168  0.173  0.506  0.152  0.001
  0.173  0.168  0.152  0.506  0.001
    occupations:
  0.995  0.000  0.000  0.000  0.000
  0.000  0.683  0.000 -0.083  0.207
  0.000  0.000  0.684  0.206  0.082
  0.000 -0.083  0.206  0.832  0.000
  0.000  0.207  0.082  0.000  0.832
atom    2   Tr[ns(na)] =   8.04861
    eigenvalues: 
  0.521  0.523  0.993  0.993  0.995
    eigenvectors:
  0.000  0.000  0.002  0.000  0.998
  0.419  0.239  0.300  0.041  0.000
  0.240  0.419  0.041  0.300  0.000
  0.024  0.317  0.000  0.658  0.000
  0.317  0.024  0.657  0.000  0.001
    occupations:
  0.995  0.000  0.000  0.000  0.000
  0.000  0.683  0.001  0.082  0.208
  0.000  0.001  0.683  0.207 -0.082
  0.000  0.082  0.207  0.832  0.000
  0.000  0.208 -0.082  0.000  0.832
atom    3   Tr[ns(na)] =   3.79429
    eigenvalues: 
  0.356  0.356  0.382  0.402  0.402
    eigenvectors:
  0.000  0.000  1.000  0.000  0.000
  0.230  0.691  0.000  0.060  0.020
  0.691  0.230  0.000  0.020  0.060
  0.059  0.020  0.000  0.234  0.687
  0.020  0.059  0.000  0.687  0.234
    occupations:
  0.382  0.000  0.000  0.000  0.000
  0.000  0.360  0.000  0.000  0.012
  0.000  0.000  0.360  0.012  0.000
  0.000  0.000  0.012  0.398  0.000
  0.000  0.012  0.000  0.000  0.398
atom    4   Tr[ns(na)] =   3.79433
    eigenvalues: 
  0.356  0.356  0.381  0.402  0.402
    eigenvectors:
  0.000  0.000  1.000  0.000  0.000
  0.682  0.241  0.000  0.058  0.019
  0.241  0.680  0.000  0.019  0.060
  0.021  0.058  0.000  0.234  0.687
  0.056  0.021  0.000  0.688  0.234
    occupations:
  0.381  0.000  0.000  0.000  0.000
  0.000  0.360  0.000  0.000  0.012
  0.000  0.000  0.360  0.012  0.000
  0.000  0.000  0.012  0.398  0.000
  0.000  0.012  0.000  0.000  0.398
atom    5   Tr[ns(na)] =   5.44116
    eigenvalues: 
  0.842  0.931  0.948
    eigenvectors:
  0.337  0.000  0.663
  0.497  0.251  0.252
  0.166  0.749  0.085
    occupations:
  0.912 -0.043  0.025
 -0.043  0.891  0.023
  0.025  0.023  0.918
atom    6   Tr[ns(na)] =   5.43207
    eigenvalues: 
  0.839  0.930  0.947
    eigenvectors:
  0.337  0.000  0.663
  0.498  0.248  0.254
  0.165  0.752  0.083
    occupations:
  0.911  0.044  0.025
  0.044  0.889 -0.024
  0.025 -0.024  0.916
atom    7   Tr[ns(na)] =   5.43207
    eigenvalues: 
  0.839  0.930  0.947
    eigenvectors:
  0.337  0.000  0.663
  0.000  1.000  0.000
  0.663  0.000  0.337
    occupations:
  0.911  0.000 -0.051
  0.000  0.930  0.000
 -0.051  0.000  0.875
atom    8   Tr[ns(na)] =   5.43266
    eigenvalues: 
  0.839  0.930  0.947
    eigenvectors:
  0.337  0.000  0.663
  0.497  0.251  0.252
  0.166  0.749  0.085
    occupations:
  0.911 -0.044  0.026
 -0.044  0.889  0.024
  0.026  0.024  0.916
atom    9   Tr[ns(na)] =   5.43199
    eigenvalues: 
  0.839  0.930  0.947
    eigenvectors:
  0.337  0.000  0.663
  0.497  0.248  0.254
  0.166  0.752  0.083
    occupations:
  0.911  0.044  0.025
  0.044  0.889 -0.024
  0.025 -0.024  0.916
atom   10   Tr[ns(na)] =   5.43198
    eigenvalues: 
  0.839  0.930  0.947
    eigenvectors:
  0.337  0.000  0.663
  0.000  1.000  0.000
  0.663  0.000  0.337
    occupations:
  0.911  0.000 -0.051
  0.000  0.930  0.000
 -0.051  0.000  0.875
N of occupied +U levels =  56.2895086
 --- exit write_ns ---
 --- in v_hubbard ---
Hubbard energy    0.2443
 -------

     total cpu time spent up to now is      241.9 secs

     total energy              =    -538.05848720 Ry
     Harris-Foulkes estimate   =    -538.05842574 Ry
     estimated scf accuracy    <       0.00005869 Ry

     iteration #  7     ecut=    30.00 Ry     beta=0.20
     Davidson diagonalization with overlap
     ethr =  7.72E-08,  avg # of iterations =  2.0
 --- enter write_ns ---
 LDA+U parameters:
U( 1)     =  4.00000000
alpha( 1) =  0.00000000
U( 2)     =  0.00000000
alpha( 2) =  0.00000000
U( 3)     =  0.00000000
alpha( 3) = -0.15000000
U( 4)     =  0.00000000
alpha( 4) =  0.00000000
atom    1   Tr[ns(na)] =   8.05039
    eigenvalues: 
  0.522  0.524  0.992  0.992  0.995
    eigenvectors:
  0.000  0.000  0.002  0.000  0.998
  0.559  0.100  0.205  0.136  0.000
  0.099  0.559  0.136  0.206  0.000
  0.169  0.173  0.502  0.155  0.001
  0.173  0.169  0.155  0.503  0.001
    occupations:
  0.995  0.000  0.000  0.000  0.000
  0.000  0.683  0.000 -0.083  0.207
  0.000  0.000  0.684  0.206  0.082
  0.000 -0.083  0.206  0.832  0.000
  0.000  0.207  0.082  0.000  0.832
atom    2   Tr[ns(na)] =   8.04757
    eigenvalues: 
  0.521  0.522  0.993  0.993  0.995
    eigenvectors:
  0.000  0.000  0.002  0.000  0.998
  0.419  0.239  0.299  0.043  0.000
  0.240  0.419  0.043  0.299  0.000
  0.024  0.317  0.000  0.658  0.000
  0.317  0.024  0.657  0.000  0.001
    occupations:
  0.995  0.000  0.000  0.000  0.000
  0.000  0.683  0.001  0.082  0.208
  0.000  0.001  0.683  0.207 -0.083
  0.000  0.082  0.207  0.832  0.000
  0.000  0.208 -0.083  0.000  0.831
atom    3   Tr[ns(na)] =   3.79085
    eigenvalues: 
  0.356  0.356  0.381  0.401  0.401
    eigenvectors:
  0.000  0.000  1.000  0.000  0.000
  0.229  0.691  0.000  0.063  0.017
  0.691  0.229  0.000  0.017  0.063
  0.059  0.020  0.000  0.206  0.714
  0.021  0.059  0.000  0.714  0.206
    occupations:
  0.381  0.000  0.000  0.000  0.000
  0.000  0.359  0.000  0.000  0.012
  0.000  0.000  0.359  0.012  0.000
  0.000  0.000  0.012  0.398  0.000
  0.000  0.012  0.000  0.000  0.398
atom    4   Tr[ns(na)] =   3.79090
    eigenvalues: 
  0.356  0.356  0.381  0.401  0.402
    eigenvectors:
  0.000  0.000  1.000  0.000  0.000
  0.685  0.237  0.000  0.059  0.019
  0.237  0.684  0.000  0.019  0.060
  0.021  0.059  0.000  0.232  0.688
  0.057  0.021  0.000  0.690  0.232
    occupations:
  0.381  0.000  0.000  0.000  0.000
  0.000  0.359  0.000  0.000  0.012
  0.000  0.000  0.359  0.012  0.000
  0.000  0.000  0.012  0.398  0.000
  0.000  0.012  0.000  0.000  0.398
atom    5   Tr[ns(na)] =   5.44211
    eigenvalues: 
  0.842  0.931  0.948
    eigenvectors:
  0.337  0.000  0.663
  0.497  0.251  0.252
  0.166  0.749  0.085
    occupations:
  0.912 -0.043  0.025
 -0.043  0.891  0.023
  0.025  0.023  0.918
atom    6   Tr[ns(na)] =   5.43288
    eigenvalues: 
  0.839  0.930  0.947
    eigenvectors:
  0.337  0.000  0.663
  0.498  0.248  0.254
  0.165  0.752  0.083
    occupations:
  0.911  0.044  0.025
  0.044  0.889 -0.024
  0.025 -0.024  0.916
atom    7   Tr[ns(na)] =   5.43288
    eigenvalues: 
  0.839  0.930  0.947
    eigenvectors:
  0.337  0.000  0.663
  0.000  1.000  0.000
  0.663  0.000  0.337
    occupations:
  0.911  0.000 -0.051
  0.000  0.930  0.000
 -0.051  0.000  0.876
atom    8   Tr[ns(na)] =   5.43368
    eigenvalues: 
  0.839  0.930  0.947
    eigenvectors:
  0.337  0.000  0.663
  0.497  0.251  0.252
  0.166  0.749  0.085
    occupations:
  0.911 -0.044  0.026
 -0.044  0.889  0.024
  0.026  0.024  0.916
atom    9   Tr[ns(na)] =   5.43278
    eigenvalues: 
  0.839  0.930  0.947
    eigenvectors:
  0.338  0.000  0.662
  0.497  0.249  0.255
  0.166  0.751  0.083
    occupations:
  0.911  0.044  0.026
  0.044  0.889 -0.024
  0.026 -0.024  0.916
atom   10   Tr[ns(na)] =   5.43278
    eigenvalues: 
  0.839  0.930  0.947
    eigenvectors:
  0.338  0.000  0.662
  0.000  1.000  0.000
  0.662  0.000  0.338
    occupations:
  0.911  0.000 -0.051
  0.000  0.930  0.000
 -0.051  0.000  0.876
N of occupied +U levels =  56.2868000
 --- exit write_ns ---
 --- in v_hubbard ---
Hubbard energy    0.2445
 -------

     total cpu time spent up to now is      275.5 secs

     total energy              =    -538.05855309 Ry
     Harris-Foulkes estimate   =    -538.05849590 Ry
     estimated scf accuracy    <       0.00001378 Ry

     iteration #  8     ecut=    30.00 Ry     beta=0.20
     Davidson diagonalization with overlap
     ethr =  1.81E-08,  avg # of iterations =  2.0
 --- enter write_ns ---
 LDA+U parameters:
U( 1)     =  4.00000000
alpha( 1) =  0.00000000
U( 2)     =  0.00000000
alpha( 2) =  0.00000000
U( 3)     =  0.00000000
alpha( 3) = -0.15000000
U( 4)     =  0.00000000
alpha( 4) =  0.00000000
atom    1   Tr[ns(na)] =   8.05142
    eigenvalues: 
  0.523  0.524  0.992  0.992  0.995
    eigenvectors:
  0.000  0.000  0.002  0.000  0.998
  0.559  0.100  0.205  0.136  0.000
  0.099  0.559  0.136  0.206  0.000
  0.169  0.173  0.501  0.156  0.001
  0.173  0.169  0.156  0.502  0.001
    occupations:
  0.995  0.000  0.000  0.000  0.000
  0.000  0.683  0.000 -0.083  0.207
  0.000  0.000  0.684  0.206  0.082
  0.000 -0.083  0.206  0.832  0.000
  0.000  0.207  0.082  0.000  0.832
atom    2   Tr[ns(na)] =   8.04896
    eigenvalues: 
  0.521  0.523  0.993  0.993  0.995
    eigenvectors:
  0.000  0.000  0.001  0.000  0.998
  0.419  0.239  0.299  0.043  0.000
  0.240  0.419  0.043  0.298  0.000
  0.024  0.317  0.000  0.658  0.000
  0.317  0.024  0.657  0.000  0.001
    occupations:
  0.995  0.000  0.000  0.000  0.000
  0.000  0.683  0.001  0.082  0.208
  0.000  0.001  0.683  0.207 -0.083
  0.000  0.082  0.207  0.832  0.000
  0.000  0.208 -0.083  0.000  0.831
atom    3   Tr[ns(na)] =   3.79223
    eigenvalues: 
  0.356  0.356  0.381  0.402  0.402
    eigenvectors:
  0.000  0.000  1.000  0.000  0.000
  0.229  0.691  0.000  0.062  0.018
  0.691  0.229  0.000  0.018  0.062
  0.059  0.020  0.000  0.216  0.704
  0.020  0.059  0.000  0.704  0.216
    occupations:
  0.381  0.000  0.000  0.000  0.000
  0.000  0.360  0.000  0.000  0.012
  0.000  0.000  0.359  0.012  0.000
  0.000  0.000  0.012  0.398  0.000
  0.000  0.012  0.000  0.000  0.398
atom    4   Tr[ns(na)] =   3.79228
    eigenvalues: 
  0.356  0.356  0.381  0.402  0.402
    eigenvectors:
  0.000  0.000  1.000  0.000  0.000
  0.681  0.241  0.000  0.059  0.019
  0.241  0.680  0.000  0.019  0.060
  0.021  0.058  0.000  0.232  0.689
  0.057  0.021  0.000  0.690  0.232
    occupations:
  0.381  0.000  0.000  0.000  0.000
  0.000  0.359  0.000  0.000  0.012
  0.000  0.000  0.359  0.012  0.000
  0.000  0.000  0.012  0.398  0.000
  0.000  0.012  0.000  0.000  0.398
atom    5   Tr[ns(na)] =   5.44141
    eigenvalues: 
  0.842  0.931  0.948
    eigenvectors:
  0.337  0.000  0.663
  0.497  0.251  0.252
  0.166  0.749  0.085
    occupations:
  0.912 -0.044  0.025
 -0.044  0.891  0.023
  0.025  0.023  0.918
atom    6   Tr[ns(na)] =   5.43222
    eigenvalues: 
  0.839  0.930  0.947
    eigenvectors:
  0.337  0.000  0.663
  0.498  0.248  0.254
  0.165  0.752  0.083
    occupations:
  0.911  0.044  0.025
  0.044  0.889 -0.024
  0.025 -0.024  0.916
atom    7   Tr[ns(na)] =   5.43222
    eigenvalues: 
  0.839  0.930  0.947
    eigenvectors:
  0.337  0.000  0.663
  0.000  1.000  0.000
  0.663  0.000  0.337
    occupations:
  0.911  0.000 -0.051
  0.000  0.930  0.000
 -0.051  0.000  0.875
atom    8   Tr[ns(na)] =   5.43280
    eigenvalues: 
  0.839  0.930  0.947
    eigenvectors:
  0.337  0.000  0.663
  0.497  0.251  0.252
  0.166  0.749  0.085
    occupations:
  0.911 -0.044  0.026
 -0.044  0.889  0.024
  0.026  0.024  0.916
atom    9   Tr[ns(na)] =   5.43214
    eigenvalues: 
  0.839  0.930  0.947
    eigenvectors:
  0.338  0.000  0.662
  0.497  0.248  0.255
  0.166  0.752  0.083
    occupations:
  0.911  0.044  0.026
  0.044  0.889 -0.024
  0.026 -0.024  0.916
atom   10   Tr[ns(na)] =   5.43214
    eigenvalues: 
  0.839  0.930  0.947
    eigenvectors:
  0.338  0.000  0.662
  0.000  1.000  0.000
  0.662  0.000  0.338
    occupations:
  0.911  0.000 -0.051
  0.000  0.930  0.000
 -0.051  0.000  0.876
N of occupied +U levels =  56.2878304
 --- exit write_ns ---
 --- in v_hubbard ---
Hubbard energy    0.2449
 -------

     total cpu time spent up to now is      308.1 secs

     total energy              =    -538.05859013 Ry
     Harris-Foulkes estimate   =    -538.05855482 Ry
     estimated scf accuracy    <       0.00000364 Ry

     iteration #  9     ecut=    30.00 Ry     beta=0.20
     Davidson diagonalization with overlap
     ethr =  4.78E-09,  avg # of iterations =  1.5
 --- enter write_ns ---
 LDA+U parameters:
U( 1)     =  4.00000000
alpha( 1) =  0.00000000
U( 2)     =  0.00000000
alpha( 2) =  0.00000000
U( 3)     =  0.00000000
alpha( 3) = -0.15000000
U( 4)     =  0.00000000
alpha( 4) =  0.00000000
atom    1   Tr[ns(na)] =   8.05094
    eigenvalues: 
  0.522  0.524  0.992  0.992  0.995
    eigenvectors:
  0.000  0.000  0.002  0.000  0.998
  0.559  0.099  0.206  0.135  0.000
  0.099  0.559  0.135  0.207  0.000
  0.169  0.173  0.500  0.157  0.001
  0.173  0.169  0.157  0.501  0.001
    occupations:
  0.995  0.000  0.000  0.000  0.000
  0.000  0.683  0.000 -0.083  0.207
  0.000  0.000  0.684  0.206  0.082
  0.000 -0.083  0.206  0.832  0.000
  0.000  0.207  0.082  0.000  0.832
atom    2   Tr[ns(na)] =   8.04831
    eigenvalues: 
  0.521  0.523  0.993  0.993  0.995
    eigenvectors:
  0.000  0.000  0.001  0.000  0.998
  0.418  0.240  0.298  0.044  0.000
  0.240  0.419  0.043  0.298  0.000
  0.024  0.317  0.000  0.658  0.000
  0.318  0.024  0.657  0.000  0.001
    occupations:
  0.995  0.000  0.000  0.000  0.000
  0.000  0.683  0.001  0.082  0.208
  0.000  0.001  0.683  0.207 -0.083
  0.000  0.082  0.207  0.832  0.000
  0.000  0.208 -0.083  0.000  0.831
atom    3   Tr[ns(na)] =   3.79218
    eigenvalues: 
  0.356  0.356  0.381  0.402  0.402
    eigenvectors:
  0.000  0.000  1.000  0.000  0.000
  0.229  0.691  0.000  0.062  0.018
  0.691  0.229  0.000  0.018  0.062
  0.059  0.020  0.000  0.211  0.709
  0.020  0.059  0.000  0.709  0.211
    occupations:
  0.381  0.000  0.000  0.000  0.000
  0.000  0.360  0.000  0.000  0.012
  0.000  0.000  0.359  0.012  0.000
  0.000  0.000  0.012  0.398  0.000
  0.000  0.012  0.000  0.000  0.398
atom    4   Tr[ns(na)] =   3.79222
    eigenvalues: 
  0.356  0.356  0.381  0.402  0.402
    eigenvectors:
  0.000  0.000  1.000  0.000  0.000
  0.682  0.240  0.000  0.059  0.019
  0.240  0.681  0.000  0.019  0.060
  0.021  0.058  0.000  0.232  0.689
  0.057  0.021  0.000  0.690  0.232
    occupations:
  0.381  0.000  0.000  0.000  0.000
  0.000  0.359  0.000  0.000  0.012
  0.000  0.000  0.359  0.012  0.000
  0.000  0.000  0.012  0.398  0.000
  0.000  0.012  0.000  0.000  0.398
atom    5   Tr[ns(na)] =   5.44159
    eigenvalues: 
  0.842  0.931  0.948
    eigenvectors:
  0.337  0.000  0.663
  0.497  0.251  0.252
  0.166  0.749  0.085
    occupations:
  0.912 -0.043  0.025
 -0.043  0.891  0.023
  0.025  0.023  0.918
atom    6   Tr[ns(na)] =   5.43237
    eigenvalues: 
  0.839  0.930  0.947
    eigenvectors:
  0.337  0.000  0.663
  0.498  0.248  0.254
  0.165  0.752  0.083
    occupations:
  0.911  0.044  0.025
  0.044  0.889 -0.024
  0.025 -0.024  0.916
atom    7   Tr[ns(na)] =   5.43237
    eigenvalues: 
  0.839  0.930  0.947
    eigenvectors:
  0.337  0.000  0.663
  0.000  1.000  0.000
  0.663  0.000  0.337
    occupations:
  0.911  0.000 -0.051
  0.000  0.930  0.000
 -0.051  0.000  0.876
atom    8   Tr[ns(na)] =   5.43300
    eigenvalues: 
  0.839  0.930  0.947
    eigenvectors:
  0.337  0.000  0.663
  0.497  0.251  0.252
  0.166  0.749  0.085
    occupations:
  0.911 -0.044  0.026
 -0.044  0.889  0.024
  0.026  0.024  0.916
atom    9   Tr[ns(na)] =   5.43229
    eigenvalues: 
  0.839  0.930  0.947
    eigenvectors:
  0.338  0.000  0.662
  0.497  0.248  0.255
  0.166  0.752  0.083
    occupations:
  0.911  0.044  0.026
  0.044  0.889 -0.024
  0.026 -0.024  0.916
atom   10   Tr[ns(na)] =   5.43229
    eigenvalues: 
  0.839  0.930  0.947
    eigenvectors:
  0.338  0.000  0.662
  0.000  1.000  0.000
  0.662  0.000  0.338
    occupations:
  0.911  0.000 -0.051
  0.000  0.930  0.000
 -0.051  0.000  0.876
N of occupied +U levels =  56.2875690
 --- exit write_ns ---
 --- in v_hubbard ---
Hubbard energy    0.2452
 -------

     total cpu time spent up to now is      338.0 secs

     total energy              =    -538.05861575 Ry
     Harris-Foulkes estimate   =    -538.05859051 Ry
     estimated scf accuracy    <       0.00000070 Ry

     iteration # 10     ecut=    30.00 Ry     beta=0.20
     Davidson diagonalization with overlap
     ethr =  9.18E-10,  avg # of iterations =  2.0
 --- enter write_ns ---
 LDA+U parameters:
U( 1)     =  4.00000000
alpha( 1) =  0.00000000
U( 2)     =  0.00000000
alpha( 2) =  0.00000000
U( 3)     =  0.00000000
alpha( 3) = -0.15000000
U( 4)     =  0.00000000
alpha( 4) =  0.00000000
atom    1   Tr[ns(na)] =   8.05144
    eigenvalues: 
  0.523  0.524  0.992  0.992  0.995
    eigenvectors:
  0.000  0.000  0.002  0.000  0.998
  0.559  0.099  0.206  0.135  0.000
  0.099  0.559  0.135  0.207  0.000
  0.169  0.173  0.500  0.157  0.001
  0.173  0.169  0.157  0.501  0.001
    occupations:
  0.995  0.000  0.000  0.000  0.000
  0.000  0.683  0.000 -0.083  0.206
  0.000  0.000  0.684  0.206  0.082
  0.000 -0.083  0.206  0.832  0.000
  0.000  0.206  0.082  0.000  0.832
atom    2   Tr[ns(na)] =   8.04900
    eigenvalues: 
  0.521  0.523  0.993  0.993  0.995
    eigenvectors:
  0.000  0.000  0.001  0.000  0.998
  0.418  0.240  0.298  0.044  0.000
  0.240  0.419  0.043  0.298  0.000
  0.024  0.317  0.000  0.658  0.000
  0.318  0.024  0.657  0.000  0.001
    occupations:
  0.995  0.000  0.000  0.000  0.000
  0.000  0.683  0.001  0.082  0.208
  0.000  0.001  0.683  0.207 -0.083
  0.000  0.082  0.207  0.832  0.000
  0.000  0.208 -0.083  0.000  0.831
atom    3   Tr[ns(na)] =   3.79231
    eigenvalues: 
  0.356  0.356  0.381  0.402  0.402
    eigenvectors:
  0.000  0.000  1.000  0.000  0.000
  0.229  0.691  0.000  0.063  0.017
  0.691  0.229  0.000  0.017  0.063
  0.059  0.020  0.000  0.205  0.715
  0.020  0.059  0.000  0.715  0.205
    occupations:
  0.381  0.000  0.000  0.000  0.000
  0.000  0.360  0.000  0.000  0.012
  0.000  0.000  0.359  0.012  0.000
  0.000  0.000  0.012  0.398  0.000
  0.000  0.012  0.000  0.000  0.398
atom    4   Tr[ns(na)] =   3.79235
    eigenvalues: 
  0.356  0.356  0.381  0.402  0.402
    eigenvectors:
  0.000  0.000  1.000  0.000  0.000
  0.679  0.242  0.000  0.059  0.019
  0.243  0.678  0.000  0.019  0.060
  0.021  0.058  0.000  0.232  0.689
  0.057  0.022  0.000  0.690  0.232
    occupations:
  0.381  0.000  0.000  0.000  0.000
  0.000  0.359  0.000  0.000  0.012
  0.000  0.000  0.359  0.012  0.000
  0.000  0.000  0.012  0.398  0.000
  0.000  0.012  0.000  0.000  0.398
atom    5   Tr[ns(na)] =   5.44137
    eigenvalues: 
  0.842  0.931  0.948
    eigenvectors:
  0.337  0.000  0.663
  0.497  0.251  0.252
  0.166  0.749  0.085
    occupations:
  0.912 -0.044  0.025
 -0.044  0.891  0.023
  0.025  0.023  0.918
atom    6   Tr[ns(na)] =   5.43214
    eigenvalues: 
  0.839  0.930  0.947
    eigenvectors:
  0.337  0.000  0.663
  0.498  0.248  0.254
  0.165  0.752  0.083
    occupations:
  0.911  0.044  0.025
  0.044  0.889 -0.024
  0.025 -0.024  0.916
atom    7   Tr[ns(na)] =   5.43214
    eigenvalues: 
  0.839  0.930  0.947
    eigenvectors:
  0.337  0.000  0.663
  0.000  1.000  0.000
  0.663  0.000  0.337
    occupations:
  0.911  0.000 -0.051
  0.000  0.930  0.000
 -0.051  0.000  0.875
atom    8   Tr[ns(na)] =   5.43280
    eigenvalues: 
  0.839  0.930  0.947
    eigenvectors:
  0.337  0.000  0.663
  0.497  0.251  0.252
  0.166  0.749  0.085
    occupations:
  0.911 -0.044  0.026
 -0.044  0.889  0.024
  0.026  0.024  0.916
atom    9   Tr[ns(na)] =   5.43206
    eigenvalues: 
  0.839  0.930  0.947
    eigenvectors:
  0.338  0.000  0.662
  0.497  0.248  0.255
  0.166  0.752  0.083
    occupations:
  0.911  0.044  0.026
  0.044  0.889 -0.024
  0.026 -0.024  0.916
atom   10   Tr[ns(na)] =   5.43206
    eigenvalues: 
  0.839  0.930  0.947
    eigenvectors:
  0.338  0.000  0.662
  0.000  1.000  0.000
  0.662  0.000  0.338
    occupations:
  0.911  0.000 -0.051
  0.000  0.930  0.000
 -0.051  0.000  0.876
N of occupied +U levels =  56.2876845
 --- exit write_ns ---
 --- in v_hubbard ---
Hubbard energy    0.2452
 -------

     total cpu time spent up to now is      370.6 secs

     total energy              =    -538.05863133 Ry
     Harris-Foulkes estimate   =    -538.05861595 Ry
     estimated scf accuracy    <       0.00000076 Ry

     iteration # 11     ecut=    30.00 Ry     beta=0.20
     Davidson diagonalization with overlap
     ethr =  9.18E-10,  avg # of iterations =  1.0
 --- enter write_ns ---
 LDA+U parameters:
U( 1)     =  4.00000000
alpha( 1) =  0.00000000
U( 2)     =  0.00000000
alpha( 2) =  0.00000000
U( 3)     =  0.00000000
alpha( 3) = -0.15000000
U( 4)     =  0.00000000
alpha( 4) =  0.00000000
atom    1   Tr[ns(na)] =   8.05090
    eigenvalues: 
  0.522  0.524  0.992  0.992  0.995
    eigenvectors:
  0.000  0.000  0.002  0.000  0.998
  0.559  0.099  0.207  0.134  0.000
  0.099  0.559  0.135  0.207  0.000
  0.169  0.173  0.500  0.158  0.001
  0.173  0.169  0.157  0.500  0.001
    occupations:
  0.995  0.000  0.000  0.000  0.000
  0.000  0.683  0.000 -0.083  0.207
  0.000  0.000  0.684  0.206  0.082
  0.000 -0.083  0.206  0.832  0.000
  0.000  0.207  0.082  0.000  0.832
atom    2   Tr[ns(na)] =   8.04829
    eigenvalues: 
  0.521  0.523  0.993  0.993  0.995
    eigenvectors:
  0.000  0.000  0.001  0.000  0.998
  0.418  0.240  0.298  0.044  0.000
  0.240  0.418  0.044  0.298  0.000
  0.024  0.317  0.000  0.658  0.000
  0.318  0.024  0.657  0.000  0.001
    occupations:
  0.995  0.000  0.000  0.000  0.000
  0.000  0.683  0.001  0.082  0.208
  0.000  0.001  0.683  0.207 -0.083
  0.000  0.082  0.207  0.832  0.000
  0.000  0.208 -0.083  0.000  0.831
atom    3   Tr[ns(na)] =   3.79221
    eigenvalues: 
  0.356  0.356  0.381  0.402  0.402
    eigenvectors:
  0.000  0.000  1.000  0.000  0.000
  0.229  0.691  0.000  0.063  0.017
  0.691  0.229  0.000  0.017  0.063
  0.059  0.020  0.000  0.204  0.716
  0.020  0.059  0.000  0.716  0.204
    occupations:
  0.381  0.000  0.000  0.000  0.000
  0.000  0.360  0.000  0.000  0.012
  0.000  0.000  0.359  0.012  0.000
  0.000  0.000  0.012  0.398  0.000
  0.000  0.012  0.000  0.000  0.398
atom    4   Tr[ns(na)] =   3.79225
    eigenvalues: 
  0.356  0.356  0.381  0.402  0.402
    eigenvectors:
  0.000  0.000  1.000  0.000  0.000
  0.678  0.243  0.000  0.059  0.019
  0.244  0.677  0.000  0.019  0.060
  0.021  0.058  0.000  0.232  0.689
  0.057  0.022  0.000  0.690  0.231
    occupations:
  0.381  0.000  0.000  0.000  0.000
  0.000  0.359  0.000  0.000  0.012
  0.000  0.000  0.359  0.012  0.000
  0.000  0.000  0.012  0.398  0.000
  0.000  0.012  0.000  0.000  0.398
atom    5   Tr[ns(na)] =   5.44157
    eigenvalues: 
  0.842  0.931  0.948
    eigenvectors:
  0.337  0.000  0.663
  0.497  0.251  0.252
  0.166  0.749  0.085
    occupations:
  0.912 -0.044  0.025
 -0.044  0.891  0.023
  0.025  0.023  0.918
atom    6   Tr[ns(na)] =   5.43236
    eigenvalues: 
  0.839  0.930  0.947
    eigenvectors:
  0.337  0.000  0.663
  0.498  0.248  0.254
  0.165  0.752  0.083
    occupations:
  0.911  0.044  0.025
  0.044  0.889 -0.024
  0.025 -0.024  0.916
atom    7   Tr[ns(na)] =   5.43236
    eigenvalues: 
  0.839  0.930  0.947
    eigenvectors:
  0.337  0.000  0.663
  0.000  1.000  0.000
  0.663  0.000  0.337
    occupations:
  0.911  0.000 -0.051
  0.000  0.930  0.000
 -0.051  0.000  0.876
atom    8   Tr[ns(na)] =   5.43300
    eigenvalues: 
  0.839  0.930  0.947
    eigenvectors:
  0.337  0.000  0.663
  0.497  0.251  0.252
  0.166  0.749  0.085
    occupations:
  0.911 -0.044  0.026
 -0.044  0.889  0.024
  0.026  0.024  0.916
atom    9   Tr[ns(na)] =   5.43228
    eigenvalues: 
  0.839  0.930  0.947
    eigenvectors:
  0.338  0.000  0.662
  0.497  0.248  0.255
  0.166  0.752  0.083
    occupations:
  0.911  0.044  0.026
  0.044  0.889 -0.024
  0.026 -0.024  0.916
atom   10   Tr[ns(na)] =   5.43228
    eigenvalues: 
  0.839  0.930  0.947
    eigenvectors:
  0.338  0.000  0.662
  0.000  1.000  0.000
  0.662  0.000  0.338
    occupations:
  0.911  0.000 -0.051
  0.000  0.930  0.000
 -0.051  0.000  0.876
N of occupied +U levels =  56.2874870
 --- exit write_ns ---
 --- in v_hubbard ---
Hubbard energy    0.2452
 -------

     total cpu time spent up to now is      396.4 secs

     total energy              =    -538.05864198 Ry
     Harris-Foulkes estimate   =    -538.05863146 Ry
     estimated scf accuracy    <       0.00000008 Ry

     iteration # 12     ecut=    30.00 Ry     beta=0.20
     Davidson diagonalization with overlap
     ethr =  1.11E-10,  avg # of iterations =  1.4
 --- enter write_ns ---
 LDA+U parameters:
U( 1)     =  4.00000000
alpha( 1) =  0.00000000
U( 2)     =  0.00000000
alpha( 2) =  0.00000000
U( 3)     =  0.00000000
alpha( 3) = -0.15000000
U( 4)     =  0.00000000
alpha( 4) =  0.00000000
atom    1   Tr[ns(na)] =   8.05101
    eigenvalues: 
  0.522  0.524  0.992  0.992  0.995
    eigenvectors:
  0.000  0.000  0.002  0.000  0.998
  0.559  0.099  0.207  0.134  0.000
  0.099  0.559  0.134  0.207  0.000
  0.169  0.173  0.499  0.158  0.001
  0.173  0.169  0.158  0.500  0.001
    occupations:
  0.995  0.000  0.000  0.000  0.000
  0.000  0.683  0.000 -0.083  0.207
  0.000  0.000  0.684  0.206  0.082
  0.000 -0.083  0.206  0.832  0.000
  0.000  0.207  0.082  0.000  0.832
atom    2   Tr[ns(na)] =   8.04842
    eigenvalues: 
  0.521  0.523  0.993  0.993  0.995
    eigenvectors:
  0.000  0.000  0.001  0.000  0.998
  0.418  0.240  0.298  0.044  0.000
  0.240  0.418  0.044  0.297  0.000
  0.024  0.317  0.000  0.658  0.000
  0.318  0.024  0.657  0.000  0.001
    occupations:
  0.995  0.000  0.000  0.000  0.000
  0.000  0.683  0.001  0.082  0.208
  0.000  0.001  0.683  0.207 -0.083
  0.000  0.082  0.207  0.832  0.000
  0.000  0.208 -0.083  0.000  0.831
atom    3   Tr[ns(na)] =   3.79221
    eigenvalues: 
  0.356  0.356  0.381  0.402  0.402
    eigenvectors:
  0.000  0.000  1.000  0.000  0.000
  0.229  0.691  0.000  0.063  0.017
  0.691  0.229  0.000  0.017  0.063
  0.059  0.020  0.000  0.204  0.716
  0.020  0.059  0.000  0.716  0.204
    occupations:
  0.381  0.000  0.000  0.000  0.000
  0.000  0.360  0.000  0.000  0.012
  0.000  0.000  0.359  0.012  0.000
  0.000  0.000  0.012  0.398  0.000
  0.000  0.012  0.000  0.000  0.398
atom    4   Tr[ns(na)] =   3.79225
    eigenvalues: 
  0.356  0.356  0.381  0.402  0.402
    eigenvectors:
  0.000  0.000  1.000  0.000  0.000
  0.678  0.243  0.000  0.059  0.019
  0.244  0.677  0.000  0.019  0.060
  0.021  0.058  0.000  0.232  0.689
  0.057  0.022  0.000  0.690  0.231
    occupations:
  0.381  0.000  0.000  0.000  0.000
  0.000  0.359  0.000  0.000  0.012
  0.000  0.000  0.359  0.012  0.000
  0.000  0.000  0.012  0.398  0.000
  0.000  0.012  0.000  0.000  0.398
atom    5   Tr[ns(na)] =   5.44154
    eigenvalues: 
  0.842  0.931  0.948
    eigenvectors:
  0.337  0.000  0.663
  0.497  0.251  0.252
  0.166  0.749  0.085
    occupations:
  0.912 -0.044  0.025
 -0.044  0.891  0.023
  0.025  0.023  0.918
atom    6   Tr[ns(na)] =   5.43232
    eigenvalues: 
  0.839  0.930  0.947
    eigenvectors:
  0.337  0.000  0.663
  0.498  0.248  0.254
  0.165  0.752  0.083
    occupations:
  0.911  0.044  0.025
  0.044  0.889 -0.024
  0.025 -0.024  0.916
atom    7   Tr[ns(na)] =   5.43232
    eigenvalues: 
  0.839  0.930  0.947
    eigenvectors:
  0.337  0.000  0.663
  0.000  1.000  0.000
  0.663  0.000  0.337
    occupations:
  0.911  0.000 -0.051
  0.000  0.930  0.000
 -0.051  0.000  0.876
atom    8   Tr[ns(na)] =   5.43296
    eigenvalues: 
  0.839  0.930  0.947
    eigenvectors:
  0.337  0.000  0.663
  0.497  0.251  0.252
  0.166  0.749  0.085
    occupations:
  0.911 -0.044  0.026
 -0.044  0.889  0.024
  0.026  0.024  0.916
atom    9   Tr[ns(na)] =   5.43224
    eigenvalues: 
  0.839  0.930  0.947
    eigenvectors:
  0.338  0.000  0.662
  0.497  0.248  0.255
  0.166  0.752  0.083
    occupations:
  0.911  0.044  0.026
  0.044  0.889 -0.024
  0.026 -0.024  0.916
atom   10   Tr[ns(na)] =   5.43224
    eigenvalues: 
  0.839  0.930  0.947
    eigenvectors:
  0.338  0.000  0.662
  0.000  1.000  0.000
  0.662  0.000  0.338
    occupations:
  0.911  0.000 -0.051
  0.000  0.930  0.000
 -0.051  0.000  0.876
N of occupied +U levels =  56.2875146
 --- exit write_ns ---
 --- in v_hubbard ---
Hubbard energy    0.2452
 -------

     total cpu time spent up to now is      421.8 secs

     total energy              =    -538.05864872 Ry
     Harris-Foulkes estimate   =    -538.05864199 Ry
     estimated scf accuracy    <       0.00000004 Ry

     iteration # 13     ecut=    30.00 Ry     beta=0.20
     Davidson diagonalization with overlap
     ethr =  4.70E-11,  avg # of iterations =  1.8
 --- enter write_ns ---
 LDA+U parameters:
U( 1)     =  4.00000000
alpha( 1) =  0.00000000
U( 2)     =  0.00000000
alpha( 2) =  0.00000000
U( 3)     =  0.00000000
alpha( 3) = -0.15000000
U( 4)     =  0.00000000
alpha( 4) =  0.00000000
atom    1   Tr[ns(na)] =   8.05100
    eigenvalues: 
  0.522  0.524  0.992  0.992  0.995
    eigenvectors:
  0.000  0.000  0.002  0.000  0.998
  0.559  0.099  0.207  0.134  0.000
  0.099  0.559  0.134  0.208  0.000
  0.169  0.173  0.499  0.158  0.001
  0.173  0.169  0.158  0.500  0.001
    occupations:
  0.995  0.000  0.000  0.000  0.000
  0.000  0.683  0.000 -0.083  0.207
  0.000  0.000  0.684  0.206  0.082
  0.000 -0.083  0.206  0.832  0.000
  0.000  0.207  0.082  0.000  0.832
atom    2   Tr[ns(na)] =   8.04842
    eigenvalues: 
  0.521  0.523  0.993  0.993  0.995
    eigenvectors:
  0.000  0.000  0.001  0.000  0.998
  0.418  0.240  0.297  0.044  0.000
  0.240  0.418  0.044  0.297  0.000
  0.024  0.318  0.000  0.658  0.000
  0.318  0.024  0.657  0.000  0.001
    occupations:
  0.995  0.000  0.000  0.000  0.000
  0.000  0.683  0.001  0.082  0.208
  0.000  0.001  0.683  0.207 -0.083
  0.000  0.082  0.207  0.832  0.000
  0.000  0.208 -0.083  0.000  0.831
atom    3   Tr[ns(na)] =   3.79220
    eigenvalues: 
  0.356  0.356  0.381  0.402  0.402
    eigenvectors:
  0.000  0.000  1.000  0.000  0.000
  0.229  0.691  0.000  0.063  0.017
  0.691  0.229  0.000  0.017  0.063
  0.059  0.020  0.000  0.203  0.717
  0.020  0.059  0.000  0.717  0.203
    occupations:
  0.381  0.000  0.000  0.000  0.000
  0.000  0.360  0.000  0.000  0.012
  0.000  0.000  0.359  0.012  0.000
  0.000  0.000  0.012  0.398  0.000
  0.000  0.012  0.000  0.000  0.398
atom    4   Tr[ns(na)] =   3.79225
    eigenvalues: 
  0.356  0.356  0.381  0.402  0.402
    eigenvectors:
  0.000  0.000  1.000  0.000  0.000
  0.678  0.244  0.000  0.059  0.019
  0.244  0.677  0.000  0.019  0.060
  0.021  0.058  0.000  0.232  0.689
  0.057  0.022  0.000  0.690  0.231
    occupations:
  0.381  0.000  0.000  0.000  0.000
  0.000  0.359  0.000  0.000  0.012
  0.000  0.000  0.359  0.012  0.000
  0.000  0.000  0.012  0.398  0.000
  0.000  0.012  0.000  0.000  0.398
atom    5   Tr[ns(na)] =   5.44155
    eigenvalues: 
  0.842  0.931  0.948
    eigenvectors:
  0.337  0.000  0.663
  0.497  0.251  0.252
  0.166  0.749  0.085
    occupations:
  0.912 -0.044  0.025
 -0.044  0.891  0.023
  0.025  0.023  0.918
atom    6   Tr[ns(na)] =   5.43232
    eigenvalues: 
  0.839  0.930  0.947
    eigenvectors:
  0.337  0.000  0.663
  0.498  0.248  0.254
  0.165  0.752  0.083
    occupations:
  0.911  0.044  0.025
  0.044  0.889 -0.024
  0.025 -0.024  0.916
atom    7   Tr[ns(na)] =   5.43232
    eigenvalues: 
  0.839  0.930  0.947
    eigenvectors:
  0.337  0.000  0.663
  0.000  1.000  0.000
  0.663  0.000  0.337
    occupations:
  0.911  0.000 -0.051
  0.000  0.930  0.000
 -0.051  0.000  0.876
atom    8   Tr[ns(na)] =   5.43297
    eigenvalues: 
  0.839  0.930  0.947
    eigenvectors:
  0.337  0.000  0.663
  0.497  0.251  0.252
  0.166  0.749  0.085
    occupations:
  0.911 -0.044  0.026
 -0.044  0.889  0.024
  0.026  0.024  0.916
atom    9   Tr[ns(na)] =   5.43224
    eigenvalues: 
  0.839  0.930  0.947
    eigenvectors:
  0.338  0.000  0.662
  0.497  0.248  0.255
  0.166  0.752  0.083
    occupations:
  0.911  0.044  0.026
  0.044  0.889 -0.024
  0.026 -0.024  0.916
atom   10   Tr[ns(na)] =   5.43224
    eigenvalues: 
  0.839  0.930  0.947
    eigenvectors:
  0.338  0.000  0.662
  0.000  1.000  0.000
  0.662  0.000  0.338
    occupations:
  0.911  0.000 -0.051
  0.000  0.930  0.000
 -0.051  0.000  0.876
N of occupied +U levels =  56.2875164
 --- exit write_ns ---
 --- in v_hubbard ---
Hubbard energy    0.2452
 -------

     total cpu time spent up to now is      447.3 secs

     End of self-consistent calculation

          k = 0.0000 0.0000 0.0000 (  2175 PWs)   bands (ev):

   -19.7974 -19.6245  -6.5466  -5.8654  -5.8561  -5.8309  -5.8010  -5.4782
    -3.8487  -3.2616  -3.2573  -3.2549  -3.0276  -3.0268   5.1481   6.7359
     6.7414   6.8726   6.8782   6.8876   7.4802   7.4974   7.6872   8.6617
     8.8668   8.8682   9.2758   9.5972   9.6121   9.9846   9.9888  10.1803
    10.4396  10.4434  10.6578  10.9622  10.9663  11.3199  11.8985  11.9008
    14.7146  14.7182  15.4278  15.4300  16.2002  16.7849

     occupation numbers 
     0.0313   0.0313   0.0313   0.0313   0.0313   0.0313   0.0313   0.0313
     0.0313   0.0313   0.0313   0.0313   0.0313   0.0313   0.0313   0.0313
     0.0313   0.0313   0.0313   0.0313   0.0313   0.0313   0.0313   0.0313
     0.0313   0.0313   0.0312   0.0312   0.0312   0.0312   0.0312   0.0312
     0.0312   0.0312   0.0312   0.0308   0.0308   0.0258   0.0045   0.0044
     0.0000   0.0000   0.0000   0.0000   0.0000   0.0000

          k =-0.2471-0.1427 0.1027 (  2181 PWs)   bands (ev):

   -19.7726 -19.6616  -6.7254  -6.2959  -5.9556  -5.8542  -5.6112  -5.4760
    -3.6361  -3.4125  -2.9450  -2.9100  -2.8664  -2.7677   5.4960   6.5071
     6.7622   6.8338   6.8507   6.9202   6.9662   7.4363   7.5743   7.9844
     8.0665   8.5175   9.4977   9.6237   9.6956   9.9226  10.0433  10.0906
    10.3038  10.3710  10.3918  10.9855  11.0917  11.0983  12.2731  12.3461
    14.2624  14.2752  15.8158  16.0710  16.9730  17.2672

     occupation numbers 
     0.0625   0.0625   0.0625   0.0625   0.0625   0.0625   0.0625   0.0625
     0.0625   0.0625   0.0625   0.0625   0.0625   0.0625   0.0625   0.0625
     0.0625   0.0625   0.0625   0.0625   0.0625   0.0625   0.0625   0.0625
     0.0625   0.0625   0.0625   0.0625   0.0625   0.0625   0.0625   0.0625
     0.0625   0.0625   0.0625   0.0614   0.0599   0.0597   0.0006   0.0003
     0.0000   0.0000   0.0000   0.0000   0.0000   0.0000

          k = 0.4942 0.2853-0.2053 (  2202 PWs)   bands (ev):

   -19.7243 -19.7224  -6.7310  -6.7073  -5.9735  -5.9558  -5.5336  -5.5060
    -3.4015  -3.4001  -2.8034  -2.7973  -2.5100  -2.5045   5.8698   5.9010
     6.8339   6.8511   7.0581   7.0658   7.2394   7.2582   7.3275   7.3668
     7.5425   7.5634   9.3773   9.3890   9.8182   9.8359  10.2249  10.2383
    10.3614  10.3816  10.5509  10.5803  10.8471  10.8608  13.2479  13.2889
    13.3316  13.3753  16.8302  16.8387  17.1283  17.1340

     occupation numbers 
     0.0313   0.0313   0.0313   0.0313   0.0313   0.0313   0.0313   0.0313
     0.0313   0.0313   0.0313   0.0313   0.0313   0.0313   0.0313   0.0313
     0.0313   0.0313   0.0313   0.0313   0.0313   0.0313   0.0313   0.0313
     0.0313   0.0313   0.0312   0.0312   0.0312   0.0312   0.0312   0.0312
     0.0312   0.0312   0.0312   0.0312   0.0311   0.0311   0.0000   0.0000
     0.0000   0.0000   0.0000   0.0000   0.0000   0.0000

          k =-0.2471 0.1427 0.2053 (  2195 PWs)   bands (ev):

   -19.7648 -19.6719  -6.8590  -6.2452  -6.0790  -5.8165  -5.6391  -5.4752
    -3.4411  -3.2735  -3.1170  -2.9087  -2.8364  -2.5627   5.5408   6.2417
     6.5536   6.7640   6.9283   7.1557   7.1915   7.3748   7.4598   8.0199
     8.0887   8.7275   8.8336   9.2858   9.7925   9.8406   9.9756  10.0262
    10.2502  10.6457  10.7590  10.8177  11.0005  11.0701  11.8286  12.6929
    13.5937  14.7361  15.9937  16.1964  17.0386  17.5381

     occupation numbers 
     0.0625   0.0625   0.0625   0.0625   0.0625   0.0625   0.0625   0.0625
     0.0625   0.0625   0.0625   0.0625   0.0625   0.0625   0.0625   0.0625
     0.0625   0.0625   0.0625   0.0625   0.0625   0.0625   0.0625   0.0625
     0.0625   0.0625   0.0625   0.0625   0.0625   0.0625   0.0625   0.0625
     0.0625   0.0625   0.0624   0.0623   0.0612   0.0603   0.0128   0.0000
     0.0000   0.0000   0.0000   0.0000   0.0000   0.0000

          k = 0.4942 0.5706-0.1027 (  2198 PWs)   bands (ev):

   -19.7345 -19.7141  -6.9632  -6.6437  -6.1383  -5.8734  -5.5014  -5.3958
    -3.3243  -3.2648  -2.8818  -2.7153  -2.5318  -2.3896   5.7650   6.0406
     6.2001   6.7929   6.9812   7.0217   7.1120   7.3785   7.4023   7.4274
     7.9041   8.3773   8.8645   9.1726   9.4995   9.7379   9.7886  10.1714
    10.2993  10.5726  10.6714  10.7514  10.9014  11.0392  12.2676  12.7018
    13.3845  14.3163  16.9054  17.1143  17.3074  18.0144

     occupation numbers 
     0.0625   0.0625   0.0625   0.0625   0.0625   0.0625   0.0625   0.0625
     0.0625   0.0625   0.0625   0.0625   0.0625   0.0625   0.0625   0.0625
     0.0625   0.0625   0.0625   0.0625   0.0625   0.0625   0.0625   0.0625
     0.0625   0.0625   0.0625   0.0625   0.0625   0.0625   0.0625   0.0625
     0.0625   0.0625   0.0625   0.0624   0.0620   0.0607   0.0006   0.0000
     0.0000   0.0000   0.0000   0.0000   0.0000   0.0000

          k = 0.2471 0.4280 0.0000 (  2203 PWs)   bands (ev):

   -19.7471 -19.6990  -6.8409  -6.6501  -6.0324  -5.9897  -5.4482  -5.3613
    -3.5529  -3.3028  -2.8076  -2.7065  -2.5751  -2.5686   5.7913   6.0219
     6.5143   6.8316   6.8906   6.9351   7.2243   7.2721   7.3031   7.5661
     7.7025   8.6010   8.8622   9.2996   9.7098   9.7323   9.9986  10.3070
    10.3670  10.4351  10.6575  10.6965  10.7114  11.1228  12.1797  13.2801
    13.3596  14.1068  16.4328  16.9955  17.4219  17.9248

     occupation numbers 
     0.0625   0.0625   0.0625   0.0625   0.0625   0.0625   0.0625   0.0625
     0.0625   0.0625   0.0625   0.0625   0.0625   0.0625   0.0625   0.0625
     0.0625   0.0625   0.0625   0.0625   0.0625   0.0625   0.0625   0.0625
     0.0625   0.0625   0.0625   0.0625   0.0625   0.0625   0.0625   0.0625
     0.0625   0.0625   0.0625   0.0624   0.0624   0.0592   0.0013   0.0000
     0.0000   0.0000   0.0000   0.0000   0.0000   0.0000

          k = 0.4942-0.2853-0.4107 (  2202 PWs)   bands (ev):

   -19.7316 -19.7189  -7.1757  -6.4560  -6.2478  -5.9464  -5.5106  -5.3049
    -3.2106  -3.1203  -3.0591  -2.6535  -2.4836  -2.2259   5.5965   5.7388
     6.0401   6.7418   7.0348   7.1361   7.2477   7.2849   7.6519   7.6641
     8.1465   8.2613   8.5989   8.8951   9.3744   9.6520  10.0121  10.0539
    10.3724  10.4696  10.6396  10.7955  10.9094  11.1658  11.7786  12.3767
    13.2866  14.7505  17.0454  17.2667  17.5213  17.6137

     occupation numbers 
     0.0313   0.0313   0.0313   0.0313   0.0313   0.0313   0.0313   0.0313
     0.0313   0.0313   0.0313   0.0313   0.0313   0.0313   0.0313   0.0313
     0.0313   0.0313   0.0313   0.0313   0.0313   0.0313   0.0313   0.0313
     0.0313   0.0313   0.0313   0.0313   0.0312   0.0312   0.0312   0.0312
     0.0312   0.0312   0.0312   0.0312   0.0310   0.0290   0.0080   0.0001
[...]
     0.0625   0.0625   0.0625   0.0625   0.0625   0.0625   0.0625   0.0625
     0.0625   0.0625   0.0625   0.0625   0.0625   0.0625   0.0625   0.0625
     0.0625   0.0625   0.0624   0.0622   0.0612   0.0603   0.0128   0.0000
     0.0000   0.0000   0.0000   0.0000   0.0000   0.0000

          k = 0.4942-0.5706 0.1027 (  2198 PWs)   bands (ev):

   -19.7357 -19.7148  -6.9504  -6.6457  -6.1261  -5.8976  -5.5175  -5.3780
    -3.3235  -3.2642  -2.8841  -2.7103  -2.5311  -2.3854   5.7434   6.0515
     6.1897   6.7879   6.9744   7.0174   7.1305   7.3553   7.3878   7.4396
     7.9360   8.3732   8.8698   9.1788   9.4885   9.7443   9.7876  10.1681
    10.2946  10.5755  10.6689  10.7400  10.9149  11.0488  12.2666  12.7004
    13.3893  14.3133  16.9072  17.1087  17.3071  18.0142

     occupation numbers 
     0.0625   0.0625   0.0625   0.0625   0.0625   0.0625   0.0625   0.0625
     0.0625   0.0625   0.0625   0.0625   0.0625   0.0625   0.0625   0.0625
     0.0625   0.0625   0.0625   0.0625   0.0625   0.0625   0.0625   0.0625
     0.0625   0.0625   0.0625   0.0625   0.0625   0.0625   0.0625   0.0625
     0.0625   0.0625   0.0625   0.0624   0.0619   0.0606   0.0006   0.0000
     0.0000   0.0000   0.0000   0.0000   0.0000   0.0000

          k =-0.7412 0.1427-0.1027 (  2198 PWs)   bands (ev):

   -19.7357 -19.7148  -6.9499  -6.6465  -6.1251  -5.8988  -5.5166  -5.3787
    -3.3228  -3.2643  -2.8839  -2.7113  -2.5306  -2.3857   5.7465   6.0438
     6.1959   6.7850   6.9780   7.0181   7.1194   7.3665   7.3962   7.4315
     7.9311   8.3715   8.8715   9.1789   9.4909   9.7448   9.7875  10.1689
    10.2919  10.5819  10.6645  10.7414  10.9061  11.0542  12.2667  12.7007
    13.3894  14.3136  16.9054  17.1115  17.3066  18.0138

     occupation numbers 
     0.0625   0.0625   0.0625   0.0625   0.0625   0.0625   0.0625   0.0625
     0.0625   0.0625   0.0625   0.0625   0.0625   0.0625   0.0625   0.0625
     0.0625   0.0625   0.0625   0.0625   0.0625   0.0625   0.0625   0.0625
     0.0625   0.0625   0.0625   0.0625   0.0625   0.0625   0.0625   0.0625
     0.0625   0.0625   0.0625   0.0624   0.0619   0.0605   0.0006   0.0000
     0.0000   0.0000   0.0000   0.0000   0.0000   0.0000

          k = 0.2471-0.7133-0.1027 (  2198 PWs)   bands (ev):

   -19.7357 -19.7148  -6.9495  -6.6472  -6.1235  -5.9002  -5.5178  -5.3770
    -3.3229  -3.2645  -2.8834  -2.7126  -2.5304  -2.3853   5.7472   6.0440
     6.1980   6.7845   6.9742   7.0253   7.1132   7.3619   7.4029   7.4318
     7.9300   8.3704   8.8674   9.1808   9.4967   9.7379   9.7931  10.1666
    10.2904  10.5778  10.6701  10.7537  10.8959  11.0522  12.2668  12.7006
    13.3894  14.3136  16.9033  17.1147  17.3067  18.0152

     occupation numbers 
     0.0625   0.0625   0.0625   0.0625   0.0625   0.0625   0.0625   0.0625
     0.0625   0.0625   0.0625   0.0625   0.0625   0.0625   0.0625   0.0625
     0.0625   0.0625   0.0625   0.0625   0.0625   0.0625   0.0625   0.0625
     0.0625   0.0625   0.0625   0.0625   0.0625   0.0625   0.0625   0.0625
     0.0625   0.0625   0.0625   0.0624   0.0620   0.0605   0.0006   0.0000
     0.0000   0.0000   0.0000   0.0000   0.0000   0.0000

          k =-0.7412-0.1427 0.1027 (  2198 PWs)   bands (ev):

   -19.7357 -19.7148  -6.9500  -6.6463  -6.1246  -5.8991  -5.5187  -5.3763
    -3.3237  -3.2644  -2.8836  -2.7116  -2.5310  -2.3849   5.7440   6.0518
     6.1918   6.7869   6.9711   7.0243   7.1242   7.3525   7.3928   7.4396
     7.9348   8.3723   8.8658   9.1804   9.4942   9.7374   9.7933  10.1661
    10.2930  10.5713  10.6744  10.7520  10.9050  11.0470  12.2667  12.7003
    13.3893  14.3133  16.9051  17.1118  17.3073  18.0154

     occupation numbers 
     0.0625   0.0625   0.0625   0.0625   0.0625   0.0625   0.0625   0.0625
     0.0625   0.0625   0.0625   0.0625   0.0625   0.0625   0.0625   0.0625
     0.0625   0.0625   0.0625   0.0625   0.0625   0.0625   0.0625   0.0625
     0.0625   0.0625   0.0625   0.0625   0.0625   0.0625   0.0625   0.0625
     0.0625   0.0625   0.0625   0.0624   0.0619   0.0606   0.0006   0.0000
     0.0000   0.0000   0.0000   0.0000   0.0000   0.0000

          k = 0.2471 0.7133 0.1027 (  2198 PWs)   bands (ev):

   -19.7345 -19.7141  -6.9636  -6.6429  -6.1393  -5.8723  -5.5024  -5.3952
    -3.3250  -3.2647  -2.8819  -2.7143  -2.5324  -2.3893   5.7617   6.0488
     6.1935   6.7953   6.9772   7.0221   7.1226   7.3674   7.3951   7.4343
     7.9089   8.3792   8.8629   9.1722   9.4971   9.7377   9.7886  10.1706
    10.3018  10.5663  10.6760  10.7498  10.9102  11.0338  12.2674  12.7015
    13.3844  14.3160  16.9072  17.1115  17.3079  18.0149

     occupation numbers 
     0.0625   0.0625   0.0625   0.0625   0.0625   0.0625   0.0625   0.0625
     0.0625   0.0625   0.0625   0.0625   0.0625   0.0625   0.0625   0.0625
     0.0625   0.0625   0.0625   0.0625   0.0625   0.0625   0.0625   0.0625
     0.0625   0.0625   0.0625   0.0625   0.0625   0.0625   0.0625   0.0625
     0.0625   0.0625   0.0625   0.0624   0.0619   0.0608   0.0006   0.0000
     0.0000   0.0000   0.0000   0.0000   0.0000   0.0000

          k = 0.2471-0.4280 0.0000 (  2203 PWs)   bands (ev):

   -19.7469 -19.6992  -6.8480  -6.6363  -6.0608  -5.9741  -5.4354  -5.3684
    -3.5505  -3.3028  -2.8046  -2.7127  -2.5780  -2.5647   5.8065   6.0222
     6.5116   6.8312   6.8788   6.9366   7.2092   7.2651   7.3144   7.5559
     7.6931   8.6150   8.8805   9.3273   9.7004   9.7261   9.9974  10.2996
    10.3635  10.4286  10.6540  10.6948  10.7071  11.1372  12.1785  13.2778
    13.3576  14.1111  16.4336  16.9927  17.4188  17.9257

     occupation numbers 
     0.0625   0.0625   0.0625   0.0625   0.0625   0.0625   0.0625   0.0625
     0.0625   0.0625   0.0625   0.0625   0.0625   0.0625   0.0625   0.0625
     0.0625   0.0625   0.0625   0.0625   0.0625   0.0625   0.0625   0.0625
     0.0625   0.0625   0.0625   0.0625   0.0625   0.0625   0.0625   0.0625
     0.0625   0.0625   0.0625   0.0624   0.0624   0.0588   0.0013   0.0000
     0.0000   0.0000   0.0000   0.0000   0.0000   0.0000

          k =-0.4942 0.0000 0.0000 (  2203 PWs)   bands (ev):

   -19.7469 -19.6992  -6.8480  -6.6362  -6.0609  -5.9741  -5.4354  -5.3683
    -3.5504  -3.3029  -2.8046  -2.7128  -2.5782  -2.5645   5.8065   6.0222
     6.5115   6.8326   6.8778   6.9369   7.2079   7.2651   7.3142   7.5565
     7.6933   8.6150   8.8804   9.3274   9.6992   9.7274   9.9972  10.2989
    10.3644  10.4290  10.6550  10.6942  10.7061  11.1373  12.1784  13.2778
    13.3575  14.1111  16.4336  16.9927  17.4189  17.9255

     occupation numbers 
     0.0625   0.0625   0.0625   0.0625   0.0625   0.0625   0.0625   0.0625
     0.0625   0.0625   0.0625   0.0625   0.0625   0.0625   0.0625   0.0625
     0.0625   0.0625   0.0625   0.0625   0.0625   0.0625   0.0625   0.0625
     0.0625   0.0625   0.0625   0.0625   0.0625   0.0625   0.0625   0.0625
     0.0625   0.0625   0.0625   0.0624   0.0624   0.0588   0.0013   0.0000
     0.0000   0.0000   0.0000   0.0000   0.0000   0.0000

          k = 0.4942 0.2853 0.4107 (  2202 PWs)   bands (ev):

   -19.7339 -19.7205  -7.1599  -6.4493  -6.2303  -5.9790  -5.5362  -5.2859
    -3.2094  -3.1192  -3.0585  -2.6477  -2.4800  -2.2209   5.5755   5.7133
     6.0640   6.7350   7.0223   7.1167   7.2256   7.2829   7.6697   7.6814
     8.1442   8.2929   8.5743   8.8932   9.4060   9.6595  10.0139  10.0439
    10.3622  10.4666  10.6455  10.7876  10.9101  11.1820  11.7786  12.3746
    13.2927  14.7478  17.0438  17.2657  17.5178  17.6111

     occupation numbers 
     0.0313   0.0313   0.0313   0.0313   0.0313   0.0313   0.0313   0.0313
     0.0313   0.0313   0.0313   0.0313   0.0313   0.0313   0.0313   0.0313
     0.0313   0.0313   0.0313   0.0313   0.0313   0.0313   0.0313   0.0313
     0.0313   0.0313   0.0313   0.0313   0.0312   0.0312   0.0312   0.0312
     0.0312   0.0312   0.0312   0.0312   0.0310   0.0288   0.0080   0.0001
     0.0000   0.0000   0.0000   0.0000   0.0000   0.0000

          k = 0.0000 0.5706-0.4107 (  2202 PWs)   bands (ev):

   -19.7339 -19.7205  -7.1599  -6.4492  -6.2305  -5.9790  -5.5362  -5.2859
    -3.2093  -3.1192  -3.0585  -2.6477  -2.4800  -2.2209   5.5755   5.7133
     6.0640   6.7349   7.0226   7.1166   7.2257   7.2826   7.6695   7.6817
     8.1440   8.2932   8.5742   8.8932   9.4059   9.6596  10.0136  10.0442
    10.3624  10.4665  10.6447  10.7891  10.9094  11.1820  11.7786  12.3746
    13.2927  14.7478  17.0438  17.2657  17.5178  17.6111

     occupation numbers 
     0.0313   0.0313   0.0313   0.0313   0.0313   0.0313   0.0313   0.0313
     0.0313   0.0313   0.0313   0.0313   0.0313   0.0313   0.0313   0.0313
     0.0313   0.0313   0.0313   0.0313   0.0313   0.0313   0.0313   0.0313
     0.0313   0.0313   0.0313   0.0313   0.0312   0.0312   0.0312   0.0312
     0.0312   0.0312   0.0312   0.0312   0.0310   0.0288   0.0080   0.0001
     0.0000   0.0000   0.0000   0.0000   0.0000   0.0000

          k = 0.7412-0.4280 0.0000 (  2204 PWs)   bands (ev):

   -19.7464 -19.7007  -6.7268  -6.6139  -6.1381  -5.8287  -5.6822  -5.5572
    -3.1990  -3.1017  -3.0483  -2.6790  -2.6611  -2.5905   5.8285   6.2743
     6.3619   6.8793   6.9483   7.0694   7.1426   7.2425   7.3616   7.5117
     7.8316   8.4507   8.8502   9.3972   9.4824   9.6547   9.8092  10.1996
    10.3945  10.5368  10.6752  10.7837  10.8328  10.8853  12.1783  13.2008
    13.2758  14.1348  16.6840  16.7262  17.5915  17.7939

     occupation numbers 
     0.0625   0.0625   0.0625   0.0625   0.0625   0.0625   0.0625   0.0625
     0.0625   0.0625   0.0625   0.0625   0.0625   0.0625   0.0625   0.0625
     0.0625   0.0625   0.0625   0.0625   0.0625   0.0625   0.0625   0.0625
     0.0625   0.0625   0.0625   0.0625   0.0625   0.0625   0.0625   0.0625
     0.0625   0.0625   0.0625   0.0623   0.0622   0.0620   0.0013   0.0000
     0.0000   0.0000   0.0000   0.0000   0.0000   0.0000

          k = 0.0000-0.8559 0.0000 (  2204 PWs)   bands (ev):

   -19.7462 -19.7009  -6.7340  -6.6011  -6.1445  -5.8343  -5.6923  -5.5398
    -3.1969  -3.1020  -3.0482  -2.6816  -2.6655  -2.5869   5.8483   6.2904
     6.3480   6.8689   6.9373   7.0707   7.1320   7.2447   7.3576   7.5005
     7.8239   8.4620   8.8753   9.4226   9.4750   9.6487   9.8076  10.1935
    10.3867  10.5311  10.6712  10.7766  10.8377  10.8957  12.1774  13.1986
    13.2737  14.1389  16.6862  16.7247  17.5894  17.7935

     occupation numbers 
     0.0625   0.0625   0.0625   0.0625   0.0625   0.0625   0.0625   0.0625
     0.0625   0.0625   0.0625   0.0625   0.0625   0.0625   0.0625   0.0625
     0.0625   0.0625   0.0625   0.0625   0.0625   0.0625   0.0625   0.0625
     0.0625   0.0625   0.0625   0.0625   0.0625   0.0625   0.0625   0.0625
     0.0625   0.0625   0.0625   0.0623   0.0622   0.0620   0.0013   0.0000
     0.0000   0.0000   0.0000   0.0000   0.0000   0.0000

          k = 0.4942-0.2853-0.1027 (  2211 PWs)   bands (ev):

   -19.7354 -19.7133  -6.9791  -6.5405  -6.3236  -5.6981  -5.6057  -5.3667
    -3.3375  -3.1707  -3.0458  -2.6060  -2.5665  -2.3818   5.7979   6.0499
     6.1268   6.7324   7.0211   7.0243   7.2074   7.2545   7.4029   7.4524
     7.9472   8.4200   8.8510   9.3392   9.3500   9.5963   9.9306  10.0559
    10.3810  10.6349  10.7738  10.8047  10.8446  10.8737  12.2229  12.7157
    13.4314  14.2978  16.8853  16.9343  17.5775  17.9270

     occupation numbers 
     0.0625   0.0625   0.0625   0.0625   0.0625   0.0625   0.0625   0.0625
     0.0625   0.0625   0.0625   0.0625   0.0625   0.0625   0.0625   0.0625
     0.0625   0.0625   0.0625   0.0625   0.0625   0.0625   0.0625   0.0625
     0.0625   0.0625   0.0625   0.0625   0.0625   0.0625   0.0625   0.0625
     0.0625   0.0625   0.0624   0.0623   0.0622   0.0621   0.0009   0.0000
     0.0000   0.0000   0.0000   0.0000   0.0000   0.0000

          k = 0.0000-0.5706 0.1027 (  2211 PWs)   bands (ev):

   -19.7366 -19.7140  -6.9663  -6.5430  -6.3211  -5.7045  -5.6261  -5.3519
    -3.3374  -3.1704  -3.0453  -2.6035  -2.5662  -2.3776   5.7811   6.0690
     6.1073   6.7343   7.0080   7.0251   7.2078   7.2420   7.4086   7.4508
     7.9720   8.4108   8.8574   9.3240   9.3460   9.6242   9.9373  10.0473
    10.3686  10.6349  10.7706  10.8102  10.8474  10.8804  12.2222  12.7146
    13.4363  14.2951  16.8845  16.9348  17.5782  17.9264

     occupation numbers 
     0.0625   0.0625   0.0625   0.0625   0.0625   0.0625   0.0625   0.0625
     0.0625   0.0625   0.0625   0.0625   0.0625   0.0625   0.0625   0.0625
     0.0625   0.0625   0.0625   0.0625   0.0625   0.0625   0.0625   0.0625
     0.0625   0.0625   0.0625   0.0625   0.0625   0.0625   0.0625   0.0625
     0.0625   0.0625   0.0624   0.0623   0.0622   0.0621   0.0009   0.0000
     0.0000   0.0000   0.0000   0.0000   0.0000   0.0000

          k = 0.7412 0.4280 0.3080 (  2210 PWs)   bands (ev):

   -19.7363 -19.7154  -6.9025  -6.4536  -6.2984  -5.8010  -5.7658  -5.4816
    -3.0793  -3.0642  -2.9699  -2.7331  -2.6266  -2.4281   5.8731   6.1224
     6.2135   6.7244   6.9433   7.0585   7.2696   7.2904   7.4164   7.4864
     7.9471   8.4170   8.7587   9.2708   9.4246   9.4679   9.6237  10.0992
    10.3416  10.6282  10.7220  10.7922  10.9264  10.9313  12.1826  12.6678
    13.3853  14.2652  17.0583  17.0695  17.5466  17.9016

     occupation numbers 
     0.0625   0.0625   0.0625   0.0625   0.0625   0.0625   0.0625   0.0625
     0.0625   0.0625   0.0625   0.0625   0.0625   0.0625   0.0625   0.0625
     0.0625   0.0625   0.0625   0.0625   0.0625   0.0625   0.0625   0.0625
     0.0625   0.0625   0.0625   0.0625   0.0625   0.0625   0.0625   0.0625
     0.0625   0.0625   0.0624   0.0623   0.0618   0.0618   0.0013   0.0000
     0.0000   0.0000   0.0000   0.0000   0.0000   0.0000

          k = 0.0000 0.8559-0.3080 (  2210 PWs)   bands (ev):

   -19.7363 -19.7154  -6.9024  -6.4537  -6.2983  -5.8011  -5.7657  -5.4815
    -3.0793  -3.0642  -2.9699  -2.7331  -2.6266  -2.4281   5.8731   6.1224
     6.2134   6.7246   6.9429   7.0591   7.2695   7.2900   7.4152   7.4878
     7.9471   8.4169   8.7587   9.2710   9.4247   9.4678   9.6237  10.0990
    10.3417  10.6277  10.7235  10.7912  10.9264  10.9313  12.1826  12.6678
    13.3853  14.2652  17.0583  17.0695  17.5466  17.9016

     occupation numbers 
     0.0625   0.0625   0.0625   0.0625   0.0625   0.0625   0.0625   0.0625
     0.0625   0.0625   0.0625   0.0625   0.0625   0.0625   0.0625   0.0625
     0.0625   0.0625   0.0625   0.0625   0.0625   0.0625   0.0625   0.0625
     0.0625   0.0625   0.0625   0.0625   0.0625   0.0625   0.0625   0.0625
     0.0625   0.0625   0.0624   0.0623   0.0618   0.0618   0.0013   0.0000
     0.0000   0.0000   0.0000   0.0000   0.0000   0.0000

          k = 0.2471 0.7133-0.2053 (  2206 PWs)   bands (ev):

   -19.7269 -19.7264  -6.8911  -6.8738  -6.0432  -6.0128  -5.4393  -5.4177
    -3.1601  -3.1596  -2.8229  -2.8180  -2.3871  -2.3829   5.9439   5.9714
     6.2694   6.2833   6.9251   6.9262   7.2303   7.2329   7.4184   7.4376
     8.4587   8.4775   8.7551   8.7760   9.4449   9.4597   9.9917   9.9977
    10.4551  10.4644  10.6348  10.6362  10.9692  10.9834  12.2306  12.2361
    13.9591  13.9708  17.4237  17.4260  17.8683  17.8729

     occupation numbers 
     0.0625   0.0625   0.0625   0.0625   0.0625   0.0625   0.0625   0.0625
     0.0625   0.0625   0.0625   0.0625   0.0625   0.0625   0.0625   0.0625
     0.0625   0.0625   0.0625   0.0625   0.0625   0.0625   0.0625   0.0625
     0.0625   0.0625   0.0625   0.0625   0.0625   0.0625   0.0625   0.0625
     0.0625   0.0625   0.0625   0.0625   0.0615   0.0614   0.0008   0.0008
     0.0000   0.0000   0.0000   0.0000   0.0000   0.0000

          k =-0.7412-0.1427-0.2053 (  2206 PWs)   bands (ev):

   -19.7277 -19.7275  -6.8898  -6.8570  -6.0417  -6.0400  -5.4401  -5.4076
    -3.1597  -3.1578  -2.8229  -2.8218  -2.3873  -2.3735   5.9491   5.9743
     6.2657   6.2716   6.8869   6.9255   7.2184   7.2243   7.4259   7.4452
     8.4769   8.4791   8.7787   8.7826   9.4643   9.4657   9.9756   9.9824
    10.4466  10.4524  10.6346  10.6431  10.9807  10.9874  12.2287  12.2354
    13.9599  13.9718  17.4254  17.4262  17.8676  17.8702

     occupation numbers 
     0.0625   0.0625   0.0625   0.0625   0.0625   0.0625   0.0625   0.0625
     0.0625   0.0625   0.0625   0.0625   0.0625   0.0625   0.0625   0.0625
     0.0625   0.0625   0.0625   0.0625   0.0625   0.0625   0.0625   0.0625
     0.0625   0.0625   0.0625   0.0625   0.0625   0.0625   0.0625   0.0625
     0.0625   0.0625   0.0625   0.0625   0.0614   0.0613   0.0008   0.0008
     0.0000   0.0000   0.0000   0.0000   0.0000   0.0000

     the Fermi energy is    11.5898 ev

!    total energy              =    -538.05866060 Ry
     Harris-Foulkes estimate   =    -538.05864873 Ry
     estimated scf accuracy    <          2.4E-09 Ry

     The total energy is the sum of the following terms:

     one-electron contribution =     -32.90300457 Ry
     hartree contribution      =      83.66714820 Ry
     xc contribution           =    -199.61655574 Ry
     ewald contribution        =    -389.44315552 Ry
     Hubbard energy            =       0.24519424 Ry
     smearing contrib. (-TS)   =      -0.00828720 Ry

     convergence has been achieved in  13 iterations

     init_run     :      7.06s CPU      7.20s WALL (       1 calls)
     electrons    :    435.89s CPU    439.65s WALL (       1 calls)

     Called by init_run:
     wfcinit      :      0.00s CPU      0.00s WALL (       1 calls)
     potinit      :      0.30s CPU      0.34s WALL (       1 calls)

     Called by electrons:
     c_bands      :    334.61s CPU    336.58s WALL (      13 calls)
     sum_band     :     71.35s CPU     72.24s WALL (      13 calls)
     v_of_rho     :      4.15s CPU      4.17s WALL (      14 calls)
     v_h          :      0.22s CPU      0.23s WALL (      14 calls)
     v_xc         :      3.92s CPU      3.94s WALL (      14 calls)
     newd         :     26.76s CPU     26.79s WALL (      14 calls)
     mix_rho      :      0.35s CPU      0.35s WALL (      13 calls)

     Called by c_bands:
     init_us_2    :      4.37s CPU      4.39s WALL (     936 calls)
     cegterg      :    322.02s CPU    323.09s WALL (     468 calls)

     Called by sum_band:
     sum_band:bec :      0.36s CPU      0.36s WALL (     468 calls)
     addusdens    :     17.77s CPU     17.77s WALL (      13 calls)

     Called by *egterg:
     h_psi        :    233.62s CPU    234.55s WALL (    1795 calls)
     s_psi        :     16.82s CPU     16.82s WALL (    1795 calls)
     g_psi        :      1.15s CPU      1.14s WALL (    1327 calls)
     cdiaghg      :     21.18s CPU     21.20s WALL (    1759 calls)
     cegterg:over :     16.79s CPU     16.83s WALL (    1327 calls)
     cegterg:upda :     11.72s CPU     11.74s WALL (    1327 calls)
     cegterg:last :      8.46s CPU      8.45s WALL (     538 calls)

     Called by h_psi:
     h_psi:vloc   :    175.82s CPU    176.65s WALL (    1795 calls)
     h_psi:vnl    :     34.91s CPU     34.96s WALL (    1795 calls)
     add_vuspsi   :     17.00s CPU     17.00s WALL (    1795 calls)
     vhpsi        :     21.94s CPU     21.99s WALL (    1795 calls)

     General routines
     calbec       :     36.94s CPU     37.04s WALL (    4526 calls)
     fft          :      2.74s CPU      2.77s WALL (     219 calls)
     ffts         :      0.09s CPU      0.09s WALL (      27 calls)
     fftw         :    174.80s CPU    175.64s WALL (  129420 calls)
     interpolate  :      0.50s CPU      0.51s WALL (      27 calls)
     davcio       :      0.02s CPU      1.58s WALL (     972 calls)

     Parallel routines
     fft_scatter  :     46.51s CPU     46.60s WALL (  129666 calls)
     Hubbard U routines
     new_ns       :      3.97s CPU      4.66s WALL (      13 calls)
     vhpsi        :     21.94s CPU     21.99s WALL (    1795 calls)

     PWSCF        :  7m23.39s CPU     7m27.44s WALL


   This run was terminated on:  15: 2:19  11Nov2012            

=------------------------------------------------------------------------------=
