   JOB DONE.
=------------------------------------------------------------------------------=

     Program PWSCF v.5.0.1 starts on 11Nov2012 at 15: 2:26 

     This program is part of the open-source Quantum ESPRESSO suite
     for quantum simulation of materials; please cite
         "P. Giannozzi et al., J. Phys.:Condens. Matter 21 395502 (2009);
          URL http://www.quantum-espresso.org", 
     in publications or presentations arising from this work. More details at
     http://www.quantum-espresso.org/quote.php

     Parallel version (MPI), running on     2 processors
     R & G space division:  proc/pool =    2

     Current dimensions of program PWSCF are:
     Max number of different atomic species (ntypx) = 10
     Max number of k-points (npk) =  40000
     Max angular momentum in pseudopotentials (lmaxx) =  3
     Reading input from CoLaO_U400_a-10.in
               file Co.pbe-nd-rrkjus.UPF: wavefunction(s)  4S 3D renormalized
               file O.pbe-rrkjus.UPF: wavefunction(s)  2S renormalized
               file O.pbe-rrkjus.UPF: wavefunction(s)  2S renormalized

     Subspace diagonalization in iterative solution of the eigenvalue problem:
     a serial algorithm will be used


     Parallelization info
     --------------------
     sticks:   dense  smooth     PW     G-vecs:    dense   smooth      PW
     Min        1112     444    131                34808     8786    1448
     Max        1113     445    132                34809     8787    1449
     Sum        2225     889    263                69617    17573    2897


     Title: 
     GGA + U, U = 4.000, alpha = -0.100                                         


     bravais-lattice index     =            5
     lattice parameter (alat)  =      10.3292  a.u.
     unit-cell volume          =     793.0599 (a.u.)^3
     number of atoms/cell      =           10
     number of atomic types    =            4
     number of electrons       =        76.00
     number of Kohn-Sham states=           46
     kinetic-energy cutoff     =      30.0000  Ry
     charge density cutoff     =     300.0000  Ry
     convergence threshold     =      1.0E-08
     mixing beta               =       0.2000
     number of iterations used =            8  plain     mixing
     Exchange-correlation      =  SLA  PW   PBE  PBE ( 1 4 3 4 0)
     EXX-fraction              =        0.00

     celldm(1)=  10.329242  celldm(2)=   0.000000  celldm(3)=   0.000000
     celldm(4)=   0.488100  celldm(5)=   0.000000  celldm(6)=   0.000000

     crystal axes: (cart. coord. in units of alat)
               a(1) = (   0.505915  -0.292090   0.811624 )  
               a(2) = (   0.000000   0.584180   0.811624 )  
               a(3) = (  -0.505915  -0.292090   0.811624 )  

     reciprocal axes: (cart. coord. in units 2 pi/alat)
               b(1) = (  0.988308 -0.570600  0.410699 )  
               b(2) = (  0.000000  1.141200  0.410699 )  
               b(3) = ( -0.988308 -0.570600  0.410699 )  


     PseudoPot. # 1 for Co read from file:
     /home/mcurnan/dft-course/Project1/example_LaCoO3/Co.pbe-nd-rrkjus.UPF
     MD5 check sum: 3e47a84addf5e975e0edeaeee2a73f59
     Pseudo is Ultrasoft + core correction, Zval =  9.0
     Generated by new atomic code, or converted to UPF format
     Using radial grid of  961 points,  6 beta functions with: 
                l(1) =   0
                l(2) =   0
                l(3) =   1
                l(4) =   1
                l(5) =   2
                l(6) =   2
     Q(r) pseudized with 0 coefficients 


     PseudoPot. # 2 for La read from file:
     /home/mcurnan/dft-course/Project1/example_LaCoO3/La.pbe-nsp-van.UPF
     MD5 check sum: b2f11743f52dde65f77d1302becd7929
     Pseudo is Ultrasoft + core correction, Zval = 11.0
     Generated by new atomic code, or converted to UPF format
     Using radial grid of  907 points,  6 beta functions with: 
                l(1) =   0
                l(2) =   0
                l(3) =   1
                l(4) =   1
                l(5) =   2
                l(6) =   2
     Q(r) pseudized with  6 coefficients,  rinner =    1.200   1.200   1.200
                                                       1.200   1.200

     PseudoPot. # 3 for O  read from file:
     /home/mcurnan/dft-course/Project1/example_LaCoO3/O.pbe-rrkjus.UPF
     MD5 check sum: 390ba29e75625707450f3bd3f0eb6be9
     Pseudo is Ultrasoft, Zval =  6.0
     Generated by new atomic code, or converted to UPF format
     Using radial grid of 1269 points,  4 beta functions with: 
                l(1) =   0
                l(2) =   0
                l(3) =   1
                l(4) =   1
     Q(r) pseudized with 0 coefficients 


     PseudoPot. # 4 for O  read from file:
     /home/mcurnan/dft-course/Project1/example_LaCoO3/O.pbe-rrkjus.UPF
     MD5 check sum: 390ba29e75625707450f3bd3f0eb6be9
     Pseudo is Ultrasoft, Zval =  6.0
     Generated by new atomic code, or converted to UPF format
     Using radial grid of 1269 points,  4 beta functions with: 
                l(1) =   0
                l(2) =   0
                l(3) =   1
                l(4) =   1
     Q(r) pseudized with 0 coefficients 


     atomic species   valence    mass     pseudopotential
        Co1            9.00     1.00000     Co( 1.00)
        La1           11.00     1.00000     La( 1.00)
        O1             6.00     1.00000     O ( 1.00)
        O2             6.00     1.00000     O ( 1.00)
 -----
     simplified LDA+U calculation, Hubbard_lmax = 2
     atomic species  L   Hubbard U  Hubbard alpha
        Co1          2    4.000000    0.000000
        La1          2    0.000000    0.000000
        O1           1    0.000000   -0.100000
        O2           1    0.000000    0.000000
 -----

     No symmetry found


                                    s                        frac. trans.

      isym =  1     identity                                     

 cryst.   s( 1) = (     1          0          0      )
                  (     0          1          0      )
                  (     0          0          1      )

 cart.    s( 1) = (  1.0000000  0.0000000  0.0000000 )
                  (  0.0000000  1.0000000  0.0000000 )
                  (  0.0000000  0.0000000  1.0000000 )


     point group C_1 (1)    
     there are  1 classes
     the character table:

       E    
A      1.00

     the symmetry operations in each class:
     E        1

   Cartesian axes

     site n.     atom                  positions (alat units)
         1           Co1 tau(   1) = (   0.2228050  -0.1992639   1.0141240  )
         2           Co1 tau(   2) = (  -0.2831100   0.0928263   1.4199360  )
         3           La1 tau(   3) = (  -0.2831100   0.0928263   0.8112181  )
         4           La1 tau(   4) = (   0.2228050   0.3849164   1.2170300  )
         5           O1  tau(   5) = (   0.0000000   0.0000000   0.0000000  )
         6           O2  tau(   6) = (   0.0008601   0.1861491   1.6232478  )
         7           O2  tau(   7) = (   0.1616398   0.0923297   0.8116239  )
         8           O2  tau(   8) = (  -0.0603051  -0.1064377   1.2166242  )
         9           O2  tau(   9) = (   0.4447499  -0.0004966   1.2166242  )
        10           O2  tau(  10) = (  -0.2219449   0.3854130   1.2166242  )

   Crystallographic axes

     site n.     atom                  positions (cryst. coord.)
         1           Co1 tau(   1) = (  0.7504000  0.1891000  0.3100000  )
         2           Co1 tau(   2) = (  0.2504000  0.6891000  0.8100000  )
         3           La1 tau(   3) = (  0.0004000  0.4391000  0.5600000  )
         4           La1 tau(   4) = (  0.5004000  0.9391000  0.0600000  )
         5           O1  tau(   5) = (  0.0000000  0.0000000  0.0000000  )
         6           O2  tau(   6) = (  0.5613000  0.8791000  0.5596000  )
         7           O2  tau(   7) = (  0.4404000  0.4387000  0.1209000  )
         8           O2  tau(   8) = (  0.5008000  0.3782000  0.6200000  )
         9           O2  tau(   9) = (  0.9395000  0.4991000  0.0604000  )
        10           O2  tau(  10) = (  0.0604000  0.9395000  0.4991000  )

     number of k points=    36  gaussian smearing, width (Ry)=  0.0300
                       cart. coord. in units 2pi/alat
        k(    1) = (   0.0000000   0.0000000   0.0000000), wk =   0.0312500
        k(    2) = (  -0.2470771  -0.1426500   0.1026748), wk =   0.0625000
        k(    3) = (   0.4941541   0.2853000  -0.2053496), wk =   0.0312500
        k(    4) = (  -0.2470771   0.1426500   0.2053496), wk =   0.0625000
        k(    5) = (   0.4941541   0.5706001  -0.1026748), wk =   0.0625000
        k(    6) = (   0.2470771   0.4279500   0.0000000), wk =   0.0625000
        k(    7) = (   0.4941541  -0.2853000  -0.4106993), wk =   0.0312500
        k(    8) = (   0.0000000   0.0000000   0.3080244), wk =   0.0625000
        k(    9) = (   0.7412312   0.4279500   0.0000000), wk =   0.0625000
        k(   10) = (   0.4941541   0.2853000   0.1026748), wk =   0.0625000
        k(   11) = (   0.7412312  -0.4279500  -0.3080244), wk =   0.0625000
        k(   12) = (   0.4941541  -0.5706001  -0.2053496), wk =   0.0625000
        k(   13) = (   0.0000000   0.0000000  -0.6160489), wk =   0.0312500
        k(   14) = (  -0.2470771   0.1426500  -0.1026748), wk =   0.0625000
        k(   15) = (   0.0000000   0.2853000   0.1026748), wk =   0.0625000
        k(   16) = (   0.4941541  -0.2853000   0.2053496), wk =   0.0312500
        k(   17) = (   0.0000000  -0.5706001  -0.2053496), wk =   0.0312500
        k(   18) = (  -0.2470771  -0.1426500  -0.2053496), wk =   0.0625000
        k(   19) = (   0.0000000  -0.2853000   0.2053496), wk =   0.0625000
        k(   20) = (   0.4941541  -0.5706001   0.1026748), wk =   0.0625000
        k(   21) = (  -0.7412312   0.1426500  -0.1026748), wk =   0.0625000
        k(   22) = (   0.2470771  -0.7132501  -0.1026748), wk =   0.0625000
        k(   23) = (  -0.7412312  -0.1426500   0.1026748), wk =   0.0625000
        k(   24) = (   0.2470771   0.7132501   0.1026748), wk =   0.0625000
        k(   25) = (   0.2470771  -0.4279500   0.0000000), wk =   0.0625000
        k(   26) = (  -0.4941541   0.0000000   0.0000000), wk =   0.0625000
        k(   27) = (   0.4941541   0.2853000   0.4106993), wk =   0.0312500
        k(   28) = (   0.0000000   0.5706001  -0.4106993), wk =   0.0312500
        k(   29) = (   0.7412312  -0.4279500   0.0000000), wk =   0.0625000
        k(   30) = (   0.0000000  -0.8559001   0.0000000), wk =   0.0625000
        k(   31) = (   0.4941541  -0.2853000  -0.1026748), wk =   0.0625000
        k(   32) = (   0.0000000  -0.5706001   0.1026748), wk =   0.0625000
        k(   33) = (   0.7412312   0.4279500   0.3080244), wk =   0.0625000
        k(   34) = (   0.0000000   0.8559001  -0.3080244), wk =   0.0625000
        k(   35) = (   0.2470771   0.7132501  -0.2053496), wk =   0.0625000
        k(   36) = (  -0.7412312  -0.1426500  -0.2053496), wk =   0.0625000

                       cryst. coord.
        k(    1) = (   0.0000000   0.0000000   0.0000000), wk =   0.0312500
        k(    2) = (   0.0000000   0.0000000   0.2500000), wk =   0.0625000
        k(    3) = (   0.0000000   0.0000000  -0.5000000), wk =   0.0312500
        k(    4) = (   0.0000000   0.2500000   0.2500000), wk =   0.0625000
        k(    5) = (   0.0000000   0.2500000  -0.5000000), wk =   0.0625000
        k(    6) = (   0.0000000   0.2500000  -0.2500000), wk =   0.0625000
        k(    7) = (   0.0000000  -0.5000000  -0.5000000), wk =   0.0312500
        k(    8) = (   0.2500000   0.2500000   0.2500000), wk =   0.0625000
        k(    9) = (   0.2500000   0.2500000  -0.5000000), wk =   0.0625000
        k(   10) = (   0.2500000   0.2500000  -0.2500000), wk =   0.0625000
        k(   11) = (   0.2500000  -0.5000000  -0.5000000), wk =   0.0625000
        k(   12) = (   0.2500000  -0.5000000  -0.2500000), wk =   0.0625000
        k(   13) = (  -0.5000000  -0.5000000  -0.5000000), wk =   0.0312500
        k(   14) = (  -0.2500000   0.0000000   0.0000000), wk =   0.0625000
        k(   15) = (   0.0000000   0.2500000   0.0000000), wk =   0.0625000
        k(   16) = (   0.5000000   0.0000000   0.0000000), wk =   0.0312500
        k(   17) = (   0.0000000  -0.5000000   0.0000000), wk =   0.0312500
        k(   18) = (  -0.2500000  -0.2500000   0.0000000), wk =   0.0625000
        k(   19) = (   0.2500000   0.0000000   0.2500000), wk =   0.0625000
        k(   20) = (   0.5000000  -0.2500000   0.0000000), wk =   0.0625000
        k(   21) = (  -0.5000000   0.0000000   0.2500000), wk =   0.0625000
        k(   22) = (   0.2500000  -0.5000000   0.0000000), wk =   0.0625000
        k(   23) = (  -0.2500000   0.0000000   0.5000000), wk =   0.0625000
        k(   24) = (   0.0000000   0.5000000  -0.2500000), wk =   0.0625000
        k(   25) = (   0.2500000  -0.2500000   0.0000000), wk =   0.0625000
        k(   26) = (  -0.2500000   0.0000000   0.2500000), wk =   0.0625000
        k(   27) = (   0.5000000   0.5000000   0.0000000), wk =   0.0312500
        k(   28) = (  -0.5000000   0.0000000  -0.5000000), wk =   0.0312500
        k(   29) = (   0.5000000  -0.2500000  -0.2500000), wk =   0.0625000
        k(   30) = (   0.2500000  -0.5000000   0.2500000), wk =   0.0625000
        k(   31) = (   0.2500000  -0.2500000  -0.2500000), wk =   0.0625000
        k(   32) = (   0.2500000  -0.2500000   0.2500000), wk =   0.0625000
        k(   33) = (   0.5000000   0.5000000  -0.2500000), wk =   0.0625000
        k(   34) = (  -0.5000000   0.2500000  -0.5000000), wk =   0.0625000
        k(   35) = (  -0.2500000   0.2500000  -0.5000000), wk =   0.0625000
        k(   36) = (  -0.5000000  -0.2500000   0.2500000), wk =   0.0625000

     Dense  grid:    69617 G-vectors     FFT dimensions: (  60,  60,  60)

     Smooth grid:    17573 G-vectors     FFT dimensions: (  40,  40,  40)

     Largest allocated arrays     est. size (Mb)     dimensions
        Kohn-Sham Wavefunctions         0.79 Mb     (   1119,   46)
        Atomic wavefunctions            1.06 Mb     (   1119,   62)
        NL pseudopotentials             2.05 Mb     (   1119,  120)
        Each V/rho on FFT grid          1.65 Mb     ( 108000)
        Each G-vector array             0.27 Mb     (  34808)
        G-vector shells                 0.04 Mb     (   4682)
     Largest temporary arrays     est. size (Mb)     dimensions
        Auxiliary wavefunctions         3.14 Mb     (   1119,  184)
        Each subspace H/S matrix        0.52 Mb     ( 184, 184)
        Each <psi_i|beta_j> matrix      0.08 Mb     (    120,   46)
        Arrays for rho mixing          13.18 Mb     ( 108000,   8)

     Check: negative/imaginary core charge=   -0.000028    0.000000

     The initial density is read from file :
     /home/mcurnan/dft-course/Project1/example_LaCoO3/400/O/alpha/CoLaO_U400.save/charge-density.dat

 --- in v_hubbard ---
Hubbard energy    0.3428
 -------
     Number of +U iterations with fixed ns =  0
     Starting occupations:
 --- enter write_ns ---
 LDA+U parameters:
U( 1)     =  4.00000000
alpha( 1) =  0.00000000
U( 2)     =  0.00000000
alpha( 2) =  0.00000000
U( 3)     =  0.00000000
alpha( 3) = -0.10000000
U( 4)     =  0.00000000
alpha( 4) =  0.00000000
atom    1   Tr[ns(na)] =   8.02205
    eigenvalues: 
  0.596  0.596  0.938  0.941  0.941
    eigenvectors:
  0.000  0.000  1.000  0.000  0.000
  0.057  0.598  0.000  0.178  0.167
  0.598  0.057  0.000  0.167  0.178
  0.210  0.135  0.000  0.095  0.560
  0.135  0.210  0.000  0.560  0.095
    occupations:
  0.938  0.000  0.000  0.000  0.000
  0.000  0.715  0.000 -0.060  0.152
  0.000  0.000  0.715  0.152  0.060
  0.000 -0.060  0.152  0.822  0.000
  0.000  0.152  0.060  0.000  0.822
atom    2   Tr[ns(na)] =   8.02142
    eigenvalues: 
  0.595  0.595  0.938  0.941  0.941
    eigenvectors:
  0.000  0.000  1.000  0.000  0.000
  0.332  0.323  0.000  0.023  0.322
  0.323  0.332  0.000  0.322  0.023
  0.288  0.057  0.000  0.647  0.008
  0.057  0.288  0.000  0.008  0.647
    occupations:
  0.938  0.000  0.000  0.000  0.000
  0.000  0.715  0.000  0.060  0.153
  0.000  0.000  0.715  0.153 -0.060
  0.000  0.060  0.153  0.822  0.000
  0.000  0.153 -0.060  0.000  0.822
atom    3   Tr[ns(na)] =   3.80282
    eigenvalues: 
  0.355  0.355  0.384  0.403  0.403
    eigenvectors:
  0.000  0.000  1.000  0.000  0.000
  0.065  0.856  0.000  0.058  0.021
  0.856  0.065  0.000  0.021  0.058
  0.073  0.006  0.000  0.250  0.670
  0.006  0.073  0.000  0.670  0.250
    occupations:
  0.384  0.000  0.000  0.000  0.000
  0.000  0.359  0.000  0.000  0.013
  0.000  0.000  0.359  0.013  0.000
  0.000  0.000  0.013  0.399  0.000
  0.000  0.013  0.000  0.000  0.399
atom    4   Tr[ns(na)] =   3.80282
    eigenvalues: 
  0.355  0.355  0.384  0.403  0.403
    eigenvectors:
  0.000  0.000  1.000  0.000  0.000
  0.729  0.192  0.000  0.048  0.032
  0.192  0.729  0.000  0.032  0.048
  0.017  0.062  0.000  0.359  0.562
  0.062  0.017  0.000  0.562  0.359
    occupations:
  0.384  0.000  0.000  0.000  0.000
  0.000  0.359  0.000  0.000  0.013
  0.000  0.000  0.359  0.013  0.000
  0.000  0.000  0.013  0.399  0.000
  0.000  0.013  0.000  0.000  0.399
atom    5   Tr[ns(na)] =   5.43357
    eigenvalues: 
  0.846  0.929  0.941
    eigenvectors:
  0.340  0.000  0.660
  0.496  0.250  0.255
  0.164  0.750  0.086
    occupations:
  0.909 -0.039  0.022
 -0.039  0.891  0.022
  0.022  0.022  0.917
atom    6   Tr[ns(na)] =   5.43358
    eigenvalues: 
  0.846  0.929  0.941
    eigenvectors:
  0.340  0.000  0.660
  0.494  0.250  0.256
  0.166  0.750  0.085
    occupations:
  0.909  0.039  0.022
  0.039  0.891 -0.022
  0.022 -0.022  0.917
atom    7   Tr[ns(na)] =   5.43358
    eigenvalues: 
  0.846  0.929  0.941
    eigenvectors:
  0.340  0.000  0.660
  0.000  1.000  0.000
  0.660  0.000  0.340
    occupations:
  0.909  0.000 -0.045
  0.000  0.929  0.000
 -0.045  0.000  0.879
atom    8   Tr[ns(na)] =   5.43357
    eigenvalues: 
  0.846  0.929  0.941
    eigenvectors:
  0.340  0.000  0.660
  0.496  0.250  0.255
  0.164  0.750  0.086
    occupations:
  0.909 -0.039  0.022
 -0.039  0.891  0.022
  0.022  0.022  0.917
atom    9   Tr[ns(na)] =   5.43358
    eigenvalues: 
  0.846  0.929  0.941
    eigenvectors:
  0.340  0.000  0.660
  0.494  0.250  0.256
  0.166  0.750  0.085
    occupations:
  0.909  0.039  0.022
  0.039  0.891 -0.022
  0.022 -0.022  0.917
atom   10   Tr[ns(na)] =   5.43358
    eigenvalues: 
  0.846  0.929  0.941
    eigenvectors:
  0.340  0.000  0.660
  0.000  1.000  0.000
  0.660  0.000  0.340
    occupations:
  0.909  0.000 -0.045
  0.000  0.929  0.000
 -0.045  0.000  0.879
N of occupied +U levels =  56.2505796
 --- exit write_ns ---
 LDA+U Projector read from file 
     Starting wfc from file

     total cpu time spent up to now is        8.2 secs

     per-process dynamical memory:    62.8 Mb

     Self-consistent Calculation

     iteration #  1     ecut=    30.00 Ry     beta=0.20
     Davidson diagonalization with overlap
     c_bands:  1 eigenvalues not converged
     c_bands:  1 eigenvalues not converged
     c_bands:  1 eigenvalues not converged
     c_bands:  1 eigenvalues not converged
     c_bands:  1 eigenvalues not converged
     c_bands:  1 eigenvalues not converged
     c_bands:  1 eigenvalues not converged
     c_bands:  1 eigenvalues not converged
     c_bands:  1 eigenvalues not converged
     c_bands:  1 eigenvalues not converged
     c_bands:  1 eigenvalues not converged
     c_bands:  1 eigenvalues not converged
     c_bands:  1 eigenvalues not converged
     c_bands:  1 eigenvalues not converged
     c_bands:  1 eigenvalues not converged
     c_bands:  1 eigenvalues not converged
     c_bands:  1 eigenvalues not converged
     c_bands:  1 eigenvalues not converged
     c_bands:  1 eigenvalues not converged
     c_bands:  1 eigenvalues not converged
     c_bands:  1 eigenvalues not converged
     c_bands:  1 eigenvalues not converged
     c_bands:  1 eigenvalues not converged
     c_bands:  1 eigenvalues not converged
     ethr =  1.00E-10,  avg # of iterations = 17.9
 --- enter write_ns ---
 LDA+U parameters:
U( 1)     =  4.00000000
alpha( 1) =  0.00000000
U( 2)     =  0.00000000
alpha( 2) =  0.00000000
U( 3)     =  0.00000000
alpha( 3) = -0.10000000
U( 4)     =  0.00000000
alpha( 4) =  0.00000000
atom    1   Tr[ns(na)] =   8.18284
    eigenvalues: 
  0.562  0.564  0.988  0.988  0.991
    eigenvectors:
  0.000  0.000  0.005  0.001  0.994
  0.555  0.099  0.174  0.169  0.002
  0.099  0.555  0.170  0.176  0.000
  0.167  0.179  0.541  0.111  0.002
  0.178  0.167  0.110  0.543  0.002
    occupations:
  0.991  0.000  0.000  0.000  0.000
  0.000  0.709  0.000 -0.073  0.189
  0.000  0.000  0.710  0.188  0.073
  0.000 -0.073  0.188  0.841  0.000
  0.000  0.189  0.073  0.000  0.841
atom    2   Tr[ns(na)] =   8.17421
    eigenvalues: 
  0.559  0.561  0.988  0.988  0.991
    eigenvectors:
  0.000  0.000  0.006  0.001  0.994
  0.417  0.237  0.321  0.024  0.001
  0.238  0.417  0.024  0.321  0.001
  0.027  0.319  0.006  0.648  0.000
  0.319  0.027  0.644  0.006  0.004
    occupations:
  0.991  0.000  0.000  0.000  0.000
  0.000  0.708  0.001  0.072  0.190
  0.000  0.001  0.708  0.190 -0.073
  0.000  0.072  0.190  0.840  0.000
  0.000  0.190 -0.073  0.000  0.840
atom    3   Tr[ns(na)] =   3.79150
    eigenvalues: 
  0.356  0.356  0.382  0.401  0.401
    eigenvectors:
  0.000  0.000  1.000  0.000  0.000
  0.228  0.687  0.000  0.064  0.020
  0.688  0.228  0.000  0.020  0.064
  0.062  0.022  0.000  0.226  0.690
  0.022  0.063  0.000  0.690  0.226
    occupations:
  0.382  0.000  0.000  0.000  0.000
  0.000  0.360  0.000  0.000  0.013
  0.000  0.000  0.360  0.013  0.000
  0.000  0.000  0.013  0.398  0.000
  0.000  0.013  0.000  0.000  0.397
atom    4   Tr[ns(na)] =   3.79161
    eigenvalues: 
  0.356  0.356  0.381  0.401  0.402
    eigenvectors:
  0.000  0.000  1.000  0.000  0.000
  0.688  0.231  0.000  0.060  0.020
  0.232  0.685  0.000  0.020  0.063
  0.021  0.061  0.000  0.233  0.684
  0.059  0.022  0.000  0.687  0.232
    occupations:
  0.381  0.000  0.000  0.000  0.000
  0.000  0.359  0.000  0.000  0.012
  0.000  0.000  0.360  0.013  0.000
  0.000  0.000  0.013  0.398  0.000
  0.000  0.012  0.000  0.000  0.398
atom    5   Tr[ns(na)] =   5.41073
    eigenvalues: 
  0.832  0.927  0.946
    eigenvectors:
  0.340  0.000  0.660
  0.495  0.250  0.255
  0.165  0.750  0.085
    occupations:
  0.907 -0.047  0.027
 -0.047  0.885  0.024
  0.027  0.024  0.913
atom    6   Tr[ns(na)] =   5.39332
    eigenvalues: 
  0.828  0.924  0.944
    eigenvectors:
  0.341  0.000  0.659
  0.494  0.249  0.257
  0.165  0.751  0.084
    occupations:
  0.905  0.048  0.027
  0.048  0.882 -0.025
  0.027 -0.025  0.910
atom    7   Tr[ns(na)] =   5.39333
    eigenvalues: 
  0.828  0.924  0.944
    eigenvectors:
  0.341  0.000  0.659
  0.000  1.000  0.000
  0.659  0.000  0.341
    occupations:
  0.905  0.000 -0.055
  0.000  0.924  0.000
 -0.055  0.000  0.868
atom    8   Tr[ns(na)] =   5.39331
    eigenvalues: 
  0.828  0.924  0.944
    eigenvectors:
  0.341  0.000  0.659
  0.495  0.250  0.255
  0.165  0.750  0.086
    occupations:
  0.905 -0.048  0.028
 -0.048  0.882  0.025
  0.028  0.025  0.910
atom    9   Tr[ns(na)] =   5.39336
    eigenvalues: 
  0.828  0.924  0.944
    eigenvectors:
  0.341  0.000  0.659
  0.494  0.249  0.257
  0.165  0.751  0.084
    occupations:
  0.905  0.047  0.027
  0.047  0.882 -0.025
  0.027 -0.025  0.910
atom   10   Tr[ns(na)] =   5.39336
    eigenvalues: 
  0.828  0.924  0.944
    eigenvectors:
  0.341  0.000  0.659
  0.000  1.000  0.000
  0.659  0.000  0.341
    occupations:
  0.905  0.000 -0.055
  0.000  0.924  0.000
 -0.055  0.000  0.868
N of occupied +U levels =  56.3175676
 --- exit write_ns ---
 --- in v_hubbard ---
Hubbard energy    0.3290
 -------

     total cpu time spent up to now is      110.4 secs

     total energy              =    -538.02738542 Ry
     Harris-Foulkes estimate   =    -538.03360791 Ry
     estimated scf accuracy    <       0.03461133 Ry

     iteration #  2     ecut=    30.00 Ry     beta=0.20
     Davidson diagonalization with overlap
     ethr =  4.55E-05,  avg # of iterations =  1.5
 --- enter write_ns ---
 LDA+U parameters:
U( 1)     =  4.00000000
alpha( 1) =  0.00000000
U( 2)     =  0.00000000
alpha( 2) =  0.00000000
U( 3)     =  0.00000000
alpha( 3) = -0.10000000
U( 4)     =  0.00000000
alpha( 4) =  0.00000000
atom    1   Tr[ns(na)] =   8.02723
    eigenvalues: 
  0.522  0.523  0.989  0.989  0.992
    eigenvectors:
  0.000  0.000  0.001  0.000  0.999
  0.556  0.100  0.201  0.143  0.000
  0.100  0.556  0.143  0.202  0.000
  0.169  0.176  0.507  0.148  0.000
  0.176  0.169  0.148  0.507  0.000
    occupations:
  0.992  0.000  0.000  0.000  0.000
  0.000  0.683  0.000 -0.081  0.206
  0.000  0.000  0.683  0.206  0.081
  0.000 -0.081  0.206  0.828  0.000
  0.000  0.206  0.081  0.000  0.828
atom    2   Tr[ns(na)] =   8.03171
    eigenvalues: 
  0.522  0.523  0.990  0.990  0.992
    eigenvectors:
  0.000  0.000  0.001  0.000  0.999
  0.418  0.237  0.309  0.035  0.000
  0.237  0.418  0.035  0.309  0.000
  0.025  0.319  0.001  0.654  0.000
  0.320  0.025  0.653  0.001  0.000
    occupations:
  0.992  0.000  0.000  0.000  0.000
  0.000  0.683  0.000  0.081  0.207
  0.000  0.000  0.683  0.207 -0.081
  0.000  0.081  0.207  0.829  0.000
  0.000  0.207 -0.081  0.000  0.828
atom    3   Tr[ns(na)] =   3.78863
    eigenvalues: 
  0.355  0.355  0.381  0.401  0.401
    eigenvectors:
  0.000  0.000  1.000  0.000  0.000
  0.226  0.694  0.000  0.066  0.015
  0.694  0.226  0.000  0.015  0.066
  0.060  0.020  0.000  0.176  0.743
  0.020  0.060  0.000  0.743  0.177
    occupations:
  0.381  0.000  0.000  0.000  0.000
  0.000  0.359  0.000  0.000  0.013
  0.000  0.000  0.359  0.013  0.000
  0.000  0.000  0.013  0.398  0.000
  0.000  0.013  0.000  0.000  0.398
atom    4   Tr[ns(na)] =   3.78874
    eigenvalues: 
  0.355  0.355  0.381  0.401  0.402
    eigenvectors:
  0.000  0.000  1.000  0.000  0.000
  0.677  0.244  0.000  0.062  0.018
  0.244  0.676  0.000  0.017  0.063
  0.022  0.059  0.000  0.208  0.712
  0.057  0.022  0.000  0.713  0.208
    occupations:
  0.381  0.000  0.000  0.000  0.000
  0.000  0.359  0.000  0.000  0.013
  0.000  0.000  0.359  0.013  0.000
  0.000  0.000  0.013  0.398  0.000
  0.000  0.013  0.000  0.000  0.398
atom    5   Tr[ns(na)] =   5.44841
    eigenvalues: 
  0.844  0.932  0.948
    eigenvectors:
  0.336  0.000  0.664
  0.497  0.252  0.252
  0.167  0.748  0.085
    occupations:
  0.913 -0.043  0.025
 -0.043  0.892  0.023
  0.025  0.023  0.919
atom    6   Tr[ns(na)] =   5.44231
    eigenvalues: 
  0.842  0.931  0.948
    eigenvectors:
  0.336  0.000  0.664
  0.499  0.248  0.253
  0.165  0.752  0.083
    occupations:
  0.912  0.043  0.025
  0.043  0.891 -0.023
  0.025 -0.023  0.918
atom    7   Tr[ns(na)] =   5.44230
    eigenvalues: 
  0.842  0.931  0.948
    eigenvectors:
  0.336  0.000  0.664
  0.000  1.000  0.000
  0.664  0.000  0.336
    occupations:
  0.912  0.000 -0.050
  0.000  0.931  0.000
 -0.050  0.000  0.878
atom    8   Tr[ns(na)] =   5.44305
    eigenvalues: 
  0.843  0.931  0.948
    eigenvectors:
  0.337  0.000  0.663
  0.497  0.252  0.252
  0.167  0.748  0.085
    occupations:
  0.912 -0.043  0.025
 -0.043  0.891  0.023
  0.025  0.023  0.918
atom    9   Tr[ns(na)] =   5.44217
    eigenvalues: 
  0.842  0.931  0.948
    eigenvectors:
  0.337  0.000  0.663
  0.498  0.248  0.254
  0.165  0.752  0.083
    occupations:
  0.912  0.043  0.025
  0.043  0.891 -0.023
  0.025 -0.023  0.918
atom   10   Tr[ns(na)] =   5.44216
    eigenvalues: 
  0.842  0.931  0.948
    eigenvectors:
  0.337  0.000  0.663
  0.000  1.000  0.000
  0.663  0.000  0.337
    occupations:
  0.912  0.000 -0.050
  0.000  0.931  0.000
 -0.050  0.000  0.878
N of occupied +U levels =  56.2967058
 --- exit write_ns ---
 --- in v_hubbard ---
Hubbard energy    0.3227
 -------

     total cpu time spent up to now is      139.6 secs

     total energy              =    -538.03364629 Ry
     Harris-Foulkes estimate   =    -538.03341608 Ry
     estimated scf accuracy    <       0.02213876 Ry

     iteration #  3     ecut=    30.00 Ry     beta=0.20
     Davidson diagonalization with overlap
     ethr =  2.91E-05,  avg # of iterations =  1.0
 --- enter write_ns ---
 LDA+U parameters:
U( 1)     =  4.00000000
alpha( 1) =  0.00000000
U( 2)     =  0.00000000
alpha( 2) =  0.00000000
U( 3)     =  0.00000000
alpha( 3) = -0.10000000
U( 4)     =  0.00000000
alpha( 4) =  0.00000000
atom    1   Tr[ns(na)] =   8.06327
    eigenvalues: 
  0.530  0.531  0.989  0.989  0.992
    eigenvectors:
  0.000  0.000  0.001  0.000  0.999
  0.556  0.100  0.197  0.147  0.000
  0.100  0.555  0.147  0.198  0.000
  0.169  0.175  0.513  0.143  0.000
  0.175  0.169  0.142  0.513  0.000
    occupations:
  0.992  0.000  0.000  0.000  0.000
  0.000  0.688  0.000 -0.080  0.203
  0.000  0.000  0.689  0.203  0.079
  0.000 -0.080  0.203  0.831  0.000
  0.000  0.203  0.079  0.000  0.831
atom    2   Tr[ns(na)] =   8.05875
    eigenvalues: 
  0.528  0.529  0.990  0.990  0.993
    eigenvectors:
  0.000  0.000  0.001  0.000  0.999
  0.419  0.237  0.309  0.035  0.000
  0.237  0.419  0.035  0.309  0.000
  0.025  0.319  0.001  0.655  0.000
  0.319  0.025  0.654  0.001  0.001
    occupations:
  0.993  0.000  0.000  0.000  0.000
  0.000  0.687  0.000  0.079  0.204
  0.000  0.000  0.687  0.204 -0.080
  0.000  0.079  0.204  0.831  0.000
  0.000  0.204 -0.080  0.000  0.831
atom    3   Tr[ns(na)] =   3.78926
    eigenvalues: 
  0.355  0.355  0.381  0.401  0.401
    eigenvectors:
  0.000  0.000  1.000  0.000  0.000
  0.228  0.692  0.000  0.065  0.015
  0.692  0.228  0.000  0.015  0.065
  0.060  0.021  0.000  0.183  0.737
  0.021  0.060  0.000  0.737  0.183
    occupations:
  0.381  0.000  0.000  0.000  0.000
  0.000  0.359  0.000  0.000  0.012
  0.000  0.000  0.359  0.013  0.000
  0.000  0.000  0.013  0.398  0.000
  0.000  0.012  0.000  0.000  0.398
atom    4   Tr[ns(na)] =   3.78931
    eigenvalues: 
  0.355  0.355  0.381  0.401  0.401
    eigenvectors:
  0.000  0.000  1.000  0.000  0.000
  0.679  0.242  0.000  0.061  0.018
  0.242  0.678  0.000  0.018  0.062
  0.021  0.059  0.000  0.218  0.702
  0.058  0.022  0.000  0.703  0.217
    occupations:
  0.381  0.000  0.000  0.000  0.000
  0.000  0.359  0.000  0.000  0.012
  0.000  0.000  0.359  0.012  0.000
  0.000  0.000  0.012  0.398  0.000
  0.000  0.012  0.000  0.000  0.398
atom    5   Tr[ns(na)] =   5.43849
    eigenvalues: 
  0.841  0.931  0.948
    eigenvectors:
  0.337  0.000  0.663
  0.497  0.251  0.252
  0.166  0.749  0.085
    occupations:
  0.912 -0.044  0.025
 -0.044  0.890  0.023
  0.025  0.023  0.917
atom    6   Tr[ns(na)] =   5.43233
    eigenvalues: 
  0.839  0.930  0.947
    eigenvectors:
  0.337  0.000  0.663
  0.497  0.249  0.254
  0.165  0.751  0.083
    occupations:
  0.911  0.044  0.025
  0.044  0.889 -0.023
  0.025 -0.023  0.916
atom    7   Tr[ns(na)] =   5.43233
    eigenvalues: 
  0.839  0.930  0.947
    eigenvectors:
  0.337  0.000  0.663
  0.000  1.000  0.000
  0.663  0.000  0.337
    occupations:
  0.911  0.000 -0.051
  0.000  0.930  0.000
 -0.051  0.000  0.876
atom    8   Tr[ns(na)] =   5.43298
    eigenvalues: 
  0.839  0.930  0.947
    eigenvectors:
  0.337  0.000  0.663
  0.497  0.251  0.252
  0.166  0.749  0.085
    occupations:
  0.911 -0.044  0.026
 -0.044  0.889  0.023
  0.026  0.023  0.916
atom    9   Tr[ns(na)] =   5.43224
    eigenvalues: 
  0.839  0.930  0.947
    eigenvectors:
  0.338  0.000  0.662
  0.497  0.249  0.254
  0.166  0.751  0.083
    occupations:
  0.911  0.044  0.026
  0.044  0.889 -0.023
  0.026 -0.023  0.916
atom   10   Tr[ns(na)] =   5.43223
    eigenvalues: 
  0.839  0.930  0.947
    eigenvectors:
  0.338  0.000  0.662
  0.000  1.000  0.000
  0.662  0.000  0.338
    occupations:
  0.911  0.000 -0.051
  0.000  0.930  0.000
 -0.051  0.000  0.876
N of occupied +U levels =  56.3011886
 --- exit write_ns ---
 --- in v_hubbard ---
Hubbard energy    0.2696
 -------

     total cpu time spent up to now is      170.3 secs

     total energy              =    -538.03750884 Ry
     Harris-Foulkes estimate   =    -538.03405428 Ry
     estimated scf accuracy    <       0.01133464 Ry

     iteration #  4     ecut=    30.00 Ry     beta=0.20
     Davidson diagonalization with overlap
     ethr =  1.49E-05,  avg # of iterations =  1.1
 --- enter write_ns ---
 LDA+U parameters:
U( 1)     =  4.00000000
alpha( 1) =  0.00000000
U( 2)     =  0.00000000
alpha( 2) =  0.00000000
U( 3)     =  0.00000000
alpha( 3) = -0.10000000
U( 4)     =  0.00000000
alpha( 4) =  0.00000000
atom    1   Tr[ns(na)] =   8.04937
    eigenvalues: 
  0.524  0.525  0.991  0.991  0.994
    eigenvectors:
  0.000  0.000  0.001  0.000  0.999
  0.557  0.101  0.202  0.139  0.000
  0.101  0.557  0.139  0.203  0.000
  0.168  0.173  0.505  0.153  0.000
  0.173  0.168  0.153  0.505  0.000
    occupations:
  0.994  0.000  0.000  0.000  0.000
  0.000  0.683  0.000 -0.081  0.206
  0.000  0.000  0.684  0.206  0.081
  0.000 -0.081  0.206  0.832  0.000
  0.000  0.206  0.081  0.000  0.832
atom    2   Tr[ns(na)] =   8.08079
    eigenvalues: 
  0.529  0.530  0.993  0.993  0.995
    eigenvectors:
  0.000  0.000  0.001  0.000  0.999
  0.419  0.240  0.301  0.041  0.000
  0.240  0.419  0.041  0.301  0.000
  0.024  0.317  0.000  0.658  0.000
  0.317  0.024  0.658  0.000  0.000
    occupations:
  0.995  0.000  0.000  0.000  0.000
  0.000  0.688  0.000  0.081  0.204
  0.000  0.000  0.688  0.204 -0.081
  0.000  0.081  0.204  0.835  0.000
  0.000  0.204 -0.081  0.000  0.835
atom    3   Tr[ns(na)] =   3.79575
    eigenvalues: 
  0.356  0.356  0.382  0.402  0.402
    eigenvectors:
  0.000  0.000  1.000  0.000  0.000
  0.232  0.689  0.000  0.059  0.020
  0.689  0.232  0.000  0.020  0.058
  0.058  0.020  0.000  0.241  0.681
  0.020  0.058  0.000  0.680  0.241
    occupations:
  0.382  0.000  0.000  0.000  0.000
  0.000  0.360  0.000  0.000  0.012
  0.000  0.000  0.360  0.012  0.000
  0.000  0.000  0.012  0.398  0.000
  0.000  0.012  0.000  0.000  0.398
atom    4   Tr[ns(na)] =   3.79578
    eigenvalues: 
  0.356  0.356  0.382  0.402  0.402
    eigenvectors:
  0.000  0.000  1.000  0.000  0.000
  0.694  0.228  0.000  0.057  0.021
  0.229  0.693  0.000  0.020  0.058
  0.020  0.058  0.000  0.249  0.673
  0.057  0.020  0.000  0.674  0.248
    occupations:
  0.382  0.000  0.000  0.000  0.000
  0.000  0.360  0.000  0.000  0.012
  0.000  0.000  0.360  0.012  0.000
  0.000  0.000  0.012  0.398  0.000
  0.000  0.012  0.000  0.000  0.398
atom    5   Tr[ns(na)] =   5.43433
    eigenvalues: 
  0.840  0.930  0.947
    eigenvectors:
  0.337  0.000  0.663
  0.493  0.255  0.252
  0.170  0.745  0.085
    occupations:
  0.911 -0.044  0.026
 -0.044  0.890  0.024
  0.026  0.024  0.916
atom    6   Tr[ns(na)] =   5.42772
    eigenvalues: 
  0.838  0.929  0.947
    eigenvectors:
  0.337  0.000  0.663
  0.501  0.244  0.255
  0.161  0.756  0.082
    occupations:
  0.910  0.045  0.025
  0.045  0.888 -0.024
  0.025 -0.024  0.916
atom    7   Tr[ns(na)] =   5.42773
    eigenvalues: 
  0.838  0.929  0.947
    eigenvectors:
  0.337  0.000  0.663
  0.000  1.000  0.000
  0.663  0.000  0.337
    occupations:
  0.910  0.000 -0.051
  0.000  0.929  0.000
 -0.051  0.000  0.875
atom    8   Tr[ns(na)] =   5.42749
    eigenvalues: 
  0.838  0.929  0.947
    eigenvectors:
  0.337  0.000  0.663
  0.493  0.255  0.252
  0.170  0.745  0.086
    occupations:
  0.910 -0.044  0.026
 -0.044  0.889  0.024
  0.026  0.024  0.915
atom    9   Tr[ns(na)] =   5.42782
    eigenvalues: 
  0.838  0.929  0.947
    eigenvectors:
  0.337  0.000  0.663
  0.501  0.244  0.255
  0.162  0.756  0.083
    occupations:
  0.910  0.045  0.025
  0.045  0.888 -0.024
  0.025 -0.024  0.916
atom   10   Tr[ns(na)] =   5.42783
    eigenvalues: 
  0.838  0.929  0.947
    eigenvectors:
  0.337  0.000  0.663
  0.000  1.000  0.000
  0.662  0.000  0.337
    occupations:
  0.910  0.000 -0.051
  0.000  0.929  0.000
 -0.051  0.000  0.875
N of occupied +U levels =  56.2946245
 --- exit write_ns ---
 --- in v_hubbard ---
Hubbard energy    0.2649
 -------

     total cpu time spent up to now is      206.0 secs

     total energy              =    -538.03822669 Ry
     Harris-Foulkes estimate   =    -538.03826717 Ry
     estimated scf accuracy    <       0.00117851 Ry

     iteration #  5     ecut=    30.00 Ry     beta=0.20
     Davidson diagonalization with overlap
     ethr =  1.55E-06,  avg # of iterations =  2.0
 --- enter write_ns ---
 LDA+U parameters:
U( 1)     =  4.00000000
alpha( 1) =  0.00000000
U( 2)     =  0.00000000
alpha( 2) =  0.00000000
U( 3)     =  0.00000000
alpha( 3) = -0.10000000
U( 4)     =  0.00000000
alpha( 4) =  0.00000000
atom    1   Tr[ns(na)] =   8.06074
    eigenvalues: 
  0.525  0.526  0.992  0.992  0.995
    eigenvectors:
  0.000  0.000  0.001  0.000  0.999
  0.558  0.101  0.199  0.142  0.000
  0.101  0.558  0.142  0.199  0.000
  0.169  0.172  0.512  0.146  0.000
  0.172  0.169  0.146  0.513  0.000
    occupations:
  0.995  0.000  0.000  0.000  0.000
  0.000  0.685  0.000 -0.082  0.205
  0.000  0.000  0.685  0.205  0.081
  0.000 -0.082  0.205  0.833  0.000
  0.000  0.205  0.081  0.000  0.833
atom    2   Tr[ns(na)] =   8.05500
    eigenvalues: 
  0.523  0.524  0.992  0.992  0.995
    eigenvectors:
  0.000  0.000  0.001  0.000  0.999
  0.419  0.239  0.302  0.039  0.000
  0.239  0.420  0.039  0.302  0.000
  0.024  0.317  0.001  0.658  0.000
  0.317  0.025  0.658  0.001  0.000
    occupations:
  0.995  0.000  0.000  0.000  0.000
  0.000  0.684  0.000  0.081  0.207
  0.000  0.000  0.684  0.207 -0.082
  0.000  0.081  0.207  0.833  0.000
  0.000  0.207 -0.082  0.000  0.832
atom    3   Tr[ns(na)] =   3.79615
    eigenvalues: 
  0.356  0.356  0.382  0.402  0.402
    eigenvectors:
  0.000  0.000  1.000  0.000  0.000
  0.229  0.692  0.000  0.053  0.026
  0.692  0.229  0.000  0.026  0.053
  0.058  0.020  0.000  0.309  0.612
  0.020  0.059  0.000  0.612  0.309
    occupations:
  0.382  0.000  0.000  0.000  0.000
  0.000  0.360  0.000  0.000  0.012
  0.000  0.000  0.360  0.012  0.000
  0.000  0.000  0.012  0.398  0.000
  0.000  0.012  0.000  0.000  0.398
atom    4   Tr[ns(na)] =   3.79619
    eigenvalues: 
  0.356  0.356  0.382  0.402  0.402
    eigenvectors:
  0.000  0.000  1.000  0.000  0.000
  0.683  0.240  0.000  0.056  0.022
  0.240  0.682  0.000  0.021  0.057
  0.021  0.057  0.000  0.262  0.659
  0.057  0.021  0.000  0.660  0.262
    occupations:
  0.382  0.000  0.000  0.000  0.000
  0.000  0.360  0.000  0.000  0.012
  0.000  0.000  0.360  0.012  0.000
  0.000  0.000  0.012  0.398  0.000
  0.000  0.012  0.000  0.000  0.398
atom    5   Tr[ns(na)] =   5.43601
    eigenvalues: 
  0.840  0.930  0.947
    eigenvectors:
  0.337  0.000  0.663
  0.497  0.251  0.252
  0.166  0.749  0.085
    occupations:
  0.911 -0.044  0.025
 -0.044  0.890  0.023
  0.025  0.023  0.917
atom    6   Tr[ns(na)] =   5.42963
    eigenvalues: 
  0.838  0.930  0.947
    eigenvectors:
  0.337  0.000  0.663
  0.498  0.248  0.254
  0.165  0.752  0.083
    occupations:
  0.910  0.044  0.026
  0.044  0.889 -0.024
  0.026 -0.024  0.916
atom    7   Tr[ns(na)] =   5.42964
    eigenvalues: 
  0.838  0.930  0.947
    eigenvectors:
  0.337  0.000  0.663
  0.000  1.000  0.000
  0.663  0.000  0.337
    occupations:
  0.910  0.000 -0.051
  0.000  0.930  0.000
 -0.051  0.000  0.875
atom    8   Tr[ns(na)] =   5.42964
    eigenvalues: 
  0.838  0.930  0.947
    eigenvectors:
  0.337  0.000  0.663
  0.497  0.251  0.252
  0.166  0.749  0.085
    occupations:
  0.910 -0.044  0.026
 -0.044  0.889  0.024
  0.026  0.024  0.916
atom    9   Tr[ns(na)] =   5.42967
    eigenvalues: 
  0.838  0.930  0.947
    eigenvectors:
  0.337  0.000  0.663
  0.497  0.249  0.254
  0.166  0.751  0.083
    occupations:
  0.910  0.044  0.026
  0.044  0.889 -0.024
  0.026 -0.024  0.916
atom   10   Tr[ns(na)] =   5.42968
    eigenvalues: 
  0.838  0.930  0.947
    eigenvectors:
  0.337  0.000  0.663
  0.000  1.000  0.000
  0.663  0.000  0.337
    occupations:
  0.910  0.000 -0.051
  0.000  0.930  0.000
 -0.051  0.000  0.875
N of occupied +U levels =  56.2923482
 --- exit write_ns ---
 --- in v_hubbard ---
Hubbard energy    0.2639
 -------

     total cpu time spent up to now is      239.0 secs

     total energy              =    -538.03841324 Ry
     Harris-Foulkes estimate   =    -538.03834458 Ry
     estimated scf accuracy    <       0.00018927 Ry

     iteration #  6     ecut=    30.00 Ry     beta=0.20
     Davidson diagonalization with overlap
     ethr =  2.49E-07,  avg # of iterations =  1.3
 --- enter write_ns ---
 LDA+U parameters:
U( 1)     =  4.00000000
alpha( 1) =  0.00000000
U( 2)     =  0.00000000
alpha( 2) =  0.00000000
U( 3)     =  0.00000000
alpha( 3) = -0.10000000
U( 4)     =  0.00000000
alpha( 4) =  0.00000000
atom    1   Tr[ns(na)] =   8.05085
    eigenvalues: 
  0.523  0.524  0.992  0.992  0.995
    eigenvectors:
  0.000  0.000  0.001  0.000  0.999
  0.558  0.100  0.200  0.141  0.000
  0.100  0.558  0.141  0.201  0.000
  0.169  0.173  0.510  0.148  0.000
  0.173  0.169  0.148  0.510  0.000
    occupations:
  0.995  0.000  0.000  0.000  0.000
  0.000  0.683  0.000 -0.082  0.207
  0.000  0.000  0.684  0.206  0.082
  0.000 -0.082  0.206  0.832  0.000
  0.000  0.207  0.082  0.000  0.832
atom    2   Tr[ns(na)] =   8.04909
    eigenvalues: 
  0.522  0.523  0.993  0.993  0.995
    eigenvectors:
  0.000  0.000  0.001  0.000  0.999
  0.419  0.239  0.302  0.040  0.000
  0.239  0.419  0.040  0.301  0.000
  0.024  0.317  0.001  0.658  0.000
  0.317  0.024  0.658  0.001  0.000
    occupations:
  0.995  0.000  0.000  0.000  0.000
  0.000  0.683  0.000  0.082  0.208
  0.000  0.000  0.683  0.207 -0.082
  0.000  0.082  0.207  0.832  0.000
  0.000  0.208 -0.082  0.000  0.832
atom    3   Tr[ns(na)] =   3.79481
    eigenvalues: 
  0.356  0.356  0.382  0.402  0.402
    eigenvectors:
  0.000  0.000  1.000  0.000  0.000
  0.229  0.692  0.000  0.058  0.021
  0.692  0.229  0.000  0.021  0.057
  0.059  0.020  0.000  0.258  0.663
  0.020  0.059  0.000  0.663  0.258
    occupations:
  0.382  0.000  0.000  0.000  0.000
  0.000  0.360  0.000  0.000  0.012
  0.000  0.000  0.360  0.012  0.000
  0.000  0.000  0.012  0.398  0.000
  0.000  0.012  0.000  0.000  0.398
atom    4   Tr[ns(na)] =   3.79484
    eigenvalues: 
  0.356  0.356  0.381  0.402  0.402
    eigenvectors:
  0.000  0.000  1.000  0.000  0.000
  0.675  0.247  0.000  0.058  0.020
  0.247  0.675  0.000  0.020  0.059
  0.021  0.057  0.000  0.239  0.683
  0.056  0.022  0.000  0.684  0.238
    occupations:
  0.381  0.000  0.000  0.000  0.000
  0.000  0.360  0.000  0.000  0.012
  0.000  0.000  0.360  0.012  0.000
  0.000  0.000  0.012  0.398  0.000
  0.000  0.012  0.000  0.000  0.398
atom    5   Tr[ns(na)] =   5.43839
    eigenvalues: 
  0.841  0.931  0.948
    eigenvectors:
  0.337  0.000  0.663
  0.497  0.251  0.252
  0.166  0.749  0.085
    occupations:
  0.912 -0.044  0.025
 -0.044  0.890  0.023
  0.025  0.023  0.917
atom    6   Tr[ns(na)] =   5.43232
    eigenvalues: 
  0.839  0.930  0.947
    eigenvectors:
  0.337  0.000  0.663
  0.498  0.248  0.254
  0.165  0.752  0.083
    occupations:
  0.911  0.044  0.025
  0.044  0.889 -0.024
  0.025 -0.024  0.916
atom    7   Tr[ns(na)] =   5.43232
    eigenvalues: 
  0.839  0.930  0.947
    eigenvectors:
  0.337  0.000  0.663
  0.000  1.000  0.000
  0.663  0.000  0.337
    occupations:
  0.911  0.000 -0.051
  0.000  0.930  0.000
 -0.051  0.000  0.876
atom    8   Tr[ns(na)] =   5.43272
    eigenvalues: 
  0.839  0.930  0.947
    eigenvectors:
  0.337  0.000  0.663
  0.497  0.251  0.252
  0.166  0.749  0.085
    occupations:
  0.911 -0.044  0.026
 -0.044  0.889  0.024
  0.026  0.024  0.916
atom    9   Tr[ns(na)] =   5.43226
    eigenvalues: 
  0.839  0.930  0.947
    eigenvectors:
  0.337  0.000  0.663
  0.497  0.249  0.254
  0.165  0.751  0.083
    occupations:
  0.911  0.044  0.025
  0.044  0.889 -0.024
  0.025 -0.024  0.916
atom   10   Tr[ns(na)] =   5.43226
    eigenvalues: 
  0.839  0.930  0.947
    eigenvectors:
  0.337  0.000  0.663
  0.000  1.000  0.000
  0.663  0.000  0.337
    occupations:
  0.911  0.000 -0.051
  0.000  0.930  0.000
 -0.051  0.000  0.876
N of occupied +U levels =  56.2898691
 --- exit write_ns ---
 --- in v_hubbard ---
Hubbard energy    0.2644
 -------

     total cpu time spent up to now is      271.7 secs

     total energy              =    -538.03849536 Ry
     Harris-Foulkes estimate   =    -538.03843429 Ry
     estimated scf accuracy    <       0.00005906 Ry

     iteration #  7     ecut=    30.00 Ry     beta=0.20
     Davidson diagonalization with overlap
     ethr =  7.77E-08,  avg # of iterations =  2.1
 --- enter write_ns ---
 LDA+U parameters:
U( 1)     =  4.00000000
alpha( 1) =  0.00000000
U( 2)     =  0.00000000
alpha( 2) =  0.00000000
U( 3)     =  0.00000000
alpha( 3) = -0.10000000
U( 4)     =  0.00000000
alpha( 4) =  0.00000000
atom    1   Tr[ns(na)] =   8.05085
    eigenvalues: 
  0.523  0.524  0.992  0.992  0.995
    eigenvectors:
  0.000  0.000  0.001  0.000  0.999
  0.559  0.100  0.203  0.139  0.000
  0.100  0.558  0.139  0.203  0.000
  0.169  0.173  0.506  0.151  0.000
  0.173  0.169  0.151  0.507  0.000
    occupations:
  0.995  0.000  0.000  0.000  0.000
  0.000  0.683  0.000 -0.083  0.207
  0.000  0.000  0.684  0.206  0.082
  0.000 -0.083  0.206  0.832  0.000
  0.000  0.207  0.082  0.000  0.832
atom    2   Tr[ns(na)] =   8.04802
    eigenvalues: 
  0.521  0.522  0.993  0.993  0.995
    eigenvectors:
  0.000  0.000  0.001  0.000  0.999
  0.419  0.239  0.300  0.042  0.000
  0.239  0.419  0.041  0.300  0.000
  0.024  0.317  0.000  0.658  0.000
  0.317  0.024  0.657  0.000  0.000
    occupations:
  0.995  0.000  0.000  0.000  0.000
  0.000  0.683  0.000  0.082  0.208
  0.000  0.000  0.683  0.207 -0.082
  0.000  0.082  0.207  0.832  0.000
  0.000  0.208 -0.082  0.000  0.831
atom    3   Tr[ns(na)] =   3.79123
    eigenvalues: 
  0.356  0.356  0.381  0.401  0.401
    eigenvectors:
  0.000  0.000  1.000  0.000  0.000
  0.229  0.692  0.000  0.062  0.018
  0.692  0.229  0.000  0.018  0.062
  0.059  0.020  0.000  0.209  0.711
  0.020  0.059  0.000  0.711  0.209
    occupations:
  0.381  0.000  0.000  0.000  0.000
  0.000  0.359  0.000  0.000  0.012
  0.000  0.000  0.359  0.012  0.000
  0.000  0.000  0.012  0.398  0.000
  0.000  0.012  0.000  0.000  0.398
atom    4   Tr[ns(na)] =   3.79126
    eigenvalues: 
  0.356  0.356  0.381  0.401  0.402
    eigenvectors:
  0.000  0.000  1.000  0.000  0.000
  0.679  0.243  0.000  0.059  0.019
  0.243  0.678  0.000  0.019  0.060
  0.021  0.058  0.000  0.232  0.689
  0.057  0.022  0.000  0.690  0.231
    occupations:
  0.381  0.000  0.000  0.000  0.000
  0.000  0.359  0.000  0.000  0.012
  0.000  0.000  0.359  0.012  0.000
  0.000  0.000  0.012  0.398  0.000
  0.000  0.012  0.000  0.000  0.398
atom    5   Tr[ns(na)] =   5.43939
    eigenvalues: 
  0.841  0.931  0.948
    eigenvectors:
  0.337  0.000  0.663
  0.497  0.251  0.252
  0.166  0.749  0.085
    occupations:
  0.912 -0.044  0.025
 -0.044  0.890  0.023
  0.025  0.023  0.917
atom    6   Tr[ns(na)] =   5.43318
    eigenvalues: 
  0.839  0.930  0.947
    eigenvectors:
  0.337  0.000  0.663
  0.498  0.248  0.254
  0.165  0.752  0.083
    occupations:
  0.911  0.044  0.025
  0.044  0.889 -0.023
  0.025 -0.023  0.916
atom    7   Tr[ns(na)] =   5.43318
    eigenvalues: 
  0.839  0.930  0.947
    eigenvectors:
  0.337  0.000  0.663
  0.000  1.000  0.000
  0.663  0.000  0.337
    occupations:
  0.911  0.000 -0.051
  0.000  0.930  0.000
 -0.051  0.000  0.876
atom    8   Tr[ns(na)] =   5.43374
    eigenvalues: 
  0.839  0.930  0.947
    eigenvectors:
  0.337  0.000  0.663
  0.497  0.251  0.252
  0.166  0.749  0.085
    occupations:
  0.911 -0.044  0.026
 -0.044  0.889  0.024
  0.026  0.024  0.916
atom    9   Tr[ns(na)] =   5.43311
    eigenvalues: 
  0.839  0.930  0.947
    eigenvectors:
  0.337  0.000  0.663
  0.497  0.249  0.254
  0.165  0.751  0.083
    occupations:
  0.911  0.044  0.026
  0.044  0.889 -0.024
  0.026 -0.024  0.916
atom   10   Tr[ns(na)] =   5.43311
    eigenvalues: 
  0.839  0.930  0.947
    eigenvectors:
  0.337  0.000  0.663
  0.000  1.000  0.000
  0.663  0.000  0.337
    occupations:
  0.911  0.000 -0.051
  0.000  0.930  0.000
 -0.051  0.000  0.876
N of occupied +U levels =  56.2870669
 --- exit write_ns ---
 --- in v_hubbard ---
Hubbard energy    0.2645
 -------

     total cpu time spent up to now is      311.8 secs

     total energy              =    -538.03856094 Ry
     Harris-Foulkes estimate   =    -538.03850470 Ry
     estimated scf accuracy    <       0.00001583 Ry

     iteration #  8     ecut=    30.00 Ry     beta=0.20
     Davidson diagonalization with overlap
     ethr =  2.08E-08,  avg # of iterations =  2.0
 --- enter write_ns ---
 LDA+U parameters:
U( 1)     =  4.00000000
alpha( 1) =  0.00000000
U( 2)     =  0.00000000
alpha( 2) =  0.00000000
U( 3)     =  0.00000000
alpha( 3) = -0.10000000
U( 4)     =  0.00000000
alpha( 4) =  0.00000000
atom    1   Tr[ns(na)] =   8.05176
    eigenvalues: 
  0.523  0.524  0.992  0.992  0.995
    eigenvectors:
  0.000  0.000  0.001  0.000  0.999
  0.558  0.100  0.204  0.138  0.000
  0.100  0.558  0.138  0.204  0.000
  0.169  0.173  0.505  0.153  0.000
  0.173  0.169  0.152  0.506  0.000
    occupations:
  0.995  0.000  0.000  0.000  0.000
  0.000  0.683  0.000 -0.083  0.206
  0.000  0.000  0.684  0.206  0.082
  0.000 -0.083  0.206  0.832  0.000
  0.000  0.206  0.082  0.000  0.832
atom    2   Tr[ns(na)] =   8.04935
    eigenvalues: 
  0.522  0.523  0.993  0.993  0.995
    eigenvectors:
  0.000  0.000  0.001  0.000  0.999
  0.419  0.239  0.300  0.042  0.000
  0.239  0.419  0.042  0.300  0.000
  0.024  0.317  0.000  0.658  0.000
  0.317  0.024  0.658  0.000  0.000
    occupations:
  0.995  0.000  0.000  0.000  0.000
  0.000  0.683  0.000  0.082  0.208
  0.000  0.000  0.683  0.207 -0.082
  0.000  0.082  0.207  0.832  0.000
  0.000  0.208 -0.082  0.000  0.832
atom    3   Tr[ns(na)] =   3.79292
    eigenvalues: 
  0.356  0.356  0.381  0.402  0.402
    eigenvectors:
  0.000  0.000  1.000  0.000  0.000
  0.229  0.692  0.000  0.063  0.017
  0.692  0.229  0.000  0.017  0.063
  0.059  0.020  0.000  0.199  0.721
  0.020  0.059  0.000  0.721  0.199
    occupations:
  0.381  0.000  0.000  0.000  0.000
  0.000  0.360  0.000  0.000  0.012
  0.000  0.000  0.360  0.012  0.000
  0.000  0.000  0.012  0.398  0.000
  0.000  0.012  0.000  0.000  0.398
atom    4   Tr[ns(na)] =   3.79295
    eigenvalues: 
  0.356  0.356  0.381  0.402  0.402
    eigenvectors:
  0.000  0.000  1.000  0.000  0.000
  0.675  0.247  0.000  0.059  0.019
  0.247  0.674  0.000  0.019  0.060
  0.022  0.057  0.000  0.231  0.690
  0.057  0.022  0.000  0.691  0.231
    occupations:
  0.381  0.000  0.000  0.000  0.000
  0.000  0.360  0.000  0.000  0.012
  0.000  0.000  0.360  0.012  0.000
  0.000  0.000  0.012  0.398  0.000
  0.000  0.012  0.000  0.000  0.398
atom    5   Tr[ns(na)] =   5.43859
    eigenvalues: 
  0.841  0.931  0.948
    eigenvectors:
  0.337  0.000  0.663
  0.497  0.251  0.252
  0.166  0.749  0.085
    occupations:
  0.912 -0.044  0.025
 -0.044  0.890  0.023
  0.025  0.023  0.917
atom    6   Tr[ns(na)] =   5.43248
    eigenvalues: 
  0.839  0.930  0.947
    eigenvectors:
  0.337  0.000  0.663
  0.498  0.248  0.254
  0.165  0.752  0.083
    occupations:
  0.911  0.044  0.025
  0.044  0.889 -0.024
  0.025 -0.024  0.916
atom    7   Tr[ns(na)] =   5.43249
    eigenvalues: 
  0.839  0.930  0.947
    eigenvectors:
  0.337  0.000  0.663
  0.000  1.000  0.000
  0.663  0.000  0.337
    occupations:
  0.911  0.000 -0.051
  0.000  0.930  0.000
 -0.051  0.000  0.876
atom    8   Tr[ns(na)] =   5.43287
    eigenvalues: 
  0.839  0.930  0.947
    eigenvectors:
  0.337  0.000  0.663
  0.497  0.251  0.252
  0.166  0.749  0.085
    occupations:
  0.911 -0.044  0.026
 -0.044  0.889  0.024
  0.026  0.024  0.916
atom    9   Tr[ns(na)] =   5.43243
    eigenvalues: 
  0.839  0.930  0.947
    eigenvectors:
  0.337  0.000  0.663
  0.497  0.249  0.254
  0.165  0.751  0.083
    occupations:
  0.911  0.044  0.026
  0.044  0.889 -0.024
  0.026 -0.024  0.916
atom   10   Tr[ns(na)] =   5.43243
    eigenvalues: 
  0.839  0.930  0.947
    eigenvectors:
  0.337  0.000  0.663
  0.000  1.000  0.000
  0.663  0.000  0.337
    occupations:
  0.911  0.000 -0.051
  0.000  0.930  0.000
 -0.051  0.000  0.876
N of occupied +U levels =  56.2882763
 --- exit write_ns ---
 --- in v_hubbard ---
Hubbard energy    0.2650
 -------

     total cpu time spent up to now is      353.7 secs

     total energy              =    -538.03859858 Ry
     Harris-Foulkes estimate   =    -538.03856307 Ry
     estimated scf accuracy    <       0.00000382 Ry

     iteration #  9     ecut=    30.00 Ry     beta=0.20
     Davidson diagonalization with overlap
     ethr =  5.02E-09,  avg # of iterations =  1.3
 --- enter write_ns ---
 LDA+U parameters:
U( 1)     =  4.00000000
alpha( 1) =  0.00000000
U( 2)     =  0.00000000
alpha( 2) =  0.00000000
U( 3)     =  0.00000000
alpha( 3) = -0.10000000
U( 4)     =  0.00000000
alpha( 4) =  0.00000000
atom    1   Tr[ns(na)] =   8.05162
    eigenvalues: 
  0.523  0.524  0.992  0.992  0.995
    eigenvectors:
  0.000  0.000  0.001  0.000  0.999
  0.559  0.100  0.205  0.137  0.000
  0.099  0.559  0.137  0.205  0.000
  0.169  0.173  0.504  0.154  0.000
  0.173  0.169  0.154  0.504  0.000
    occupations:
  0.995  0.000  0.000  0.000  0.000
  0.000  0.683  0.000 -0.083  0.206
  0.000  0.000  0.684  0.206  0.082
  0.000 -0.083  0.206  0.832  0.000
  0.000  0.206  0.082  0.000  0.832
atom    2   Tr[ns(na)] =   8.04903
    eigenvalues: 
  0.521  0.523  0.993  0.993  0.995
    eigenvectors:
  0.000  0.000  0.001  0.000  0.999
  0.419  0.239  0.299  0.042  0.000
  0.240  0.419  0.042  0.299  0.000
  0.024  0.318  0.000  0.658  0.000
  0.318  0.024  0.657  0.000  0.000
    occupations:
  0.995  0.000  0.000  0.000  0.000
  0.000  0.683  0.000  0.082  0.208
  0.000  0.000  0.683  0.207 -0.083
  0.000  0.082  0.207  0.832  0.000
  0.000  0.208 -0.083  0.000  0.831
atom    3   Tr[ns(na)] =   3.79282
    eigenvalues: 
  0.356  0.356  0.381  0.402  0.402
    eigenvectors:
  0.000  0.000  1.000  0.000  0.000
  0.229  0.692  0.000  0.062  0.017
  0.692  0.229  0.000  0.017  0.062
  0.059  0.020  0.000  0.204  0.716
  0.020  0.059  0.000  0.716  0.204
    occupations:
  0.381  0.000  0.000  0.000  0.000
  0.000  0.360  0.000  0.000  0.012
  0.000  0.000  0.360  0.012  0.000
  0.000  0.000  0.012  0.398  0.000
  0.000  0.012  0.000  0.000  0.398
atom    4   Tr[ns(na)] =   3.79285
    eigenvalues: 
  0.356  0.356  0.381  0.402  0.402
    eigenvectors:
  0.000  0.000  1.000  0.000  0.000
  0.676  0.245  0.000  0.059  0.019
  0.246  0.675  0.000  0.019  0.060
  0.021  0.058  0.000  0.231  0.690
  0.057  0.022  0.000  0.691  0.231
    occupations:
  0.381  0.000  0.000  0.000  0.000
  0.000  0.360  0.000  0.000  0.012
  0.000  0.000  0.360  0.012  0.000
  0.000  0.000  0.012  0.398  0.000
  0.000  0.012  0.000  0.000  0.398
atom    5   Tr[ns(na)] =   5.43871
    eigenvalues: 
  0.841  0.931  0.948
    eigenvectors:
  0.337  0.000  0.663
  0.497  0.251  0.252
  0.166  0.749  0.085
    occupations:
  0.912 -0.044  0.025
 -0.044  0.890  0.023
  0.025  0.023  0.917
atom    6   Tr[ns(na)] =   5.43254
    eigenvalues: 
  0.839  0.930  0.947
    eigenvectors:
  0.337  0.000  0.663
  0.498  0.248  0.254
  0.165  0.752  0.083
    occupations:
  0.911  0.044  0.025
  0.044  0.889 -0.023
  0.025 -0.023  0.916
atom    7   Tr[ns(na)] =   5.43254
    eigenvalues: 
  0.839  0.930  0.947
    eigenvectors:
  0.337  0.000  0.663
  0.000  1.000  0.000
  0.663  0.000  0.337
    occupations:
  0.911  0.000 -0.051
  0.000  0.930  0.000
 -0.051  0.000  0.876
atom    8   Tr[ns(na)] =   5.43295
    eigenvalues: 
  0.839  0.930  0.947
    eigenvectors:
  0.337  0.000  0.663
  0.497  0.251  0.252
  0.166  0.749  0.085
    occupations:
  0.911 -0.044  0.026
 -0.044  0.889  0.024
  0.026  0.024  0.916
atom    9   Tr[ns(na)] =   5.43249
    eigenvalues: 
  0.839  0.930  0.947
    eigenvectors:
  0.338  0.000  0.662
  0.497  0.249  0.254
  0.165  0.751  0.083
    occupations:
  0.911  0.044  0.026
  0.044  0.889 -0.024
  0.026 -0.024  0.916
atom   10   Tr[ns(na)] =   5.43249
    eigenvalues: 
  0.839  0.930  0.947
    eigenvectors:
  0.338  0.000  0.662
  0.000  1.000  0.000
  0.662  0.000  0.338
    occupations:
  0.911  0.000 -0.051
  0.000  0.930  0.000
 -0.051  0.000  0.876
N of occupied +U levels =  56.2880492
 --- exit write_ns ---
 --- in v_hubbard ---
Hubbard energy    0.2652
 -------

     total cpu time spent up to now is      390.2 secs

     total energy              =    -538.03862386 Ry
     Harris-Foulkes estimate   =    -538.03859889 Ry
     estimated scf accuracy    <       0.00000066 Ry

     iteration # 10     ecut=    30.00 Ry     beta=0.20
     Davidson diagonalization with overlap
     ethr =  8.69E-10,  avg # of iterations =  2.0
 --- enter write_ns ---
 LDA+U parameters:
U( 1)     =  4.00000000
alpha( 1) =  0.00000000
U( 2)     =  0.00000000
alpha( 2) =  0.00000000
U( 3)     =  0.00000000
alpha( 3) = -0.10000000
U( 4)     =  0.00000000
alpha( 4) =  0.00000000
atom    1   Tr[ns(na)] =   8.05208
    eigenvalues: 
  0.523  0.524  0.992  0.992  0.995
    eigenvectors:
  0.000  0.000  0.001  0.000  0.999
  0.559  0.099  0.205  0.137  0.000
  0.099  0.559  0.137  0.205  0.000
  0.169  0.173  0.504  0.154  0.000
  0.173  0.169  0.154  0.504  0.000
    occupations:
  0.995  0.000  0.000  0.000  0.000
  0.000  0.683  0.000 -0.083  0.206
  0.000  0.000  0.684  0.206  0.082
  0.000 -0.083  0.206  0.832  0.000
  0.000  0.206  0.082  0.000  0.832
atom    2   Tr[ns(na)] =   8.04960
    eigenvalues: 
  0.522  0.523  0.993  0.993  0.995
    eigenvectors:
  0.000  0.000  0.001  0.000  0.999
  0.419  0.240  0.299  0.042  0.000
  0.240  0.419  0.042  0.299  0.000
  0.024  0.318  0.000  0.658  0.000
  0.318  0.024  0.657  0.000  0.000
    occupations:
  0.995  0.000  0.000  0.000  0.000
  0.000  0.683  0.000  0.082  0.208
  0.000  0.000  0.683  0.207 -0.083
  0.000  0.082  0.207  0.832  0.000
  0.000  0.208 -0.083  0.000  0.832
atom    3   Tr[ns(na)] =   3.79282
    eigenvalues: 
  0.356  0.356  0.381  0.402  0.402
    eigenvectors:
  0.000  0.000  1.000  0.000  0.000
  0.229  0.692  0.000  0.063  0.017
  0.692  0.229  0.000  0.017  0.063
  0.059  0.020  0.000  0.203  0.718
  0.020  0.059  0.000  0.718  0.203
    occupations:
  0.381  0.000  0.000  0.000  0.000
  0.000  0.360  0.000  0.000  0.012
  0.000  0.000  0.360  0.012  0.000
  0.000  0.000  0.012  0.398  0.000
  0.000  0.012  0.000  0.000  0.398
atom    4   Tr[ns(na)] =   3.79285
    eigenvalues: 
  0.356  0.356  0.381  0.402  0.402
    eigenvectors:
  0.000  0.000  1.000  0.000  0.000
  0.678  0.244  0.000  0.059  0.019
  0.244  0.677  0.000  0.019  0.060
  0.021  0.058  0.000  0.231  0.690
  0.057  0.022  0.000  0.691  0.231
    occupations:
  0.381  0.000  0.000  0.000  0.000
  0.000  0.360  0.000  0.000  0.012
  0.000  0.000  0.360  0.012  0.000
  0.000  0.000  0.012  0.398  0.000
  0.000  0.012  0.000  0.000  0.398
atom    5   Tr[ns(na)] =   5.43854
    eigenvalues: 
  0.841  0.931  0.948
    eigenvectors:
  0.337  0.000  0.663
  0.497  0.251  0.252
  0.166  0.749  0.085
    occupations:
  0.912 -0.044  0.025
 -0.044  0.890  0.023
  0.025  0.023  0.917
atom    6   Tr[ns(na)] =   5.43237
    eigenvalues: 
  0.839  0.930  0.947
    eigenvectors:
  0.337  0.000  0.663
  0.498  0.248  0.254
  0.165  0.752  0.083
    occupations:
  0.911  0.044  0.025
  0.044  0.889 -0.024
  0.025 -0.024  0.916
atom    7   Tr[ns(na)] =   5.43237
    eigenvalues: 
  0.839  0.930  0.947
    eigenvectors:
  0.337  0.000  0.663
  0.000  1.000  0.000
  0.663  0.000  0.337
    occupations:
  0.911  0.000 -0.051
  0.000  0.930  0.000
 -0.051  0.000  0.876
atom    8   Tr[ns(na)] =   5.43281
    eigenvalues: 
  0.839  0.930  0.947
    eigenvectors:
  0.337  0.000  0.663
  0.497  0.251  0.252
  0.166  0.749  0.085
    occupations:
  0.911 -0.044  0.026
 -0.044  0.889  0.024
  0.026  0.024  0.916
atom    9   Tr[ns(na)] =   5.43231
    eigenvalues: 
  0.839  0.930  0.947
    eigenvectors:
  0.338  0.000  0.662
  0.497  0.249  0.254
  0.165  0.751  0.083
    occupations:
  0.911  0.044  0.026
  0.044  0.889 -0.024
  0.026 -0.024  0.916
atom   10   Tr[ns(na)] =   5.43231
    eigenvalues: 
  0.839  0.930  0.947
    eigenvectors:
  0.338  0.000  0.662
  0.000  1.000  0.000
  0.662  0.000  0.338
    occupations:
  0.911  0.000 -0.051
  0.000  0.930  0.000
 -0.051  0.000  0.876
N of occupied +U levels =  56.2880658
 --- exit write_ns ---
 --- in v_hubbard ---
Hubbard energy    0.2653
 -------

     total cpu time spent up to now is      426.8 secs

     total energy              =    -538.03863949 Ry
     Harris-Foulkes estimate   =    -538.03862402 Ry
     estimated scf accuracy    <       0.00000064 Ry

     iteration # 11     ecut=    30.00 Ry     beta=0.20
     Davidson diagonalization with overlap
     ethr =  8.44E-10,  avg # of iterations =  1.0
 --- enter write_ns ---
 LDA+U parameters:
U( 1)     =  4.00000000
alpha( 1) =  0.00000000
U( 2)     =  0.00000000
alpha( 2) =  0.00000000
U( 3)     =  0.00000000
alpha( 3) = -0.10000000
U( 4)     =  0.00000000
alpha( 4) =  0.00000000
atom    1   Tr[ns(na)] =   8.05160
    eigenvalues: 
  0.523  0.524  0.992  0.992  0.995
    eigenvectors:
  0.000  0.000  0.001  0.000  0.999
  0.559  0.099  0.205  0.136  0.000
  0.099  0.559  0.137  0.205  0.000
  0.169  0.173  0.503  0.154  0.000
  0.173  0.169  0.154  0.504  0.000
    occupations:
  0.995  0.000  0.000  0.000  0.000
  0.000  0.683  0.000 -0.083  0.206
  0.000  0.000  0.684  0.206  0.082
  0.000 -0.083  0.206  0.832  0.000
  0.000  0.206  0.082  0.000  0.832
atom    2   Tr[ns(na)] =   8.04900
    eigenvalues: 
  0.521  0.523  0.993  0.993  0.995
    eigenvectors:
  0.000  0.000  0.001  0.000  0.999
  0.418  0.240  0.299  0.043  0.000
  0.240  0.419  0.042  0.299  0.000
  0.024  0.318  0.000  0.658  0.000
  0.318  0.024  0.658  0.000  0.000
    occupations:
  0.995  0.000  0.000  0.000  0.000
  0.000  0.683  0.000  0.082  0.208
  0.000  0.000  0.683  0.207 -0.083
  0.000  0.082  0.207  0.832  0.000
  0.000  0.208 -0.083  0.000  0.832
atom    3   Tr[ns(na)] =   3.79275
    eigenvalues: 
  0.356  0.356  0.381  0.402  0.402
    eigenvectors:
  0.000  0.000  1.000  0.000  0.000
  0.229  0.692  0.000  0.063  0.017
  0.692  0.229  0.000  0.017  0.063
  0.059  0.020  0.000  0.203  0.718
  0.020  0.059  0.000  0.718  0.203
    occupations:
  0.381  0.000  0.000  0.000  0.000
  0.000  0.360  0.000  0.000  0.012
  0.000  0.000  0.360  0.012  0.000
  0.000  0.000  0.012  0.398  0.000
  0.000  0.012  0.000  0.000  0.398
atom    4   Tr[ns(na)] =   3.79278
    eigenvalues: 
  0.356  0.356  0.381  0.402  0.402
    eigenvectors:
  0.000  0.000  1.000  0.000  0.000
  0.677  0.244  0.000  0.059  0.019
  0.244  0.676  0.000  0.019  0.060
  0.021  0.058  0.000  0.231  0.690
  0.057  0.022  0.000  0.691  0.231
    occupations:
  0.381  0.000  0.000  0.000  0.000
  0.000  0.359  0.000  0.000  0.012
  0.000  0.000  0.360  0.012  0.000
  0.000  0.000  0.012  0.398  0.000
  0.000  0.012  0.000  0.000  0.398
atom    5   Tr[ns(na)] =   5.43872
    eigenvalues: 
  0.841  0.931  0.948
    eigenvectors:
  0.337  0.000  0.663
  0.497  0.251  0.252
  0.166  0.749  0.085
    occupations:
  0.912 -0.044  0.025
 -0.044  0.890  0.023
  0.025  0.023  0.917
atom    6   Tr[ns(na)] =   5.43255
    eigenvalues: 
  0.839  0.930  0.947
    eigenvectors:
  0.337  0.000  0.663
  0.498  0.248  0.254
  0.165  0.752  0.083
    occupations:
  0.911  0.044  0.025
  0.044  0.889 -0.024
  0.025 -0.024  0.916
atom    7   Tr[ns(na)] =   5.43255
    eigenvalues: 
  0.839  0.930  0.947
    eigenvectors:
  0.337  0.000  0.663
  0.000  1.000  0.000
  0.663  0.000  0.337
    occupations:
  0.911  0.000 -0.051
  0.000  0.930  0.000
 -0.051  0.000  0.876
atom    8   Tr[ns(na)] =   5.43298
    eigenvalues: 
  0.839  0.930  0.947
    eigenvectors:
  0.337  0.000  0.663
  0.497  0.251  0.252
  0.166  0.749  0.085
    occupations:
  0.911 -0.044  0.026
 -0.044  0.889  0.024
  0.026  0.024  0.916
atom    9   Tr[ns(na)] =   5.43249
    eigenvalues: 
  0.839  0.930  0.947
    eigenvectors:
  0.337  0.000  0.663
  0.497  0.249  0.254
  0.165  0.751  0.083
    occupations:
  0.911  0.044  0.026
  0.044  0.889 -0.024
  0.026 -0.024  0.916
atom   10   Tr[ns(na)] =   5.43249
    eigenvalues: 
  0.839  0.930  0.947
    eigenvectors:
  0.337  0.000  0.663
  0.000  1.000  0.000
  0.663  0.000  0.337
    occupations:
  0.911  0.000 -0.051
  0.000  0.930  0.000
 -0.051  0.000  0.876
N of occupied +U levels =  56.2879025
 --- exit write_ns ---
 --- in v_hubbard ---
Hubbard energy    0.2653
 -------

     total cpu time spent up to now is      461.4 secs

     total energy              =    -538.03865006 Ry
     Harris-Foulkes estimate   =    -538.03863959 Ry
     estimated scf accuracy    <       0.00000007 Ry

     iteration # 12     ecut=    30.00 Ry     beta=0.20
     Davidson diagonalization with overlap
     ethr =  9.25E-11,  avg # of iterations =  1.1
 --- enter write_ns ---
 LDA+U parameters:
U( 1)     =  4.00000000
alpha( 1) =  0.00000000
U( 2)     =  0.00000000
alpha( 2) =  0.00000000
U( 3)     =  0.00000000
alpha( 3) = -0.10000000
U( 4)     =  0.00000000
alpha( 4) =  0.00000000
atom    1   Tr[ns(na)] =   8.05168
    eigenvalues: 
  0.523  0.524  0.992  0.992  0.995
    eigenvectors:
  0.000  0.000  0.001  0.000  0.999
  0.559  0.099  0.205  0.136  0.000
  0.099  0.559  0.136  0.205  0.000
  0.169  0.173  0.503  0.155  0.000
  0.173  0.169  0.155  0.504  0.000
    occupations:
  0.995  0.000  0.000  0.000  0.000
  0.000  0.683  0.000 -0.083  0.206
  0.000  0.000  0.684  0.206  0.082
  0.000 -0.083  0.206  0.832  0.000
  0.000  0.206  0.082  0.000  0.832
atom    2   Tr[ns(na)] =   8.04911
    eigenvalues: 
  0.521  0.523  0.993  0.993  0.995
    eigenvectors:
  0.000  0.000  0.001  0.000  0.999
  0.418  0.240  0.299  0.043  0.000
  0.240  0.419  0.043  0.299  0.000
  0.024  0.318  0.000  0.658  0.000
  0.318  0.024  0.658  0.000  0.000
    occupations:
  0.995  0.000  0.000  0.000  0.000
  0.000  0.683  0.000  0.082  0.208
  0.000  0.000  0.683  0.207 -0.083
  0.000  0.082  0.207  0.832  0.000
  0.000  0.208 -0.083  0.000  0.832
atom    3   Tr[ns(na)] =   3.79279
    eigenvalues: 
  0.356  0.356  0.381  0.402  0.402
    eigenvectors:
  0.000  0.000  1.000  0.000  0.000
  0.229  0.692  0.000  0.063  0.017
  0.692  0.229  0.000  0.017  0.063
  0.059  0.020  0.000  0.203  0.717
  0.020  0.059  0.000  0.717  0.203
    occupations:
  0.381  0.000  0.000  0.000  0.000
  0.000  0.360  0.000  0.000  0.012
  0.000  0.000  0.360  0.012  0.000
  0.000  0.000  0.012  0.398  0.000
  0.000  0.012  0.000  0.000  0.398
atom    4   Tr[ns(na)] =   3.79282
    eigenvalues: 
  0.356  0.356  0.381  0.402  0.402
    eigenvectors:
  0.000  0.000  1.000  0.000  0.000
  0.678  0.244  0.000  0.059  0.019
  0.244  0.677  0.000  0.019  0.060
  0.021  0.058  0.000  0.232  0.689
  0.057  0.022  0.000  0.690  0.231
    occupations:
  0.381  0.000  0.000  0.000  0.000
  0.000  0.360  0.000  0.000  0.012
  0.000  0.000  0.360  0.012  0.000
  0.000  0.000  0.012  0.398  0.000
  0.000  0.012  0.000  0.000  0.398
atom    5   Tr[ns(na)] =   5.43868
    eigenvalues: 
  0.841  0.931  0.948
    eigenvectors:
  0.337  0.000  0.663
  0.497  0.251  0.252
  0.166  0.749  0.085
    occupations:
  0.912 -0.044  0.025
 -0.044  0.890  0.023
  0.025  0.023  0.917
atom    6   Tr[ns(na)] =   5.43251
    eigenvalues: 
  0.839  0.930  0.947
    eigenvectors:
  0.337  0.000  0.663
  0.498  0.248  0.254
  0.165  0.752  0.083
    occupations:
  0.911  0.044  0.025
  0.044  0.889 -0.024
  0.025 -0.024  0.916
atom    7   Tr[ns(na)] =   5.43251
    eigenvalues: 
  0.839  0.930  0.947
    eigenvectors:
  0.337  0.000  0.663
  0.000  1.000  0.000
  0.663  0.000  0.337
    occupations:
  0.911  0.000 -0.051
  0.000  0.930  0.000
 -0.051  0.000  0.876
atom    8   Tr[ns(na)] =   5.43293
    eigenvalues: 
  0.839  0.930  0.947
    eigenvectors:
  0.337  0.000  0.663
  0.497  0.251  0.252
  0.166  0.749  0.085
    occupations:
  0.911 -0.044  0.026
 -0.044  0.889  0.024
  0.026  0.024  0.916
atom    9   Tr[ns(na)] =   5.43246
    eigenvalues: 
  0.839  0.930  0.947
    eigenvectors:
  0.337  0.000  0.663
  0.497  0.249  0.254
  0.165  0.751  0.083
    occupations:
  0.911  0.044  0.026
  0.044  0.889 -0.024
  0.026 -0.024  0.916
atom   10   Tr[ns(na)] =   5.43246
    eigenvalues: 
  0.839  0.930  0.947
    eigenvectors:
  0.337  0.000  0.663
  0.000  1.000  0.000
  0.663  0.000  0.337
    occupations:
  0.911  0.000 -0.051
  0.000  0.930  0.000
 -0.051  0.000  0.876
N of occupied +U levels =  56.2879560
 --- exit write_ns ---
 --- in v_hubbard ---
Hubbard energy    0.2652
 -------

     total cpu time spent up to now is      494.2 secs

     total energy              =    -538.03865671 Ry
     Harris-Foulkes estimate   =    -538.03865007 Ry
     estimated scf accuracy    <       0.00000004 Ry

     iteration # 13     ecut=    30.00 Ry     beta=0.20
     Davidson diagonalization with overlap
     ethr =  4.84E-11,  avg # of iterations =  1.3
 --- enter write_ns ---
 LDA+U parameters:
U( 1)     =  4.00000000
alpha( 1) =  0.00000000
U( 2)     =  0.00000000
alpha( 2) =  0.00000000
U( 3)     =  0.00000000
alpha( 3) = -0.10000000
U( 4)     =  0.00000000
alpha( 4) =  0.00000000
atom    1   Tr[ns(na)] =   8.05165
    eigenvalues: 
  0.523  0.524  0.992  0.992  0.995
    eigenvectors:
  0.000  0.000  0.001  0.000  0.999
  0.559  0.099  0.205  0.136  0.000
  0.099  0.559  0.136  0.206  0.000
  0.169  0.173  0.503  0.155  0.000
  0.173  0.169  0.155  0.503  0.000
    occupations:
  0.995  0.000  0.000  0.000  0.000
  0.000  0.683  0.000 -0.083  0.206
  0.000  0.000  0.684  0.206  0.082
  0.000 -0.083  0.206  0.832  0.000
  0.000  0.206  0.082  0.000  0.832
atom    2   Tr[ns(na)] =   8.04907
    eigenvalues: 
  0.521  0.523  0.993  0.993  0.995
    eigenvectors:
  0.000  0.000  0.001  0.000  0.999
  0.418  0.240  0.299  0.043  0.000
  0.240  0.419  0.043  0.299  0.000
  0.024  0.318  0.000  0.658  0.000
  0.318  0.024  0.658  0.000  0.000
    occupations:
  0.995  0.000  0.000  0.000  0.000
  0.000  0.683  0.000  0.082  0.208
  0.000  0.000  0.683  0.207 -0.083
  0.000  0.082  0.207  0.832  0.000
  0.000  0.208 -0.083  0.000  0.832
atom    3   Tr[ns(na)] =   3.79277
    eigenvalues: 
  0.356  0.356  0.381  0.402  0.402
    eigenvectors:
  0.000  0.000  1.000  0.000  0.000
  0.229  0.692  0.000  0.063  0.017
  0.692  0.229  0.000  0.017  0.063
  0.059  0.020  0.000  0.203  0.718
  0.020  0.059  0.000  0.718  0.203
    occupations:
  0.381  0.000  0.000  0.000  0.000
  0.000  0.360  0.000  0.000  0.012
  0.000  0.000  0.360  0.012  0.000
  0.000  0.000  0.012  0.398  0.000
  0.000  0.012  0.000  0.000  0.398
atom    4   Tr[ns(na)] =   3.79280
    eigenvalues: 
  0.356  0.356  0.381  0.402  0.402
    eigenvectors:
  0.000  0.000  1.000  0.000  0.000
  0.678  0.244  0.000  0.059  0.019
  0.244  0.677  0.000  0.019  0.060
  0.021  0.058  0.000  0.231  0.689
  0.057  0.022  0.000  0.690  0.231
    occupations:
  0.381  0.000  0.000  0.000  0.000
  0.000  0.359  0.000  0.000  0.012
  0.000  0.000  0.360  0.012  0.000
  0.000  0.000  0.012  0.398  0.000
  0.000  0.012  0.000  0.000  0.398
atom    5   Tr[ns(na)] =   5.43869
    eigenvalues: 
  0.841  0.931  0.948
    eigenvectors:
  0.337  0.000  0.663
  0.497  0.251  0.252
  0.166  0.749  0.085
    occupations:
  0.912 -0.044  0.025
 -0.044  0.890  0.023
  0.025  0.023  0.917
atom    6   Tr[ns(na)] =   5.43253
    eigenvalues: 
  0.839  0.930  0.947
    eigenvectors:
  0.337  0.000  0.663
  0.498  0.248  0.254
  0.165  0.752  0.083
    occupations:
  0.911  0.044  0.025
  0.044  0.889 -0.024
  0.025 -0.024  0.916
atom    7   Tr[ns(na)] =   5.43253
    eigenvalues: 
  0.839  0.930  0.947
    eigenvectors:
  0.337  0.000  0.663
  0.000  1.000  0.000
  0.663  0.000  0.337
    occupations:
  0.911  0.000 -0.051
  0.000  0.930  0.000
 -0.051  0.000  0.876
atom    8   Tr[ns(na)] =   5.43295
    eigenvalues: 
  0.839  0.930  0.947
    eigenvectors:
  0.337  0.000  0.663
  0.497  0.251  0.252
  0.166  0.749  0.085
    occupations:
  0.911 -0.044  0.026
 -0.044  0.889  0.024
  0.026  0.024  0.916
atom    9   Tr[ns(na)] =   5.43247
    eigenvalues: 
  0.839  0.930  0.947
    eigenvectors:
  0.337  0.000  0.662
  0.497  0.249  0.254
  0.165  0.751  0.083
    occupations:
  0.911  0.044  0.026
  0.044  0.889 -0.024
  0.026 -0.024  0.916
atom   10   Tr[ns(na)] =   5.43247
    eigenvalues: 
  0.839  0.930  0.947
    eigenvectors:
  0.337  0.000  0.663
  0.000  1.000  0.000
  0.663  0.000  0.337
    occupations:
  0.911  0.000 -0.051
  0.000  0.930  0.000
 -0.051  0.000  0.876
N of occupied +U levels =  56.2879405
 --- exit write_ns ---
 --- in v_hubbard ---
Hubbard energy    0.2652
 -------

     total cpu time spent up to now is      529.8 secs

     End of self-consistent calculation

          k = 0.0000 0.0000 0.0000 (  2175 PWs)   bands (ev):

   -19.7966 -19.6236  -6.5480  -5.8635  -5.8559  -5.8291  -5.8104  -5.4813
    -3.8466  -3.2601  -3.2557  -3.2541  -3.0262  -3.0257   5.1576   6.7418
     6.7454   6.8802   6.8833   6.8904   7.4902   7.5016   7.6938   8.6651
     8.8705   8.8714   9.2817   9.6054   9.6152   9.9897   9.9927  10.1851
    10.4448  10.4474  10.6626  10.9668  10.9696  11.3244  11.9025  11.9041
    14.7188  14.7211  15.4284  15.4299  16.2002  16.7876

     occupation numbers 
     0.0313   0.0313   0.0313   0.0313   0.0313   0.0313   0.0313   0.0313
     0.0313   0.0313   0.0313   0.0313   0.0313   0.0313   0.0313   0.0313
     0.0313   0.0313   0.0313   0.0313   0.0313   0.0313   0.0313   0.0313
     0.0313   0.0313   0.0312   0.0312   0.0312   0.0312   0.0312   0.0312
     0.0312   0.0312   0.0312   0.0308   0.0308   0.0258   0.0045   0.0044
     0.0000   0.0000   0.0000   0.0000   0.0000   0.0000

          k =-0.2471-0.1427 0.1027 (  2181 PWs)   bands (ev):

   -19.7716 -19.6605  -6.7265  -6.2968  -5.9565  -5.8554  -5.6129  -5.4795
    -3.6341  -3.4111  -2.9440  -2.9092  -2.8656  -2.7668   5.5048   6.5132
     6.7695   6.8393   6.8539   6.9264   6.9717   7.4441   7.5792   7.9885
     8.0711   8.5219   9.5033   9.6284   9.7007   9.9276  10.0476  10.0947
    10.3087  10.3750  10.3967  10.9899  11.0978  11.1015  12.2767  12.3495
    14.2663  14.2783  15.8162  16.0709  16.9731  17.2671

     occupation numbers 
     0.0625   0.0625   0.0625   0.0625   0.0625   0.0625   0.0625   0.0625
     0.0625   0.0625   0.0625   0.0625   0.0625   0.0625   0.0625   0.0625
     0.0625   0.0625   0.0625   0.0625   0.0625   0.0625   0.0625   0.0625
     0.0625   0.0625   0.0625   0.0625   0.0625   0.0625   0.0625   0.0625
     0.0625   0.0625   0.0625   0.0614   0.0598   0.0597   0.0006   0.0003
     0.0000   0.0000   0.0000   0.0000   0.0000   0.0000

          k = 0.4942 0.2853-0.2053 (  2202 PWs)   bands (ev):

   -19.7228 -19.7215  -6.7292  -6.7111  -5.9714  -5.9600  -5.5315  -5.5126
    -3.3997  -3.3990  -2.8021  -2.7974  -2.5088  -2.5050   5.8826   5.9038
     6.8386   6.8554   7.0672   7.0707   7.2472   7.2624   7.3360   7.3697
     7.5466   7.5668   9.3836   9.3939   9.8250   9.8385  10.2302  10.2420
    10.3651  10.3860  10.5569  10.5836  10.8508  10.8666  13.2515  13.2929
    13.3351  13.3784  16.8311  16.8384  17.1288  17.1335

     occupation numbers 
     0.0313   0.0313   0.0313   0.0313   0.0313   0.0313   0.0313   0.0313
     0.0313   0.0313   0.0313   0.0313   0.0313   0.0313   0.0313   0.0313
     0.0313   0.0313   0.0313   0.0313   0.0313   0.0313   0.0313   0.0313
     0.0313   0.0313   0.0312   0.0312   0.0312   0.0312   0.0312   0.0312
     0.0312   0.0312   0.0312   0.0312   0.0311   0.0311   0.0000   0.0000
     0.0000   0.0000   0.0000   0.0000   0.0000   0.0000

          k =-0.2471 0.1427 0.2053 (  2195 PWs)   bands (ev):

   -19.7640 -19.6709  -6.8575  -6.2448  -6.0774  -5.8224  -5.6469  -5.4740
    -3.4397  -3.2722  -3.1156  -2.9071  -2.8351  -2.5617   5.5457   6.2439
     6.5632   6.7668   6.9336   7.1685   7.1964   7.3792   7.4635   8.0266
     8.0954   8.7306   8.8369   9.2881   9.7956   9.8479   9.9826  10.0293
    10.2527  10.6525  10.7652  10.8242  11.0049  11.0738  11.8319  12.6973
    13.5973  14.7390  15.9939  16.1964  17.0379  17.5381

     occupation numbers 
     0.0625   0.0625   0.0625   0.0625   0.0625   0.0625   0.0625   0.0625
     0.0625   0.0625   0.0625   0.0625   0.0625   0.0625   0.0625   0.0625
     0.0625   0.0625   0.0625   0.0625   0.0625   0.0625   0.0625   0.0625
     0.0625   0.0625   0.0625   0.0625   0.0625   0.0625   0.0625   0.0625
     0.0625   0.0625   0.0624   0.0623   0.0612   0.0603   0.0128   0.0000
     0.0000   0.0000   0.0000   0.0000   0.0000   0.0000

          k = 0.4942 0.5706-0.1027 (  2198 PWs)   bands (ev):

   -19.7335 -19.7130  -6.9610  -6.6452  -6.1362  -5.8802  -5.5072  -5.3943
    -3.3227  -3.2636  -2.8814  -2.7141  -2.5311  -2.3884   5.7686   6.0486
     6.2057   6.7963   6.9863   7.0272   7.1180   7.3814   7.4071   7.4330
     7.9153   8.3804   8.8710   9.1796   9.5033   9.7439   9.7937  10.1753
    10.3021  10.5786  10.6748  10.7549  10.9057  11.0467  12.2708  12.7050
    13.3891  14.3192  16.9053  17.1143  17.3074  18.0146

     occupation numbers 
     0.0625   0.0625   0.0625   0.0625   0.0625   0.0625   0.0625   0.0625
     0.0625   0.0625   0.0625   0.0625   0.0625   0.0625   0.0625   0.0625
     0.0625   0.0625   0.0625   0.0625   0.0625   0.0625   0.0625   0.0625
     0.0625   0.0625   0.0625   0.0625   0.0625   0.0625   0.0625   0.0625
     0.0625   0.0625   0.0625   0.0624   0.0620   0.0607   0.0006   0.0000
     0.0000   0.0000   0.0000   0.0000   0.0000   0.0000

          k = 0.2471 0.4280 0.0000 (  2203 PWs)   bands (ev):

   -19.7459 -19.6978  -6.8433  -6.6480  -6.0398  -5.9875  -5.4469  -5.3662
    -3.5507  -3.3015  -2.8062  -2.7073  -2.5751  -2.5673   5.8029   6.0289
     6.5203   6.8373   6.8935   6.9408   7.2265   7.2753   7.3116   7.5688
     7.7050   8.6085   8.8716   9.3114   9.7131   9.7355  10.0033  10.3103
    10.3705  10.4381  10.6612  10.7007  10.7144  11.1304  12.1829  13.2831
    13.3627  14.1113  16.4333  16.9951  17.4214  17.9252

     occupation numbers 
     0.0625   0.0625   0.0625   0.0625   0.0625   0.0625   0.0625   0.0625
     0.0625   0.0625   0.0625   0.0625   0.0625   0.0625   0.0625   0.0625
     0.0625   0.0625   0.0625   0.0625   0.0625   0.0625   0.0625   0.0625
     0.0625   0.0625   0.0625   0.0625   0.0625   0.0625   0.0625   0.0625
     0.0625   0.0625   0.0625   0.0624   0.0624   0.0591   0.0013   0.0000
     0.0000   0.0000   0.0000   0.0000   0.0000   0.0000

          k = 0.4942-0.2853-0.4107 (  2202 PWs)   bands (ev):

   -19.7308 -19.7179  -7.1730  -6.4551  -6.2450  -5.9546  -5.5189  -5.3031
    -3.2092  -3.1192  -3.0579  -2.6518  -2.4825  -2.2247   5.5986   5.7407
     6.0517   6.7450   7.0370   7.1387   7.2496   7.2892   7.6606   7.6726
     8.1520   8.2742   8.5998   8.8981   9.3871   9.6593  10.0176  10.0566
    10.3747  10.4728  10.6451  10.7983  10.9137  11.1738  11.7819  12.3796
    13.2915  14.7535  17.0452  17.2668  17.5206  17.6134

     occupation numbers 
     0.0313   0.0313   0.0313   0.0313   0.0313   0.0313   0.0313   0.0313
     0.0313   0.0313   0.0313   0.0313   0.0313   0.0313   0.0313   0.0313
     0.0313   0.0313   0.0313   0.0313   0.0313   0.0313   0.0313   0.0313
     0.0313   0.0313   0.0313   0.0313   0.0312   0.0312   0.0312   0.0312
     0.0312   0.0312   0.0312   0.0312   0.0310   0.0290   0.0080   0.0001
     0.0000   0.0000   0.0000   0.0000   0.0000   0.0000

          k = 0.0000 0.0000 0.3080 (  2187 PWs)   bands (ev):

[...]
     0.0625   0.0625   0.0625   0.0625   0.0625   0.0625   0.0625   0.0625
     0.0625   0.0625   0.0625   0.0625   0.0625   0.0625   0.0625   0.0625
     0.0625   0.0625   0.0624   0.0622   0.0612   0.0603   0.0128   0.0000
     0.0000   0.0000   0.0000   0.0000   0.0000   0.0000

          k = 0.4942-0.5706 0.1027 (  2198 PWs)   bands (ev):

   -19.7343 -19.7135  -6.9525  -6.6464  -6.1284  -5.8963  -5.5178  -5.3826
    -3.3225  -3.2632  -2.8830  -2.7103  -2.5308  -2.3855   5.7533   6.0583
     6.1968   6.7939   6.9807   7.0238   7.1341   7.3626   7.3941   7.4439
     7.9383   8.3782   8.8739   9.1835   9.4952   9.7481   9.7931  10.1729
    10.2999  10.5784  10.6745  10.7468  10.9177  11.0514  12.2701  12.7039
    13.3923  14.3172  16.9072  17.1096  17.3075  18.0146

     occupation numbers 
     0.0625   0.0625   0.0625   0.0625   0.0625   0.0625   0.0625   0.0625
     0.0625   0.0625   0.0625   0.0625   0.0625   0.0625   0.0625   0.0625
     0.0625   0.0625   0.0625   0.0625   0.0625   0.0625   0.0625   0.0625
     0.0625   0.0625   0.0625   0.0625   0.0625   0.0625   0.0625   0.0625
     0.0625   0.0625   0.0625   0.0624   0.0619   0.0606   0.0006   0.0000
     0.0000   0.0000   0.0000   0.0000   0.0000   0.0000

          k =-0.7412 0.1427-0.1027 (  2198 PWs)   bands (ev):

   -19.7343 -19.7135  -6.9521  -6.6472  -6.1274  -5.8974  -5.5168  -5.3832
    -3.3217  -3.2632  -2.8828  -2.7114  -2.5302  -2.3858   5.7565   6.0505
     6.2031   6.7911   6.9843   7.0245   7.1230   7.3736   7.4027   7.4358
     7.9335   8.3765   8.8756   9.1837   9.4976   9.7486   9.7930  10.1737
    10.2972  10.5848  10.6701  10.7482  10.9088  11.0567  12.2702  12.7042
    13.3924  14.3175  16.9053  17.1124  17.3069  18.0142

     occupation numbers 
     0.0625   0.0625   0.0625   0.0625   0.0625   0.0625   0.0625   0.0625
     0.0625   0.0625   0.0625   0.0625   0.0625   0.0625   0.0625   0.0625
     0.0625   0.0625   0.0625   0.0625   0.0625   0.0625   0.0625   0.0625
     0.0625   0.0625   0.0625   0.0625   0.0625   0.0625   0.0625   0.0625
     0.0625   0.0625   0.0625   0.0624   0.0619   0.0605   0.0006   0.0000
     0.0000   0.0000   0.0000   0.0000   0.0000   0.0000

          k = 0.2471-0.7133-0.1027 (  2198 PWs)   bands (ev):

   -19.7343 -19.7135  -6.9518  -6.6477  -6.1264  -5.8984  -5.5176  -5.3821
    -3.3218  -3.2634  -2.8825  -2.7122  -2.5301  -2.3856   5.7569   6.0506
     6.2045   6.7908   6.9816   7.0296   7.1188   7.3703   7.4072   7.4361
     7.9327   8.3757   8.8729   9.1849   9.5015   9.7440   9.7967  10.1721
    10.2962  10.5820  10.6739  10.7565  10.9020  11.0554  12.2703  12.7041
    13.3924  14.3175  16.9039  17.1146  17.3070  18.0151

     occupation numbers 
     0.0625   0.0625   0.0625   0.0625   0.0625   0.0625   0.0625   0.0625
     0.0625   0.0625   0.0625   0.0625   0.0625   0.0625   0.0625   0.0625
     0.0625   0.0625   0.0625   0.0625   0.0625   0.0625   0.0625   0.0625
     0.0625   0.0625   0.0625   0.0625   0.0625   0.0625   0.0625   0.0625
     0.0625   0.0625   0.0625   0.0624   0.0620   0.0606   0.0006   0.0000
     0.0000   0.0000   0.0000   0.0000   0.0000   0.0000

          k =-0.7412-0.1427 0.1027 (  2198 PWs)   bands (ev):

   -19.7343 -19.7135  -6.9522  -6.6468  -6.1275  -5.8972  -5.5186  -5.3814
    -3.3225  -3.2633  -2.8827  -2.7112  -2.5307  -2.3852   5.7537   6.0585
     6.1982   6.7933   6.9783   7.0287   7.1299   7.3606   7.3975   7.4439
     7.9375   8.3776   8.8713   9.1846   9.4990   9.7435   9.7969  10.1716
    10.2988  10.5756  10.6783  10.7548  10.9110  11.0502  12.2702  12.7039
    13.3922  14.3172  16.9057  17.1117  17.3076  18.0154

     occupation numbers 
     0.0625   0.0625   0.0625   0.0625   0.0625   0.0625   0.0625   0.0625
     0.0625   0.0625   0.0625   0.0625   0.0625   0.0625   0.0625   0.0625
     0.0625   0.0625   0.0625   0.0625   0.0625   0.0625   0.0625   0.0625
     0.0625   0.0625   0.0625   0.0625   0.0625   0.0625   0.0625   0.0625
     0.0625   0.0625   0.0625   0.0624   0.0619   0.0606   0.0006   0.0000
     0.0000   0.0000   0.0000   0.0000   0.0000   0.0000

          k = 0.2471 0.7133 0.1027 (  2198 PWs)   bands (ev):

   -19.7335 -19.7130  -6.9615  -6.6444  -6.1372  -5.8791  -5.5083  -5.3937
    -3.3234  -3.2635  -2.8816  -2.7130  -2.5317  -2.3881   5.7653   6.0568
     6.1992   6.7988   6.9823   7.0273   7.1288   7.3705   7.3992   7.4404
     7.9202   8.3822   8.8694   9.1792   9.5009   9.7436   9.7938  10.1745
    10.3047  10.5723  10.6794  10.7533  10.9145  11.0413  12.2707  12.7047
    13.3890  14.3189  16.9072  17.1115  17.3080  18.0150

     occupation numbers 
     0.0625   0.0625   0.0625   0.0625   0.0625   0.0625   0.0625   0.0625
     0.0625   0.0625   0.0625   0.0625   0.0625   0.0625   0.0625   0.0625
     0.0625   0.0625   0.0625   0.0625   0.0625   0.0625   0.0625   0.0625
     0.0625   0.0625   0.0625   0.0625   0.0625   0.0625   0.0625   0.0625
     0.0625   0.0625   0.0625   0.0624   0.0619   0.0608   0.0006   0.0000
     0.0000   0.0000   0.0000   0.0000   0.0000   0.0000

          k = 0.2471-0.4280 0.0000 (  2203 PWs)   bands (ev):

   -19.7457 -19.6979  -6.8480  -6.6388  -6.0588  -5.9770  -5.4379  -5.3713
    -3.5491  -3.3016  -2.8042  -2.7115  -2.5770  -2.5649   5.8131   6.0289
     6.5187   6.8371   6.8857   6.9417   7.2169   7.2701   7.3192   7.5619
     7.6987   8.6179   8.8837   9.3297   9.7074   9.7310  10.0027  10.3055
    10.3679  10.4338  10.6589  10.6998  10.7112  11.1401  12.1820  13.2816
    13.3613  14.1142  16.4338  16.9932  17.4194  17.9258

     occupation numbers 
     0.0625   0.0625   0.0625   0.0625   0.0625   0.0625   0.0625   0.0625
     0.0625   0.0625   0.0625   0.0625   0.0625   0.0625   0.0625   0.0625
     0.0625   0.0625   0.0625   0.0625   0.0625   0.0625   0.0625   0.0625
     0.0625   0.0625   0.0625   0.0625   0.0625   0.0625   0.0625   0.0625
     0.0625   0.0625   0.0625   0.0624   0.0624   0.0589   0.0013   0.0000
     0.0000   0.0000   0.0000   0.0000   0.0000   0.0000

          k =-0.4942 0.0000 0.0000 (  2203 PWs)   bands (ev):

   -19.7457 -19.6979  -6.8480  -6.6387  -6.0589  -5.9770  -5.4379  -5.3713
    -3.5491  -3.3016  -2.8042  -2.7115  -2.5771  -2.5647   5.8131   6.0289
     6.5187   6.8380   6.8852   6.9420   7.2161   7.2701   7.3191   7.5623
     7.6988   8.6179   8.8837   9.3298   9.7065   9.7319  10.0025  10.3051
    10.3685  10.4340  10.6596  10.6994  10.7105  11.1401  12.1820  13.2816
    13.3612  14.1142  16.4338  16.9932  17.4194  17.9257

     occupation numbers 
     0.0625   0.0625   0.0625   0.0625   0.0625   0.0625   0.0625   0.0625
     0.0625   0.0625   0.0625   0.0625   0.0625   0.0625   0.0625   0.0625
     0.0625   0.0625   0.0625   0.0625   0.0625   0.0625   0.0625   0.0625
     0.0625   0.0625   0.0625   0.0625   0.0625   0.0625   0.0625   0.0625
     0.0625   0.0625   0.0625   0.0624   0.0624   0.0589   0.0013   0.0000
     0.0000   0.0000   0.0000   0.0000   0.0000   0.0000

          k = 0.4942 0.2853 0.4107 (  2202 PWs)   bands (ev):

   -19.7323 -19.7190  -7.1624  -6.4506  -6.2334  -5.9768  -5.5353  -5.2905
    -3.2084  -3.1184  -3.0574  -2.6479  -2.4800  -2.2214   5.5847   5.7239
     6.0675   6.7406   7.0288   7.1256   7.2348   7.2878   7.6723   7.6841
     8.1505   8.2954   8.5832   8.8969   9.4081   9.6642  10.0189  10.0500
    10.3679  10.4707  10.6490  10.7931  10.9141  11.1847  11.7819  12.3782
    13.2955  14.7517  17.0441  17.2661  17.5183  17.6117

     occupation numbers 
     0.0313   0.0313   0.0313   0.0313   0.0313   0.0313   0.0313   0.0313
     0.0313   0.0313   0.0313   0.0313   0.0313   0.0313   0.0313   0.0313
     0.0313   0.0313   0.0313   0.0313   0.0313   0.0313   0.0313   0.0313
     0.0313   0.0313   0.0313   0.0313   0.0312   0.0312   0.0312   0.0312
     0.0312   0.0312   0.0312   0.0312   0.0310   0.0288   0.0080   0.0001
     0.0000   0.0000   0.0000   0.0000   0.0000   0.0000

          k = 0.0000 0.5706-0.4107 (  2202 PWs)   bands (ev):

   -19.7323 -19.7190  -7.1624  -6.4506  -6.2335  -5.9768  -5.5353  -5.2906
    -3.2084  -3.1184  -3.0575  -2.6479  -2.4800  -2.2214   5.5847   5.7239
     6.0675   6.7405   7.0291   7.1256   7.2348   7.2876   7.6722   7.6842
     8.1504   8.2956   8.5832   8.8969   9.4080   9.6643  10.0187  10.0502
    10.3680  10.4706  10.6485  10.7941  10.9136  11.1847  11.7819  12.3782
    13.2955  14.7517  17.0441  17.2661  17.5183  17.6117

     occupation numbers 
     0.0313   0.0313   0.0313   0.0313   0.0313   0.0313   0.0313   0.0313
     0.0313   0.0313   0.0313   0.0313   0.0313   0.0313   0.0313   0.0313
     0.0313   0.0313   0.0313   0.0313   0.0313   0.0313   0.0313   0.0313
     0.0313   0.0313   0.0313   0.0313   0.0312   0.0312   0.0312   0.0312
     0.0312   0.0312   0.0312   0.0312   0.0310   0.0288   0.0080   0.0001
     0.0000   0.0000   0.0000   0.0000   0.0000   0.0000

          k = 0.7412-0.4280 0.0000 (  2204 PWs)   bands (ev):

   -19.7452 -19.6996  -6.7290  -6.6120  -6.1404  -5.8309  -5.6868  -5.5558
    -3.1973  -3.1008  -3.0475  -2.6786  -2.6619  -2.5893   5.8409   6.2843
     6.3658   6.8826   6.9518   7.0752   7.1452   7.2488   7.3659   7.5143
     7.8344   8.4578   8.8612   9.4089   9.4854   9.6585   9.8137  10.2032
    10.3974  10.5399  10.6787  10.7865  10.8380  10.8920  12.1815  13.2038
    13.2788  14.1393  16.6848  16.7260  17.5912  17.7941

     occupation numbers 
     0.0625   0.0625   0.0625   0.0625   0.0625   0.0625   0.0625   0.0625
     0.0625   0.0625   0.0625   0.0625   0.0625   0.0625   0.0625   0.0625
     0.0625   0.0625   0.0625   0.0625   0.0625   0.0625   0.0625   0.0625
     0.0625   0.0625   0.0625   0.0625   0.0625   0.0625   0.0625   0.0625
     0.0625   0.0625   0.0625   0.0623   0.0622   0.0620   0.0013   0.0000
     0.0000   0.0000   0.0000   0.0000   0.0000   0.0000

          k = 0.0000-0.8559 0.0000 (  2204 PWs)   bands (ev):

   -19.7450 -19.6997  -6.7338  -6.6035  -6.1448  -5.8347  -5.6929  -5.5446
    -3.1960  -3.1010  -3.0475  -2.6805  -2.6646  -2.5869   5.8540   6.2949
     6.3566   6.8759   6.9446   7.0762   7.1380   7.2501   7.3634   7.5067
     7.8292   8.4653   8.8779   9.4255   9.4807   9.6545   9.8127  10.1992
    10.3922  10.5360  10.6760  10.7817  10.8413  10.8990  12.1809  13.2024
    13.2773  14.1420  16.6863  16.7250  17.5898  17.7938

     occupation numbers 
     0.0625   0.0625   0.0625   0.0625   0.0625   0.0625   0.0625   0.0625
     0.0625   0.0625   0.0625   0.0625   0.0625   0.0625   0.0625   0.0625
     0.0625   0.0625   0.0625   0.0625   0.0625   0.0625   0.0625   0.0625
     0.0625   0.0625   0.0625   0.0625   0.0625   0.0625   0.0625   0.0625
     0.0625   0.0625   0.0625   0.0623   0.0622   0.0620   0.0013   0.0000
     0.0000   0.0000   0.0000   0.0000   0.0000   0.0000

          k = 0.4942-0.2853-0.1027 (  2211 PWs)   bands (ev):

   -19.7344 -19.7122  -6.9771  -6.5417  -6.3241  -5.6996  -5.6136  -5.3659
    -3.3363  -3.1697  -3.0446  -2.6049  -2.5661  -2.3806   5.8020   6.0612
     6.1288   6.7383   7.0257   7.0282   7.2132   7.2575   7.4095   7.4567
     7.9579   8.4224   8.8576   9.3426   9.3530   9.6078   9.9371  10.0584
    10.3830  10.6394  10.7779  10.8102  10.8498  10.8790  12.2262  12.7189
    13.4360  14.3008  16.8855  16.9346  17.5779  17.9270

     occupation numbers 
     0.0625   0.0625   0.0625   0.0625   0.0625   0.0625   0.0625   0.0625
     0.0625   0.0625   0.0625   0.0625   0.0625   0.0625   0.0625   0.0625
     0.0625   0.0625   0.0625   0.0625   0.0625   0.0625   0.0625   0.0625
     0.0625   0.0625   0.0625   0.0625   0.0625   0.0625   0.0625   0.0625
     0.0625   0.0625   0.0624   0.0623   0.0622   0.0621   0.0009   0.0000
     0.0000   0.0000   0.0000   0.0000   0.0000   0.0000

          k = 0.0000-0.5706 0.1027 (  2211 PWs)   bands (ev):

   -19.7352 -19.7127  -6.9684  -6.5435  -6.3225  -5.7046  -5.6262  -5.3562
    -3.3362  -3.1695  -3.0443  -2.6032  -2.5658  -2.3778   5.7909   6.0739
     6.1159   6.7395   7.0172   7.0287   7.2132   7.2493   7.4132   7.4557
     7.9746   8.4163   8.8619   9.3323   9.3505   9.6263   9.9417  10.0527
    10.3747  10.6393  10.7757  10.8137  10.8516  10.8837  12.2257  12.7181
    13.4393  14.2990  16.8849  16.9349  17.5784  17.9266

     occupation numbers 
     0.0625   0.0625   0.0625   0.0625   0.0625   0.0625   0.0625   0.0625
     0.0625   0.0625   0.0625   0.0625   0.0625   0.0625   0.0625   0.0625
     0.0625   0.0625   0.0625   0.0625   0.0625   0.0625   0.0625   0.0625
     0.0625   0.0625   0.0625   0.0625   0.0625   0.0625   0.0625   0.0625
     0.0625   0.0625   0.0624   0.0623   0.0622   0.0621   0.0009   0.0000
     0.0000   0.0000   0.0000   0.0000   0.0000   0.0000

          k = 0.7412 0.4280 0.3080 (  2210 PWs)   bands (ev):

   -19.7349 -19.7140  -6.9047  -6.4539  -6.3001  -5.8000  -5.7663  -5.4860
    -3.0782  -3.0631  -2.9691  -2.7330  -2.6263  -2.4283   5.8831   6.1311
     6.2174   6.7297   6.9506   7.0646   7.2745   7.2975   7.4205   7.4923
     7.9494   8.4223   8.7634   9.2771   9.4303   9.4718   9.6280  10.1047
    10.3470  10.6321  10.7268  10.7969  10.9298  10.9350  12.1859  12.6713
    13.3883  14.2690  17.0590  17.0695  17.5468  17.9019

     occupation numbers 
     0.0625   0.0625   0.0625   0.0625   0.0625   0.0625   0.0625   0.0625
     0.0625   0.0625   0.0625   0.0625   0.0625   0.0625   0.0625   0.0625
     0.0625   0.0625   0.0625   0.0625   0.0625   0.0625   0.0625   0.0625
     0.0625   0.0625   0.0625   0.0625   0.0625   0.0625   0.0625   0.0625
     0.0625   0.0625   0.0624   0.0623   0.0618   0.0618   0.0013   0.0000
     0.0000   0.0000   0.0000   0.0000   0.0000   0.0000

          k = 0.0000 0.8559-0.3080 (  2210 PWs)   bands (ev):

   -19.7349 -19.7140  -6.9047  -6.4540  -6.3000  -5.8000  -5.7662  -5.4860
    -3.0782  -3.0631  -2.9691  -2.7330  -2.6263  -2.4283   5.8831   6.1312
     6.2174   6.7298   6.9504   7.0650   7.2745   7.2973   7.4197   7.4933
     7.9493   8.4222   8.7634   9.2772   9.4303   9.4717   9.6280  10.1045
    10.3471  10.6319  10.7278  10.7962  10.9298  10.9350  12.1859  12.6713
    13.3883  14.2690  17.0589  17.0695  17.5468  17.9019

     occupation numbers 
     0.0625   0.0625   0.0625   0.0625   0.0625   0.0625   0.0625   0.0625
     0.0625   0.0625   0.0625   0.0625   0.0625   0.0625   0.0625   0.0625
     0.0625   0.0625   0.0625   0.0625   0.0625   0.0625   0.0625   0.0625
     0.0625   0.0625   0.0625   0.0625   0.0625   0.0625   0.0625   0.0625
     0.0625   0.0625   0.0624   0.0623   0.0618   0.0618   0.0013   0.0000
     0.0000   0.0000   0.0000   0.0000   0.0000   0.0000

          k = 0.2471 0.7133-0.2053 (  2206 PWs)   bands (ev):

   -19.7256 -19.7253  -6.8894  -6.8750  -6.0408  -6.0203  -5.4374  -5.4232
    -3.1590  -3.1585  -2.8216  -2.8183  -2.3860  -2.3825   5.9552   5.9753
     6.2770   6.2862   6.9289   6.9299   7.2350   7.2369   7.4244   7.4427
     8.4680   8.4804   8.7662   8.7797   9.4540   9.4640   9.9959   9.9999
    10.4589  10.4671  10.6387  10.6415  10.9765  10.9866  12.2339  12.2393
    13.9630  13.9742  17.4246  17.4260  17.8687  17.8726

     occupation numbers 
     0.0625   0.0625   0.0625   0.0625   0.0625   0.0625   0.0625   0.0625
     0.0625   0.0625   0.0625   0.0625   0.0625   0.0625   0.0625   0.0625
     0.0625   0.0625   0.0625   0.0625   0.0625   0.0625   0.0625   0.0625
     0.0625   0.0625   0.0625   0.0625   0.0625   0.0625   0.0625   0.0625
     0.0625   0.0625   0.0625   0.0625   0.0615   0.0614   0.0008   0.0008
     0.0000   0.0000   0.0000   0.0000   0.0000   0.0000

          k =-0.7412-0.1427-0.2053 (  2206 PWs)   bands (ev):

   -19.7262 -19.7260  -6.8879  -6.8644  -6.0400  -6.0384  -5.4379  -5.4163
    -3.1587  -3.1574  -2.8217  -2.8207  -2.3859  -2.3765   5.9587   5.9772
     6.2744   6.2788   6.9036   6.9293   7.2270   7.2312   7.4290   7.4481
     8.4798   8.4818   8.7810   8.7848   9.4669   9.4681   9.9850   9.9901
    10.4531  10.4590  10.6380  10.6466  10.9834  10.9901  12.2328  12.2387
    13.9636  13.9749  17.4256  17.4262  17.8683  17.8707

     occupation numbers 
     0.0625   0.0625   0.0625   0.0625   0.0625   0.0625   0.0625   0.0625
     0.0625   0.0625   0.0625   0.0625   0.0625   0.0625   0.0625   0.0625
     0.0625   0.0625   0.0625   0.0625   0.0625   0.0625   0.0625   0.0625
     0.0625   0.0625   0.0625   0.0625   0.0625   0.0625   0.0625   0.0625
     0.0625   0.0625   0.0625   0.0625   0.0614   0.0614   0.0008   0.0008
     0.0000   0.0000   0.0000   0.0000   0.0000   0.0000

     the Fermi energy is    11.5938 ev

!    total energy              =    -538.03866855 Ry
     Harris-Foulkes estimate   =    -538.03865673 Ry
     estimated scf accuracy    <          2.2E-09 Ry

     The total energy is the sum of the following terms:

     one-electron contribution =     -32.90148789 Ry
     hartree contribution      =      83.66508774 Ry
     xc contribution           =    -199.61602797 Ry
     ewald contribution        =    -389.44315552 Ry
     Hubbard energy            =       0.26522460 Ry
     smearing contrib. (-TS)   =      -0.00830952 Ry

     convergence has been achieved in  13 iterations

     init_run     :      7.61s CPU      7.73s WALL (       1 calls)
     electrons    :    518.49s CPU    521.62s WALL (       1 calls)

     Called by init_run:
     wfcinit      :      0.00s CPU      0.00s WALL (       1 calls)
     potinit      :      0.32s CPU      0.35s WALL (       1 calls)

     Called by electrons:
     c_bands      :    396.43s CPU    397.76s WALL (      13 calls)
     sum_band     :     97.32s CPU     98.04s WALL (      13 calls)
     v_of_rho     :      3.54s CPU      3.56s WALL (      14 calls)
     v_h          :      0.20s CPU      0.20s WALL (      14 calls)
     v_xc         :      3.33s CPU      3.35s WALL (      14 calls)
     newd         :     22.49s CPU     22.56s WALL (      14 calls)
     mix_rho      :      0.57s CPU      0.57s WALL (      13 calls)

     Called by c_bands:
     init_us_2    :      3.13s CPU      3.14s WALL (     936 calls)
     cegterg      :    387.13s CPU    387.93s WALL (     468 calls)

     Called by sum_band:
     sum_band:bec :      0.33s CPU      0.35s WALL (     468 calls)
     addusdens    :     14.41s CPU     14.43s WALL (      13 calls)

     Called by *egterg:
     h_psi        :    317.58s CPU    318.22s WALL (    1753 calls)
     s_psi        :     11.65s CPU     11.68s WALL (    1753 calls)
     g_psi        :      1.09s CPU      1.06s WALL (    1285 calls)
     cdiaghg      :     19.52s CPU     19.55s WALL (    1717 calls)
     cegterg:over :     13.98s CPU     14.04s WALL (    1285 calls)
     cegterg:upda :      7.96s CPU      7.96s WALL (    1285 calls)
     cegterg:last :      6.39s CPU      6.39s WALL (     536 calls)

     Called by h_psi:
     h_psi:vloc   :    278.97s CPU    279.50s WALL (    1753 calls)
     h_psi:vnl    :     24.20s CPU     24.21s WALL (    1753 calls)
     add_vuspsi   :     11.56s CPU     11.57s WALL (    1753 calls)
     vhpsi        :     14.03s CPU     14.10s WALL (    1753 calls)

     General routines
     calbec       :     27.39s CPU     27.50s WALL (    4442 calls)
     fft          :      2.99s CPU      3.07s WALL (     219 calls)
     ffts         :      0.07s CPU      0.12s WALL (      27 calls)
     fftw         :    232.85s CPU    233.07s WALL (  129224 calls)
     interpolate  :      0.39s CPU      0.50s WALL (      27 calls)
     davcio       :      0.02s CPU      0.84s WALL (     972 calls)

     Parallel routines
     fft_scatter  :     61.69s CPU     61.91s WALL (  129470 calls)
     Hubbard U routines
     new_ns       :      2.99s CPU      3.52s WALL (      13 calls)
     vhpsi        :     14.03s CPU     14.10s WALL (    1753 calls)

     PWSCF        :  8m46.51s CPU     8m49.84s WALL


   This run was terminated on:  15:11:16  11Nov2012            

=------------------------------------------------------------------------------=
