   JOB DONE.
=------------------------------------------------------------------------------=

     Program PWSCF v.5.0.1 starts on 11Nov2012 at 15:36:56 

     This program is part of the open-source Quantum ESPRESSO suite
     for quantum simulation of materials; please cite
         "P. Giannozzi et al., J. Phys.:Condens. Matter 21 395502 (2009);
          URL http://www.quantum-espresso.org", 
     in publications or presentations arising from this work. More details at
     http://www.quantum-espresso.org/quote.php

     Parallel version (MPI), running on     2 processors
     R & G space division:  proc/pool =    2

     Current dimensions of program PWSCF are:
     Max number of different atomic species (ntypx) = 10
     Max number of k-points (npk) =  40000
     Max angular momentum in pseudopotentials (lmaxx) =  3
     Reading input from CoLaO_U400_a10.in
               file Co.pbe-nd-rrkjus.UPF: wavefunction(s)  4S 3D renormalized
               file O.pbe-rrkjus.UPF: wavefunction(s)  2S renormalized
               file O.pbe-rrkjus.UPF: wavefunction(s)  2S renormalized

     Subspace diagonalization in iterative solution of the eigenvalue problem:
     a serial algorithm will be used


     Parallelization info
     --------------------
     sticks:   dense  smooth     PW     G-vecs:    dense   smooth      PW
     Min        1112     444    131                34808     8786    1448
     Max        1113     445    132                34809     8787    1449
     Sum        2225     889    263                69617    17573    2897


     Title: 
     GGA + U, U = 4.000, alpha = 0.100                                          


     bravais-lattice index     =            5
     lattice parameter (alat)  =      10.3292  a.u.
     unit-cell volume          =     793.0599 (a.u.)^3
     number of atoms/cell      =           10
     number of atomic types    =            4
     number of electrons       =        76.00
     number of Kohn-Sham states=           46
     kinetic-energy cutoff     =      30.0000  Ry
     charge density cutoff     =     300.0000  Ry
     convergence threshold     =      1.0E-08
     mixing beta               =       0.2000
     number of iterations used =            8  plain     mixing
     Exchange-correlation      =  SLA  PW   PBE  PBE ( 1 4 3 4 0)
     EXX-fraction              =        0.00

     celldm(1)=  10.329242  celldm(2)=   0.000000  celldm(3)=   0.000000
     celldm(4)=   0.488100  celldm(5)=   0.000000  celldm(6)=   0.000000

     crystal axes: (cart. coord. in units of alat)
               a(1) = (   0.505915  -0.292090   0.811624 )  
               a(2) = (   0.000000   0.584180   0.811624 )  
               a(3) = (  -0.505915  -0.292090   0.811624 )  

     reciprocal axes: (cart. coord. in units 2 pi/alat)
               b(1) = (  0.988308 -0.570600  0.410699 )  
               b(2) = (  0.000000  1.141200  0.410699 )  
               b(3) = ( -0.988308 -0.570600  0.410699 )  


     PseudoPot. # 1 for Co read from file:
     /home/mcurnan/dft-course/Project1/example_LaCoO3/Co.pbe-nd-rrkjus.UPF
     MD5 check sum: 3e47a84addf5e975e0edeaeee2a73f59
     Pseudo is Ultrasoft + core correction, Zval =  9.0
     Generated by new atomic code, or converted to UPF format
     Using radial grid of  961 points,  6 beta functions with: 
                l(1) =   0
                l(2) =   0
                l(3) =   1
                l(4) =   1
                l(5) =   2
                l(6) =   2
     Q(r) pseudized with 0 coefficients 


     PseudoPot. # 2 for La read from file:
     /home/mcurnan/dft-course/Project1/example_LaCoO3/La.pbe-nsp-van.UPF
     MD5 check sum: b2f11743f52dde65f77d1302becd7929
     Pseudo is Ultrasoft + core correction, Zval = 11.0
     Generated by new atomic code, or converted to UPF format
     Using radial grid of  907 points,  6 beta functions with: 
                l(1) =   0
                l(2) =   0
                l(3) =   1
                l(4) =   1
                l(5) =   2
                l(6) =   2
     Q(r) pseudized with  6 coefficients,  rinner =    1.200   1.200   1.200
                                                       1.200   1.200

     PseudoPot. # 3 for O  read from file:
     /home/mcurnan/dft-course/Project1/example_LaCoO3/O.pbe-rrkjus.UPF
     MD5 check sum: 390ba29e75625707450f3bd3f0eb6be9
     Pseudo is Ultrasoft, Zval =  6.0
     Generated by new atomic code, or converted to UPF format
     Using radial grid of 1269 points,  4 beta functions with: 
                l(1) =   0
                l(2) =   0
                l(3) =   1
                l(4) =   1
     Q(r) pseudized with 0 coefficients 


     PseudoPot. # 4 for O  read from file:
     /home/mcurnan/dft-course/Project1/example_LaCoO3/O.pbe-rrkjus.UPF
     MD5 check sum: 390ba29e75625707450f3bd3f0eb6be9
     Pseudo is Ultrasoft, Zval =  6.0
     Generated by new atomic code, or converted to UPF format
     Using radial grid of 1269 points,  4 beta functions with: 
                l(1) =   0
                l(2) =   0
                l(3) =   1
                l(4) =   1
     Q(r) pseudized with 0 coefficients 


     atomic species   valence    mass     pseudopotential
        Co1            9.00     1.00000     Co( 1.00)
        La1           11.00     1.00000     La( 1.00)
        O1             6.00     1.00000     O ( 1.00)
        O2             6.00     1.00000     O ( 1.00)
 -----
     simplified LDA+U calculation, Hubbard_lmax = 2
     atomic species  L   Hubbard U  Hubbard alpha
        Co1          2    4.000000    0.000000
        La1          2    0.000000    0.000000
        O1           1    0.000000    0.100000
        O2           1    0.000000    0.000000
 -----

     No symmetry found


                                    s                        frac. trans.

      isym =  1     identity                                     

 cryst.   s( 1) = (     1          0          0      )
                  (     0          1          0      )
                  (     0          0          1      )

 cart.    s( 1) = (  1.0000000  0.0000000  0.0000000 )
                  (  0.0000000  1.0000000  0.0000000 )
                  (  0.0000000  0.0000000  1.0000000 )


     point group C_1 (1)    
     there are  1 classes
     the character table:

       E    
A      1.00

     the symmetry operations in each class:
     E        1

   Cartesian axes

     site n.     atom                  positions (alat units)
         1           Co1 tau(   1) = (   0.2228050  -0.1992639   1.0141240  )
         2           Co1 tau(   2) = (  -0.2831100   0.0928263   1.4199360  )
         3           La1 tau(   3) = (  -0.2831100   0.0928263   0.8112181  )
         4           La1 tau(   4) = (   0.2228050   0.3849164   1.2170300  )
         5           O1  tau(   5) = (   0.0000000   0.0000000   0.0000000  )
         6           O2  tau(   6) = (   0.0008601   0.1861491   1.6232478  )
         7           O2  tau(   7) = (   0.1616398   0.0923297   0.8116239  )
         8           O2  tau(   8) = (  -0.0603051  -0.1064377   1.2166242  )
         9           O2  tau(   9) = (   0.4447499  -0.0004966   1.2166242  )
        10           O2  tau(  10) = (  -0.2219449   0.3854130   1.2166242  )

   Crystallographic axes

     site n.     atom                  positions (cryst. coord.)
         1           Co1 tau(   1) = (  0.7504000  0.1891000  0.3100000  )
         2           Co1 tau(   2) = (  0.2504000  0.6891000  0.8100000  )
         3           La1 tau(   3) = (  0.0004000  0.4391000  0.5600000  )
         4           La1 tau(   4) = (  0.5004000  0.9391000  0.0600000  )
         5           O1  tau(   5) = (  0.0000000  0.0000000  0.0000000  )
         6           O2  tau(   6) = (  0.5613000  0.8791000  0.5596000  )
         7           O2  tau(   7) = (  0.4404000  0.4387000  0.1209000  )
         8           O2  tau(   8) = (  0.5008000  0.3782000  0.6200000  )
         9           O2  tau(   9) = (  0.9395000  0.4991000  0.0604000  )
        10           O2  tau(  10) = (  0.0604000  0.9395000  0.4991000  )

     number of k points=    36  gaussian smearing, width (Ry)=  0.0300
                       cart. coord. in units 2pi/alat
        k(    1) = (   0.0000000   0.0000000   0.0000000), wk =   0.0312500
        k(    2) = (  -0.2470771  -0.1426500   0.1026748), wk =   0.0625000
        k(    3) = (   0.4941541   0.2853000  -0.2053496), wk =   0.0312500
        k(    4) = (  -0.2470771   0.1426500   0.2053496), wk =   0.0625000
        k(    5) = (   0.4941541   0.5706001  -0.1026748), wk =   0.0625000
        k(    6) = (   0.2470771   0.4279500   0.0000000), wk =   0.0625000
        k(    7) = (   0.4941541  -0.2853000  -0.4106993), wk =   0.0312500
        k(    8) = (   0.0000000   0.0000000   0.3080244), wk =   0.0625000
        k(    9) = (   0.7412312   0.4279500   0.0000000), wk =   0.0625000
        k(   10) = (   0.4941541   0.2853000   0.1026748), wk =   0.0625000
        k(   11) = (   0.7412312  -0.4279500  -0.3080244), wk =   0.0625000
        k(   12) = (   0.4941541  -0.5706001  -0.2053496), wk =   0.0625000
        k(   13) = (   0.0000000   0.0000000  -0.6160489), wk =   0.0312500
        k(   14) = (  -0.2470771   0.1426500  -0.1026748), wk =   0.0625000
        k(   15) = (   0.0000000   0.2853000   0.1026748), wk =   0.0625000
        k(   16) = (   0.4941541  -0.2853000   0.2053496), wk =   0.0312500
        k(   17) = (   0.0000000  -0.5706001  -0.2053496), wk =   0.0312500
        k(   18) = (  -0.2470771  -0.1426500  -0.2053496), wk =   0.0625000
        k(   19) = (   0.0000000  -0.2853000   0.2053496), wk =   0.0625000
        k(   20) = (   0.4941541  -0.5706001   0.1026748), wk =   0.0625000
        k(   21) = (  -0.7412312   0.1426500  -0.1026748), wk =   0.0625000
        k(   22) = (   0.2470771  -0.7132501  -0.1026748), wk =   0.0625000
        k(   23) = (  -0.7412312  -0.1426500   0.1026748), wk =   0.0625000
        k(   24) = (   0.2470771   0.7132501   0.1026748), wk =   0.0625000
        k(   25) = (   0.2470771  -0.4279500   0.0000000), wk =   0.0625000
        k(   26) = (  -0.4941541   0.0000000   0.0000000), wk =   0.0625000
        k(   27) = (   0.4941541   0.2853000   0.4106993), wk =   0.0312500
        k(   28) = (   0.0000000   0.5706001  -0.4106993), wk =   0.0312500
        k(   29) = (   0.7412312  -0.4279500   0.0000000), wk =   0.0625000
        k(   30) = (   0.0000000  -0.8559001   0.0000000), wk =   0.0625000
        k(   31) = (   0.4941541  -0.2853000  -0.1026748), wk =   0.0625000
        k(   32) = (   0.0000000  -0.5706001   0.1026748), wk =   0.0625000
        k(   33) = (   0.7412312   0.4279500   0.3080244), wk =   0.0625000
        k(   34) = (   0.0000000   0.8559001  -0.3080244), wk =   0.0625000
        k(   35) = (   0.2470771   0.7132501  -0.2053496), wk =   0.0625000
        k(   36) = (  -0.7412312  -0.1426500  -0.2053496), wk =   0.0625000

                       cryst. coord.
        k(    1) = (   0.0000000   0.0000000   0.0000000), wk =   0.0312500
        k(    2) = (   0.0000000   0.0000000   0.2500000), wk =   0.0625000
        k(    3) = (   0.0000000   0.0000000  -0.5000000), wk =   0.0312500
        k(    4) = (   0.0000000   0.2500000   0.2500000), wk =   0.0625000
        k(    5) = (   0.0000000   0.2500000  -0.5000000), wk =   0.0625000
        k(    6) = (   0.0000000   0.2500000  -0.2500000), wk =   0.0625000
        k(    7) = (   0.0000000  -0.5000000  -0.5000000), wk =   0.0312500
        k(    8) = (   0.2500000   0.2500000   0.2500000), wk =   0.0625000
        k(    9) = (   0.2500000   0.2500000  -0.5000000), wk =   0.0625000
        k(   10) = (   0.2500000   0.2500000  -0.2500000), wk =   0.0625000
        k(   11) = (   0.2500000  -0.5000000  -0.5000000), wk =   0.0625000
        k(   12) = (   0.2500000  -0.5000000  -0.2500000), wk =   0.0625000
        k(   13) = (  -0.5000000  -0.5000000  -0.5000000), wk =   0.0312500
        k(   14) = (  -0.2500000   0.0000000   0.0000000), wk =   0.0625000
        k(   15) = (   0.0000000   0.2500000   0.0000000), wk =   0.0625000
        k(   16) = (   0.5000000   0.0000000   0.0000000), wk =   0.0312500
        k(   17) = (   0.0000000  -0.5000000   0.0000000), wk =   0.0312500
        k(   18) = (  -0.2500000  -0.2500000   0.0000000), wk =   0.0625000
        k(   19) = (   0.2500000   0.0000000   0.2500000), wk =   0.0625000
        k(   20) = (   0.5000000  -0.2500000   0.0000000), wk =   0.0625000
        k(   21) = (  -0.5000000   0.0000000   0.2500000), wk =   0.0625000
        k(   22) = (   0.2500000  -0.5000000   0.0000000), wk =   0.0625000
        k(   23) = (  -0.2500000   0.0000000   0.5000000), wk =   0.0625000
        k(   24) = (   0.0000000   0.5000000  -0.2500000), wk =   0.0625000
        k(   25) = (   0.2500000  -0.2500000   0.0000000), wk =   0.0625000
        k(   26) = (  -0.2500000   0.0000000   0.2500000), wk =   0.0625000
        k(   27) = (   0.5000000   0.5000000   0.0000000), wk =   0.0312500
        k(   28) = (  -0.5000000   0.0000000  -0.5000000), wk =   0.0312500
        k(   29) = (   0.5000000  -0.2500000  -0.2500000), wk =   0.0625000
        k(   30) = (   0.2500000  -0.5000000   0.2500000), wk =   0.0625000
        k(   31) = (   0.2500000  -0.2500000  -0.2500000), wk =   0.0625000
        k(   32) = (   0.2500000  -0.2500000   0.2500000), wk =   0.0625000
        k(   33) = (   0.5000000   0.5000000  -0.2500000), wk =   0.0625000
        k(   34) = (  -0.5000000   0.2500000  -0.5000000), wk =   0.0625000
        k(   35) = (  -0.2500000   0.2500000  -0.5000000), wk =   0.0625000
        k(   36) = (  -0.5000000  -0.2500000   0.2500000), wk =   0.0625000

     Dense  grid:    69617 G-vectors     FFT dimensions: (  60,  60,  60)

     Smooth grid:    17573 G-vectors     FFT dimensions: (  40,  40,  40)

     Largest allocated arrays     est. size (Mb)     dimensions
        Kohn-Sham Wavefunctions         0.79 Mb     (   1119,   46)
        Atomic wavefunctions            1.06 Mb     (   1119,   62)
        NL pseudopotentials             2.05 Mb     (   1119,  120)
        Each V/rho on FFT grid          1.65 Mb     ( 108000)
        Each G-vector array             0.27 Mb     (  34808)
        G-vector shells                 0.04 Mb     (   4682)
     Largest temporary arrays     est. size (Mb)     dimensions
        Auxiliary wavefunctions         3.14 Mb     (   1119,  184)
        Each subspace H/S matrix        0.52 Mb     ( 184, 184)
        Each <psi_i|beta_j> matrix      0.08 Mb     (    120,   46)
        Arrays for rho mixing          13.18 Mb     ( 108000,   8)

     Check: negative/imaginary core charge=   -0.000028    0.000000

     The initial density is read from file :
     /home/mcurnan/dft-course/Project1/example_LaCoO3/400/O/alpha/CoLaO_U400.save/charge-density.dat

 --- in v_hubbard ---
Hubbard energy    0.4227
 -------
     Number of +U iterations with fixed ns =  0
     Starting occupations:
 --- enter write_ns ---
 LDA+U parameters:
U( 1)     =  4.00000000
alpha( 1) =  0.00000000
U( 2)     =  0.00000000
alpha( 2) =  0.00000000
U( 3)     =  0.00000000
alpha( 3) =  0.10000000
U( 4)     =  0.00000000
alpha( 4) =  0.00000000
atom    1   Tr[ns(na)] =   8.02205
    eigenvalues: 
  0.596  0.596  0.938  0.941  0.941
    eigenvectors:
  0.000  0.000  1.000  0.000  0.000
  0.057  0.598  0.000  0.178  0.167
  0.598  0.057  0.000  0.167  0.178
  0.210  0.135  0.000  0.095  0.560
  0.135  0.210  0.000  0.560  0.095
    occupations:
  0.938  0.000  0.000  0.000  0.000
  0.000  0.715  0.000 -0.060  0.152
  0.000  0.000  0.715  0.152  0.060
  0.000 -0.060  0.152  0.822  0.000
  0.000  0.152  0.060  0.000  0.822
atom    2   Tr[ns(na)] =   8.02142
    eigenvalues: 
  0.595  0.595  0.938  0.941  0.941
    eigenvectors:
  0.000  0.000  1.000  0.000  0.000
  0.332  0.323  0.000  0.023  0.322
  0.323  0.332  0.000  0.322  0.023
  0.288  0.057  0.000  0.647  0.008
  0.057  0.288  0.000  0.008  0.647
    occupations:
  0.938  0.000  0.000  0.000  0.000
  0.000  0.715  0.000  0.060  0.153
  0.000  0.000  0.715  0.153 -0.060
  0.000  0.060  0.153  0.822  0.000
  0.000  0.153 -0.060  0.000  0.822
atom    3   Tr[ns(na)] =   3.80282
    eigenvalues: 
  0.355  0.355  0.384  0.403  0.403
    eigenvectors:
  0.000  0.000  1.000  0.000  0.000
  0.065  0.856  0.000  0.058  0.021
  0.856  0.065  0.000  0.021  0.058
  0.073  0.006  0.000  0.250  0.670
  0.006  0.073  0.000  0.670  0.250
    occupations:
  0.384  0.000  0.000  0.000  0.000
  0.000  0.359  0.000  0.000  0.013
  0.000  0.000  0.359  0.013  0.000
  0.000  0.000  0.013  0.399  0.000
  0.000  0.013  0.000  0.000  0.399
atom    4   Tr[ns(na)] =   3.80282
    eigenvalues: 
  0.355  0.355  0.384  0.403  0.403
    eigenvectors:
  0.000  0.000  1.000  0.000  0.000
  0.729  0.192  0.000  0.048  0.032
  0.192  0.729  0.000  0.032  0.048
  0.017  0.062  0.000  0.359  0.562
  0.062  0.017  0.000  0.562  0.359
    occupations:
  0.384  0.000  0.000  0.000  0.000
  0.000  0.359  0.000  0.000  0.013
  0.000  0.000  0.359  0.013  0.000
  0.000  0.000  0.013  0.399  0.000
  0.000  0.013  0.000  0.000  0.399
atom    5   Tr[ns(na)] =   5.43357
    eigenvalues: 
  0.846  0.929  0.941
    eigenvectors:
  0.340  0.000  0.660
  0.496  0.250  0.255
  0.164  0.750  0.086
    occupations:
  0.909 -0.039  0.022
 -0.039  0.891  0.022
  0.022  0.022  0.917
atom    6   Tr[ns(na)] =   5.43358
    eigenvalues: 
  0.846  0.929  0.941
    eigenvectors:
  0.340  0.000  0.660
  0.494  0.250  0.256
  0.166  0.750  0.085
    occupations:
  0.909  0.039  0.022
  0.039  0.891 -0.022
  0.022 -0.022  0.917
atom    7   Tr[ns(na)] =   5.43358
    eigenvalues: 
  0.846  0.929  0.941
    eigenvectors:
  0.340  0.000  0.660
  0.000  1.000  0.000
  0.660  0.000  0.340
    occupations:
  0.909  0.000 -0.045
  0.000  0.929  0.000
 -0.045  0.000  0.879
atom    8   Tr[ns(na)] =   5.43357
    eigenvalues: 
  0.846  0.929  0.941
    eigenvectors:
  0.340  0.000  0.660
  0.496  0.250  0.255
  0.164  0.750  0.086
    occupations:
  0.909 -0.039  0.022
 -0.039  0.891  0.022
  0.022  0.022  0.917
atom    9   Tr[ns(na)] =   5.43358
    eigenvalues: 
  0.846  0.929  0.941
    eigenvectors:
  0.340  0.000  0.660
  0.494  0.250  0.256
  0.166  0.750  0.085
    occupations:
  0.909  0.039  0.022
  0.039  0.891 -0.022
  0.022 -0.022  0.917
atom   10   Tr[ns(na)] =   5.43358
    eigenvalues: 
  0.846  0.929  0.941
    eigenvectors:
  0.340  0.000  0.660
  0.000  1.000  0.000
  0.660  0.000  0.340
    occupations:
  0.909  0.000 -0.045
  0.000  0.929  0.000
 -0.045  0.000  0.879
N of occupied +U levels =  56.2505796
 --- exit write_ns ---
 LDA+U Projector read from file 
     Starting wfc from file

     total cpu time spent up to now is        7.4 secs

     per-process dynamical memory:    62.8 Mb

     Self-consistent Calculation

     iteration #  1     ecut=    30.00 Ry     beta=0.20
     Davidson diagonalization with overlap
     c_bands:  1 eigenvalues not converged
     c_bands:  1 eigenvalues not converged
     c_bands:  1 eigenvalues not converged
     c_bands:  1 eigenvalues not converged
     c_bands:  1 eigenvalues not converged
     c_bands:  1 eigenvalues not converged
     c_bands:  1 eigenvalues not converged
     c_bands:  1 eigenvalues not converged
     c_bands:  1 eigenvalues not converged
     c_bands:  1 eigenvalues not converged
     c_bands:  1 eigenvalues not converged
     c_bands:  1 eigenvalues not converged
     c_bands:  1 eigenvalues not converged
     c_bands:  1 eigenvalues not converged
     c_bands:  1 eigenvalues not converged
     c_bands:  1 eigenvalues not converged
     c_bands:  1 eigenvalues not converged
     c_bands:  1 eigenvalues not converged
     c_bands:  1 eigenvalues not converged
     c_bands:  1 eigenvalues not converged
     c_bands:  1 eigenvalues not converged
     c_bands:  1 eigenvalues not converged
     ethr =  1.00E-10,  avg # of iterations = 17.8
 --- enter write_ns ---
 LDA+U parameters:
U( 1)     =  4.00000000
alpha( 1) =  0.00000000
U( 2)     =  0.00000000
alpha( 2) =  0.00000000
U( 3)     =  0.00000000
alpha( 3) =  0.10000000
U( 4)     =  0.00000000
alpha( 4) =  0.00000000
atom    1   Tr[ns(na)] =   8.19310
    eigenvalues: 
  0.564  0.566  0.988  0.988  0.990
    eigenvectors:
  0.000  0.000  0.002  0.007  0.992
  0.099  0.555  0.211  0.132  0.002
  0.556  0.099  0.134  0.211  0.001
  0.179  0.167  0.059  0.593  0.003
  0.167  0.179  0.594  0.057  0.003
    occupations:
  0.990  0.000  0.000  0.000  0.000
  0.000  0.712  0.000 -0.072  0.187
  0.000  0.000  0.711  0.187  0.073
  0.000 -0.072  0.187  0.842  0.000
  0.000  0.187  0.073  0.000  0.841
atom    2   Tr[ns(na)] =   8.18465
    eigenvalues: 
  0.562  0.564  0.988  0.988  0.991
    eigenvectors:
  0.000  0.000  0.002  0.007  0.991
  0.238  0.417  0.007  0.337  0.002
  0.416  0.238  0.339  0.006  0.001
  0.319  0.027  0.620  0.033  0.000
  0.027  0.319  0.033  0.617  0.005
    occupations:
  0.991  0.000  0.000  0.000  0.000
  0.000  0.710 -0.001  0.072  0.189
  0.000 -0.001  0.710  0.189 -0.072
  0.000  0.072  0.189  0.841  0.000
  0.000  0.189 -0.072  0.000  0.841
atom    3   Tr[ns(na)] =   3.79608
    eigenvalues: 
  0.356  0.356  0.382  0.402  0.402
    eigenvectors:
  0.000  0.000  1.000  0.000  0.000
  0.690  0.230  0.000  0.019  0.061
  0.230  0.689  0.000  0.062  0.019
  0.021  0.060  0.000  0.693  0.226
  0.060  0.021  0.000  0.226  0.693
    occupations:
  0.382  0.000  0.000  0.000  0.000
  0.000  0.360  0.000  0.000  0.012
  0.000  0.000  0.360  0.012  0.000
  0.000  0.000  0.012  0.398  0.000
  0.000  0.012  0.000  0.000  0.398
atom    4   Tr[ns(na)] =   3.79600
    eigenvalues: 
  0.356  0.356  0.382  0.402  0.402
    eigenvectors:
  0.000  0.000  1.000  0.000  0.000
  0.232  0.683  0.000  0.020  0.065
  0.686  0.231  0.000  0.062  0.021
  0.061  0.022  0.000  0.685  0.232
  0.021  0.063  0.000  0.233  0.682
    occupations:
  0.382  0.000  0.000  0.000  0.000
  0.000  0.360  0.000  0.000  0.013
  0.000  0.000  0.360  0.013  0.000
  0.000  0.000  0.013  0.398  0.000
  0.000  0.013  0.000  0.000  0.398
atom    5   Tr[ns(na)] =   5.37635
    eigenvalues: 
  0.824  0.922  0.942
    eigenvectors:
  0.341  0.000  0.659
  0.494  0.250  0.256
  0.164  0.750  0.086
    occupations:
  0.902 -0.048  0.028
 -0.048  0.879  0.025
  0.028  0.025  0.907
atom    6   Tr[ns(na)] =   5.39497
    eigenvalues: 
  0.829  0.925  0.944
    eigenvectors:
  0.341  0.000  0.659
  0.494  0.251  0.255
  0.165  0.749  0.085
    occupations:
  0.905  0.047  0.027
  0.047  0.882 -0.025
  0.027 -0.025  0.910
atom    7   Tr[ns(na)] =   5.39497
    eigenvalues: 
  0.829  0.925  0.944
    eigenvectors:
  0.341  0.000  0.659
  0.000  1.000  0.000
  0.659  0.000  0.341
    occupations:
  0.905  0.000 -0.055
  0.000  0.925  0.000
 -0.055  0.000  0.868
atom    8   Tr[ns(na)] =   5.39493
    eigenvalues: 
  0.829  0.925  0.944
    eigenvectors:
  0.341  0.000  0.659
  0.495  0.250  0.255
  0.164  0.750  0.086
    occupations:
  0.905 -0.047  0.027
 -0.047  0.882  0.024
  0.027  0.024  0.911
atom    9   Tr[ns(na)] =   5.39491
    eigenvalues: 
  0.829  0.925  0.944
    eigenvectors:
  0.341  0.000  0.659
  0.494  0.250  0.256
  0.165  0.750  0.085
    occupations:
  0.905  0.047  0.027
  0.047  0.882 -0.025
  0.027 -0.025  0.910
atom   10   Tr[ns(na)] =   5.39492
    eigenvalues: 
  0.829  0.925  0.944
    eigenvectors:
  0.341  0.000  0.659
  0.000  1.000  0.000
  0.659  0.000  0.341
    occupations:
  0.905  0.000 -0.055
  0.000  0.925  0.000
 -0.055  0.000  0.868
N of occupied +U levels =  56.3208695
 --- exit write_ns ---
 --- in v_hubbard ---
Hubbard energy    0.4087
 -------

     total cpu time spent up to now is       95.6 secs

     total energy              =    -537.94665519 Ry
     Harris-Foulkes estimate   =    -537.95431887 Ry
     estimated scf accuracy    <       0.03818895 Ry

     iteration #  2     ecut=    30.00 Ry     beta=0.20
     Davidson diagonalization with overlap
     ethr =  5.02E-05,  avg # of iterations =  2.0
 --- enter write_ns ---
 LDA+U parameters:
U( 1)     =  4.00000000
alpha( 1) =  0.00000000
U( 2)     =  0.00000000
alpha( 2) =  0.00000000
U( 3)     =  0.00000000
alpha( 3) =  0.10000000
U( 4)     =  0.00000000
alpha( 4) =  0.00000000
atom    1   Tr[ns(na)] =   8.02576
    eigenvalues: 
  0.522  0.523  0.989  0.989  0.992
    eigenvectors:
  0.000  0.000  0.000  0.001  0.999
  0.099  0.556  0.140  0.204  0.000
  0.556  0.099  0.204  0.140  0.000
  0.176  0.169  0.153  0.502  0.000
  0.169  0.176  0.502  0.153  0.000
    occupations:
  0.992  0.000  0.000  0.000  0.000
  0.000  0.683  0.000 -0.081  0.206
  0.000  0.000  0.683  0.206  0.081
  0.000 -0.081  0.206  0.828  0.000
  0.000  0.206  0.081  0.000  0.828
atom    2   Tr[ns(na)] =   8.02994
    eigenvalues: 
  0.521  0.522  0.989  0.990  0.992
    eigenvectors:
  0.000  0.000  0.000  0.001  0.999
  0.238  0.417  0.038  0.306  0.000
  0.417  0.238  0.306  0.038  0.000
  0.319  0.025  0.655  0.001  0.000
  0.025  0.319  0.001  0.654  0.000
    occupations:
  0.992  0.000  0.000  0.000  0.000
  0.000  0.683  0.000  0.081  0.207
  0.000  0.000  0.683  0.207 -0.081
  0.000  0.081  0.207  0.828  0.000
  0.000  0.207 -0.081  0.000  0.829
atom    3   Tr[ns(na)] =   3.79178
    eigenvalues: 
  0.355  0.356  0.381  0.402  0.402
    eigenvectors:
  0.000  0.000  1.000  0.000  0.000
  0.700  0.220  0.000  0.022  0.057
  0.220  0.700  0.000  0.058  0.022
  0.020  0.060  0.000  0.660  0.261
  0.060  0.020  0.000  0.261  0.660
    occupations:
  0.381  0.000  0.000  0.000  0.000
  0.000  0.359  0.000  0.000  0.013
  0.000  0.000  0.359  0.013  0.000
  0.000  0.000  0.013  0.398  0.000
  0.000  0.013  0.000  0.000  0.398
atom    4   Tr[ns(na)] =   3.79186
    eigenvalues: 
  0.355  0.356  0.382  0.402  0.402
    eigenvectors:
  0.000  0.000  1.000  0.000  0.000
  0.250  0.669  0.000  0.020  0.060
  0.670  0.250  0.000  0.059  0.021
  0.057  0.023  0.000  0.677  0.243
  0.022  0.058  0.000  0.244  0.676
    occupations:
  0.382  0.000  0.000  0.000  0.000
  0.000  0.359  0.000  0.000  0.013
  0.000  0.000  0.359  0.013  0.000
  0.000  0.000  0.013  0.398  0.000
  0.000  0.013  0.000  0.000  0.398
atom    5   Tr[ns(na)] =   5.43862
    eigenvalues: 
  0.842  0.930  0.947
    eigenvectors:
  0.337  0.000  0.663
  0.497  0.252  0.252
  0.167  0.748  0.085
    occupations:
  0.912 -0.043  0.025
 -0.043  0.891  0.023
  0.025  0.023  0.917
atom    6   Tr[ns(na)] =   5.44416
    eigenvalues: 
  0.843  0.931  0.948
    eigenvectors:
  0.337  0.000  0.663
  0.498  0.249  0.253
  0.165  0.751  0.084
    occupations:
  0.913  0.043  0.025
  0.043  0.891 -0.023
  0.025 -0.023  0.918
atom    7   Tr[ns(na)] =   5.44416
    eigenvalues: 
  0.843  0.931  0.948
    eigenvectors:
  0.337  0.000  0.663
  0.000  1.000  0.000
  0.663  0.000  0.337
    occupations:
  0.913  0.000 -0.050
  0.000  0.931  0.000
 -0.050  0.000  0.878
atom    8   Tr[ns(na)] =   5.44339
    eigenvalues: 
  0.843  0.931  0.948
    eigenvectors:
  0.336  0.000  0.664
  0.497  0.252  0.252
  0.167  0.748  0.085
    occupations:
  0.912 -0.043  0.025
 -0.043  0.891  0.023
  0.025  0.023  0.918
atom    9   Tr[ns(na)] =   5.44431
    eigenvalues: 
  0.843  0.931  0.948
    eigenvectors:
  0.336  0.000  0.664
  0.499  0.249  0.252
  0.165  0.751  0.084
    occupations:
  0.913  0.043  0.025
  0.043  0.891 -0.023
  0.025 -0.023  0.918
atom   10   Tr[ns(na)] =   5.44430
    eigenvalues: 
  0.843  0.931  0.948
    eigenvectors:
  0.336  0.000  0.664
  0.000  1.000  0.000
  0.664  0.000  0.336
    occupations:
  0.913  0.000 -0.050
  0.000  0.931  0.000
 -0.050  0.000  0.878
N of occupied +U levels =  56.2982918
 --- exit write_ns ---
 --- in v_hubbard ---
Hubbard energy    0.4025
 -------

     total cpu time spent up to now is      121.6 secs

     total energy              =    -537.95374347 Ry
     Harris-Foulkes estimate   =    -537.95373928 Ry
     estimated scf accuracy    <       0.02349822 Ry

     iteration #  3     ecut=    30.00 Ry     beta=0.20
     Davidson diagonalization with overlap
     ethr =  3.09E-05,  avg # of iterations =  1.0
 --- enter write_ns ---
 LDA+U parameters:
U( 1)     =  4.00000000
alpha( 1) =  0.00000000
U( 2)     =  0.00000000
alpha( 2) =  0.00000000
U( 3)     =  0.00000000
alpha( 3) =  0.10000000
U( 4)     =  0.00000000
alpha( 4) =  0.00000000
atom    1   Tr[ns(na)] =   8.06566
    eigenvalues: 
  0.531  0.532  0.989  0.989  0.992
    eigenvectors:
  0.000  0.000  0.000  0.001  0.999
  0.100  0.556  0.147  0.197  0.000
  0.556  0.100  0.198  0.146  0.000
  0.176  0.168  0.143  0.513  0.000
  0.169  0.176  0.513  0.142  0.000
    occupations:
  0.992  0.000  0.000  0.000  0.000
  0.000  0.689  0.000 -0.079  0.202
  0.000  0.000  0.689  0.202  0.080
  0.000 -0.079  0.202  0.832  0.000
  0.000  0.202  0.080  0.000  0.831
atom    2   Tr[ns(na)] =   8.06087
    eigenvalues: 
  0.529  0.530  0.990  0.990  0.992
    eigenvectors:
  0.000  0.000  0.000  0.001  0.999
  0.237  0.418  0.035  0.309  0.000
  0.418  0.237  0.309  0.035  0.000
  0.319  0.025  0.654  0.001  0.000
  0.025  0.319  0.001  0.654  0.001
    occupations:
  0.992  0.000  0.000  0.000  0.000
  0.000  0.688  0.000  0.079  0.204
  0.000  0.000  0.688  0.204 -0.079
  0.000  0.079  0.204  0.831  0.000
  0.000  0.204 -0.079  0.000  0.831
atom    3   Tr[ns(na)] =   3.79208
    eigenvalues: 
  0.356  0.356  0.381  0.402  0.402
    eigenvectors:
  0.000  0.000  1.000  0.000  0.000
  0.700  0.221  0.000  0.019  0.061
  0.221  0.700  0.000  0.061  0.019
  0.020  0.060  0.000  0.696  0.224
  0.060  0.020  0.000  0.224  0.696
    occupations:
  0.381  0.000  0.000  0.000  0.000
  0.000  0.359  0.000  0.000  0.012
  0.000  0.000  0.359  0.012  0.000
  0.000  0.000  0.012  0.398  0.000
  0.000  0.012  0.000  0.000  0.398
atom    4   Tr[ns(na)] =   3.79210
    eigenvalues: 
  0.356  0.356  0.381  0.402  0.402
    eigenvectors:
  0.000  0.000  1.000  0.000  0.000
  0.264  0.655  0.000  0.019  0.061
  0.656  0.264  0.000  0.060  0.019
  0.056  0.024  0.000  0.694  0.226
  0.023  0.057  0.000  0.227  0.693
    occupations:
  0.381  0.000  0.000  0.000  0.000
  0.000  0.359  0.000  0.000  0.012
  0.000  0.000  0.359  0.012  0.000
  0.000  0.000  0.012  0.398  0.000
  0.000  0.012  0.000  0.000  0.398
atom    5   Tr[ns(na)] =   5.42706
    eigenvalues: 
  0.838  0.929  0.947
    eigenvectors:
  0.338  0.000  0.662
  0.497  0.251  0.253
  0.166  0.749  0.085
    occupations:
  0.910 -0.045  0.026
 -0.045  0.888  0.024
  0.026  0.024  0.915
atom    6   Tr[ns(na)] =   5.43318
    eigenvalues: 
  0.840  0.930  0.947
    eigenvectors:
  0.338  0.000  0.662
  0.497  0.250  0.253
  0.166  0.750  0.084
    occupations:
  0.911  0.044  0.025
  0.044  0.889 -0.023
  0.025 -0.023  0.916
atom    7   Tr[ns(na)] =   5.43318
    eigenvalues: 
  0.840  0.930  0.947
    eigenvectors:
  0.338  0.000  0.662
  0.000  1.000  0.000
  0.662  0.000  0.338
    occupations:
  0.911  0.000 -0.051
  0.000  0.930  0.000
 -0.051  0.000  0.876
atom    8   Tr[ns(na)] =   5.43252
    eigenvalues: 
  0.839  0.930  0.947
    eigenvectors:
  0.337  0.000  0.663
  0.497  0.251  0.253
  0.166  0.749  0.085
    occupations:
  0.911 -0.044  0.025
 -0.044  0.889  0.023
  0.025  0.023  0.916
atom    9   Tr[ns(na)] =   5.43327
    eigenvalues: 
  0.840  0.930  0.947
    eigenvectors:
  0.337  0.000  0.663
  0.497  0.250  0.253
  0.165  0.750  0.084
    occupations:
  0.911  0.044  0.025
  0.044  0.889 -0.023
  0.025 -0.023  0.916
atom   10   Tr[ns(na)] =   5.43327
    eigenvalues: 
  0.840  0.930  0.947
    eigenvectors:
  0.337  0.000  0.663
  0.000  1.000  0.000
  0.663  0.000  0.337
    occupations:
  0.911  0.000 -0.051
  0.000  0.930  0.000
 -0.051  0.000  0.876
N of occupied +U levels =  56.3031696
 --- exit write_ns ---
 --- in v_hubbard ---
Hubbard energy    0.3494
 -------

     total cpu time spent up to now is      145.3 secs

     total energy              =    -537.95763086 Ry
     Harris-Foulkes estimate   =    -537.95422716 Ry
     estimated scf accuracy    <       0.01130366 Ry

     iteration #  4     ecut=    30.00 Ry     beta=0.20
     Davidson diagonalization with overlap
     ethr =  1.49E-05,  avg # of iterations =  1.2
 --- enter write_ns ---
 LDA+U parameters:
U( 1)     =  4.00000000
alpha( 1) =  0.00000000
U( 2)     =  0.00000000
alpha( 2) =  0.00000000
U( 3)     =  0.00000000
alpha( 3) =  0.10000000
U( 4)     =  0.00000000
alpha( 4) =  0.00000000
atom    1   Tr[ns(na)] =   8.05338
    eigenvalues: 
  0.525  0.526  0.991  0.991  0.994
    eigenvectors:
  0.000  0.000  0.000  0.001  0.999
  0.101  0.558  0.147  0.194  0.000
  0.558  0.101  0.194  0.147  0.000
  0.174  0.168  0.140  0.519  0.000
  0.168  0.174  0.519  0.139  0.000
    occupations:
  0.994  0.000  0.000  0.000  0.000
  0.000  0.685  0.000 -0.081  0.205
  0.000  0.000  0.684  0.205  0.081
  0.000 -0.081  0.205  0.832  0.000
  0.000  0.205  0.081  0.000  0.832
atom    2   Tr[ns(na)] =   8.08558
    eigenvalues: 
  0.531  0.532  0.993  0.993  0.995
    eigenvectors:
  0.000  0.000  0.000  0.001  0.999
  0.239  0.420  0.032  0.309  0.000
  0.420  0.238  0.309  0.032  0.000
  0.317  0.024  0.656  0.003  0.000
  0.024  0.317  0.003  0.655  0.001
    occupations:
  0.995  0.000  0.000  0.000  0.000
  0.000  0.689  0.000  0.081  0.203
  0.000  0.000  0.689  0.204 -0.080
  0.000  0.081  0.204  0.835  0.000
  0.000  0.203 -0.080  0.000  0.835
atom    3   Tr[ns(na)] =   3.79741
    eigenvalues: 
  0.356  0.357  0.382  0.402  0.402
    eigenvectors:
  0.000  0.000  1.000  0.000  0.000
  0.694  0.229  0.000  0.014  0.064
  0.229  0.694  0.000  0.064  0.013
  0.020  0.058  0.000  0.757  0.166
  0.058  0.020  0.000  0.166  0.757
    occupations:
  0.382  0.000  0.000  0.000  0.000
  0.000  0.360  0.000  0.000  0.012
  0.000  0.000  0.360  0.012  0.000
  0.000  0.000  0.012  0.398  0.000
  0.000  0.012  0.000  0.000  0.398
atom    4   Tr[ns(na)] =   3.79741
    eigenvalues: 
  0.357  0.357  0.382  0.402  0.402
    eigenvectors:
  0.000  0.000  1.000  0.000  0.000
  0.247  0.674  0.000  0.017  0.062
  0.675  0.247  0.000  0.061  0.017
  0.056  0.022  0.000  0.716  0.206
  0.021  0.057  0.000  0.207  0.715
    occupations:
  0.382  0.000  0.000  0.000  0.000
  0.000  0.360  0.000  0.000  0.012
  0.000  0.000  0.360  0.012  0.000
  0.000  0.000  0.012  0.398  0.000
  0.000  0.012  0.000  0.000  0.398
atom    5   Tr[ns(na)] =   5.42132
    eigenvalues: 
  0.836  0.928  0.946
    eigenvectors:
  0.338  0.000  0.662
  0.492  0.256  0.252
  0.170  0.744  0.086
    occupations:
  0.909 -0.045  0.026
 -0.045  0.887  0.024
  0.026  0.024  0.914
atom    6   Tr[ns(na)] =   5.42823
    eigenvalues: 
  0.838  0.929  0.947
    eigenvectors:
  0.338  0.000  0.662
  0.501  0.245  0.254
  0.162  0.755  0.084
    occupations:
  0.910  0.045  0.025
  0.045  0.888 -0.023
  0.025 -0.023  0.916
atom    7   Tr[ns(na)] =   5.42824
    eigenvalues: 
  0.838  0.929  0.947
    eigenvectors:
  0.337  0.000  0.663
  0.000  1.000  0.000
  0.662  0.000  0.337
    occupations:
  0.910  0.000 -0.051
  0.000  0.929  0.000
 -0.051  0.000  0.875
atom    8   Tr[ns(na)] =   5.42838
    eigenvalues: 
  0.838  0.929  0.947
    eigenvectors:
  0.337  0.000  0.663
  0.493  0.255  0.252
  0.170  0.745  0.086
    occupations:
  0.910 -0.044  0.026
 -0.044  0.889  0.024
  0.026  0.024  0.915
atom    9   Tr[ns(na)] =   5.42812
    eigenvalues: 
  0.838  0.929  0.947
    eigenvectors:
  0.337  0.000  0.663
  0.501  0.245  0.254
  0.161  0.755  0.084
    occupations:
  0.910  0.045  0.025
  0.045  0.888 -0.023
  0.025 -0.023  0.916
atom   10   Tr[ns(na)] =   5.42811
    eigenvalues: 
  0.838  0.929  0.947
    eigenvectors:
  0.337  0.000  0.663
  0.000  1.000  0.000
  0.663  0.000  0.337
    occupations:
  0.910  0.000 -0.051
  0.000  0.929  0.000
 -0.051  0.000  0.875
N of occupied +U levels =  56.2961831
 --- exit write_ns ---
 --- in v_hubbard ---
Hubbard energy    0.3446
 -------

     total cpu time spent up to now is      167.6 secs

     total energy              =    -537.95835926 Ry
     Harris-Foulkes estimate   =    -537.95841615 Ry
     estimated scf accuracy    <       0.00127942 Ry

     iteration #  5     ecut=    30.00 Ry     beta=0.20
     Davidson diagonalization with overlap
     ethr =  1.68E-06,  avg # of iterations =  2.0
 --- enter write_ns ---
 LDA+U parameters:
U( 1)     =  4.00000000
alpha( 1) =  0.00000000
U( 2)     =  0.00000000
alpha( 2) =  0.00000000
U( 3)     =  0.00000000
alpha( 3) =  0.10000000
U( 4)     =  0.00000000
alpha( 4) =  0.00000000
atom    1   Tr[ns(na)] =   8.06433
    eigenvalues: 
  0.526  0.527  0.992  0.992  0.995
    eigenvectors:
  0.000  0.000  0.000  0.001  0.999
  0.100  0.559  0.151  0.190  0.000
  0.559  0.100  0.191  0.150  0.000
  0.173  0.168  0.133  0.526  0.000
  0.168  0.173  0.526  0.133  0.000
    occupations:
  0.995  0.000  0.000  0.000  0.000
  0.000  0.686  0.000 -0.081  0.205
  0.000  0.000  0.685  0.205  0.082
  0.000 -0.081  0.205  0.833  0.000
  0.000  0.205  0.082  0.000  0.833
atom    2   Tr[ns(na)] =   8.05893
    eigenvalues: 
  0.524  0.525  0.992  0.992  0.995
    eigenvectors:
  0.000  0.000  0.000  0.001  0.999
  0.238  0.421  0.032  0.309  0.000
  0.420  0.238  0.310  0.032  0.000
  0.317  0.024  0.656  0.003  0.000
  0.024  0.317  0.003  0.655  0.001
    occupations:
  0.995  0.000  0.000  0.000  0.000
  0.000  0.684  0.000  0.081  0.206
  0.000  0.000  0.684  0.206 -0.081
  0.000  0.081  0.206  0.833  0.000
  0.000  0.206 -0.081  0.000  0.833
atom    3   Tr[ns(na)] =   3.79783
    eigenvalues: 
  0.356  0.357  0.382  0.402  0.402
    eigenvectors:
  0.000  0.000  1.000  0.000  0.000
  0.692  0.231  0.000  0.016  0.061
  0.231  0.692  0.000  0.061  0.016
  0.020  0.058  0.000  0.720  0.202
  0.058  0.020  0.000  0.202  0.721
    occupations:
  0.382  0.000  0.000  0.000  0.000
  0.000  0.360  0.000  0.000  0.012
  0.000  0.000  0.360  0.012  0.000
  0.000  0.000  0.012  0.399  0.000
  0.000  0.012  0.000  0.000  0.399
atom    4   Tr[ns(na)] =   3.79780
    eigenvalues: 
  0.357  0.357  0.382  0.402  0.402
    eigenvectors:
  0.000  0.000  1.000  0.000  0.000
  0.239  0.682  0.000  0.018  0.060
  0.683  0.239  0.000  0.059  0.019
  0.057  0.021  0.000  0.696  0.225
  0.021  0.058  0.000  0.226  0.695
    occupations:
  0.382  0.000  0.000  0.000  0.000
  0.000  0.360  0.000  0.000  0.012
  0.000  0.000  0.360  0.012  0.000
  0.000  0.000  0.012  0.398  0.000
  0.000  0.012  0.000  0.000  0.398
atom    5   Tr[ns(na)] =   5.42366
    eigenvalues: 
  0.837  0.929  0.946
    eigenvectors:
  0.337  0.000  0.663
  0.497  0.251  0.252
  0.166  0.749  0.085
    occupations:
  0.909 -0.045  0.026
 -0.045  0.887  0.024
  0.026  0.024  0.915
atom    6   Tr[ns(na)] =   5.43027
    eigenvalues: 
  0.839  0.930  0.947
    eigenvectors:
  0.337  0.000  0.663
  0.497  0.250  0.253
  0.166  0.750  0.084
    occupations:
  0.910  0.044  0.026
  0.044  0.889 -0.024
  0.026 -0.024  0.916
atom    7   Tr[ns(na)] =   5.43028
    eigenvalues: 
  0.839  0.930  0.947
    eigenvectors:
  0.337  0.000  0.663
  0.000  1.000  0.000
  0.663  0.000  0.337
    occupations:
  0.910  0.000 -0.051
  0.000  0.930  0.000
 -0.051  0.000  0.875
atom    8   Tr[ns(na)] =   5.43020
    eigenvalues: 
  0.839  0.930  0.947
    eigenvectors:
  0.337  0.000  0.663
  0.497  0.251  0.252
  0.166  0.749  0.085
    occupations:
  0.910 -0.044  0.026
 -0.044  0.889  0.024
  0.026  0.024  0.916
atom    9   Tr[ns(na)] =   5.43022
    eigenvalues: 
  0.839  0.930  0.947
    eigenvectors:
  0.337  0.000  0.663
  0.498  0.250  0.253
  0.165  0.750  0.084
    occupations:
  0.910  0.044  0.026
  0.044  0.889 -0.024
  0.026 -0.024  0.916
atom   10   Tr[ns(na)] =   5.43022
    eigenvalues: 
  0.839  0.930  0.947
    eigenvectors:
  0.337  0.000  0.663
  0.000  1.000  0.000
  0.663  0.000  0.337
    occupations:
  0.910  0.000 -0.051
  0.000  0.930  0.000
 -0.051  0.000  0.875
N of occupied +U levels =  56.2937356
 --- exit write_ns ---
 --- in v_hubbard ---
Hubbard energy    0.3437
 -------

     total cpu time spent up to now is      191.3 secs

     total energy              =    -537.95855226 Ry
     Harris-Foulkes estimate   =    -537.95848695 Ry
     estimated scf accuracy    <       0.00021031 Ry

     iteration #  6     ecut=    30.00 Ry     beta=0.20
     Davidson diagonalization with overlap
     ethr =  2.77E-07,  avg # of iterations =  1.6
 --- enter write_ns ---
 LDA+U parameters:
U( 1)     =  4.00000000
alpha( 1) =  0.00000000
U( 2)     =  0.00000000
alpha( 2) =  0.00000000
U( 3)     =  0.00000000
alpha( 3) =  0.10000000
U( 4)     =  0.00000000
alpha( 4) =  0.00000000
atom    1   Tr[ns(na)] =   8.05418
    eigenvalues: 
  0.524  0.525  0.992  0.992  0.995
    eigenvectors:
  0.000  0.000  0.000  0.001  0.999
  0.100  0.559  0.150  0.191  0.000
  0.559  0.100  0.191  0.150  0.000
  0.173  0.168  0.133  0.525  0.000
  0.169  0.173  0.525  0.133  0.000
    occupations:
  0.995  0.000  0.000  0.000  0.000
  0.000  0.684  0.000 -0.082  0.206
  0.000  0.000  0.684  0.206  0.082
  0.000 -0.082  0.206  0.832  0.000
  0.000  0.206  0.082  0.000  0.832
atom    2   Tr[ns(na)] =   8.05233
    eigenvalues: 
  0.522  0.524  0.992  0.993  0.995
    eigenvectors:
  0.000  0.000  0.000  0.001  0.999
  0.239  0.420  0.033  0.308  0.000
  0.420  0.239  0.309  0.033  0.000
  0.317  0.024  0.656  0.003  0.000
  0.024  0.317  0.003  0.656  0.001
    occupations:
  0.995  0.000  0.000  0.000  0.000
  0.000  0.683  0.000  0.082  0.207
  0.000  0.000  0.683  0.207 -0.082
  0.000  0.082  0.207  0.832  0.000
  0.000  0.207 -0.082  0.000  0.832
atom    3   Tr[ns(na)] =   3.79679
    eigenvalues: 
  0.356  0.356  0.382  0.402  0.402
    eigenvectors:
  0.000  0.000  1.000  0.000  0.000
  0.690  0.232  0.000  0.020  0.058
  0.232  0.690  0.000  0.058  0.020
  0.020  0.058  0.000  0.680  0.242
  0.058  0.020  0.000  0.242  0.680
    occupations:
  0.382  0.000  0.000  0.000  0.000
  0.000  0.360  0.000  0.000  0.012
  0.000  0.000  0.360  0.012  0.000
  0.000  0.000  0.012  0.398  0.000
  0.000  0.012  0.000  0.000  0.398
atom    4   Tr[ns(na)] =   3.79677
    eigenvalues: 
  0.356  0.356  0.382  0.402  0.402
    eigenvectors:
  0.000  0.000  1.000  0.000  0.000
  0.228  0.693  0.000  0.019  0.060
  0.694  0.228  0.000  0.059  0.020
  0.058  0.020  0.000  0.687  0.235
  0.020  0.059  0.000  0.235  0.686
    occupations:
  0.382  0.000  0.000  0.000  0.000
  0.000  0.360  0.000  0.000  0.012
  0.000  0.000  0.360  0.012  0.000
  0.000  0.000  0.012  0.398  0.000
  0.000  0.012  0.000  0.000  0.398
atom    5   Tr[ns(na)] =   5.42675
    eigenvalues: 
  0.838  0.929  0.947
    eigenvectors:
  0.337  0.000  0.663
  0.497  0.251  0.252
  0.166  0.749  0.085
    occupations:
  0.910 -0.045  0.026
 -0.045  0.888  0.024
  0.026  0.024  0.915
atom    6   Tr[ns(na)] =   5.43298
    eigenvalues: 
  0.839  0.930  0.947
    eigenvectors:
  0.337  0.000  0.663
  0.497  0.250  0.253
  0.165  0.750  0.084
    occupations:
  0.911  0.044  0.025
  0.044  0.889 -0.023
  0.025 -0.023  0.916
atom    7   Tr[ns(na)] =   5.43298
    eigenvalues: 
  0.839  0.930  0.947
    eigenvectors:
  0.337  0.000  0.663
  0.000  1.000  0.000
  0.663  0.000  0.337
    occupations:
  0.911  0.000 -0.051
  0.000  0.930  0.000
 -0.051  0.000  0.876
atom    8   Tr[ns(na)] =   5.43259
    eigenvalues: 
  0.839  0.930  0.947
    eigenvectors:
  0.337  0.000  0.663
  0.497  0.251  0.252
  0.166  0.749  0.085
    occupations:
  0.911 -0.044  0.025
 -0.044  0.889  0.024
  0.025  0.024  0.916
atom    9   Tr[ns(na)] =   5.43302
    eigenvalues: 
  0.839  0.930  0.947
    eigenvectors:
  0.337  0.000  0.663
  0.498  0.249  0.253
  0.165  0.751  0.084
    occupations:
  0.911  0.044  0.025
  0.044  0.889 -0.023
  0.025 -0.023  0.916
atom   10   Tr[ns(na)] =   5.43302
    eigenvalues: 
  0.839  0.930  0.947
    eigenvectors:
  0.337  0.000  0.663
  0.000  1.000  0.000
  0.663  0.000  0.337
    occupations:
  0.911  0.000 -0.051
  0.000  0.930  0.000
 -0.051  0.000  0.876
N of occupied +U levels =  56.2914262
 --- exit write_ns ---
 --- in v_hubbard ---
Hubbard energy    0.3443
 -------

     total cpu time spent up to now is      215.0 secs

     total energy              =    -537.95863307 Ry
     Harris-Foulkes estimate   =    -537.95857449 Ry
     estimated scf accuracy    <       0.00005566 Ry

     iteration #  7     ecut=    30.00 Ry     beta=0.20
     Davidson diagonalization with overlap
     ethr =  7.32E-08,  avg # of iterations =  2.0
 --- enter write_ns ---
 LDA+U parameters:
U( 1)     =  4.00000000
alpha( 1) =  0.00000000
U( 2)     =  0.00000000
alpha( 2) =  0.00000000
U( 3)     =  0.00000000
alpha( 3) =  0.10000000
U( 4)     =  0.00000000
alpha( 4) =  0.00000000
atom    1   Tr[ns(na)] =   8.05321
    eigenvalues: 
  0.523  0.524  0.992  0.992  0.995
    eigenvectors:
  0.000  0.000  0.000  0.001  0.999
  0.099  0.559  0.148  0.194  0.000
  0.559  0.099  0.194  0.148  0.000
  0.173  0.168  0.137  0.521  0.000
  0.168  0.174  0.521  0.136  0.000
    occupations:
  0.995  0.000  0.000  0.000  0.000
  0.000  0.684  0.000 -0.082  0.206
  0.000  0.000  0.684  0.206  0.082
  0.000 -0.082  0.206  0.832  0.000
  0.000  0.206  0.082  0.000  0.832
atom    2   Tr[ns(na)] =   8.05038
    eigenvalues: 
  0.522  0.523  0.992  0.993  0.995
    eigenvectors:
  0.000  0.000  0.000  0.001  0.999
  0.240  0.419  0.035  0.306  0.000
  0.418  0.240  0.307  0.035  0.000
  0.317  0.025  0.656  0.002  0.000
  0.024  0.317  0.002  0.656  0.001
    occupations:
  0.995  0.000  0.000  0.000  0.000
  0.000  0.683  0.000  0.082  0.207
  0.000  0.000  0.683  0.208 -0.082
  0.000  0.082  0.208  0.832  0.000
  0.000  0.207 -0.082  0.000  0.832
atom    3   Tr[ns(na)] =   3.79348
    eigenvalues: 
  0.356  0.356  0.381  0.402  0.402
    eigenvectors:
  0.000  0.000  1.000  0.000  0.000
  0.690  0.231  0.000  0.016  0.063
  0.231  0.690  0.000  0.063  0.016
  0.020  0.058  0.000  0.728  0.193
  0.058  0.020  0.000  0.193  0.728
    occupations:
  0.381  0.000  0.000  0.000  0.000
  0.000  0.360  0.000  0.000  0.012
  0.000  0.000  0.360  0.012  0.000
  0.000  0.000  0.012  0.398  0.000
  0.000  0.012  0.000  0.000  0.398
atom    4   Tr[ns(na)] =   3.79345
    eigenvalues: 
  0.356  0.356  0.381  0.402  0.402
    eigenvectors:
  0.000  0.000  1.000  0.000  0.000
  0.245  0.676  0.000  0.019  0.060
  0.677  0.244  0.000  0.060  0.019
  0.057  0.022  0.000  0.690  0.231
  0.022  0.058  0.000  0.231  0.689
    occupations:
  0.381  0.000  0.000  0.000  0.000
  0.000  0.360  0.000  0.000  0.012
  0.000  0.000  0.360  0.012  0.000
  0.000  0.000  0.012  0.398  0.000
  0.000  0.012  0.000  0.000  0.398
atom    5   Tr[ns(na)] =   5.42781
    eigenvalues: 
  0.838  0.929  0.947
    eigenvectors:
  0.338  0.000  0.662
  0.496  0.251  0.253
  0.166  0.749  0.085
    occupations:
  0.910 -0.045  0.026
 -0.045  0.888  0.024
  0.026  0.024  0.916
atom    6   Tr[ns(na)] =   5.43415
    eigenvalues: 
  0.840  0.930  0.947
    eigenvectors:
  0.338  0.000  0.662
  0.497  0.250  0.253
  0.165  0.750  0.084
    occupations:
  0.911  0.044  0.025
  0.044  0.889 -0.023
  0.025 -0.023  0.917
atom    7   Tr[ns(na)] =   5.43415
    eigenvalues: 
  0.840  0.930  0.947
    eigenvectors:
  0.337  0.000  0.663
  0.000  1.000  0.000
  0.663  0.000  0.337
    occupations:
  0.911  0.000 -0.051
  0.000  0.930  0.000
 -0.051  0.000  0.876
atom    8   Tr[ns(na)] =   5.43353
    eigenvalues: 
  0.840  0.930  0.947
    eigenvectors:
  0.337  0.000  0.663
  0.497  0.251  0.252
  0.166  0.749  0.085
    occupations:
  0.911 -0.044  0.025
 -0.044  0.889  0.023
  0.025  0.023  0.916
atom    9   Tr[ns(na)] =   5.43422
    eigenvalues: 
  0.840  0.930  0.947
    eigenvectors:
  0.337  0.000  0.663
  0.498  0.249  0.253
  0.165  0.751  0.084
    occupations:
  0.911  0.044  0.025
  0.044  0.889 -0.023
  0.025 -0.023  0.917
atom   10   Tr[ns(na)] =   5.43423
    eigenvalues: 
  0.840  0.930  0.947
    eigenvectors:
  0.337  0.000  0.663
  0.000  1.000  0.000
  0.663  0.000  0.337
    occupations:
  0.911  0.000 -0.051
  0.000  0.930  0.000
 -0.051  0.000  0.876
N of occupied +U levels =  56.2886127
 --- exit write_ns ---
 --- in v_hubbard ---
Hubbard energy    0.3445
 -------

     total cpu time spent up to now is      242.2 secs

     total energy              =    -537.95870002 Ry
     Harris-Foulkes estimate   =    -537.95864288 Ry
     estimated scf accuracy    <       0.00001663 Ry

     iteration #  8     ecut=    30.00 Ry     beta=0.20
     Davidson diagonalization with overlap
     ethr =  2.19E-08,  avg # of iterations =  1.5
 --- enter write_ns ---
 LDA+U parameters:
U( 1)     =  4.00000000
alpha( 1) =  0.00000000
U( 2)     =  0.00000000
alpha( 2) =  0.00000000
U( 3)     =  0.00000000
alpha( 3) =  0.10000000
U( 4)     =  0.00000000
alpha( 4) =  0.00000000
atom    1   Tr[ns(na)] =   8.05402
    eigenvalues: 
  0.524  0.525  0.992  0.992  0.995
    eigenvectors:
  0.000  0.000  0.000  0.001  0.999
  0.099  0.559  0.148  0.194  0.000
  0.559  0.099  0.194  0.147  0.000
  0.173  0.168  0.137  0.521  0.000
  0.169  0.173  0.521  0.137  0.000
    occupations:
  0.995  0.000  0.000  0.000  0.000
  0.000  0.684  0.000 -0.082  0.206
  0.000  0.000  0.684  0.206  0.082
  0.000 -0.082  0.206  0.832  0.000
  0.000  0.206  0.082  0.000  0.832
atom    2   Tr[ns(na)] =   8.05154
    eigenvalues: 
  0.522  0.523  0.992  0.993  0.995
    eigenvectors:
  0.000  0.000  0.000  0.001  0.999
  0.240  0.418  0.035  0.306  0.000
  0.418  0.240  0.306  0.035  0.000
  0.317  0.025  0.657  0.002  0.000
  0.024  0.317  0.002  0.656  0.001
    occupations:
  0.995  0.000  0.000  0.000  0.000
  0.000  0.683  0.000  0.082  0.207
  0.000  0.000  0.683  0.207 -0.082
  0.000  0.082  0.207  0.832  0.000
  0.000  0.207 -0.082  0.000  0.832
atom    3   Tr[ns(na)] =   3.79457
    eigenvalues: 
  0.356  0.356  0.381  0.402  0.402
    eigenvectors:
  0.000  0.000  1.000  0.000  0.000
  0.691  0.231  0.000  0.016  0.063
  0.231  0.691  0.000  0.062  0.016
  0.020  0.058  0.000  0.728  0.194
  0.058  0.020  0.000  0.194  0.728
    occupations:
  0.381  0.000  0.000  0.000  0.000
  0.000  0.360  0.000  0.000  0.012
  0.000  0.000  0.360  0.012  0.000
  0.000  0.000  0.012  0.398  0.000
  0.000  0.012  0.000  0.000  0.398
atom    4   Tr[ns(na)] =   3.79454
    eigenvalues: 
  0.356  0.356  0.381  0.402  0.402
    eigenvectors:
  0.000  0.000  1.000  0.000  0.000
  0.250  0.670  0.000  0.019  0.060
  0.671  0.250  0.000  0.059  0.020
  0.057  0.022  0.000  0.688  0.233
  0.022  0.057  0.000  0.233  0.688
    occupations:
  0.381  0.000  0.000  0.000  0.000
  0.000  0.360  0.000  0.000  0.012
  0.000  0.000  0.360  0.012  0.000
  0.000  0.000  0.012  0.398  0.000
  0.000  0.012  0.000  0.000  0.398
atom    5   Tr[ns(na)] =   5.42732
    eigenvalues: 
  0.838  0.929  0.947
    eigenvectors:
  0.338  0.000  0.662
  0.496  0.251  0.253
  0.166  0.749  0.085
    occupations:
  0.910 -0.045  0.026
 -0.045  0.888  0.024
  0.026  0.024  0.915
atom    6   Tr[ns(na)] =   5.43357
    eigenvalues: 
  0.839  0.930  0.947
    eigenvectors:
  0.337  0.000  0.663
  0.497  0.250  0.253
  0.165  0.750  0.084
    occupations:
  0.911  0.044  0.025
  0.044  0.889 -0.023
  0.025 -0.023  0.917
atom    7   Tr[ns(na)] =   5.43357
    eigenvalues: 
  0.839  0.930  0.947
    eigenvectors:
  0.337  0.000  0.663
  0.000  1.000  0.000
  0.663  0.000  0.337
    occupations:
  0.911  0.000 -0.051
  0.000  0.930  0.000
 -0.051  0.000  0.876
atom    8   Tr[ns(na)] =   5.43311
    eigenvalues: 
  0.839  0.930  0.947
    eigenvectors:
  0.337  0.000  0.663
  0.497  0.251  0.252
  0.166  0.749  0.085
    occupations:
  0.911 -0.044  0.026
 -0.044  0.889  0.023
  0.026  0.023  0.916
atom    9   Tr[ns(na)] =   5.43362
    eigenvalues: 
  0.840  0.930  0.947
    eigenvectors:
  0.337  0.000  0.663
  0.498  0.249  0.253
  0.165  0.751  0.084
    occupations:
  0.911  0.044  0.025
  0.044  0.889 -0.023
  0.025 -0.023  0.917
atom   10   Tr[ns(na)] =   5.43362
    eigenvalues: 
  0.840  0.930  0.947
    eigenvectors:
  0.337  0.000  0.663
  0.000  1.000  0.000
  0.663  0.000  0.337
    occupations:
  0.911  0.000 -0.051
  0.000  0.930  0.000
 -0.051  0.000  0.876
N of occupied +U levels =  56.2894767
 --- exit write_ns ---
 --- in v_hubbard ---
Hubbard energy    0.3449
 -------

     total cpu time spent up to now is      265.0 secs

     total energy              =    -537.95873714 Ry
     Harris-Foulkes estimate   =    -537.95870130 Ry
     estimated scf accuracy    <       0.00000406 Ry

     iteration #  9     ecut=    30.00 Ry     beta=0.20
     Davidson diagonalization with overlap
     ethr =  5.34E-09,  avg # of iterations =  2.0
 --- enter write_ns ---
 LDA+U parameters:
U( 1)     =  4.00000000
alpha( 1) =  0.00000000
U( 2)     =  0.00000000
alpha( 2) =  0.00000000
U( 3)     =  0.00000000
alpha( 3) =  0.10000000
U( 4)     =  0.00000000
alpha( 4) =  0.00000000
atom    1   Tr[ns(na)] =   8.05433
    eigenvalues: 
  0.524  0.525  0.992  0.992  0.995
    eigenvectors:
  0.000  0.000  0.000  0.001  0.999
  0.099  0.559  0.147  0.195  0.000
  0.559  0.099  0.195  0.147  0.000
  0.173  0.168  0.138  0.520  0.000
  0.169  0.173  0.520  0.138  0.000
    occupations:
  0.995  0.000  0.000  0.000  0.000
  0.000  0.684  0.000 -0.082  0.206
  0.000  0.000  0.684  0.206  0.083
  0.000 -0.082  0.206  0.832  0.000
  0.000  0.206  0.083  0.000  0.832
atom    2   Tr[ns(na)] =   8.05175
    eigenvalues: 
  0.522  0.523  0.993  0.993  0.995
    eigenvectors:
  0.000  0.000  0.000  0.001  0.999
  0.240  0.418  0.036  0.306  0.000
  0.418  0.240  0.306  0.036  0.000
  0.317  0.025  0.657  0.002  0.000
  0.024  0.317  0.001  0.656  0.000
    occupations:
  0.995  0.000  0.000  0.000  0.000
  0.000  0.683  0.000  0.082  0.207
  0.000  0.000  0.683  0.207 -0.082
  0.000  0.082  0.207  0.832  0.000
  0.000  0.207 -0.082  0.000  0.832
atom    3   Tr[ns(na)] =   3.79525
    eigenvalues: 
  0.356  0.356  0.381  0.402  0.402
    eigenvectors:
  0.000  0.000  1.000  0.000  0.000
  0.691  0.230  0.000  0.014  0.064
  0.230  0.691  0.000  0.064  0.014
  0.020  0.058  0.000  0.747  0.175
  0.058  0.020  0.000  0.175  0.747
    occupations:
  0.381  0.000  0.000  0.000  0.000
  0.000  0.360  0.000  0.000  0.012
  0.000  0.000  0.360  0.012  0.000
  0.000  0.000  0.012  0.398  0.000
  0.000  0.012  0.000  0.000  0.398
atom    4   Tr[ns(na)] =   3.79522
    eigenvalues: 
  0.356  0.356  0.382  0.402  0.402
    eigenvectors:
  0.000  0.000  1.000  0.000  0.000
  0.258  0.662  0.000  0.019  0.060
  0.663  0.258  0.000  0.059  0.019
  0.056  0.023  0.000  0.689  0.232
  0.023  0.057  0.000  0.232  0.688
    occupations:
  0.382  0.000  0.000  0.000  0.000
  0.000  0.360  0.000  0.000  0.012
  0.000  0.000  0.360  0.012  0.000
  0.000  0.000  0.012  0.398  0.000
  0.000  0.012  0.000  0.000  0.398
atom    5   Tr[ns(na)] =   5.42702
    eigenvalues: 
  0.838  0.929  0.947
    eigenvectors:
  0.338  0.000  0.662
  0.496  0.251  0.253
  0.166  0.749  0.085
    occupations:
  0.910 -0.045  0.026
 -0.045  0.888  0.024
  0.026  0.024  0.915
atom    6   Tr[ns(na)] =   5.43331
    eigenvalues: 
  0.839  0.930  0.947
    eigenvectors:
  0.338  0.000  0.662
  0.497  0.250  0.253
  0.165  0.750  0.084
    occupations:
  0.911  0.044  0.025
  0.044  0.889 -0.023
  0.025 -0.023  0.916
atom    7   Tr[ns(na)] =   5.43331
    eigenvalues: 
  0.839  0.930  0.947
    eigenvectors:
  0.338  0.000  0.662
  0.000  1.000  0.000
  0.662  0.000  0.338
    occupations:
  0.911  0.000 -0.051
  0.000  0.930  0.000
 -0.051  0.000  0.876
atom    8   Tr[ns(na)] =   5.43289
    eigenvalues: 
  0.839  0.930  0.947
    eigenvectors:
  0.337  0.000  0.663
  0.497  0.251  0.252
  0.166  0.749  0.085
    occupations:
  0.911 -0.044  0.026
 -0.044  0.889  0.023
  0.026  0.023  0.916
atom    9   Tr[ns(na)] =   5.43335
    eigenvalues: 
  0.839  0.930  0.947
    eigenvectors:
  0.337  0.000  0.663
  0.498  0.249  0.253
  0.165  0.751  0.084
    occupations:
  0.911  0.044  0.025
  0.044  0.889 -0.023
  0.025 -0.023  0.916
atom   10   Tr[ns(na)] =   5.43335
    eigenvalues: 
  0.839  0.930  0.947
    eigenvectors:
  0.337  0.000  0.663
  0.000  1.000  0.000
  0.663  0.000  0.337
    occupations:
  0.911  0.000 -0.051
  0.000  0.930  0.000
 -0.051  0.000  0.876
N of occupied +U levels =  56.2897780
 --- exit write_ns ---
 --- in v_hubbard ---
Hubbard energy    0.3450
 -------

     total cpu time spent up to now is      291.0 secs

     total energy              =    -537.95876226 Ry
     Harris-Foulkes estimate   =    -537.95873766 Ry
     estimated scf accuracy    <       0.00000076 Ry

     iteration # 10     ecut=    30.00 Ry     beta=0.20
     Davidson diagonalization with overlap
     ethr =  9.97E-10,  avg # of iterations =  2.0
 --- enter write_ns ---
 LDA+U parameters:
U( 1)     =  4.00000000
alpha( 1) =  0.00000000
U( 2)     =  0.00000000
alpha( 2) =  0.00000000
U( 3)     =  0.00000000
alpha( 3) =  0.10000000
U( 4)     =  0.00000000
alpha( 4) =  0.00000000
atom    1   Tr[ns(na)] =   8.05464
    eigenvalues: 
  0.524  0.525  0.992  0.992  0.995
    eigenvectors:
  0.000  0.000  0.000  0.001  0.999
  0.099  0.559  0.147  0.195  0.000
  0.559  0.099  0.195  0.147  0.000
  0.173  0.168  0.138  0.520  0.000
  0.169  0.173  0.520  0.137  0.000
    occupations:
  0.995  0.000  0.000  0.000  0.000
  0.000  0.684  0.000 -0.082  0.206
  0.000  0.000  0.684  0.206  0.083
  0.000 -0.082  0.206  0.832  0.000
  0.000  0.206  0.083  0.000  0.832
atom    2   Tr[ns(na)] =   8.05217
    eigenvalues: 
  0.522  0.523  0.993  0.993  0.995
    eigenvectors:
  0.000  0.000  0.000  0.001  0.999
  0.240  0.418  0.036  0.306  0.000
  0.418  0.240  0.306  0.036  0.000
  0.317  0.024  0.656  0.002  0.000
  0.024  0.317  0.002  0.656  0.001
    occupations:
  0.995  0.000  0.000  0.000  0.000
  0.000  0.683  0.000  0.082  0.207
  0.000  0.000  0.683  0.207 -0.082
  0.000  0.082  0.207  0.832  0.000
  0.000  0.207 -0.082  0.000  0.832
atom    3   Tr[ns(na)] =   3.79501
    eigenvalues: 
  0.356  0.356  0.381  0.402  0.402
    eigenvectors:
  0.000  0.000  1.000  0.000  0.000
  0.691  0.230  0.000  0.016  0.063
  0.230  0.691  0.000  0.063  0.016
  0.020  0.058  0.000  0.731  0.191
  0.058  0.020  0.000  0.191  0.731
    occupations:
  0.381  0.000  0.000  0.000  0.000
  0.000  0.360  0.000  0.000  0.012
  0.000  0.000  0.360  0.012  0.000
  0.000  0.000  0.012  0.398  0.000
  0.000  0.012  0.000  0.000  0.398
atom    4   Tr[ns(na)] =   3.79498
    eigenvalues: 
  0.356  0.356  0.382  0.402  0.402
    eigenvectors:
  0.000  0.000  1.000  0.000  0.000
  0.255  0.665  0.000  0.019  0.060
  0.666  0.255  0.000  0.059  0.020
  0.056  0.023  0.000  0.688  0.233
  0.022  0.057  0.000  0.233  0.688
    occupations:
  0.382  0.000  0.000  0.000  0.000
  0.000  0.360  0.000  0.000  0.012
  0.000  0.000  0.360  0.012  0.000
  0.000  0.000  0.012  0.398  0.000
  0.000  0.012  0.000  0.000  0.398
atom    5   Tr[ns(na)] =   5.42694
    eigenvalues: 
  0.838  0.929  0.947
    eigenvectors:
  0.338  0.000  0.662
  0.496  0.251  0.253
  0.166  0.749  0.085
    occupations:
  0.910 -0.045  0.026
 -0.045  0.888  0.024
  0.026  0.024  0.915
atom    6   Tr[ns(na)] =   5.43326
    eigenvalues: 
  0.839  0.930  0.947
    eigenvectors:
  0.338  0.000  0.662
  0.497  0.250  0.253
  0.165  0.750  0.084
    occupations:
  0.911  0.044  0.025
  0.044  0.889 -0.023
  0.025 -0.023  0.916
atom    7   Tr[ns(na)] =   5.43326
    eigenvalues: 
  0.839  0.930  0.947
    eigenvectors:
  0.337  0.000  0.662
  0.000  1.000  0.000
  0.662  0.000  0.337
    occupations:
  0.911  0.000 -0.051
  0.000  0.930  0.000
 -0.051  0.000  0.876
atom    8   Tr[ns(na)] =   5.43279
    eigenvalues: 
  0.839  0.930  0.947
    eigenvectors:
  0.337  0.000  0.663
  0.497  0.251  0.252
  0.166  0.749  0.085
    occupations:
  0.911 -0.044  0.026
 -0.044  0.889  0.024
  0.026  0.024  0.916
atom    9   Tr[ns(na)] =   5.43330
    eigenvalues: 
  0.839  0.930  0.947
    eigenvectors:
  0.337  0.000  0.663
  0.498  0.249  0.253
  0.165  0.751  0.084
    occupations:
  0.911  0.044  0.025
  0.044  0.889 -0.023
  0.025 -0.023  0.916
atom   10   Tr[ns(na)] =   5.43330
    eigenvalues: 
  0.839  0.930  0.947
    eigenvectors:
  0.337  0.000  0.663
  0.000  1.000  0.000
  0.663  0.000  0.337
    occupations:
  0.911  0.000 -0.051
  0.000  0.930  0.000
 -0.051  0.000  0.876
N of occupied +U levels =  56.2896465
 --- exit write_ns ---
 --- in v_hubbard ---
Hubbard energy    0.3452
 -------

     total cpu time spent up to now is      315.7 secs

     total energy              =    -537.95877769 Ry
     Harris-Foulkes estimate   =    -537.95876237 Ry
     estimated scf accuracy    <       0.00000049 Ry

     iteration # 11     ecut=    30.00 Ry     beta=0.20
     Davidson diagonalization with overlap
     ethr =  6.48E-10,  avg # of iterations =  1.0
 --- enter write_ns ---
 LDA+U parameters:
U( 1)     =  4.00000000
alpha( 1) =  0.00000000
U( 2)     =  0.00000000
alpha( 2) =  0.00000000
U( 3)     =  0.00000000
alpha( 3) =  0.10000000
U( 4)     =  0.00000000
alpha( 4) =  0.00000000
atom    1   Tr[ns(na)] =   8.05424
    eigenvalues: 
  0.524  0.525  0.992  0.992  0.995
    eigenvectors:
  0.000  0.000  0.000  0.001  0.999
  0.099  0.559  0.147  0.195  0.000
  0.559  0.099  0.195  0.147  0.000
  0.173  0.169  0.138  0.520  0.000
  0.169  0.173  0.520  0.138  0.000
    occupations:
  0.995  0.000  0.000  0.000  0.000
  0.000  0.684  0.000 -0.082  0.206
  0.000  0.000  0.684  0.206  0.083
  0.000 -0.082  0.206  0.832  0.000
  0.000  0.206  0.083  0.000  0.832
atom    2   Tr[ns(na)] =   8.05164
    eigenvalues: 
  0.522  0.523  0.993  0.993  0.995
    eigenvectors:
  0.000  0.000  0.000  0.001  0.999
  0.240  0.418  0.036  0.306  0.000
  0.418  0.240  0.306  0.036  0.000
  0.317  0.024  0.657  0.002  0.000
  0.024  0.317  0.002  0.656  0.001
    occupations:
  0.995  0.000  0.000  0.000  0.000
  0.000  0.683  0.000  0.083  0.207
  0.000  0.000  0.683  0.207 -0.082
  0.000  0.083  0.207  0.832  0.000
  0.000  0.207 -0.082  0.000  0.832
atom    3   Tr[ns(na)] =   3.79494
    eigenvalues: 
  0.356  0.356  0.381  0.402  0.402
    eigenvectors:
  0.000  0.000  1.000  0.000  0.000
  0.691  0.230  0.000  0.016  0.063
  0.230  0.691  0.000  0.063  0.016
  0.020  0.058  0.000  0.730  0.192
  0.058  0.020  0.000  0.192  0.730
    occupations:
  0.381  0.000  0.000  0.000  0.000
  0.000  0.360  0.000  0.000  0.012
  0.000  0.000  0.360  0.012  0.000
  0.000  0.000  0.012  0.398  0.000
  0.000  0.012  0.000  0.000  0.398
atom    4   Tr[ns(na)] =   3.79491
    eigenvalues: 
  0.356  0.356  0.382  0.402  0.402
    eigenvectors:
  0.000  0.000  1.000  0.000  0.000
  0.252  0.668  0.000  0.019  0.060
  0.669  0.252  0.000  0.059  0.020
  0.056  0.022  0.000  0.688  0.233
  0.022  0.057  0.000  0.233  0.687
    occupations:
  0.382  0.000  0.000  0.000  0.000
  0.000  0.360  0.000  0.000  0.012
  0.000  0.000  0.360  0.012  0.000
  0.000  0.000  0.012  0.398  0.000
  0.000  0.012  0.000  0.000  0.398
atom    5   Tr[ns(na)] =   5.42710
    eigenvalues: 
  0.838  0.929  0.947
    eigenvectors:
  0.338  0.000  0.662
  0.496  0.251  0.253
  0.166  0.749  0.085
    occupations:
  0.910 -0.045  0.026
 -0.045  0.888  0.024
  0.026  0.024  0.915
atom    6   Tr[ns(na)] =   5.43341
    eigenvalues: 
  0.839  0.930  0.947
    eigenvectors:
  0.337  0.000  0.663
  0.497  0.250  0.253
  0.165  0.750  0.084
    occupations:
  0.911  0.044  0.025
  0.044  0.889 -0.023
  0.025 -0.023  0.916
atom    7   Tr[ns(na)] =   5.43341
    eigenvalues: 
  0.839  0.930  0.947
    eigenvectors:
  0.337  0.000  0.663
  0.000  1.000  0.000
  0.663  0.000  0.337
    occupations:
  0.911  0.000 -0.051
  0.000  0.930  0.000
 -0.051  0.000  0.876
atom    8   Tr[ns(na)] =   5.43294
    eigenvalues: 
  0.839  0.930  0.947
    eigenvectors:
  0.337  0.000  0.663
  0.497  0.251  0.252
  0.166  0.749  0.085
    occupations:
  0.911 -0.044  0.026
 -0.044  0.889  0.024
  0.026  0.024  0.916
atom    9   Tr[ns(na)] =   5.43345
    eigenvalues: 
  0.839  0.930  0.947
    eigenvectors:
  0.337  0.000  0.663
  0.498  0.249  0.253
  0.165  0.751  0.084
    occupations:
  0.911  0.044  0.025
  0.044  0.889 -0.023
  0.025 -0.023  0.917
atom   10   Tr[ns(na)] =   5.43345
    eigenvalues: 
  0.839  0.930  0.947
    eigenvectors:
  0.337  0.000  0.663
  0.000  1.000  0.000
  0.663  0.000  0.337
    occupations:
  0.911  0.000 -0.051
  0.000  0.930  0.000
 -0.051  0.000  0.876
N of occupied +U levels =  56.2894924
 --- exit write_ns ---
 --- in v_hubbard ---
Hubbard energy    0.3452
 -------

     total cpu time spent up to now is      338.6 secs

     total energy              =    -537.95878812 Ry
     Harris-Foulkes estimate   =    -537.95877779 Ry
     estimated scf accuracy    <       0.00000010 Ry

     iteration # 12     ecut=    30.00 Ry     beta=0.20
     Davidson diagonalization with overlap
     ethr =  1.36E-10,  avg # of iterations =  2.0
 --- enter write_ns ---
 LDA+U parameters:
U( 1)     =  4.00000000
alpha( 1) =  0.00000000
U( 2)     =  0.00000000
alpha( 2) =  0.00000000
U( 3)     =  0.00000000
alpha( 3) =  0.10000000
U( 4)     =  0.00000000
alpha( 4) =  0.00000000
atom    1   Tr[ns(na)] =   8.05439
    eigenvalues: 
  0.524  0.525  0.992  0.992  0.995
    eigenvectors:
  0.000  0.000  0.000  0.001  0.999
  0.099  0.559  0.147  0.195  0.000
  0.559  0.099  0.195  0.146  0.000
  0.173  0.169  0.138  0.520  0.000
  0.169  0.173  0.520  0.138  0.000
    occupations:
  0.995  0.000  0.000  0.000  0.000
  0.000  0.684  0.000 -0.082  0.206
  0.000  0.000  0.684  0.206  0.083
  0.000 -0.082  0.206  0.832  0.000
  0.000  0.206  0.083  0.000  0.832
atom    2   Tr[ns(na)] =   8.05184
    eigenvalues: 
  0.522  0.523  0.993  0.993  0.995
    eigenvectors:
  0.000  0.000  0.000  0.001  0.999
  0.240  0.418  0.036  0.306  0.000
  0.418  0.240  0.306  0.036  0.000
  0.317  0.024  0.657  0.002  0.000
  0.024  0.317  0.002  0.656  0.001
    occupations:
  0.995  0.000  0.000  0.000  0.000
  0.000  0.683  0.000  0.083  0.207
  0.000  0.000  0.683  0.207 -0.082
  0.000  0.083  0.207  0.832  0.000
  0.000  0.207 -0.082  0.000  0.832
atom    3   Tr[ns(na)] =   3.79505
    eigenvalues: 
  0.356  0.356  0.381  0.402  0.402
    eigenvectors:
  0.000  0.000  1.000  0.000  0.000
  0.691  0.230  0.000  0.015  0.063
  0.230  0.691  0.000  0.063  0.015
  0.020  0.058  0.000  0.734  0.188
  0.058  0.020  0.000  0.188  0.734
    occupations:
  0.381  0.000  0.000  0.000  0.000
  0.000  0.360  0.000  0.000  0.012
  0.000  0.000  0.360  0.012  0.000
  0.000  0.000  0.012  0.398  0.000
  0.000  0.012  0.000  0.000  0.398
atom    4   Tr[ns(na)] =   3.79502
    eigenvalues: 
  0.356  0.356  0.382  0.402  0.402
    eigenvectors:
  0.000  0.000  1.000  0.000  0.000
  0.252  0.669  0.000  0.019  0.060
  0.670  0.252  0.000  0.059  0.020
  0.056  0.022  0.000  0.688  0.233
  0.022  0.057  0.000  0.233  0.687
    occupations:
  0.382  0.000  0.000  0.000  0.000
  0.000  0.360  0.000  0.000  0.012
  0.000  0.000  0.360  0.012  0.000
  0.000  0.000  0.012  0.398  0.000
  0.000  0.012  0.000  0.000  0.398
atom    5   Tr[ns(na)] =   5.42703
    eigenvalues: 
  0.838  0.929  0.947
    eigenvectors:
  0.338  0.000  0.662
  0.496  0.251  0.253
  0.166  0.749  0.085
    occupations:
  0.910 -0.045  0.026
 -0.045  0.888  0.024
  0.026  0.024  0.915
atom    6   Tr[ns(na)] =   5.43332
    eigenvalues: 
  0.839  0.930  0.947
    eigenvectors:
  0.337  0.000  0.663
  0.497  0.250  0.253
  0.165  0.750  0.084
    occupations:
  0.911  0.044  0.025
  0.044  0.889 -0.023
  0.025 -0.023  0.916
atom    7   Tr[ns(na)] =   5.43332
    eigenvalues: 
  0.839  0.930  0.947
    eigenvectors:
  0.337  0.000  0.663
  0.000  1.000  0.000
  0.663  0.000  0.337
    occupations:
  0.911  0.000 -0.051
  0.000  0.930  0.000
 -0.051  0.000  0.876
atom    8   Tr[ns(na)] =   5.43287
    eigenvalues: 
  0.839  0.930  0.947
    eigenvectors:
  0.337  0.000  0.663
  0.497  0.251  0.252
  0.166  0.749  0.085
    occupations:
  0.911 -0.044  0.026
 -0.044  0.889  0.024
  0.026  0.024  0.916
atom    9   Tr[ns(na)] =   5.43337
    eigenvalues: 
  0.839  0.930  0.947
    eigenvectors:
  0.337  0.000  0.663
  0.498  0.249  0.253
  0.165  0.751  0.084
    occupations:
  0.911  0.044  0.025
  0.044  0.889 -0.023
  0.025 -0.023  0.917
atom   10   Tr[ns(na)] =   5.43337
    eigenvalues: 
  0.839  0.930  0.947
    eigenvectors:
  0.337  0.000  0.663
  0.000  1.000  0.000
  0.663  0.000  0.337
    occupations:
  0.911  0.000 -0.051
  0.000  0.930  0.000
 -0.051  0.000  0.876
N of occupied +U levels =  56.2895971
 --- exit write_ns ---
 --- in v_hubbard ---
Hubbard energy    0.3452
 -------

     total cpu time spent up to now is      365.5 secs

     total energy              =    -537.95879472 Ry
     Harris-Foulkes estimate   =    -537.95878814 Ry
     estimated scf accuracy    <       0.00000007 Ry

     iteration # 13     ecut=    30.00 Ry     beta=0.20
     Davidson diagonalization with overlap
     ethr =  8.92E-11,  avg # of iterations =  1.2
 --- enter write_ns ---
 LDA+U parameters:
U( 1)     =  4.00000000
alpha( 1) =  0.00000000
U( 2)     =  0.00000000
alpha( 2) =  0.00000000
U( 3)     =  0.00000000
alpha( 3) =  0.10000000
U( 4)     =  0.00000000
alpha( 4) =  0.00000000
atom    1   Tr[ns(na)] =   8.05432
    eigenvalues: 
  0.524  0.525  0.992  0.992  0.995
    eigenvectors:
  0.000  0.000  0.000  0.001  0.999
  0.099  0.559  0.146  0.196  0.000
  0.559  0.099  0.196  0.146  0.000
  0.173  0.169  0.139  0.519  0.000
  0.169  0.173  0.519  0.139  0.000
    occupations:
  0.995  0.000  0.000  0.000  0.000
  0.000  0.684  0.000 -0.082  0.206
  0.000  0.000  0.684  0.206  0.083
  0.000 -0.082  0.206  0.832  0.000
  0.000  0.206  0.083  0.000  0.832
atom    2   Tr[ns(na)] =   8.05176
    eigenvalues: 
  0.522  0.523  0.993  0.993  0.995
    eigenvectors:
  0.000  0.000  0.000  0.001  0.999
  0.240  0.418  0.036  0.305  0.000
  0.418  0.240  0.306  0.036  0.000
  0.317  0.024  0.657  0.001  0.000
  0.024  0.317  0.001  0.656  0.001
    occupations:
  0.995  0.000  0.000  0.000  0.000
  0.000  0.683  0.000  0.083  0.207
  0.000  0.000  0.683  0.207 -0.082
  0.000  0.083  0.207  0.832  0.000
  0.000  0.207 -0.082  0.000  0.832
atom    3   Tr[ns(na)] =   3.79504
    eigenvalues: 
  0.356  0.356  0.381  0.402  0.402
    eigenvectors:
  0.000  0.000  1.000  0.000  0.000
  0.691  0.230  0.000  0.015  0.063
  0.230  0.691  0.000  0.063  0.015
  0.020  0.058  0.000  0.734  0.188
  0.058  0.020  0.000  0.188  0.733
    occupations:
  0.381  0.000  0.000  0.000  0.000
  0.000  0.360  0.000  0.000  0.012
  0.000  0.000  0.360  0.012  0.000
  0.000  0.000  0.012  0.398  0.000
  0.000  0.012  0.000  0.000  0.398
atom    4   Tr[ns(na)] =   3.79502
    eigenvalues: 
  0.356  0.356  0.382  0.402  0.402
    eigenvectors:
  0.000  0.000  1.000  0.000  0.000
  0.252  0.669  0.000  0.019  0.060
  0.669  0.252  0.000  0.059  0.020
  0.056  0.022  0.000  0.688  0.233
  0.022  0.057  0.000  0.233  0.688
    occupations:
  0.382  0.000  0.000  0.000  0.000
  0.000  0.360  0.000  0.000  0.012
  0.000  0.000  0.360  0.012  0.000
  0.000  0.000  0.012  0.398  0.000
  0.000  0.012  0.000  0.000  0.398
atom    5   Tr[ns(na)] =   5.42705
    eigenvalues: 
  0.838  0.929  0.947
    eigenvectors:
  0.338  0.000  0.662
  0.496  0.251  0.253
  0.166  0.749  0.085
    occupations:
  0.910 -0.045  0.026
 -0.045  0.888  0.024
  0.026  0.024  0.915
atom    6   Tr[ns(na)] =   5.43335
    eigenvalues: 
  0.839  0.930  0.947
    eigenvectors:
  0.337  0.000  0.663
  0.497  0.250  0.253
  0.165  0.750  0.084
    occupations:
  0.911  0.044  0.025
  0.044  0.889 -0.023
  0.025 -0.023  0.916
atom    7   Tr[ns(na)] =   5.43335
    eigenvalues: 
  0.839  0.930  0.947
    eigenvectors:
  0.337  0.000  0.663
  0.000  1.000  0.000
  0.663  0.000  0.337
    occupations:
  0.911  0.000 -0.051
  0.000  0.930  0.000
 -0.051  0.000  0.876
atom    8   Tr[ns(na)] =   5.43290
    eigenvalues: 
  0.839  0.930  0.947
    eigenvectors:
  0.337  0.000  0.663
  0.497  0.251  0.252
  0.166  0.749  0.085
    occupations:
  0.911 -0.044  0.026
 -0.044  0.889  0.024
  0.026  0.024  0.916
atom    9   Tr[ns(na)] =   5.43340
    eigenvalues: 
  0.839  0.930  0.947
    eigenvectors:
  0.337  0.000  0.663
  0.498  0.249  0.253
  0.165  0.751  0.084
    occupations:
  0.911  0.044  0.025
  0.044  0.889 -0.023
  0.025 -0.023  0.917
atom   10   Tr[ns(na)] =   5.43340
    eigenvalues: 
  0.839  0.930  0.947
    eigenvectors:
  0.337  0.000  0.663
  0.000  1.000  0.000
  0.663  0.000  0.337
    occupations:
  0.911  0.000 -0.051
  0.000  0.930  0.000
 -0.051  0.000  0.876
N of occupied +U levels =  56.2895853
 --- exit write_ns ---
 --- in v_hubbard ---
Hubbard energy    0.3451
 -------

     total cpu time spent up to now is      390.9 secs

     End of self-consistent calculation

          k = 0.0000 0.0000 0.0000 (  2175 PWs)   bands (ev):

   -19.7933 -19.6198  -6.5555  -5.8747  -5.8561  -5.8315  -5.8219  -5.4898
    -3.8380  -3.2547  -3.2505  -3.2486  -3.0211  -3.0205   5.1944   6.7611
     6.7645   6.9005   6.9039   6.9111   7.5184   7.5297   7.7216   8.6794
     8.8844   8.8853   9.3044   9.6276   9.6368  10.0077  10.0110  10.2044
    10.4638  10.4668  10.6818  10.9831  10.9859  11.3435  11.9173  11.9189
    14.7332  14.7355  15.4293  15.4308  16.2002  16.7853

     occupation numbers 
     0.0313   0.0313   0.0313   0.0313   0.0313   0.0313   0.0313   0.0313
     0.0313   0.0313   0.0313   0.0313   0.0313   0.0313   0.0313   0.0313
     0.0313   0.0313   0.0313   0.0313   0.0313   0.0313   0.0313   0.0313
     0.0313   0.0313   0.0312   0.0312   0.0312   0.0312   0.0312   0.0312
     0.0312   0.0312   0.0312   0.0308   0.0308   0.0257   0.0045   0.0045
     0.0000   0.0000   0.0000   0.0000   0.0000   0.0000

          k =-0.2471-0.1427 0.1027 (  2181 PWs)   bands (ev):

   -19.7675 -19.6561  -6.7329  -6.3019  -5.9626  -5.8594  -5.6202  -5.4890
    -3.6264  -3.4052  -2.9400  -2.9060  -2.8624  -2.7631   5.5388   6.5368
     6.7950   6.8627   6.8670   6.9499   6.9956   7.4759   7.5998   8.0051
     8.0895   8.5403   9.5248   9.6457   9.7216   9.9470  10.0644  10.1124
    10.3273  10.3915  10.4184  11.0079  11.1133  11.1247  12.2913  12.3630
    14.2818  14.2911  15.8179  16.0707  16.9733  17.2669

     occupation numbers 
     0.0625   0.0625   0.0625   0.0625   0.0625   0.0625   0.0625   0.0625
     0.0625   0.0625   0.0625   0.0625   0.0625   0.0625   0.0625   0.0625
     0.0625   0.0625   0.0625   0.0625   0.0625   0.0625   0.0625   0.0625
     0.0625   0.0625   0.0625   0.0625   0.0625   0.0625   0.0625   0.0625
     0.0625   0.0625   0.0625   0.0613   0.0598   0.0596   0.0006   0.0003
     0.0000   0.0000   0.0000   0.0000   0.0000   0.0000

          k = 0.4942 0.2853-0.2053 (  2202 PWs)   bands (ev):

   -19.7179 -19.7166  -6.7354  -6.7148  -5.9787  -5.9633  -5.5364  -5.5228
    -3.3965  -3.3910  -2.7979  -2.7964  -2.5073  -2.5030   5.9137   5.9333
     6.8565   6.8730   7.0803   7.1075   7.2646   7.2909   7.3774   7.3819
     7.5633   7.5812   9.4070   9.4138   9.8445   9.8558  10.2473  10.2605
    10.3795  10.4053  10.5795  10.5992  10.8660  10.8913  13.2655  13.3090
    13.3498  13.3908  16.8341  16.8374  17.1296  17.1326

     occupation numbers 
     0.0313   0.0313   0.0313   0.0313   0.0313   0.0313   0.0313   0.0313
     0.0313   0.0313   0.0313   0.0313   0.0313   0.0313   0.0313   0.0313
     0.0313   0.0313   0.0313   0.0313   0.0313   0.0313   0.0313   0.0313
     0.0313   0.0313   0.0312   0.0312   0.0312   0.0312   0.0312   0.0312
     0.0312   0.0312   0.0312   0.0312   0.0311   0.0311   0.0000   0.0000
     0.0000   0.0000   0.0000   0.0000   0.0000   0.0000

          k =-0.2471 0.1427 0.2053 (  2195 PWs)   bands (ev):

   -19.7606 -19.6671  -6.8520  -6.2454  -6.0722  -5.8538  -5.6688  -5.4682
    -3.4337  -3.2669  -3.1100  -2.9007  -2.8298  -2.5575   5.5646   6.2529
     6.5995   6.7784   6.9545   7.2050   7.2297   7.3985   7.4787   8.0529
     8.1228   8.7426   8.8504   9.2969   9.8069   9.8775  10.0086  10.0436
    10.2630  10.6799  10.7875  10.8542  11.0231  11.0892  11.8454  12.7150
    13.6116  14.7512  15.9948  16.1964  17.0351  17.5382

     occupation numbers 
     0.0625   0.0625   0.0625   0.0625   0.0625   0.0625   0.0625   0.0625
     0.0625   0.0625   0.0625   0.0625   0.0625   0.0625   0.0625   0.0625
     0.0625   0.0625   0.0625   0.0625   0.0625   0.0625   0.0625   0.0625
     0.0625   0.0625   0.0625   0.0625   0.0625   0.0625   0.0625   0.0625
     0.0625   0.0625   0.0624   0.0622   0.0612   0.0603   0.0130   0.0000
     0.0000   0.0000   0.0000   0.0000   0.0000   0.0000

          k = 0.4942 0.5706-0.1027 (  2198 PWs)   bands (ev):

   -19.7295 -19.7086  -6.9526  -6.6530  -6.1283  -5.9107  -5.5271  -5.3877
    -3.3164  -3.2586  -2.8799  -2.7089  -2.5279  -2.3835   5.7825   6.0776
     6.2299   6.8100   7.0051   7.0483   7.1429   7.3928   7.4247   7.4576
     7.9615   8.3930   8.8962   9.2065   9.5190   9.7677   9.8148  10.1910
    10.3139  10.6027  10.6889  10.7693  10.9234  11.0777  12.2840  12.7177
    13.4078  14.3314  16.9050  17.1143  17.3077  18.0156

     occupation numbers 
     0.0625   0.0625   0.0625   0.0625   0.0625   0.0625   0.0625   0.0625
     0.0625   0.0625   0.0625   0.0625   0.0625   0.0625   0.0625   0.0625
     0.0625   0.0625   0.0625   0.0625   0.0625   0.0625   0.0625   0.0625
     0.0625   0.0625   0.0625   0.0625   0.0625   0.0625   0.0625   0.0625
     0.0625   0.0625   0.0625   0.0624   0.0620   0.0605   0.0006   0.0000
     0.0000   0.0000   0.0000   0.0000   0.0000   0.0000

          k = 0.2471 0.4280 0.0000 (  2203 PWs)   bands (ev):

   -19.7409 -19.6930  -6.8547  -6.6396  -6.0709  -5.9785  -5.4423  -5.3827
    -3.5419  -3.2964  -2.8005  -2.7110  -2.5749  -2.5622   5.8477   6.0558
     6.5448   6.8593   6.9054   6.9635   7.2357   7.2880   7.3464   7.5799
     7.7149   8.6392   8.9087   9.3571   9.7261   9.7490  10.0226  10.3237
    10.3845  10.4506  10.6765  10.7177  10.7269  11.1618  12.1955  13.2954
    13.3750  14.1295  16.4350  16.9933  17.4193  17.9266

     occupation numbers 
     0.0625   0.0625   0.0625   0.0625   0.0625   0.0625   0.0625   0.0625
     0.0625   0.0625   0.0625   0.0625   0.0625   0.0625   0.0625   0.0625
     0.0625   0.0625   0.0625   0.0625   0.0625   0.0625   0.0625   0.0625
     0.0625   0.0625   0.0625   0.0625   0.0625   0.0625   0.0625   0.0625
     0.0625   0.0625   0.0625   0.0624   0.0624   0.0587   0.0013   0.0000
     0.0000   0.0000   0.0000   0.0000   0.0000   0.0000

          k = 0.4942-0.2853-0.4107 (  2202 PWs)   bands (ev):

   -19.7275 -19.7140  -7.1624  -6.4530  -6.2338  -5.9925  -5.5469  -5.2955
    -3.2039  -3.1146  -3.0527  -2.6451  -2.4776  -2.2197   5.6071   5.7483
     6.0967   6.7578   7.0460   7.1488   7.2570   7.3065   7.6942   7.7059
     8.1731   8.3275   8.6035   8.9105   9.4372   9.6875  10.0403  10.0678
    10.3842  10.4857  10.6673  10.8100  10.9316  11.2068  11.7956  12.3914
    13.3111  14.7657  17.0438  17.2671  17.5180  17.6124

     occupation numbers 
     0.0313   0.0313   0.0313   0.0313   0.0313   0.0313   0.0313   0.0313
     0.0313   0.0313   0.0313   0.0313   0.0313   0.0313   0.0313   0.0313
     0.0313   0.0313   0.0313   0.0313   0.0313   0.0313   0.0313   0.0313
     0.0313   0.0313   0.0313   0.0313   0.0312   0.0312   0.0312   0.0312
     0.0312   0.0312   0.0312   0.0312   0.0310   0.0287   0.0081   0.0001
     0.0000   0.0000   0.0000   0.0000   0.0000   0.0000

          k = 0.0000 0.0000 0.3080 (  2187 PWs)   bands (ev):

   -19.7671 -19.6575  -6.6212  -5.9954  -5.9527  -5.9399  -5.8539  -5.8421
[...]
     0.0625   0.0625   0.0625   0.0625   0.0625   0.0625   0.0625   0.0625
     0.0625   0.0625   0.0625   0.0625   0.0625   0.0625   0.0625   0.0625
     0.0625   0.0625   0.0624   0.0623   0.0612   0.0602   0.0129   0.0000
     0.0000   0.0000   0.0000   0.0000   0.0000   0.0000

          k = 0.4942-0.5706 0.1027 (  2198 PWs)   bands (ev):

   -19.7287 -19.7081  -6.9631  -6.6493  -6.1384  -5.8907  -5.5205  -5.3972
    -3.3180  -3.2588  -2.8786  -2.7107  -2.5293  -2.3857   5.7909   6.0847
     6.2251   6.8172   7.0027   7.0517   7.1490   7.3894   7.4219   7.4623
     7.9477   8.3989   8.8901   9.2025   9.5222   9.7623   9.8158  10.1918
    10.3216  10.5901  10.6983  10.7745  10.9290  11.0620  12.2844  12.7183
    13.4043  14.3328  16.9069  17.1134  17.3088  18.0163

     occupation numbers 
     0.0625   0.0625   0.0625   0.0625   0.0625   0.0625   0.0625   0.0625
     0.0625   0.0625   0.0625   0.0625   0.0625   0.0625   0.0625   0.0625
     0.0625   0.0625   0.0625   0.0625   0.0625   0.0625   0.0625   0.0625
     0.0625   0.0625   0.0625   0.0625   0.0625   0.0625   0.0625   0.0625
     0.0625   0.0625   0.0625   0.0624   0.0619   0.0607   0.0006   0.0000
     0.0000   0.0000   0.0000   0.0000   0.0000   0.0000

          k =-0.7412 0.1427-0.1027 (  2198 PWs)   bands (ev):

   -19.7287 -19.7081  -6.9627  -6.6501  -6.1374  -5.8918  -5.5195  -5.3979
    -3.3173  -3.2589  -2.8784  -2.7117  -2.5287  -2.3861   5.7941   6.0766
     6.2316   6.8149   7.0063   7.0521   7.1380   7.3997   7.4300   7.4553
     7.9429   8.3970   8.8917   9.2028   9.5247   9.7627   9.8156  10.1924
    10.3190  10.5965  10.6939  10.7762  10.9202  11.0672  12.2845  12.7186
    13.4045  14.3331  16.9050  17.1162  17.3083  18.0159

     occupation numbers 
     0.0625   0.0625   0.0625   0.0625   0.0625   0.0625   0.0625   0.0625
     0.0625   0.0625   0.0625   0.0625   0.0625   0.0625   0.0625   0.0625
     0.0625   0.0625   0.0625   0.0625   0.0625   0.0625   0.0625   0.0625
     0.0625   0.0625   0.0625   0.0625   0.0625   0.0625   0.0625   0.0625
     0.0625   0.0625   0.0625   0.0624   0.0620   0.0606   0.0006   0.0000
     0.0000   0.0000   0.0000   0.0000   0.0000   0.0000

          k = 0.2471-0.7133-0.1027 (  2198 PWs)   bands (ev):

   -19.7287 -19.7081  -6.9630  -6.6496  -6.1384  -5.8908  -5.5187  -5.3991
    -3.3172  -3.2588  -2.8788  -2.7108  -2.5289  -2.3863   5.7938   6.0762
     6.2304   6.8153   7.0096   7.0461   7.1425   7.4035   7.4258   7.4542
     7.9438   8.3978   8.8943   9.2017   9.5207   9.7671   9.8122  10.1938
    10.3203  10.5992  10.6899  10.7677  10.9273  11.0686  12.2844  12.7186
    13.4045  14.3331  16.9064  17.1140  17.3082  18.0149

     occupation numbers 
     0.0625   0.0625   0.0625   0.0625   0.0625   0.0625   0.0625   0.0625
     0.0625   0.0625   0.0625   0.0625   0.0625   0.0625   0.0625   0.0625
     0.0625   0.0625   0.0625   0.0625   0.0625   0.0625   0.0625   0.0625
     0.0625   0.0625   0.0625   0.0625   0.0625   0.0625   0.0625   0.0625
     0.0625   0.0625   0.0625   0.0624   0.0619   0.0606   0.0006   0.0000
     0.0000   0.0000   0.0000   0.0000   0.0000   0.0000

          k =-0.7412-0.1427 0.1027 (  2198 PWs)   bands (ev):

   -19.7287 -19.7081  -6.9634  -6.6489  -6.1393  -5.8898  -5.5197  -5.3985
    -3.3180  -3.2587  -2.8789  -2.7098  -2.5295  -2.3860   5.7906   6.0843
     6.2239   6.8179   7.0056   7.0458   7.1536   7.3918   7.4182   7.4620
     7.9486   8.3995   8.8927   9.2014   9.5183   9.7667   9.8123  10.1930
    10.3229  10.5930  10.6944  10.7663  10.9360  11.0633  12.2843  12.7184
    13.4043  14.3328  16.9083  17.1112  17.3087  18.0154

     occupation numbers 
     0.0625   0.0625   0.0625   0.0625   0.0625   0.0625   0.0625   0.0625
     0.0625   0.0625   0.0625   0.0625   0.0625   0.0625   0.0625   0.0625
     0.0625   0.0625   0.0625   0.0625   0.0625   0.0625   0.0625   0.0625
     0.0625   0.0625   0.0625   0.0625   0.0625   0.0625   0.0625   0.0625
     0.0625   0.0625   0.0625   0.0624   0.0619   0.0607   0.0006   0.0000
     0.0000   0.0000   0.0000   0.0000   0.0000   0.0000

          k = 0.2471 0.7133 0.1027 (  2198 PWs)   bands (ev):

   -19.7295 -19.7086  -6.9531  -6.6522  -6.1294  -5.9095  -5.5280  -5.3870
    -3.3171  -3.2585  -2.8800  -2.7079  -2.5285  -2.3832   5.7794   6.0853
     6.2237   6.8126   7.0017   7.0472   7.1543   7.3824   7.4155   7.4655
     7.9663   8.3948   8.8946   9.2063   9.5165   9.7671   9.8150  10.1903
    10.3166  10.5963  10.6932  10.7678  10.9323  11.0725  12.2839  12.7174
    13.4076  14.3311  16.9068  17.1114  17.3083  18.0159

     occupation numbers 
     0.0625   0.0625   0.0625   0.0625   0.0625   0.0625   0.0625   0.0625
     0.0625   0.0625   0.0625   0.0625   0.0625   0.0625   0.0625   0.0625
     0.0625   0.0625   0.0625   0.0625   0.0625   0.0625   0.0625   0.0625
     0.0625   0.0625   0.0625   0.0625   0.0625   0.0625   0.0625   0.0625
     0.0625   0.0625   0.0625   0.0624   0.0619   0.0605   0.0006   0.0000
     0.0000   0.0000   0.0000   0.0000   0.0000   0.0000

          k = 0.2471-0.4280 0.0000 (  2203 PWs)   bands (ev):

   -19.7410 -19.6929  -6.8500  -6.6492  -6.0509  -5.9896  -5.4526  -5.3762
    -3.5434  -3.2964  -2.8026  -2.7066  -2.5736  -2.5643   5.8372   6.0564
     6.5459   6.8595   6.9125   6.9628   7.2433   7.2952   7.3386   7.5873
     7.7214   8.6296   8.8968   9.3393   9.7295   9.7552  10.0230  10.3277
    10.3878  10.4549  10.6790  10.7178  10.7316  11.1520  12.1965  13.2967
    13.3765  14.1266  16.4345  16.9952  17.4215  17.9266

     occupation numbers 
     0.0625   0.0625   0.0625   0.0625   0.0625   0.0625   0.0625   0.0625
     0.0625   0.0625   0.0625   0.0625   0.0625   0.0625   0.0625   0.0625
     0.0625   0.0625   0.0625   0.0625   0.0625   0.0625   0.0625   0.0625
     0.0625   0.0625   0.0625   0.0625   0.0625   0.0625   0.0625   0.0625
     0.0625   0.0625   0.0625   0.0624   0.0624   0.0590   0.0013   0.0000
     0.0000   0.0000   0.0000   0.0000   0.0000   0.0000

          k =-0.4942 0.0000 0.0000 (  2203 PWs)   bands (ev):

   -19.7410 -19.6929  -6.8500  -6.6493  -6.0509  -5.9896  -5.4526  -5.3762
    -3.5434  -3.2964  -2.8026  -2.7066  -2.5734  -2.5645   5.8372   6.0565
     6.5460   6.8589   6.9129   6.9625   7.2439   7.2955   7.3387   7.5869
     7.7212   8.6296   8.8968   9.3392   9.7303   9.7544  10.0231  10.3282
    10.3872  10.4546  10.6782  10.7182  10.7322  11.1519  12.1964  13.2967
    13.3766  14.1266  16.4345  16.9952  17.4214  17.9261

     occupation numbers 
     0.0625   0.0625   0.0625   0.0625   0.0625   0.0625   0.0625   0.0625
     0.0625   0.0625   0.0625   0.0625   0.0625   0.0625   0.0625   0.0625
     0.0625   0.0625   0.0625   0.0625   0.0625   0.0625   0.0625   0.0625
     0.0625   0.0625   0.0625   0.0625   0.0625   0.0625   0.0625   0.0625
     0.0625   0.0625   0.0625   0.0624   0.0624   0.0590   0.0013   0.0000
     0.0000   0.0000   0.0000   0.0000   0.0000   0.0000

          k = 0.4942 0.2853 0.4107 (  2202 PWs)   bands (ev):

   -19.7260 -19.7130  -7.1740  -6.4574  -6.2452  -5.9678  -5.5322  -5.3078
    -3.2047  -3.1154  -3.0531  -2.6492  -2.4801  -2.2229   5.6205   5.7644
     6.0814   6.7620   7.0536   7.1622   7.2719   7.3080   7.6830   7.6949
     8.1743   8.3057   8.6208   8.9117   9.4166   9.6830  10.0383  10.0744
    10.3910  10.4881  10.6633  10.8152  10.9313  11.1957  11.7955  12.3928
    13.3070  14.7675  17.0450  17.2678  17.5204  17.6141

     occupation numbers 
     0.0313   0.0313   0.0313   0.0313   0.0313   0.0313   0.0313   0.0313
     0.0313   0.0313   0.0313   0.0313   0.0313   0.0313   0.0313   0.0313
     0.0313   0.0313   0.0313   0.0313   0.0313   0.0313   0.0313   0.0313
     0.0313   0.0313   0.0313   0.0313   0.0312   0.0312   0.0312   0.0312
     0.0312   0.0312   0.0312   0.0312   0.0310   0.0289   0.0081   0.0001
     0.0000   0.0000   0.0000   0.0000   0.0000   0.0000

          k = 0.0000 0.5706-0.4107 (  2202 PWs)   bands (ev):

   -19.7260 -19.7130  -7.1740  -6.4575  -6.2451  -5.9678  -5.5322  -5.3077
    -3.2047  -3.1154  -3.0531  -2.6492  -2.4801  -2.2229   5.6205   5.7644
     6.0814   6.7620   7.0534   7.1622   7.2719   7.3082   7.6832   7.6947
     8.1745   8.3055   8.6208   8.9117   9.4166   9.6829  10.0385  10.0742
    10.3909  10.4882  10.6638  10.8142  10.9319  11.1957  11.7955  12.3928
    13.3070  14.7675  17.0450  17.2678  17.5204  17.6141

     occupation numbers 
     0.0313   0.0313   0.0313   0.0313   0.0313   0.0313   0.0313   0.0313
     0.0313   0.0313   0.0313   0.0313   0.0313   0.0313   0.0313   0.0313
     0.0313   0.0313   0.0313   0.0313   0.0313   0.0313   0.0313   0.0313
     0.0313   0.0313   0.0313   0.0313   0.0312   0.0312   0.0312   0.0312
     0.0312   0.0312   0.0312   0.0312   0.0310   0.0289   0.0081   0.0001
     0.0000   0.0000   0.0000   0.0000   0.0000   0.0000

          k = 0.7412-0.4280 0.0000 (  2204 PWs)   bands (ev):

   -19.7402 -19.6948  -6.7405  -6.6044  -6.1519  -5.8418  -5.7001  -5.5495
    -3.1907  -3.0968  -3.0444  -2.6792  -2.6625  -2.5842   5.8885   6.3214
     6.3828   6.8960   6.9654   7.0980   7.1560   7.2731   7.3847   7.5247
     7.8456   8.4865   8.9048   9.4509   9.5005   9.6741   9.8327  10.2178
    10.4089  10.5526  10.6929  10.7978  10.8600  10.9196  12.1945  13.2163
    13.2910  14.1573  16.6880  16.7253  17.5902  17.7948

     occupation numbers 
     0.0625   0.0625   0.0625   0.0625   0.0625   0.0625   0.0625   0.0625
     0.0625   0.0625   0.0625   0.0625   0.0625   0.0625   0.0625   0.0625
     0.0625   0.0625   0.0625   0.0625   0.0625   0.0625   0.0625   0.0625
     0.0625   0.0625   0.0625   0.0625   0.0625   0.0625   0.0625   0.0625
     0.0625   0.0625   0.0625   0.0623   0.0622   0.0620   0.0013   0.0000
     0.0000   0.0000   0.0000   0.0000   0.0000   0.0000

          k = 0.0000-0.8559 0.0000 (  2204 PWs)   bands (ev):

   -19.7403 -19.6947  -6.7359  -6.6131  -6.1467  -5.8376  -5.6961  -5.5595
    -3.1920  -3.0966  -3.0445  -2.6763  -2.6609  -2.5866   5.8755   6.3118
     6.3910   6.9022   6.9718   7.0966   7.1636   7.2730   7.3867   7.5330
     7.8508   8.4788   8.8883   9.4364   9.5032   9.6780   9.8332  10.2219
    10.4139  10.5566  10.6959  10.8030  10.8566  10.9126  12.1951  13.2175
    13.2925  14.1546  16.6864  16.7263  17.5916  17.7951

     occupation numbers 
     0.0625   0.0625   0.0625   0.0625   0.0625   0.0625   0.0625   0.0625
     0.0625   0.0625   0.0625   0.0625   0.0625   0.0625   0.0625   0.0625
     0.0625   0.0625   0.0625   0.0625   0.0625   0.0625   0.0625   0.0625
     0.0625   0.0625   0.0625   0.0625   0.0625   0.0625   0.0625   0.0625
     0.0625   0.0625   0.0625   0.0623   0.0622   0.0620   0.0013   0.0000
     0.0000   0.0000   0.0000   0.0000   0.0000   0.0000

          k = 0.4942-0.2853-0.1027 (  2211 PWs)   bands (ev):

   -19.7304 -19.7077  -6.9693  -6.5492  -6.3264  -5.7159  -5.6341  -5.3618
    -3.3311  -3.1656  -3.0398  -2.6007  -2.5639  -2.3757   5.8172   6.1050
     6.1375   6.7612   7.0401   7.0472   7.2341   7.2715   7.4349   7.4755
     8.0021   8.4324   8.8836   9.3524   9.3682   9.6535   9.9634  10.0689
    10.3909  10.6570  10.7936  10.8311  10.8710  10.9037  12.2394  12.7317
    13.4547  14.3129  16.8858  16.9356  17.5796  17.9273

     occupation numbers 
     0.0625   0.0625   0.0625   0.0625   0.0625   0.0625   0.0625   0.0625
     0.0625   0.0625   0.0625   0.0625   0.0625   0.0625   0.0625   0.0625
     0.0625   0.0625   0.0625   0.0625   0.0625   0.0625   0.0625   0.0625
     0.0625   0.0625   0.0625   0.0625   0.0625   0.0625   0.0625   0.0625
     0.0625   0.0625   0.0624   0.0623   0.0622   0.0621   0.0009   0.0000
     0.0000   0.0000   0.0000   0.0000   0.0000   0.0000

          k = 0.0000-0.5706 0.1027 (  2211 PWs)   bands (ev):

   -19.7296 -19.7072  -6.9790  -6.5466  -6.3278  -5.7069  -5.6259  -5.3712
    -3.3312  -3.1658  -3.0401  -2.6026  -2.5640  -2.3784   5.8278   6.0929
     6.1498   6.7603   7.0419   7.0526   7.2353   7.2793   7.4320   7.4761
     7.9851   8.4387   8.8795   9.3611   9.3724   9.6352   9.9584  10.0748
    10.3993  10.6573  10.7958  10.8279  10.8693  10.8984  12.2398  12.7325
    13.4514  14.3146  16.8864  16.9353  17.5791  17.9276

     occupation numbers 
     0.0625   0.0625   0.0625   0.0625   0.0625   0.0625   0.0625   0.0625
     0.0625   0.0625   0.0625   0.0625   0.0625   0.0625   0.0625   0.0625
     0.0625   0.0625   0.0625   0.0625   0.0625   0.0625   0.0625   0.0625
     0.0625   0.0625   0.0625   0.0625   0.0625   0.0625   0.0625   0.0625
     0.0625   0.0625   0.0624   0.0623   0.0622   0.0621   0.0009   0.0000
     0.0000   0.0000   0.0000   0.0000   0.0000   0.0000

          k = 0.7412 0.4280 0.3080 (  2210 PWs)   bands (ev):

   -19.7293 -19.7086  -6.9157  -6.4566  -6.3063  -5.7975  -5.7671  -5.5014
    -3.0743  -3.0587  -2.9656  -2.7329  -2.6251  -2.4286   5.9210   6.1650
     6.2332   6.7503   6.9790   7.0882   7.2937   7.3273   7.4373   7.5171
     7.9587   8.4441   8.7815   9.3014   9.4526   9.4872   9.6464  10.1263
    10.3695  10.6485  10.7458  10.8161  10.9439  10.9506  12.1996  12.6857
    13.4004  14.2846  17.0607  17.0702  17.5473  17.9029

     occupation numbers 
     0.0625   0.0625   0.0625   0.0625   0.0625   0.0625   0.0625   0.0625
     0.0625   0.0625   0.0625   0.0625   0.0625   0.0625   0.0625   0.0625
     0.0625   0.0625   0.0625   0.0625   0.0625   0.0625   0.0625   0.0625
     0.0625   0.0625   0.0625   0.0625   0.0625   0.0625   0.0625   0.0625
     0.0625   0.0625   0.0624   0.0623   0.0618   0.0618   0.0013   0.0000
     0.0000   0.0000   0.0000   0.0000   0.0000   0.0000

          k = 0.0000 0.8559-0.3080 (  2210 PWs)   bands (ev):

   -19.7293 -19.7086  -6.9157  -6.4565  -6.3064  -5.7975  -5.7671  -5.5014
    -3.0743  -3.0587  -2.9656  -2.7328  -2.6251  -2.4286   5.9211   6.1649
     6.2332   6.7502   6.9792   7.0877   7.2939   7.3274   7.4382   7.5162
     7.9587   8.4442   8.7816   9.3013   9.4526   9.4873   9.6464  10.1264
    10.3694  10.6488  10.7447  10.8169  10.9438  10.9507  12.1996  12.6857
    13.4004  14.2846  17.0608  17.0702  17.5473  17.9029

     occupation numbers 
     0.0625   0.0625   0.0625   0.0625   0.0625   0.0625   0.0625   0.0625
     0.0625   0.0625   0.0625   0.0625   0.0625   0.0625   0.0625   0.0625
     0.0625   0.0625   0.0625   0.0625   0.0625   0.0625   0.0625   0.0625
     0.0625   0.0625   0.0625   0.0625   0.0625   0.0625   0.0625   0.0625
     0.0625   0.0625   0.0624   0.0623   0.0618   0.0618   0.0013   0.0000
     0.0000   0.0000   0.0000   0.0000   0.0000   0.0000

          k = 0.2471 0.7133-0.2053 (  2206 PWs)   bands (ev):

   -19.7207 -19.7204  -6.8894  -6.8747  -6.0524  -6.0310  -5.4430  -5.4295
    -3.1546  -3.1542  -2.8197  -2.8162  -2.3823  -2.3795   5.9850   6.0040
     6.2978   6.3078   6.9438   6.9445   7.2510   7.2551   7.4452   7.4670
     8.4917   8.5060   8.7935   8.8106   9.4815   9.4906  10.0075  10.0147
    10.4740  10.4783  10.6514  10.6663  10.9964  11.0096  12.2472  12.2523
    13.9779  13.9890  17.4259  17.4280  17.8700  17.8712

     occupation numbers 
     0.0625   0.0625   0.0625   0.0625   0.0625   0.0625   0.0625   0.0625
     0.0625   0.0625   0.0625   0.0625   0.0625   0.0625   0.0625   0.0625
     0.0625   0.0625   0.0625   0.0625   0.0625   0.0625   0.0625   0.0625
     0.0625   0.0625   0.0625   0.0625   0.0625   0.0625   0.0625   0.0625
     0.0625   0.0625   0.0625   0.0625   0.0615   0.0613   0.0009   0.0008
     0.0000   0.0000   0.0000   0.0000   0.0000   0.0000

          k =-0.7412-0.1427-0.2053 (  2206 PWs)   bands (ev):

   -19.7200 -19.7199  -6.9005  -6.8761  -6.0331  -6.0316  -5.4505  -5.4291
    -3.1558  -3.1545  -2.8171  -2.8162  -2.3887  -2.3793   5.9829   6.0008
     6.3054   6.3095   6.9442   6.9698   7.2582   7.2623   7.4422   7.4603
     8.4912   8.4932   8.7904   8.7942   9.4768   9.4781  10.0185  10.0236
    10.4803  10.4866  10.6523  10.6611  10.9944  11.0010  12.2476  12.2536
    13.9771  13.9885  17.4260  17.4266  17.8706  17.8730

     occupation numbers 
     0.0625   0.0625   0.0625   0.0625   0.0625   0.0625   0.0625   0.0625
     0.0625   0.0625   0.0625   0.0625   0.0625   0.0625   0.0625   0.0625
     0.0625   0.0625   0.0625   0.0625   0.0625   0.0625   0.0625   0.0625
     0.0625   0.0625   0.0625   0.0625   0.0625   0.0625   0.0625   0.0625
     0.0625   0.0625   0.0625   0.0625   0.0615   0.0614   0.0009   0.0008
     0.0000   0.0000   0.0000   0.0000   0.0000   0.0000

     the Fermi energy is    11.6102 ev

!    total energy              =    -537.95880640 Ry
     Harris-Foulkes estimate   =    -537.95879473 Ry
     estimated scf accuracy    <          3.5E-09 Ry

     The total energy is the sum of the following terms:

     one-electron contribution =     -32.89593916 Ry
     hartree contribution      =      83.65762272 Ry
     xc contribution           =    -199.61406043 Ry
     ewald contribution        =    -389.44315552 Ry
     Hubbard energy            =       0.34513669 Ry
     smearing contrib. (-TS)   =      -0.00841070 Ry

     convergence has been achieved in  13 iterations

     init_run     :      6.83s CPU      6.93s WALL (       1 calls)
     electrons    :    380.69s CPU    383.53s WALL (       1 calls)

     Called by init_run:
     wfcinit      :      0.00s CPU      0.00s WALL (       1 calls)
     potinit      :      0.28s CPU      0.30s WALL (       1 calls)

     Called by electrons:
     c_bands      :    293.26s CPU    294.24s WALL (      13 calls)
     sum_band     :     64.00s CPU     64.42s WALL (      13 calls)
     v_of_rho     :      3.31s CPU      3.32s WALL (      14 calls)
     v_h          :      0.17s CPU      0.17s WALL (      14 calls)
     v_xc         :      3.14s CPU      3.15s WALL (      14 calls)
     newd         :     21.08s CPU     21.10s WALL (      14 calls)
     mix_rho      :      0.32s CPU      0.32s WALL (      13 calls)

     Called by c_bands:
     init_us_2    :      3.14s CPU      3.13s WALL (     936 calls)
     cegterg      :    284.23s CPU    284.78s WALL (     468 calls)

     Called by sum_band:
     sum_band:bec :      0.35s CPU      0.35s WALL (     468 calls)
     addusdens    :     14.54s CPU     14.54s WALL (      13 calls)

     Called by *egterg:
     h_psi        :    212.94s CPU    213.46s WALL (    1810 calls)
     s_psi        :     12.24s CPU     12.24s WALL (    1810 calls)
     g_psi        :      1.10s CPU      1.10s WALL (    1342 calls)
     cdiaghg      :     20.35s CPU     20.36s WALL (    1774 calls)
     cegterg:over :     13.93s CPU     13.94s WALL (    1342 calls)
     cegterg:upda :      8.94s CPU      8.97s WALL (    1342 calls)
     cegterg:last :      7.02s CPU      7.02s WALL (     536 calls)

     Called by h_psi:
     h_psi:vloc   :    173.35s CPU    173.80s WALL (    1810 calls)
     h_psi:vnl    :     25.00s CPU     25.06s WALL (    1810 calls)
     add_vuspsi   :     12.27s CPU     12.33s WALL (    1810 calls)
     vhpsi        :     14.13s CPU     14.15s WALL (    1810 calls)

     General routines
     calbec       :     26.65s CPU     26.69s WALL (    4556 calls)
     fft          :      2.14s CPU      2.15s WALL (     219 calls)
     ffts         :      0.06s CPU      0.07s WALL (      27 calls)
     fftw         :    172.24s CPU    172.36s WALL (  130828 calls)
     interpolate  :      0.36s CPU      0.36s WALL (      27 calls)
     davcio       :      0.01s CPU      0.78s WALL (     972 calls)

     Parallel routines
     fft_scatter  :     39.34s CPU     39.60s WALL (  131074 calls)
     Hubbard U routines
     new_ns       :      2.65s CPU      2.97s WALL (      13 calls)
     vhpsi        :     14.13s CPU     14.15s WALL (    1810 calls)

     PWSCF        :  6m27.93s CPU     6m30.94s WALL


   This run was terminated on:  15:43:27  11Nov2012            

=------------------------------------------------------------------------------=
