 
Job started on n9 at Sun Nov 11 14:36:15 EST 2012

     Program PWSCF v.5.0.1 starts on 11Nov2012 at 14:36:17 

     This program is part of the open-source Quantum ESPRESSO suite
     for quantum simulation of materials; please cite
         "P. Giannozzi et al., J. Phys.:Condens. Matter 21 395502 (2009);
          URL http://www.quantum-espresso.org", 
     in publications or presentations arising from this work. More details at
     http://www.quantum-espresso.org/quote.php

     Parallel version (MPI), running on     2 processors
     R & G space division:  proc/pool =    2

     Current dimensions of program PWSCF are:
     Max number of different atomic species (ntypx) = 10
     Max number of k-points (npk) =  40000
     Max angular momentum in pseudopotentials (lmaxx) =  3
     Reading input from CoLaO_U200_init.in
               file Co.pbe-nd-rrkjus.UPF: wavefunction(s)  4S 3D renormalized
               file Co.pbe-nd-rrkjus.UPF: wavefunction(s)  4S 3D renormalized
               file O.pbe-rrkjus.UPF: wavefunction(s)  2S renormalized

     Subspace diagonalization in iterative solution of the eigenvalue problem:
     a serial algorithm will be used


     Parallelization info
     --------------------
     sticks:   dense  smooth     PW     G-vecs:    dense   smooth      PW
     Min        1112     444    131                34808     8786    1448
     Max        1113     445    132                34809     8787    1449
     Sum        2225     889    263                69617    17573    2897


     Title: 
     GGA + U, U = 2.000, init                                                   


     bravais-lattice index     =            5
     lattice parameter (alat)  =      10.3292  a.u.
     unit-cell volume          =     793.0599 (a.u.)^3
     number of atoms/cell      =           10
     number of atomic types    =            4
     number of electrons       =        76.00
     number of Kohn-Sham states=           46
     kinetic-energy cutoff     =      30.0000  Ry
     charge density cutoff     =     300.0000  Ry
     convergence threshold     =      1.0E-08
     mixing beta               =       0.2000
     number of iterations used =            8  plain     mixing
     Exchange-correlation      =  SLA  PW   PBE  PBE ( 1 4 3 4 0)
     EXX-fraction              =        0.00

     celldm(1)=  10.329242  celldm(2)=   0.000000  celldm(3)=   0.000000
     celldm(4)=   0.488100  celldm(5)=   0.000000  celldm(6)=   0.000000

     crystal axes: (cart. coord. in units of alat)
               a(1) = (   0.505915  -0.292090   0.811624 )  
               a(2) = (   0.000000   0.584180   0.811624 )  
               a(3) = (  -0.505915  -0.292090   0.811624 )  

     reciprocal axes: (cart. coord. in units 2 pi/alat)
               b(1) = (  0.988308 -0.570600  0.410699 )  
               b(2) = (  0.000000  1.141200  0.410699 )  
               b(3) = ( -0.988308 -0.570600  0.410699 )  


     PseudoPot. # 1 for Co read from file:
     /home/mcurnan/dft-course/Project1/example_LaCoO3/Co.pbe-nd-rrkjus.UPF
     MD5 check sum: 3e47a84addf5e975e0edeaeee2a73f59
     Pseudo is Ultrasoft + core correction, Zval =  9.0
     Generated by new atomic code, or converted to UPF format
     Using radial grid of  961 points,  6 beta functions with: 
                l(1) =   0
                l(2) =   0
                l(3) =   1
                l(4) =   1
                l(5) =   2
                l(6) =   2
     Q(r) pseudized with 0 coefficients 


     PseudoPot. # 2 for Co read from file:
     /home/mcurnan/dft-course/Project1/example_LaCoO3/Co.pbe-nd-rrkjus.UPF
     MD5 check sum: 3e47a84addf5e975e0edeaeee2a73f59
     Pseudo is Ultrasoft + core correction, Zval =  9.0
     Generated by new atomic code, or converted to UPF format
     Using radial grid of  961 points,  6 beta functions with: 
                l(1) =   0
                l(2) =   0
                l(3) =   1
                l(4) =   1
                l(5) =   2
                l(6) =   2
     Q(r) pseudized with 0 coefficients 


     PseudoPot. # 3 for La read from file:
     /home/mcurnan/dft-course/Project1/example_LaCoO3/La.pbe-nsp-van.UPF
     MD5 check sum: b2f11743f52dde65f77d1302becd7929
     Pseudo is Ultrasoft + core correction, Zval = 11.0
     Generated by new atomic code, or converted to UPF format
     Using radial grid of  907 points,  6 beta functions with: 
                l(1) =   0
                l(2) =   0
                l(3) =   1
                l(4) =   1
                l(5) =   2
                l(6) =   2
     Q(r) pseudized with  6 coefficients,  rinner =    1.200   1.200   1.200
                                                       1.200   1.200

     PseudoPot. # 4 for O  read from file:
     /home/mcurnan/dft-course/Project1/example_LaCoO3/O.pbe-rrkjus.UPF
     MD5 check sum: 390ba29e75625707450f3bd3f0eb6be9
     Pseudo is Ultrasoft, Zval =  6.0
     Generated by new atomic code, or converted to UPF format
     Using radial grid of 1269 points,  4 beta functions with: 
                l(1) =   0
                l(2) =   0
                l(3) =   1
                l(4) =   1
     Q(r) pseudized with 0 coefficients 


     atomic species   valence    mass     pseudopotential
        Co1            9.00     1.00000     Co( 1.00)
        Co2            9.00     1.00000     Co( 1.00)
        La1           11.00     1.00000     La( 1.00)
        O1             6.00     1.00000     O ( 1.00)
 -----
     simplified LDA+U calculation, Hubbard_lmax = 2
     atomic species  L   Hubbard U  Hubbard alpha
        Co1          2    0.000000    0.000000
        Co2          2    0.000000    0.000000
        La1          2    0.000000    0.000000
        O1           1    0.000000    0.000000
 -----

      6 Sym. Ops., with inversion, found


                                    s                        frac. trans.

      isym =  1     identity                                     

 cryst.   s( 1) = (     1          0          0      )
                  (     0          1          0      )
                  (     0          0          1      )

 cart.    s( 1) = (  1.0000000  0.0000000  0.0000000 )
                  (  0.0000000  1.0000000  0.0000000 )
                  (  0.0000000  0.0000000  1.0000000 )


      isym =  2     120 deg rotation - cryst. axis [0,0,1]       

 cryst.   s( 2) = (     0          1          0      )
                  (     0          0          1      )
                  (     1          0          0      )

 cart.    s( 2) = ( -0.5000000 -0.8660254  0.0000000 )
                  (  0.8660254 -0.5000000  0.0000000 )
                  (  0.0000000  0.0000000  1.0000000 )


      isym =  3     120 deg rotation - cryst. axis [0,0,-1]      

 cryst.   s( 3) = (     0          0          1      )
                  (     1          0          0      )
                  (     0          1          0      )

 cart.    s( 3) = ( -0.5000000  0.8660254  0.0000000 )
                  ( -0.8660254 -0.5000000  0.0000000 )
                  (  0.0000000  0.0000000  1.0000000 )


      isym =  4     inversion                                    

 cryst.   s( 4) = (    -1          0          0      )
                  (     0         -1          0      )
                  (     0          0         -1      )

 cart.    s( 4) = ( -1.0000000  0.0000000  0.0000000 )
                  (  0.0000000 -1.0000000  0.0000000 )
                  (  0.0000000  0.0000000 -1.0000000 )


      isym =  5     inv. 180 deg rotation - cart. axis [0,1,0]   

 cryst.   s( 5) = (     0         -1          0      )
                  (     0          0         -1      )
                  (    -1          0          0      )

 cart.    s( 5) = (  0.5000000  0.8660254  0.0000000 )
                  ( -0.8660254  0.5000000  0.0000000 )
                  (  0.0000000  0.0000000 -1.0000000 )


      isym =  6     inv. 180 deg rotation - cart. axis [1,0,0]   

 cryst.   s( 6) = (     0          0         -1      )
                  (    -1          0          0      )
                  (     0         -1          0      )

 cart.    s( 6) = (  0.5000000 -0.8660254  0.0000000 )
                  (  0.8660254  0.5000000  0.0000000 )
                  (  0.0000000  0.0000000 -1.0000000 )


     point group S_6 (-3)   
     there are  6 classes
     the character table:

       E     C3    C3^2  i     S6^5  S6   
A_g    1.00  1.00  1.00  1.00  1.00  1.00
E_g    1.00 -0.50 -0.50  1.00 -0.50 -0.50
E_g*   1.00 -0.50 -0.50  1.00 -0.50 -0.50
A_u    1.00  1.00  1.00 -1.00 -1.00 -1.00
E_u    1.00 -0.50 -0.50 -1.00  0.50  0.50
E_u*   1.00 -0.50 -0.50 -1.00  0.50  0.50
     imaginary part
A_g    0.00  0.00  0.00  0.00  0.00  0.00
E_g    0.00  0.87 -0.87  0.00  0.87 -0.87
E_g*   0.00 -0.87  0.87  0.00 -0.87  0.87
A_u    0.00  0.00  0.00  0.00  0.00  0.00
E_u    0.00  0.87 -0.87  0.00 -0.87  0.87
E_u*   0.00 -0.87  0.87  0.00  0.87 -0.87

     the symmetry operations in each class:
     E        1
     C3       2
     C3^2     3
     i        4
     S6^5     5
     S6       6

   Cartesian axes

     site n.     atom                  positions (alat units)
         1           Co1 tau(   1) = (   0.0000000   0.0000000   0.0000000  )
         2           Co2 tau(   2) = (   0.0000000   0.0000000   1.2174358  )
         3           La1 tau(   3) = (   0.0000000   0.0000000   0.6087179  )
         4           La1 tau(   4) = (   0.0000000   0.0000000   1.8261537  )
         5           O1  tau(   5) = (  -0.2839701  -0.0933228   1.0141240  )
         6           O1  tau(   6) = (   0.0611651   0.2925867   1.0141240  )
         7           O1  tau(   7) = (   0.2228050  -0.1992639   1.0141240  )
         8           O1  tau(   8) = (  -0.0611651  -0.2925867   1.4207476  )
         9           O1  tau(   9) = (   0.2839701   0.0933228   1.4207476  )
        10           O1  tau(  10) = (  -0.2228050   0.1992639   1.4207476  )

   Crystallographic axes

     site n.     atom                  positions (cryst. coord.)
         1           Co1 tau(   1) = (  0.0000000  0.0000000  0.0000000  )
         2           Co2 tau(   2) = (  0.5000000  0.5000000  0.5000000  )
         3           La1 tau(   3) = (  0.2500000  0.2500000  0.2500000  )
         4           La1 tau(   4) = (  0.7500000  0.7500000  0.7500000  )
         5           O1  tau(   5) = (  0.1891000  0.3100000  0.7504000  )
         6           O1  tau(   6) = (  0.3100000  0.7504000  0.1891000  )
         7           O1  tau(   7) = (  0.7504000  0.1891000  0.3100000  )
         8           O1  tau(   8) = (  0.6900000  0.2496000  0.8109000  )
         9           O1  tau(   9) = (  0.8109000  0.6900000  0.2496000  )
        10           O1  tau(  10) = (  0.2496000  0.8109000  0.6900000  )

     number of k points=    14  gaussian smearing, width (Ry)=  0.0300
                       cart. coord. in units 2pi/alat
        k(    1) = (   0.0000000   0.0000000   0.0000000), wk =   0.0312500
        k(    2) = (  -0.2470771  -0.1426500   0.1026748), wk =   0.1875000
        k(    3) = (   0.4941541   0.2853000  -0.2053496), wk =   0.0937500
        k(    4) = (  -0.2470771   0.1426500   0.2053496), wk =   0.1875000
        k(    5) = (   0.4941541   0.5706001  -0.1026748), wk =   0.1875000
        k(    6) = (   0.2470771   0.4279500   0.0000000), wk =   0.1875000
        k(    7) = (   0.4941541  -0.2853000  -0.4106993), wk =   0.0937500
        k(    8) = (   0.0000000   0.0000000   0.3080244), wk =   0.0625000
        k(    9) = (   0.7412312   0.4279500   0.0000000), wk =   0.1875000
        k(   10) = (   0.4941541   0.2853000   0.1026748), wk =   0.1875000
        k(   11) = (   0.7412312  -0.4279500  -0.3080244), wk =   0.1875000
        k(   12) = (   0.4941541  -0.5706001  -0.2053496), wk =   0.1875000
        k(   13) = (   0.0000000   0.0000000  -0.6160489), wk =   0.0312500
        k(   14) = (   0.4941541  -0.5706001   0.1026748), wk =   0.1875000

                       cryst. coord.
        k(    1) = (   0.0000000   0.0000000   0.0000000), wk =   0.0312500
        k(    2) = (   0.0000000   0.0000000   0.2500000), wk =   0.1875000
        k(    3) = (   0.0000000   0.0000000  -0.5000000), wk =   0.0937500
        k(    4) = (   0.0000000   0.2500000   0.2500000), wk =   0.1875000
        k(    5) = (   0.0000000   0.2500000  -0.5000000), wk =   0.1875000
        k(    6) = (   0.0000000   0.2500000  -0.2500000), wk =   0.1875000
        k(    7) = (   0.0000000  -0.5000000  -0.5000000), wk =   0.0937500
        k(    8) = (   0.2500000   0.2500000   0.2500000), wk =   0.0625000
        k(    9) = (   0.2500000   0.2500000  -0.5000000), wk =   0.1875000
        k(   10) = (   0.2500000   0.2500000  -0.2500000), wk =   0.1875000
        k(   11) = (   0.2500000  -0.5000000  -0.5000000), wk =   0.1875000
        k(   12) = (   0.2500000  -0.5000000  -0.2500000), wk =   0.1875000
        k(   13) = (  -0.5000000  -0.5000000  -0.5000000), wk =   0.0312500
        k(   14) = (   0.5000000  -0.2500000   0.0000000), wk =   0.1875000

     Dense  grid:    69617 G-vectors     FFT dimensions: (  60,  60,  60)

     Smooth grid:    17573 G-vectors     FFT dimensions: (  40,  40,  40)

     Largest allocated arrays     est. size (Mb)     dimensions
        Kohn-Sham Wavefunctions         0.78 Mb     (   1117,   46)
        Atomic wavefunctions            1.06 Mb     (   1117,   62)
        NL pseudopotentials             2.05 Mb     (   1117,  120)
        Each V/rho on FFT grid          1.65 Mb     ( 108000)
        Each G-vector array             0.27 Mb     (  34808)
        G-vector shells                 0.04 Mb     (   4682)
     Largest temporary arrays     est. size (Mb)     dimensions
        Auxiliary wavefunctions         3.14 Mb     (   1117,  184)
        Each subspace H/S matrix        0.52 Mb     ( 184, 184)
        Each <psi_i|beta_j> matrix      0.08 Mb     (    120,   46)
        Arrays for rho mixing          13.18 Mb     ( 108000,   8)

     Check: negative/imaginary core charge=   -0.000028    0.000000

     Initial potential from superposition of free atoms

     starting charge   75.93482, renormalised to   76.00000
 --- in v_hubbard ---
Hubbard energy    0.0000
 -------
     Number of +U iterations with fixed ns =  0
     Starting occupations:
 --- enter write_ns ---
 LDA+U parameters:
U( 1)     =  0.00000000
alpha( 1) =  0.00000000
U( 2)     =  0.00000000
alpha( 2) =  0.00000000
U( 3)     =  0.00000000
alpha( 3) =  0.00000000
U( 4)     =  0.00000000
alpha( 4) =  0.00000000
atom    1   Tr[ns(na)] =   7.00000
    eigenvalues: 
  0.700  0.700  0.700  0.700  0.700
    eigenvectors:
  1.000  0.000  0.000  0.000  0.000
  0.000  1.000  0.000  0.000  0.000
  0.000  0.000  1.000  0.000  0.000
  0.000  0.000  0.000  1.000  0.000
  0.000  0.000  0.000  0.000  1.000
    occupations:
  0.700  0.000  0.000  0.000  0.000
  0.000  0.700  0.000  0.000  0.000
  0.000  0.000  0.700  0.000  0.000
  0.000  0.000  0.000  0.700  0.000
  0.000  0.000  0.000  0.000  0.700
atom    2   Tr[ns(na)] =   7.00000
    eigenvalues: 
  0.700  0.700  0.700  0.700  0.700
    eigenvectors:
  1.000  0.000  0.000  0.000  0.000
  0.000  1.000  0.000  0.000  0.000
  0.000  0.000  1.000  0.000  0.000
  0.000  0.000  0.000  1.000  0.000
  0.000  0.000  0.000  0.000  1.000
    occupations:
  0.700  0.000  0.000  0.000  0.000
  0.000  0.700  0.000  0.000  0.000
  0.000  0.000  0.700  0.000  0.000
  0.000  0.000  0.000  0.700  0.000
  0.000  0.000  0.000  0.000  0.700
atom    3   Tr[ns(na)] =   1.00000
    eigenvalues: 
  0.100  0.100  0.100  0.100  0.100
    eigenvectors:
  1.000  0.000  0.000  0.000  0.000
  0.000  1.000  0.000  0.000  0.000
  0.000  0.000  1.000  0.000  0.000
  0.000  0.000  0.000  1.000  0.000
  0.000  0.000  0.000  0.000  1.000
    occupations:
  0.100  0.000  0.000  0.000  0.000
  0.000  0.100  0.000  0.000  0.000
  0.000  0.000  0.100  0.000  0.000
  0.000  0.000  0.000  0.100  0.000
  0.000  0.000  0.000  0.000  0.100
atom    4   Tr[ns(na)] =   1.00000
    eigenvalues: 
  0.100  0.100  0.100  0.100  0.100
    eigenvectors:
  1.000  0.000  0.000  0.000  0.000
  0.000  1.000  0.000  0.000  0.000
  0.000  0.000  1.000  0.000  0.000
  0.000  0.000  0.000  1.000  0.000
  0.000  0.000  0.000  0.000  1.000
    occupations:
  0.100  0.000  0.000  0.000  0.000
  0.000  0.100  0.000  0.000  0.000
  0.000  0.000  0.100  0.000  0.000
  0.000  0.000  0.000  0.100  0.000
  0.000  0.000  0.000  0.000  0.100
atom    5   Tr[ns(na)] =   4.00000
    eigenvalues: 
  0.667  0.667  0.667
    eigenvectors:
  1.000  0.000  0.000
  0.000  1.000  0.000
  0.000  0.000  1.000
    occupations:
  0.667  0.000  0.000
  0.000  0.667  0.000
  0.000  0.000  0.667
atom    6   Tr[ns(na)] =   4.00000
    eigenvalues: 
  0.667  0.667  0.667
    eigenvectors:
  1.000  0.000  0.000
  0.000  1.000  0.000
  0.000  0.000  1.000
    occupations:
  0.667  0.000  0.000
  0.000  0.667  0.000
  0.000  0.000  0.667
atom    7   Tr[ns(na)] =   4.00000
    eigenvalues: 
  0.667  0.667  0.667
    eigenvectors:
  1.000  0.000  0.000
  0.000  1.000  0.000
  0.000  0.000  1.000
    occupations:
  0.667  0.000  0.000
  0.000  0.667  0.000
  0.000  0.000  0.667
atom    8   Tr[ns(na)] =   4.00000
    eigenvalues: 
  0.667  0.667  0.667
    eigenvectors:
  1.000  0.000  0.000
  0.000  1.000  0.000
  0.000  0.000  1.000
    occupations:
  0.667  0.000  0.000
  0.000  0.667  0.000
  0.000  0.000  0.667
atom    9   Tr[ns(na)] =   4.00000
    eigenvalues: 
  0.667  0.667  0.667
    eigenvectors:
  1.000  0.000  0.000
  0.000  1.000  0.000
  0.000  0.000  1.000
    occupations:
  0.667  0.000  0.000
  0.000  0.667  0.000
  0.000  0.000  0.667
atom   10   Tr[ns(na)] =   4.00000
    eigenvalues: 
  0.667  0.667  0.667
    eigenvectors:
  1.000  0.000  0.000
  0.000  1.000  0.000
  0.000  0.000  1.000
    occupations:
  0.667  0.000  0.000
  0.000  0.667  0.000
  0.000  0.000  0.667
N of occupied +U levels =  40.0000000
 --- exit write_ns ---
 Atomic wfc used for LDA+U Projector are NOT orthogonalized
     Starting wfc are   62 randomized atomic wfcs

     total cpu time spent up to now is       14.0 secs

     per-process dynamical memory:    36.9 Mb

     Self-consistent Calculation

     iteration #  1     ecut=    30.00 Ry     beta=0.20
     Davidson diagonalization with overlap
     ethr =  1.00E-02,  avg # of iterations =  2.0
 --- enter write_ns ---
 LDA+U parameters:
U( 1)     =  0.00000000
alpha( 1) =  0.00000000
U( 2)     =  0.00000000
alpha( 2) =  0.00000000
U( 3)     =  0.00000000
alpha( 3) =  0.00000000
U( 4)     =  0.00000000
alpha( 4) =  0.00000000
atom    1   Tr[ns(na)] =   6.58596
    eigenvalues: 
  0.281  0.281  0.908  0.911  0.911
    eigenvectors:
  0.000  0.000  1.000  0.000  0.000
  0.356  0.293  0.000  0.002  0.349
  0.293  0.356  0.000  0.349  0.002
  0.318  0.034  0.000  0.530  0.119
  0.034  0.318  0.000  0.119  0.530
    occupations:
  0.908  0.000  0.000  0.000  0.000
  0.000  0.503  0.000 -0.149  0.261
  0.000  0.000  0.503  0.261  0.149
  0.000 -0.149  0.261  0.690  0.000
  0.000  0.261  0.149  0.000  0.690
atom    2   Tr[ns(na)] =   6.57686
    eigenvalues: 
  0.279  0.279  0.908  0.911  0.911
    eigenvectors:
  0.000  0.000  1.000  0.000  0.000
  0.649  0.000  0.000  0.268  0.083
  0.000  0.649  0.000  0.083  0.268
  0.085  0.267  0.000  0.473  0.175
  0.267  0.085  0.000  0.175  0.473
    occupations:
  0.908  0.000  0.000  0.000  0.000
  0.000  0.501  0.000  0.149  0.262
  0.000  0.000  0.501  0.262 -0.149
  0.000  0.149  0.262  0.689  0.000
  0.000  0.262 -0.149  0.000  0.689
atom    3   Tr[ns(na)] =   3.61131
    eigenvalues: 
  0.345  0.345  0.365  0.376  0.376
    eigenvectors:
  0.000  0.000  1.000  0.000  0.000
  0.918  0.080  0.000  0.000  0.002
  0.080  0.918  0.000  0.002  0.000
  0.000  0.001  0.000  0.892  0.106
  0.001  0.000  0.000  0.106  0.892
    occupations:
  0.365  0.000  0.000  0.000  0.000
  0.000  0.345  0.000  0.000  0.001
  0.000  0.000  0.345  0.001  0.000
  0.000  0.000  0.001  0.376  0.000
  0.000  0.001  0.000  0.000  0.376
atom    4   Tr[ns(na)] =   3.61131
    eigenvalues: 
  0.345  0.345  0.365  0.376  0.376
    eigenvectors:
  0.000  0.000  1.000  0.000  0.000
  0.918  0.080  0.000  0.000  0.002
  0.080  0.918  0.000  0.002  0.000
  0.000  0.001  0.000  0.892  0.106
  0.001  0.000  0.000  0.106  0.892
    occupations:
  0.365  0.000  0.000  0.000  0.000
  0.000  0.345  0.000  0.000  0.001
  0.000  0.000  0.345  0.001  0.000
  0.000  0.000  0.001  0.376  0.000
  0.000  0.001  0.000  0.000  0.376
atom    5   Tr[ns(na)] =   5.82386
    eigenvalues: 
  0.954  0.977  0.981
    eigenvectors:
  0.318  0.000  0.682
  0.509  0.252  0.239
  0.173  0.748  0.079
    occupations:
  0.972  0.011  0.006
  0.011  0.966 -0.007
  0.006 -0.007  0.974
atom    6   Tr[ns(na)] =   5.82386
    eigenvalues: 
  0.954  0.977  0.981
    eigenvectors:
  0.318  0.000  0.682
  0.000  1.000  0.000
  0.682  0.000  0.318
    occupations:
  0.972  0.000 -0.013
  0.000  0.977  0.000
 -0.013  0.000  0.962
atom    7   Tr[ns(na)] =   5.82386
    eigenvalues: 
  0.954  0.977  0.981
    eigenvectors:
  0.318  0.000  0.682
  0.513  0.248  0.238
  0.168  0.752  0.080
    occupations:
  0.972 -0.011  0.006
 -0.011  0.966  0.007
  0.006  0.007  0.974
atom    8   Tr[ns(na)] =   5.82386
    eigenvalues: 
  0.954  0.977  0.981
    eigenvectors:
  0.318  0.000  0.682
  0.000  1.000  0.000
  0.682  0.000  0.318
    occupations:
  0.972  0.000 -0.013
  0.000  0.977  0.000
 -0.013  0.000  0.962
atom    9   Tr[ns(na)] =   5.82386
    eigenvalues: 
  0.954  0.977  0.981
    eigenvectors:
  0.318  0.000  0.682
  0.509  0.252  0.239
  0.173  0.748  0.079
    occupations:
  0.972  0.011  0.006
  0.011  0.966 -0.007
  0.006 -0.007  0.974
atom   10   Tr[ns(na)] =   5.82386
    eigenvalues: 
  0.954  0.977  0.981
    eigenvectors:
  0.318  0.000  0.682
  0.513  0.248  0.238
  0.168  0.752  0.080
    occupations:
  0.972 -0.011  0.006
 -0.011  0.966  0.007
  0.006  0.007  0.974
N of occupied +U levels =  55.3285925
 --- exit write_ns ---
 --- in v_hubbard ---
Hubbard energy    0.0000
 -------

     total cpu time spent up to now is       28.5 secs

     total energy              =    -537.25411260 Ry
     Harris-Foulkes estimate   =    -539.67237978 Ry
     estimated scf accuracy    <       7.40287463 Ry

     iteration #  2     ecut=    30.00 Ry     beta=0.20
     Davidson diagonalization with overlap
     ethr =  9.74E-03,  avg # of iterations =  2.3
 --- enter write_ns ---
 LDA+U parameters:
U( 1)     =  0.00000000
alpha( 1) =  0.00000000
U( 2)     =  0.00000000
alpha( 2) =  0.00000000
U( 3)     =  0.00000000
alpha( 3) =  0.00000000
U( 4)     =  0.00000000
alpha( 4) =  0.00000000
atom    1   Tr[ns(na)] =   8.18870
    eigenvalues: 
  0.622  0.622  0.950  0.951  0.951
    eigenvectors:
  0.000  0.000  1.000  0.000  0.000
  0.317  0.335  0.000  0.010  0.338
  0.335  0.317  0.000  0.338  0.010
  0.283  0.065  0.000  0.505  0.147
  0.065  0.283  0.000  0.147  0.505
    occupations:
  0.950  0.000  0.000  0.000  0.000
  0.000  0.736  0.000 -0.050  0.148
  0.000  0.000  0.736  0.148  0.050
  0.000 -0.050  0.148  0.836  0.000
  0.000  0.148  0.050  0.000  0.836
atom    2   Tr[ns(na)] =   8.24981
    eigenvalues: 
  0.627  0.627  0.957  0.957  0.957
    eigenvectors:
  0.000  0.000  1.000  0.000  0.000
  0.622  0.031  0.000  0.212  0.136
  0.031  0.622  0.000  0.136  0.212
  0.004  0.343  0.000  0.465  0.187
  0.343  0.004  0.000  0.187  0.465
    occupations:
  0.957  0.000  0.000  0.000  0.000
  0.000  0.742  0.000  0.051  0.149
  0.000  0.000  0.742  0.149 -0.051
  0.000  0.051  0.149  0.842  0.000
  0.000  0.149 -0.051  0.000  0.842
atom    3   Tr[ns(na)] =   3.54689
    eigenvalues: 
  0.330  0.330  0.360  0.377  0.377
    eigenvectors:
  0.000  0.000  1.000  0.000  0.000
  0.737  0.154  0.000  0.017  0.091
  0.154  0.737  0.000  0.091  0.017
  0.019  0.090  0.000  0.747  0.144
  0.090  0.019  0.000  0.144  0.747
    occupations:
  0.360  0.000  0.000  0.000  0.000
  0.000  0.335  0.000  0.000  0.015
  0.000  0.000  0.335  0.015  0.000
  0.000  0.000  0.015  0.372  0.000
  0.000  0.015  0.000  0.000  0.372
atom    4   Tr[ns(na)] =   3.54689
    eigenvalues: 
  0.330  0.330  0.360  0.377  0.377
    eigenvectors:
  0.000  0.000  1.000  0.000  0.000
  0.737  0.154  0.000  0.017  0.091
  0.154  0.737  0.000  0.091  0.017
  0.019  0.090  0.000  0.747  0.144
  0.090  0.019  0.000  0.144  0.747
    occupations:
  0.360  0.000  0.000  0.000  0.000
  0.000  0.335  0.000  0.000  0.015
  0.000  0.000  0.335  0.015  0.000
  0.000  0.000  0.015  0.372  0.000
  0.000  0.015  0.000  0.000  0.372
atom    5   Tr[ns(na)] =   5.42948
    eigenvalues: 
  0.831  0.933  0.951
    eigenvectors:
  0.346  0.000  0.654
  0.492  0.248  0.260
  0.162  0.752  0.086
    occupations:
  0.910  0.050  0.029
  0.050  0.887 -0.026
  0.029 -0.026  0.918
atom    6   Tr[ns(na)] =   5.42948
    eigenvalues: 
  0.831  0.933  0.951
    eigenvectors:
  0.346  0.000  0.654
  0.000  1.000  0.000
  0.654  0.000  0.346
    occupations:
  0.910  0.000 -0.057
  0.000  0.933  0.000
 -0.057  0.000  0.872
atom    7   Tr[ns(na)] =   5.42948
    eigenvalues: 
  0.831  0.933  0.951
    eigenvectors:
  0.346  0.000  0.654
  0.489  0.252  0.258
  0.165  0.748  0.087
    occupations:
  0.910 -0.050  0.029
 -0.050  0.888  0.026
  0.029  0.026  0.917
atom    8   Tr[ns(na)] =   5.42948
    eigenvalues: 
  0.831  0.933  0.951
    eigenvectors:
  0.346  0.000  0.654
  0.000  1.000  0.000
  0.654  0.000  0.346
    occupations:
  0.910  0.000 -0.057
  0.000  0.933  0.000
 -0.057  0.000  0.872
atom    9   Tr[ns(na)] =   5.42948
    eigenvalues: 
  0.831  0.933  0.951
    eigenvectors:
  0.346  0.000  0.654
  0.492  0.248  0.260
  0.162  0.752  0.086
    occupations:
  0.910  0.050  0.029
  0.050  0.887 -0.026
  0.029 -0.026  0.918
atom   10   Tr[ns(na)] =   5.42948
    eigenvalues: 
  0.831  0.933  0.951
    eigenvectors:
  0.346  0.000  0.654
  0.489  0.252  0.258
  0.165  0.748  0.087
    occupations:
  0.910 -0.050  0.029
 -0.050  0.888  0.026
  0.029  0.026  0.917
N of occupied +U levels =  56.1091869
 --- exit write_ns ---
 --- in v_hubbard ---
Hubbard energy    0.0000
 -------

     total cpu time spent up to now is       42.6 secs

     total energy              =    -538.29774193 Ry
     Harris-Foulkes estimate   =    -538.37543972 Ry
     estimated scf accuracy    <       0.35342465 Ry

     iteration #  3     ecut=    30.00 Ry     beta=0.20
     Davidson diagonalization with overlap
     ethr =  4.65E-04,  avg # of iterations =  2.0
 --- enter write_ns ---
 LDA+U parameters:
U( 1)     =  0.00000000
alpha( 1) =  0.00000000
U( 2)     =  0.00000000
alpha( 2) =  0.00000000
U( 3)     =  0.00000000
alpha( 3) =  0.00000000
U( 4)     =  0.00000000
alpha( 4) =  0.00000000
atom    1   Tr[ns(na)] =   8.12145
    eigenvalues: 
  0.587  0.587  0.962  0.962  0.963
    eigenvectors:
  0.000  0.000  0.000  0.000  1.000
  0.333  0.321  0.003  0.343  0.000
  0.321  0.333  0.343  0.003  0.000
  0.292  0.055  0.515  0.139  0.000
  0.055  0.292  0.139  0.515  0.000
    occupations:
  0.963  0.000  0.000  0.000  0.000
  0.000  0.717  0.000 -0.067  0.165
  0.000  0.000  0.717  0.165  0.067
  0.000 -0.067  0.165  0.832  0.000
  0.000  0.165  0.067  0.000  0.832
atom    2   Tr[ns(na)] =   7.84556
    eigenvalues: 
  0.562  0.562  0.932  0.934  0.934
    eigenvectors:
  0.000  0.000  1.000  0.000  0.000
  0.631  0.023  0.000  0.215  0.132
  0.023  0.631  0.000  0.132  0.215
  0.008  0.338  0.000  0.467  0.186
  0.338  0.008  0.000  0.186  0.467
    occupations:
  0.932  0.000  0.000  0.000  0.000
  0.000  0.691  0.000  0.060  0.167
  0.000  0.000  0.691  0.167 -0.060
  0.000  0.060  0.167  0.805  0.000
  0.000  0.167 -0.060  0.000  0.805
atom    3   Tr[ns(na)] =   3.68256
    eigenvalues: 
  0.343  0.343  0.372  0.391  0.391
    eigenvectors:
  0.000  0.000  1.000  0.000  0.000
  0.763  0.146  0.000  0.013  0.078
  0.146  0.763  0.000  0.078  0.013
  0.016  0.076  0.000  0.766  0.142
  0.076  0.016  0.000  0.142  0.766
    occupations:
  0.372  0.000  0.000  0.000  0.000
  0.000  0.348  0.000  0.000  0.014
  0.000  0.000  0.348  0.014  0.000
  0.000  0.000  0.014  0.387  0.000
  0.000  0.014  0.000  0.000  0.387
atom    4   Tr[ns(na)] =   3.68256
    eigenvalues: 
  0.343  0.343  0.372  0.391  0.391
    eigenvectors:
  0.000  0.000  1.000  0.000  0.000
  0.763  0.146  0.000  0.013  0.078
  0.146  0.763  0.000  0.078  0.013
  0.016  0.076  0.000  0.766  0.142
  0.076  0.016  0.000  0.142  0.766
    occupations:
  0.372  0.000  0.000  0.000  0.000
  0.000  0.348  0.000  0.000  0.014
  0.000  0.000  0.348  0.014  0.000
  0.000  0.000  0.014  0.387  0.000
  0.000  0.014  0.000  0.000  0.387
atom    5   Tr[ns(na)] =   5.47259
    eigenvalues: 
  0.850  0.937  0.950
    eigenvectors:
  0.338  0.000  0.661
  0.488  0.260  0.252
  0.174  0.740  0.086
    occupations:
  0.916  0.041  0.024
  0.041  0.898 -0.023
  0.024 -0.023  0.923
atom    6   Tr[ns(na)] =   5.47259
    eigenvalues: 
  0.850  0.937  0.950
    eigenvectors:
  0.338  0.000  0.661
  0.000  1.000  0.000
  0.661  0.000  0.338
    occupations:
  0.916  0.001 -0.047
  0.001  0.937  0.001
 -0.047  0.001  0.884
atom    7   Tr[ns(na)] =   5.47259
    eigenvalues: 
  0.850  0.937  0.950
    eigenvectors:
  0.338  0.000  0.661
  0.504  0.240  0.256
  0.157  0.760  0.083
    occupations:
  0.916 -0.041  0.023
 -0.041  0.896  0.023
  0.023  0.023  0.924
atom    8   Tr[ns(na)] =   5.47259
    eigenvalues: 
  0.850  0.937  0.950
    eigenvectors:
  0.338  0.000  0.661
  0.000  1.000  0.000
  0.661  0.000  0.338
    occupations:
  0.916  0.001 -0.047
  0.001  0.937  0.001
 -0.047  0.001  0.884
atom    9   Tr[ns(na)] =   5.47259
    eigenvalues: 
  0.850  0.937  0.950
    eigenvectors:
  0.338  0.000  0.661
  0.488  0.260  0.252
  0.174  0.740  0.086
    occupations:
  0.916  0.041  0.024
  0.041  0.898 -0.023
  0.024 -0.023  0.923
atom   10   Tr[ns(na)] =   5.47259
    eigenvalues: 
  0.850  0.937  0.950
    eigenvectors:
  0.338  0.000  0.661
  0.504  0.240  0.256
  0.157  0.760  0.083
    occupations:
  0.916 -0.041  0.023
 -0.041  0.896  0.023
  0.023  0.023  0.924
N of occupied +U levels =  56.1676281
 --- exit write_ns ---
 --- in v_hubbard ---
Hubbard energy    0.0000
 -------

     total cpu time spent up to now is       57.0 secs

     total energy              =    -538.31742907 Ry
     Harris-Foulkes estimate   =    -538.35203328 Ry
     estimated scf accuracy    <       0.16289374 Ry

     iteration #  4     ecut=    30.00 Ry     beta=0.20
     Davidson diagonalization with overlap
     ethr =  2.14E-04,  avg # of iterations =  1.9
 --- enter write_ns ---
 LDA+U parameters:
U( 1)     =  0.00000000
alpha( 1) =  0.00000000
U( 2)     =  0.00000000
alpha( 2) =  0.00000000
U( 3)     =  0.00000000
alpha( 3) =  0.00000000
U( 4)     =  0.00000000
alpha( 4) =  0.00000000
atom    1   Tr[ns(na)] =   7.22901
    eigenvalues: 
  0.557  0.557  0.829  0.835  0.835
    eigenvectors:
  0.000  0.000  1.000  0.000  0.000
  0.313  0.342  0.000  0.024  0.321
  0.342  0.313  0.000  0.321  0.024
  0.262  0.084  0.000  0.497  0.158
  0.084  0.262  0.000  0.158  0.497
    occupations:
  0.829  0.000  0.000  0.000  0.000
  0.000  0.653  0.000 -0.033  0.128
  0.000  0.000  0.653  0.128  0.033
  0.000 -0.033  0.128  0.739  0.000
  0.000  0.128  0.033  0.000  0.739
atom    2   Tr[ns(na)] =   8.74632
    eigenvalues: 
  0.705  0.705  0.987  0.987  0.989
    eigenvectors:
  0.000  0.000  0.000  0.000  1.000
  0.649  0.005  0.249  0.097  0.000
  0.005  0.649  0.097  0.249  0.000
  0.046  0.300  0.474  0.179  0.000
  0.300  0.046  0.179  0.474  0.000
    occupations:
  0.989  0.000  0.000  0.000  0.000
  0.000  0.803  0.000  0.060  0.120
  0.000  0.000  0.803  0.120 -0.060
  0.000  0.060  0.120  0.890  0.000
  0.000  0.120 -0.060  0.000  0.890
atom    3   Tr[ns(na)] =   3.75558
    eigenvalues: 
  0.351  0.351  0.379  0.398  0.398
    eigenvectors:
  0.000  0.000  1.000  0.000  0.000
  0.779  0.139  0.000  0.015  0.068
  0.139  0.779  0.000  0.068  0.015
  0.011  0.072  0.000  0.776  0.141
  0.072  0.011  0.000  0.141  0.776
    occupations:
  0.379  0.000  0.000  0.000  0.000
  0.000  0.355  0.000  0.000  0.013
  0.000  0.000  0.355  0.013  0.000
  0.000  0.000  0.013  0.394  0.000
  0.000  0.013  0.000  0.000  0.394
atom    4   Tr[ns(na)] =   3.75558
    eigenvalues: 
  0.351  0.351  0.379  0.398  0.398
    eigenvectors:
  0.000  0.000  1.000  0.000  0.000
  0.778  0.139  0.000  0.015  0.068
  0.139  0.778  0.000  0.068  0.015
  0.011  0.072  0.000  0.776  0.141
  0.072  0.011  0.000  0.141  0.776
    occupations:
  0.379  0.000  0.000  0.000  0.000
  0.000  0.355  0.000  0.000  0.013
  0.000  0.000  0.355  0.013  0.000
  0.000  0.000  0.013  0.394  0.000
  0.000  0.013  0.000  0.000  0.394
atom    5   Tr[ns(na)] =   5.44540
    eigenvalues: 
  0.849  0.932  0.942
    eigenvectors:
  0.341  0.000  0.659
  0.521  0.209  0.270
  0.138  0.791  0.071
    occupations:
  0.910  0.039  0.020
  0.039  0.891 -0.021
  0.020 -0.021  0.921
atom    6   Tr[ns(na)] =   5.44540
    eigenvalues: 
  0.849  0.932  0.942
    eigenvectors:
  0.341  0.000  0.659
  0.002  0.998  0.001
  0.657  0.002  0.341
    occupations:
  0.910 -0.002 -0.044
 -0.002  0.931 -0.002
 -0.044 -0.002  0.881
atom    7   Tr[ns(na)] =   5.44540
    eigenvalues: 
  0.849  0.932  0.942
    eigenvectors:
  0.341  0.000  0.659
  0.466  0.293  0.241
  0.193  0.707  0.100
    occupations:
  0.910 -0.037  0.024
 -0.037  0.896  0.023
  0.024  0.023  0.917
atom    8   Tr[ns(na)] =   5.44540
    eigenvalues: 
  0.849  0.932  0.942
    eigenvectors:
  0.341  0.000  0.659
  0.002  0.998  0.001
  0.657  0.002  0.341
    occupations:
  0.910 -0.002 -0.044
 -0.002  0.931 -0.002
 -0.044 -0.002  0.881
atom    9   Tr[ns(na)] =   5.44540
    eigenvalues: 
  0.849  0.932  0.942
    eigenvectors:
  0.341  0.000  0.659
  0.521  0.209  0.270
  0.138  0.791  0.071
    occupations:
  0.910  0.039  0.020
  0.039  0.891 -0.021
  0.020 -0.021  0.921
atom   10   Tr[ns(na)] =   5.44540
    eigenvalues: 
  0.849  0.932  0.942
    eigenvectors:
  0.341  0.000  0.659
  0.466  0.293  0.241
  0.193  0.707  0.100
    occupations:
  0.910 -0.037  0.024
 -0.037  0.896  0.023
  0.024  0.023  0.917
N of occupied +U levels =  56.1588764
 --- exit write_ns ---
 --- in v_hubbard ---
Hubbard energy    0.0000
 -------

     total cpu time spent up to now is       70.0 secs

     total energy              =    -538.28983615 Ry
     Harris-Foulkes estimate   =    -538.37667233 Ry
     estimated scf accuracy    <       1.25092315 Ry

     iteration #  5     ecut=    30.00 Ry     beta=0.20
     Davidson diagonalization with overlap
     ethr =  2.14E-04,  avg # of iterations =  1.0
 --- enter write_ns ---
 LDA+U parameters:
U( 1)     =  0.00000000
alpha( 1) =  0.00000000
U( 2)     =  0.00000000
alpha( 2) =  0.00000000
U( 3)     =  0.00000000
alpha( 3) =  0.00000000
U( 4)     =  0.00000000
alpha( 4) =  0.00000000
atom    1   Tr[ns(na)] =   8.13831
    eigenvalues: 
  0.607  0.607  0.950  0.952  0.952
    eigenvectors:
  0.000  0.000  1.000  0.000  0.000
  0.333  0.322  0.000  0.004  0.341
  0.322  0.333  0.000  0.341  0.004
  0.288  0.056  0.000  0.515  0.140
  0.056  0.288  0.000  0.140  0.515
    occupations:
  0.950  0.000  0.000  0.000  0.000
  0.000  0.726  0.000 -0.060  0.152
  0.000  0.000  0.726  0.152  0.060
  0.000 -0.060  0.152  0.833  0.000
  0.000  0.152  0.060  0.000  0.833
atom    2   Tr[ns(na)] =   8.05069
    eigenvalues: 
  0.599  0.599  0.940  0.944  0.944
    eigenvectors:
  0.000  0.000  1.000  0.000  0.000
  0.636  0.019  0.000  0.219  0.126
  0.019  0.636  0.000  0.126  0.219
  0.013  0.332  0.000  0.470  0.185
  0.332  0.013  0.000  0.185  0.470
    occupations:
  0.940  0.000  0.000  0.000  0.000
  0.000  0.718  0.000  0.058  0.153
  0.000  0.000  0.718  0.153 -0.058
  0.000  0.058  0.153  0.825  0.000
  0.000  0.153 -0.058  0.000  0.825
atom    3   Tr[ns(na)] =   3.81968
    eigenvalues: 
  0.359  0.359  0.384  0.404  0.404
    eigenvectors:
  0.000  0.000  1.000  0.000  0.000
  0.790  0.136  0.000  0.011  0.063
  0.136  0.790  0.000  0.063  0.011
  0.011  0.062  0.000  0.787  0.139
  0.062  0.011  0.000  0.139  0.787
    occupations:
  0.384  0.000  0.000  0.000  0.000
  0.000  0.362  0.000  0.000  0.012
  0.000  0.000  0.362  0.012  0.000
  0.000  0.000  0.012  0.401  0.000
  0.000  0.012  0.000  0.000  0.401
atom    4   Tr[ns(na)] =   3.81968
    eigenvalues: 
  0.359  0.359  0.384  0.404  0.404
    eigenvectors:
  0.000  0.000  1.000  0.000  0.000
  0.790  0.136  0.000  0.011  0.063
  0.136  0.790  0.000  0.063  0.011
  0.011  0.062  0.000  0.787  0.139
  0.062  0.011  0.000  0.139  0.787
    occupations:
  0.384  0.000  0.000  0.000  0.000
  0.000  0.362  0.000  0.000  0.012
  0.000  0.000  0.362  0.012  0.000
  0.000  0.000  0.012  0.401  0.000
  0.000  0.012  0.000  0.000  0.401
atom    5   Tr[ns(na)] =   5.40729
    eigenvalues: 
  0.838  0.927  0.939
    eigenvectors:
  0.342  0.000  0.658
  0.490  0.253  0.256
  0.167  0.747  0.086
    occupations:
  0.905  0.042  0.024
  0.042  0.886 -0.024
  0.024 -0.024  0.913
atom    6   Tr[ns(na)] =   5.40729
    eigenvalues: 
  0.838  0.927  0.939
    eigenvectors:
  0.342  0.000  0.658
  0.000  1.000  0.000
  0.658  0.000  0.342
    occupations:
  0.905  0.000 -0.048
  0.000  0.927  0.000
 -0.048  0.000  0.873
atom    7   Tr[ns(na)] =   5.40729
    eigenvalues: 
  0.838  0.927  0.939
    eigenvectors:
  0.342  0.000  0.658
  0.496  0.247  0.257
  0.162  0.753  0.085
    occupations:
  0.905 -0.042  0.024
 -0.042  0.886  0.023
  0.024  0.023  0.913
atom    8   Tr[ns(na)] =   5.40729
    eigenvalues: 
  0.838  0.927  0.939
    eigenvectors:
  0.342  0.000  0.658
  0.000  1.000  0.000
  0.658  0.000  0.342
    occupations:
  0.905  0.000 -0.048
  0.000  0.927  0.000
 -0.048  0.000  0.873
atom    9   Tr[ns(na)] =   5.40729
    eigenvalues: 
  0.838  0.927  0.939
    eigenvectors:
  0.342  0.000  0.658
  0.490  0.253  0.256
  0.167  0.747  0.086
    occupations:
  0.905  0.042  0.024
  0.042  0.886 -0.024
  0.024 -0.024  0.913
atom   10   Tr[ns(na)] =   5.40729
    eigenvalues: 
  0.838  0.927  0.939
    eigenvectors:
  0.342  0.000  0.658
  0.496  0.247  0.257
  0.162  0.753  0.085
    occupations:
  0.905 -0.042  0.024
 -0.042  0.886  0.023
  0.024  0.023  0.913
N of occupied +U levels =  56.2721121
 --- exit write_ns ---
 --- in v_hubbard ---
Hubbard energy    0.0000
 -------

     total cpu time spent up to now is       82.1 secs

     total energy              =    -538.31881817 Ry
     Harris-Foulkes estimate   =    -538.33686150 Ry
     estimated scf accuracy    <       0.04345819 Ry

     iteration #  6     ecut=    30.00 Ry     beta=0.20
     Davidson diagonalization with overlap
     ethr =  5.72E-05,  avg # of iterations =  3.2
 --- enter write_ns ---
 LDA+U parameters:
U( 1)     =  0.00000000
alpha( 1) =  0.00000000
U( 2)     =  0.00000000
alpha( 2) =  0.00000000
U( 3)     =  0.00000000
alpha( 3) =  0.00000000
U( 4)     =  0.00000000
alpha( 4) =  0.00000000
atom    1   Tr[ns(na)] =   7.76768
    eigenvalues: 
  0.541  0.541  0.932  0.935  0.935
    eigenvectors:
  0.000  0.000  1.000  0.000  0.000
  0.341  0.315  0.000  0.002  0.343
  0.315  0.341  0.000  0.343  0.002
  0.292  0.052  0.000  0.519  0.137
  0.052  0.292  0.000  0.137  0.519
    occupations:
  0.932  0.000  0.000  0.000  0.000
  0.000  0.677  0.000 -0.074  0.172
  0.000  0.000  0.677  0.172  0.074
  0.000 -0.074  0.172  0.799  0.000
  0.000  0.172  0.074  0.000  0.799
atom    2   Tr[ns(na)] =   7.76732
    eigenvalues: 
  0.540  0.540  0.933  0.936  0.936
    eigenvectors:
  0.000  0.000  1.000  0.000  0.000
  0.647  0.009  0.000  0.230  0.114
  0.009  0.647  0.000  0.114  0.230
  0.027  0.317  0.000  0.472  0.183
  0.317  0.027  0.000  0.183  0.472
    occupations:
  0.933  0.000  0.000  0.000  0.000
  0.000  0.676  0.000  0.073  0.173
  0.000  0.000  0.676  0.173 -0.073
  0.000  0.073  0.173  0.799  0.000
  0.000  0.173 -0.073  0.000  0.799
atom    3   Tr[ns(na)] =   3.75935
    eigenvalues: 
  0.350  0.350  0.380  0.399  0.399
    eigenvectors:
  0.000  0.000  1.000  0.000  0.000
  0.782  0.139  0.000  0.012  0.068
  0.139  0.782  0.000  0.068  0.012
  0.012  0.067  0.000  0.780  0.140
  0.067  0.012  0.000  0.140  0.780
    occupations:
  0.380  0.000  0.000  0.000  0.000
  0.000  0.354  0.000  0.000  0.013
  0.000  0.000  0.354  0.013  0.000
  0.000  0.000  0.013  0.396  0.000
  0.000  0.013  0.000  0.000  0.396
atom    4   Tr[ns(na)] =   3.75935
    eigenvalues: 
  0.350  0.350  0.380  0.399  0.399
    eigenvectors:
  0.000  0.000  1.000  0.000  0.000
  0.782  0.139  0.000  0.012  0.068
  0.139  0.782  0.000  0.068  0.012
  0.012  0.067  0.000  0.780  0.140
  0.067  0.012  0.000  0.140  0.780
    occupations:
  0.380  0.000  0.000  0.000  0.000
  0.000  0.354  0.000  0.000  0.013
  0.000  0.000  0.354  0.013  0.000
  0.000  0.000  0.013  0.396  0.000
  0.000  0.013  0.000  0.000  0.396
atom    5   Tr[ns(na)] =   5.51861
    eigenvalues: 
  0.870  0.940  0.949
    eigenvectors:
  0.332  0.000  0.668
  0.500  0.250  0.250
  0.168  0.750  0.083
    occupations:
  0.923  0.032  0.018
  0.032  0.907 -0.019
  0.018 -0.019  0.929
atom    6   Tr[ns(na)] =   5.51861
    eigenvalues: 
  0.870  0.940  0.949
    eigenvectors:
  0.332  0.000  0.668
  0.000  1.000  0.000
  0.668  0.000  0.332
    occupations:
  0.923  0.000 -0.037
  0.000  0.940  0.000
 -0.037  0.000  0.896
atom    7   Tr[ns(na)] =   5.51861
    eigenvalues: 
  0.870  0.940  0.949
    eigenvectors:
  0.332  0.000  0.668
  0.502  0.250  0.249
  0.166  0.750  0.084
    occupations:
  0.923 -0.032  0.018
 -0.032  0.907  0.019
  0.018  0.019  0.929
atom    8   Tr[ns(na)] =   5.51861
    eigenvalues: 
  0.870  0.940  0.949
    eigenvectors:
  0.332  0.000  0.668
  0.000  1.000  0.000
  0.668  0.000  0.332
    occupations:
  0.923  0.000 -0.037
  0.000  0.940  0.000
 -0.037  0.000  0.896
atom    9   Tr[ns(na)] =   5.51861
    eigenvalues: 
  0.870  0.940  0.949
    eigenvectors:
  0.332  0.000  0.668
  0.500  0.250  0.250
  0.168  0.750  0.083
    occupations:
  0.923  0.032  0.018
  0.032  0.907 -0.019
  0.018 -0.019  0.929
atom   10   Tr[ns(na)] =   5.51861
    eigenvalues: 
  0.870  0.940  0.949
    eigenvectors:
  0.332  0.000  0.668
  0.502  0.250  0.249
  0.166  0.750  0.084
    occupations:
  0.923 -0.032  0.018
 -0.032  0.907  0.019
  0.018  0.019  0.929
N of occupied +U levels =  56.1653396
 --- exit write_ns ---
 --- in v_hubbard ---
Hubbard energy    0.0000
 -------

     total cpu time spent up to now is       97.9 secs

     total energy              =    -538.31584586 Ry
     Harris-Foulkes estimate   =    -538.35811396 Ry
     estimated scf accuracy    <       0.17942600 Ry

     iteration #  7     ecut=    30.00 Ry     beta=0.20
     Davidson diagonalization with overlap
     ethr =  5.72E-05,  avg # of iterations =  2.4
 --- enter write_ns ---
 LDA+U parameters:
U( 1)     =  0.00000000
alpha( 1) =  0.00000000
U( 2)     =  0.00000000
alpha( 2) =  0.00000000
U( 3)     =  0.00000000
alpha( 3) =  0.00000000
U( 4)     =  0.00000000
alpha( 4) =  0.00000000
atom    1   Tr[ns(na)] =   7.98840
    eigenvalues: 
  0.589  0.589  0.936  0.940  0.940
    eigenvectors:
  0.000  0.000  1.000  0.000  0.000
  0.334  0.321  0.000  0.003  0.341
  0.321  0.334  0.000  0.341  0.003
  0.289  0.056  0.000  0.516  0.140
  0.056  0.289  0.000  0.140  0.516
    occupations:
  0.936  0.000  0.000  0.000  0.000
  0.000  0.710  0.000 -0.062  0.154
  0.000  0.000  0.710  0.154  0.062
  0.000 -0.062  0.154  0.819  0.000
  0.000  0.154  0.062  0.000  0.819
atom    2   Tr[ns(na)] =   7.98881
    eigenvalues: 
  0.589  0.589  0.937  0.940  0.940
    eigenvectors:
  0.000  0.000  1.000  0.000  0.000
  0.641  0.014  0.000  0.224  0.121
  0.014  0.641  0.000  0.121  0.224
  0.018  0.327  0.000  0.471  0.184
  0.327  0.018  0.000  0.184  0.471
    occupations:
  0.937  0.000  0.000  0.000  0.000
  0.000  0.710  0.000  0.062  0.155
  0.000  0.000  0.710  0.155 -0.062
  0.000  0.062  0.155  0.819  0.000
  0.000  0.155 -0.062  0.000  0.819
atom    3   Tr[ns(na)] =   3.79972
    eigenvalues: 
  0.355  0.355  0.384  0.403  0.403
    eigenvectors:
  0.000  0.000  1.000  0.000  0.000
  0.786  0.138  0.000  0.011  0.065
  0.138  0.786  0.000  0.065  0.011
  0.012  0.065  0.000  0.783  0.140
  0.065  0.012  0.000  0.140  0.783
    occupations:
  0.384  0.000  0.000  0.000  0.000
  0.000  0.359  0.000  0.000  0.013
  0.000  0.000  0.359  0.013  0.000
  0.000  0.000  0.013  0.399  0.000
  0.000  0.013  0.000  0.000  0.399
atom    4   Tr[ns(na)] =   3.79972
    eigenvalues: 
  0.355  0.355  0.384  0.403  0.403
    eigenvectors:
  0.000  0.000  1.000  0.000  0.000
  0.786  0.138  0.000  0.011  0.065
  0.138  0.786  0.000  0.065  0.011
  0.012  0.064  0.000  0.784  0.140
  0.064  0.012  0.000  0.140  0.784
    occupations:
  0.384  0.000  0.000  0.000  0.000
  0.000  0.359  0.000  0.000  0.013
  0.000  0.000  0.359  0.013  0.000
  0.000  0.000  0.013  0.399  0.000
  0.000  0.013  0.000  0.000  0.399
atom    5   Tr[ns(na)] =   5.44459
    eigenvalues: 
  0.849  0.931  0.942
    eigenvectors:
  0.339  0.000  0.661
  0.495  0.250  0.255
  0.166  0.750  0.084
    occupations:
  0.911  0.038  0.022
  0.038  0.893 -0.022
  0.022 -0.022  0.918
atom    6   Tr[ns(na)] =   5.44459
    eigenvalues: 
  0.849  0.931  0.942
    eigenvectors:
  0.339  0.000  0.661
  0.000  1.000  0.000
  0.661  0.000  0.339
    occupations:
  0.911  0.000 -0.044
  0.000  0.931  0.000
 -0.044  0.000  0.881
atom    7   Tr[ns(na)] =   5.44459
    eigenvalues: 
  0.849  0.931  0.942
    eigenvectors:
  0.339  0.000  0.661
  0.496  0.250  0.254
  0.164  0.750  0.085
    occupations:
  0.911 -0.038  0.022
 -0.038  0.893  0.022
  0.022  0.022  0.919
atom    8   Tr[ns(na)] =   5.44459
    eigenvalues: 
  0.849  0.931  0.942
    eigenvectors:
  0.339  0.000  0.661
  0.000  1.000  0.000
  0.661  0.000  0.339
    occupations:
  0.911  0.000 -0.044
  0.000  0.931  0.000
 -0.044  0.000  0.881
atom    9   Tr[ns(na)] =   5.44459
    eigenvalues: 
  0.849  0.931  0.942
    eigenvectors:
  0.339  0.000  0.661
  0.495  0.250  0.255
  0.166  0.750  0.084
    occupations:
  0.911  0.038  0.022
  0.038  0.893 -0.022
  0.022 -0.022  0.918
atom   10   Tr[ns(na)] =   5.44459
    eigenvalues: 
  0.849  0.931  0.942
    eigenvectors:
  0.339  0.000  0.661
  0.496  0.250  0.254
  0.164  0.750  0.085
    occupations:
  0.911 -0.038  0.022
 -0.038  0.893  0.022
  0.022  0.022  0.919
N of occupied +U levels =  56.2441834
 --- exit write_ns ---
 --- in v_hubbard ---
Hubbard energy    0.0000
 -------

     total cpu time spent up to now is      114.5 secs

     total energy              =    -538.33244761 Ry
     Harris-Foulkes estimate   =    -538.33223262 Ry
     estimated scf accuracy    <       0.00317008 Ry

     iteration #  8     ecut=    30.00 Ry     beta=0.20
     Davidson diagonalization with overlap
     ethr =  4.17E-06,  avg # of iterations =  5.7
 --- enter write_ns ---
 LDA+U parameters:
U( 1)     =  0.00000000
alpha( 1) =  0.00000000
U( 2)     =  0.00000000
alpha( 2) =  0.00000000
U( 3)     =  0.00000000
alpha( 3) =  0.00000000
U( 4)     =  0.00000000
alpha( 4) =  0.00000000
atom    1   Tr[ns(na)] =   7.99888
    eigenvalues: 
  0.591  0.591  0.937  0.940  0.940
    eigenvectors:
  0.000  0.000  1.000  0.000  0.000
  0.334  0.321  0.000  0.004  0.342
  0.321  0.334  0.000  0.342  0.004
  0.289  0.056  0.000  0.515  0.140
  0.056  0.289  0.000  0.140  0.515
    occupations:
  0.937  0.000  0.000  0.000  0.000
  0.000  0.711  0.000 -0.061  0.154
  0.000  0.000  0.711  0.154  0.061
  0.000 -0.061  0.154  0.820  0.000
  0.000  0.154  0.061  0.000  0.820
atom    2   Tr[ns(na)] =   7.99798
    eigenvalues: 
  0.590  0.590  0.938  0.941  0.941
    eigenvectors:
  0.000  0.000  1.000  0.000  0.000
  0.640  0.015  0.000  0.223  0.122
  0.015  0.640  0.000  0.122  0.223
  0.017  0.328  0.000  0.470  0.185
  0.328  0.017  0.000  0.185  0.470
    occupations:
  0.938  0.000  0.000  0.000  0.000
  0.000  0.711  0.000  0.061  0.155
  0.000  0.000  0.711  0.155 -0.061
  0.000  0.061  0.155  0.820  0.000
  0.000  0.155 -0.061  0.000  0.820
atom    3   Tr[ns(na)] =   3.79926
    eigenvalues: 
  0.355  0.355  0.384  0.403  0.403
    eigenvectors:
  0.000  0.000  1.000  0.000  0.000
  0.783  0.138  0.000  0.011  0.067
  0.138  0.783  0.000  0.067  0.011
  0.012  0.066  0.000  0.781  0.140
  0.066  0.012  0.000  0.140  0.781
    occupations:
  0.384  0.000  0.000  0.000  0.000
  0.000  0.359  0.000  0.000  0.013
  0.000  0.000  0.359  0.013  0.000
  0.000  0.000  0.013  0.399  0.000
  0.000  0.013  0.000  0.000  0.399
atom    4   Tr[ns(na)] =   3.79926
    eigenvalues: 
  0.355  0.355  0.384  0.403  0.403
    eigenvectors:
  0.000  0.000  1.000  0.000  0.000
  0.783  0.139  0.000  0.011  0.067
  0.139  0.783  0.000  0.067  0.011
  0.012  0.066  0.000  0.781  0.140
  0.066  0.012  0.000  0.140  0.781
    occupations:
  0.384  0.000  0.000  0.000  0.000
  0.000  0.359  0.000  0.000  0.013
  0.000  0.000  0.359  0.013  0.000
  0.000  0.000  0.013  0.399  0.000
  0.000  0.013  0.000  0.000  0.399
atom    5   Tr[ns(na)] =   5.44164
    eigenvalues: 
  0.848  0.931  0.942
    eigenvectors:
  0.340  0.000  0.660
  0.495  0.250  0.255
  0.166  0.750  0.084
    occupations:
  0.910  0.038  0.022
  0.038  0.893 -0.022
  0.022 -0.022  0.918
atom    6   Tr[ns(na)] =   5.44164
    eigenvalues: 
  0.848  0.931  0.942
    eigenvectors:
  0.340  0.000  0.660
  0.000  1.000  0.000
  0.660  0.000  0.340
    occupations:
  0.910  0.000 -0.044
  0.000  0.931  0.000
 -0.044  0.000  0.880
atom    7   Tr[ns(na)] =   5.44164
    eigenvalues: 
  0.848  0.931  0.942
    eigenvectors:
  0.340  0.000  0.660
  0.496  0.250  0.254
  0.164  0.750  0.085
    occupations:
  0.910 -0.038  0.022
 -0.038  0.893  0.022
  0.022  0.022  0.918
atom    8   Tr[ns(na)] =   5.44164
    eigenvalues: 
  0.848  0.931  0.942
    eigenvectors:
  0.340  0.000  0.660
  0.000  1.000  0.000
  0.660  0.000  0.340
    occupations:
  0.910  0.000 -0.044
  0.000  0.931  0.000
 -0.044  0.000  0.880
atom    9   Tr[ns(na)] =   5.44164
    eigenvalues: 
  0.848  0.931  0.942
    eigenvectors:
  0.340  0.000  0.660
  0.495  0.250  0.255
  0.166  0.750  0.084
    occupations:
  0.910  0.038  0.022
  0.038  0.893 -0.022
  0.022 -0.022  0.918
atom   10   Tr[ns(na)] =   5.44164
    eigenvalues: 
  0.848  0.931  0.942
    eigenvectors:
  0.340  0.000  0.660
  0.496  0.250  0.254
  0.164  0.750  0.085
    occupations:
  0.910 -0.038  0.022
 -0.038  0.893  0.022
  0.022  0.022  0.918
N of occupied +U levels =  56.2452535
 --- exit write_ns ---
 --- in v_hubbard ---
Hubbard energy    0.0000
 -------

     total cpu time spent up to now is      130.2 secs

     total energy              =    -538.33247639 Ry
     Harris-Foulkes estimate   =    -538.33262904 Ry
     estimated scf accuracy    <       0.00168708 Ry

     iteration #  9     ecut=    30.00 Ry     beta=0.20
     Davidson diagonalization with overlap
     ethr =  2.22E-06,  avg # of iterations =  1.9
 --- enter write_ns ---
 LDA+U parameters:
U( 1)     =  0.00000000
alpha( 1) =  0.00000000
U( 2)     =  0.00000000
alpha( 2) =  0.00000000
U( 3)     =  0.00000000
alpha( 3) =  0.00000000
U( 4)     =  0.00000000
alpha( 4) =  0.00000000
atom    1   Tr[ns(na)] =   8.01884
    eigenvalues: 
  0.595  0.595  0.938  0.941  0.941
    eigenvectors:
  0.000  0.000  1.000  0.000  0.000
  0.333  0.322  0.000  0.004  0.342
  0.322  0.333  0.000  0.342  0.004
  0.289  0.057  0.000  0.515  0.140
  0.057  0.289  0.000  0.140  0.515
    occupations:
  0.938  0.000  0.000  0.000  0.000
  0.000  0.714  0.000 -0.060  0.153
  0.000  0.000  0.714  0.153  0.060
  0.000 -0.060  0.153  0.821  0.000
  0.000  0.153  0.060  0.000  0.821
atom    2   Tr[ns(na)] =   8.01843
    eigenvalues: 
  0.594  0.594  0.938  0.941  0.941
    eigenvectors:
  0.000  0.000  1.000  0.000  0.000
  0.639  0.016  0.000  0.223  0.122
  0.016  0.639  0.000  0.122  0.223
  0.016  0.329  0.000  0.470  0.185
  0.329  0.016  0.000  0.185  0.470
    occupations:
  0.938  0.000  0.000  0.000  0.000
  0.000  0.714  0.000  0.060  0.153
  0.000  0.000  0.714  0.153 -0.060
  0.000  0.060  0.153  0.821  0.000
  0.000  0.153 -0.060  0.000  0.821
atom    3   Tr[ns(na)] =   3.79902
    eigenvalues: 
  0.355  0.355  0.384  0.403  0.403
    eigenvectors:
  0.000  0.000  1.000  0.000  0.000
  0.781  0.139  0.000  0.012  0.068
  0.139  0.781  0.000  0.068  0.012
  0.013  0.067  0.000  0.780  0.141
  0.067  0.013  0.000  0.141  0.780
    occupations:
  0.384  0.000  0.000  0.000  0.000
  0.000  0.359  0.000  0.000  0.013
  0.000  0.000  0.359  0.013  0.000
  0.000  0.000  0.013  0.399  0.000
  0.000  0.013  0.000  0.000  0.399
atom    4   Tr[ns(na)] =   3.79902
    eigenvalues: 
  0.355  0.355  0.384  0.403  0.403
    eigenvectors:
  0.000  0.000  1.000  0.000  0.000
  0.781  0.139  0.000  0.012  0.068
  0.139  0.781  0.000  0.068  0.012
  0.013  0.067  0.000  0.780  0.141
  0.067  0.013  0.000  0.141  0.780
    occupations:
  0.384  0.000  0.000  0.000  0.000
  0.000  0.359  0.000  0.000  0.013
  0.000  0.000  0.359  0.013  0.000
  0.000  0.000  0.013  0.399  0.000
  0.000  0.013  0.000  0.000  0.399
atom    5   Tr[ns(na)] =   5.43551
    eigenvalues: 
  0.847  0.930  0.941
    eigenvectors:
  0.340  0.000  0.660
  0.494  0.250  0.256
  0.166  0.750  0.085
    occupations:
  0.909  0.039  0.022
  0.039  0.892 -0.022
  0.022 -0.022  0.917
atom    6   Tr[ns(na)] =   5.43551
    eigenvalues: 
  0.847  0.930  0.941
    eigenvectors:
  0.340  0.000  0.660
  0.000  1.000  0.000
  0.660  0.000  0.340
    occupations:
  0.909  0.000 -0.045
  0.000  0.930  0.000
 -0.045  0.000  0.879
atom    7   Tr[ns(na)] =   5.43551
    eigenvalues: 
  0.847  0.930  0.941
    eigenvectors:
  0.340  0.000  0.660
  0.496  0.250  0.255
  0.164  0.750  0.085
    occupations:
  0.909 -0.039  0.022
 -0.039  0.892  0.022
  0.022  0.022  0.917
atom    8   Tr[ns(na)] =   5.43551
    eigenvalues: 
  0.847  0.930  0.941
    eigenvectors:
  0.340  0.000  0.660
  0.000  1.000  0.000
  0.660  0.000  0.340
    occupations:
  0.909  0.000 -0.045
  0.000  0.930  0.000
 -0.045  0.000  0.879
atom    9   Tr[ns(na)] =   5.43551
    eigenvalues: 
  0.847  0.930  0.941
    eigenvectors:
  0.340  0.000  0.660
  0.494  0.250  0.256
  0.166  0.750  0.085
    occupations:
  0.909  0.039  0.022
  0.039  0.892 -0.022
  0.022 -0.022  0.917
atom   10   Tr[ns(na)] =   5.43551
    eigenvalues: 
  0.847  0.930  0.941
    eigenvectors:
  0.340  0.000  0.660
  0.496  0.250  0.255
  0.164  0.750  0.085
    occupations:
  0.909 -0.039  0.022
 -0.039  0.892  0.022
  0.022  0.022  0.917
N of occupied +U levels =  56.2483687
 --- exit write_ns ---
 --- in v_hubbard ---
Hubbard energy    0.0000
 -------

     total cpu time spent up to now is      145.3 secs

     total energy              =    -538.33276118 Ry
     Harris-Foulkes estimate   =    -538.33263073 Ry
     estimated scf accuracy    <       0.00008085 Ry

     iteration # 10     ecut=    30.00 Ry     beta=0.20
     Davidson diagonalization with overlap
     ethr =  1.06E-07,  avg # of iterations =  3.2
 --- enter write_ns ---
 LDA+U parameters:
U( 1)     =  0.00000000
alpha( 1) =  0.00000000
U( 2)     =  0.00000000
alpha( 2) =  0.00000000
U( 3)     =  0.00000000
alpha( 3) =  0.00000000
U( 4)     =  0.00000000
alpha( 4) =  0.00000000
atom    1   Tr[ns(na)] =   8.02057
    eigenvalues: 
  0.595  0.595  0.938  0.941  0.941
    eigenvectors:
  0.000  0.000  1.000  0.000  0.000
  0.333  0.322  0.000  0.004  0.342
  0.322  0.333  0.000  0.342  0.004
  0.289  0.056  0.000  0.515  0.140
  0.056  0.289  0.000  0.140  0.515
    occupations:
  0.938  0.000  0.000  0.000  0.000
  0.000  0.715  0.000 -0.060  0.153
  0.000  0.000  0.715  0.153  0.060
  0.000 -0.060  0.153  0.822  0.000
  0.000  0.153  0.060  0.000  0.822
atom    2   Tr[ns(na)] =   8.01989
    eigenvalues: 
  0.595  0.595  0.938  0.941  0.941
    eigenvectors:
  0.000  0.000  1.000  0.000  0.000
  0.640  0.015  0.000  0.223  0.122
  0.015  0.640  0.000  0.122  0.223
  0.016  0.329  0.000  0.470  0.185
  0.329  0.016  0.000  0.185  0.470
    occupations:
  0.938  0.000  0.000  0.000  0.000
  0.000  0.714  0.000  0.060  0.153
  0.000  0.000  0.714  0.153 -0.060
  0.000  0.060  0.153  0.822  0.000
  0.000  0.153 -0.060  0.000  0.822
atom    3   Tr[ns(na)] =   3.80309
    eigenvalues: 
  0.355  0.355  0.384  0.403  0.403
    eigenvectors:
  0.000  0.000  1.000  0.000  0.000
  0.782  0.139  0.000  0.012  0.068
  0.139  0.782  0.000  0.068  0.012
  0.012  0.067  0.000  0.780  0.141
  0.067  0.012  0.000  0.141  0.780
    occupations:
  0.384  0.000  0.000  0.000  0.000
  0.000  0.359  0.000  0.000  0.013
  0.000  0.000  0.359  0.013  0.000
  0.000  0.000  0.013  0.399  0.000
  0.000  0.013  0.000  0.000  0.399
atom    4   Tr[ns(na)] =   3.80309
    eigenvalues: 
  0.355  0.355  0.384  0.403  0.403
    eigenvectors:
  0.000  0.000  1.000  0.000  0.000
  0.782  0.139  0.000  0.012  0.068
  0.139  0.782  0.000  0.068  0.012
  0.012  0.067  0.000  0.780  0.141
  0.067  0.012  0.000  0.141  0.780
    occupations:
  0.384  0.000  0.000  0.000  0.000
  0.000  0.359  0.000  0.000  0.013
  0.000  0.000  0.359  0.013  0.000
  0.000  0.000  0.013  0.399  0.000
  0.000  0.013  0.000  0.000  0.399
atom    5   Tr[ns(na)] =   5.43398
    eigenvalues: 
  0.846  0.929  0.941
    eigenvectors:
  0.340  0.000  0.660
  0.494  0.250  0.256
  0.166  0.750  0.085
    occupations:
  0.909  0.039  0.022
  0.039  0.891 -0.022
  0.022 -0.022  0.917
atom    6   Tr[ns(na)] =   5.43398
    eigenvalues: 
  0.846  0.929  0.941
    eigenvectors:
  0.340  0.000  0.660
  0.000  1.000  0.000
  0.660  0.000  0.340
    occupations:
  0.909  0.000 -0.045
  0.000  0.929  0.000
 -0.045  0.000  0.879
atom    7   Tr[ns(na)] =   5.43398
    eigenvalues: 
  0.846  0.929  0.941
    eigenvectors:
  0.340  0.000  0.660
  0.496  0.250  0.255
  0.164  0.750  0.085
    occupations:
  0.909 -0.039  0.022
 -0.039  0.891  0.022
  0.022  0.022  0.917
atom    8   Tr[ns(na)] =   5.43398
    eigenvalues: 
  0.846  0.929  0.941
    eigenvectors:
  0.340  0.000  0.660
  0.000  1.000  0.000
  0.660  0.000  0.340
    occupations:
  0.909  0.000 -0.045
  0.000  0.929  0.000
 -0.045  0.000  0.879
atom    9   Tr[ns(na)] =   5.43398
    eigenvalues: 
  0.846  0.929  0.941
    eigenvectors:
  0.340  0.000  0.660
  0.494  0.250  0.256
  0.166  0.750  0.085
    occupations:
  0.909  0.039  0.022
  0.039  0.891 -0.022
  0.022 -0.022  0.917
atom   10   Tr[ns(na)] =   5.43398
    eigenvalues: 
  0.846  0.929  0.941
    eigenvectors:
  0.340  0.000  0.660
  0.496  0.250  0.255
  0.164  0.750  0.085
    occupations:
  0.909 -0.039  0.022
 -0.039  0.891  0.022
  0.022  0.022  0.917
N of occupied +U levels =  56.2505053
 --- exit write_ns ---
 --- in v_hubbard ---
Hubbard energy    0.0000
 -------

     total cpu time spent up to now is      166.4 secs

     total energy              =    -538.33287789 Ry
     Harris-Foulkes estimate   =    -538.33278271 Ry
     estimated scf accuracy    <       0.00000911 Ry

     iteration # 11     ecut=    30.00 Ry     beta=0.20
     Davidson diagonalization with overlap
     ethr =  1.20E-08,  avg # of iterations =  2.1
 --- enter write_ns ---
 LDA+U parameters:
U( 1)     =  0.00000000
alpha( 1) =  0.00000000
U( 2)     =  0.00000000
alpha( 2) =  0.00000000
U( 3)     =  0.00000000
alpha( 3) =  0.00000000
U( 4)     =  0.00000000
alpha( 4) =  0.00000000
atom    1   Tr[ns(na)] =   8.02206
    eigenvalues: 
  0.596  0.596  0.938  0.941  0.941
    eigenvectors:
  0.000  0.000  1.000  0.000  0.000
  0.333  0.322  0.000  0.004  0.341
  0.322  0.333  0.000  0.341  0.004
  0.288  0.057  0.000  0.515  0.140
  0.057  0.288  0.000  0.140  0.515
    occupations:
  0.938  0.000  0.000  0.000  0.000
  0.000  0.715  0.000 -0.060  0.152
  0.000  0.000  0.715  0.152  0.060
  0.000 -0.060  0.152  0.822  0.000
  0.000  0.152  0.060  0.000  0.822
atom    2   Tr[ns(na)] =   8.02177
    eigenvalues: 
  0.595  0.595  0.938  0.941  0.941
    eigenvectors:
  0.000  0.000  1.000  0.000  0.000
  0.639  0.015  0.000  0.223  0.122
  0.015  0.639  0.000  0.122  0.223
  0.016  0.329  0.000  0.470  0.185
  0.329  0.016  0.000  0.185  0.470
    occupations:
  0.938  0.000  0.000  0.000  0.000
  0.000  0.715  0.000  0.060  0.153
  0.000  0.000  0.715  0.153 -0.060
  0.000  0.060  0.153  0.822  0.000
  0.000  0.153 -0.060  0.000  0.822
atom    3   Tr[ns(na)] =   3.80214
    eigenvalues: 
  0.355  0.355  0.384  0.403  0.403
    eigenvectors:
  0.000  0.000  1.000  0.000  0.000
  0.781  0.139  0.000  0.012  0.068
  0.139  0.781  0.000  0.068  0.012
  0.013  0.067  0.000  0.780  0.141
  0.067  0.013  0.000  0.141  0.780
    occupations:
  0.384  0.000  0.000  0.000  0.000
  0.000  0.359  0.000  0.000  0.013
  0.000  0.000  0.359  0.013  0.000
  0.000  0.000  0.013  0.399  0.000
  0.000  0.013  0.000  0.000  0.399
atom    4   Tr[ns(na)] =   3.80214
    eigenvalues: 
  0.355  0.355  0.384  0.403  0.403
    eigenvectors:
  0.000  0.000  1.000  0.000  0.000
  0.782  0.139  0.000  0.012  0.068
  0.139  0.782  0.000  0.068  0.012
  0.013  0.067  0.000  0.780  0.141
  0.067  0.013  0.000  0.141  0.780
    occupations:
  0.384  0.000  0.000  0.000  0.000
  0.000  0.359  0.000  0.000  0.013
  0.000  0.000  0.359  0.013  0.000
  0.000  0.000  0.013  0.399  0.000
  0.000  0.013  0.000  0.000  0.399
atom    5   Tr[ns(na)] =   5.43368
    eigenvalues: 
  0.846  0.929  0.941
    eigenvectors:
  0.340  0.000  0.660
  0.494  0.250  0.256
  0.166  0.750  0.085
    occupations:
  0.909  0.039  0.022
  0.039  0.891 -0.022
  0.022 -0.022  0.917
atom    6   Tr[ns(na)] =   5.43368
    eigenvalues: 
  0.846  0.929  0.941
    eigenvectors:
  0.340  0.000  0.660
  0.000  1.000  0.000
  0.660  0.000  0.340
    occupations:
  0.909  0.000 -0.045
  0.000  0.929  0.000
 -0.045  0.000  0.879
atom    7   Tr[ns(na)] =   5.43368
    eigenvalues: 
  0.846  0.929  0.941
    eigenvectors:
  0.340  0.000  0.660
  0.496  0.250  0.255
  0.164  0.750  0.086
    occupations:
  0.909 -0.039  0.022
 -0.039  0.891  0.022
  0.022  0.022  0.917
atom    8   Tr[ns(na)] =   5.43368
    eigenvalues: 
  0.846  0.929  0.941
    eigenvectors:
  0.340  0.000  0.660
  0.000  1.000  0.000
  0.660  0.000  0.340
    occupations:
  0.909  0.000 -0.045
  0.000  0.929  0.000
 -0.045  0.000  0.879
atom    9   Tr[ns(na)] =   5.43368
    eigenvalues: 
  0.846  0.929  0.941
    eigenvectors:
  0.340  0.000  0.660
  0.494  0.250  0.256
  0.166  0.750  0.085
    occupations:
  0.909  0.039  0.022
  0.039  0.891 -0.022
  0.022 -0.022  0.917
atom   10   Tr[ns(na)] =   5.43368
    eigenvalues: 
  0.846  0.929  0.941
    eigenvectors:
  0.340  0.000  0.660
  0.496  0.250  0.255
  0.164  0.750  0.086
    occupations:
  0.909 -0.039  0.022
 -0.039  0.891  0.022
  0.022  0.022  0.917
N of occupied +U levels =  56.2502115
 --- exit write_ns ---
 --- in v_hubbard ---
Hubbard energy    0.0000
 -------

     total cpu time spent up to now is      183.6 secs

     total energy              =    -538.33294035 Ry
     Harris-Foulkes estimate   =    -538.33287959 Ry
     estimated scf accuracy    <       0.00000259 Ry

     iteration # 12     ecut=    30.00 Ry     beta=0.20
     Davidson diagonalization with overlap
     ethr =  3.41E-09,  avg # of iterations =  2.1
 --- enter write_ns ---
 LDA+U parameters:
U( 1)     =  0.00000000
alpha( 1) =  0.00000000
U( 2)     =  0.00000000
alpha( 2) =  0.00000000
U( 3)     =  0.00000000
alpha( 3) =  0.00000000
U( 4)     =  0.00000000
alpha( 4) =  0.00000000
atom    1   Tr[ns(na)] =   8.02145
    eigenvalues: 
  0.596  0.596  0.938  0.941  0.941
    eigenvectors:
  0.000  0.000  1.000  0.000  0.000
  0.333  0.322  0.000  0.004  0.341
  0.322  0.333  0.000  0.341  0.004
  0.289  0.056  0.000  0.515  0.140
  0.056  0.289  0.000  0.140  0.515
    occupations:
  0.938  0.000  0.000  0.000  0.000
  0.000  0.715  0.000 -0.060  0.153
  0.000  0.000  0.715  0.153  0.060
  0.000 -0.060  0.153  0.822  0.000
  0.000  0.153  0.060  0.000  0.822
atom    2   Tr[ns(na)] =   8.02065
    eigenvalues: 
  0.595  0.595  0.938  0.941  0.941
    eigenvectors:
  0.000  0.000  1.000  0.000  0.000
  0.640  0.015  0.000  0.223  0.122
  0.015  0.640  0.000  0.122  0.223
  0.017  0.329  0.000  0.470  0.184
  0.329  0.017  0.000  0.184  0.470
    occupations:
  0.938  0.000  0.000  0.000  0.000
  0.000  0.714  0.000  0.060  0.153
  0.000  0.000  0.714  0.153 -0.060
  0.000  0.060  0.153  0.822  0.000
  0.000  0.153 -0.060  0.000  0.822
atom    3   Tr[ns(na)] =   3.80270
    eigenvalues: 
  0.355  0.355  0.384  0.403  0.403
    eigenvectors:
  0.000  0.000  1.000  0.000  0.000
  0.782  0.139  0.000  0.012  0.068
  0.139  0.782  0.000  0.068  0.012
  0.013  0.067  0.000  0.780  0.141
  0.067  0.013  0.000  0.141  0.780
    occupations:
  0.384  0.000  0.000  0.000  0.000
  0.000  0.359  0.000  0.000  0.013
  0.000  0.000  0.359  0.013  0.000
  0.000  0.000  0.013  0.399  0.000
  0.000  0.013  0.000  0.000  0.399
atom    4   Tr[ns(na)] =   3.80270
    eigenvalues: 
  0.355  0.355  0.384  0.403  0.403
    eigenvectors:
  0.000  0.000  1.000  0.000  0.000
  0.782  0.139  0.000  0.012  0.068
  0.139  0.782  0.000  0.068  0.012
  0.012  0.067  0.000  0.780  0.141
  0.067  0.012  0.000  0.141  0.780
    occupations:
  0.384  0.000  0.000  0.000  0.000
  0.000  0.359  0.000  0.000  0.013
  0.000  0.000  0.359  0.013  0.000
  0.000  0.000  0.013  0.399  0.000
  0.000  0.013  0.000  0.000  0.399
atom    5   Tr[ns(na)] =   5.43382
    eigenvalues: 
  0.846  0.929  0.941
    eigenvectors:
  0.340  0.000  0.660
  0.494  0.250  0.256
  0.166  0.750  0.085
    occupations:
  0.909  0.039  0.022
  0.039  0.891 -0.022
  0.022 -0.022  0.917
atom    6   Tr[ns(na)] =   5.43382
    eigenvalues: 
  0.846  0.929  0.941
    eigenvectors:
  0.340  0.000  0.660
  0.000  1.000  0.000
  0.660  0.000  0.340
    occupations:
  0.909  0.000 -0.045
  0.000  0.929  0.000
 -0.045  0.000  0.879
atom    7   Tr[ns(na)] =   5.43382
    eigenvalues: 
  0.846  0.929  0.941
    eigenvectors:
  0.340  0.000  0.660
  0.496  0.250  0.255
  0.164  0.750  0.086
    occupations:
  0.909 -0.039  0.022
 -0.039  0.891  0.022
  0.022  0.022  0.917
atom    8   Tr[ns(na)] =   5.43382
    eigenvalues: 
  0.846  0.929  0.941
    eigenvectors:
  0.340  0.000  0.660
  0.000  1.000  0.000
  0.660  0.000  0.340
    occupations:
  0.909  0.000 -0.045
  0.000  0.929  0.000
 -0.045  0.000  0.879
atom    9   Tr[ns(na)] =   5.43382
    eigenvalues: 
  0.846  0.929  0.941
    eigenvectors:
  0.340  0.000  0.660
  0.494  0.250  0.256
  0.166  0.750  0.085
    occupations:
  0.909  0.039  0.022
  0.039  0.891 -0.022
  0.022 -0.022  0.917
atom   10   Tr[ns(na)] =   5.43382
    eigenvalues: 
  0.846  0.929  0.941
    eigenvectors:
  0.340  0.000  0.660
  0.496  0.250  0.255
  0.164  0.750  0.086
    occupations:
  0.909 -0.039  0.022
 -0.039  0.891  0.022
  0.022  0.022  0.917
N of occupied +U levels =  56.2504208
 --- exit write_ns ---
 --- in v_hubbard ---
Hubbard energy    0.0000
 -------

     total cpu time spent up to now is      205.1 secs

     total energy              =    -538.33298105 Ry
     Harris-Foulkes estimate   =    -538.33294088 Ry
     estimated scf accuracy    <       0.00000137 Ry

     iteration # 13     ecut=    30.00 Ry     beta=0.20
     Davidson diagonalization with overlap
     ethr =  1.80E-09,  avg # of iterations =  2.0
 --- enter write_ns ---
 LDA+U parameters:
U( 1)     =  0.00000000
alpha( 1) =  0.00000000
U( 2)     =  0.00000000
alpha( 2) =  0.00000000
U( 3)     =  0.00000000
alpha( 3) =  0.00000000
U( 4)     =  0.00000000
alpha( 4) =  0.00000000
atom    1   Tr[ns(na)] =   8.02233
    eigenvalues: 
  0.596  0.596  0.938  0.941  0.941
    eigenvectors:
  0.000  0.000  1.000  0.000  0.000
  0.333  0.322  0.000  0.004  0.341
  0.322  0.333  0.000  0.341  0.004
  0.289  0.057  0.000  0.515  0.140
  0.057  0.289  0.000  0.140  0.515
    occupations:
  0.938  0.000  0.000  0.000  0.000
  0.000  0.715  0.000 -0.060  0.152
  0.000  0.000  0.715  0.152  0.060
  0.000 -0.060  0.152  0.822  0.000
  0.000  0.152  0.060  0.000  0.822
atom    2   Tr[ns(na)] =   8.02179
    eigenvalues: 
  0.595  0.595  0.938  0.941  0.941
    eigenvectors:
  0.000  0.000  1.000  0.000  0.000
  0.640  0.015  0.000  0.223  0.122
  0.015  0.640  0.000  0.122  0.223
  0.017  0.329  0.000  0.470  0.185
  0.329  0.017  0.000  0.185  0.470
    occupations:
  0.938  0.000  0.000  0.000  0.000
  0.000  0.715  0.000  0.060  0.153
  0.000  0.000  0.715  0.153 -0.060
  0.000  0.060  0.153  0.822  0.000
  0.000  0.153 -0.060  0.000  0.822
atom    3   Tr[ns(na)] =   3.80297
    eigenvalues: 
  0.355  0.355  0.384  0.403  0.403
    eigenvectors:
  0.000  0.000  1.000  0.000  0.000
  0.782  0.139  0.000  0.012  0.068
  0.139  0.782  0.000  0.068  0.012
  0.012  0.067  0.000  0.780  0.141
  0.067  0.012  0.000  0.141  0.780
    occupations:
  0.384  0.000  0.000  0.000  0.000
  0.000  0.359  0.000  0.000  0.013
  0.000  0.000  0.359  0.013  0.000
  0.000  0.000  0.013  0.399  0.000
  0.000  0.013  0.000  0.000  0.399
atom    4   Tr[ns(na)] =   3.80297
    eigenvalues: 
  0.355  0.355  0.384  0.403  0.403
    eigenvectors:
  0.000  0.000  1.000  0.000  0.000
  0.782  0.139  0.000  0.012  0.068
  0.139  0.782  0.000  0.068  0.012
  0.012  0.067  0.000  0.780  0.141
  0.067  0.012  0.000  0.141  0.780
    occupations:
  0.384  0.000  0.000  0.000  0.000
  0.000  0.359  0.000  0.000  0.013
  0.000  0.000  0.359  0.013  0.000
  0.000  0.000  0.013  0.399  0.000
  0.000  0.013  0.000  0.000  0.399
atom    5   Tr[ns(na)] =   5.43345
    eigenvalues: 
  0.846  0.929  0.941
    eigenvectors:
  0.340  0.000  0.660
  0.494  0.250  0.256
  0.166  0.750  0.085
    occupations:
  0.909  0.039  0.022
  0.039  0.891 -0.022
  0.022 -0.022  0.917
atom    6   Tr[ns(na)] =   5.43345
    eigenvalues: 
  0.846  0.929  0.941
    eigenvectors:
  0.340  0.000  0.660
  0.000  1.000  0.000
  0.660  0.000  0.340
    occupations:
  0.909  0.000 -0.045
  0.000  0.929  0.000
 -0.045  0.000  0.879
atom    7   Tr[ns(na)] =   5.43345
    eigenvalues: 
  0.846  0.929  0.941
    eigenvectors:
  0.340  0.000  0.660
  0.496  0.250  0.255
  0.164  0.750  0.086
    occupations:
  0.909 -0.039  0.022
 -0.039  0.891  0.022
  0.022  0.022  0.917
atom    8   Tr[ns(na)] =   5.43345
    eigenvalues: 
  0.846  0.929  0.941
    eigenvectors:
  0.340  0.000  0.660
  0.000  1.000  0.000
  0.660  0.000  0.340
    occupations:
  0.909  0.000 -0.045
  0.000  0.929  0.000
 -0.045  0.000  0.879
atom    9   Tr[ns(na)] =   5.43345
    eigenvalues: 
  0.846  0.929  0.941
    eigenvectors:
  0.340  0.000  0.660
  0.494  0.250  0.256
  0.166  0.750  0.085
    occupations:
  0.909  0.039  0.022
  0.039  0.891 -0.022
  0.022 -0.022  0.917
atom   10   Tr[ns(na)] =   5.43345
    eigenvalues: 
  0.846  0.929  0.941
    eigenvectors:
  0.340  0.000  0.660
  0.496  0.250  0.255
  0.164  0.750  0.086
    occupations:
  0.909 -0.039  0.022
 -0.039  0.891  0.022
  0.022  0.022  0.917
N of occupied +U levels =  56.2507565
 --- exit write_ns ---
 --- in v_hubbard ---
Hubbard energy    0.0000
 -------

     total cpu time spent up to now is      221.0 secs

     total energy              =    -538.33300712 Ry
     Harris-Foulkes estimate   =    -538.33298140 Ry
     estimated scf accuracy    <       0.00000032 Ry

     iteration # 14     ecut=    30.00 Ry     beta=0.20
     Davidson diagonalization with overlap
     ethr =  4.27E-10,  avg # of iterations =  1.0
 --- enter write_ns ---
 LDA+U parameters:
U( 1)     =  0.00000000
alpha( 1) =  0.00000000
U( 2)     =  0.00000000
alpha( 2) =  0.00000000
U( 3)     =  0.00000000
alpha( 3) =  0.00000000
U( 4)     =  0.00000000
alpha( 4) =  0.00000000
atom    1   Tr[ns(na)] =   8.02220
    eigenvalues: 
  0.596  0.596  0.938  0.941  0.941
    eigenvectors:
  0.000  0.000  1.000  0.000  0.000
  0.333  0.322  0.000  0.004  0.341
  0.322  0.333  0.000  0.341  0.004
  0.289  0.056  0.000  0.515  0.140
  0.056  0.289  0.000  0.140  0.515
    occupations:
  0.938  0.000  0.000  0.000  0.000
  0.000  0.715  0.000 -0.060  0.152
  0.000  0.000  0.715  0.152  0.060
  0.000 -0.060  0.152  0.822  0.000
  0.000  0.152  0.060  0.000  0.822
atom    2   Tr[ns(na)] =   8.02151
    eigenvalues: 
  0.595  0.595  0.938  0.941  0.941
    eigenvectors:
  0.000  0.000  1.000  0.000  0.000
  0.640  0.015  0.000  0.223  0.122
  0.015  0.640  0.000  0.122  0.223
  0.016  0.329  0.000  0.470  0.185
  0.329  0.016  0.000  0.185  0.470
    occupations:
  0.938  0.000  0.000  0.000  0.000
  0.000  0.715  0.000  0.060  0.153
  0.000  0.000  0.715  0.153 -0.060
  0.000  0.060  0.153  0.822  0.000
  0.000  0.153 -0.060  0.000  0.822
atom    3   Tr[ns(na)] =   3.80294
    eigenvalues: 
  0.355  0.355  0.384  0.403  0.403
    eigenvectors:
  0.000  0.000  1.000  0.000  0.000
  0.781  0.139  0.000  0.012  0.068
  0.139  0.781  0.000  0.068  0.012
  0.013  0.067  0.000  0.780  0.141
  0.067  0.013  0.000  0.141  0.780
    occupations:
  0.384  0.000  0.000  0.000  0.000
  0.000  0.359  0.000  0.000  0.013
  0.000  0.000  0.359  0.013  0.000
  0.000  0.000  0.013  0.399  0.000
  0.000  0.013  0.000  0.000  0.399
atom    4   Tr[ns(na)] =   3.80294
    eigenvalues: 
  0.355  0.355  0.384  0.403  0.403
    eigenvectors:
  0.000  0.000  1.000  0.000  0.000
  0.782  0.139  0.000  0.012  0.068
  0.139  0.782  0.000  0.068  0.012
  0.013  0.067  0.000  0.780  0.140
  0.067  0.013  0.000  0.140  0.780
    occupations:
  0.384  0.000  0.000  0.000  0.000
  0.000  0.359  0.000  0.000  0.013
  0.000  0.000  0.359  0.013  0.000
  0.000  0.000  0.013  0.399  0.000
  0.000  0.013  0.000  0.000  0.399
atom    5   Tr[ns(na)] =   5.43352
    eigenvalues: 
  0.846  0.929  0.941
    eigenvectors:
  0.340  0.000  0.660
  0.494  0.250  0.256
  0.166  0.750  0.085
    occupations:
  0.909  0.039  0.022
  0.039  0.891 -0.022
  0.022 -0.022  0.917
atom    6   Tr[ns(na)] =   5.43352
    eigenvalues: 
  0.846  0.929  0.941
    eigenvectors:
  0.340  0.000  0.660
  0.000  1.000  0.000
  0.660  0.000  0.340
    occupations:
  0.909  0.000 -0.045
  0.000  0.929  0.000
 -0.045  0.000  0.879
atom    7   Tr[ns(na)] =   5.43352
    eigenvalues: 
  0.846  0.929  0.941
    eigenvectors:
  0.340  0.000  0.660
  0.496  0.250  0.255
  0.164  0.750  0.085
    occupations:
  0.909 -0.039  0.022
 -0.039  0.891  0.022
  0.022  0.022  0.917
atom    8   Tr[ns(na)] =   5.43352
    eigenvalues: 
  0.846  0.929  0.941
    eigenvectors:
  0.340  0.000  0.660
  0.000  1.000  0.000
  0.660  0.000  0.340
    occupations:
  0.909  0.000 -0.045
  0.000  0.929  0.000
 -0.045  0.000  0.879
atom    9   Tr[ns(na)] =   5.43352
    eigenvalues: 
  0.846  0.929  0.941
    eigenvectors:
  0.340  0.000  0.660
  0.494  0.250  0.256
  0.166  0.750  0.085
    occupations:
  0.909  0.039  0.022
  0.039  0.891 -0.022
  0.022 -0.022  0.917
atom   10   Tr[ns(na)] =   5.43352
    eigenvalues: 
  0.846  0.929  0.941
    eigenvectors:
  0.340  0.000  0.660
  0.496  0.250  0.255
  0.164  0.750  0.085
    occupations:
  0.909 -0.039  0.022
 -0.039  0.891  0.022
  0.022  0.022  0.917
N of occupied +U levels =  56.2506875
 --- exit write_ns ---
 --- in v_hubbard ---
Hubbard energy    0.0000
 -------

     total cpu time spent up to now is      237.0 secs

     total energy              =    -538.33302375 Ry
     Harris-Foulkes estimate   =    -538.33300714 Ry
     estimated scf accuracy    <       0.00000006 Ry

     iteration # 15     ecut=    30.00 Ry     beta=0.20
     Davidson diagonalization with overlap
     ethr =  7.88E-11,  avg # of iterations =  2.0
 --- enter write_ns ---
 LDA+U parameters:
U( 1)     =  0.00000000
alpha( 1) =  0.00000000
U( 2)     =  0.00000000
alpha( 2) =  0.00000000
U( 3)     =  0.00000000
alpha( 3) =  0.00000000
U( 4)     =  0.00000000
alpha( 4) =  0.00000000
atom    1   Tr[ns(na)] =   8.02194
    eigenvalues: 
  0.596  0.596  0.938  0.941  0.941
    eigenvectors:
  0.000  0.000  1.000  0.000  0.000
  0.333  0.322  0.000  0.004  0.341
  0.322  0.333  0.000  0.341  0.004
  0.289  0.057  0.000  0.515  0.140
  0.057  0.289  0.000  0.140  0.515
    occupations:
  0.938  0.000  0.000  0.000  0.000
  0.000  0.715  0.000 -0.060  0.152
  0.000  0.000  0.715  0.152  0.060
  0.000 -0.060  0.152  0.822  0.000
  0.000  0.152  0.060  0.000  0.822
atom    2   Tr[ns(na)] =   8.02132
    eigenvalues: 
  0.595  0.595  0.938  0.941  0.941
    eigenvectors:
  0.000  0.000  1.000  0.000  0.000
  0.640  0.015  0.000  0.223  0.122
  0.015  0.640  0.000  0.122  0.223
  0.016  0.329  0.000  0.470  0.185
  0.329  0.016  0.000  0.185  0.470
    occupations:
  0.938  0.000  0.000  0.000  0.000
  0.000  0.715  0.000  0.060  0.153
  0.000  0.000  0.715  0.153 -0.060
  0.000  0.060  0.153  0.822  0.000
  0.000  0.153 -0.060  0.000  0.822
atom    3   Tr[ns(na)] =   3.80280
    eigenvalues: 
  0.355  0.355  0.384  0.403  0.403
    eigenvectors:
  0.000  0.000  1.000  0.000  0.000
  0.781  0.139  0.000  0.012  0.068
  0.139  0.781  0.000  0.068  0.012
  0.013  0.067  0.000  0.780  0.141
  0.067  0.013  0.000  0.141  0.780
    occupations:
  0.384  0.000  0.000  0.000  0.000
  0.000  0.359  0.000  0.000  0.013
  0.000  0.000  0.359  0.013  0.000
  0.000  0.000  0.013  0.399  0.000
  0.000  0.013  0.000  0.000  0.399
atom    4   Tr[ns(na)] =   3.80280
    eigenvalues: 
  0.355  0.355  0.384  0.403  0.403
    eigenvectors:
  0.000  0.000  1.000  0.000  0.000
  0.782  0.139  0.000  0.012  0.068
  0.139  0.782  0.000  0.068  0.012
  0.013  0.067  0.000  0.780  0.141
  0.067  0.013  0.000  0.141  0.780
    occupations:
  0.384  0.000  0.000  0.000  0.000
  0.000  0.359  0.000  0.000  0.013
  0.000  0.000  0.359  0.013  0.000
  0.000  0.000  0.013  0.399  0.000
  0.000  0.013  0.000  0.000  0.399
atom    5   Tr[ns(na)] =   5.43362
    eigenvalues: 
  0.846  0.929  0.941
    eigenvectors:
  0.340  0.000  0.660
  0.494  0.250  0.256
  0.166  0.750  0.085
    occupations:
  0.909  0.039  0.022
  0.039  0.891 -0.022
  0.022 -0.022  0.917
atom    6   Tr[ns(na)] =   5.43362
    eigenvalues: 
  0.846  0.929  0.941
    eigenvectors:
  0.340  0.000  0.660
  0.000  1.000  0.000
  0.660  0.000  0.340
    occupations:
  0.909  0.000 -0.045
  0.000  0.929  0.000
 -0.045  0.000  0.879
atom    7   Tr[ns(na)] =   5.43362
    eigenvalues: 
  0.846  0.929  0.941
    eigenvectors:
  0.340  0.000  0.660
  0.496  0.250  0.255
  0.164  0.750  0.085
    occupations:
  0.909 -0.039  0.022
 -0.039  0.891  0.022
  0.022  0.022  0.917
atom    8   Tr[ns(na)] =   5.43362
    eigenvalues: 
  0.846  0.929  0.941
    eigenvectors:
  0.340  0.000  0.660
  0.000  1.000  0.000
  0.660  0.000  0.340
    occupations:
  0.909  0.000 -0.045
  0.000  0.929  0.000
 -0.045  0.000  0.879
atom    9   Tr[ns(na)] =   5.43362
    eigenvalues: 
  0.846  0.929  0.941
    eigenvectors:
  0.340  0.000  0.660
  0.494  0.250  0.256
  0.166  0.750  0.085
    occupations:
  0.909  0.039  0.022
  0.039  0.891 -0.022
  0.022 -0.022  0.917
atom   10   Tr[ns(na)] =   5.43362
    eigenvalues: 
  0.846  0.929  0.941
    eigenvectors:
  0.340  0.000  0.660
  0.496  0.250  0.255
  0.164  0.750  0.085
    occupations:
  0.909 -0.039  0.022
 -0.039  0.891  0.022
  0.022  0.022  0.917
N of occupied +U levels =  56.2505609
 --- exit write_ns ---
 --- in v_hubbard ---
Hubbard energy    0.0000
 -------

     total cpu time spent up to now is      258.8 secs

     total energy              =    -538.33303427 Ry
     Harris-Foulkes estimate   =    -538.33302378 Ry
     estimated scf accuracy    <       0.00000006 Ry

     iteration # 16     ecut=    30.00 Ry     beta=0.20
     Davidson diagonalization with overlap
[...]
    eigenvectors:
  0.000  0.000  0.000  0.000  1.000
  0.639  0.019  0.219  0.124  0.000
  0.019  0.639  0.124  0.219  0.000
  0.013  0.329  0.472  0.185  0.000
  0.329  0.013  0.185  0.472  0.000
    occupations:
  0.980  0.000  0.000  0.000  0.000
  0.000  0.693  0.000  0.074  0.193
  0.000  0.000  0.693  0.193 -0.074
  0.000  0.074  0.193  0.830  0.000
  0.000  0.193 -0.074  0.000  0.830
atom    3   Tr[ns(na)] =   3.79697
    eigenvalues: 
  0.356  0.356  0.382  0.402  0.402
    eigenvectors:
  0.000  0.000  1.000  0.000  0.000
  0.782  0.139  0.000  0.012  0.067
  0.139  0.782  0.000  0.067  0.012
  0.012  0.066  0.000  0.781  0.140
  0.066  0.012  0.000  0.140  0.781
    occupations:
  0.382  0.000  0.000  0.000  0.000
  0.000  0.359  0.000  0.000  0.012
  0.000  0.000  0.359  0.012  0.000
  0.000  0.000  0.012  0.399  0.000
  0.000  0.012  0.000  0.000  0.399
atom    4   Tr[ns(na)] =   3.79697
    eigenvalues: 
  0.356  0.356  0.382  0.402  0.402
    eigenvectors:
  0.000  0.000  1.000  0.000  0.000
  0.782  0.139  0.000  0.012  0.067
  0.139  0.782  0.000  0.067  0.012
  0.012  0.066  0.000  0.780  0.141
  0.066  0.012  0.000  0.141  0.780
    occupations:
  0.382  0.000  0.000  0.000  0.000
  0.000  0.359  0.000  0.000  0.012
  0.000  0.000  0.359  0.012  0.000
  0.000  0.000  0.012  0.399  0.000
  0.000  0.012  0.000  0.000  0.399
atom    5   Tr[ns(na)] =   5.43305
    eigenvalues: 
  0.842  0.930  0.945
    eigenvectors:
  0.339  0.000  0.661
  0.498  0.248  0.254
  0.164  0.752  0.084
    occupations:
  0.910  0.042  0.024
  0.042  0.890 -0.023
  0.024 -0.023  0.917
atom    6   Tr[ns(na)] =   5.43305
    eigenvalues: 
  0.842  0.930  0.945
    eigenvectors:
  0.339  0.000  0.661
  0.000  1.000  0.000
  0.661  0.000  0.339
    occupations:
  0.910  0.000 -0.049
  0.000  0.930  0.000
 -0.049  0.000  0.877
atom    7   Tr[ns(na)] =   5.43305
    eigenvalues: 
  0.842  0.930  0.945
    eigenvectors:
  0.339  0.000  0.661
  0.495  0.252  0.253
  0.167  0.748  0.085
    occupations:
  0.910 -0.042  0.024
 -0.042  0.890  0.023
  0.024  0.023  0.916
atom    8   Tr[ns(na)] =   5.43305
    eigenvalues: 
  0.842  0.930  0.945
    eigenvectors:
  0.339  0.000  0.661
  0.000  1.000  0.000
  0.661  0.000  0.339
    occupations:
  0.910  0.000 -0.049
  0.000  0.930  0.000
 -0.049  0.000  0.877
atom    9   Tr[ns(na)] =   5.43305
    eigenvalues: 
  0.842  0.930  0.945
    eigenvectors:
  0.339  0.000  0.661
  0.498  0.248  0.254
  0.164  0.752  0.084
    occupations:
  0.910  0.042  0.024
  0.042  0.890 -0.023
  0.024 -0.023  0.917
atom   10   Tr[ns(na)] =   5.43305
    eigenvalues: 
  0.842  0.930  0.945
    eigenvectors:
  0.339  0.000  0.661
  0.495  0.252  0.253
  0.167  0.748  0.085
    occupations:
  0.910 -0.042  0.024
 -0.042  0.890  0.023
  0.024  0.023  0.916
N of occupied +U levels =  56.2785023
 --- exit write_ns ---
 --- in v_hubbard ---
Hubbard energy    0.2530
 -------

     total cpu time spent up to now is      192.9 secs

     End of self-consistent calculation

          k = 0.0000 0.0000 0.0000 (  2175 PWs)   bands (ev):

   -19.7932 -19.6199  -6.5443  -5.8206  -5.8206  -5.8192  -5.8192  -5.4787
    -3.7844  -3.2562  -3.2113  -3.2113  -3.0205  -3.0205   5.1861   6.8940
     6.8940   7.4552   7.4552   7.5004   7.5177   7.5177   7.7139   9.2988
     9.5290   9.6240   9.6240   9.7146   9.7146  10.1213  10.1213  10.3671
    10.4640  10.4640  10.6787  11.3074  11.3074  11.7678  12.0664  12.0664
    14.7584  14.7584  15.4315  15.4315  16.2003  16.7884

     occupation numbers 
     0.0313   0.0313   0.0313   0.0313   0.0313   0.0313   0.0313   0.0313
     0.0313   0.0313   0.0313   0.0313   0.0313   0.0313   0.0313   0.0313
     0.0313   0.0313   0.0313   0.0313   0.0313   0.0313   0.0313   0.0313
     0.0312   0.0312   0.0312   0.0312   0.0312   0.0312   0.0312   0.0312
     0.0312   0.0312   0.0312   0.0305   0.0305   0.0206   0.0083   0.0083
     0.0000   0.0000   0.0000   0.0000   0.0000   0.0000

          k =-0.2471-0.1427 0.1027 (  2181 PWs)   bands (ev):

   -19.7663 -19.6487  -6.7228  -6.2854  -5.9325  -5.8382  -5.6024  -5.4693
    -3.5908  -3.3875  -2.9265  -2.8990  -2.8447  -2.7557   5.5459   6.8628
     6.9903   7.0079   7.0474   7.4257   7.4522   7.5402   7.6346   8.4494
     8.4988   9.0884   9.6446   9.7589   9.7841  10.0078  10.3530  10.3636
    10.5445  10.5474  10.6750  11.4561  11.5229  11.5614  12.3271  12.3956
    14.3049  14.3141  15.8193  16.0736  16.9751  17.2693

     occupation numbers 
     0.1875   0.1875   0.1875   0.1875   0.1875   0.1875   0.1875   0.1875
     0.1875   0.1875   0.1875   0.1875   0.1875   0.1875   0.1875   0.1875
     0.1875   0.1875   0.1875   0.1875   0.1875   0.1875   0.1875   0.1875
     0.1875   0.1875   0.1875   0.1875   0.1875   0.1875   0.1875   0.1875
     0.1875   0.1875   0.1875   0.1747   0.1680   0.1630   0.0118   0.0073
     0.0000   0.0000   0.0000   0.0000   0.0000   0.0000

          k = 0.4942 0.2853-0.2053 (  2202 PWs)   bands (ev):

   -19.7092 -19.7079  -6.7230  -6.7090  -5.9568  -5.9409  -5.5189  -5.5012
    -3.3762  -3.3760  -2.7849  -2.7833  -2.5030  -2.5010   6.0398   6.0413
     7.1595   7.1712   7.2312   7.2440   7.5178   7.5190   7.7229   7.7294
     7.9395   7.9444   9.4792   9.4924   9.8684   9.8775  10.2758  10.2885
    10.9281  10.9504  11.0534  11.0750  11.2771  11.2958  13.2917  13.3239
    13.3764  13.4087  16.8362  16.8414  17.1333  17.1381

     occupation numbers 
     0.0938   0.0938   0.0938   0.0938   0.0938   0.0938   0.0938   0.0938
     0.0938   0.0938   0.0938   0.0938   0.0938   0.0938   0.0938   0.0938
     0.0938   0.0938   0.0938   0.0938   0.0938   0.0938   0.0938   0.0938
     0.0938   0.0938   0.0938   0.0938   0.0937   0.0937   0.0937   0.0937
     0.0937   0.0937   0.0936   0.0935   0.0921   0.0918   0.0000   0.0000
     0.0000   0.0000   0.0000   0.0000   0.0000   0.0000

          k =-0.2471 0.1427 0.2053 (  2195 PWs)   bands (ev):

   -19.7605 -19.6547  -6.8464  -6.2263  -6.0600  -5.8213  -5.6476  -5.4458
    -3.4090  -3.2575  -3.0958  -2.8871  -2.8127  -2.5543   5.5781   6.7893
     6.7942   6.8923   7.2219   7.4550   7.4861   7.5404   7.5814   8.5482
     8.6125   8.7943   9.2922   9.6516   9.9369  10.0415  10.0500  10.1538
    10.2789  10.9921  11.1278  11.1495  11.4779  11.5536  11.9718  12.7366
    13.6333  14.7748  15.9961  16.1977  17.0384  17.5399

     occupation numbers 
     0.1875   0.1875   0.1875   0.1875   0.1875   0.1875   0.1875   0.1875
     0.1875   0.1875   0.1875   0.1875   0.1875   0.1875   0.1875   0.1875
     0.1875   0.1875   0.1875   0.1875   0.1875   0.1875   0.1875   0.1875
     0.1875   0.1875   0.1875   0.1875   0.1875   0.1875   0.1875   0.1875
     0.1875   0.1873   0.1867   0.1865   0.1727   0.1641   0.0718   0.0003
     0.0000   0.0000   0.0000   0.0000   0.0000   0.0000

          k = 0.4942 0.5706-0.1027 (  2198 PWs)   bands (ev):

   -19.7244 -19.6925  -6.9479  -6.6407  -6.1204  -5.8820  -5.5019  -5.3700
    -3.2998  -3.2477  -2.8706  -2.7022  -2.5225  -2.3797   5.8852   6.2370
     6.6039   6.9818   7.1810   7.3235   7.4460   7.6272   7.6751   7.8637
     8.1643   8.7762   9.0373   9.2971   9.6085   9.8052   9.9169  10.3480
    10.5897  11.0571  11.1622  11.2382  11.3708  11.4475  12.3195  12.7424
    13.4254  14.3541  16.9077  17.1175  17.3121  18.0183

     occupation numbers 
     0.1875   0.1875   0.1875   0.1875   0.1875   0.1875   0.1875   0.1875
     0.1875   0.1875   0.1875   0.1875   0.1875   0.1875   0.1875   0.1875
     0.1875   0.1875   0.1875   0.1875   0.1875   0.1875   0.1875   0.1875
     0.1875   0.1875   0.1875   0.1875   0.1875   0.1875   0.1875   0.1875
     0.1875   0.1871   0.1864   0.1852   0.1805   0.1754   0.0125   0.0003
     0.0000   0.0000   0.0000   0.0000   0.0000   0.0000

          k = 0.2471 0.4280 0.0000 (  2203 PWs)   bands (ev):

   -19.7351 -19.6816  -6.8414  -6.6315  -6.0450  -5.9684  -5.4272  -5.3549
    -3.5133  -3.2880  -2.7950  -2.7037  -2.5638  -2.5535   5.8747   6.2700
     6.8479   7.0864   7.1723   7.2574   7.4150   7.5028   7.5727   7.9375
     8.1727   8.9242   9.1460   9.3997   9.7627   9.7794  10.0587  10.3546
    10.8983  10.9272  11.0035  11.1886  11.2167  11.5419  12.2423  13.3203
    13.3936  14.1499  16.4384  16.9962  17.4232  17.9286

     occupation numbers 
     0.1875   0.1875   0.1875   0.1875   0.1875   0.1875   0.1875   0.1875
     0.1875   0.1875   0.1875   0.1875   0.1875   0.1875   0.1875   0.1875
     0.1875   0.1875   0.1875   0.1875   0.1875   0.1875   0.1875   0.1875
     0.1875   0.1875   0.1875   0.1875   0.1875   0.1875   0.1875   0.1875
     0.1874   0.1874   0.1873   0.1860   0.1856   0.1656   0.0203   0.0000
     0.0000   0.0000   0.0000   0.0000   0.0000   0.0000

          k = 0.4942-0.2853-0.4107 (  2202 PWs)   bands (ev):

   -19.7273 -19.6893  -7.1568  -6.4486  -6.2340  -5.9532  -5.5263  -5.2731
    -3.1881  -3.1157  -3.0387  -2.6447  -2.4756  -2.2167   5.7951   6.1294
     6.2540   6.8840   7.1501   7.2590   7.5785   7.6764   8.1650   8.2573
     8.2670   8.3106   8.6049   9.4181   9.6780   9.8811  10.0354  10.0704
    10.4331  10.9547  11.1172  11.2754  11.4065  11.5758  11.9024  12.4319
    13.3278  14.7881  17.0456  17.2684  17.5223  17.6131

     occupation numbers 
     0.0938   0.0938   0.0938   0.0938   0.0938   0.0938   0.0938   0.0938
     0.0938   0.0938   0.0938   0.0938   0.0938   0.0938   0.0938   0.0938
     0.0938   0.0938   0.0938   0.0938   0.0938   0.0938   0.0938   0.0938
     0.0938   0.0938   0.0938   0.0938   0.0937   0.0937   0.0937   0.0937
     0.0937   0.0937   0.0934   0.0921   0.0892   0.0805   0.0447   0.0027
     0.0000   0.0000   0.0000   0.0000   0.0000   0.0000

          k = 0.0000 0.0000 0.3080 (  2187 PWs)   bands (ev):

   -19.7660 -19.6491  -6.6112  -5.9769  -5.9204  -5.9204  -5.8288  -5.8288
    -3.1988  -3.1100  -3.1100  -2.9626  -2.8902  -2.8902   5.6053   6.9884
     6.9884   7.1268   7.1614   7.3651   7.3651   7.5781   7.5781   8.6630
     8.6630   9.1652   9.4421   9.5999   9.5999   9.7714  10.1276  10.1276
    10.6718  10.6718  10.8218  11.4913  11.4913  11.5645  12.3019  12.3019
    14.2663  14.2663  15.9142  15.9142  16.8814  17.4830

     occupation numbers 
     0.0625   0.0625   0.0625   0.0625   0.0625   0.0625   0.0625   0.0625
     0.0625   0.0625   0.0625   0.0625   0.0625   0.0625   0.0625   0.0625
     0.0625   0.0625   0.0625   0.0625   0.0625   0.0625   0.0625   0.0625
     0.0625   0.0625   0.0625   0.0625   0.0625   0.0625   0.0625   0.0625
     0.0625   0.0625   0.0625   0.0571   0.0571   0.0542   0.0047   0.0047
     0.0000   0.0000   0.0000   0.0000   0.0000   0.0000

          k = 0.7412 0.4280 0.0000 (  2204 PWs)   bands (ev):

   -19.7346 -19.6822  -6.7270  -6.5952  -6.1361  -5.8233  -5.6680  -5.5361
    -3.1692  -3.0848  -3.0388  -2.6707  -2.6509  -2.5784   5.9158   6.4823
     6.8251   7.1134   7.1869   7.2898   7.3888   7.4907   7.7034   7.8888
     8.2244   8.8018   9.1666   9.4729   9.5760   9.6832   9.8439  10.2231
    10.8925  11.0072  11.0367  11.2562  11.2773  11.4129  12.2446  13.2430
    13.3099  14.1755  16.6911  16.7270  17.5934  17.7973

     occupation numbers 
     0.1875   0.1875   0.1875   0.1875   0.1875   0.1875   0.1875   0.1875
     0.1875   0.1875   0.1875   0.1875   0.1875   0.1875   0.1875   0.1875
     0.1875   0.1875   0.1875   0.1875   0.1875   0.1875   0.1875   0.1875
     0.1875   0.1875   0.1875   0.1875   0.1875   0.1875   0.1875   0.1875
     0.1874   0.1873   0.1872   0.1848   0.1842   0.1780   0.0201   0.0000
     0.0000   0.0000   0.0000   0.0000   0.0000   0.0000

          k = 0.4942 0.2853 0.1027 (  2211 PWs)   bands (ev):

   -19.7248 -19.6921  -6.9640  -6.5367  -6.3149  -5.6866  -5.6165  -5.3419
    -3.3131  -3.1591  -3.0255  -2.5976  -2.5564  -2.3721   5.9189   6.2053
     6.5630   6.9743   7.2102   7.2182   7.4686   7.6333   7.7621   7.8393
     8.2034   8.8536   9.0374   9.3959   9.4681   9.6626  10.0011  10.3435
    10.6153  11.1169  11.2492  11.2612  11.3083  11.3330  12.2739  12.7576
    13.4715  14.3356  16.8883  16.9377  17.5833  17.9306

     occupation numbers 
     0.1875   0.1875   0.1875   0.1875   0.1875   0.1875   0.1875   0.1875
     0.1875   0.1875   0.1875   0.1875   0.1875   0.1875   0.1875   0.1875
     0.1875   0.1875   0.1875   0.1875   0.1875   0.1875   0.1875   0.1875
     0.1875   0.1875   0.1875   0.1875   0.1875   0.1875   0.1875   0.1875
     0.1875   0.1868   0.1849   0.1846   0.1832   0.1823   0.0168   0.0002
     0.0000   0.0000   0.0000   0.0000   0.0000   0.0000

          k = 0.7412-0.4280-0.3080 (  2210 PWs)   bands (ev):

   -19.7245 -19.6926  -6.8999  -6.4449  -6.2929  -5.7900  -5.7487  -5.4700
    -3.0638  -3.0464  -2.9580  -2.7240  -2.6165  -2.4222   5.9860   6.3513
     6.6259   6.9532   7.1980   7.2602   7.5016   7.6582   7.8001   7.8642
     8.1797   8.8571   8.9038   9.4576   9.5081   9.5112   9.6546  10.1948
    10.6986  11.1278  11.2250  11.2498  11.3671  11.3980  12.2333  12.7091
    13.4204  14.3054  17.0630  17.0715  17.5517  17.9057

     occupation numbers 
     0.1875   0.1875   0.1875   0.1875   0.1875   0.1875   0.1875   0.1875
     0.1875   0.1875   0.1875   0.1875   0.1875   0.1875   0.1875   0.1875
     0.1875   0.1875   0.1875   0.1875   0.1875   0.1875   0.1875   0.1875
     0.1875   0.1875   0.1875   0.1875   0.1875   0.1875   0.1875   0.1875
     0.1875   0.1867   0.1854   0.1849   0.1807   0.1790   0.0214   0.0004
     0.0000   0.0000   0.0000   0.0000   0.0000   0.0000

          k = 0.4942-0.5706-0.2053 (  2206 PWs)   bands (ev):

   -19.7086 -19.7086  -6.8822  -6.8630  -6.0294  -6.0283  -5.4160  -5.4097
    -3.1469  -3.1459  -2.8084  -2.8071  -2.3790  -2.3758   6.0658   6.0777
     6.7550   6.7573   7.0878   7.0941   7.3853   7.3878   7.9178   7.9197
     8.7778   8.7820   8.8817   8.8879   9.5266   9.5267  10.0791  10.0805
    10.9037  10.9069  11.1194  11.1285  11.4239  11.4286  12.2884  12.2947
    13.9999  14.0070  17.4302  17.4309  17.8711  17.8736

     occupation numbers 
     0.1875   0.1875   0.1875   0.1875   0.1875   0.1875   0.1875   0.1875
     0.1875   0.1875   0.1875   0.1875   0.1875   0.1875   0.1875   0.1875
     0.1875   0.1875   0.1875   0.1875   0.1875   0.1875   0.1875   0.1875
     0.1875   0.1875   0.1875   0.1875   0.1875   0.1875   0.1875   0.1875
     0.1874   0.1874   0.1868   0.1867   0.1772   0.1769   0.0153   0.0147
     0.0000   0.0000   0.0000   0.0000   0.0000   0.0000

          k = 0.0000 0.0000-0.6160 (  2186 PWs)   bands (ev):

   -19.7094 -19.7081  -6.5112  -6.4938  -5.9363  -5.9363  -5.9197  -5.9197
    -2.8857  -2.8857  -2.8838  -2.8838  -2.7016  -2.7014   6.2710   6.2718
     7.1785   7.1785   7.1913   7.1913   7.6134   7.6152   7.8677   7.8677
     7.8737   7.8737   9.6186   9.6186   9.6311   9.6311   9.6889   9.7022
    11.1121  11.1303  11.1831  11.1831  11.2033  11.2033  13.2322  13.2322
    13.2646  13.2646  17.1194  17.1194  17.1221  17.1221

     occupation numbers 
     0.0313   0.0313   0.0313   0.0313   0.0313   0.0313   0.0313   0.0313
     0.0313   0.0313   0.0313   0.0313   0.0313   0.0313   0.0313   0.0313
     0.0313   0.0313   0.0313   0.0313   0.0313   0.0313   0.0313   0.0313
     0.0313   0.0313   0.0312   0.0312   0.0312   0.0312   0.0312   0.0312
     0.0311   0.0311   0.0310   0.0310   0.0310   0.0310   0.0000   0.0000
     0.0000   0.0000   0.0000   0.0000   0.0000   0.0000

          k = 0.4942-0.5706 0.1027 (  2198 PWs)   bands (ev):

   -19.7245 -19.6925  -6.9477  -6.6378  -6.1247  -5.8856  -5.5011  -5.3655
    -3.2999  -3.2478  -2.8717  -2.7018  -2.5230  -2.3788   5.8866   6.2324
     6.6066   6.9807   7.1786   7.3240   7.4446   7.6325   7.6771   7.8621
     8.1669   8.7766   9.0340   9.2967   9.6069   9.8046   9.9169  10.3507
    10.5896  11.0497  11.1704  11.2367  11.3762  11.4425  12.3190  12.7425
    13.4256  14.3535  16.9098  17.1146  17.3127  18.0178

     occupation numbers 
     0.1875   0.1875   0.1875   0.1875   0.1875   0.1875   0.1875   0.1875
     0.1875   0.1875   0.1875   0.1875   0.1875   0.1875   0.1875   0.1875
     0.1875   0.1875   0.1875   0.1875   0.1875   0.1875   0.1875   0.1875
     0.1875   0.1875   0.1875   0.1875   0.1875   0.1875   0.1875   0.1875
     0.1875   0.1871   0.1863   0.1852   0.1802   0.1758   0.0125   0.0003
     0.0000   0.0000   0.0000   0.0000   0.0000   0.0000

     the Fermi energy is    11.8859 ev

!    total energy              =    -538.06739681 Ry
     Harris-Foulkes estimate   =    -538.06738225 Ry
     estimated scf accuracy    <          7.3E-09 Ry

     The total energy is the sum of the following terms:

     one-electron contribution =     -32.89640767 Ry
     hartree contribution      =      83.63367486 Ry
     xc contribution           =    -199.59290805 Ry
     ewald contribution        =    -389.44315552 Ry
     Hubbard energy            =       0.25302671 Ry
     smearing contrib. (-TS)   =      -0.02162714 Ry

     convergence has been achieved in  11 iterations

     init_run     :      8.02s CPU      8.16s WALL (       1 calls)
     electrons    :    182.48s CPU    184.27s WALL (       1 calls)

     Called by init_run:
     wfcinit      :      0.00s CPU      0.00s WALL (       1 calls)
     potinit      :      0.33s CPU      0.39s WALL (       1 calls)

     Called by electrons:
     c_bands      :    120.25s CPU    120.65s WALL (      11 calls)
     sum_band     :     36.60s CPU     36.83s WALL (      11 calls)
     v_of_rho     :      3.13s CPU      3.15s WALL (      12 calls)
     v_h          :      0.20s CPU      0.20s WALL (      12 calls)
     v_xc         :      2.93s CPU      2.95s WALL (      12 calls)
     newd         :     24.24s CPU     24.29s WALL (      12 calls)
     mix_rho      :      0.35s CPU      0.35s WALL (      11 calls)

     Called by c_bands:
     init_us_2    :      1.25s CPU      1.25s WALL (     308 calls)
     cegterg      :    116.83s CPU    117.03s WALL (     154 calls)

     Called by sum_band:
     sum_band:bec :      0.12s CPU      0.12s WALL (     154 calls)
     addusdens    :     15.65s CPU     15.66s WALL (      11 calls)

     Called by *egterg:
     h_psi        :     86.47s CPU     86.64s WALL (     600 calls)
     s_psi        :      4.81s CPU      4.82s WALL (     600 calls)
     g_psi        :      0.38s CPU      0.37s WALL (     446 calls)
     cdiaghg      :      9.98s CPU     10.00s WALL (     586 calls)
     cegterg:over :      5.71s CPU      5.72s WALL (     446 calls)
     cegterg:upda :      3.94s CPU      3.94s WALL (     446 calls)
     cegterg:last :      2.39s CPU      2.40s WALL (     168 calls)

     Called by h_psi:
     h_psi:vloc   :     70.87s CPU     71.02s WALL (     600 calls)
     h_psi:vnl    :      9.79s CPU      9.80s WALL (     600 calls)
     add_vuspsi   :      4.88s CPU      4.89s WALL (     600 calls)
     vhpsi        :      5.59s CPU      5.61s WALL (     600 calls)

     General routines
     calbec       :     10.08s CPU     10.10s WALL (    1508 calls)
     fft          :      2.17s CPU      2.20s WALL (     187 calls)
     ffts         :      0.06s CPU      0.09s WALL (      23 calls)
     fftw         :     66.17s CPU     66.28s WALL (   43186 calls)
     interpolate  :      0.38s CPU      0.43s WALL (      23 calls)
     davcio       :      0.01s CPU      0.37s WALL (     322 calls)

     Parallel routines
     fft_scatter  :     18.34s CPU     18.51s WALL (   43396 calls)
     Hubbard U routines
     new_ns       :      1.02s CPU      1.18s WALL (      11 calls)
     vhpsi        :      5.59s CPU      5.61s WALL (     600 calls)

     PWSCF        :  3m10.95s CPU     3m12.92s WALL


   This run was terminated on:  15: 6:35  11Nov2012            

=------------------------------------------------------------------------------=
   JOB DONE.
=------------------------------------------------------------------------------=
 
Job Ended on n9 at Sun Nov 11 15:06:35 EST 2012
 
