   JOB DONE.
=------------------------------------------------------------------------------=

     Program PWSCF v.5.0.1 starts on 11Nov2012 at 14:50:32 

     This program is part of the open-source Quantum ESPRESSO suite
     for quantum simulation of materials; please cite
         "P. Giannozzi et al., J. Phys.:Condens. Matter 21 395502 (2009);
          URL http://www.quantum-espresso.org", 
     in publications or presentations arising from this work. More details at
     http://www.quantum-espresso.org/quote.php

     Parallel version (MPI), running on     2 processors
     R & G space division:  proc/pool =    2

     Current dimensions of program PWSCF are:
     Max number of different atomic species (ntypx) = 10
     Max number of k-points (npk) =  40000
     Max angular momentum in pseudopotentials (lmaxx) =  3
     Reading input from CoLaO_U400_a-10.in
               file Co.pbe-nd-rrkjus.UPF: wavefunction(s)  4S 3D renormalized
               file O.pbe-rrkjus.UPF: wavefunction(s)  2S renormalized

     Subspace diagonalization in iterative solution of the eigenvalue problem:
     a serial algorithm will be used


     Parallelization info
     --------------------
     sticks:   dense  smooth     PW     G-vecs:    dense   smooth      PW
     Min        1112     444    131                34808     8786    1448
     Max        1113     445    132                34809     8787    1449
     Sum        2225     889    263                69617    17573    2897


     Title: 
     GGA + U, U = 4.000, alpha = -0.100                                         


     bravais-lattice index     =            5
     lattice parameter (alat)  =      10.3292  a.u.
     unit-cell volume          =     793.0599 (a.u.)^3
     number of atoms/cell      =           10
     number of atomic types    =            4
     number of electrons       =        76.00
     number of Kohn-Sham states=           46
     kinetic-energy cutoff     =      30.0000  Ry
     charge density cutoff     =     300.0000  Ry
     convergence threshold     =      1.0E-08
     mixing beta               =       0.2000
     number of iterations used =            8  plain     mixing
     Exchange-correlation      =  SLA  PW   PBE  PBE ( 1 4 3 4 0)
     EXX-fraction              =        0.00

     celldm(1)=  10.329242  celldm(2)=   0.000000  celldm(3)=   0.000000
     celldm(4)=   0.488100  celldm(5)=   0.000000  celldm(6)=   0.000000

     crystal axes: (cart. coord. in units of alat)
               a(1) = (   0.505915  -0.292090   0.811624 )  
               a(2) = (   0.000000   0.584180   0.811624 )  
               a(3) = (  -0.505915  -0.292090   0.811624 )  

     reciprocal axes: (cart. coord. in units 2 pi/alat)
               b(1) = (  0.988308 -0.570600  0.410699 )  
               b(2) = (  0.000000  1.141200  0.410699 )  
               b(3) = ( -0.988308 -0.570600  0.410699 )  


     PseudoPot. # 1 for Co read from file:
     /home/mcurnan/dft-course/Project1/example_LaCoO3/Co.pbe-nd-rrkjus.UPF
     MD5 check sum: 3e47a84addf5e975e0edeaeee2a73f59
     Pseudo is Ultrasoft + core correction, Zval =  9.0
     Generated by new atomic code, or converted to UPF format
     Using radial grid of  961 points,  6 beta functions with: 
                l(1) =   0
                l(2) =   0
                l(3) =   1
                l(4) =   1
                l(5) =   2
                l(6) =   2
     Q(r) pseudized with 0 coefficients 


     PseudoPot. # 2 for La read from file:
     /home/mcurnan/dft-course/Project1/example_LaCoO3/La.pbe-nsp-van.UPF
     MD5 check sum: b2f11743f52dde65f77d1302becd7929
     Pseudo is Ultrasoft + core correction, Zval = 11.0
     Generated by new atomic code, or converted to UPF format
     Using radial grid of  907 points,  6 beta functions with: 
                l(1) =   0
                l(2) =   0
                l(3) =   1
                l(4) =   1
                l(5) =   2
                l(6) =   2
     Q(r) pseudized with  6 coefficients,  rinner =    1.200   1.200   1.200
                                                       1.200   1.200

     PseudoPot. # 3 for La read from file:
     /home/mcurnan/dft-course/Project1/example_LaCoO3/La.pbe-nsp-van.UPF
     MD5 check sum: b2f11743f52dde65f77d1302becd7929
     Pseudo is Ultrasoft + core correction, Zval = 11.0
     Generated by new atomic code, or converted to UPF format
     Using radial grid of  907 points,  6 beta functions with: 
                l(1) =   0
                l(2) =   0
                l(3) =   1
                l(4) =   1
                l(5) =   2
                l(6) =   2
     Q(r) pseudized with  6 coefficients,  rinner =    1.200   1.200   1.200
                                                       1.200   1.200

     PseudoPot. # 4 for O  read from file:
     /home/mcurnan/dft-course/Project1/example_LaCoO3/O.pbe-rrkjus.UPF
     MD5 check sum: 390ba29e75625707450f3bd3f0eb6be9
     Pseudo is Ultrasoft, Zval =  6.0
     Generated by new atomic code, or converted to UPF format
     Using radial grid of 1269 points,  4 beta functions with: 
                l(1) =   0
                l(2) =   0
                l(3) =   1
                l(4) =   1
     Q(r) pseudized with 0 coefficients 


     atomic species   valence    mass     pseudopotential
        Co1            9.00     1.00000     Co( 1.00)
        La1           11.00     1.00000     La( 1.00)
        La2           11.00     1.00000     La( 1.00)
        O1             6.00     1.00000     O ( 1.00)
 -----
     simplified LDA+U calculation, Hubbard_lmax = 2
     atomic species  L   Hubbard U  Hubbard alpha
        Co1          2    4.000000    0.000000
        La1          2    0.000000   -0.100000
        La2          2    0.000000    0.000000
        O1           1    0.000000    0.000000
 -----

      3 Sym. Ops. (no inversion) found


                                    s                        frac. trans.

      isym =  1     identity                                     

 cryst.   s( 1) = (     1          0          0      )
                  (     0          1          0      )
                  (     0          0          1      )

 cart.    s( 1) = (  1.0000000  0.0000000  0.0000000 )
                  (  0.0000000  1.0000000  0.0000000 )
                  (  0.0000000  0.0000000  1.0000000 )


      isym =  2     120 deg rotation - cryst. axis [0,0,1]       

 cryst.   s( 2) = (     0          1          0      )
                  (     0          0          1      )
                  (     1          0          0      )

 cart.    s( 2) = ( -0.5000000 -0.8660254  0.0000000 )
                  (  0.8660254 -0.5000000  0.0000000 )
                  (  0.0000000  0.0000000  1.0000000 )


      isym =  3     120 deg rotation - cryst. axis [0,0,-1]      

 cryst.   s( 3) = (     0          0          1      )
                  (     1          0          0      )
                  (     0          1          0      )

 cart.    s( 3) = ( -0.5000000  0.8660254  0.0000000 )
                  ( -0.8660254 -0.5000000  0.0000000 )
                  (  0.0000000  0.0000000  1.0000000 )


     point group C_3 (3)    
     there are  3 classes
     the character table:

       E     C3    C3^2 
A      1.00  1.00  1.00
E      1.00 -0.50 -0.50
E*     1.00 -0.50 -0.50
     imaginary part
A      0.00  0.00  0.00
E      0.00  0.87 -0.87
E*     0.00 -0.87  0.87

     the symmetry operations in each class:
     E        1
     C3       2
     C3^2     3

   Cartesian axes

     site n.     atom                  positions (alat units)
         1           Co1 tau(   1) = (   0.0000000   0.0000000   1.8261537  )
         2           Co1 tau(   2) = (   0.0000000   0.0000000   0.6087179  )
         3           La1 tau(   3) = (   0.0000000   0.0000000   0.0000000  )
         4           La2 tau(   4) = (   0.0000000   0.0000000   1.2174358  )
         5           O1  tau(   5) = (   0.2831100  -0.0928263   1.6236536  )
         6           O1  tau(   6) = (  -0.2219449  -0.1987674   1.6236536  )
         7           O1  tau(   7) = (  -0.0611651   0.2915936   1.6236536  )
         8           O1  tau(   8) = (   0.2228050   0.3849164   1.2170300  )
         9           O1  tau(   9) = (   0.2219449  -0.3854130   1.2170300  )
        10           O1  tau(  10) = (  -0.4447499   0.0004966   1.2170300  )

   Crystallographic axes

     site n.     atom                  positions (cryst. coord.)
         1           Co1 tau(   1) = (  0.7500000  0.7500000  0.7500000  )
         2           Co1 tau(   2) = (  0.2500000  0.2500000  0.2500000  )
         3           La1 tau(   3) = (  0.0000000  0.0000000  0.0000000  )
         4           La2 tau(   4) = (  0.5000000  0.5000000  0.5000000  )
         5           O1  tau(   5) = (  0.9996000  0.5609000  0.4400000  )
         6           O1  tau(   6) = (  0.5609000  0.4400000  0.9996000  )
         7           O1  tau(   7) = (  0.4400000  0.9996000  0.5609000  )
         8           O1  tau(   8) = (  0.5004000  0.9391000  0.0600000  )
         9           O1  tau(   9) = (  0.9391000  0.0600000  0.5004000  )
        10           O1  tau(  10) = (  0.0600000  0.5004000  0.9391000  )

     number of k points=    14  gaussian smearing, width (Ry)=  0.0300
                       cart. coord. in units 2pi/alat
        k(    1) = (   0.0000000   0.0000000   0.0000000), wk =   0.0312500
        k(    2) = (  -0.2470771  -0.1426500   0.1026748), wk =   0.1875000
        k(    3) = (   0.4941541   0.2853000  -0.2053496), wk =   0.0937500
        k(    4) = (  -0.2470771   0.1426500   0.2053496), wk =   0.1875000
        k(    5) = (   0.4941541   0.5706001  -0.1026748), wk =   0.1875000
        k(    6) = (   0.2470771   0.4279500   0.0000000), wk =   0.1875000
        k(    7) = (   0.4941541  -0.2853000  -0.4106993), wk =   0.0937500
        k(    8) = (   0.0000000   0.0000000   0.3080244), wk =   0.0625000
        k(    9) = (   0.7412312   0.4279500   0.0000000), wk =   0.1875000
        k(   10) = (   0.4941541   0.2853000   0.1026748), wk =   0.1875000
        k(   11) = (   0.7412312  -0.4279500  -0.3080244), wk =   0.1875000
        k(   12) = (   0.4941541  -0.5706001  -0.2053496), wk =   0.1875000
        k(   13) = (   0.0000000   0.0000000  -0.6160489), wk =   0.0312500
        k(   14) = (   0.4941541  -0.5706001   0.1026748), wk =   0.1875000

                       cryst. coord.
        k(    1) = (   0.0000000   0.0000000   0.0000000), wk =   0.0312500
        k(    2) = (   0.0000000   0.0000000   0.2500000), wk =   0.1875000
        k(    3) = (   0.0000000   0.0000000  -0.5000000), wk =   0.0937500
        k(    4) = (   0.0000000   0.2500000   0.2500000), wk =   0.1875000
        k(    5) = (   0.0000000   0.2500000  -0.5000000), wk =   0.1875000
        k(    6) = (   0.0000000   0.2500000  -0.2500000), wk =   0.1875000
        k(    7) = (   0.0000000  -0.5000000  -0.5000000), wk =   0.0937500
        k(    8) = (   0.2500000   0.2500000   0.2500000), wk =   0.0625000
        k(    9) = (   0.2500000   0.2500000  -0.5000000), wk =   0.1875000
        k(   10) = (   0.2500000   0.2500000  -0.2500000), wk =   0.1875000
        k(   11) = (   0.2500000  -0.5000000  -0.5000000), wk =   0.1875000
        k(   12) = (   0.2500000  -0.5000000  -0.2500000), wk =   0.1875000
        k(   13) = (  -0.5000000  -0.5000000  -0.5000000), wk =   0.0312500
        k(   14) = (   0.5000000  -0.2500000   0.0000000), wk =   0.1875000

     Dense  grid:    69617 G-vectors     FFT dimensions: (  60,  60,  60)

     Smooth grid:    17573 G-vectors     FFT dimensions: (  40,  40,  40)

     Largest allocated arrays     est. size (Mb)     dimensions
        Kohn-Sham Wavefunctions         0.78 Mb     (   1117,   46)
        Atomic wavefunctions            1.06 Mb     (   1117,   62)
        NL pseudopotentials             2.05 Mb     (   1117,  120)
        Each V/rho on FFT grid          1.65 Mb     ( 108000)
        Each G-vector array             0.27 Mb     (  34808)
        G-vector shells                 0.04 Mb     (   4682)
     Largest temporary arrays     est. size (Mb)     dimensions
        Auxiliary wavefunctions         3.14 Mb     (   1117,  184)
        Each subspace H/S matrix        0.52 Mb     ( 184, 184)
        Each <psi_i|beta_j> matrix      0.08 Mb     (    120,   46)
        Arrays for rho mixing          13.18 Mb     ( 108000,   8)

     Check: negative/imaginary core charge=   -0.000028    0.000000

     The initial density is read from file :
     /home/mcurnan/dft-course/Project1/example_LaCoO3/400/La/alpha/CoLaO_U400.save/charge-density.dat

 --- in v_hubbard ---
Hubbard energy    0.3548
 -------
     Number of +U iterations with fixed ns =  0
     Starting occupations:
 --- enter write_ns ---
 LDA+U parameters:
U( 1)     =  4.00000000
alpha( 1) =  0.00000000
U( 2)     =  0.00000000
alpha( 2) = -0.10000000
U( 3)     =  0.00000000
alpha( 3) =  0.00000000
U( 4)     =  0.00000000
alpha( 4) =  0.00000000
atom    1   Tr[ns(na)] =   8.02205
    eigenvalues: 
  0.596  0.596  0.938  0.941  0.941
    eigenvectors:
  0.000  0.000  1.000  0.000  0.000
  0.334  0.321  0.000  0.004  0.341
  0.321  0.334  0.000  0.341  0.004
  0.288  0.057  0.000  0.515  0.140
  0.057  0.288  0.000  0.140  0.515
    occupations:
  0.938  0.000  0.000  0.000  0.000
  0.000  0.715  0.000 -0.060  0.152
  0.000  0.000  0.715  0.152  0.060
  0.000 -0.060  0.152  0.822  0.000
  0.000  0.152  0.060  0.000  0.822
atom    2   Tr[ns(na)] =   8.02143
    eigenvalues: 
  0.595  0.595  0.938  0.941  0.941
    eigenvectors:
  0.000  0.000  1.000  0.000  0.000
  0.638  0.017  0.000  0.223  0.122
  0.017  0.638  0.000  0.122  0.223
  0.015  0.330  0.000  0.470  0.185
  0.330  0.015  0.000  0.185  0.470
    occupations:
  0.938  0.000  0.000  0.000  0.000
  0.000  0.715  0.000  0.060  0.153
  0.000  0.000  0.715  0.153 -0.060
  0.000  0.060  0.153  0.822  0.000
  0.000  0.153 -0.060  0.000  0.822
atom    3   Tr[ns(na)] =   3.80283
    eigenvalues: 
  0.355  0.355  0.384  0.403  0.403
    eigenvectors:
  0.000  0.000  1.000  0.000  0.000
  0.781  0.140  0.000  0.012  0.068
  0.140  0.781  0.000  0.068  0.012
  0.013  0.067  0.000  0.780  0.140
  0.067  0.013  0.000  0.140  0.780
    occupations:
  0.384  0.000  0.000  0.000  0.000
  0.000  0.359  0.000  0.000  0.013
  0.000  0.000  0.359  0.013  0.000
  0.000  0.000  0.013  0.399  0.000
  0.000  0.013  0.000  0.000  0.399
atom    4   Tr[ns(na)] =   3.80283
    eigenvalues: 
  0.355  0.355  0.384  0.403  0.403
    eigenvectors:
  0.000  0.000  1.000  0.000  0.000
  0.781  0.140  0.000  0.012  0.068
  0.140  0.781  0.000  0.068  0.012
  0.013  0.067  0.000  0.780  0.140
  0.067  0.013  0.000  0.140  0.780
    occupations:
  0.384  0.000  0.000  0.000  0.000
  0.000  0.359  0.000  0.000  0.013
  0.000  0.000  0.359  0.013  0.000
  0.000  0.000  0.013  0.399  0.000
  0.000  0.013  0.000  0.000  0.399
atom    5   Tr[ns(na)] =   5.43358
    eigenvalues: 
  0.846  0.929  0.941
    eigenvectors:
  0.340  0.000  0.660
  0.496  0.250  0.255
  0.164  0.750  0.086
    occupations:
  0.909 -0.039  0.022
 -0.039  0.891  0.022
  0.022  0.022  0.917
atom    6   Tr[ns(na)] =   5.43358
    eigenvalues: 
  0.846  0.929  0.941
    eigenvectors:
  0.340  0.000  0.660
  0.494  0.250  0.256
  0.166  0.750  0.085
    occupations:
  0.909  0.039  0.022
  0.039  0.891 -0.022
  0.022 -0.022  0.917
atom    7   Tr[ns(na)] =   5.43358
    eigenvalues: 
  0.846  0.929  0.941
    eigenvectors:
  0.340  0.000  0.660
  0.000  1.000  0.000
  0.660  0.000  0.340
    occupations:
  0.909  0.000 -0.045
  0.000  0.929  0.000
 -0.045  0.000  0.879
atom    8   Tr[ns(na)] =   5.43358
    eigenvalues: 
  0.846  0.929  0.941
    eigenvectors:
  0.340  0.000  0.660
  0.496  0.250  0.255
  0.164  0.750  0.086
    occupations:
  0.909 -0.039  0.022
 -0.039  0.891  0.022
  0.022  0.022  0.917
atom    9   Tr[ns(na)] =   5.43358
    eigenvalues: 
  0.846  0.929  0.941
    eigenvectors:
  0.340  0.000  0.660
  0.494  0.250  0.256
  0.166  0.750  0.085
    occupations:
  0.909  0.039  0.022
  0.039  0.891 -0.022
  0.022 -0.022  0.917
atom   10   Tr[ns(na)] =   5.43358
    eigenvalues: 
  0.846  0.929  0.941
    eigenvectors:
  0.340  0.000  0.660
  0.000  1.000  0.000
  0.660  0.000  0.340
    occupations:
  0.909  0.000 -0.045
  0.000  0.929  0.000
 -0.045  0.000  0.879
N of occupied +U levels =  56.2506014
 --- exit write_ns ---
 LDA+U Projector read from file 
     Starting wfc from file

     total cpu time spent up to now is        9.5 secs

     per-process dynamical memory:    47.1 Mb

     Self-consistent Calculation

     iteration #  1     ecut=    30.00 Ry     beta=0.20
     Davidson diagonalization with overlap
     c_bands:  1 eigenvalues not converged
     c_bands:  1 eigenvalues not converged
     c_bands:  1 eigenvalues not converged
     c_bands:  1 eigenvalues not converged
     c_bands:  1 eigenvalues not converged
     c_bands:  1 eigenvalues not converged
     c_bands:  1 eigenvalues not converged
     c_bands:  1 eigenvalues not converged
     c_bands:  1 eigenvalues not converged
     c_bands:  1 eigenvalues not converged
     ethr =  1.00E-10,  avg # of iterations = 18.0
 --- enter write_ns ---
 LDA+U parameters:
U( 1)     =  4.00000000
alpha( 1) =  0.00000000
U( 2)     =  0.00000000
alpha( 2) = -0.10000000
U( 3)     =  0.00000000
alpha( 3) =  0.00000000
U( 4)     =  0.00000000
alpha( 4) =  0.00000000
atom    1   Tr[ns(na)] =   8.18707
    eigenvalues: 
  0.564  0.564  0.988  0.988  0.990
    eigenvectors:
  0.000  0.000  0.000  0.000  1.000
  0.330  0.324  0.004  0.341  0.000
  0.324  0.330  0.341  0.004  0.000
  0.288  0.058  0.514  0.141  0.000
  0.058  0.288  0.141  0.514  0.000
    occupations:
  0.990  0.000  0.000  0.000  0.000
  0.000  0.710  0.000 -0.073  0.188
  0.000  0.000  0.710  0.188  0.073
  0.000 -0.073  0.188  0.841  0.000
  0.000  0.188  0.073  0.000  0.841
atom    2   Tr[ns(na)] =   8.17844
    eigenvalues: 
  0.561  0.561  0.988  0.988  0.991
    eigenvectors:
  0.000  0.000  0.000  0.000  1.000
  0.634  0.020  0.221  0.125  0.000
  0.020  0.634  0.125  0.221  0.000
  0.012  0.334  0.469  0.185  0.000
  0.334  0.012  0.185  0.469  0.000
    occupations:
  0.991  0.000  0.000  0.000  0.000
  0.000  0.709  0.000  0.073  0.190
  0.000  0.000  0.709  0.190 -0.073
  0.000  0.073  0.190  0.840  0.000
  0.000  0.190 -0.073  0.000  0.840
atom    3   Tr[ns(na)] =   3.83034
    eigenvalues: 
  0.360  0.360  0.385  0.405  0.405
    eigenvectors:
  0.000  0.000  1.000  0.000  0.000
  0.780  0.140  0.000  0.012  0.069
  0.140  0.780  0.000  0.069  0.012
  0.013  0.068  0.000  0.779  0.141
  0.068  0.013  0.000  0.141  0.779
    occupations:
  0.385  0.000  0.000  0.000  0.000
  0.000  0.364  0.000  0.000  0.012
  0.000  0.000  0.364  0.012  0.000
  0.000  0.000  0.012  0.401  0.000
  0.000  0.012  0.000  0.000  0.401
atom    4   Tr[ns(na)] =   3.79536
    eigenvalues: 
  0.356  0.356  0.382  0.402  0.402
    eigenvectors:
  0.000  0.000  1.000  0.000  0.000
  0.777  0.141  0.000  0.012  0.070
  0.141  0.777  0.000  0.070  0.012
  0.013  0.069  0.000  0.777  0.141
  0.069  0.013  0.000  0.141  0.777
    occupations:
  0.382  0.000  0.000  0.000  0.000
  0.000  0.360  0.000  0.000  0.013
  0.000  0.000  0.360  0.013  0.000
  0.000  0.000  0.013  0.398  0.000
  0.000  0.013  0.000  0.000  0.398
atom    5   Tr[ns(na)] =   5.39179
    eigenvalues: 
  0.828  0.924  0.944
    eigenvectors:
  0.341  0.000  0.659
  0.495  0.250  0.255
  0.164  0.750  0.086
    occupations:
  0.904 -0.047  0.027
 -0.047  0.882  0.024
  0.027  0.024  0.910
atom    6   Tr[ns(na)] =   5.39179
    eigenvalues: 
  0.828  0.924  0.944
    eigenvectors:
  0.341  0.000  0.659
  0.494  0.250  0.256
  0.165  0.750  0.085
    occupations:
  0.904  0.047  0.027
  0.047  0.882 -0.024
  0.027 -0.024  0.910
atom    7   Tr[ns(na)] =   5.39179
    eigenvalues: 
  0.828  0.924  0.944
    eigenvectors:
  0.341  0.000  0.659
  0.000  1.000  0.000
  0.659  0.000  0.341
    occupations:
  0.904  0.000 -0.055
  0.000  0.924  0.000
 -0.055  0.000  0.868
atom    8   Tr[ns(na)] =   5.39190
    eigenvalues: 
  0.828  0.924  0.943
    eigenvectors:
  0.341  0.000  0.659
  0.495  0.250  0.255
  0.164  0.750  0.086
    occupations:
  0.904 -0.047  0.027
 -0.047  0.882  0.025
  0.027  0.025  0.910
atom    9   Tr[ns(na)] =   5.39190
    eigenvalues: 
  0.828  0.924  0.943
    eigenvectors:
  0.341  0.000  0.659
  0.494  0.250  0.256
  0.165  0.750  0.085
    occupations:
  0.904  0.047  0.027
  0.047  0.882 -0.025
  0.027 -0.025  0.910
atom   10   Tr[ns(na)] =   5.39190
    eigenvalues: 
  0.828  0.924  0.943
    eigenvectors:
  0.341  0.000  0.659
  0.000  1.000  0.000
  0.659  0.000  0.341
    occupations:
  0.904  0.000 -0.055
  0.000  0.924  0.000
 -0.055  0.000  0.868
N of occupied +U levels =  56.3422808
 --- exit write_ns ---
 --- in v_hubbard ---
Hubbard energy    0.3409
 -------

     total cpu time spent up to now is       81.4 secs

     total energy              =    -538.01495912 Ry
     Harris-Foulkes estimate   =    -538.02190999 Ry
     estimated scf accuracy    <       0.03650157 Ry

     iteration #  2     ecut=    30.00 Ry     beta=0.20
     Davidson diagonalization with overlap
     ethr =  4.80E-05,  avg # of iterations =  1.8
 --- enter write_ns ---
 LDA+U parameters:
U( 1)     =  4.00000000
alpha( 1) =  0.00000000
U( 2)     =  0.00000000
alpha( 2) = -0.10000000
U( 3)     =  0.00000000
alpha( 3) =  0.00000000
U( 4)     =  0.00000000
alpha( 4) =  0.00000000
atom    1   Tr[ns(na)] =   8.02533
    eigenvalues: 
  0.522  0.522  0.989  0.989  0.992
    eigenvectors:
  0.000  0.000  0.000  0.000  1.000
  0.333  0.322  0.004  0.341  0.000
  0.322  0.333  0.341  0.004  0.000
  0.288  0.057  0.515  0.140  0.000
  0.057  0.288  0.140  0.515  0.000
    occupations:
  0.992  0.000  0.000  0.000  0.000
  0.000  0.683  0.000 -0.081  0.206
  0.000  0.000  0.683  0.206  0.081
  0.000 -0.081  0.206  0.828  0.000
  0.000  0.206  0.081  0.000  0.828
atom    2   Tr[ns(na)] =   8.02972
    eigenvalues: 
  0.522  0.522  0.990  0.990  0.992
    eigenvectors:
  0.000  0.000  0.000  0.000  1.000
  0.637  0.018  0.222  0.122  0.000
  0.018  0.637  0.122  0.222  0.000
  0.014  0.330  0.471  0.185  0.000
  0.330  0.014  0.185  0.471  0.000
    occupations:
  0.992  0.000  0.000  0.000  0.000
  0.000  0.683  0.000  0.081  0.207
  0.000  0.000  0.683  0.207 -0.081
  0.000  0.081  0.207  0.828  0.000
  0.000  0.207 -0.081  0.000  0.828
atom    3   Tr[ns(na)] =   3.82319
    eigenvalues: 
  0.359  0.359  0.384  0.405  0.405
    eigenvectors:
  0.000  0.000  1.000  0.000  0.000
  0.783  0.139  0.000  0.011  0.067
  0.139  0.783  0.000  0.067  0.011
  0.012  0.066  0.000  0.781  0.140
  0.066  0.012  0.000  0.140  0.781
    occupations:
  0.384  0.000  0.000  0.000  0.000
  0.000  0.362  0.000  0.000  0.012
  0.000  0.000  0.362  0.012  0.000
  0.000  0.000  0.012  0.401  0.000
  0.000  0.012  0.000  0.000  0.401
atom    4   Tr[ns(na)] =   3.79056
    eigenvalues: 
  0.355  0.355  0.381  0.402  0.402
    eigenvectors:
  0.000  0.000  1.000  0.000  0.000
  0.780  0.140  0.000  0.012  0.068
  0.140  0.780  0.000  0.068  0.012
  0.013  0.067  0.000  0.779  0.141
  0.067  0.013  0.000  0.141  0.779
    occupations:
  0.381  0.000  0.000  0.000  0.000
  0.000  0.359  0.000  0.000  0.013
  0.000  0.000  0.359  0.013  0.000
  0.000  0.000  0.013  0.398  0.000
  0.000  0.013  0.000  0.000  0.398
atom    5   Tr[ns(na)] =   5.44165
    eigenvalues: 
  0.843  0.931  0.948
    eigenvectors:
  0.337  0.000  0.663
  0.497  0.252  0.252
  0.167  0.748  0.085
    occupations:
  0.912 -0.043  0.025
 -0.043  0.891  0.023
  0.025  0.023  0.917
atom    6   Tr[ns(na)] =   5.44165
    eigenvalues: 
  0.843  0.931  0.948
    eigenvectors:
  0.337  0.000  0.663
  0.499  0.248  0.253
  0.165  0.752  0.084
    occupations:
  0.912  0.043  0.025
  0.043  0.891 -0.023
  0.025 -0.023  0.918
atom    7   Tr[ns(na)] =   5.44165
    eigenvalues: 
  0.843  0.931  0.948
    eigenvectors:
  0.337  0.000  0.663
  0.000  1.000  0.000
  0.663  0.000  0.337
    occupations:
  0.912  0.000 -0.050
  0.000  0.931  0.000
 -0.050  0.000  0.878
atom    8   Tr[ns(na)] =   5.44168
    eigenvalues: 
  0.843  0.931  0.947
    eigenvectors:
  0.337  0.000  0.663
  0.497  0.252  0.252
  0.167  0.748  0.085
    occupations:
  0.912 -0.043  0.025
 -0.043  0.891  0.023
  0.025  0.023  0.918
atom    9   Tr[ns(na)] =   5.44168
    eigenvalues: 
  0.843  0.931  0.947
    eigenvectors:
  0.337  0.000  0.663
  0.499  0.248  0.253
  0.165  0.752  0.083
    occupations:
  0.912  0.043  0.025
  0.043  0.891 -0.023
  0.025 -0.023  0.918
atom   10   Tr[ns(na)] =   5.44168
    eigenvalues: 
  0.843  0.931  0.947
    eigenvectors:
  0.337  0.000  0.663
  0.000  1.000  0.000
  0.663  0.000  0.337
    occupations:
  0.912  0.000 -0.049
  0.000  0.931  0.000
 -0.049  0.000  0.878
N of occupied +U levels =  56.3187847
 --- exit write_ns ---
 --- in v_hubbard ---
Hubbard energy    0.3346
 -------

     total cpu time spent up to now is      104.2 secs

     total energy              =    -538.02164551 Ry
     Harris-Foulkes estimate   =    -538.02151958 Ry
     estimated scf accuracy    <       0.02285961 Ry

     iteration #  3     ecut=    30.00 Ry     beta=0.20
     Davidson diagonalization with overlap
     ethr =  3.01E-05,  avg # of iterations =  1.0
 --- enter write_ns ---
 LDA+U parameters:
U( 1)     =  4.00000000
alpha( 1) =  0.00000000
U( 2)     =  0.00000000
alpha( 2) = -0.10000000
U( 3)     =  0.00000000
alpha( 3) =  0.00000000
U( 4)     =  0.00000000
alpha( 4) =  0.00000000
atom    1   Tr[ns(na)] =   8.06332
    eigenvalues: 
  0.531  0.531  0.989  0.989  0.992
    eigenvectors:
  0.000  0.000  0.000  0.000  1.000
  0.333  0.323  0.004  0.340  0.000
  0.323  0.333  0.340  0.004  0.000
  0.287  0.057  0.516  0.140  0.000
  0.057  0.287  0.140  0.516  0.000
    occupations:
  0.992  0.000  0.000  0.000  0.000
  0.000  0.689  0.000 -0.080  0.203
  0.000  0.000  0.689  0.203  0.080
  0.000 -0.080  0.203  0.831  0.000
  0.000  0.203  0.080  0.000  0.831
atom    2   Tr[ns(na)] =   8.05873
    eigenvalues: 
  0.529  0.529  0.990  0.990  0.992
    eigenvectors:
  0.000  0.000  0.000  0.000  1.000
  0.637  0.019  0.221  0.123  0.000
  0.019  0.637  0.123  0.221  0.000
  0.014  0.330  0.471  0.185  0.000
  0.330  0.014  0.185  0.471  0.000
    occupations:
  0.992  0.000  0.000  0.000  0.000
  0.000  0.687  0.000  0.079  0.204
  0.000  0.000  0.687  0.204 -0.079
  0.000  0.079  0.204  0.831  0.000
  0.000  0.204 -0.079  0.000  0.831
atom    3   Tr[ns(na)] =   3.82246
    eigenvalues: 
  0.359  0.359  0.384  0.405  0.405
    eigenvectors:
  0.000  0.000  1.000  0.000  0.000
  0.783  0.139  0.000  0.011  0.067
  0.139  0.783  0.000  0.067  0.011
  0.012  0.066  0.000  0.781  0.140
  0.066  0.012  0.000  0.140  0.781
    occupations:
  0.384  0.000  0.000  0.000  0.000
  0.000  0.363  0.000  0.000  0.012
  0.000  0.000  0.363  0.012  0.000
  0.000  0.000  0.012  0.401  0.000
  0.000  0.012  0.000  0.000  0.401
atom    4   Tr[ns(na)] =   3.79052
    eigenvalues: 
  0.355  0.355  0.381  0.401  0.401
    eigenvectors:
  0.000  0.000  1.000  0.000  0.000
  0.780  0.140  0.000  0.012  0.068
  0.140  0.780  0.000  0.068  0.012
  0.013  0.067  0.000  0.780  0.140
  0.067  0.013  0.000  0.140  0.780
    occupations:
  0.381  0.000  0.000  0.000  0.000
  0.000  0.359  0.000  0.000  0.012
  0.000  0.000  0.359  0.012  0.000
  0.000  0.000  0.012  0.398  0.000
  0.000  0.012  0.000  0.000  0.398
atom    5   Tr[ns(na)] =   5.43129
    eigenvalues: 
  0.839  0.929  0.947
    eigenvectors:
  0.337  0.000  0.663
  0.497  0.251  0.253
  0.166  0.749  0.085
    occupations:
  0.911 -0.044  0.025
 -0.044  0.889  0.023
  0.025  0.023  0.916
atom    6   Tr[ns(na)] =   5.43129
    eigenvalues: 
  0.839  0.929  0.947
    eigenvectors:
  0.337  0.000  0.663
  0.497  0.249  0.254
  0.165  0.751  0.084
    occupations:
  0.911  0.044  0.025
  0.044  0.889 -0.023
  0.025 -0.023  0.916
atom    7   Tr[ns(na)] =   5.43129
    eigenvalues: 
  0.839  0.929  0.947
    eigenvectors:
  0.337  0.000  0.663
  0.000  1.000  0.000
  0.663  0.000  0.337
    occupations:
  0.911  0.000 -0.051
  0.000  0.929  0.000
 -0.051  0.000  0.876
atom    8   Tr[ns(na)] =   5.43134
    eigenvalues: 
  0.839  0.930  0.947
    eigenvectors:
  0.337  0.000  0.663
  0.497  0.251  0.253
  0.166  0.749  0.085
    occupations:
  0.910 -0.044  0.025
 -0.044  0.889  0.023
  0.025  0.023  0.916
atom    9   Tr[ns(na)] =   5.43134
    eigenvalues: 
  0.839  0.930  0.947
    eigenvectors:
  0.337  0.000  0.663
  0.497  0.249  0.254
  0.166  0.751  0.084
    occupations:
  0.910  0.044  0.025
  0.044  0.889 -0.023
  0.025 -0.023  0.916
atom   10   Tr[ns(na)] =   5.43134
    eigenvalues: 
  0.839  0.930  0.947
    eigenvectors:
  0.337  0.000  0.663
  0.000  1.000  0.000
  0.663  0.000  0.337
    occupations:
  0.910  0.000 -0.051
  0.000  0.930  0.000
 -0.051  0.000  0.876
N of occupied +U levels =  56.3229121
 --- exit write_ns ---
 --- in v_hubbard ---
Hubbard energy    0.2810
 -------

     total cpu time spent up to now is      126.4 secs

     total energy              =    -538.02551742 Ry
     Harris-Foulkes estimate   =    -538.02209565 Ry
     estimated scf accuracy    <       0.01136554 Ry

     iteration #  4     ecut=    30.00 Ry     beta=0.20
     Davidson diagonalization with overlap
     ethr =  1.50E-05,  avg # of iterations =  1.2
 --- enter write_ns ---
 LDA+U parameters:
U( 1)     =  4.00000000
alpha( 1) =  0.00000000
U( 2)     =  0.00000000
alpha( 2) = -0.10000000
U( 3)     =  0.00000000
alpha( 3) =  0.00000000
U( 4)     =  0.00000000
alpha( 4) =  0.00000000
atom    1   Tr[ns(na)] =   8.05142
    eigenvalues: 
  0.525  0.525  0.991  0.991  0.994
    eigenvectors:
  0.000  0.000  0.000  0.000  1.000
  0.338  0.321  0.004  0.338  0.000
  0.321  0.338  0.338  0.004  0.000
  0.284  0.057  0.519  0.140  0.000
  0.057  0.284  0.140  0.519  0.000
    occupations:
  0.994  0.000  0.000  0.000  0.000
  0.000  0.684  0.000 -0.081  0.206
  0.000  0.000  0.684  0.206  0.081
  0.000 -0.081  0.206  0.832  0.000
  0.000  0.206  0.081  0.000  0.832
atom    2   Tr[ns(na)] =   8.08332
    eigenvalues: 
  0.530  0.530  0.993  0.993  0.995
    eigenvectors:
  0.000  0.000  0.000  0.000  1.000
  0.638  0.020  0.221  0.121  0.000
  0.020  0.638  0.121  0.221  0.000
  0.013  0.328  0.475  0.184  0.000
  0.328  0.013  0.184  0.475  0.000
    occupations:
  0.995  0.000  0.000  0.000  0.000
  0.000  0.688  0.000  0.081  0.204
  0.000  0.000  0.688  0.204 -0.081
  0.000  0.081  0.204  0.835  0.000
  0.000  0.204 -0.081  0.000  0.835
atom    3   Tr[ns(na)] =   3.82186
    eigenvalues: 
  0.359  0.359  0.384  0.404  0.404
    eigenvectors:
  0.000  0.000  1.000  0.000  0.000
  0.784  0.138  0.000  0.011  0.066
  0.138  0.784  0.000  0.066  0.011
  0.012  0.065  0.000  0.783  0.140
  0.065  0.012  0.000  0.140  0.783
    occupations:
  0.384  0.000  0.000  0.000  0.000
  0.000  0.363  0.000  0.000  0.012
  0.000  0.000  0.363  0.012  0.000
  0.000  0.000  0.012  0.401  0.000
  0.000  0.012  0.000  0.000  0.401
atom    4   Tr[ns(na)] =   3.79512
    eigenvalues: 
  0.356  0.356  0.382  0.402  0.402
    eigenvectors:
  0.000  0.000  1.000  0.000  0.000
  0.783  0.139  0.000  0.012  0.067
  0.139  0.783  0.000  0.067  0.012
  0.012  0.066  0.000  0.781  0.140
  0.066  0.012  0.000  0.140  0.781
    occupations:
  0.382  0.000  0.000  0.000  0.000
  0.000  0.360  0.000  0.000  0.012
  0.000  0.000  0.360  0.012  0.000
  0.000  0.000  0.012  0.398  0.000
  0.000  0.012  0.000  0.000  0.398
atom    5   Tr[ns(na)] =   5.42697
    eigenvalues: 
  0.838  0.929  0.947
    eigenvectors:
  0.337  0.000  0.663
  0.493  0.255  0.252
  0.170  0.745  0.086
    occupations:
  0.910 -0.044  0.026
 -0.044  0.889  0.024
  0.026  0.024  0.915
atom    6   Tr[ns(na)] =   5.42697
    eigenvalues: 
  0.838  0.929  0.947
    eigenvectors:
  0.337  0.000  0.663
  0.501  0.245  0.254
  0.161  0.755  0.083
    occupations:
  0.910  0.045  0.025
  0.045  0.888 -0.023
  0.025 -0.023  0.916
atom    7   Tr[ns(na)] =   5.42697
    eigenvalues: 
  0.838  0.929  0.947
    eigenvectors:
  0.337  0.000  0.663
  0.000  1.000  0.000
  0.663  0.000  0.337
    occupations:
  0.910  0.000 -0.051
  0.000  0.929  0.000
 -0.051  0.000  0.875
atom    8   Tr[ns(na)] =   5.42697
    eigenvalues: 
  0.838  0.929  0.946
    eigenvectors:
  0.337  0.000  0.663
  0.493  0.255  0.252
  0.170  0.745  0.086
    occupations:
  0.910 -0.044  0.026
 -0.044  0.889  0.024
  0.026  0.024  0.915
atom    9   Tr[ns(na)] =   5.42697
    eigenvalues: 
  0.838  0.929  0.946
    eigenvectors:
  0.337  0.000  0.663
  0.501  0.245  0.254
  0.161  0.755  0.083
    occupations:
  0.910  0.045  0.025
  0.045  0.888 -0.024
  0.025 -0.024  0.916
atom   10   Tr[ns(na)] =   5.42697
    eigenvalues: 
  0.838  0.929  0.946
    eigenvectors:
  0.337  0.000  0.663
  0.000  1.000  0.000
  0.663  0.000  0.337
    occupations:
  0.910  0.000 -0.051
  0.000  0.929  0.000
 -0.051  0.000  0.874
N of occupied +U levels =  56.3135260
 --- exit write_ns ---
 --- in v_hubbard ---
Hubbard energy    0.2766
 -------

     total cpu time spent up to now is      145.2 secs

     total energy              =    -538.02625035 Ry
     Harris-Foulkes estimate   =    -538.02629585 Ry
     estimated scf accuracy    <       0.00122554 Ry

     iteration #  5     ecut=    30.00 Ry     beta=0.20
     Davidson diagonalization with overlap
     ethr =  1.61E-06,  avg # of iterations =  2.0
 --- enter write_ns ---
 LDA+U parameters:
U( 1)     =  4.00000000
alpha( 1) =  0.00000000
U( 2)     =  0.00000000
alpha( 2) = -0.10000000
U( 3)     =  0.00000000
alpha( 3) =  0.00000000
U( 4)     =  0.00000000
alpha( 4) =  0.00000000
atom    1   Tr[ns(na)] =   8.06209
    eigenvalues: 
  0.526  0.526  0.992  0.992  0.995
    eigenvectors:
  0.000  0.000  0.000  0.000  1.000
  0.339  0.320  0.003  0.338  0.000
  0.320  0.339  0.338  0.003  0.000
  0.284  0.057  0.519  0.140  0.000
  0.057  0.284  0.140  0.519  0.000
    occupations:
  0.995  0.000  0.000  0.000  0.000
  0.000  0.685  0.000 -0.082  0.205
  0.000  0.000  0.685  0.205  0.082
  0.000 -0.082  0.205  0.833  0.000
  0.000  0.205  0.082  0.000  0.833
atom    2   Tr[ns(na)] =   8.05744
    eigenvalues: 
  0.524  0.524  0.992  0.992  0.995
    eigenvectors:
  0.000  0.000  0.000  0.000  1.000
  0.638  0.021  0.220  0.121  0.000
  0.021  0.638  0.121  0.220  0.000
  0.013  0.328  0.474  0.184  0.000
  0.328  0.013  0.184  0.474  0.000
    occupations:
  0.995  0.000  0.000  0.000  0.000
  0.000  0.684  0.000  0.081  0.206
  0.000  0.000  0.684  0.206 -0.081
  0.000  0.081  0.206  0.833  0.000
  0.000  0.206 -0.081  0.000  0.833
atom    3   Tr[ns(na)] =   3.82159
    eigenvalues: 
  0.359  0.359  0.384  0.404  0.404
    eigenvectors:
  0.000  0.000  1.000  0.000  0.000
  0.784  0.138  0.000  0.011  0.066
  0.138  0.784  0.000  0.066  0.011
  0.012  0.065  0.000  0.783  0.140
  0.065  0.012  0.000  0.140  0.783
    occupations:
  0.384  0.000  0.000  0.000  0.000
  0.000  0.363  0.000  0.000  0.012
  0.000  0.000  0.363  0.012  0.000
  0.000  0.000  0.012  0.401  0.000
  0.000  0.012  0.000  0.000  0.401
atom    4   Tr[ns(na)] =   3.79558
    eigenvalues: 
  0.356  0.356  0.382  0.402  0.402
    eigenvectors:
  0.000  0.000  1.000  0.000  0.000
  0.782  0.139  0.000  0.011  0.067
  0.139  0.782  0.000  0.067  0.011
  0.012  0.066  0.000  0.781  0.140
  0.066  0.012  0.000  0.140  0.781
    occupations:
  0.382  0.000  0.000  0.000  0.000
  0.000  0.360  0.000  0.000  0.012
  0.000  0.000  0.360  0.012  0.000
  0.000  0.000  0.012  0.398  0.000
  0.000  0.012  0.000  0.000  0.398
atom    5   Tr[ns(na)] =   5.42905
    eigenvalues: 
  0.839  0.929  0.947
    eigenvectors:
  0.337  0.000  0.663
  0.497  0.251  0.252
  0.166  0.749  0.085
    occupations:
  0.910 -0.044  0.026
 -0.044  0.889  0.023
  0.026  0.023  0.916
atom    6   Tr[ns(na)] =   5.42905
    eigenvalues: 
  0.839  0.929  0.947
    eigenvectors:
  0.337  0.000  0.663
  0.497  0.249  0.253
  0.165  0.751  0.084
    occupations:
  0.910  0.044  0.026
  0.044  0.889 -0.023
  0.026 -0.023  0.916
atom    7   Tr[ns(na)] =   5.42905
    eigenvalues: 
  0.839  0.929  0.947
    eigenvectors:
  0.337  0.000  0.663
  0.000  1.000  0.000
  0.663  0.000  0.337
    occupations:
  0.910  0.000 -0.051
  0.000  0.929  0.000
 -0.051  0.000  0.875
atom    8   Tr[ns(na)] =   5.42905
    eigenvalues: 
  0.838  0.930  0.946
    eigenvectors:
  0.337  0.000  0.663
  0.497  0.251  0.252
  0.166  0.749  0.085
    occupations:
  0.910 -0.044  0.026
 -0.044  0.889  0.024
  0.026  0.024  0.916
atom    9   Tr[ns(na)] =   5.42905
    eigenvalues: 
  0.838  0.930  0.946
    eigenvectors:
  0.337  0.000  0.663
  0.497  0.249  0.253
  0.165  0.751  0.084
    occupations:
  0.910  0.044  0.026
  0.044  0.889 -0.024
  0.026 -0.024  0.916
atom   10   Tr[ns(na)] =   5.42905
    eigenvalues: 
  0.838  0.930  0.946
    eigenvectors:
  0.337  0.000  0.663
  0.000  1.000  0.000
  0.663  0.000  0.337
    occupations:
  0.910  0.000 -0.051
  0.000  0.930  0.000
 -0.051  0.000  0.875
N of occupied +U levels =  56.3110218
 --- exit write_ns ---
 --- in v_hubbard ---
Hubbard energy    0.2756
 -------

     total cpu time spent up to now is      162.1 secs

     total energy              =    -538.02643011 Ry
     Harris-Foulkes estimate   =    -538.02636934 Ry
     estimated scf accuracy    <       0.00018918 Ry

     iteration #  6     ecut=    30.00 Ry     beta=0.20
     Davidson diagonalization with overlap
     ethr =  2.49E-07,  avg # of iterations =  1.9
 --- enter write_ns ---
 LDA+U parameters:
U( 1)     =  4.00000000
alpha( 1) =  0.00000000
U( 2)     =  0.00000000
alpha( 2) = -0.10000000
U( 3)     =  0.00000000
alpha( 3) =  0.00000000
U( 4)     =  0.00000000
alpha( 4) =  0.00000000
atom    1   Tr[ns(na)] =   8.05082
    eigenvalues: 
  0.523  0.523  0.992  0.992  0.995
    eigenvectors:
  0.000  0.000  0.000  0.000  1.000
  0.338  0.320  0.003  0.338  0.000
  0.320  0.338  0.338  0.003  0.000
  0.285  0.057  0.519  0.140  0.000
  0.057  0.285  0.140  0.519  0.000
    occupations:
  0.995  0.000  0.000  0.000  0.000
  0.000  0.683  0.000 -0.082  0.206
  0.000  0.000  0.683  0.206  0.082
  0.000 -0.082  0.206  0.832  0.000
  0.000  0.206  0.082  0.000  0.832
atom    2   Tr[ns(na)] =   8.04862
    eigenvalues: 
  0.522  0.522  0.993  0.993  0.995
    eigenvectors:
  0.000  0.000  0.000  0.000  1.000
  0.639  0.020  0.221  0.121  0.000
  0.020  0.639  0.121  0.221  0.000
  0.014  0.328  0.475  0.184  0.000
  0.328  0.014  0.184  0.475  0.000
    occupations:
  0.995  0.000  0.000  0.000  0.000
  0.000  0.683  0.000  0.082  0.207
  0.000  0.000  0.683  0.207 -0.082
  0.000  0.082  0.207  0.832  0.000
  0.000  0.207 -0.082  0.000  0.832
atom    3   Tr[ns(na)] =   3.82121
    eigenvalues: 
  0.359  0.359  0.384  0.404  0.404
    eigenvectors:
  0.000  0.000  1.000  0.000  0.000
  0.784  0.138  0.000  0.011  0.066
  0.138  0.784  0.000  0.066  0.011
  0.012  0.065  0.000  0.783  0.140
  0.065  0.012  0.000  0.140  0.783
    occupations:
  0.384  0.000  0.000  0.000  0.000
  0.000  0.363  0.000  0.000  0.012
  0.000  0.000  0.363  0.012  0.000
  0.000  0.000  0.012  0.401  0.000
  0.000  0.012  0.000  0.000  0.401
atom    4   Tr[ns(na)] =   3.79489
    eigenvalues: 
  0.356  0.356  0.382  0.402  0.402
    eigenvectors:
  0.000  0.000  1.000  0.000  0.000
  0.782  0.139  0.000  0.011  0.067
  0.139  0.782  0.000  0.067  0.011
  0.012  0.066  0.000  0.781  0.140
  0.066  0.012  0.000  0.140  0.781
    occupations:
  0.382  0.000  0.000  0.000  0.000
  0.000  0.360  0.000  0.000  0.012
  0.000  0.000  0.360  0.012  0.000
  0.000  0.000  0.012  0.398  0.000
  0.000  0.012  0.000  0.000  0.398
atom    5   Tr[ns(na)] =   5.43219
    eigenvalues: 
  0.839  0.930  0.947
    eigenvectors:
  0.337  0.000  0.663
  0.497  0.251  0.252
  0.166  0.749  0.085
    occupations:
  0.911 -0.044  0.025
 -0.044  0.889  0.023
  0.025  0.023  0.916
atom    6   Tr[ns(na)] =   5.43219
    eigenvalues: 
  0.839  0.930  0.947
    eigenvectors:
  0.337  0.000  0.663
  0.498  0.249  0.253
  0.165  0.751  0.084
    occupations:
  0.911  0.044  0.025
  0.044  0.889 -0.023
  0.025 -0.023  0.916
atom    7   Tr[ns(na)] =   5.43219
    eigenvalues: 
  0.839  0.930  0.947
    eigenvectors:
  0.337  0.000  0.663
  0.000  1.000  0.000
  0.663  0.000  0.337
    occupations:
  0.911  0.000 -0.051
  0.000  0.930  0.000
 -0.051  0.000  0.876
atom    8   Tr[ns(na)] =   5.43223
    eigenvalues: 
  0.839  0.930  0.947
    eigenvectors:
  0.337  0.000  0.663
  0.497  0.251  0.252
  0.166  0.749  0.085
    occupations:
  0.911 -0.044  0.025
 -0.044  0.889  0.024
  0.025  0.024  0.916
atom    9   Tr[ns(na)] =   5.43223
    eigenvalues: 
  0.839  0.930  0.947
    eigenvectors:
  0.337  0.000  0.663
  0.498  0.249  0.253
  0.165  0.751  0.084
    occupations:
  0.911  0.044  0.025
  0.044  0.889 -0.024
  0.025 -0.024  0.916
atom   10   Tr[ns(na)] =   5.43223
    eigenvalues: 
  0.839  0.930  0.947
    eigenvectors:
  0.337  0.000  0.663
  0.000  1.000  0.000
  0.663  0.000  0.337
    occupations:
  0.911  0.000 -0.051
  0.000  0.930  0.000
 -0.051  0.000  0.876
N of occupied +U levels =  56.3088049
 --- exit write_ns ---
 --- in v_hubbard ---
Hubbard energy    0.2765
 -------

     total cpu time spent up to now is      180.1 secs

     total energy              =    -538.02652227 Ry
     Harris-Foulkes estimate   =    -538.02645883 Ry
     estimated scf accuracy    <       0.00005846 Ry

     iteration #  7     ecut=    30.00 Ry     beta=0.20
     Davidson diagonalization with overlap
     ethr =  7.69E-08,  avg # of iterations =  2.0
 --- enter write_ns ---
 LDA+U parameters:
U( 1)     =  4.00000000
alpha( 1) =  0.00000000
U( 2)     =  0.00000000
alpha( 2) = -0.10000000
U( 3)     =  0.00000000
alpha( 3) =  0.00000000
U( 4)     =  0.00000000
alpha( 4) =  0.00000000
atom    1   Tr[ns(na)] =   8.05143
    eigenvalues: 
  0.523  0.523  0.992  0.992  0.995
    eigenvectors:
  0.000  0.000  0.000  0.000  1.000
  0.338  0.320  0.003  0.339  0.000
  0.320  0.338  0.339  0.003  0.000
  0.286  0.056  0.519  0.139  0.000
  0.056  0.286  0.139  0.519  0.000
    occupations:
  0.995  0.000  0.000  0.000  0.000
  0.000  0.684  0.000 -0.082  0.206
  0.000  0.000  0.684  0.206  0.082
  0.000 -0.082  0.206  0.832  0.000
  0.000  0.206  0.082  0.000  0.832
atom    2   Tr[ns(na)] =   8.04876
    eigenvalues: 
  0.522  0.522  0.993  0.993  0.995
    eigenvectors:
  0.000  0.000  0.000  0.000  1.000
  0.639  0.019  0.221  0.121  0.000
  0.019  0.639  0.121  0.221  0.000
  0.014  0.328  0.474  0.184  0.000
  0.328  0.014  0.184  0.474  0.000
    occupations:
  0.995  0.000  0.000  0.000  0.000
  0.000  0.683  0.000  0.082  0.207
  0.000  0.000  0.683  0.207 -0.082
  0.000  0.082  0.207  0.832  0.000
  0.000  0.207 -0.082  0.000  0.832
atom    3   Tr[ns(na)] =   3.82161
    eigenvalues: 
  0.359  0.359  0.384  0.404  0.404
    eigenvectors:
  0.000  0.000  1.000  0.000  0.000
  0.784  0.139  0.000  0.011  0.066
  0.139  0.784  0.000  0.066  0.011
  0.012  0.065  0.000  0.782  0.140
  0.065  0.012  0.000  0.140  0.782
    occupations:
  0.384  0.000  0.000  0.000  0.000
  0.000  0.363  0.000  0.000  0.012
  0.000  0.000  0.363  0.012  0.000
  0.000  0.000  0.012  0.401  0.000
  0.000  0.012  0.000  0.000  0.401
atom    4   Tr[ns(na)] =   3.79296
    eigenvalues: 
  0.356  0.356  0.381  0.402  0.402
    eigenvectors:
  0.000  0.000  1.000  0.000  0.000
  0.781  0.139  0.000  0.012  0.068
  0.139  0.781  0.000  0.068  0.012
  0.013  0.067  0.000  0.780  0.140
  0.067  0.013  0.000  0.140  0.780
    occupations:
  0.381  0.000  0.000  0.000  0.000
  0.000  0.360  0.000  0.000  0.012
  0.000  0.000  0.360  0.012  0.000
  0.000  0.000  0.012  0.398  0.000
  0.000  0.012  0.000  0.000  0.398
atom    5   Tr[ns(na)] =   5.43218
    eigenvalues: 
  0.839  0.930  0.947
    eigenvectors:
  0.337  0.000  0.663
  0.496  0.251  0.253
  0.166  0.749  0.085
    occupations:
  0.911 -0.044  0.025
 -0.044  0.889  0.023
  0.025  0.023  0.916
atom    6   Tr[ns(na)] =   5.43218
    eigenvalues: 
  0.839  0.930  0.947
    eigenvectors:
  0.337  0.000  0.663
  0.497  0.249  0.254
  0.165  0.751  0.084
    occupations:
  0.911  0.044  0.025
  0.044  0.889 -0.023
  0.025 -0.023  0.916
atom    7   Tr[ns(na)] =   5.43218
    eigenvalues: 
  0.839  0.930  0.947
    eigenvectors:
  0.337  0.000  0.663
  0.000  1.000  0.000
  0.663  0.000  0.337
    occupations:
  0.911  0.000 -0.051
  0.000  0.930  0.000
 -0.051  0.000  0.876
atom    8   Tr[ns(na)] =   5.43223
    eigenvalues: 
  0.839  0.930  0.947
    eigenvectors:
  0.337  0.000  0.663
  0.497  0.251  0.253
  0.166  0.749  0.085
    occupations:
  0.911 -0.044  0.025
 -0.044  0.889  0.024
  0.025  0.024  0.916
atom    9   Tr[ns(na)] =   5.43223
    eigenvalues: 
  0.839  0.930  0.947
    eigenvectors:
  0.337  0.000  0.663
  0.497  0.249  0.254
  0.165  0.751  0.084
    occupations:
  0.911  0.044  0.025
  0.044  0.889 -0.024
  0.025 -0.024  0.916
atom   10   Tr[ns(na)] =   5.43223
    eigenvalues: 
  0.839  0.930  0.947
    eigenvectors:
  0.337  0.000  0.663
  0.000  1.000  0.000
  0.663  0.000  0.337
    occupations:
  0.911  0.000 -0.051
  0.000  0.930  0.000
 -0.051  0.000  0.876
N of occupied +U levels =  56.3079937
 --- exit write_ns ---
 --- in v_hubbard ---
Hubbard energy    0.2766
 -------

     total cpu time spent up to now is      198.6 secs

     total energy              =    -538.02658850 Ry
     Harris-Foulkes estimate   =    -538.02652839 Ry
     estimated scf accuracy    <       0.00000663 Ry

     iteration #  8     ecut=    30.00 Ry     beta=0.20
     Davidson diagonalization with overlap
     ethr =  8.72E-09,  avg # of iterations =  1.9
 --- enter write_ns ---
 LDA+U parameters:
U( 1)     =  4.00000000
alpha( 1) =  0.00000000
U( 2)     =  0.00000000
alpha( 2) = -0.10000000
U( 3)     =  0.00000000
alpha( 3) =  0.00000000
U( 4)     =  0.00000000
alpha( 4) =  0.00000000
atom    1   Tr[ns(na)] =   8.05216
    eigenvalues: 
  0.524  0.524  0.992  0.992  0.995
    eigenvectors:
  0.000  0.000  0.000  0.000  1.000
  0.338  0.320  0.003  0.339  0.000
  0.320  0.338  0.339  0.003  0.000
  0.285  0.057  0.519  0.140  0.000
  0.057  0.285  0.140  0.519  0.000
    occupations:
  0.995  0.000  0.000  0.000  0.000
  0.000  0.684  0.000 -0.082  0.206
  0.000  0.000  0.684  0.206  0.082
  0.000 -0.082  0.206  0.832  0.000
  0.000  0.206  0.082  0.000  0.832
atom    2   Tr[ns(na)] =   8.04962
    eigenvalues: 
  0.522  0.522  0.993  0.993  0.995
    eigenvectors:
  0.000  0.000  0.000  0.000  1.000
  0.639  0.019  0.221  0.120  0.000
  0.019  0.639  0.120  0.221  0.000
  0.014  0.328  0.474  0.184  0.000
  0.328  0.014  0.184  0.474  0.000
    occupations:
  0.995  0.000  0.000  0.000  0.000
  0.000  0.683  0.000  0.082  0.207
  0.000  0.000  0.683  0.207 -0.082
  0.000  0.082  0.207  0.832  0.000
  0.000  0.207 -0.082  0.000  0.832
atom    3   Tr[ns(na)] =   3.82172
    eigenvalues: 
  0.359  0.359  0.384  0.404  0.404
    eigenvectors:
  0.000  0.000  1.000  0.000  0.000
  0.784  0.138  0.000  0.011  0.066
  0.138  0.784  0.000  0.066  0.011
  0.012  0.065  0.000  0.782  0.140
  0.065  0.012  0.000  0.140  0.782
    occupations:
  0.384  0.000  0.000  0.000  0.000
  0.000  0.363  0.000  0.000  0.012
  0.000  0.000  0.363  0.012  0.000
  0.000  0.000  0.012  0.401  0.000
  0.000  0.012  0.000  0.000  0.401
atom    4   Tr[ns(na)] =   3.79325
    eigenvalues: 
  0.356  0.356  0.381  0.402  0.402
    eigenvectors:
  0.000  0.000  1.000  0.000  0.000
  0.781  0.140  0.000  0.012  0.068
  0.140  0.781  0.000  0.068  0.012
  0.013  0.067  0.000  0.780  0.140
  0.067  0.013  0.000  0.140  0.780
    occupations:
  0.381  0.000  0.000  0.000  0.000
  0.000  0.360  0.000  0.000  0.012
  0.000  0.000  0.360  0.012  0.000
  0.000  0.000  0.012  0.398  0.000
  0.000  0.012  0.000  0.000  0.398
atom    5   Tr[ns(na)] =   5.43190
    eigenvalues: 
  0.839  0.930  0.947
    eigenvectors:
  0.337  0.000  0.663
  0.496  0.251  0.253
  0.166  0.749  0.085
    occupations:
  0.911 -0.044  0.026
 -0.044  0.889  0.023
  0.026  0.023  0.916
atom    6   Tr[ns(na)] =   5.43190
    eigenvalues: 
  0.839  0.930  0.947
    eigenvectors:
  0.337  0.000  0.663
  0.497  0.249  0.254
  0.165  0.751  0.084
    occupations:
  0.911  0.044  0.025
  0.044  0.889 -0.023
  0.025 -0.023  0.916
atom    7   Tr[ns(na)] =   5.43190
    eigenvalues: 
  0.839  0.930  0.947
    eigenvectors:
  0.337  0.000  0.663
  0.000  1.000  0.000
  0.663  0.000  0.337
    occupations:
  0.911  0.000 -0.051
  0.000  0.930  0.000
 -0.051  0.000  0.876
atom    8   Tr[ns(na)] =   5.43191
    eigenvalues: 
  0.839  0.930  0.947
    eigenvectors:
  0.337  0.000  0.663
  0.497  0.251  0.252
  0.166  0.749  0.085
    occupations:
  0.910 -0.044  0.025
 -0.044  0.889  0.024
  0.025  0.024  0.916
atom    9   Tr[ns(na)] =   5.43191
    eigenvalues: 
  0.839  0.930  0.947
    eigenvectors:
  0.337  0.000  0.663
  0.497  0.249  0.254
  0.165  0.751  0.084
    occupations:
  0.910  0.044  0.025
  0.044  0.889 -0.024
  0.025 -0.024  0.916
atom   10   Tr[ns(na)] =   5.43191
    eigenvalues: 
  0.839  0.930  0.947
    eigenvectors:
  0.337  0.000  0.663
  0.000  1.000  0.000
  0.663  0.000  0.337
    occupations:
  0.910  0.000 -0.051
  0.000  0.930  0.000
 -0.051  0.000  0.876
N of occupied +U levels =  56.3081855
 --- exit write_ns ---
 --- in v_hubbard ---
Hubbard energy    0.2771
 -------

     total cpu time spent up to now is      217.1 secs

     total energy              =    -538.02662647 Ry
     Harris-Foulkes estimate   =    -538.02658909 Ry
     estimated scf accuracy    <       0.00000189 Ry

     iteration #  9     ecut=    30.00 Ry     beta=0.20
     Davidson diagonalization with overlap
     ethr =  2.49E-09,  avg # of iterations =  2.0
 --- enter write_ns ---
 LDA+U parameters:
U( 1)     =  4.00000000
alpha( 1) =  0.00000000
U( 2)     =  0.00000000
alpha( 2) = -0.10000000
U( 3)     =  0.00000000
alpha( 3) =  0.00000000
U( 4)     =  0.00000000
alpha( 4) =  0.00000000
atom    1   Tr[ns(na)] =   8.05267
    eigenvalues: 
  0.524  0.524  0.992  0.992  0.995
    eigenvectors:
  0.000  0.000  0.000  0.000  1.000
  0.338  0.320  0.003  0.339  0.000
  0.320  0.338  0.339  0.003  0.000
  0.285  0.056  0.519  0.139  0.000
  0.056  0.285  0.139  0.519  0.000
    occupations:
  0.995  0.000  0.000  0.000  0.000
  0.000  0.684  0.000 -0.083  0.206
  0.000  0.000  0.684  0.206  0.083
  0.000 -0.083  0.206  0.832  0.000
  0.000  0.206  0.083  0.000  0.832
atom    2   Tr[ns(na)] =   8.05007
    eigenvalues: 
  0.522  0.522  0.993  0.993  0.995
    eigenvectors:
  0.000  0.000  0.000  0.000  1.000
  0.639  0.019  0.222  0.120  0.000
  0.019  0.639  0.120  0.222  0.000
  0.014  0.327  0.474  0.184  0.000
  0.327  0.014  0.184  0.474  0.000
    occupations:
  0.995  0.000  0.000  0.000  0.000
  0.000  0.683  0.000  0.082  0.207
  0.000  0.000  0.683  0.207 -0.082
  0.000  0.082  0.207  0.832  0.000
  0.000  0.207 -0.082  0.000  0.832
atom    3   Tr[ns(na)] =   3.82185
    eigenvalues: 
  0.359  0.359  0.384  0.404  0.404
    eigenvectors:
  0.000  0.000  1.000  0.000  0.000
  0.784  0.139  0.000  0.011  0.066
  0.139  0.784  0.000  0.066  0.011
  0.012  0.065  0.000  0.782  0.140
  0.065  0.012  0.000  0.140  0.782
    occupations:
  0.384  0.000  0.000  0.000  0.000
  0.000  0.363  0.000  0.000  0.012
  0.000  0.000  0.363  0.012  0.000
  0.000  0.000  0.012  0.401  0.000
  0.000  0.012  0.000  0.000  0.401
atom    4   Tr[ns(na)] =   3.79399
    eigenvalues: 
  0.356  0.356  0.381  0.402  0.402
    eigenvectors:
  0.000  0.000  1.000  0.000  0.000
  0.782  0.139  0.000  0.012  0.068
  0.139  0.782  0.000  0.068  0.012
  0.012  0.067  0.000  0.780  0.140
  0.067  0.012  0.000  0.140  0.780
    occupations:
  0.381  0.000  0.000  0.000  0.000
  0.000  0.360  0.000  0.000  0.012
  0.000  0.000  0.360  0.012  0.000
  0.000  0.000  0.012  0.398  0.000
  0.000  0.012  0.000  0.000  0.398
atom    5   Tr[ns(na)] =   5.43162
    eigenvalues: 
  0.839  0.930  0.947
    eigenvectors:
  0.337  0.000  0.663
  0.497  0.251  0.252
  0.166  0.749  0.085
    occupations:
  0.911 -0.044  0.026
 -0.044  0.889  0.023
  0.026  0.023  0.916
atom    6   Tr[ns(na)] =   5.43162
    eigenvalues: 
  0.839  0.930  0.947
    eigenvectors:
  0.337  0.000  0.663
  0.497  0.249  0.254
  0.165  0.751  0.084
    occupations:
  0.911  0.044  0.025
  0.044  0.889 -0.023
  0.025 -0.023  0.916
atom    7   Tr[ns(na)] =   5.43162
    eigenvalues: 
  0.839  0.930  0.947
    eigenvectors:
  0.337  0.000  0.663
  0.000  1.000  0.000
  0.663  0.000  0.337
    occupations:
  0.911  0.000 -0.051
  0.000  0.930  0.000
 -0.051  0.000  0.876
atom    8   Tr[ns(na)] =   5.43164
    eigenvalues: 
  0.839  0.930  0.947
    eigenvectors:
  0.337  0.000  0.663
  0.497  0.251  0.252
  0.166  0.749  0.085
    occupations:
  0.910 -0.044  0.025
 -0.044  0.889  0.024
  0.025  0.024  0.916
atom    9   Tr[ns(na)] =   5.43164
    eigenvalues: 
  0.839  0.930  0.947
    eigenvectors:
  0.337  0.000  0.663
  0.497  0.249  0.254
  0.165  0.751  0.084
    occupations:
  0.910  0.044  0.025
  0.044  0.889 -0.024
  0.025 -0.024  0.916
atom   10   Tr[ns(na)] =   5.43164
    eigenvalues: 
  0.839  0.930  0.947
    eigenvectors:
  0.337  0.000  0.663
  0.000  1.000  0.000
  0.663  0.000  0.337
    occupations:
  0.910  0.000 -0.051
  0.000  0.930  0.000
 -0.051  0.000  0.875
N of occupied +U levels =  56.3083673
 --- exit write_ns ---
 --- in v_hubbard ---
Hubbard energy    0.2772
 -------

     total cpu time spent up to now is      235.4 secs

     total energy              =    -538.02665175 Ry
     Harris-Foulkes estimate   =    -538.02662695 Ry
     estimated scf accuracy    <       0.00000091 Ry

     iteration # 10     ecut=    30.00 Ry     beta=0.20
     Davidson diagonalization with overlap
     ethr =  1.19E-09,  avg # of iterations =  1.0
 --- enter write_ns ---
 LDA+U parameters:
U( 1)     =  4.00000000
alpha( 1) =  0.00000000
U( 2)     =  0.00000000
alpha( 2) = -0.10000000
U( 3)     =  0.00000000
alpha( 3) =  0.00000000
U( 4)     =  0.00000000
alpha( 4) =  0.00000000
atom    1   Tr[ns(na)] =   8.05276
    eigenvalues: 
  0.524  0.524  0.992  0.992  0.995
    eigenvectors:
  0.000  0.000  0.000  0.000  1.000
  0.338  0.320  0.003  0.339  0.000
  0.320  0.338  0.339  0.003  0.000
  0.285  0.056  0.519  0.139  0.000
  0.056  0.285  0.139  0.519  0.000
    occupations:
  0.995  0.000  0.000  0.000  0.000
  0.000  0.684  0.000 -0.083  0.206
  0.000  0.000  0.684  0.206  0.083
  0.000 -0.083  0.206  0.832  0.000
  0.000  0.206  0.083  0.000  0.832
atom    2   Tr[ns(na)] =   8.05021
    eigenvalues: 
  0.522  0.522  0.993  0.993  0.995
    eigenvectors:
  0.000  0.000  0.000  0.000  1.000
  0.639  0.019  0.222  0.120  0.000
  0.019  0.639  0.120  0.222  0.000
  0.014  0.327  0.474  0.184  0.000
  0.327  0.014  0.184  0.474  0.000
    occupations:
  0.995  0.000  0.000  0.000  0.000
  0.000  0.683  0.000  0.082  0.207
  0.000  0.000  0.683  0.207 -0.082
  0.000  0.082  0.207  0.832  0.000
  0.000  0.207 -0.082  0.000  0.832
atom    3   Tr[ns(na)] =   3.82177
    eigenvalues: 
  0.359  0.359  0.384  0.404  0.404
    eigenvectors:
  0.000  0.000  1.000  0.000  0.000
  0.784  0.139  0.000  0.011  0.066
  0.139  0.784  0.000  0.066  0.011
  0.012  0.065  0.000  0.783  0.140
  0.065  0.012  0.000  0.140  0.783
    occupations:
  0.384  0.000  0.000  0.000  0.000
  0.000  0.363  0.000  0.000  0.012
  0.000  0.000  0.363  0.012  0.000
  0.000  0.000  0.012  0.401  0.000
  0.000  0.012  0.000  0.000  0.401
atom    4   Tr[ns(na)] =   3.79381
    eigenvalues: 
  0.356  0.356  0.381  0.402  0.402
    eigenvectors:
  0.000  0.000  1.000  0.000  0.000
  0.782  0.139  0.000  0.012  0.068
  0.139  0.782  0.000  0.068  0.012
  0.012  0.067  0.000  0.781  0.140
  0.067  0.012  0.000  0.140  0.781
    occupations:
  0.381  0.000  0.000  0.000  0.000
  0.000  0.360  0.000  0.000  0.012
  0.000  0.000  0.360  0.012  0.000
  0.000  0.000  0.012  0.398  0.000
  0.000  0.012  0.000  0.000  0.398
atom    5   Tr[ns(na)] =   5.43161
    eigenvalues: 
  0.839  0.930  0.947
    eigenvectors:
  0.337  0.000  0.663
  0.497  0.251  0.252
  0.166  0.749  0.085
    occupations:
  0.911 -0.044  0.026
 -0.044  0.889  0.023
  0.026  0.023  0.916
atom    6   Tr[ns(na)] =   5.43161
    eigenvalues: 
  0.839  0.930  0.947
    eigenvectors:
  0.337  0.000  0.663
  0.497  0.249  0.254
  0.165  0.751  0.084
    occupations:
  0.911  0.044  0.025
  0.044  0.889 -0.023
  0.025 -0.023  0.916
atom    7   Tr[ns(na)] =   5.43161
    eigenvalues: 
  0.839  0.930  0.947
    eigenvectors:
  0.337  0.000  0.663
  0.000  1.000  0.000
  0.663  0.000  0.337
    occupations:
  0.911  0.000 -0.051
  0.000  0.930  0.000
 -0.051  0.000  0.876
atom    8   Tr[ns(na)] =   5.43163
    eigenvalues: 
  0.839  0.930  0.947
    eigenvectors:
  0.337  0.000  0.663
  0.497  0.251  0.252
  0.166  0.749  0.085
    occupations:
  0.910 -0.044  0.025
 -0.044  0.889  0.024
  0.025  0.024  0.916
atom    9   Tr[ns(na)] =   5.43163
    eigenvalues: 
  0.839  0.930  0.947
    eigenvectors:
  0.337  0.000  0.663
  0.497  0.249  0.254
  0.165  0.751  0.084
    occupations:
  0.910  0.044  0.025
  0.044  0.889 -0.024
  0.025 -0.024  0.916
atom   10   Tr[ns(na)] =   5.43163
    eigenvalues: 
  0.839  0.930  0.947
    eigenvectors:
  0.337  0.000  0.663
  0.000  1.000  0.000
  0.663  0.000  0.337
    occupations:
  0.910  0.000 -0.051
  0.000  0.930  0.000
 -0.051  0.000  0.875
N of occupied +U levels =  56.3082924
 --- exit write_ns ---
 --- in v_hubbard ---
Hubbard energy    0.2772
 -------

     total cpu time spent up to now is      252.5 secs

     total energy              =    -538.02666735 Ry
     Harris-Foulkes estimate   =    -538.02665178 Ry
     estimated scf accuracy    <       0.00000083 Ry

     iteration # 11     ecut=    30.00 Ry     beta=0.20
     Davidson diagonalization with overlap
     ethr =  1.09E-09,  avg # of iterations =  2.0
 --- enter write_ns ---
 LDA+U parameters:
U( 1)     =  4.00000000
alpha( 1) =  0.00000000
U( 2)     =  0.00000000
alpha( 2) = -0.10000000
U( 3)     =  0.00000000
alpha( 3) =  0.00000000
U( 4)     =  0.00000000
alpha( 4) =  0.00000000
atom    1   Tr[ns(na)] =   8.05228
    eigenvalues: 
  0.524  0.524  0.992  0.992  0.995
    eigenvectors:
  0.000  0.000  0.000  0.000  1.000
  0.338  0.320  0.003  0.339  0.000
  0.320  0.338  0.339  0.003  0.000
  0.286  0.056  0.519  0.139  0.000
  0.056  0.286  0.139  0.519  0.000
    occupations:
  0.995  0.000  0.000  0.000  0.000
  0.000  0.684  0.000 -0.083  0.206
  0.000  0.000  0.684  0.206  0.083
  0.000 -0.083  0.206  0.832  0.000
  0.000  0.206  0.083  0.000  0.832
atom    2   Tr[ns(na)] =   8.04968
    eigenvalues: 
  0.522  0.522  0.993  0.993  0.995
    eigenvectors:
  0.000  0.000  0.000  0.000  1.000
  0.639  0.019  0.222  0.120  0.000
  0.019  0.639  0.120  0.222  0.000
  0.015  0.327  0.474  0.184  0.000
  0.327  0.015  0.184  0.474  0.000
    occupations:
  0.995  0.000  0.000  0.000  0.000
  0.000  0.683  0.000  0.083  0.207
  0.000  0.000  0.683  0.207 -0.083
  0.000  0.083  0.207  0.832  0.000
  0.000  0.207 -0.083  0.000  0.832
atom    3   Tr[ns(na)] =   3.82161
    eigenvalues: 
  0.359  0.359  0.384  0.404  0.404
    eigenvectors:
  0.000  0.000  1.000  0.000  0.000
  0.784  0.138  0.000  0.011  0.066
  0.138  0.784  0.000  0.066  0.011
  0.012  0.065  0.000  0.782  0.140
  0.065  0.012  0.000  0.140  0.782
    occupations:
  0.384  0.000  0.000  0.000  0.000
  0.000  0.363  0.000  0.000  0.012
  0.000  0.000  0.363  0.012  0.000
  0.000  0.000  0.012  0.401  0.000
  0.000  0.012  0.000  0.000  0.401
atom    4   Tr[ns(na)] =   3.79345
    eigenvalues: 
  0.356  0.356  0.381  0.402  0.402
    eigenvectors:
  0.000  0.000  1.000  0.000  0.000
  0.781  0.139  0.000  0.012  0.068
  0.139  0.781  0.000  0.068  0.012
  0.012  0.067  0.000  0.781  0.140
  0.067  0.012  0.000  0.140  0.781
    occupations:
  0.381  0.000  0.000  0.000  0.000
  0.000  0.360  0.000  0.000  0.012
  0.000  0.000  0.360  0.012  0.000
  0.000  0.000  0.012  0.398  0.000
  0.000  0.012  0.000  0.000  0.398
atom    5   Tr[ns(na)] =   5.43182
    eigenvalues: 
  0.839  0.930  0.947
    eigenvectors:
  0.337  0.000  0.663
  0.497  0.251  0.252
  0.166  0.749  0.085
    occupations:
  0.911 -0.044  0.026
 -0.044  0.889  0.023
  0.026  0.023  0.916
atom    6   Tr[ns(na)] =   5.43182
    eigenvalues: 
  0.839  0.930  0.947
    eigenvectors:
  0.337  0.000  0.663
  0.497  0.249  0.254
  0.165  0.751  0.084
    occupations:
  0.911  0.044  0.025
  0.044  0.889 -0.023
  0.025 -0.023  0.916
atom    7   Tr[ns(na)] =   5.43182
    eigenvalues: 
  0.839  0.930  0.947
    eigenvectors:
  0.337  0.000  0.663
  0.000  1.000  0.000
  0.663  0.000  0.337
    occupations:
  0.911  0.000 -0.051
  0.000  0.930  0.000
 -0.051  0.000  0.876
atom    8   Tr[ns(na)] =   5.43185
    eigenvalues: 
  0.839  0.930  0.947
    eigenvectors:
  0.337  0.000  0.663
  0.497  0.251  0.252
  0.166  0.749  0.085
    occupations:
  0.910 -0.044  0.025
 -0.044  0.889  0.024
  0.025  0.024  0.916
atom    9   Tr[ns(na)] =   5.43185
    eigenvalues: 
  0.839  0.930  0.947
    eigenvectors:
  0.337  0.000  0.663
  0.497  0.249  0.254
  0.165  0.751  0.084
    occupations:
  0.910  0.044  0.025
  0.044  0.889 -0.024
  0.025 -0.024  0.916
atom   10   Tr[ns(na)] =   5.43185
    eigenvalues: 
  0.839  0.930  0.947
    eigenvectors:
  0.337  0.000  0.663
  0.000  1.000  0.000
  0.663  0.000  0.337
    occupations:
  0.910  0.000 -0.051
  0.000  0.930  0.000
 -0.051  0.000  0.876
N of occupied +U levels =  56.3080383
 --- exit write_ns ---
 --- in v_hubbard ---
Hubbard energy    0.2772
 -------

     total cpu time spent up to now is      273.4 secs

     total energy              =    -538.02667782 Ry
     Harris-Foulkes estimate   =    -538.02666748 Ry
     estimated scf accuracy    <       0.00000008 Ry

     iteration # 12     ecut=    30.00 Ry     beta=0.20
     Davidson diagonalization with overlap
     ethr =  1.01E-10,  avg # of iterations =  2.0
 --- enter write_ns ---
 LDA+U parameters:
U( 1)     =  4.00000000
alpha( 1) =  0.00000000
U( 2)     =  0.00000000
alpha( 2) = -0.10000000
U( 3)     =  0.00000000
alpha( 3) =  0.00000000
U( 4)     =  0.00000000
alpha( 4) =  0.00000000
atom    1   Tr[ns(na)] =   8.05240
    eigenvalues: 
  0.524  0.524  0.992  0.992  0.995
    eigenvectors:
  0.000  0.000  0.000  0.000  1.000
  0.338  0.320  0.003  0.339  0.000
  0.320  0.338  0.339  0.003  0.000
  0.285  0.056  0.519  0.139  0.000
  0.056  0.285  0.139  0.519  0.000
    occupations:
  0.995  0.000  0.000  0.000  0.000
  0.000  0.684  0.000 -0.083  0.206
  0.000  0.000  0.684  0.206  0.083
  0.000 -0.083  0.206  0.832  0.000
  0.000  0.206  0.083  0.000  0.832
atom    2   Tr[ns(na)] =   8.04982
    eigenvalues: 
  0.522  0.522  0.993  0.993  0.995
    eigenvectors:
  0.000  0.000  0.000  0.000  1.000
  0.639  0.019  0.222  0.120  0.000
  0.019  0.639  0.120  0.222  0.000
  0.014  0.327  0.474  0.184  0.000
  0.327  0.014  0.184  0.474  0.000
    occupations:
  0.995  0.000  0.000  0.000  0.000
  0.000  0.683  0.000  0.083  0.207
  0.000  0.000  0.683  0.207 -0.083
  0.000  0.083  0.207  0.832  0.000
  0.000  0.207 -0.083  0.000  0.832
atom    3   Tr[ns(na)] =   3.82171
    eigenvalues: 
  0.359  0.359  0.384  0.404  0.404
    eigenvectors:
  0.000  0.000  1.000  0.000  0.000
  0.784  0.139  0.000  0.011  0.066
  0.139  0.784  0.000  0.066  0.011
  0.012  0.065  0.000  0.783  0.140
  0.065  0.012  0.000  0.140  0.783
    occupations:
  0.384  0.000  0.000  0.000  0.000
  0.000  0.363  0.000  0.000  0.012
  0.000  0.000  0.363  0.012  0.000
  0.000  0.000  0.012  0.401  0.000
  0.000  0.012  0.000  0.000  0.401
atom    4   Tr[ns(na)] =   3.79364
    eigenvalues: 
  0.356  0.356  0.381  0.402  0.402
    eigenvectors:
  0.000  0.000  1.000  0.000  0.000
  0.782  0.139  0.000  0.012  0.068
  0.139  0.782  0.000  0.068  0.012
  0.012  0.067  0.000  0.780  0.140
  0.067  0.012  0.000  0.140  0.780
    occupations:
  0.381  0.000  0.000  0.000  0.000
  0.000  0.360  0.000  0.000  0.012
  0.000  0.000  0.360  0.012  0.000
  0.000  0.000  0.012  0.398  0.000
  0.000  0.012  0.000  0.000  0.398
atom    5   Tr[ns(na)] =   5.43175
    eigenvalues: 
  0.839  0.930  0.947
    eigenvectors:
  0.337  0.000  0.663
  0.497  0.251  0.252
  0.166  0.749  0.085
    occupations:
  0.911 -0.044  0.026
 -0.044  0.889  0.023
  0.026  0.023  0.916
atom    6   Tr[ns(na)] =   5.43175
    eigenvalues: 
  0.839  0.930  0.947
    eigenvectors:
  0.337  0.000  0.663
  0.497  0.249  0.254
  0.165  0.751  0.084
    occupations:
  0.911  0.044  0.025
  0.044  0.889 -0.023
  0.025 -0.023  0.916
atom    7   Tr[ns(na)] =   5.43175
    eigenvalues: 
  0.839  0.930  0.947
    eigenvectors:
  0.337  0.000  0.663
  0.000  1.000  0.000
  0.663  0.000  0.337
    occupations:
  0.911  0.000 -0.051
  0.000  0.930  0.000
 -0.051  0.000  0.876
atom    8   Tr[ns(na)] =   5.43178
    eigenvalues: 
  0.839  0.930  0.947
    eigenvectors:
  0.337  0.000  0.663
  0.497  0.251  0.252
  0.166  0.749  0.085
    occupations:
  0.910 -0.044  0.025
 -0.044  0.889  0.024
  0.025  0.024  0.916
atom    9   Tr[ns(na)] =   5.43178
    eigenvalues: 
  0.839  0.930  0.947
    eigenvectors:
  0.337  0.000  0.663
  0.497  0.249  0.254
  0.165  0.751  0.084
    occupations:
  0.910  0.044  0.025
  0.044  0.889 -0.024
  0.025 -0.024  0.916
atom   10   Tr[ns(na)] =   5.43178
    eigenvalues: 
  0.839  0.930  0.947
    eigenvectors:
  0.337  0.000  0.663
  0.000  1.000  0.000
  0.663  0.000  0.337
    occupations:
  0.910  0.000 -0.051
  0.000  0.930  0.000
 -0.051  0.000  0.876
N of occupied +U levels =  56.3081565
 --- exit write_ns ---
 --- in v_hubbard ---
Hubbard energy    0.2772
 -------

     total cpu time spent up to now is      296.8 secs

     total energy              =    -538.02668445 Ry
     Harris-Foulkes estimate   =    -538.02667784 Ry
     estimated scf accuracy    <       0.00000008 Ry

     iteration # 13     ecut=    30.00 Ry     beta=0.20
     Davidson diagonalization with overlap
     ethr =  1.01E-10,  avg # of iterations =  2.0
 --- enter write_ns ---
 LDA+U parameters:
U( 1)     =  4.00000000
alpha( 1) =  0.00000000
U( 2)     =  0.00000000
alpha( 2) = -0.10000000
U( 3)     =  0.00000000
alpha( 3) =  0.00000000
U( 4)     =  0.00000000
alpha( 4) =  0.00000000
atom    1   Tr[ns(na)] =   8.05230
    eigenvalues: 
  0.524  0.524  0.992  0.992  0.995
    eigenvectors:
  0.000  0.000  0.000  0.000  1.000
  0.338  0.320  0.003  0.339  0.000
  0.320  0.338  0.339  0.003  0.000
  0.286  0.056  0.519  0.139  0.000
  0.056  0.286  0.139  0.519  0.000
    occupations:
  0.995  0.000  0.000  0.000  0.000
  0.000  0.684  0.000 -0.083  0.206
  0.000  0.000  0.684  0.206  0.083
  0.000 -0.083  0.206  0.832  0.000
  0.000  0.206  0.083  0.000  0.832
atom    2   Tr[ns(na)] =   8.04971
    eigenvalues: 
  0.522  0.522  0.993  0.993  0.995
    eigenvectors:
  0.000  0.000  0.000  0.000  1.000
  0.639  0.019  0.222  0.120  0.000
  0.019  0.639  0.120  0.222  0.000
  0.015  0.327  0.474  0.184  0.000
  0.327  0.015  0.184  0.474  0.000
    occupations:
  0.995  0.000  0.000  0.000  0.000
  0.000  0.683  0.000  0.083  0.207
  0.000  0.000  0.683  0.207 -0.083
  0.000  0.083  0.207  0.832  0.000
  0.000  0.207 -0.083  0.000  0.832
atom    3   Tr[ns(na)] =   3.82170
    eigenvalues: 
  0.359  0.359  0.384  0.404  0.404
    eigenvectors:
  0.000  0.000  1.000  0.000  0.000
  0.784  0.139  0.000  0.011  0.066
  0.139  0.784  0.000  0.066  0.011
  0.012  0.065  0.000  0.782  0.140
  0.065  0.012  0.000  0.140  0.782
    occupations:
  0.384  0.000  0.000  0.000  0.000
  0.000  0.363  0.000  0.000  0.012
  0.000  0.000  0.363  0.012  0.000
  0.000  0.000  0.012  0.401  0.000
  0.000  0.012  0.000  0.000  0.401
atom    4   Tr[ns(na)] =   3.79352
    eigenvalues: 
  0.356  0.356  0.381  0.402  0.402
    eigenvectors:
  0.000  0.000  1.000  0.000  0.000
  0.782  0.139  0.000  0.012  0.068
  0.139  0.782  0.000  0.068  0.012
  0.012  0.067  0.000  0.781  0.140
  0.067  0.012  0.000  0.140  0.781
    occupations:
  0.381  0.000  0.000  0.000  0.000
  0.000  0.360  0.000  0.000  0.012
  0.000  0.000  0.360  0.012  0.000
  0.000  0.000  0.012  0.398  0.000
  0.000  0.012  0.000  0.000  0.398
atom    5   Tr[ns(na)] =   5.43180
    eigenvalues: 
  0.839  0.930  0.947
    eigenvectors:
  0.337  0.000  0.663
  0.497  0.251  0.252
  0.166  0.749  0.085
    occupations:
  0.911 -0.044  0.026
 -0.044  0.889  0.023
  0.026  0.023  0.916
atom    6   Tr[ns(na)] =   5.43180
    eigenvalues: 
  0.839  0.930  0.947
    eigenvectors:
  0.337  0.000  0.663
  0.497  0.249  0.254
  0.165  0.751  0.084
    occupations:
  0.911  0.044  0.025
  0.044  0.889 -0.023
  0.025 -0.023  0.916
atom    7   Tr[ns(na)] =   5.43180
    eigenvalues: 
  0.839  0.930  0.947
    eigenvectors:
  0.337  0.000  0.663
  0.000  1.000  0.000
  0.663  0.000  0.337
    occupations:
  0.911  0.000 -0.051
  0.000  0.930  0.000
 -0.051  0.000  0.876
atom    8   Tr[ns(na)] =   5.43183
    eigenvalues: 
  0.839  0.930  0.947
    eigenvectors:
  0.337  0.000  0.663
  0.497  0.251  0.252
  0.166  0.749  0.085
    occupations:
  0.910 -0.044  0.025
 -0.044  0.889  0.024
  0.025  0.024  0.916
atom    9   Tr[ns(na)] =   5.43183
    eigenvalues: 
  0.839  0.930  0.947
    eigenvectors:
  0.337  0.000  0.663
  0.497  0.249  0.254
  0.165  0.751  0.084
    occupations:
  0.910  0.044  0.025
  0.044  0.889 -0.024
  0.025 -0.024  0.916
atom   10   Tr[ns(na)] =   5.43183
    eigenvalues: 
  0.839  0.930  0.947
    eigenvectors:
  0.337  0.000  0.663
  0.000  1.000  0.000
  0.663  0.000  0.337
    occupations:
  0.910  0.000 -0.051
  0.000  0.930  0.000
 -0.051  0.000  0.876
N of occupied +U levels =  56.3081043
 --- exit write_ns ---
 --- in v_hubbard ---
Hubbard energy    0.2772
 -------

     total cpu time spent up to now is      316.9 secs

     End of self-consistent calculation

          k = 0.0000 0.0000 0.0000 (  2175 PWs)   bands (ev):

   -19.7838 -19.6034  -6.5635  -5.8760  -5.8760  -5.8605  -5.8605  -5.5250
    -3.8313  -3.2508  -3.2508  -3.2436  -3.0147  -3.0147   5.1646   6.7399
     6.7399   6.8824   6.8824   6.8883   7.4973   7.4973   7.6965   8.6576
     8.8637   8.8637   9.2821   9.6097   9.6097   9.9807   9.9807  10.1810
    10.4416  10.4416  10.6587  10.9622  10.9622  11.3214  11.8969  11.8969
    14.7118  14.7118  15.3888  15.3888  16.1567  16.7451

     occupation numbers 
     0.0313   0.0313   0.0313   0.0313   0.0313   0.0313   0.0313   0.0313
     0.0313   0.0313   0.0313   0.0313   0.0313   0.0313   0.0313   0.0313
     0.0313   0.0313   0.0313   0.0313   0.0313   0.0313   0.0313   0.0313
     0.0313   0.0313   0.0312   0.0312   0.0312   0.0312   0.0312   0.0312
     0.0312   0.0312   0.0312   0.0308   0.0308   0.0257   0.0044   0.0044
     0.0000   0.0000   0.0000   0.0000   0.0000   0.0000

          k =-0.2471-0.1427 0.1027 (  2181 PWs)   bands (ev):

   -19.7602 -19.6384  -6.7426  -6.3273  -5.9791  -5.8810  -5.6433  -5.5135
    -3.6216  -3.3996  -2.9358  -2.8995  -2.8611  -2.7539   5.5051   6.5124
     6.7650   6.8375   6.8453   6.9267   6.9692   7.4469   7.5762   7.9800
     8.0640   8.5176   9.4972   9.6191   9.6980   9.9214  10.0427  10.0897
    10.3049  10.3677  10.3925  10.9851  11.0930  11.0977  12.2697  12.3421
    14.2588  14.2684  15.7795  16.0350  16.9383  17.2337

     occupation numbers 
     0.1875   0.1875   0.1875   0.1875   0.1875   0.1875   0.1875   0.1875
     0.1875   0.1875   0.1875   0.1875   0.1875   0.1875   0.1875   0.1875
     0.1875   0.1875   0.1875   0.1875   0.1875   0.1875   0.1875   0.1875
     0.1875   0.1875   0.1875   0.1875   0.1875   0.1875   0.1875   0.1875
     0.1875   0.1875   0.1875   0.1840   0.1794   0.1791   0.0017   0.0008
     0.0000   0.0000   0.0000   0.0000   0.0000   0.0000

          k = 0.4942 0.2853-0.2053 (  2202 PWs)   bands (ev):

   -19.7296 -19.6808  -6.7592  -6.7284  -5.9923  -5.9854  -5.5511  -5.5464
    -3.3993  -3.3767  -2.7973  -2.7851  -2.5157  -2.4800   5.8780   5.8940
     6.8303   6.8484   7.0568   7.0725   7.2438   7.2619   7.3401   7.3605
     7.5411   7.5603   9.3784   9.3864   9.8218   9.8299  10.2241  10.2351
    10.3579  10.3811  10.5539  10.5764  10.8438  10.8642  13.2442  13.2866
    13.3277  13.3699  16.7845  16.8254  17.0825  17.1222

     occupation numbers 
     0.0938   0.0938   0.0938   0.0938   0.0938   0.0938   0.0938   0.0938
     0.0938   0.0938   0.0938   0.0938   0.0938   0.0938   0.0938   0.0938
     0.0938   0.0938   0.0938   0.0938   0.0938   0.0938   0.0938   0.0938
     0.0938   0.0938   0.0937   0.0937   0.0937   0.0937   0.0937   0.0937
     0.0937   0.0937   0.0937   0.0937   0.0933   0.0932   0.0000   0.0000
     0.0000   0.0000   0.0000   0.0000   0.0000   0.0000

          k =-0.2471 0.1427 0.2053 (  2195 PWs)   bands (ev):

   -19.7560 -19.6485  -6.8654  -6.2618  -6.0960  -5.8739  -5.6852  -5.4922
    -3.4285  -3.2574  -3.1069  -2.8979  -2.8270  -2.5515   5.5364   6.2324
     6.5653   6.7591   6.9293   7.1756   7.1975   7.3732   7.4545   8.0258
     8.0950   8.7096   8.8298   9.2808   9.7873   9.8474   9.9819  10.0213
    10.2422  10.6517  10.7636  10.8250  10.9995  11.0669  11.8242  12.6922
    13.5881  14.7302  15.9562  16.1619  16.9977  17.5143

     occupation numbers 
     0.1875   0.1875   0.1875   0.1875   0.1875   0.1875   0.1875   0.1875
     0.1875   0.1875   0.1875   0.1875   0.1875   0.1875   0.1875   0.1875
     0.1875   0.1875   0.1875   0.1875   0.1875   0.1875   0.1875   0.1875
     0.1875   0.1875   0.1875   0.1875   0.1875   0.1875   0.1875   0.1875
     0.1875   0.1874   0.1871   0.1867   0.1836   0.1808   0.0387   0.0000
     0.0000   0.0000   0.0000   0.0000   0.0000   0.0000

          k = 0.4942 0.5706-0.1027 (  2198 PWs)   bands (ev):

   -19.7386 -19.6799  -6.9717  -6.6708  -6.1480  -5.9174  -5.5442  -5.4101
    -3.3105  -3.2494  -2.8728  -2.7044  -2.5232  -2.3785   5.7518   6.0426
     6.1970   6.7879   6.9803   7.0203   7.1125   7.3671   7.3992   7.4292
     7.9246   8.3733   8.8617   9.1784   9.4972   9.7409   9.7892  10.1685
    10.2934  10.5754  10.6658  10.7473  10.8991  11.0481  12.2630  12.6963
    13.3842  14.3106  16.8730  17.0855  17.2789  17.9855

     occupation numbers 
     0.1875   0.1875   0.1875   0.1875   0.1875   0.1875   0.1875   0.1875
     0.1875   0.1875   0.1875   0.1875   0.1875   0.1875   0.1875   0.1875
     0.1875   0.1875   0.1875   0.1875   0.1875   0.1875   0.1875   0.1875
     0.1875   0.1875   0.1875   0.1875   0.1875   0.1875   0.1875   0.1875
     0.1875   0.1875   0.1874   0.1872   0.1859   0.1817   0.0018   0.0000
     0.0000   0.0000   0.0000   0.0000   0.0000   0.0000

          k = 0.2471 0.4280 0.0000 (  2203 PWs)   bands (ev):

   -19.7414 -19.6708  -6.8648  -6.6692  -6.0741  -6.0030  -5.4688  -5.3973
    -3.5374  -3.2873  -2.7964  -2.7041  -2.5653  -2.5583   5.8035   6.0209
     6.5171   6.8339   6.8784   6.9384   7.2125   7.2679   7.3119   7.5614
     7.6934   8.6104   8.8725   9.3182   9.7021   9.7263   9.9984  10.3035
    10.3608  10.4301  10.6532  10.6946  10.7068  11.1318  12.1750  13.2742
    13.3544  14.1054  16.4012  16.9651  17.3925  17.9017

     occupation numbers 
     0.1875   0.1875   0.1875   0.1875   0.1875   0.1875   0.1875   0.1875
     0.1875   0.1875   0.1875   0.1875   0.1875   0.1875   0.1875   0.1875
     0.1875   0.1875   0.1875   0.1875   0.1875   0.1875   0.1875   0.1875
     0.1875   0.1875   0.1875   0.1875   0.1875   0.1875   0.1875   0.1875
     0.1875   0.1875   0.1874   0.1873   0.1873   0.1768   0.0039   0.0000
     0.0000   0.0000   0.0000   0.0000   0.0000   0.0000

          k = 0.4942-0.2853-0.4107 (  2202 PWs)   bands (ev):

   -19.7443 -19.6823  -7.1756  -6.4623  -6.2480  -6.0183  -5.5600  -5.3151
    -3.1950  -3.1035  -3.0472  -2.6418  -2.4746  -2.2148   5.5777   5.7178
     6.0575   6.7384   7.0204   7.1193   7.2292   7.2813   7.6659   7.6776
     8.1304   8.2864   8.5876   8.8912   9.4000   9.6609  10.0149  10.0469
    10.3650  10.4634  10.6401  10.7885  10.9073  11.1770  11.7738  12.3698
    13.2875  14.7449  17.0102  17.2388  17.4795  17.5954

     occupation numbers 
     0.0938   0.0938   0.0938   0.0938   0.0938   0.0938   0.0938   0.0938
     0.0938   0.0938   0.0938   0.0938   0.0938   0.0938   0.0938   0.0938
     0.0938   0.0938   0.0938   0.0938   0.0938   0.0938   0.0938   0.0938
     0.0938   0.0938   0.0938   0.0938   0.0937   0.0937   0.0937   0.0937
     0.0937   0.0937   0.0937   0.0935   0.0929   0.0865   0.0243   0.0003
     0.0000   0.0000   0.0000   0.0000   0.0000   0.0000

          k = 0.0000 0.0000 0.3080 (  2187 PWs)   bands (ev):

   -19.7599 -19.6397  -6.6306  -6.0217  -5.9706  -5.9623  -5.8705  -5.8688
    -3.2142  -3.1499  -3.1239  -2.9581  -2.9018  -2.8791   5.5815   6.5710
     6.8053   6.8134   6.9165   6.9193   7.0633   7.4466   7.4523   8.1932
     8.1947   8.4897   9.4247   9.4746   9.4751   9.6875  10.0826  10.0867
    10.2656  10.2668  10.5479  11.0474  11.0484  11.0775  12.2412  12.2420
    14.2181  14.2209  15.8709  15.8791  16.8417  17.4495

     occupation numbers 
     0.0625   0.0625   0.0625   0.0625   0.0625   0.0625   0.0625   0.0625
     0.0625   0.0625   0.0625   0.0625   0.0625   0.0625   0.0625   0.0625
     0.0625   0.0625   0.0625   0.0625   0.0625   0.0625   0.0625   0.0625
     0.0625   0.0625   0.0625   0.0625   0.0625   0.0625   0.0625   0.0625
     0.0625   0.0625   0.0625   0.0606   0.0606   0.0601   0.0007   0.0007
     0.0000   0.0000   0.0000   0.0000   0.0000   0.0000

          k = 0.7412 0.4280 0.0000 (  2204 PWs)   bands (ev):

   -19.7411 -19.6721  -6.7513  -6.6330  -6.1657  -5.8576  -5.7118  -5.5771
    -3.1877  -3.0924  -3.0347  -2.6781  -2.6494  -2.5796   5.8434   6.2877
     6.3547   6.8744   6.9383   7.0709   7.1368   7.2437   7.3581   7.5065
     7.8245   8.4573   8.8667   9.4163   9.4721   9.6515   9.8070  10.1979
    10.3891  10.5311  10.6700  10.7778  10.8342  10.8907  12.1734  13.1950
    13.2701  14.1334  16.6527  16.6961  17.5625  17.7717

     occupation numbers 
     0.1875   0.1875   0.1875   0.1875   0.1875   0.1875   0.1875   0.1875
     0.1875   0.1875   0.1875   0.1875   0.1875   0.1875   0.1875   0.1875
     0.1875   0.1875   0.1875   0.1875   0.1875   0.1875   0.1875   0.1875
     0.1875   0.1875   0.1875   0.1875   0.1875   0.1875   0.1875   0.1875
     0.1875   0.1875   0.1874   0.1870   0.1867   0.1860   0.0040   0.0000
     0.0000   0.0000   0.0000   0.0000   0.0000   0.0000

          k = 0.4942 0.2853 0.1027 (  2211 PWs)   bands (ev):

   -19.7389 -19.6795  -6.9878  -6.5697  -6.3404  -5.7296  -5.6480  -5.3842
    -3.3239  -3.1576  -3.0337  -2.5977  -2.5569  -2.3705   5.7861   6.0620
     6.1120   6.7366   7.0128   7.0217   7.2059   7.2452   7.4064   7.4501
     7.9665   8.4140   8.8489   9.3351   9.3432   9.6172   9.9349  10.0491
    10.3720  10.6341  10.7682  10.8055  10.8461  10.8766  12.2186  12.7098
    13.4311  14.2922  16.8521  16.9084  17.5506  17.8965

     occupation numbers 
     0.1875   0.1875   0.1875   0.1875   0.1875   0.1875   0.1875   0.1875
     0.1875   0.1875   0.1875   0.1875   0.1875   0.1875   0.1875   0.1875
     0.1875   0.1875   0.1875   0.1875   0.1875   0.1875   0.1875   0.1875
     0.1875   0.1875   0.1875   0.1875   0.1875   0.1875   0.1875   0.1875
     0.1875   0.1874   0.1871   0.1869   0.1865   0.1862   0.0027   0.0000
     0.0000   0.0000   0.0000   0.0000   0.0000   0.0000

          k = 0.7412-0.4280-0.3080 (  2210 PWs)   bands (ev):

   -19.7391 -19.6804  -6.9247  -6.4800  -6.3180  -5.8213  -5.7907  -5.5122
    -3.0677  -3.0534  -2.9575  -2.7251  -2.6198  -2.4216   5.8795   6.1276
     6.2071   6.7256   6.9458   7.0586   7.2686   7.2930   7.4105   7.4893
     7.9406   8.4198   8.7498   9.2771   9.4248   9.4653   9.6216  10.1016
    10.3436  10.6245  10.7212  10.7910  10.9218  10.9287  12.1779  12.6630
    13.3800  14.2619  17.0304  17.0384  17.5191  17.8698

     occupation numbers 
     0.1875   0.1875   0.1875   0.1875   0.1875   0.1875   0.1875   0.1875
     0.1875   0.1875   0.1875   0.1875   0.1875   0.1875   0.1875   0.1875
     0.1875   0.1875   0.1875   0.1875   0.1875   0.1875   0.1875   0.1875
     0.1875   0.1875   0.1875   0.1875   0.1875   0.1875   0.1875   0.1875
     0.1875   0.1874   0.1872   0.1870   0.1855   0.1854   0.0038   0.0000
     0.0000   0.0000   0.0000   0.0000   0.0000   0.0000

          k = 0.4942-0.5706-0.2053 (  2206 PWs)   bands (ev):

   -19.7410 -19.6837  -6.9058  -6.8944  -6.0563  -6.0515  -5.4558  -5.4533
    -3.1528  -3.1369  -2.8261  -2.7987  -2.3783  -2.3738   5.9516   5.9628
     6.2652   6.2788   6.9145   6.9195   7.2204   7.2312   7.4197   7.4385
     8.4715   8.4740   8.7614   8.7758   9.4579   9.4594   9.9885   9.9919
    10.4504  10.4569  10.6297  10.6387  10.9734  10.9805  12.2258  12.2310
    13.9562  13.9670  17.3968  17.3999  17.8452  17.8484

     occupation numbers 
     0.1875   0.1875   0.1875   0.1875   0.1875   0.1875   0.1875   0.1875
     0.1875   0.1875   0.1875   0.1875   0.1875   0.1875   0.1875   0.1875
     0.1875   0.1875   0.1875   0.1875   0.1875   0.1875   0.1875   0.1875
     0.1875   0.1875   0.1875   0.1875   0.1875   0.1875   0.1875   0.1875
     0.1875   0.1875   0.1874   0.1874   0.1844   0.1842   0.0025   0.0024
     0.0000   0.0000   0.0000   0.0000   0.0000   0.0000

          k = 0.0000 0.0000-0.6160 (  2186 PWs)   bands (ev):

   -19.7307 -19.6819  -6.5505  -6.5145  -5.9799  -5.9799  -5.9541  -5.9541
    -2.9120  -2.9120  -2.8770  -2.8770  -2.7154  -2.6745   6.1180   6.1348
     6.9323   6.9323   6.9516   6.9516   7.1940   7.2144   7.5115   7.5115
     7.5304   7.5304   9.5460   9.5460   9.5559   9.5559   9.6289   9.6408
    10.6052  10.6264  10.7155  10.7155  10.7370  10.7370  13.1827  13.1827
    13.2243  13.2243  17.0674  17.0674  17.1098  17.1098

     occupation numbers 
     0.0313   0.0313   0.0313   0.0313   0.0313   0.0313   0.0313   0.0313
     0.0313   0.0313   0.0313   0.0313   0.0313   0.0313   0.0313   0.0313
     0.0313   0.0313   0.0313   0.0313   0.0313   0.0313   0.0313   0.0313
     0.0313   0.0313   0.0312   0.0312   0.0312   0.0312   0.0312   0.0312
     0.0312   0.0312   0.0312   0.0312   0.0312   0.0312   0.0000   0.0000
     0.0000   0.0000   0.0000   0.0000   0.0000   0.0000

          k = 0.4942-0.5706 0.1027 (  2198 PWs)   bands (ev):

   -19.7386 -19.6799  -6.9721  -6.6700  -6.1490  -5.9163  -5.5451  -5.4094
    -3.3113  -3.2494  -2.8729  -2.7034  -2.5238  -2.3781   5.7485   6.0507
     6.1905   6.7906   6.9769   7.0195   7.1237   7.3559   7.3911   7.4369
     7.9294   8.3751   8.8601   9.1781   9.4948   9.7404   9.7893  10.1678
    10.2961  10.5691  10.6701  10.7458  10.9080  11.0429  12.2629  12.6960
    13.3840  14.3103  16.8749  17.0826  17.2795  17.9860

     occupation numbers 
     0.1875   0.1875   0.1875   0.1875   0.1875   0.1875   0.1875   0.1875
     0.1875   0.1875   0.1875   0.1875   0.1875   0.1875   0.1875   0.1875
     0.1875   0.1875   0.1875   0.1875   0.1875   0.1875   0.1875   0.1875
     0.1875   0.1875   0.1875   0.1875   0.1875   0.1875   0.1875   0.1875
     0.1875   0.1875   0.1874   0.1872   0.1858   0.1820   0.0018   0.0000
     0.0000   0.0000   0.0000   0.0000   0.0000   0.0000

     the Fermi energy is    11.5876 ev

!    total energy              =    -538.02669622 Ry
     Harris-Foulkes estimate   =    -538.02668447 Ry
     estimated scf accuracy    <          3.3E-09 Ry

     The total energy is the sum of the following terms:

     one-electron contribution =     -32.86783800 Ry
     hartree contribution      =      83.62382576 Ry
     xc contribution           =    -199.60832033 Ry
     ewald contribution        =    -389.44315552 Ry
     Hubbard energy            =       0.27715295 Ry
     smearing contrib. (-TS)   =      -0.00836107 Ry

     convergence has been achieved in  13 iterations

     init_run     :      8.71s CPU      8.94s WALL (       1 calls)
     electrons    :    304.65s CPU    307.39s WALL (       1 calls)

     Called by init_run:
     wfcinit      :      0.00s CPU      0.00s WALL (       1 calls)
     potinit      :      0.36s CPU      0.40s WALL (       1 calls)

     Called by electrons:
     c_bands      :    195.79s CPU    196.74s WALL (      13 calls)
     sum_band     :     60.32s CPU     60.74s WALL (      13 calls)
     v_of_rho     :      4.39s CPU      4.41s WALL (      14 calls)
     v_h          :      0.33s CPU      0.33s WALL (      14 calls)
     v_xc         :      4.06s CPU      4.07s WALL (      14 calls)
     newd         :     46.13s CPU     46.23s WALL (      14 calls)
     mix_rho      :      0.60s CPU      0.60s WALL (      13 calls)

     Called by c_bands:
     init_us_2    :      1.81s CPU      1.82s WALL (     364 calls)
     cegterg      :    190.87s CPU    191.25s WALL (     182 calls)

     Called by sum_band:
     sum_band:bec :      0.14s CPU      0.14s WALL (     182 calls)
     addusdens    :     24.86s CPU     24.87s WALL (      13 calls)

     Called by *egterg:
     h_psi        :    146.14s CPU    146.44s WALL (     725 calls)
     s_psi        :      8.21s CPU      8.20s WALL (     725 calls)
     g_psi        :      0.49s CPU      0.48s WALL (     543 calls)
     cdiaghg      :     10.14s CPU     10.13s WALL (     711 calls)
     cegterg:over :      9.20s CPU      9.22s WALL (     543 calls)
     cegterg:upda :      6.68s CPU      6.70s WALL (     543 calls)
     cegterg:last :      4.91s CPU      4.92s WALL (     209 calls)

     Called by h_psi:
     h_psi:vloc   :    119.54s CPU    119.80s WALL (     725 calls)
     h_psi:vnl    :     16.38s CPU     16.41s WALL (     725 calls)
     add_vuspsi   :      8.32s CPU      8.33s WALL (     725 calls)
     vhpsi        :      9.80s CPU      9.81s WALL (     725 calls)

     General routines
     calbec       :     16.45s CPU     16.50s WALL (    1814 calls)
     fft          :      3.49s CPU      3.56s WALL (     219 calls)
     ffts         :      0.11s CPU      0.21s WALL (      27 calls)
     fftw         :    103.59s CPU    104.05s WALL (   51120 calls)
     interpolate  :      0.65s CPU      0.80s WALL (      27 calls)
     davcio       :      0.01s CPU      0.71s WALL (     378 calls)

     Parallel routines
     fft_scatter  :     36.09s CPU     36.37s WALL (   51366 calls)
     Hubbard U routines
     new_ns       :      1.67s CPU      1.99s WALL (      13 calls)
     vhpsi        :      9.80s CPU      9.81s WALL (     725 calls)

     PWSCF        :  5m13.80s CPU     5m16.87s WALL


   This run was terminated on:  14:55:49  11Nov2012            

=------------------------------------------------------------------------------=
