   JOB DONE.
=------------------------------------------------------------------------------=

     Program PWSCF v.5.0.1 starts on 11Nov2012 at  8:15:13 

     This program is part of the open-source Quantum ESPRESSO suite
     for quantum simulation of materials; please cite
         "P. Giannozzi et al., J. Phys.:Condens. Matter 21 395502 (2009);
          URL http://www.quantum-espresso.org", 
     in publications or presentations arising from this work. More details at
     http://www.quantum-espresso.org/quote.php

     Parallel version (MPI), running on     2 processors
     R & G space division:  proc/pool =    2

     Current dimensions of program PWSCF are:
     Max number of different atomic species (ntypx) = 10
     Max number of k-points (npk) =  40000
     Max angular momentum in pseudopotentials (lmaxx) =  3
     Reading input from CoLaO_U0_a10.in
               file Co.pbe-nd-rrkjus.UPF: wavefunction(s)  4S 3D renormalized
               file O.pbe-rrkjus.UPF: wavefunction(s)  2S renormalized
               file O.pbe-rrkjus.UPF: wavefunction(s)  2S renormalized

     Subspace diagonalization in iterative solution of the eigenvalue problem:
     a serial algorithm will be used


     Parallelization info
     --------------------
     sticks:   dense  smooth     PW     G-vecs:    dense   smooth      PW
     Min        1112     444    131                34808     8786    1448
     Max        1113     445    132                34809     8787    1449
     Sum        2225     889    263                69617    17573    2897


     Title: 
     GGA + U, U = 1D-40, alpha = 0.100                                          


     bravais-lattice index     =            5
     lattice parameter (alat)  =      10.3292  a.u.
     unit-cell volume          =     793.0599 (a.u.)^3
     number of atoms/cell      =           10
     number of atomic types    =            4
     number of electrons       =        76.00
     number of Kohn-Sham states=           46
     kinetic-energy cutoff     =      30.0000  Ry
     charge density cutoff     =     300.0000  Ry
     convergence threshold     =      1.0E-08
     mixing beta               =       0.2000
     number of iterations used =            8  plain     mixing
     Exchange-correlation      =  SLA  PW   PBE  PBE ( 1 4 3 4 0)
     EXX-fraction              =        0.00

     celldm(1)=  10.329242  celldm(2)=   0.000000  celldm(3)=   0.000000
     celldm(4)=   0.488100  celldm(5)=   0.000000  celldm(6)=   0.000000

     crystal axes: (cart. coord. in units of alat)
               a(1) = (   0.505915  -0.292090   0.811624 )  
               a(2) = (   0.000000   0.584180   0.811624 )  
               a(3) = (  -0.505915  -0.292090   0.811624 )  

     reciprocal axes: (cart. coord. in units 2 pi/alat)
               b(1) = (  0.988308 -0.570600  0.410699 )  
               b(2) = (  0.000000  1.141200  0.410699 )  
               b(3) = ( -0.988308 -0.570600  0.410699 )  


     PseudoPot. # 1 for Co read from file:
     /home/mcurnan/dft-course/Project1/example_LaCoO3/Co.pbe-nd-rrkjus.UPF
     MD5 check sum: 3e47a84addf5e975e0edeaeee2a73f59
     Pseudo is Ultrasoft + core correction, Zval =  9.0
     Generated by new atomic code, or converted to UPF format
     Using radial grid of  961 points,  6 beta functions with: 
                l(1) =   0
                l(2) =   0
                l(3) =   1
                l(4) =   1
                l(5) =   2
                l(6) =   2
     Q(r) pseudized with 0 coefficients 


     PseudoPot. # 2 for La read from file:
     /home/mcurnan/dft-course/Project1/example_LaCoO3/La.pbe-nsp-van.UPF
     MD5 check sum: b2f11743f52dde65f77d1302becd7929
     Pseudo is Ultrasoft + core correction, Zval = 11.0
     Generated by new atomic code, or converted to UPF format
     Using radial grid of  907 points,  6 beta functions with: 
                l(1) =   0
                l(2) =   0
                l(3) =   1
                l(4) =   1
                l(5) =   2
                l(6) =   2
     Q(r) pseudized with  6 coefficients,  rinner =    1.200   1.200   1.200
                                                       1.200   1.200

     PseudoPot. # 3 for O  read from file:
     /home/mcurnan/dft-course/Project1/example_LaCoO3/O.pbe-rrkjus.UPF
     MD5 check sum: 390ba29e75625707450f3bd3f0eb6be9
     Pseudo is Ultrasoft, Zval =  6.0
     Generated by new atomic code, or converted to UPF format
     Using radial grid of 1269 points,  4 beta functions with: 
                l(1) =   0
                l(2) =   0
                l(3) =   1
                l(4) =   1
     Q(r) pseudized with 0 coefficients 


     PseudoPot. # 4 for O  read from file:
     /home/mcurnan/dft-course/Project1/example_LaCoO3/O.pbe-rrkjus.UPF
     MD5 check sum: 390ba29e75625707450f3bd3f0eb6be9
     Pseudo is Ultrasoft, Zval =  6.0
     Generated by new atomic code, or converted to UPF format
     Using radial grid of 1269 points,  4 beta functions with: 
                l(1) =   0
                l(2) =   0
                l(3) =   1
                l(4) =   1
     Q(r) pseudized with 0 coefficients 


     atomic species   valence    mass     pseudopotential
        Co1            9.00     1.00000     Co( 1.00)
        La1           11.00     1.00000     La( 1.00)
        O1             6.00     1.00000     O ( 1.00)
        O2             6.00     1.00000     O ( 1.00)
 -----
     simplified LDA+U calculation, Hubbard_lmax = 2
     atomic species  L   Hubbard U  Hubbard alpha
        Co1          2    0.000000    0.000000
        La1          2    0.000000    0.000000
        O1           1    0.000000    0.100000
        O2           1    0.000000    0.000000
 -----

     No symmetry found


                                    s                        frac. trans.

      isym =  1     identity                                     

 cryst.   s( 1) = (     1          0          0      )
                  (     0          1          0      )
                  (     0          0          1      )

 cart.    s( 1) = (  1.0000000  0.0000000  0.0000000 )
                  (  0.0000000  1.0000000  0.0000000 )
                  (  0.0000000  0.0000000  1.0000000 )


     point group C_1 (1)    
     there are  1 classes
     the character table:

       E    
A      1.00

     the symmetry operations in each class:
     E        1

   Cartesian axes

     site n.     atom                  positions (alat units)
         1           Co1 tau(   1) = (   0.2228050  -0.1992639   1.0141240  )
         2           Co1 tau(   2) = (  -0.2831100   0.0928263   1.4199360  )
         3           La1 tau(   3) = (  -0.2831100   0.0928263   0.8112181  )
         4           La1 tau(   4) = (   0.2228050   0.3849164   1.2170300  )
         5           O1  tau(   5) = (   0.0000000   0.0000000   0.0000000  )
         6           O2  tau(   6) = (   0.0008601   0.1861491   1.6232478  )
         7           O2  tau(   7) = (   0.1616398   0.0923297   0.8116239  )
         8           O2  tau(   8) = (  -0.0603051  -0.1064377   1.2166242  )
         9           O2  tau(   9) = (   0.4447499  -0.0004966   1.2166242  )
        10           O2  tau(  10) = (  -0.2219449   0.3854130   1.2166242  )

   Crystallographic axes

     site n.     atom                  positions (cryst. coord.)
         1           Co1 tau(   1) = (  0.7504000  0.1891000  0.3100000  )
         2           Co1 tau(   2) = (  0.2504000  0.6891000  0.8100000  )
         3           La1 tau(   3) = (  0.0004000  0.4391000  0.5600000  )
         4           La1 tau(   4) = (  0.5004000  0.9391000  0.0600000  )
         5           O1  tau(   5) = (  0.0000000  0.0000000  0.0000000  )
         6           O2  tau(   6) = (  0.5613000  0.8791000  0.5596000  )
         7           O2  tau(   7) = (  0.4404000  0.4387000  0.1209000  )
         8           O2  tau(   8) = (  0.5008000  0.3782000  0.6200000  )
         9           O2  tau(   9) = (  0.9395000  0.4991000  0.0604000  )
        10           O2  tau(  10) = (  0.0604000  0.9395000  0.4991000  )

     number of k points=    36  gaussian smearing, width (Ry)=  0.0300
                       cart. coord. in units 2pi/alat
        k(    1) = (   0.0000000   0.0000000   0.0000000), wk =   0.0312500
        k(    2) = (  -0.2470771  -0.1426500   0.1026748), wk =   0.0625000
        k(    3) = (   0.4941541   0.2853000  -0.2053496), wk =   0.0312500
        k(    4) = (  -0.2470771   0.1426500   0.2053496), wk =   0.0625000
        k(    5) = (   0.4941541   0.5706001  -0.1026748), wk =   0.0625000
        k(    6) = (   0.2470771   0.4279500   0.0000000), wk =   0.0625000
        k(    7) = (   0.4941541  -0.2853000  -0.4106993), wk =   0.0312500
        k(    8) = (   0.0000000   0.0000000   0.3080244), wk =   0.0625000
        k(    9) = (   0.7412312   0.4279500   0.0000000), wk =   0.0625000
        k(   10) = (   0.4941541   0.2853000   0.1026748), wk =   0.0625000
        k(   11) = (   0.7412312  -0.4279500  -0.3080244), wk =   0.0625000
        k(   12) = (   0.4941541  -0.5706001  -0.2053496), wk =   0.0625000
        k(   13) = (   0.0000000   0.0000000  -0.6160489), wk =   0.0312500
        k(   14) = (  -0.2470771   0.1426500  -0.1026748), wk =   0.0625000
        k(   15) = (   0.0000000   0.2853000   0.1026748), wk =   0.0625000
        k(   16) = (   0.4941541  -0.2853000   0.2053496), wk =   0.0312500
        k(   17) = (   0.0000000  -0.5706001  -0.2053496), wk =   0.0312500
        k(   18) = (  -0.2470771  -0.1426500  -0.2053496), wk =   0.0625000
        k(   19) = (   0.0000000  -0.2853000   0.2053496), wk =   0.0625000
        k(   20) = (   0.4941541  -0.5706001   0.1026748), wk =   0.0625000
        k(   21) = (  -0.7412312   0.1426500  -0.1026748), wk =   0.0625000
        k(   22) = (   0.2470771  -0.7132501  -0.1026748), wk =   0.0625000
        k(   23) = (  -0.7412312  -0.1426500   0.1026748), wk =   0.0625000
        k(   24) = (   0.2470771   0.7132501   0.1026748), wk =   0.0625000
        k(   25) = (   0.2470771  -0.4279500   0.0000000), wk =   0.0625000
        k(   26) = (  -0.4941541   0.0000000   0.0000000), wk =   0.0625000
        k(   27) = (   0.4941541   0.2853000   0.4106993), wk =   0.0312500
        k(   28) = (   0.0000000   0.5706001  -0.4106993), wk =   0.0312500
        k(   29) = (   0.7412312  -0.4279500   0.0000000), wk =   0.0625000
        k(   30) = (   0.0000000  -0.8559001   0.0000000), wk =   0.0625000
        k(   31) = (   0.4941541  -0.2853000  -0.1026748), wk =   0.0625000
        k(   32) = (   0.0000000  -0.5706001   0.1026748), wk =   0.0625000
        k(   33) = (   0.7412312   0.4279500   0.3080244), wk =   0.0625000
        k(   34) = (   0.0000000   0.8559001  -0.3080244), wk =   0.0625000
        k(   35) = (   0.2470771   0.7132501  -0.2053496), wk =   0.0625000
        k(   36) = (  -0.7412312  -0.1426500  -0.2053496), wk =   0.0625000

                       cryst. coord.
        k(    1) = (   0.0000000   0.0000000   0.0000000), wk =   0.0312500
        k(    2) = (   0.0000000   0.0000000   0.2500000), wk =   0.0625000
        k(    3) = (   0.0000000   0.0000000  -0.5000000), wk =   0.0312500
        k(    4) = (   0.0000000   0.2500000   0.2500000), wk =   0.0625000
        k(    5) = (   0.0000000   0.2500000  -0.5000000), wk =   0.0625000
        k(    6) = (   0.0000000   0.2500000  -0.2500000), wk =   0.0625000
        k(    7) = (   0.0000000  -0.5000000  -0.5000000), wk =   0.0312500
        k(    8) = (   0.2500000   0.2500000   0.2500000), wk =   0.0625000
        k(    9) = (   0.2500000   0.2500000  -0.5000000), wk =   0.0625000
        k(   10) = (   0.2500000   0.2500000  -0.2500000), wk =   0.0625000
        k(   11) = (   0.2500000  -0.5000000  -0.5000000), wk =   0.0625000
        k(   12) = (   0.2500000  -0.5000000  -0.2500000), wk =   0.0625000
        k(   13) = (  -0.5000000  -0.5000000  -0.5000000), wk =   0.0312500
        k(   14) = (  -0.2500000   0.0000000   0.0000000), wk =   0.0625000
        k(   15) = (   0.0000000   0.2500000   0.0000000), wk =   0.0625000
        k(   16) = (   0.5000000   0.0000000   0.0000000), wk =   0.0312500
        k(   17) = (   0.0000000  -0.5000000   0.0000000), wk =   0.0312500
        k(   18) = (  -0.2500000  -0.2500000   0.0000000), wk =   0.0625000
        k(   19) = (   0.2500000   0.0000000   0.2500000), wk =   0.0625000
        k(   20) = (   0.5000000  -0.2500000   0.0000000), wk =   0.0625000
        k(   21) = (  -0.5000000   0.0000000   0.2500000), wk =   0.0625000
        k(   22) = (   0.2500000  -0.5000000   0.0000000), wk =   0.0625000
        k(   23) = (  -0.2500000   0.0000000   0.5000000), wk =   0.0625000
        k(   24) = (   0.0000000   0.5000000  -0.2500000), wk =   0.0625000
        k(   25) = (   0.2500000  -0.2500000   0.0000000), wk =   0.0625000
        k(   26) = (  -0.2500000   0.0000000   0.2500000), wk =   0.0625000
        k(   27) = (   0.5000000   0.5000000   0.0000000), wk =   0.0312500
        k(   28) = (  -0.5000000   0.0000000  -0.5000000), wk =   0.0312500
        k(   29) = (   0.5000000  -0.2500000  -0.2500000), wk =   0.0625000
        k(   30) = (   0.2500000  -0.5000000   0.2500000), wk =   0.0625000
        k(   31) = (   0.2500000  -0.2500000  -0.2500000), wk =   0.0625000
        k(   32) = (   0.2500000  -0.2500000   0.2500000), wk =   0.0625000
        k(   33) = (   0.5000000   0.5000000  -0.2500000), wk =   0.0625000
        k(   34) = (  -0.5000000   0.2500000  -0.5000000), wk =   0.0625000
        k(   35) = (  -0.2500000   0.2500000  -0.5000000), wk =   0.0625000
        k(   36) = (  -0.5000000  -0.2500000   0.2500000), wk =   0.0625000

     Dense  grid:    69617 G-vectors     FFT dimensions: (  60,  60,  60)

     Smooth grid:    17573 G-vectors     FFT dimensions: (  40,  40,  40)

     Largest allocated arrays     est. size (Mb)     dimensions
        Kohn-Sham Wavefunctions         0.79 Mb     (   1119,   46)
        Atomic wavefunctions            1.06 Mb     (   1119,   62)
        NL pseudopotentials             2.05 Mb     (   1119,  120)
        Each V/rho on FFT grid          1.65 Mb     ( 108000)
        Each G-vector array             0.27 Mb     (  34808)
        G-vector shells                 0.04 Mb     (   4682)
     Largest temporary arrays     est. size (Mb)     dimensions
        Auxiliary wavefunctions         3.14 Mb     (   1119,  184)
        Each subspace H/S matrix        0.52 Mb     ( 184, 184)
        Each <psi_i|beta_j> matrix      0.08 Mb     (    120,   46)
        Arrays for rho mixing          13.18 Mb     ( 108000,   8)

     Check: negative/imaginary core charge=   -0.000028    0.000000

     The initial density is read from file :
     /home/mcurnan/dft-course/Project1/example_LaCoO3/0/O/alpha/CoLaO_U0.save/charge-density.dat

 --- in v_hubbard ---
Hubbard energy    0.0399
 -------
     Number of +U iterations with fixed ns =  0
     Starting occupations:
 --- enter write_ns ---
 LDA+U parameters:
U( 1)     =  0.00000000
alpha( 1) =  0.00000000
U( 2)     =  0.00000000
alpha( 2) =  0.00000000
U( 3)     =  0.00000000
alpha( 3) =  0.10000000
U( 4)     =  0.00000000
alpha( 4) =  0.00000000
atom    1   Tr[ns(na)] =   8.02205
    eigenvalues: 
  0.596  0.596  0.938  0.941  0.941
    eigenvectors:
  0.000  0.000  1.000  0.000  0.000
  0.057  0.598  0.000  0.178  0.167
  0.598  0.057  0.000  0.167  0.178
  0.210  0.135  0.000  0.095  0.560
  0.135  0.210  0.000  0.560  0.095
    occupations:
  0.938  0.000  0.000  0.000  0.000
  0.000  0.715  0.000 -0.060  0.152
  0.000  0.000  0.715  0.152  0.060
  0.000 -0.060  0.152  0.822  0.000
  0.000  0.152  0.060  0.000  0.822
atom    2   Tr[ns(na)] =   8.02142
    eigenvalues: 
  0.595  0.595  0.938  0.941  0.941
    eigenvectors:
  0.000  0.000  1.000  0.000  0.000
  0.332  0.323  0.000  0.023  0.322
  0.323  0.332  0.000  0.322  0.023
  0.288  0.057  0.000  0.647  0.008
  0.057  0.288  0.000  0.008  0.647
    occupations:
  0.938  0.000  0.000  0.000  0.000
  0.000  0.715  0.000  0.060  0.153
  0.000  0.000  0.715  0.153 -0.060
  0.000  0.060  0.153  0.822  0.000
  0.000  0.153 -0.060  0.000  0.822
atom    3   Tr[ns(na)] =   3.80282
    eigenvalues: 
  0.355  0.355  0.384  0.403  0.403
    eigenvectors:
  0.000  0.000  1.000  0.000  0.000
  0.065  0.856  0.000  0.058  0.021
  0.856  0.065  0.000  0.021  0.058
  0.073  0.006  0.000  0.250  0.670
  0.006  0.073  0.000  0.670  0.250
    occupations:
  0.384  0.000  0.000  0.000  0.000
  0.000  0.359  0.000  0.000  0.013
  0.000  0.000  0.359  0.013  0.000
  0.000  0.000  0.013  0.399  0.000
  0.000  0.013  0.000  0.000  0.399
atom    4   Tr[ns(na)] =   3.80282
    eigenvalues: 
  0.355  0.355  0.384  0.403  0.403
    eigenvectors:
  0.000  0.000  1.000  0.000  0.000
  0.729  0.192  0.000  0.048  0.032
  0.192  0.729  0.000  0.032  0.048
  0.017  0.062  0.000  0.359  0.562
  0.062  0.017  0.000  0.562  0.359
    occupations:
  0.384  0.000  0.000  0.000  0.000
  0.000  0.359  0.000  0.000  0.013
  0.000  0.000  0.359  0.013  0.000
  0.000  0.000  0.013  0.399  0.000
  0.000  0.013  0.000  0.000  0.399
atom    5   Tr[ns(na)] =   5.43357
    eigenvalues: 
  0.846  0.929  0.941
    eigenvectors:
  0.340  0.000  0.660
  0.496  0.250  0.255
  0.164  0.750  0.086
    occupations:
  0.909 -0.039  0.022
 -0.039  0.891  0.022
  0.022  0.022  0.917
atom    6   Tr[ns(na)] =   5.43358
    eigenvalues: 
  0.846  0.929  0.941
    eigenvectors:
  0.340  0.000  0.660
  0.494  0.250  0.256
  0.166  0.750  0.085
    occupations:
  0.909  0.039  0.022
  0.039  0.891 -0.022
  0.022 -0.022  0.917
atom    7   Tr[ns(na)] =   5.43358
    eigenvalues: 
  0.846  0.929  0.941
    eigenvectors:
  0.340  0.000  0.660
  0.000  1.000  0.000
  0.660  0.000  0.340
    occupations:
  0.909  0.000 -0.045
  0.000  0.929  0.000
 -0.045  0.000  0.879
atom    8   Tr[ns(na)] =   5.43357
    eigenvalues: 
  0.846  0.929  0.941
    eigenvectors:
  0.340  0.000  0.660
  0.496  0.250  0.255
  0.164  0.750  0.086
    occupations:
  0.909 -0.039  0.022
 -0.039  0.891  0.022
  0.022  0.022  0.917
atom    9   Tr[ns(na)] =   5.43358
    eigenvalues: 
  0.846  0.929  0.941
    eigenvectors:
  0.340  0.000  0.660
  0.494  0.250  0.256
  0.166  0.750  0.085
    occupations:
  0.909  0.039  0.022
  0.039  0.891 -0.022
  0.022 -0.022  0.917
atom   10   Tr[ns(na)] =   5.43358
    eigenvalues: 
  0.846  0.929  0.941
    eigenvectors:
  0.340  0.000  0.660
  0.000  1.000  0.000
  0.660  0.000  0.340
    occupations:
  0.909  0.000 -0.045
  0.000  0.929  0.000
 -0.045  0.000  0.879
N of occupied +U levels =  56.2505796
 --- exit write_ns ---
 LDA+U Projector read from file 
     Starting wfc from file

     total cpu time spent up to now is        7.5 secs

     per-process dynamical memory:    62.8 Mb

     Self-consistent Calculation

     iteration #  1     ecut=    30.00 Ry     beta=0.20
     Davidson diagonalization with overlap
     c_bands:  1 eigenvalues not converged
     c_bands:  1 eigenvalues not converged
     c_bands:  1 eigenvalues not converged
     c_bands:  1 eigenvalues not converged
     c_bands:  1 eigenvalues not converged
     c_bands:  1 eigenvalues not converged
     c_bands:  1 eigenvalues not converged
     c_bands:  1 eigenvalues not converged
     c_bands:  1 eigenvalues not converged
     c_bands:  1 eigenvalues not converged
     c_bands:  1 eigenvalues not converged
     c_bands:  1 eigenvalues not converged
     c_bands:  1 eigenvalues not converged
     c_bands:  1 eigenvalues not converged
     c_bands:  1 eigenvalues not converged
     c_bands:  1 eigenvalues not converged
     c_bands:  1 eigenvalues not converged
     c_bands:  1 eigenvalues not converged
     c_bands:  1 eigenvalues not converged
     c_bands:  1 eigenvalues not converged
     c_bands:  1 eigenvalues not converged
     c_bands:  1 eigenvalues not converged
     c_bands:  1 eigenvalues not converged
     ethr =  1.00E-10,  avg # of iterations = 17.2
 --- enter write_ns ---
 LDA+U parameters:
U( 1)     =  0.00000000
alpha( 1) =  0.00000000
U( 2)     =  0.00000000
alpha( 2) =  0.00000000
U( 3)     =  0.00000000
alpha( 3) =  0.10000000
U( 4)     =  0.00000000
alpha( 4) =  0.00000000
atom    1   Tr[ns(na)] =   8.02685
    eigenvalues: 
  0.596  0.597  0.938  0.941  0.941
    eigenvectors:
  0.000  0.000  0.966  0.001  0.033
  0.101  0.554  0.010  0.120  0.215
  0.554  0.101  0.002  0.225  0.118
  0.174  0.171  0.012  0.186  0.457
  0.171  0.175  0.011  0.467  0.176
    occupations:
  0.938  0.000  0.000  0.000  0.000
  0.000  0.716  0.000 -0.060  0.152
  0.000  0.000  0.715  0.152  0.060
  0.000 -0.060  0.152  0.822  0.000
  0.000  0.152  0.060  0.000  0.822
atom    2   Tr[ns(na)] =   8.02661
    eigenvalues: 
  0.596  0.597  0.938  0.941  0.942
    eigenvectors:
  0.000  0.000  0.971  0.001  0.028
  0.236  0.420  0.007  0.054  0.284
  0.419  0.235  0.003  0.291  0.052
  0.321  0.025  0.001  0.653  0.001
  0.024  0.320  0.018  0.001  0.636
    occupations:
  0.938  0.000  0.000  0.000  0.000
  0.000  0.715  0.000  0.060  0.153
  0.000  0.000  0.715  0.153 -0.060
  0.000  0.060  0.153  0.822  0.000
  0.000  0.153 -0.060  0.000  0.823
atom    3   Tr[ns(na)] =   3.80532
    eigenvalues: 
  0.356  0.356  0.384  0.403  0.404
    eigenvectors:
  0.000  0.000  1.000  0.000  0.000
  0.692  0.231  0.000  0.019  0.059
  0.231  0.691  0.000  0.060  0.018
  0.020  0.058  0.000  0.695  0.227
  0.057  0.020  0.000  0.227  0.695
    occupations:
  0.384  0.000  0.000  0.000  0.000
  0.000  0.359  0.000  0.000  0.013
  0.000  0.000  0.359  0.013  0.000
  0.000  0.000  0.013  0.400  0.000
  0.000  0.013  0.000  0.000  0.400
atom    4   Tr[ns(na)] =   3.80514
    eigenvalues: 
  0.356  0.356  0.384  0.403  0.403
    eigenvectors:
  0.000  0.000  1.000  0.000  0.000
  0.233  0.686  0.000  0.019  0.062
  0.688  0.232  0.000  0.059  0.020
  0.058  0.021  0.000  0.687  0.233
  0.021  0.061  0.000  0.234  0.684
    occupations:
  0.384  0.000  0.000  0.000  0.000
  0.000  0.360  0.000  0.000  0.013
  0.000  0.000  0.359  0.013  0.000
  0.000  0.000  0.013  0.400  0.000
  0.000  0.013  0.000  0.000  0.400
atom    5   Tr[ns(na)] =   5.41786
    eigenvalues: 
  0.843  0.927  0.939
    eigenvectors:
  0.341  0.000  0.659
  0.495  0.250  0.255
  0.164  0.750  0.086
    occupations:
  0.906 -0.040  0.023
 -0.040  0.888  0.022
  0.023  0.022  0.914
atom    6   Tr[ns(na)] =   5.43421
    eigenvalues: 
  0.846  0.930  0.941
    eigenvectors:
  0.340  0.000  0.660
  0.494  0.251  0.254
  0.166  0.749  0.086
    occupations:
  0.909  0.039  0.023
  0.039  0.891 -0.022
  0.023 -0.022  0.917
atom    7   Tr[ns(na)] =   5.43421
    eigenvalues: 
  0.846  0.930  0.941
    eigenvectors:
  0.340  0.000  0.660
  0.000  1.000  0.000
  0.660  0.000  0.340
    occupations:
  0.909  0.000 -0.045
  0.000  0.930  0.000
 -0.045  0.000  0.879
atom    8   Tr[ns(na)] =   5.43423
    eigenvalues: 
  0.847  0.929  0.941
    eigenvectors:
  0.340  0.000  0.660
  0.496  0.250  0.255
  0.164  0.750  0.086
    occupations:
  0.909 -0.039  0.022
 -0.039  0.891  0.022
  0.022  0.022  0.917
atom    9   Tr[ns(na)] =   5.43419
    eigenvalues: 
  0.846  0.930  0.941
    eigenvectors:
  0.340  0.000  0.660
  0.494  0.251  0.255
  0.166  0.749  0.086
    occupations:
  0.909  0.039  0.022
  0.039  0.891 -0.022
  0.022 -0.022  0.917
atom   10   Tr[ns(na)] =   5.43419
    eigenvalues: 
  0.846  0.930  0.941
    eigenvectors:
  0.340  0.000  0.660
  0.000  1.000  0.000
  0.660  0.000  0.340
    occupations:
  0.909  0.000 -0.045
  0.000  0.930  0.000
 -0.045  0.000  0.879
N of occupied +U levels =  56.2528138
 --- exit write_ns ---
 --- in v_hubbard ---
Hubbard energy    0.0399
 -------

     total cpu time spent up to now is       82.0 secs

     total energy              =    -538.29311264 Ry
     Harris-Foulkes estimate   =    -538.29318130 Ry
     estimated scf accuracy    <       0.00020826 Ry

     iteration #  2     ecut=    30.00 Ry     beta=0.20
     Davidson diagonalization with overlap
     ethr =  2.74E-07,  avg # of iterations =  2.0
 --- enter write_ns ---
 LDA+U parameters:
U( 1)     =  0.00000000
alpha( 1) =  0.00000000
U( 2)     =  0.00000000
alpha( 2) =  0.00000000
U( 3)     =  0.00000000
alpha( 3) =  0.10000000
U( 4)     =  0.00000000
alpha( 4) =  0.00000000
atom    1   Tr[ns(na)] =   8.02266
    eigenvalues: 
  0.595  0.596  0.938  0.941  0.941
    eigenvectors:
  0.000  0.000  0.998  0.000  0.002
  0.101  0.554  0.001  0.207  0.138
  0.554  0.101  0.000  0.138  0.207
  0.174  0.171  0.001  0.060  0.594
  0.171  0.174  0.001  0.594  0.060
    occupations:
  0.938  0.000  0.000  0.000  0.000
  0.000  0.715  0.000 -0.060  0.152
  0.000  0.000  0.715  0.153  0.061
  0.000 -0.060  0.153  0.822  0.000
  0.000  0.152  0.061  0.000  0.822
atom    2   Tr[ns(na)] =   8.01992
    eigenvalues: 
  0.595  0.595  0.938  0.941  0.941
    eigenvectors:
  0.000  0.000  0.998  0.000  0.002
  0.235  0.420  0.000  0.007  0.337
  0.420  0.235  0.000  0.338  0.007
  0.321  0.024  0.000  0.621  0.034
  0.024  0.321  0.001  0.033  0.620
    occupations:
  0.938  0.000  0.000  0.000  0.000
  0.000  0.714  0.000  0.060  0.153
  0.000  0.000  0.714  0.153 -0.060
  0.000  0.060  0.153  0.821  0.000
  0.000  0.153 -0.060  0.000  0.822
atom    3   Tr[ns(na)] =   3.80428
    eigenvalues: 
  0.356  0.356  0.384  0.403  0.403
    eigenvectors:
  0.000  0.000  1.000  0.000  0.000
  0.692  0.229  0.000  0.016  0.063
  0.229  0.693  0.000  0.062  0.016
  0.020  0.059  0.000  0.723  0.198
  0.059  0.020  0.000  0.198  0.723
    occupations:
  0.384  0.000  0.000  0.000  0.000
  0.000  0.359  0.000  0.000  0.013
  0.000  0.000  0.359  0.013  0.000
  0.000  0.000  0.013  0.400  0.000
  0.000  0.013  0.000  0.000  0.400
atom    4   Tr[ns(na)] =   3.80426
    eigenvalues: 
  0.356  0.356  0.384  0.403  0.403
    eigenvectors:
  0.000  0.000  1.000  0.000  0.000
  0.724  0.196  0.000  0.019  0.060
  0.196  0.725  0.000  0.060  0.020
  0.018  0.062  0.000  0.689  0.232
  0.062  0.017  0.000  0.232  0.688
    occupations:
  0.384  0.000  0.000  0.000  0.000
  0.000  0.359  0.000  0.000  0.013
  0.000  0.000  0.359  0.013  0.000
  0.000  0.000  0.013  0.400  0.000
  0.000  0.013  0.000  0.000  0.400
atom    5   Tr[ns(na)] =   5.42818
    eigenvalues: 
  0.845  0.929  0.940
    eigenvectors:
  0.340  0.000  0.660
  0.495  0.250  0.255
  0.164  0.750  0.086
    occupations:
  0.908 -0.039  0.023
 -0.039  0.890  0.022
  0.023  0.022  0.916
atom    6   Tr[ns(na)] =   5.43447
    eigenvalues: 
  0.847  0.930  0.941
    eigenvectors:
  0.340  0.000  0.660
  0.494  0.251  0.255
  0.166  0.749  0.085
    occupations:
  0.909  0.039  0.022
  0.039  0.892 -0.022
  0.022 -0.022  0.917
atom    7   Tr[ns(na)] =   5.43447
    eigenvalues: 
  0.847  0.930  0.941
    eigenvectors:
  0.340  0.000  0.660
  0.000  1.000  0.000
  0.660  0.000  0.340
    occupations:
  0.909  0.000 -0.045
  0.000  0.930  0.000
 -0.045  0.000  0.879
atom    8   Tr[ns(na)] =   5.43394
    eigenvalues: 
  0.847  0.929  0.941
    eigenvectors:
  0.340  0.000  0.660
  0.496  0.250  0.255
  0.164  0.750  0.085
    occupations:
  0.909 -0.039  0.022
 -0.039  0.891  0.022
  0.022  0.022  0.917
atom    9   Tr[ns(na)] =   5.43459
    eigenvalues: 
  0.847  0.930  0.941
    eigenvectors:
  0.340  0.000  0.660
  0.495  0.250  0.255
  0.166  0.750  0.085
    occupations:
  0.909  0.039  0.022
  0.039  0.892 -0.022
  0.022 -0.022  0.917
atom   10   Tr[ns(na)] =   5.43459
    eigenvalues: 
  0.847  0.930  0.941
    eigenvectors:
  0.340  0.000  0.660
  0.000  1.000  0.000
  0.660  0.000  0.340
    occupations:
  0.909  0.000 -0.045
  0.000  0.930  0.000
 -0.045  0.000  0.879
N of occupied +U levels =  56.2513673
 --- exit write_ns ---
 --- in v_hubbard ---
Hubbard energy    0.0399
 -------

     total cpu time spent up to now is      109.1 secs

     total energy              =    -538.29314321 Ry
     Harris-Foulkes estimate   =    -538.29314629 Ry
     estimated scf accuracy    <       0.00001060 Ry

     iteration #  3     ecut=    30.00 Ry     beta=0.20
     Davidson diagonalization with overlap
     ethr =  1.40E-08,  avg # of iterations =  2.0
 --- enter write_ns ---
 LDA+U parameters:
U( 1)     =  0.00000000
alpha( 1) =  0.00000000
U( 2)     =  0.00000000
alpha( 2) =  0.00000000
U( 3)     =  0.00000000
alpha( 3) =  0.10000000
U( 4)     =  0.00000000
alpha( 4) =  0.00000000
atom    1   Tr[ns(na)] =   8.01865
    eigenvalues: 
  0.595  0.596  0.937  0.940  0.940
    eigenvectors:
  0.000  0.000  0.997  0.000  0.003
  0.101  0.553  0.001  0.185  0.159
  0.554  0.101  0.000  0.160  0.185
  0.174  0.171  0.001  0.087  0.567
  0.171  0.174  0.001  0.568  0.086
    occupations:
  0.937  0.000  0.000  0.000  0.000
  0.000  0.715  0.000 -0.060  0.152
  0.000  0.000  0.714  0.152  0.060
  0.000 -0.060  0.152  0.821  0.000
  0.000  0.152  0.060  0.000  0.821
atom    2   Tr[ns(na)] =   8.02812
    eigenvalues: 
  0.596  0.596  0.939  0.942  0.942
    eigenvectors:
  0.000  0.000  0.998  0.000  0.002
  0.235  0.420  0.001  0.016  0.329
  0.420  0.235  0.000  0.330  0.016
  0.321  0.024  0.000  0.638  0.017
  0.024  0.321  0.002  0.016  0.637
    occupations:
  0.939  0.000  0.000  0.000  0.000
  0.000  0.715  0.000  0.060  0.153
  0.000  0.000  0.715  0.153 -0.060
  0.000  0.060  0.153  0.822  0.000
  0.000  0.153 -0.060  0.000  0.823
atom    3   Tr[ns(na)] =   3.80424
    eigenvalues: 
  0.356  0.356  0.384  0.403  0.403
    eigenvectors:
  0.000  0.000  1.000  0.000  0.000
  0.691  0.230  0.000  0.017  0.062
  0.230  0.691  0.000  0.062  0.017
  0.020  0.059  0.000  0.714  0.207
  0.059  0.020  0.000  0.207  0.714
    occupations:
  0.384  0.000  0.000  0.000  0.000
  0.000  0.359  0.000  0.000  0.013
  0.000  0.000  0.359  0.013  0.000
  0.000  0.000  0.013  0.400  0.000
  0.000  0.013  0.000  0.000  0.400
atom    4   Tr[ns(na)] =   3.80422
    eigenvalues: 
  0.356  0.356  0.384  0.403  0.403
    eigenvectors:
  0.000  0.000  1.000  0.000  0.000
  0.747  0.173  0.000  0.020  0.060
  0.173  0.748  0.000  0.059  0.020
  0.016  0.064  0.000  0.686  0.234
  0.064  0.015  0.000  0.235  0.686
    occupations:
  0.384  0.000  0.000  0.000  0.000
  0.000  0.359  0.000  0.000  0.013
  0.000  0.000  0.359  0.013  0.000
  0.000  0.000  0.013  0.400  0.000
  0.000  0.013  0.000  0.000  0.400
atom    5   Tr[ns(na)] =   5.42752
    eigenvalues: 
  0.845  0.929  0.940
    eigenvectors:
  0.340  0.000  0.660
  0.495  0.250  0.255
  0.164  0.750  0.086
    occupations:
  0.908 -0.039  0.023
 -0.039  0.890  0.022
  0.023  0.022  0.916
atom    6   Tr[ns(na)] =   5.43384
    eigenvalues: 
  0.846  0.929  0.941
    eigenvectors:
  0.340  0.000  0.660
  0.494  0.251  0.255
  0.166  0.749  0.085
    occupations:
  0.909  0.039  0.022
  0.039  0.891 -0.022
  0.022 -0.022  0.917
atom    7   Tr[ns(na)] =   5.43384
    eigenvalues: 
  0.846  0.929  0.941
    eigenvectors:
  0.340  0.000  0.660
  0.000  1.000  0.000
  0.660  0.000  0.340
    occupations:
  0.909  0.000 -0.045
  0.000  0.929  0.000
 -0.045  0.000  0.879
atom    8   Tr[ns(na)] =   5.43348
    eigenvalues: 
  0.846  0.929  0.941
    eigenvectors:
  0.340  0.000  0.660
  0.495  0.250  0.255
  0.164  0.750  0.086
    occupations:
  0.909 -0.039  0.022
 -0.039  0.891  0.022
  0.022  0.022  0.917
atom    9   Tr[ns(na)] =   5.43390
    eigenvalues: 
  0.846  0.929  0.941
    eigenvectors:
  0.340  0.000  0.660
  0.495  0.250  0.255
  0.165  0.750  0.085
    occupations:
  0.909  0.039  0.022
  0.039  0.891 -0.022
  0.022 -0.022  0.917
atom   10   Tr[ns(na)] =   5.43390
    eigenvalues: 
  0.846  0.929  0.941
    eigenvectors:
  0.340  0.000  0.660
  0.000  1.000  0.000
  0.660  0.000  0.340
    occupations:
  0.909  0.000 -0.045
  0.000  0.929  0.000
 -0.045  0.000  0.879
N of occupied +U levels =  56.2516863
 --- exit write_ns ---
 --- in v_hubbard ---
Hubbard energy    0.0399
 -------

     total cpu time spent up to now is      134.2 secs

     total energy              =    -538.29314261 Ry
     Harris-Foulkes estimate   =    -538.29314690 Ry
     estimated scf accuracy    <       0.00005313 Ry

     iteration #  4     ecut=    30.00 Ry     beta=0.20
     Davidson diagonalization with overlap
     ethr =  1.40E-08,  avg # of iterations =  1.0
 --- enter write_ns ---
 LDA+U parameters:
U( 1)     =  0.00000000
alpha( 1) =  0.00000000
U( 2)     =  0.00000000
alpha( 2) =  0.00000000
U( 3)     =  0.00000000
alpha( 3) =  0.10000000
U( 4)     =  0.00000000
alpha( 4) =  0.00000000
atom    1   Tr[ns(na)] =   8.02562
    eigenvalues: 
  0.596  0.597  0.938  0.941  0.941
    eigenvectors:
  0.000  0.000  0.997  0.000  0.003
  0.101  0.553  0.001  0.181  0.163
  0.554  0.101  0.000  0.164  0.181
  0.174  0.171  0.001  0.092  0.562
  0.171  0.174  0.001  0.563  0.091
    occupations:
  0.938  0.000  0.000  0.000  0.000
  0.000  0.715  0.000 -0.060  0.152
  0.000  0.000  0.715  0.152  0.061
  0.000 -0.060  0.152  0.822  0.000
  0.000  0.152  0.061  0.000  0.822
atom    2   Tr[ns(na)] =   8.02097
    eigenvalues: 
  0.595  0.596  0.938  0.941  0.941
    eigenvectors:
  0.000  0.000  0.998  0.000  0.002
  0.235  0.420  0.001  0.017  0.327
  0.420  0.235  0.000  0.328  0.017
  0.321  0.024  0.000  0.641  0.014
  0.024  0.321  0.002  0.014  0.639
    occupations:
  0.938  0.000  0.000  0.000  0.000
  0.000  0.715  0.000  0.060  0.153
  0.000  0.000  0.715  0.153 -0.060
  0.000  0.060  0.153  0.822  0.000
  0.000  0.153 -0.060  0.000  0.822
atom    3   Tr[ns(na)] =   3.80423
    eigenvalues: 
  0.356  0.356  0.384  0.403  0.403
    eigenvectors:
  0.000  0.000  1.000  0.000  0.000
  0.691  0.230  0.000  0.013  0.066
  0.230  0.691  0.000  0.066  0.013
  0.020  0.059  0.000  0.763  0.158
  0.059  0.020  0.000  0.158  0.763
    occupations:
  0.384  0.000  0.000  0.000  0.000
  0.000  0.359  0.000  0.000  0.013
  0.000  0.000  0.359  0.013  0.000
  0.000  0.000  0.013  0.400  0.000
  0.000  0.013  0.000  0.000  0.400
atom    4   Tr[ns(na)] =   3.80421
    eigenvalues: 
  0.356  0.356  0.384  0.403  0.403
    eigenvectors:
  0.000  0.000  1.000  0.000  0.000
  0.731  0.189  0.000  0.019  0.060
  0.189  0.732  0.000  0.060  0.020
  0.017  0.062  0.000  0.687  0.234
  0.063  0.017  0.000  0.234  0.686
    occupations:
  0.384  0.000  0.000  0.000  0.000
  0.000  0.359  0.000  0.000  0.013
  0.000  0.000  0.359  0.013  0.000
  0.000  0.000  0.013  0.400  0.000
  0.000  0.013  0.000  0.000  0.400
atom    5   Tr[ns(na)] =   5.42755
    eigenvalues: 
  0.845  0.929  0.940
    eigenvectors:
  0.340  0.000  0.660
  0.495  0.250  0.255
  0.164  0.750  0.086
    occupations:
  0.908 -0.039  0.023
 -0.039  0.890  0.022
  0.023  0.022  0.916
atom    6   Tr[ns(na)] =   5.43386
    eigenvalues: 
  0.846  0.929  0.941
    eigenvectors:
  0.340  0.000  0.660
  0.494  0.251  0.255
  0.166  0.749  0.085
    occupations:
  0.909  0.039  0.022
  0.039  0.891 -0.022
  0.022 -0.022  0.917
atom    7   Tr[ns(na)] =   5.43386
    eigenvalues: 
  0.846  0.929  0.941
    eigenvectors:
  0.340  0.000  0.660
  0.000  1.000  0.000
  0.660  0.000  0.340
    occupations:
  0.909  0.000 -0.045
  0.000  0.929  0.000
 -0.045  0.000  0.879
atom    8   Tr[ns(na)] =   5.43352
    eigenvalues: 
  0.846  0.929  0.941
    eigenvectors:
  0.340  0.000  0.660
  0.496  0.250  0.255
  0.164  0.750  0.085
    occupations:
  0.909 -0.039  0.022
 -0.039  0.891  0.022
  0.022  0.022  0.917
atom    9   Tr[ns(na)] =   5.43391
    eigenvalues: 
  0.846  0.929  0.941
    eigenvectors:
  0.340  0.000  0.660
  0.494  0.250  0.255
  0.166  0.750  0.085
    occupations:
  0.909  0.039  0.022
  0.039  0.891 -0.022
  0.022 -0.022  0.917
atom   10   Tr[ns(na)] =   5.43391
    eigenvalues: 
  0.846  0.929  0.941
    eigenvectors:
  0.340  0.000  0.660
  0.000  1.000  0.000
  0.660  0.000  0.340
    occupations:
  0.909  0.000 -0.045
  0.000  0.929  0.000
 -0.045  0.000  0.879
N of occupied +U levels =  56.2516359
 --- exit write_ns ---
 --- in v_hubbard ---
Hubbard energy    0.0399
 -------

     total cpu time spent up to now is      157.3 secs

     total energy              =    -538.29314491 Ry
     Harris-Foulkes estimate   =    -538.29314555 Ry
     estimated scf accuracy    <       0.00000901 Ry

     iteration #  5     ecut=    30.00 Ry     beta=0.20
     Davidson diagonalization with overlap
     ethr =  1.19E-08,  avg # of iterations =  1.0
 --- enter write_ns ---
 LDA+U parameters:
U( 1)     =  0.00000000
alpha( 1) =  0.00000000
U( 2)     =  0.00000000
alpha( 2) =  0.00000000
U( 3)     =  0.00000000
alpha( 3) =  0.10000000
U( 4)     =  0.00000000
alpha( 4) =  0.00000000
atom    1   Tr[ns(na)] =   8.02328
    eigenvalues: 
  0.596  0.596  0.938  0.941  0.941
    eigenvectors:
  0.000  0.000  0.997  0.000  0.003
  0.101  0.553  0.001  0.170  0.174
  0.553  0.102  0.000  0.175  0.170
  0.174  0.171  0.001  0.106  0.547
  0.171  0.174  0.001  0.548  0.106
    occupations:
  0.938  0.000  0.000  0.000  0.000
  0.000  0.715  0.000 -0.060  0.152
  0.000  0.000  0.715  0.152  0.060
  0.000 -0.060  0.152  0.822  0.000
  0.000  0.152  0.060  0.000  0.822
atom    2   Tr[ns(na)] =   8.02266
    eigenvalues: 
  0.595  0.596  0.938  0.941  0.941
    eigenvectors:
  0.000  0.000  0.997  0.000  0.003
  0.235  0.420  0.001  0.023  0.322
  0.420  0.234  0.000  0.323  0.023
  0.321  0.024  0.000  0.646  0.009
  0.024  0.321  0.002  0.008  0.645
    occupations:
  0.938  0.000  0.000  0.000  0.000
  0.000  0.715  0.000  0.060  0.153
  0.000  0.000  0.715  0.153 -0.060
  0.000  0.060  0.153  0.822  0.000
  0.000  0.153 -0.060  0.000  0.822
atom    3   Tr[ns(na)] =   3.80415
    eigenvalues: 
  0.356  0.356  0.384  0.403  0.403
    eigenvectors:
  0.000  0.000  1.000  0.000  0.000
  0.691  0.230  0.000  0.015  0.064
  0.230  0.691  0.000  0.064  0.015
  0.020  0.059  0.000  0.741  0.180
  0.059  0.020  0.000  0.180  0.741
    occupations:
  0.384  0.000  0.000  0.000  0.000
  0.000  0.359  0.000  0.000  0.013
  0.000  0.000  0.359  0.013  0.000
  0.000  0.000  0.013  0.400  0.000
  0.000  0.013  0.000  0.000  0.400
atom    4   Tr[ns(na)] =   3.80413
    eigenvalues: 
  0.356  0.356  0.384  0.403  0.403
    eigenvectors:
  0.000  0.000  1.000  0.000  0.000
  0.723  0.197  0.000  0.020  0.060
  0.197  0.724  0.000  0.059  0.020
  0.018  0.062  0.000  0.686  0.235
  0.062  0.017  0.000  0.235  0.685
    occupations:
  0.384  0.000  0.000  0.000  0.000
  0.000  0.359  0.000  0.000  0.013
  0.000  0.000  0.359  0.013  0.000
  0.000  0.000  0.013  0.400  0.000
  0.000  0.013  0.000  0.000  0.400
atom    5   Tr[ns(na)] =   5.42768
    eigenvalues: 
  0.845  0.929  0.940
    eigenvectors:
  0.340  0.000  0.660
  0.495  0.250  0.255
  0.164  0.750  0.086
    occupations:
  0.908 -0.039  0.023
 -0.039  0.890  0.022
  0.023  0.022  0.916
atom    6   Tr[ns(na)] =   5.43397
    eigenvalues: 
  0.846  0.929  0.941
    eigenvectors:
  0.340  0.000  0.660
  0.494  0.251  0.255
  0.166  0.749  0.085
    occupations:
  0.909  0.039  0.022
  0.039  0.891 -0.022
  0.022 -0.022  0.917
atom    7   Tr[ns(na)] =   5.43397
    eigenvalues: 
  0.846  0.929  0.941
    eigenvectors:
  0.340  0.000  0.660
  0.000  1.000  0.000
  0.660  0.000  0.340
    occupations:
  0.909  0.000 -0.045
  0.000  0.929  0.000
 -0.045  0.000  0.879
atom    8   Tr[ns(na)] =   5.43367
    eigenvalues: 
  0.846  0.929  0.941
    eigenvectors:
  0.340  0.000  0.660
  0.496  0.250  0.255
  0.164  0.750  0.085
    occupations:
  0.909 -0.039  0.022
 -0.039  0.891  0.022
  0.022  0.022  0.917
atom    9   Tr[ns(na)] =   5.43401
    eigenvalues: 
  0.846  0.929  0.941
    eigenvectors:
  0.340  0.000  0.660
  0.494  0.250  0.255
  0.166  0.750  0.085
    occupations:
  0.909  0.039  0.022
  0.039  0.891 -0.022
  0.022 -0.022  0.917
atom   10   Tr[ns(na)] =   5.43401
    eigenvalues: 
  0.846  0.929  0.941
    eigenvectors:
  0.340  0.000  0.660
  0.000  1.000  0.000
  0.660  0.000  0.340
    occupations:
  0.909  0.000 -0.045
  0.000  0.929  0.000
 -0.045  0.000  0.879
N of occupied +U levels =  56.2515255
 --- exit write_ns ---
 --- in v_hubbard ---
Hubbard energy    0.0399
 -------

     total cpu time spent up to now is      180.5 secs

     total energy              =    -538.29314503 Ry
     Harris-Foulkes estimate   =    -538.29314520 Ry
     estimated scf accuracy    <       0.00000048 Ry

     iteration #  6     ecut=    30.00 Ry     beta=0.20
     Davidson diagonalization with overlap
     ethr =  6.27E-10,  avg # of iterations =  2.0
 --- enter write_ns ---
 LDA+U parameters:
U( 1)     =  0.00000000
alpha( 1) =  0.00000000
U( 2)     =  0.00000000
alpha( 2) =  0.00000000
U( 3)     =  0.00000000
alpha( 3) =  0.10000000
U( 4)     =  0.00000000
alpha( 4) =  0.00000000
atom    1   Tr[ns(na)] =   8.02328
    eigenvalues: 
  0.596  0.596  0.938  0.941  0.941
    eigenvectors:
  0.000  0.000  0.996  0.000  0.004
  0.102  0.553  0.001  0.149  0.195
  0.553  0.102  0.000  0.196  0.149
  0.173  0.172  0.002  0.138  0.516
  0.172  0.174  0.001  0.517  0.137
    occupations:
  0.938  0.000  0.000  0.000  0.000
  0.000  0.715  0.000 -0.060  0.152
  0.000  0.000  0.715  0.152  0.060
  0.000 -0.060  0.152  0.822  0.000
  0.000  0.152  0.060  0.000  0.822
atom    2   Tr[ns(na)] =   8.02268
    eigenvalues: 
  0.595  0.596  0.938  0.941  0.941
    eigenvectors:
  0.000  0.000  0.996  0.000  0.003
  0.234  0.421  0.001  0.035  0.309
  0.421  0.234  0.000  0.310  0.035
  0.321  0.024  0.000  0.653  0.002
  0.024  0.321  0.002  0.002  0.651
    occupations:
  0.938  0.000  0.000  0.000  0.000
  0.000  0.715  0.000  0.060  0.153
  0.000  0.000  0.715  0.153 -0.060
  0.000  0.060  0.153  0.822  0.000
  0.000  0.153 -0.060  0.000  0.822
atom    3   Tr[ns(na)] =   3.80395
    eigenvalues: 
  0.355  0.356  0.384  0.403  0.403
    eigenvectors:
  0.000  0.000  1.000  0.000  0.000
  0.691  0.230  0.000  0.015  0.064
  0.230  0.691  0.000  0.064  0.015
  0.020  0.059  0.000  0.741  0.180
  0.059  0.020  0.000  0.180  0.741
    occupations:
  0.384  0.000  0.000  0.000  0.000
  0.000  0.359  0.000  0.000  0.013
  0.000  0.000  0.359  0.013  0.000
  0.000  0.000  0.013  0.400  0.000
  0.000  0.013  0.000  0.000  0.400
atom    4   Tr[ns(na)] =   3.80392
    eigenvalues: 
  0.356  0.356  0.384  0.403  0.403
    eigenvectors:
  0.000  0.000  1.000  0.000  0.000
  0.724  0.196  0.000  0.020  0.060
  0.196  0.725  0.000  0.059  0.020
  0.018  0.062  0.000  0.686  0.235
  0.062  0.017  0.000  0.235  0.685
    occupations:
  0.384  0.000  0.000  0.000  0.000
  0.000  0.359  0.000  0.000  0.013
  0.000  0.000  0.359  0.013  0.000
  0.000  0.000  0.013  0.400  0.000
  0.000  0.013  0.000  0.000  0.400
atom    5   Tr[ns(na)] =   5.42771
    eigenvalues: 
  0.845  0.929  0.940
    eigenvectors:
  0.340  0.000  0.660
  0.495  0.250  0.255
  0.164  0.750  0.086
    occupations:
  0.908 -0.039  0.023
 -0.039  0.890  0.022
  0.023  0.022  0.916
atom    6   Tr[ns(na)] =   5.43401
    eigenvalues: 
  0.846  0.929  0.941
    eigenvectors:
  0.340  0.000  0.660
  0.494  0.251  0.255
  0.166  0.749  0.085
    occupations:
  0.909  0.039  0.022
  0.039  0.891 -0.022
  0.022 -0.022  0.917
atom    7   Tr[ns(na)] =   5.43401
    eigenvalues: 
  0.846  0.929  0.941
    eigenvectors:
  0.340  0.000  0.660
  0.000  1.000  0.000
  0.660  0.000  0.340
    occupations:
  0.909  0.000 -0.045
  0.000  0.929  0.000
 -0.045  0.000  0.879
atom    8   Tr[ns(na)] =   5.43374
    eigenvalues: 
  0.846  0.929  0.941
    eigenvectors:
  0.340  0.000  0.660
  0.496  0.250  0.255
  0.164  0.750  0.086
    occupations:
  0.909 -0.039  0.022
 -0.039  0.891  0.022
  0.022  0.022  0.917
atom    9   Tr[ns(na)] =   5.43405
    eigenvalues: 
  0.846  0.929  0.941
    eigenvectors:
  0.340  0.000  0.660
  0.494  0.250  0.255
  0.166  0.750  0.085
    occupations:
  0.909  0.039  0.022
  0.039  0.891 -0.022
  0.022 -0.022  0.917
atom   10   Tr[ns(na)] =   5.43405
    eigenvalues: 
  0.846  0.929  0.941
    eigenvectors:
  0.340  0.000  0.660
  0.000  1.000  0.000
  0.660  0.000  0.340
    occupations:
  0.909  0.000 -0.045
  0.000  0.929  0.000
 -0.045  0.000  0.879
N of occupied +U levels =  56.2513974
 --- exit write_ns ---
 --- in v_hubbard ---
Hubbard energy    0.0399
 -------

     total cpu time spent up to now is      206.0 secs

     total energy              =    -538.29314506 Ry
     Harris-Foulkes estimate   =    -538.29314508 Ry
     estimated scf accuracy    <       0.00000007 Ry

     iteration #  7     ecut=    30.00 Ry     beta=0.20
     Davidson diagonalization with overlap
     ethr =  9.57E-11,  avg # of iterations =  1.6
 --- enter write_ns ---
 LDA+U parameters:
U( 1)     =  0.00000000
alpha( 1) =  0.00000000
U( 2)     =  0.00000000
alpha( 2) =  0.00000000
U( 3)     =  0.00000000
alpha( 3) =  0.10000000
U( 4)     =  0.00000000
alpha( 4) =  0.00000000
atom    1   Tr[ns(na)] =   8.02333
    eigenvalues: 
  0.596  0.596  0.938  0.941  0.941
    eigenvectors:
  0.000  0.000  0.996  0.000  0.004
  0.102  0.553  0.001  0.153  0.192
  0.553  0.102  0.000  0.193  0.152
  0.173  0.171  0.002  0.133  0.521
  0.172  0.174  0.001  0.522  0.132
    occupations:
  0.938  0.000  0.000  0.000  0.000
  0.000  0.715  0.000 -0.060  0.152
  0.000  0.000  0.715  0.152  0.060
  0.000 -0.060  0.152  0.822  0.000
  0.000  0.152  0.060  0.000  0.822
atom    2   Tr[ns(na)] =   8.02271
    eigenvalues: 
  0.595  0.596  0.938  0.941  0.941
    eigenvectors:
  0.000  0.000  0.997  0.000  0.003
  0.234  0.421  0.001  0.033  0.312
  0.421  0.234  0.000  0.313  0.032
  0.321  0.024  0.000  0.652  0.002
  0.024  0.321  0.002  0.002  0.650
    occupations:
  0.938  0.000  0.000  0.000  0.000
  0.000  0.715  0.000  0.060  0.153
  0.000  0.000  0.715  0.153 -0.060
  0.000  0.060  0.153  0.822  0.000
  0.000  0.153 -0.060  0.000  0.822
atom    3   Tr[ns(na)] =   3.80398
    eigenvalues: 
  0.355  0.356  0.384  0.403  0.403
    eigenvectors:
  0.000  0.000  1.000  0.000  0.000
  0.691  0.230  0.000  0.014  0.065
  0.230  0.691  0.000  0.065  0.014
  0.020  0.059  0.000  0.749  0.172
  0.059  0.020  0.000  0.172  0.749
    occupations:
  0.384  0.000  0.000  0.000  0.000
  0.000  0.359  0.000  0.000  0.013
  0.000  0.000  0.359  0.013  0.000
  0.000  0.000  0.013  0.400  0.000
  0.000  0.013  0.000  0.000  0.400
atom    4   Tr[ns(na)] =   3.80396
    eigenvalues: 
  0.356  0.356  0.384  0.403  0.403
    eigenvectors:
  0.000  0.000  1.000  0.000  0.000
  0.717  0.204  0.000  0.019  0.060
  0.203  0.717  0.000  0.059  0.020
  0.018  0.061  0.000  0.687  0.234
  0.062  0.018  0.000  0.235  0.686
    occupations:
  0.384  0.000  0.000  0.000  0.000
  0.000  0.359  0.000  0.000  0.013
  0.000  0.000  0.359  0.013  0.000
  0.000  0.000  0.013  0.400  0.000
  0.000  0.013  0.000  0.000  0.400
atom    5   Tr[ns(na)] =   5.42776
    eigenvalues: 
  0.845  0.929  0.940
    eigenvectors:
  0.340  0.000  0.660
  0.495  0.250  0.255
  0.164  0.750  0.086
    occupations:
  0.908 -0.039  0.023
 -0.039  0.890  0.022
  0.023  0.022  0.916
atom    6   Tr[ns(na)] =   5.43397
    eigenvalues: 
  0.846  0.929  0.941
    eigenvectors:
  0.340  0.000  0.660
  0.494  0.251  0.255
  0.166  0.749  0.085
    occupations:
  0.909  0.039  0.022
  0.039  0.891 -0.022
  0.022 -0.022  0.917
atom    7   Tr[ns(na)] =   5.43398
    eigenvalues: 
  0.846  0.929  0.941
    eigenvectors:
  0.340  0.000  0.660
  0.000  1.000  0.000
  0.660  0.000  0.340
    occupations:
  0.909  0.000 -0.045
  0.000  0.929  0.000
 -0.045  0.000  0.879
atom    8   Tr[ns(na)] =   5.43370
    eigenvalues: 
  0.846  0.929  0.941
    eigenvectors:
  0.340  0.000  0.660
  0.496  0.250  0.255
  0.164  0.750  0.086
    occupations:
  0.909 -0.039  0.022
 -0.039  0.891  0.022
  0.022  0.022  0.917
atom    9   Tr[ns(na)] =   5.43402
    eigenvalues: 
  0.846  0.929  0.941
    eigenvectors:
  0.340  0.000  0.660
  0.494  0.250  0.255
  0.166  0.750  0.085
    occupations:
  0.909  0.039  0.022
  0.039  0.891 -0.022
  0.022 -0.022  0.917
atom   10   Tr[ns(na)] =   5.43402
    eigenvalues: 
  0.846  0.929  0.941
    eigenvectors:
  0.340  0.000  0.660
  0.000  1.000  0.000
  0.660  0.000  0.340
    occupations:
  0.909  0.000 -0.045
  0.000  0.929  0.000
 -0.045  0.000  0.879
N of occupied +U levels =  56.2514365
 --- exit write_ns ---
 --- in v_hubbard ---
Hubbard energy    0.0399
 -------

     total cpu time spent up to now is      230.0 secs

     total energy              =    -538.29314506 Ry
     Harris-Foulkes estimate   =    -538.29314506 Ry
     estimated scf accuracy    <       0.00000002 Ry

     iteration #  8     ecut=    30.00 Ry     beta=0.20
     Davidson diagonalization with overlap
     ethr =  2.45E-11,  avg # of iterations =  2.0
 --- enter write_ns ---
 LDA+U parameters:
U( 1)     =  0.00000000
alpha( 1) =  0.00000000
U( 2)     =  0.00000000
alpha( 2) =  0.00000000
U( 3)     =  0.00000000
alpha( 3) =  0.10000000
U( 4)     =  0.00000000
alpha( 4) =  0.00000000
atom    1   Tr[ns(na)] =   8.02331
    eigenvalues: 
  0.596  0.596  0.938  0.941  0.941
    eigenvectors:
  0.000  0.000  0.996  0.000  0.004
  0.102  0.553  0.001  0.155  0.190
  0.553  0.102  0.000  0.190  0.154
  0.173  0.171  0.001  0.129  0.524
  0.172  0.174  0.001  0.525  0.128
    occupations:
  0.938  0.000  0.000  0.000  0.000
  0.000  0.715  0.000 -0.060  0.152
  0.000  0.000  0.715  0.152  0.060
  0.000 -0.060  0.152  0.822  0.000
  0.000  0.152  0.060  0.000  0.822
atom    2   Tr[ns(na)] =   8.02269
    eigenvalues: 
  0.595  0.596  0.938  0.941  0.941
    eigenvectors:
  0.000  0.000  0.997  0.000  0.003
  0.234  0.421  0.001  0.031  0.313
  0.421  0.234  0.000  0.314  0.031
  0.321  0.024  0.000  0.652  0.003
  0.024  0.321  0.002  0.003  0.650
    occupations:
  0.938  0.000  0.000  0.000  0.000
  0.000  0.715  0.000  0.060  0.153
  0.000  0.000  0.715  0.153 -0.060
  0.000  0.060  0.153  0.822  0.000
  0.000  0.153 -0.060  0.000  0.822
atom    3   Tr[ns(na)] =   3.80403
    eigenvalues: 
  0.356  0.356  0.384  0.403  0.403
    eigenvectors:
  0.000  0.000  1.000  0.000  0.000
  0.691  0.230  0.000  0.014  0.065
  0.230  0.691  0.000  0.065  0.014
  0.020  0.059  0.000  0.754  0.167
  0.059  0.020  0.000  0.167  0.754
    occupations:
  0.384  0.000  0.000  0.000  0.000
  0.000  0.359  0.000  0.000  0.013
  0.000  0.000  0.359  0.013  0.000
  0.000  0.000  0.013  0.400  0.000
  0.000  0.013  0.000  0.000  0.400
atom    4   Tr[ns(na)] =   3.80400
    eigenvalues: 
  0.356  0.356  0.384  0.403  0.403
    eigenvectors:
  0.000  0.000  1.000  0.000  0.000
  0.715  0.205  0.000  0.019  0.060
  0.205  0.716  0.000  0.060  0.020
  0.018  0.061  0.000  0.687  0.234
  0.062  0.018  0.000  0.234  0.686
    occupations:
  0.384  0.000  0.000  0.000  0.000
  0.000  0.359  0.000  0.000  0.013
  0.000  0.000  0.359  0.013  0.000
  0.000  0.000  0.013  0.400  0.000
  0.000  0.013  0.000  0.000  0.400
atom    5   Tr[ns(na)] =   5.42776
    eigenvalues: 
  0.845  0.929  0.940
    eigenvectors:
  0.340  0.000  0.660
  0.495  0.250  0.255
  0.164  0.750  0.086
    occupations:
  0.908 -0.039  0.023
 -0.039  0.890  0.022
  0.023  0.022  0.916
atom    6   Tr[ns(na)] =   5.43397
    eigenvalues: 
  0.846  0.929  0.941
    eigenvectors:
  0.340  0.000  0.660
  0.494  0.251  0.255
  0.166  0.749  0.085
    occupations:
  0.909  0.039  0.022
  0.039  0.891 -0.022
  0.022 -0.022  0.917
atom    7   Tr[ns(na)] =   5.43397
    eigenvalues: 
  0.846  0.929  0.941
    eigenvectors:
  0.340  0.000  0.660
  0.000  1.000  0.000
  0.660  0.000  0.340
    occupations:
  0.909  0.000 -0.045
  0.000  0.929  0.000
 -0.045  0.000  0.879
atom    8   Tr[ns(na)] =   5.43369
    eigenvalues: 
  0.846  0.929  0.941
    eigenvectors:
  0.340  0.000  0.660
  0.496  0.250  0.255
  0.164  0.750  0.086
    occupations:
  0.909 -0.039  0.022
 -0.039  0.891  0.022
  0.022  0.022  0.917
atom    9   Tr[ns(na)] =   5.43402
    eigenvalues: 
  0.846  0.929  0.941
    eigenvectors:
  0.340  0.000  0.660
  0.494  0.250  0.255
  0.166  0.750  0.085
    occupations:
  0.909  0.039  0.022
  0.039  0.891 -0.022
  0.022 -0.022  0.917
atom   10   Tr[ns(na)] =   5.43402
    eigenvalues: 
  0.846  0.929  0.941
    eigenvectors:
  0.340  0.000  0.660
  0.000  1.000  0.000
  0.660  0.000  0.340
    occupations:
  0.909  0.000 -0.045
  0.000  0.929  0.000
 -0.045  0.000  0.879
N of occupied +U levels =  56.2514592
 --- exit write_ns ---
 --- in v_hubbard ---
Hubbard energy    0.0399
 -------

     total cpu time spent up to now is      256.9 secs

     End of self-consistent calculation

          k = 0.0000 0.0000 0.0000 (  2175 PWs)   bands (ev):

   -19.7907 -19.6172  -6.5343  -5.8266  -5.8029  -5.7932  -5.7890  -5.4672
    -3.7412  -3.2539  -3.1796  -3.1780  -3.0147  -3.0141   5.2191   6.9496
     6.9587   7.5407   7.5520   7.7399   7.8436   7.8493   7.9074   9.3221
     9.6369   9.6461   9.8927   9.9423   9.9468  10.4894  10.4923  10.6782
    10.6783  10.7024  10.8272  11.5236  11.5251  12.1967  12.3134  12.3152
    14.7877  14.7903  15.4332  15.4347  16.1990  16.7895

     occupation numbers 
     0.0313   0.0313   0.0313   0.0313   0.0313   0.0313   0.0313   0.0313
     0.0313   0.0313   0.0313   0.0313   0.0313   0.0313   0.0313   0.0313
     0.0313   0.0313   0.0313   0.0313   0.0313   0.0313   0.0313   0.0313
     0.0313   0.0313   0.0312   0.0312   0.0312   0.0312   0.0312   0.0312
     0.0312   0.0312   0.0312   0.0309   0.0309   0.0149   0.0101   0.0100
     0.0000   0.0000   0.0000   0.0000   0.0000   0.0000

          k =-0.2471-0.1427 0.1027 (  2181 PWs)   bands (ev):

   -19.7624 -19.6398  -6.7138  -6.2719  -5.9143  -5.8233  -5.5897  -5.4563
    -3.5606  -3.3710  -2.9124  -2.8895  -2.8272  -2.7453   5.5830   6.9079
     7.0518   7.0663   7.3677   7.5398   7.5989   7.8446   7.8908   8.6409
     8.7359   9.3703   9.6903   9.8214   9.8751  10.0537  10.4004  10.4133
    11.0520  11.0829  11.1663  11.8977  11.9494  12.0113  12.3727  12.4305
    14.3332  14.3401  15.8220  16.0763  16.9763  17.2716

     occupation numbers 
     0.0625   0.0625   0.0625   0.0625   0.0625   0.0625   0.0625   0.0625
     0.0625   0.0625   0.0625   0.0625   0.0625   0.0625   0.0625   0.0625
     0.0625   0.0625   0.0625   0.0625   0.0625   0.0625   0.0625   0.0625
     0.0625   0.0625   0.0625   0.0625   0.0625   0.0625   0.0625   0.0625
     0.0625   0.0625   0.0625   0.0523   0.0493   0.0451   0.0158   0.0121
     0.0000   0.0000   0.0000   0.0000   0.0000   0.0000

          k = 0.4942 0.2853-0.2053 (  2202 PWs)   bands (ev):

   -19.6990 -19.6977  -6.7178  -6.6968  -5.9426  -5.9268  -5.5035  -5.4906
    -3.3621  -3.3569  -2.7715  -2.7700  -2.4981  -2.4936   6.1108   6.1315
     7.2431   7.2653   7.3151   7.3289   7.6838   7.7034   8.0010   8.0319
     8.2144   8.2502   9.5606   9.5686   9.8953   9.9064  10.3061  10.3165
    11.4902  11.4916  11.5696  11.5724  11.7346  11.7397  13.3115  13.3419
    13.4000  13.4272  16.8414  16.8446  17.1379  17.1412

     occupation numbers 
     0.0313   0.0313   0.0313   0.0313   0.0313   0.0313   0.0313   0.0313
     0.0313   0.0313   0.0313   0.0313   0.0313   0.0313   0.0313   0.0313
     0.0313   0.0313   0.0313   0.0313   0.0313   0.0313   0.0313   0.0313
     0.0313   0.0313   0.0313   0.0313   0.0312   0.0312   0.0312   0.0312
     0.0310   0.0310   0.0307   0.0307   0.0293   0.0293   0.0000   0.0000
     0.0000   0.0000   0.0000   0.0000   0.0000   0.0000

          k =-0.2471 0.1427 0.2053 (  2195 PWs)   bands (ev):

   -19.7581 -19.6426  -6.8316  -6.2087  -6.0415  -5.8223  -5.6419  -5.4216
    -3.3876  -3.2473  -3.0806  -2.8697  -2.7932  -2.5463   5.6079   6.8857
     6.9475   7.1366   7.2720   7.5037   7.5100   7.8944   7.8991   8.7072
     8.9390   8.9421   9.3148   9.8265  10.0149  10.1211  10.2210  10.3166
    10.7023  11.4109  11.4369  11.5289  11.9480  12.0143  12.1879  12.7552
    13.6545  14.8026  15.9977  16.1989  17.0391  17.5406

     occupation numbers 
     0.0625   0.0625   0.0625   0.0625   0.0625   0.0625   0.0625   0.0625
     0.0625   0.0625   0.0625   0.0625   0.0625   0.0625   0.0625   0.0625
     0.0625   0.0625   0.0625   0.0625   0.0625   0.0625   0.0625   0.0625
     0.0625   0.0625   0.0625   0.0625   0.0625   0.0625   0.0625   0.0625
     0.0625   0.0623   0.0622   0.0618   0.0494   0.0449   0.0306   0.0015
     0.0000   0.0000   0.0000   0.0000   0.0000   0.0000

          k = 0.4942 0.5706-0.1027 (  2198 PWs)   bands (ev):

   -19.7177 -19.6770  -6.9318  -6.6322  -6.1054  -5.8868  -5.4927  -5.3453
    -3.2833  -3.2368  -2.8622  -2.6912  -2.5126  -2.3695   5.9371   6.3175
     6.9055   7.0536   7.2534   7.3656   7.5946   7.8382   7.9730   8.1060
     8.3967   8.9344   9.2005   9.3830   9.6884   9.8468   9.9993  10.3836
    11.1173  11.5594  11.6468  11.7186  11.8496  11.8748  12.3526  12.7572
    13.4457  14.3787  16.9101  17.1209  17.3172  18.0218

     occupation numbers 
     0.0625   0.0625   0.0625   0.0625   0.0625   0.0625   0.0625   0.0625
     0.0625   0.0625   0.0625   0.0625   0.0625   0.0625   0.0625   0.0625
     0.0625   0.0625   0.0625   0.0625   0.0625   0.0625   0.0625   0.0625
     0.0625   0.0625   0.0625   0.0625   0.0625   0.0625   0.0625   0.0625
     0.0625   0.0615   0.0605   0.0591   0.0546   0.0535   0.0172   0.0014
     0.0000   0.0000   0.0000   0.0000   0.0000   0.0000

          k = 0.2471 0.4280 0.0000 (  2203 PWs)   bands (ev):

   -19.7269 -19.6693  -6.8358  -6.6134  -6.0474  -5.9502  -5.4071  -5.3442
    -3.4873  -3.2786  -2.7844  -2.6994  -2.5533  -2.5404   5.9284   6.3513
     7.1181   7.1591   7.2525   7.3430   7.4983   7.7494   7.8554   8.2115
     8.4477   8.9721   9.4571   9.5021   9.7974   9.8198  10.0919  10.3885
    11.4164  11.4270  11.4562  11.6771  11.6878  11.9719  12.3012  13.3390
    13.4108  14.1774  16.4435  16.9974  17.4247  17.9330

     occupation numbers 
     0.0625   0.0625   0.0625   0.0625   0.0625   0.0625   0.0625   0.0625
     0.0625   0.0625   0.0625   0.0625   0.0625   0.0625   0.0625   0.0625
     0.0625   0.0625   0.0625   0.0625   0.0625   0.0625   0.0625   0.0625
     0.0625   0.0625   0.0625   0.0625   0.0625   0.0625   0.0625   0.0625
     0.0622   0.0622   0.0621   0.0600   0.0598   0.0478   0.0211   0.0000
     0.0000   0.0000   0.0000   0.0000   0.0000   0.0000

          k = 0.4942-0.2853-0.4107 (  2202 PWs)   bands (ev):

   -19.7249 -19.6678  -7.1402  -6.4384  -6.2181  -5.9564  -5.5244  -5.2486
    -3.1737  -3.1134  -3.0243  -2.6355  -2.4658  -2.2074   5.8303   6.3629
     6.4751   6.9425   7.1676   7.2740   7.9062   7.9332   8.1800   8.3569
     8.6141   8.6227   8.6721   9.4559   9.7018  10.0609  10.0931  10.4597
    10.6667  11.3121  11.5841  11.7703  11.8765  11.9920  12.0831  12.4729
    13.3456  14.8146  17.0457  17.2709  17.5246  17.6112

     occupation numbers 
     0.0313   0.0313   0.0313   0.0313   0.0313   0.0313   0.0313   0.0313
     0.0313   0.0313   0.0313   0.0313   0.0313   0.0313   0.0313   0.0313
     0.0313   0.0313   0.0313   0.0313   0.0313   0.0313   0.0313   0.0313
     0.0313   0.0313   0.0313   0.0313   0.0313   0.0312   0.0312   0.0312
     0.0312   0.0312   0.0306   0.0288   0.0267   0.0232   0.0198   0.0049
     0.0000   0.0000   0.0000   0.0000   0.0000   0.0000

          k = 0.0000 0.0000 0.3080 (  2187 PWs)   bands (ev):

   -19.7622 -19.6396  -6.6016  -5.9655  -5.9093  -5.8951  -5.8207  -5.8091
    -3.1817  -3.0863  -3.0839  -2.9553  -2.8818  -2.8797   5.6363   7.0461
     7.0554   7.1690   7.4615   7.4731   7.5463   7.8742   7.8788   8.8851
     8.8908   9.4578   9.4664   9.6822   9.6929   9.9009  10.1560  10.1658
    11.1685  11.1692  11.2339  11.9104  11.9112  12.0237  12.3527  12.3546
    14.2925  14.2951  15.9151  15.9170  16.8823  17.4862

     occupation numbers 
     0.0625   0.0625   0.0625   0.0625   0.0625   0.0625   0.0625   0.0625
     0.0625   0.0625   0.0625   0.0625   0.0625   0.0625   0.0625   0.0625
     0.0625   0.0625   0.0625   0.0625   0.0625   0.0625   0.0625   0.0625
     0.0625   0.0625   0.0625   0.0625   0.0625   0.0625   0.0625   0.0625
     0.0625   0.0625   0.0625   0.0516   0.0515   0.0442   0.0172   0.0171
     0.0000   0.0000   0.0000   0.0000   0.0000   0.0000

          k = 0.7412 0.4280 0.0000 (  2204 PWs)   bands (ev):

   -19.7268 -19.6690  -6.7164  -6.5863  -6.1255  -5.8094  -5.6487  -5.5259
    -3.1503  -3.0720  -3.0319  -2.6606  -2.6392  -2.5692   5.9567   6.5416
     7.1240   7.2303   7.2621   7.3708   7.4771   7.6965   8.0342   8.1768
     8.4856   8.8649   9.4950   9.5136   9.6380   9.7101   9.8835  10.2458
    11.4160  11.4301  11.5264  11.7086  11.7359  11.8995  12.3106  13.2653
    13.3282  14.1974  16.6961  16.7284  17.5957  17.8008

     occupation numbers 
     0.0625   0.0625   0.0625   0.0625   0.0625   0.0625   0.0625   0.0625
     0.0625   0.0625   0.0625   0.0625   0.0625   0.0625   0.0625   0.0625
     0.0625   0.0625   0.0625   0.0625   0.0625   0.0625   0.0625   0.0625
     0.0625   0.0625   0.0625   0.0625   0.0625   0.0625   0.0625   0.0625
     0.0622   0.0622   0.0618   0.0593   0.0586   0.0522   0.0204   0.0000
     0.0000   0.0000   0.0000   0.0000   0.0000   0.0000

          k = 0.4942 0.2853 0.1027 (  2211 PWs)   bands (ev):

   -19.7169 -19.6765  -6.9584  -6.5268  -6.3053  -5.6709  -5.6012  -5.3300
    -3.2975  -3.1515  -3.0110  -2.5910  -2.5461  -2.3653   5.9795   6.2726
     6.8741   7.0504   7.2555   7.3180   7.6065   7.9058   8.0096   8.0682
     8.4218   9.0680   9.1875   9.4320   9.5752   9.6963  10.0475  10.4134
    11.1325  11.5937  11.7203  11.7266  11.7871  11.8063  12.3057  12.7749
    13.4871  14.3623  16.8917  16.9398  17.5887  17.9354

     occupation numbers 
     0.0625   0.0625   0.0625   0.0625   0.0625   0.0625   0.0625   0.0625
     0.0625   0.0625   0.0625   0.0625   0.0625   0.0625   0.0625   0.0625
     0.0625   0.0625   0.0625   0.0625   0.0625   0.0625   0.0625   0.0625
     0.0625   0.0625   0.0625   0.0625   0.0625   0.0625   0.0625   0.0625
     0.0625   0.0612   0.0590   0.0589   0.0571   0.0564   0.0208   0.0012
     0.0000   0.0000   0.0000   0.0000   0.0000   0.0000

          k = 0.7412-0.4280-0.3080 (  2210 PWs)   bands (ev):

   -19.7175 -19.6768  -6.8835  -6.4364  -6.2804  -5.7923  -5.7369  -5.4462
    -3.0538  -3.0328  -2.9508  -2.7130  -2.6045  -2.4126   6.0246   6.4312
     6.9525   7.0311   7.2927   7.2951   7.6347   7.9293   8.0523   8.1033
     8.4058   9.0301   9.0574   9.5500   9.5735   9.6164   9.6901  10.2407
    11.1876  11.6164  11.7061  11.7176  11.8313  11.8718  12.2624  12.7223
    13.4391  14.3296  17.0662  17.0730  17.5577  17.9094

     occupation numbers 
     0.0625   0.0625   0.0625   0.0625   0.0625   0.0625   0.0625   0.0625
     0.0625   0.0625   0.0625   0.0625   0.0625   0.0625   0.0625   0.0625
     0.0625   0.0625   0.0625   0.0625   0.0625   0.0625   0.0625   0.0625
     0.0625   0.0625   0.0625   0.0625   0.0625   0.0625   0.0625   0.0625
     0.0625   0.0609   0.0594   0.0591   0.0554   0.0536   0.0243   0.0019
     0.0000   0.0000   0.0000   0.0000   0.0000   0.0000

          k = 0.4942-0.5706-0.2053 (  2206 PWs)   bands (ev):

   -19.6961 -19.6958  -6.8696  -6.8540  -6.0339  -6.0120  -5.4035  -5.3903
    -3.1382  -3.1377  -2.7987  -2.7952  -2.3706  -2.3670   6.1194   6.1406
     7.0376   7.0465   7.1697   7.1774   7.4539   7.4667   8.2283   8.2675
     8.8256   8.8403   9.0956   9.1064   9.5784   9.5905  10.1263  10.1346
    11.4011  11.4016  11.6027  11.6037  11.8723  11.8760  12.3366  12.3388
    14.0216  14.0306  17.4355  17.4371  17.8715  17.8754

     occupation numbers 
     0.0625   0.0625   0.0625   0.0625   0.0625   0.0625   0.0625   0.0625
     0.0625   0.0625   0.0625   0.0625   0.0625   0.0625   0.0625   0.0625
     0.0625   0.0625   0.0625   0.0625   0.0625   0.0625   0.0625   0.0625
     0.0625   0.0625   0.0625   0.0625   0.0625   0.0625   0.0625   0.0625
     0.0623   0.0623   0.0611   0.0611   0.0536   0.0534   0.0184   0.0182
     0.0000   0.0000   0.0000   0.0000   0.0000   0.0000

          k = 0.0000 0.0000-0.6160 (  2186 PWs)   bands (ev):

   -19.6985 -19.6972  -6.5037  -6.4809  -5.9348  -5.9092  -5.9071  -5.9056
    -2.8744  -2.8696  -2.8687  -2.8677  -2.6997  -2.6965   6.3318   6.3541
     7.2498   7.2552   7.2672   7.2840   7.8733   7.9049   8.1262   8.1270
     8.1568   8.1576   9.6703   9.6711   9.6814   9.6857   9.7340   9.7522
    11.6211  11.6242  11.6689  11.6696  11.6724  11.6748  13.2532  13.2553
    13.2810  13.2839  17.1221  17.1232  17.1246  17.1267

     occupation numbers 
     0.0313   0.0313   0.0313   0.0313   0.0313   0.0313   0.0313   0.0313
     0.0313   0.0313   0.0313   0.0313   0.0313   0.0313   0.0313   0.0313
     0.0313   0.0313   0.0313   0.0313   0.0313   0.0313   0.0313   0.0313
     0.0313   0.0313   0.0313   0.0313   0.0313   0.0313   0.0313   0.0313
     0.0304   0.0304   0.0301   0.0301   0.0300   0.0300   0.0000   0.0000
     0.0000   0.0000   0.0000   0.0000   0.0000   0.0000

          k =-0.2471 0.1427-0.1027 (  2181 PWs)   bands (ev):

   -19.7624 -19.6398  -6.7137  -6.2718  -5.9125  -5.8264  -5.5903  -5.4542
    -3.5618  -3.3704  -2.9129  -2.8891  -2.8264  -2.7460   5.5837   6.9100
     7.0573   7.0600   7.3652   7.5338   7.6049   7.8484   7.8875   8.6382
     8.7406   9.3671   9.6843   9.8292   9.8735  10.0565  10.3993  10.4132
    11.0517  11.0835  11.1658  11.8972  11.9494  12.0110  12.3711  12.4321
    14.3314  14.3418  15.8209  16.0780  16.9768  17.2728

     occupation numbers 
     0.0625   0.0625   0.0625   0.0625   0.0625   0.0625   0.0625   0.0625
     0.0625   0.0625   0.0625   0.0625   0.0625   0.0625   0.0625   0.0625
     0.0625   0.0625   0.0625   0.0625   0.0625   0.0625   0.0625   0.0625
     0.0625   0.0625   0.0625   0.0625   0.0625   0.0625   0.0625   0.0625
     0.0625   0.0625   0.0625   0.0523   0.0493   0.0451   0.0159   0.0120
     0.0000   0.0000   0.0000   0.0000   0.0000   0.0000

          k = 0.0000 0.2853 0.1027 (  2181 PWs)   bands (ev):

   -19.7624 -19.6398  -6.7138  -6.2720  -5.9140  -5.8236  -5.5899  -5.4561
    -3.5606  -3.3710  -2.9125  -2.8895  -2.8272  -2.7453   5.5829   6.9079
     7.0517   7.0665   7.3675   7.5395   7.5990   7.8452   7.8905   8.6411
     8.7357   9.3703   9.6905   9.8214   9.8750  10.0538  10.4013  10.4124
    11.0519  11.0830  11.1663  11.8977  11.9494  12.0112  12.3726  12.4305
    14.3331  14.3402  15.8220  16.0763  16.9763  17.2716

     occupation numbers 
     0.0625   0.0625   0.0625   0.0625   0.0625   0.0625   0.0625   0.0625
     0.0625   0.0625   0.0625   0.0625   0.0625   0.0625   0.0625   0.0625
     0.0625   0.0625   0.0625   0.0625   0.0625   0.0625   0.0625   0.0625
     0.0625   0.0625   0.0625   0.0625   0.0625   0.0625   0.0625   0.0625
     0.0625   0.0625   0.0625   0.0523   0.0493   0.0451   0.0158   0.0121
     0.0000   0.0000   0.0000   0.0000   0.0000   0.0000

          k = 0.4942-0.2853 0.2053 (  2202 PWs)   bands (ev):

   -19.6990 -19.6976  -6.7172  -6.6970  -5.9424  -5.9279  -5.5038  -5.4893
    -3.3614  -3.3586  -2.7720  -2.7688  -2.4980  -2.4941   6.1106   6.1342
     7.2455   7.2630   7.3122   7.3354   7.6751   7.7001   8.0064   8.0363
     8.2160   8.2446   9.5589   9.5629   9.8967   9.9170  10.3029  10.3153
    11.4906  11.4919  11.5698  11.5727  11.7341  11.7385  13.3110  13.3398
    13.4001  13.4295  16.8402  16.8451  17.1392  17.1431

     occupation numbers 
     0.0313   0.0313   0.0313   0.0313   0.0313   0.0313   0.0313   0.0313
     0.0313   0.0313   0.0313   0.0313   0.0313   0.0313   0.0313   0.0313
     0.0313   0.0313   0.0313   0.0313   0.0313   0.0313   0.0313   0.0313
     0.0313   0.0313   0.0313   0.0313   0.0312   0.0312   0.0312   0.0312
     0.0310   0.0310   0.0307   0.0307   0.0293   0.0293   0.0000   0.0000
     0.0000   0.0000   0.0000   0.0000   0.0000   0.0000

          k = 0.0000-0.5706-0.2053 (  2202 PWs)   bands (ev):

   -19.6989 -19.6977  -6.7169  -6.6977  -5.9404  -5.9289  -5.5062  -5.4878
    -3.3598  -3.3592  -2.7730  -2.7684  -2.4978  -2.4940   6.1108   6.1315
     7.2502   7.2589   7.3082   7.3350   7.6759   7.7113   8.0064   8.0265
     8.2222   8.2423   9.5628   9.5666   9.8951   9.9066  10.3062  10.3163
    11.4902  11.4915  11.5694  11.5727  11.7355  11.7388  13.3130  13.3404
    13.3983  13.4289  16.8393  16.8467  17.1370  17.1421

     occupation numbers 
     0.0313   0.0313   0.0313   0.0313   0.0313   0.0313   0.0313   0.0313
     0.0313   0.0313   0.0313   0.0313   0.0313   0.0313   0.0313   0.0313
     0.0313   0.0313   0.0313   0.0313   0.0313   0.0313   0.0313   0.0313
     0.0313   0.0313   0.0313   0.0313   0.0312   0.0312   0.0312   0.0312
     0.0310   0.0310   0.0307   0.0307   0.0293   0.0293   0.0000   0.0000
     0.0000   0.0000   0.0000   0.0000   0.0000   0.0000

          k =-0.2471-0.1427-0.2053 (  2195 PWs)   bands (ev):

   -19.7573 -19.6421  -6.8404  -6.2120  -6.0487  -5.8022  -5.6326  -5.4313
    -3.3881  -3.2473  -3.0808  -2.8721  -2.7945  -2.5481   5.6178   6.8694
     6.9543   7.1476   7.2697   7.5035   7.5201   7.8898   7.9031   8.7095
     8.9257   8.9364   9.3240   9.8168  10.0126  10.1228  10.2270  10.3255
    10.7010  11.4083  11.4340  11.5244  11.9480  12.0152  12.1891  12.7518
    13.6540  14.8046  15.9972  16.1997  17.0416  17.5414

     occupation numbers 
     0.0625   0.0625   0.0625   0.0625   0.0625   0.0625   0.0625   0.0625
     0.0625   0.0625   0.0625   0.0625   0.0625   0.0625   0.0625   0.0625
     0.0625   0.0625   0.0625   0.0625   0.0625   0.0625   0.0625   0.0625
     0.0625   0.0625   0.0625   0.0625   0.0625   0.0625   0.0625   0.0625
     0.0625   0.0623   0.0622   0.0618   0.0494   0.0448   0.0305   0.0015
     0.0000   0.0000   0.0000   0.0000   0.0000   0.0000

          k = 0.0000-0.2853 0.2053 (  2195 PWs)   bands (ev):

   -19.7573 -19.6421  -6.8404  -6.2121  -6.0486  -5.8023  -5.6326  -5.4313
    -3.3880  -3.2473  -3.0808  -2.8720  -2.7945  -2.5481   5.6178   6.8694
     6.9543   7.1476   7.2697   7.5019   7.5216   7.8895   7.9034   8.7094
     8.9277   8.9345   9.3240   9.8168  10.0127  10.1228  10.2270  10.3255
    10.7010  11.4083  11.4340  11.5244  11.9480  12.0152  12.1891  12.7518
    13.6540  14.8046  15.9972  16.1997  17.0416  17.5414

     occupation numbers 
     0.0625   0.0625   0.0625   0.0625   0.0625   0.0625   0.0625   0.0625
     0.0625   0.0625   0.0625   0.0625   0.0625   0.0625   0.0625   0.0625
     0.0625   0.0625   0.0625   0.0625   0.0625   0.0625   0.0625   0.0625
     0.0625   0.0625   0.0625   0.0625   0.0625   0.0625   0.0625   0.0625
     0.0625   0.0623   0.0622   0.0618   0.0494   0.0448   0.0305   0.0015
     0.0000   0.0000   0.0000   0.0000   0.0000   0.0000

          k = 0.4942-0.5706 0.1027 (  2198 PWs)   bands (ev):

   -19.7169 -19.6765  -6.9425  -6.6284  -6.1156  -5.8671  -5.4861  -5.3544
    -3.2850  -3.2371  -2.8608  -2.6930  -2.5141  -2.3717   5.9485   6.3060
     6.9159   7.0597   7.2636   7.3756   7.5864   7.8360   7.9529   8.1305
     8.3810   8.9448   9.1844   9.3755   9.6928   9.8431   9.9968  10.3911
    11.1174  11.5587  11.6478  11.7201  11.8499  11.8703  12.3535  12.7573
    13.4416  14.3805  16.9120  17.1200  17.3183  18.0221

     occupation numbers 
     0.0625   0.0625   0.0625   0.0625   0.0625   0.0625   0.0625   0.0625
     0.0625   0.0625   0.0625   0.0625   0.0625   0.0625   0.0625   0.0625
     0.0625   0.0625   0.0625   0.0625   0.0625   0.0625   0.0625   0.0625
     0.0625   0.0625   0.0625   0.0625   0.0625   0.0625   0.0625   0.0625
     0.0625   0.0615   0.0605   0.0590   0.0546   0.0537   0.0172   0.0014
     0.0000   0.0000   0.0000   0.0000   0.0000   0.0000

          k =-0.7412 0.1427-0.1027 (  2198 PWs)   bands (ev):

   -19.7169 -19.6765  -6.9420  -6.6295  -6.1144  -5.8680  -5.4852  -5.3552
    -3.2842  -3.2372  -2.8606  -2.6940  -2.5135  -2.3721   5.9498   6.3042
     6.9192   7.0595   7.2572   7.3789   7.5859   7.8343   7.9732   8.1065
     8.3879   8.9386   9.1892   9.3769   9.6945   9.8418   9.9970  10.3897
    11.1182  11.5575  11.6471  11.7205  11.8494  11.8714  12.3539  12.7575
    13.4417  14.3807  16.9101  17.1228  17.3177  18.0221

     occupation numbers 
     0.0625   0.0625   0.0625   0.0625   0.0625   0.0625   0.0625   0.0625
     0.0625   0.0625   0.0625   0.0625   0.0625   0.0625   0.0625   0.0625
     0.0625   0.0625   0.0625   0.0625   0.0625   0.0625   0.0625   0.0625
     0.0625   0.0625   0.0625   0.0625   0.0625   0.0625   0.0625   0.0625
     0.0625   0.0615   0.0605   0.0590   0.0547   0.0536   0.0171   0.0014
     0.0000   0.0000   0.0000   0.0000   0.0000   0.0000

          k = 0.2471-0.7133-0.1027 (  2198 PWs)   bands (ev):

   -19.7169 -19.6765  -6.9423  -6.6290  -6.1153  -5.8671  -5.4844  -5.3563
    -3.2841  -3.2371  -2.8610  -2.6931  -2.5135  -2.3724   5.9491   6.3038
     6.9175   7.0618   7.2589   7.3769   7.5855   7.8315   7.9754   8.1091
     8.3868   8.9381   9.1901   9.3796   9.6899   9.8444   9.9955  10.3903
    11.1182  11.5585  11.6466  11.7182  11.8508  11.8722  12.3538  12.7576
    13.4416  14.3807  16.9116  17.1206  17.3176  18.0212

     occupation numbers 
     0.0625   0.0625   0.0625   0.0625   0.0625   0.0625   0.0625   0.0625
     0.0625   0.0625   0.0625   0.0625   0.0625   0.0625   0.0625   0.0625
     0.0625   0.0625   0.0625   0.0625   0.0625   0.0625   0.0625   0.0625
     0.0625   0.0625   0.0625   0.0625   0.0625   0.0625   0.0625   0.0625
     0.0625   0.0615   0.0605   0.0591   0.0546   0.0536   0.0171   0.0014
     0.0000   0.0000   0.0000   0.0000   0.0000   0.0000

          k =-0.7412-0.1427 0.1027 (  2198 PWs)   bands (ev):

   -19.7169 -19.6765  -6.9428  -6.6280  -6.1164  -5.8662  -5.4854  -5.3555
    -3.2849  -3.2370  -2.8612  -2.6921  -2.5142  -2.3720   5.9478   6.3057
     6.9143   7.0620   7.2652   7.3736   7.5859   7.8333   7.9551   8.1330
     8.3800   8.9443   9.1853   9.3781   9.6883   9.8457   9.9953  10.3916
    11.1175  11.5596  11.6473  11.7178  11.8514  11.8711  12.3534  12.7573
    13.4416  14.3805  16.9134  17.1178  17.3182  18.0213

     occupation numbers 
     0.0625   0.0625   0.0625   0.0625   0.0625   0.0625   0.0625   0.0625
     0.0625   0.0625   0.0625   0.0625   0.0625   0.0625   0.0625   0.0625
     0.0625   0.0625   0.0625   0.0625   0.0625   0.0625   0.0625   0.0625
     0.0625   0.0625   0.0625   0.0625   0.0625   0.0625   0.0625   0.0625
     0.0625   0.0615   0.0605   0.0591   0.0546   0.0536   0.0172   0.0014
     0.0000   0.0000   0.0000   0.0000   0.0000   0.0000

          k = 0.2471 0.7133 0.1027 (  2198 PWs)   bands (ev):

   -19.7177 -19.6770  -6.9324  -6.6311  -6.1067  -5.8858  -5.4936  -5.3444
    -3.2841  -3.2367  -2.8624  -2.6902  -2.5132  -2.3691   5.9359   6.3194
     6.9022   7.0538   7.2597   7.3622   7.5951   7.8399   7.9533   8.1290
     8.3900   8.9405   9.1959   9.3817   9.6868   9.8478   9.9991  10.3850
    11.1166  11.5606  11.6475  11.7183  11.8502  11.8737  12.3522  12.7569
    13.4457  14.3785  16.9120  17.1180  17.3178  18.0218

     occupation numbers 
     0.0625   0.0625   0.0625   0.0625   0.0625   0.0625   0.0625   0.0625
     0.0625   0.0625   0.0625   0.0625   0.0625   0.0625   0.0625   0.0625
     0.0625   0.0625   0.0625   0.0625   0.0625   0.0625   0.0625   0.0625
     0.0625   0.0625   0.0625   0.0625   0.0625   0.0625   0.0625   0.0625
     0.0625   0.0615   0.0605   0.0591   0.0546   0.0535   0.0173   0.0014
     0.0000   0.0000   0.0000   0.0000   0.0000   0.0000

          k = 0.2471-0.4280 0.0000 (  2203 PWs)   bands (ev):

   -19.7270 -19.6692  -6.8312  -6.6233  -6.0272  -5.9610  -5.4176  -5.3378
    -3.4887  -3.2786  -2.7865  -2.6949  -2.5520  -2.5425   5.9180   6.3590
     7.1123   7.1604   7.2615   7.3496   7.4880   7.7574   7.8499   8.2208
     8.4579   8.9596   9.4435   9.4945   9.8015   9.8227  10.0913  10.3916
    11.4183  11.4289  11.4570  11.6784  11.6889  11.9683  12.3006  13.3408
    13.4128  14.1740  16.4429  16.9993  17.4268  17.9334

     occupation numbers 
     0.0625   0.0625   0.0625   0.0625   0.0625   0.0625   0.0625   0.0625
     0.0625   0.0625   0.0625   0.0625   0.0625   0.0625   0.0625   0.0625
     0.0625   0.0625   0.0625   0.0625   0.0625   0.0625   0.0625   0.0625
     0.0625   0.0625   0.0625   0.0625   0.0625   0.0625   0.0625   0.0625
     0.0622   0.0622   0.0621   0.0599   0.0597   0.0481   0.0212   0.0000
     0.0000   0.0000   0.0000   0.0000   0.0000   0.0000

          k =-0.4942 0.0000 0.0000 (  2203 PWs)   bands (ev):

   -19.7270 -19.6692  -6.8311  -6.6233  -6.0272  -5.9610  -5.4176  -5.3378
    -3.4887  -3.2786  -2.7865  -2.6949  -2.5518  -2.5427   5.9180   6.3590
     7.1123   7.1610   7.2601   7.3506   7.4880   7.7575   7.8498   8.2208
     8.4579   8.9596   9.4435   9.4946   9.8017   9.8223  10.0914  10.3916
    11.4184  11.4289  11.4569  11.6784  11.6889  11.9683  12.3006  13.3408
    13.4128  14.1740  16.4429  16.9993  17.4268  17.9305

     occupation numbers 
     0.0625   0.0625   0.0625   0.0625   0.0625   0.0625   0.0625   0.0625
     0.0625   0.0625   0.0625   0.0625   0.0625   0.0625   0.0625   0.0625
     0.0625   0.0625   0.0625   0.0625   0.0625   0.0625   0.0625   0.0625
     0.0625   0.0625   0.0625   0.0625   0.0625   0.0625   0.0625   0.0625
     0.0622   0.0622   0.0621   0.0599   0.0597   0.0481   0.0212   0.0000
     0.0000   0.0000   0.0000   0.0000   0.0000   0.0000

          k = 0.4942 0.2853 0.4107 (  2202 PWs)   bands (ev):

   -19.7234 -19.6668  -7.1520  -6.4429  -6.2296  -5.9320  -5.5097  -5.2604
    -3.1744  -3.1143  -3.0246  -2.6396  -2.4682  -2.2107   5.8464   6.3420
     6.4898   6.9492   7.1810   7.2890   7.9141   7.9444   8.1824   8.3349
     8.6057   8.6316   8.6543   9.4349   9.6967  10.0594  10.0996  10.4679
    10.6660  11.3120  11.5827  11.7717  11.8779  11.9875  12.0844  12.4731
    13.3406  14.8166  17.0468  17.2716  17.5270  17.6130

     occupation numbers 
     0.0313   0.0313   0.0313   0.0313   0.0313   0.0313   0.0313   0.0313
     0.0313   0.0313   0.0313   0.0313   0.0313   0.0313   0.0313   0.0313
     0.0313   0.0313   0.0313   0.0313   0.0313   0.0313   0.0313   0.0313
     0.0313   0.0313   0.0313   0.0313   0.0313   0.0312   0.0312   0.0312
     0.0312   0.0312   0.0307   0.0288   0.0267   0.0234   0.0197   0.0049
     0.0000   0.0000   0.0000   0.0000   0.0000   0.0000

          k = 0.0000 0.5706-0.4107 (  2202 PWs)   bands (ev):

   -19.7234 -19.6668  -7.1520  -6.4429  -6.2295  -5.9320  -5.5097  -5.2603
    -3.1744  -3.1143  -3.0246  -2.6396  -2.4682  -2.2107   5.8464   6.3420
     6.4898   6.9492   7.1810   7.2890   7.9131   7.9454   8.1826   8.3347
     8.6056   8.6317   8.6543   9.4349   9.6966  10.0595  10.0995  10.4679
    10.6660  11.3120  11.5827  11.7717  11.8779  11.9875  12.0844  12.4731
    13.3406  14.8166  17.0468  17.2716  17.5270  17.6130

     occupation numbers 
     0.0313   0.0313   0.0313   0.0313   0.0313   0.0313   0.0313   0.0313
     0.0313   0.0313   0.0313   0.0313   0.0313   0.0313   0.0313   0.0313
     0.0313   0.0313   0.0313   0.0313   0.0313   0.0313   0.0313   0.0313
     0.0313   0.0313   0.0313   0.0313   0.0313   0.0312   0.0312   0.0312
     0.0312   0.0312   0.0307   0.0288   0.0267   0.0234   0.0197   0.0049
     0.0000   0.0000   0.0000   0.0000   0.0000   0.0000

          k = 0.7412-0.4280 0.0000 (  2204 PWs)   bands (ev):

   -19.7266 -19.6691  -6.7209  -6.5774  -6.1311  -5.8135  -5.6525  -5.5161
    -3.1490  -3.0721  -3.0319  -2.6633  -2.6410  -2.5668   5.9694   6.5328
     7.1269   7.2301   7.2526   7.3675   7.4879   7.6906   8.0342   8.1670
     8.4759   8.8789   9.4980   9.5277   9.6379   9.7086   9.8839  10.2415
    11.4141  11.4281  11.5256  11.7080  11.7343  11.9017  12.3116  13.2636
    13.3261  14.2007  16.6976  16.7274  17.5943  17.8005

     occupation numbers 
     0.0625   0.0625   0.0625   0.0625   0.0625   0.0625   0.0625   0.0625
     0.0625   0.0625   0.0625   0.0625   0.0625   0.0625   0.0625   0.0625
     0.0625   0.0625   0.0625   0.0625   0.0625   0.0625   0.0625   0.0625
     0.0625   0.0625   0.0625   0.0625   0.0625   0.0625   0.0625   0.0625
     0.0623   0.0622   0.0618   0.0593   0.0587   0.0521   0.0203   0.0000
     0.0000   0.0000   0.0000   0.0000   0.0000   0.0000

          k = 0.0000-0.8559 0.0000 (  2204 PWs)   bands (ev):

   -19.7268 -19.6690  -6.7164  -6.5862  -6.1255  -5.8095  -5.6487  -5.5258
    -3.1503  -3.0719  -3.0320  -2.6605  -2.6393  -2.5692   5.9567   6.5416
     7.1237   7.2311   7.2621   7.3701   7.4771   7.6966   8.0341   8.1769
     8.4856   8.8649   9.4950   9.5136   9.6384   9.7098   9.8836  10.2457
    11.4158  11.4303  11.5264  11.7086  11.7359  11.8995  12.3106  13.2653
    13.3282  14.1974  16.6960  16.7284  17.5958  17.8008

     occupation numbers 
     0.0625   0.0625   0.0625   0.0625   0.0625   0.0625   0.0625   0.0625
     0.0625   0.0625   0.0625   0.0625   0.0625   0.0625   0.0625   0.0625
     0.0625   0.0625   0.0625   0.0625   0.0625   0.0625   0.0625   0.0625
     0.0625   0.0625   0.0625   0.0625   0.0625   0.0625   0.0625   0.0625
     0.0622   0.0622   0.0618   0.0593   0.0586   0.0522   0.0204   0.0000
     0.0000   0.0000   0.0000   0.0000   0.0000   0.0000

          k = 0.4942-0.2853-0.1027 (  2211 PWs)   bands (ev):

   -19.7177 -19.6770  -6.9486  -6.5292  -6.3039  -5.6805  -5.6092  -5.3208
    -3.2973  -3.1514  -3.0107  -2.5892  -2.5460  -2.3624   5.9677   6.2869
     6.8616   7.0442   7.2473   7.3124   7.6111   7.9088   8.0061   8.0727
     8.4297   9.0607   9.1973   9.4288   9.5716   9.7130  10.0499  10.4055
    11.1315  11.5944  11.7221  11.7274  11.7860  11.8067  12.3046  12.7746
    13.4911  14.3603  16.8911  16.9401  17.5891  17.9351

     occupation numbers 
     0.0625   0.0625   0.0625   0.0625   0.0625   0.0625   0.0625   0.0625
     0.0625   0.0625   0.0625   0.0625   0.0625   0.0625   0.0625   0.0625
     0.0625   0.0625   0.0625   0.0625   0.0625   0.0625   0.0625   0.0625
     0.0625   0.0625   0.0625   0.0625   0.0625   0.0625   0.0625   0.0625
     0.0625   0.0612   0.0590   0.0589   0.0571   0.0564   0.0209   0.0012
     0.0000   0.0000   0.0000   0.0000   0.0000   0.0000

          k = 0.0000-0.5706 0.1027 (  2211 PWs)   bands (ev):

   -19.7169 -19.6765  -6.9584  -6.5268  -6.3053  -5.6708  -5.6014  -5.3299
    -3.2975  -3.1515  -3.0110  -2.5910  -2.5461  -2.3653   5.9795   6.2726
     6.8740   7.0505   7.2559   7.3176   7.6064   7.9053   8.0096   8.0692
     8.4214   9.0679   9.1876   9.4320   9.5752   9.6963  10.0475  10.4134
    11.1325  11.5937  11.7203  11.7267  11.7871  11.8063  12.3057  12.7749
    13.4871  14.3623  16.8917  16.9398  17.5887  17.9354

     occupation numbers 
     0.0625   0.0625   0.0625   0.0625   0.0625   0.0625   0.0625   0.0625
     0.0625   0.0625   0.0625   0.0625   0.0625   0.0625   0.0625   0.0625
     0.0625   0.0625   0.0625   0.0625   0.0625   0.0625   0.0625   0.0625
     0.0625   0.0625   0.0625   0.0625   0.0625   0.0625   0.0625   0.0625
     0.0625   0.0612   0.0590   0.0589   0.0571   0.0564   0.0208   0.0012
     0.0000   0.0000   0.0000   0.0000   0.0000   0.0000

          k = 0.7412 0.4280 0.3080 (  2210 PWs)   bands (ev):

   -19.7167 -19.6763  -6.8944  -6.4336  -6.2836  -5.7753  -5.7323  -5.4571
    -3.0545  -3.0323  -2.9496  -2.7155  -2.6059  -2.4152   6.0378   6.4141
     6.9655   7.0380   7.2994   7.3067   7.6269   7.9242   8.0558   8.1031
     8.3976   9.0369   9.0473   9.5425   9.5713   9.6113   9.6901  10.2489
    11.1885  11.6144  11.7076  11.7167  11.8300  11.8716  12.2633  12.7226
    13.4351  14.3317  17.0669  17.0735  17.5569  17.9098

     occupation numbers 
     0.0625   0.0625   0.0625   0.0625   0.0625   0.0625   0.0625   0.0625
     0.0625   0.0625   0.0625   0.0625   0.0625   0.0625   0.0625   0.0625
     0.0625   0.0625   0.0625   0.0625   0.0625   0.0625   0.0625   0.0625
     0.0625   0.0625   0.0625   0.0625   0.0625   0.0625   0.0625   0.0625
     0.0625   0.0609   0.0593   0.0591   0.0555   0.0536   0.0242   0.0019
     0.0000   0.0000   0.0000   0.0000   0.0000   0.0000

          k = 0.0000 0.8559-0.3080 (  2210 PWs)   bands (ev):

   -19.7167 -19.6763  -6.8944  -6.4336  -6.2836  -5.7753  -5.7324  -5.4571
    -3.0545  -3.0323  -2.9496  -2.7155  -2.6059  -2.4152   6.0378   6.4141
     6.9655   7.0380   7.2984   7.3077   7.6268   7.9242   8.0588   8.0996
     8.3981   9.0380   9.0463   9.5424   9.5714   9.6112   9.6903  10.2489
    11.1885  11.6144  11.7075  11.7168  11.8300  11.8716  12.2633  12.7226
    13.4351  14.3317  17.0670  17.0735  17.5569  17.9098

     occupation numbers 
     0.0625   0.0625   0.0625   0.0625   0.0625   0.0625   0.0625   0.0625
     0.0625   0.0625   0.0625   0.0625   0.0625   0.0625   0.0625   0.0625
     0.0625   0.0625   0.0625   0.0625   0.0625   0.0625   0.0625   0.0625
     0.0625   0.0625   0.0625   0.0625   0.0625   0.0625   0.0625   0.0625
     0.0625   0.0609   0.0593   0.0591   0.0555   0.0536   0.0242   0.0019
     0.0000   0.0000   0.0000   0.0000   0.0000   0.0000

          k = 0.2471 0.7133-0.2053 (  2206 PWs)   bands (ev):

   -19.6961 -19.6958  -6.8694  -6.8542  -6.0336  -6.0123  -5.4035  -5.3903
    -3.1382  -3.1377  -2.7988  -2.7952  -2.3703  -2.3674   6.1194   6.1407
     7.0367   7.0474   7.1702   7.1768   7.4536   7.4671   8.2276   8.2682
     8.8257   8.8402   9.0955   9.1064   9.5798   9.5891  10.1268  10.1341
    11.4010  11.4016  11.6029  11.6035  11.8724  11.8759  12.3367  12.3386
    14.0216  14.0306  17.4352  17.4374  17.8729  17.8740

     occupation numbers 
     0.0625   0.0625   0.0625   0.0625   0.0625   0.0625   0.0625   0.0625
     0.0625   0.0625   0.0625   0.0625   0.0625   0.0625   0.0625   0.0625
     0.0625   0.0625   0.0625   0.0625   0.0625   0.0625   0.0625   0.0625
     0.0625   0.0625   0.0625   0.0625   0.0625   0.0625   0.0625   0.0625
     0.0623   0.0623   0.0611   0.0611   0.0536   0.0534   0.0184   0.0183
     0.0000   0.0000   0.0000   0.0000   0.0000   0.0000

          k =-0.7412-0.1427-0.2053 (  2206 PWs)   bands (ev):

   -19.6953 -19.6953  -6.8807  -6.8558  -6.0143  -6.0128  -5.4111  -5.3895
    -3.1394  -3.1379  -2.7962  -2.7951  -2.3767  -2.3672   6.1185   6.1366
     7.0482   7.0517   7.1710   7.1972   7.4659   7.4677   8.2217   8.2571
     8.8216   8.8235   9.1013   9.1027   9.5731   9.5769  10.1359  10.1371
    11.4039  11.4046  11.6028  11.6038  11.8723  11.8726  12.3366  12.3396
    14.0209  14.0299  17.4354  17.4361  17.8734  17.8758

     occupation numbers 
     0.0625   0.0625   0.0625   0.0625   0.0625   0.0625   0.0625   0.0625
     0.0625   0.0625   0.0625   0.0625   0.0625   0.0625   0.0625   0.0625
     0.0625   0.0625   0.0625   0.0625   0.0625   0.0625   0.0625   0.0625
     0.0625   0.0625   0.0625   0.0625   0.0625   0.0625   0.0625   0.0625
     0.0623   0.0623   0.0611   0.0611   0.0536   0.0536   0.0184   0.0182
     0.0000   0.0000   0.0000   0.0000   0.0000   0.0000

     the Fermi energy is    12.1807 ev

!    total energy              =    -538.29314506 Ry
     Harris-Foulkes estimate   =    -538.29314506 Ry
     estimated scf accuracy    <          1.1E-09 Ry

     The total energy is the sum of the following terms:

     one-electron contribution =     -32.88881115 Ry
     hartree contribution      =      83.59871766 Ry
     xc contribution           =    -199.55381284 Ry
     ewald contribution        =    -389.44315552 Ry
     Hubbard energy            =       0.03989330 Ry
     smearing contrib. (-TS)   =      -0.04597652 Ry

     convergence has been achieved in   8 iterations

     init_run     :      6.86s CPU      6.99s WALL (       1 calls)
     electrons    :    247.16s CPU    249.39s WALL (       1 calls)

     Called by init_run:
     wfcinit      :      0.00s CPU      0.00s WALL (       1 calls)
     potinit      :      0.31s CPU      0.33s WALL (       1 calls)

     Called by electrons:
     c_bands      :    194.85s CPU    195.81s WALL (       8 calls)
     sum_band     :     38.06s CPU     38.38s WALL (       8 calls)
     v_of_rho     :      2.11s CPU      2.14s WALL (       9 calls)
     v_h          :      0.11s CPU      0.11s WALL (       9 calls)
     v_xc         :      2.00s CPU      2.02s WALL (       9 calls)
     newd         :     13.40s CPU     13.59s WALL (       9 calls)
     mix_rho      :      0.18s CPU      0.18s WALL (       8 calls)

     Called by c_bands:
     init_us_2    :      1.85s CPU      1.86s WALL (     576 calls)
     cegterg      :    189.37s CPU    189.98s WALL (     288 calls)

     Called by sum_band:
     sum_band:bec :      0.21s CPU      0.22s WALL (     288 calls)
     addusdens    :      8.68s CPU      8.68s WALL (       8 calls)

     Called by *egterg:
     h_psi        :    136.51s CPU    137.00s WALL (    1326 calls)
     s_psi        :      7.73s CPU      7.73s WALL (    1326 calls)
     g_psi        :      0.70s CPU      0.70s WALL (    1038 calls)
     cdiaghg      :     18.95s CPU     18.99s WALL (    1290 calls)
     cegterg:over :      9.84s CPU      9.93s WALL (    1038 calls)
     cegterg:upda :      6.33s CPU      6.34s WALL (    1038 calls)
     cegterg:last :      4.01s CPU      4.01s WALL (     324 calls)

     Called by h_psi:
     h_psi:vloc   :    111.11s CPU    111.51s WALL (    1326 calls)
     h_psi:vnl    :     16.14s CPU     16.19s WALL (    1326 calls)
     add_vuspsi   :      7.80s CPU      7.83s WALL (    1326 calls)
     vhpsi        :      9.00s CPU      9.02s WALL (    1326 calls)

     General routines
     calbec       :     17.23s CPU     17.26s WALL (    3228 calls)
     fft          :      1.38s CPU      1.40s WALL (     139 calls)
     ffts         :      0.04s CPU      0.04s WALL (      17 calls)
     fftw         :    110.47s CPU    110.88s WALL (   82302 calls)
     interpolate  :      0.22s CPU      0.23s WALL (      17 calls)
     davcio       :      0.01s CPU      0.48s WALL (     612 calls)

     Parallel routines
     fft_scatter  :     27.88s CPU     28.34s WALL (   82458 calls)
     Hubbard U routines
     new_ns       :      1.66s CPU      1.88s WALL (       8 calls)
     vhpsi        :      9.00s CPU      9.02s WALL (    1326 calls)

     PWSCF        :  4m14.43s CPU     4m17.11s WALL


   This run was terminated on:   8:19:30  11Nov2012            

=------------------------------------------------------------------------------=
